                         Program Version 4.2.1 -  RELEASE  -
|  1> ! wB97X-D3 SP def2-SVP
|  2> %pal
|  3> nprocs 16
|  4> end
|  5>
|  6> * xyz 0 1
|  7> S 	 -48.1782 	 59.7053 	 130.648
|  8> C 	 -47.6911 	 59.4268 	 128.925
|  9> C 	 -48.6293 	 60.0453 	 128.043
| 10> C 	 -49.7111 	 60.6034 	 128.717
| 11> C 	 -49.6021 	 60.5624 	 130.129
| 12> H 	 -50.4932 	 61.1791 	 128.278
| 13> C 	 -48.458 	 59.8036 	 126.513
| 14> H 	 -48.7533 	 58.8023 	 126.283
| 15> H 	 -47.4112 	 59.9404 	 126.269
| 16> C 	 -49.275 	 60.836 	 125.731
| 17> H 	 -50.3522 	 60.5709 	 125.756
| 18> H 	 -49.1859 	 61.8916 	 126.146
| 19> C 	 -48.9111 	 60.9794 	 124.24
| 20> H 	 -47.9001 	 60.8196 	 123.923
| 21> H 	 -49.4615 	 60.1977 	 123.594
| 22> H 	 -49.1578 	 62.0078 	 123.912
| 23> S 	 -51.0997 	 60.0345 	 132.331
| 24> C 	 -52.2093 	 61.1652 	 132.914
| 25> C 	 -52.1551 	 62.288 	 132.138
| 26> C 	 -51.1185 	 62.3216 	 131.158
| 27> C 	 -50.4869 	 61.1546 	 131.107
| 28> H 	 -52.9041 	 62.9818 	 132.239
| 29> C 	 -50.9297 	 63.5312 	 130.159
| 30> H 	 -51.7689 	 64.1374 	 130.241
| 31> H 	 -50.7781 	 63.2372 	 129.102
| 32> C 	 -49.9607 	 64.582 	 130.629
| 33> H 	 -50.1982 	 64.8709 	 131.654
| 34> H 	 -50.1239 	 65.4794 	 129.986
| 35> C 	 -48.4432 	 64.2708 	 130.59
| 36> H 	 -48.3011 	 63.5474 	 131.425
| 37> H 	 -47.8496 	 65.2193 	 130.763
| 38> H 	 -48.1458 	 63.7968 	 129.662
| 39> H 	 -47.0744 	 58.7005 	 128.689
| 40> H 	 -53.0142 	 60.8803 	 133.569
| 41> *
| 42>
| 43>                          ****END OF INPUT****

CARTESIAN COORDINATES (ANGSTROEM)
---------------------------------
  S    -48.178200   59.705300  130.648000
  C    -47.691100   59.426800  128.925000
  C    -48.629300   60.045300  128.043000
  C    -49.711100   60.603400  128.717000
  C    -49.602100   60.562400  130.129000
  H    -50.493200   61.179100  128.278000
  C    -48.458000   59.803600  126.513000
  H    -48.753300   58.802300  126.283000
  H    -47.411200   59.940400  126.269000
  C    -49.275000   60.836000  125.731000
  H    -50.352200   60.570900  125.756000
  H    -49.185900   61.891600  126.146000
  C    -48.911100   60.979400  124.240000
  H    -47.900100   60.819600  123.923000
  H    -49.461500   60.197700  123.594000
  H    -49.157800   62.007800  123.912000
  S    -51.099700   60.034500  132.331000
  C    -52.209300   61.165200  132.914000
  C    -52.155100   62.288000  132.138000
  C    -51.118500   62.321600  131.158000
  C    -50.486900   61.154600  131.107000
  H    -52.904100   62.981800  132.239000
  C    -50.929700   63.531200  130.159000
  H    -51.768900   64.137400  130.241000
  H    -50.778100   63.237200  129.102000
  C    -49.960700   64.582000  130.629000
  H    -50.198200   64.870900  131.654000
  H    -50.123900   65.479400  129.986000
  C    -48.443200   64.270800  130.590000
  H    -48.301100   63.547400  131.425000
  H    -47.849600   65.219300  130.763000
  H    -48.145800   63.796800  129.662000
  H    -47.074400   58.700500  128.689000
  H    -53.014200   60.880300  133.569000

 Total Charge           Charge          ....    0
 Multiplicity           Mult            ....    1
 Number of Electrons    NEL             ....  134
 Basis Dimension        Dim             ....  322

ORBITAL ENERGIES
----------------

  NO   OCC          E(Eh)            E(eV)
   0   2.0000     -88.967988     -2420.9420
   1   2.0000     -88.960356     -2420.7344
   2   2.0000     -10.331722      -281.1404
   3   2.0000     -10.320837      -280.8442
   4   2.0000     -10.311794      -280.5982
   5   2.0000     -10.307295      -280.4758
   6   2.0000     -10.306631      -280.4577
   7   2.0000     -10.302788      -280.3531
   8   2.0000     -10.295726      -280.1610
   9   2.0000     -10.295456      -280.1536
  10   2.0000     -10.293948      -280.1126
  11   2.0000     -10.293524      -280.1010
  12   2.0000     -10.286809      -279.9183
  13   2.0000     -10.284611      -279.8585
  14   2.0000     -10.284427      -279.8535
  15   2.0000     -10.274510      -279.5836
  16   2.0000      -8.081609      -219.9118
  17   2.0000      -8.076709      -219.7784
  18   2.0000      -6.039948      -164.3553
  19   2.0000      -6.036131      -164.2515
  20   2.0000      -6.035076      -164.2228
  21   2.0000      -6.032771      -164.1601
  22   2.0000      -6.030974      -164.1112
  23   2.0000      -6.027492      -164.0164
  24   2.0000      -1.014054       -27.5938
  25   2.0000      -0.981444       -26.7064
  26   2.0000      -0.911237       -24.7960
  27   2.0000      -0.909874       -24.7589
  28   2.0000      -0.870173       -23.6786
  29   2.0000      -0.851446       -23.1690
  30   2.0000      -0.841475       -22.8977
  31   2.0000      -0.814552       -22.1651
  32   2.0000      -0.788271       -21.4499
  33   2.0000      -0.776797       -21.1377
  34   2.0000      -0.711824       -19.3697
  35   2.0000      -0.691308       -18.8114
  36   2.0000      -0.685816       -18.6620
  37   2.0000      -0.665483       -18.1087
  38   2.0000      -0.645996       -17.5784
  39   2.0000      -0.620777       -16.8922
  40   2.0000      -0.602216       -16.3871
  41   2.0000      -0.571978       -15.5643
  42   2.0000      -0.563838       -15.3428
  43   2.0000      -0.548195       -14.9171
  44   2.0000      -0.544526       -14.8173
  45   2.0000      -0.527665       -14.3585
  46   2.0000      -0.519140       -14.1265
  47   2.0000      -0.512122       -13.9355
  48   2.0000      -0.503954       -13.7133
  49   2.0000      -0.502042       -13.6613
  50   2.0000      -0.492732       -13.4079
  51   2.0000      -0.481475       -13.1016
  52   2.0000      -0.475884       -12.9495
  53   2.0000      -0.472230       -12.8500
  54   2.0000      -0.457656       -12.4535
  55   2.0000      -0.444747       -12.1022
  56   2.0000      -0.436119       -11.8674
  57   2.0000      -0.435522       -11.8512
  58   2.0000      -0.431279       -11.7357
  59   2.0000      -0.425280       -11.5725
  60   2.0000      -0.421438       -11.4679
  61   2.0000      -0.407460       -11.0876
  62   2.0000      -0.402900       -10.9635
  63   2.0000      -0.345375        -9.3981
  64   2.0000      -0.337443        -9.1823
  65   2.0000      -0.332031        -9.0350
  66   2.0000      -0.290346        -7.9007
  67   0.0000       0.024430         0.6648
  68   0.0000       0.068028         1.8511
  69   0.0000       0.110887         3.0174
  70   0.0000       0.117998         3.2109
  71   0.0000       0.128866         3.5066

MULLIKEN ATOMIC CHARGES
-----------------------
   0 S :    0.106386
   1 C :   -0.066512
   2 C :   -0.109209
   3 C :    0.033547
   4 C :   -0.153634
   5 H :    0.003617
   6 C :    0.113819
   7 H :    0.044169
   8 H :    0.029881
   9 C :   -0.150221
  10 H :    0.046528
  11 H :    0.045886
  12 C :   -0.057233
  13 H :    0.023627
  14 H :    0.036557
  15 H :    0.037422
  16 S :    0.098392
  17 C :   -0.070407
  18 C :   -0.034642
  19 C :   -0.029755
  20 C :   -0.157411
  21 H :   -0.015343
  22 C :    0.137508
  23 H :   -0.004799
  24 H :    0.035418
  25 C :   -0.115801
  26 H :    0.025455
  27 H :    0.028866
  28 C :   -0.061083
  29 H :    0.041431
  30 H :    0.045342
  31 H :    0.032753
  32 H :   -0.002432
  33 H :    0.061876
Sum of atomic charges:   -0.0000000

LOEWDIN ATOMIC CHARGES
----------------------
   0 S :    0.399598
   1 C :   -0.167670
   2 C :   -0.047950
   3 C :   -0.069883
   4 C :   -0.188745
   5 H :    0.024833
   6 C :   -0.021422
   7 H :    0.032055
   8 H :    0.031770
   9 C :   -0.054460
  10 H :    0.029817
  11 H :    0.031460
  12 C :   -0.075930
  13 H :    0.017700
  14 H :    0.031997
  15 H :    0.029883
  16 S :    0.417926
  17 C :   -0.196323
  18 C :   -0.064719
  19 C :   -0.054239
  20 C :   -0.194944
  21 H :    0.014399
  22 C :   -0.020348
  23 H :    0.026384
  24 H :    0.031552
  25 C :   -0.043068
  26 H :    0.023787
  27 H :    0.023747
  28 C :   -0.073111
  29 H :    0.029500
  30 H :    0.032609
  31 H :    0.021025
  32 H :   -0.008941
  33 H :    0.031712

  Mayer bond orders larger than 0.100000
B(  0-S ,  1-C ) :   1.1400 B(  0-S ,  4-C ) :   1.1876 B(  1-C ,  2-C ) :   1.5615
B(  1-C ,  4-C ) :   0.1290 B(  1-C , 32-H ) :   0.9880 B(  2-C ,  3-C ) :   1.3012
B(  2-C ,  6-C ) :   1.0015 B(  3-C ,  4-C ) :   1.5124 B(  3-C ,  5-H ) :   0.9934
B(  4-C , 20-C ) :   1.0226 B(  6-C ,  7-H ) :   0.9392 B(  6-C ,  8-H ) :   0.9447
B(  6-C ,  9-C ) :   1.0729 B(  9-C , 10-H ) :   0.9470 B(  9-C , 11-H ) :   0.9672
B(  9-C , 12-C ) :   1.0714 B( 12-C , 13-H ) :   0.9782 B( 12-C , 14-H ) :   0.9750
B( 12-C , 15-H ) :   0.9780 B( 16-S , 17-C ) :   1.1632 B( 16-S , 20-C ) :   1.1418
B( 17-C , 18-C ) :   1.6101 B( 17-C , 33-H ) :   0.9681 B( 18-C , 19-C ) :   1.2288
B( 18-C , 21-H ) :   1.0008 B( 19-C , 20-C ) :   1.6408 B( 19-C , 22-C ) :   1.0216
B( 22-C , 23-H ) :   0.9179 B( 22-C , 24-H ) :   0.9425 B( 22-C , 25-C ) :   1.0730
B( 25-C , 26-H ) :   0.9536 B( 25-C , 27-H ) :   0.9567 B( 25-C , 28-C ) :   1.0770
B( 28-C , 29-H ) :   0.9755 B( 28-C , 30-H ) :   0.9744 B( 28-C , 31-H ) :   0.9765

Dispersion correction           -0.014674391
FINAL SINGLE POINT ENERGY     -1339.853663410269

DIPOLE MOMENT
-------------
                                X             Y             Z
Electronic contribution:     -3.06041     -16.18306      23.47992
Nuclear contribution   :      2.67389      16.45985     -24.04953
                        -----------------------------------------
Total Dipole Moment    :     -0.38652       0.27679      -0.56961
                        -----------------------------------------
Magnitude (a.u.)       :      0.74193
Magnitude (Debye)      :      1.88585

Rotational constants in cm-1:     0.018844     0.008676     0.007346
Rotational constants in MHz :   564.940530   260.095012   220.214430

                             ****ORCA TERMINATED NORMALLY****
TOTAL RUN TIME: 0 days 0 hours 0 minutes 33 seconds 856 msec
