                         Program Version 4.2.1 -  RELEASE  -
|  1> ! wB97X-D3 SP def2-SVP
|  2> %pal
|  3> nprocs 16
|  4> end
|  5>
|  6> * xyz 0 1
|  7> S 	 52.6172 	 14.1793 	 82.4013
|  8> C 	 52.669 	 13.6163 	 84.0187
|  9> C 	 51.6857 	 14.2389 	 84.8535
| 10> C 	 50.8452 	 15.1388 	 84.1074
| 11> C 	 51.2845 	 15.188 	 82.7718
| 12> H 	 49.9144 	 15.6304 	 84.3826
| 13> C 	 51.3801 	 13.8997 	 86.2569
| 14> H 	 51.2987 	 14.8196 	 86.7928
| 15> H 	 52.1566 	 13.3262 	 86.7666
| 16> C 	 50.088 	 13.0836 	 86.4567
| 17> H 	 49.3625 	 13.7149 	 86.0095
| 18> H 	 50.0727 	 12.1715 	 85.8297
| 19> C 	 49.691 	 12.7296 	 87.8815
| 20> H 	 49.5185 	 13.6218 	 88.5152
| 21> H 	 48.7138 	 12.1977 	 87.7854
| 22> H 	 50.3393 	 12.1262 	 88.5131
| 23> S 	 50.4106 	 15.3561 	 80.151
| 24> C 	 49.6828 	 16.824 	 79.6399
| 25> C 	 49.8424 	 17.8529 	 80.5585
| 26> C 	 50.536 	 17.4091 	 81.7288
| 27> C 	 50.7882 	 16.0339 	 81.7384
| 28> H 	 49.4851 	 18.8269 	 80.3136
| 29> C 	 50.9153 	 18.3159 	 82.8875
| 30> H 	 51.4631 	 17.8078 	 83.6511
| 31> H 	 49.9886 	 18.4682 	 83.409
| 32> C 	 51.6317 	 19.6424 	 82.6756
| 33> H 	 51.1324 	 20.3473 	 82.0332
| 34> H 	 52.5957 	 19.2528 	 82.2066
| 35> C 	 51.9462 	 20.3274 	 84.0179
| 36> H 	 52.5564 	 19.6732 	 84.5509
| 37> H 	 51.0307 	 20.6391 	 84.5332
| 38> H 	 52.5085 	 21.2106 	 83.8596
| 39> H 	 53.4034 	 12.8564 	 84.3076
| 40> H 	 49.1544 	 16.7962 	 78.727
| 41> *
| 42>
| 43>                          ****END OF INPUT****

CARTESIAN COORDINATES (ANGSTROEM)
---------------------------------
  S     52.617200   14.179300   82.401300
  C     52.669000   13.616300   84.018700
  C     51.685700   14.238900   84.853500
  C     50.845200   15.138800   84.107400
  C     51.284500   15.188000   82.771800
  H     49.914400   15.630400   84.382600
  C     51.380100   13.899700   86.256900
  H     51.298700   14.819600   86.792800
  H     52.156600   13.326200   86.766600
  C     50.088000   13.083600   86.456700
  H     49.362500   13.714900   86.009500
  H     50.072700   12.171500   85.829700
  C     49.691000   12.729600   87.881500
  H     49.518500   13.621800   88.515200
  H     48.713800   12.197700   87.785400
  H     50.339300   12.126200   88.513100
  S     50.410600   15.356100   80.151000
  C     49.682800   16.824000   79.639900
  C     49.842400   17.852900   80.558500
  C     50.536000   17.409100   81.728800
  C     50.788200   16.033900   81.738400
  H     49.485100   18.826900   80.313600
  C     50.915300   18.315900   82.887500
  H     51.463100   17.807800   83.651100
  H     49.988600   18.468200   83.409000
  C     51.631700   19.642400   82.675600
  H     51.132400   20.347300   82.033200
  H     52.595700   19.252800   82.206600
  C     51.946200   20.327400   84.017900
  H     52.556400   19.673200   84.550900
  H     51.030700   20.639100   84.533200
  H     52.508500   21.210600   83.859600
  H     53.403400   12.856400   84.307600
  H     49.154400   16.796200   78.727000

 Total Charge           Charge          ....    0
 Multiplicity           Mult            ....    1
 Number of Electrons    NEL             ....  134
 Basis Dimension        Dim             ....  322

ORBITAL ENERGIES
----------------

  NO   OCC          E(Eh)            E(eV)
   0   2.0000     -88.968517     -2420.9564
   1   2.0000     -88.961393     -2420.7626
   2   2.0000     -10.323895      -280.9275
   3   2.0000     -10.320374      -280.8316
   4   2.0000     -10.314780      -280.6794
   5   2.0000     -10.313749      -280.6514
   6   2.0000     -10.306527      -280.4549
   7   2.0000     -10.305052      -280.4147
   8   2.0000     -10.298449      -280.2350
   9   2.0000     -10.294377      -280.1242
  10   2.0000     -10.287372      -279.9336
  11   2.0000     -10.284304      -279.8501
  12   2.0000     -10.283750      -279.8351
  13   2.0000     -10.282670      -279.8057
  14   2.0000     -10.281383      -279.7707
  15   2.0000     -10.271060      -279.4897
  16   2.0000      -8.084488      -219.9901
  17   2.0000      -8.076939      -219.7847
  18   2.0000      -6.042637      -164.4285
  19   2.0000      -6.038828      -164.3249
  20   2.0000      -6.035564      -164.2360
  21   2.0000      -6.035231      -164.2270
  22   2.0000      -6.031362      -164.1217
  23   2.0000      -6.027877      -164.0269
  24   2.0000      -1.009734       -27.4763
  25   2.0000      -0.984128       -26.7795
  26   2.0000      -0.915592       -24.9145
  27   2.0000      -0.910391       -24.7730
  28   2.0000      -0.869364       -23.6566
  29   2.0000      -0.856611       -23.3096
  30   2.0000      -0.848830       -23.0978
  31   2.0000      -0.811623       -22.0854
  32   2.0000      -0.785816       -21.3832
  33   2.0000      -0.769523       -20.9398
  34   2.0000      -0.706819       -19.2335
  35   2.0000      -0.699065       -19.0225
  36   2.0000      -0.693519       -18.8716
  37   2.0000      -0.658765       -17.9259
  38   2.0000      -0.644974       -17.5506
  39   2.0000      -0.621702       -16.9174
  40   2.0000      -0.603902       -16.4330
  41   2.0000      -0.572590       -15.5810
  42   2.0000      -0.566949       -15.4275
  43   2.0000      -0.556696       -15.1485
  44   2.0000      -0.529164       -14.3993
  45   2.0000      -0.521962       -14.2033
  46   2.0000      -0.516055       -14.0426
  47   2.0000      -0.513443       -13.9715
  48   2.0000      -0.508916       -13.8483
  49   2.0000      -0.498004       -13.5514
  50   2.0000      -0.494652       -13.4602
  51   2.0000      -0.475007       -12.9256
  52   2.0000      -0.474031       -12.8991
  53   2.0000      -0.464993       -12.6531
  54   2.0000      -0.462657       -12.5895
  55   2.0000      -0.453624       -12.3437
  56   2.0000      -0.449633       -12.2351
  57   2.0000      -0.435950       -11.8628
  58   2.0000      -0.432389       -11.7659
  59   2.0000      -0.429958       -11.6998
  60   2.0000      -0.420338       -11.4380
  61   2.0000      -0.416084       -11.3222
  62   2.0000      -0.409248       -11.1362
  63   2.0000      -0.344757        -9.3813
  64   2.0000      -0.331495        -9.0204
  65   2.0000      -0.327987        -8.9250
  66   2.0000      -0.283044        -7.7020
  67   0.0000       0.030054         0.8178
  68   0.0000       0.069569         1.8931
  69   0.0000       0.112253         3.0546
  70   0.0000       0.118867         3.2345
  71   0.0000       0.137519         3.7421

MULLIKEN ATOMIC CHARGES
-----------------------
   0 S :    0.131314
   1 C :   -0.128763
   2 C :   -0.081243
   3 C :    0.008900
   4 C :   -0.163424
   5 H :    0.031794
   6 C :    0.086907
   7 H :    0.016575
   8 H :    0.012046
   9 C :   -0.072534
  10 H :    0.010330
  11 H :    0.033205
  12 C :   -0.053015
  13 H :    0.026303
  14 H :    0.042362
  15 H :    0.033521
  16 S :    0.097901
  17 C :   -0.087690
  18 C :   -0.014374
  19 C :   -0.005775
  20 C :   -0.167067
  21 H :    0.010516
  22 C :    0.061054
  23 H :    0.008876
  24 H :    0.012904
  25 C :   -0.093883
  26 H :    0.028963
  27 H :    0.041704
  28 C :   -0.010200
  29 H :    0.020976
  30 H :    0.033048
  31 H :    0.023354
  32 H :    0.055790
  33 H :    0.049626
Sum of atomic charges:   -0.0000000

LOEWDIN ATOMIC CHARGES
----------------------
   0 S :    0.446568
   1 C :   -0.219833
   2 C :   -0.054978
   3 C :   -0.063436
   4 C :   -0.203698
   5 H :    0.037309
   6 C :   -0.037169
   7 H :    0.028195
   8 H :    0.026878
   9 C :   -0.039501
  10 H :    0.017797
  11 H :    0.029145
  12 C :   -0.071889
  13 H :    0.026099
  14 H :    0.036198
  15 H :    0.022884
  16 S :    0.404860
  17 C :   -0.179557
  18 C :   -0.068465
  19 C :   -0.046879
  20 C :   -0.207641
  21 H :    0.028666
  22 C :   -0.040702
  23 H :    0.026433
  24 H :    0.025596
  25 C :   -0.037574
  26 H :    0.016280
  27 H :    0.034923
  28 C :   -0.053258
  29 H :    0.018192
  30 H :    0.027816
  31 H :    0.023256
  32 H :    0.028386
  33 H :    0.019096

  Mayer bond orders larger than 0.100000
B(  0-S ,  1-C ) :   1.1562 B(  0-S ,  4-C ) :   1.1923 B(  1-C ,  2-C ) :   1.5643
B(  1-C ,  4-C ) :   0.1013 B(  1-C , 32-H ) :   0.9705 B(  2-C ,  3-C ) :   1.2411
B(  2-C ,  6-C ) :   1.0560 B(  3-C ,  4-C ) :   1.5337 B(  3-C ,  5-H ) :   0.9938
B(  4-C , 20-C ) :   1.0574 B(  6-C ,  7-H ) :   0.9257 B(  6-C ,  8-H ) :   0.9392
B(  6-C ,  9-C ) :   1.0617 B(  9-C , 10-H ) :   0.9520 B(  9-C , 11-H ) :   0.9546
B(  9-C , 12-C ) :   1.0849 B( 12-C , 13-H ) :   0.9719 B( 12-C , 14-H ) :   0.9721
B( 12-C , 15-H ) :   0.9766 B( 16-S , 17-C ) :   1.1794 B( 16-S , 20-C ) :   1.1315
B( 17-C , 18-C ) :   1.5713 B( 17-C , 20-C ) :   0.1028 B( 17-C , 33-H ) :   0.9758
B( 18-C , 19-C ) :   1.2347 B( 18-C , 21-H ) :   1.0051 B( 19-C , 20-C ) :   1.5715
B( 19-C , 22-C ) :   1.0398 B( 22-C , 23-H ) :   0.9326 B( 22-C , 24-H ) :   0.9230
B( 22-C , 25-C ) :   1.0560 B( 25-C , 26-H ) :   0.9554 B( 25-C , 27-H ) :   0.9569
B( 25-C , 28-C ) :   1.0893 B( 28-C , 29-H ) :   0.9743 B( 28-C , 30-H ) :   0.9739
B( 28-C , 31-H ) :   0.9721

Dispersion correction           -0.013648925
FINAL SINGLE POINT ENERGY     -1339.881108736228

DIPOLE MOMENT
-------------
                                X             Y             Z
Electronic contribution:      4.08850      -9.61660     -25.49308
Nuclear contribution   :     -4.30278       9.91487      25.93371
                        -----------------------------------------
Total Dipole Moment    :     -0.21428       0.29827       0.44063
                        -----------------------------------------
Magnitude (a.u.)       :      0.57362
Magnitude (Debye)      :      1.45802

Rotational constants in cm-1:     0.017173     0.008161     0.006637
Rotational constants in MHz :   514.844512   244.664831   198.967692

                             ****ORCA TERMINATED NORMALLY****
TOTAL RUN TIME: 0 days 0 hours 0 minutes 28 seconds 3 msec
