                         Program Version 4.2.1 -  RELEASE  -
|  1> ! wB97X-D3 SP def2-SVP
|  2> %pal
|  3> nprocs 16
|  4> end
|  5>
|  6> * xyz 0 1
|  7> S 	 51.1047 	 13.2216 	 83.2077
|  8> C 	 50.7511 	 14.7233 	 82.3274
|  9> C 	 50.5965 	 14.4702 	 80.972
| 10> C 	 50.5741 	 13.0534 	 80.7031
| 11> C 	 50.7374 	 12.2488 	 81.8273
| 12> H 	 50.4258 	 12.5064 	 79.7817
| 13> C 	 50.2686 	 15.5304 	 79.9
| 14> H 	 49.694 	 16.2765 	 80.4779
| 15> H 	 49.6037 	 15.133 	 79.156
| 16> C 	 51.4505 	 16.2527 	 79.2279
| 17> H 	 52.0478 	 16.7023 	 80.0326
| 18> H 	 52.0219 	 15.4771 	 78.6995
| 19> C 	 51.0925 	 17.3652 	 78.2513
| 20> H 	 50.5003 	 18.155 	 78.7505
| 21> H 	 51.9258 	 17.9063 	 77.9345
| 22> H 	 50.6149 	 17.0397 	 77.2947
| 23> S 	 52.0612 	 10.0449 	 81.0406
| 24> C 	 51.7127 	 8.5172 	 81.7029
| 25> C 	 50.5673 	 8.47392 	 82.5115
| 26> C 	 49.9653 	 9.84543 	 82.5166
| 27> C 	 50.731 	 10.8313 	 81.8713
| 28> H 	 50.3072 	 7.54997 	 83.0472
| 29> C 	 48.6889 	 10.2287 	 83.3277
| 30> H 	 47.7826 	 10.1274 	 82.6657
| 31> H 	 48.7832 	 11.2973 	 83.6681
| 32> C 	 48.3097 	 9.33385 	 84.572
| 33> H 	 48.2836 	 8.24383 	 84.2433
| 34> H 	 47.2848 	 9.59458 	 84.9411
| 35> C 	 49.2741 	 9.61329 	 85.6884
| 36> H 	 49.0696 	 10.5959 	 86.088
| 37> H 	 50.2554 	 9.6234 	 85.3396
| 38> H 	 49.2941 	 8.7818 	 86.4307
| 39> H 	 50.8311 	 15.7499 	 82.6239
| 40> H 	 52.3849 	 7.63926 	 81.609
| 41> *
| 42>
| 43>                          ****END OF INPUT****

CARTESIAN COORDINATES (ANGSTROEM)
---------------------------------
  S     51.104700   13.221600   83.207700
  C     50.751100   14.723300   82.327400
  C     50.596500   14.470200   80.972000
  C     50.574100   13.053400   80.703100
  C     50.737400   12.248800   81.827300
  H     50.425800   12.506400   79.781700
  C     50.268600   15.530400   79.900000
  H     49.694000   16.276500   80.477900
  H     49.603700   15.133000   79.156000
  C     51.450500   16.252700   79.227900
  H     52.047800   16.702300   80.032600
  H     52.021900   15.477100   78.699500
  C     51.092500   17.365200   78.251300
  H     50.500300   18.155000   78.750500
  H     51.925800   17.906300   77.934500
  H     50.614900   17.039700   77.294700
  S     52.061200   10.044900   81.040600
  C     51.712700    8.517200   81.702900
  C     50.567300    8.473920   82.511500
  C     49.965300    9.845430   82.516600
  C     50.731000   10.831300   81.871300
  H     50.307200    7.549970   83.047200
  C     48.688900   10.228700   83.327700
  H     47.782600   10.127400   82.665700
  H     48.783200   11.297300   83.668100
  C     48.309700    9.333850   84.572000
  H     48.283600    8.243830   84.243300
  H     47.284800    9.594580   84.941100
  C     49.274100    9.613290   85.688400
  H     49.069600   10.595900   86.088000
  H     50.255400    9.623400   85.339600
  H     49.294100    8.781800   86.430700
  H     50.831100   15.749900   82.623900
  H     52.384900    7.639260   81.609000

 Total Charge           Charge          ....    0
 Multiplicity           Mult            ....    1
 Number of Electrons    NEL             ....  134
 Basis Dimension        Dim             ....  322

ORBITAL ENERGIES
----------------

  NO   OCC          E(Eh)            E(eV)
   0   2.0000     -88.970339     -2421.0060
   1   2.0000     -88.965128     -2420.8642
   2   2.0000     -10.326636      -281.0021
   3   2.0000     -10.325452      -280.9698
   4   2.0000     -10.321422      -280.8602
   5   2.0000     -10.319744      -280.8145
   6   2.0000     -10.315776      -280.7065
   7   2.0000     -10.307155      -280.4719
   8   2.0000     -10.306471      -280.4533
   9   2.0000     -10.298615      -280.2396
  10   2.0000     -10.294735      -280.1340
  11   2.0000     -10.293892      -280.1110
  12   2.0000     -10.291705      -280.0515
  13   2.0000     -10.289466      -279.9906
  14   2.0000     -10.278487      -279.6919
  15   2.0000     -10.266071      -279.3540
  16   2.0000      -8.084354      -219.9864
  17   2.0000      -8.080784      -219.8893
  18   2.0000      -6.042969      -164.4376
  19   2.0000      -6.039227      -164.3357
  20   2.0000      -6.038935      -164.3278
  21   2.0000      -6.035053      -164.2221
  22   2.0000      -6.034990      -164.2204
  23   2.0000      -6.031715      -164.1313
  24   2.0000      -1.007728       -27.4217
  25   2.0000      -0.981612       -26.7110
  26   2.0000      -0.910345       -24.7718
  27   2.0000      -0.901461       -24.5300
  28   2.0000      -0.874208       -23.7884
  29   2.0000      -0.847826       -23.0705
  30   2.0000      -0.842669       -22.9302
  31   2.0000      -0.813314       -22.1314
  32   2.0000      -0.784190       -21.3389
  33   2.0000      -0.768716       -20.9178
  34   2.0000      -0.707725       -19.2582
  35   2.0000      -0.699227       -19.0269
  36   2.0000      -0.687699       -18.7133
  37   2.0000      -0.653940       -17.7946
  38   2.0000      -0.638387       -17.3714
  39   2.0000      -0.611948       -16.6520
  40   2.0000      -0.590777       -16.0759
  41   2.0000      -0.575856       -15.6698
  42   2.0000      -0.564198       -15.3526
  43   2.0000      -0.546007       -14.8576
  44   2.0000      -0.537493       -14.6259
  45   2.0000      -0.520887       -14.1740
  46   2.0000      -0.518370       -14.1056
  47   2.0000      -0.513439       -13.9714
  48   2.0000      -0.507171       -13.8008
  49   2.0000      -0.500491       -13.6191
  50   2.0000      -0.492298       -13.3961
  51   2.0000      -0.478444       -13.0191
  52   2.0000      -0.469962       -12.7883
  53   2.0000      -0.463438       -12.6108
  54   2.0000      -0.457241       -12.4422
  55   2.0000      -0.448702       -12.2098
  56   2.0000      -0.444416       -12.0932
  57   2.0000      -0.432768       -11.7762
  58   2.0000      -0.427814       -11.6414
  59   2.0000      -0.424665       -11.5557
  60   2.0000      -0.421824       -11.4784
  61   2.0000      -0.412415       -11.2224
  62   2.0000      -0.410179       -11.1615
  63   2.0000      -0.337078        -9.1723
  64   2.0000      -0.332366        -9.0441
  65   2.0000      -0.326496        -8.8844
  66   2.0000      -0.300492        -8.1768
  67   0.0000       0.034261         0.9323
  68   0.0000       0.058484         1.5914
  69   0.0000       0.110902         3.0178
  70   0.0000       0.113269         3.0822
  71   0.0000       0.123018         3.3475

MULLIKEN ATOMIC CHARGES
-----------------------
   0 S :    0.129293
   1 C :   -0.102206
   2 C :   -0.081885
   3 C :    0.033843
   4 C :   -0.168730
   5 H :    0.008913
   6 C :    0.054139
   7 H :    0.019540
   8 H :    0.023114
   9 C :   -0.069200
  10 H :    0.027815
  11 H :    0.033522
  12 C :   -0.033152
  13 H :    0.026196
  14 H :    0.018359
  15 H :    0.037829
  16 S :    0.123411
  17 C :   -0.104767
  18 C :   -0.050618
  19 C :   -0.026189
  20 C :   -0.173126
  21 H :    0.039927
  22 C :    0.008653
  23 H :    0.051415
  24 H :    0.038548
  25 C :   -0.110836
  26 H :    0.036523
  27 H :    0.037172
  28 C :   -0.013915
  29 H :    0.030900
  30 H :    0.013675
  31 H :    0.031903
  32 H :    0.038192
  33 H :    0.071743
Sum of atomic charges:   -0.0000000

LOEWDIN ATOMIC CHARGES
----------------------
   0 S :    0.415921
   1 C :   -0.193425
   2 C :   -0.057150
   3 C :   -0.062058
   4 C :   -0.210153
   5 H :    0.029953
   6 C :   -0.030799
   7 H :    0.030958
   8 H :    0.026701
   9 C :   -0.040877
  10 H :    0.026121
  11 H :    0.026184
  12 C :   -0.068765
  13 H :    0.027696
  14 H :    0.019938
  15 H :    0.029989
  16 S :    0.430077
  17 C :   -0.201379
  18 C :   -0.082775
  19 C :   -0.041737
  20 C :   -0.214828
  21 H :    0.039119
  22 C :   -0.040672
  23 H :    0.039041
  24 H :    0.029611
  25 C :   -0.049343
  26 H :    0.024736
  27 H :    0.028620
  28 C :   -0.066383
  29 H :    0.027264
  30 H :    0.014902
  31 H :    0.029419
  32 H :    0.027415
  33 H :    0.036678

  Mayer bond orders larger than 0.100000
B(  0-S ,  1-C ) :   1.1307 B(  0-S ,  4-C ) :   1.1423 B(  1-C ,  2-C ) :   1.6264
B(  1-C , 32-H ) :   0.9648 B(  2-C ,  3-C ) :   1.2222 B(  2-C ,  6-C ) :   1.0136
B(  3-C ,  4-C ) :   1.5773 B(  3-C ,  5-H ) :   0.9971 B(  4-C , 20-C ) :   1.0573
B(  6-C ,  7-H ) :   0.9421 B(  6-C ,  8-H ) :   0.9480 B(  6-C ,  9-C ) :   1.0637
B(  9-C , 10-H ) :   0.9545 B(  9-C , 11-H ) :   0.9552 B(  9-C , 12-C ) :   1.0920
B( 12-C , 13-H ) :   0.9709 B( 12-C , 14-H ) :   0.9706 B( 12-C , 15-H ) :   0.9731
B( 16-S , 17-C ) :   1.1859 B( 16-S , 20-C ) :   1.1289 B( 17-C , 18-C ) :   1.6099
B( 17-C , 33-H ) :   0.9579 B( 18-C , 19-C ) :   1.2066 B( 18-C , 21-H ) :   0.9882
B( 19-C , 20-C ) :   1.5960 B( 19-C , 22-C ) :   1.0313 B( 22-C , 23-H ) :   0.9354
B( 22-C , 24-H ) :   0.9428 B( 22-C , 25-C ) :   1.0691 B( 25-C , 26-H ) :   0.9511
B( 25-C , 27-H ) :   0.9576 B( 25-C , 28-C ) :   1.0739 B( 28-C , 29-H ) :   0.9715
B( 28-C , 30-H ) :   0.9758 B( 28-C , 31-H ) :   0.9723

Dispersion correction           -0.013984546
FINAL SINGLE POINT ENERGY     -1339.873428302143

DIPOLE MOMENT
-------------
                                X             Y             Z
Electronic contribution:      9.63461     -10.28983       1.10956
Nuclear contribution   :     -9.75578      10.38664      -1.24229
                        -----------------------------------------
Total Dipole Moment    :     -0.12117       0.09681      -0.13274
                        -----------------------------------------
Magnitude (a.u.)       :      0.20414
Magnitude (Debye)      :      0.51888

Rotational constants in cm-1:     0.025543     0.006807     0.005906
Rotational constants in MHz :   765.748408   204.079864   177.064761

                             ****ORCA TERMINATED NORMALLY****
TOTAL RUN TIME: 0 days 0 hours 0 minutes 27 seconds 304 msec
