                         Program Version 4.2.1 -  RELEASE  -
|  1> ! wB97X-D3 SP def2-SVP
|  2> %pal
|  3> nprocs 16
|  4> end
|  5>
|  6> * xyz 0 1
|  7> S 	 -6.13184 	 -10.1029 	 81.6831
|  8> C 	 -5.58231 	 -8.53231 	 81.1151
|  9> C 	 -5.96051 	 -7.53429 	 81.9455
| 10> C 	 -6.51429 	 -7.97289 	 83.1361
| 11> C 	 -6.49921 	 -9.35586 	 83.2061
| 12> H 	 -6.78123 	 -7.40526 	 84.019
| 13> C 	 -5.88862 	 -6.10017 	 81.6379
| 14> H 	 -5.18516 	 -6.07444 	 80.8248
| 15> H 	 -5.4144 	 -5.57489 	 82.4797
| 16> C 	 -7.17841 	 -5.38138 	 81.2779
| 17> H 	 -7.63144 	 -6.05137 	 80.5183
| 18> H 	 -7.81294 	 -5.35262 	 82.1628
| 19> C 	 -6.89771 	 -3.95069 	 80.8829
| 20> H 	 -6.08479 	 -3.85787 	 80.1137
| 21> H 	 -7.747 	 -3.39514 	 80.645
| 22> H 	 -6.46597 	 -3.58189 	 81.7893
| 23> S 	 -5.82101 	 -10.9269 	 85.3559
| 24> C 	 -7.0472 	 -11.0477 	 86.6297
| 25> C 	 -8.26827 	 -10.4636 	 86.309
| 26> C 	 -8.17005 	 -9.87497 	 85.038
| 27> C 	 -6.95058 	 -10.0557 	 84.4015
| 28> H 	 -9.15042 	 -10.4365 	 86.9162
| 29> C 	 -9.38575 	 -9.14172 	 84.4294
| 30> H 	 -9.59218 	 -9.59691 	 83.4154
| 31> H 	 -8.98265 	 -8.13513 	 84.3583
| 32> C 	 -10.7411 	 -9.06806 	 85.1438
| 33> H 	 -10.6113 	 -8.48829 	 86.0679
| 34> H 	 -11.1545 	 -10.0302 	 85.4467
| 35> C 	 -11.8167 	 -8.25411 	 84.3506
| 36> H 	 -11.5299 	 -7.19733 	 84.2456
| 37> H 	 -12.7758 	 -8.35795 	 84.8683
| 38> H 	 -11.875 	 -8.73799 	 83.3367
| 39> H 	 -5.18599 	 -8.30828 	 80.1868
| 40> H 	 -6.94913 	 -11.6788 	 87.5812
| 41> *
| 42>
| 43>                          ****END OF INPUT****

CARTESIAN COORDINATES (ANGSTROEM)
---------------------------------
  S     -6.131840  -10.102900   81.683100
  C     -5.582310   -8.532310   81.115100
  C     -5.960510   -7.534290   81.945500
  C     -6.514290   -7.972890   83.136100
  C     -6.499210   -9.355860   83.206100
  H     -6.781230   -7.405260   84.019000
  C     -5.888620   -6.100170   81.637900
  H     -5.185160   -6.074440   80.824800
  H     -5.414400   -5.574890   82.479700
  C     -7.178410   -5.381380   81.277900
  H     -7.631440   -6.051370   80.518300
  H     -7.812940   -5.352620   82.162800
  C     -6.897710   -3.950690   80.882900
  H     -6.084790   -3.857870   80.113700
  H     -7.747000   -3.395140   80.645000
  H     -6.465970   -3.581890   81.789300
  S     -5.821010  -10.926900   85.355900
  C     -7.047200  -11.047700   86.629700
  C     -8.268270  -10.463600   86.309000
  C     -8.170050   -9.874970   85.038000
  C     -6.950580  -10.055700   84.401500
  H     -9.150420  -10.436500   86.916200
  C     -9.385750   -9.141720   84.429400
  H     -9.592180   -9.596910   83.415400
  H     -8.982650   -8.135130   84.358300
  C    -10.741100   -9.068060   85.143800
  H    -10.611300   -8.488290   86.067900
  H    -11.154500  -10.030200   85.446700
  C    -11.816700   -8.254110   84.350600
  H    -11.529900   -7.197330   84.245600
  H    -12.775800   -8.357950   84.868300
  H    -11.875000   -8.737990   83.336700
  H     -5.185990   -8.308280   80.186800
  H     -6.949130  -11.678800   87.581200

 Total Charge           Charge          ....    0
 Multiplicity           Mult            ....    1
 Number of Electrons    NEL             ....  134
 Basis Dimension        Dim             ....  322

ORBITAL ENERGIES
----------------

  NO   OCC          E(Eh)            E(eV)
   0   2.0000     -88.969210     -2420.9753
   1   2.0000     -88.968022     -2420.9430
   2   2.0000     -10.323286      -280.9109
   3   2.0000     -10.322748      -280.8963
   4   2.0000     -10.316509      -280.7265
   5   2.0000     -10.302947      -280.3574
   6   2.0000     -10.298687      -280.2415
   7   2.0000     -10.293962      -280.1130
   8   2.0000     -10.290844      -280.0281
   9   2.0000     -10.290822      -280.0275
  10   2.0000     -10.287177      -279.9283
  11   2.0000     -10.286852      -279.9195
  12   2.0000     -10.286609      -279.9129
  13   2.0000     -10.285076      -279.8712
  14   2.0000     -10.282597      -279.8037
  15   2.0000     -10.275737      -279.6170
  16   2.0000      -8.083909      -219.9743
  17   2.0000      -8.082719      -219.9420
  18   2.0000      -6.042282      -164.4189
  19   2.0000      -6.041063      -164.3857
  20   2.0000      -6.038463      -164.3149
  21   2.0000      -6.037505      -164.2889
  22   2.0000      -6.034784      -164.2148
  23   2.0000      -6.033404      -164.1773
  24   2.0000      -1.011757       -27.5313
  25   2.0000      -0.988966       -26.9111
  26   2.0000      -0.921363       -25.0716
  27   2.0000      -0.904555       -24.6142
  28   2.0000      -0.872005       -23.7285
  29   2.0000      -0.855851       -23.2889
  30   2.0000      -0.851685       -23.1755
  31   2.0000      -0.813152       -22.1270
  32   2.0000      -0.782067       -21.2811
  33   2.0000      -0.767390       -20.8817
  34   2.0000      -0.706131       -19.2148
  35   2.0000      -0.698261       -19.0007
  36   2.0000      -0.695065       -18.9137
  37   2.0000      -0.655619       -17.8403
  38   2.0000      -0.642994       -17.4968
  39   2.0000      -0.619218       -16.8498
  40   2.0000      -0.592255       -16.1161
  41   2.0000      -0.579569       -15.7709
  42   2.0000      -0.572028       -15.5657
  43   2.0000      -0.562270       -15.3001
  44   2.0000      -0.530090       -14.4245
  45   2.0000      -0.520717       -14.1694
  46   2.0000      -0.519198       -14.1281
  47   2.0000      -0.513104       -13.9623
  48   2.0000      -0.509145       -13.8545
  49   2.0000      -0.492742       -13.4082
  50   2.0000      -0.485188       -13.2026
  51   2.0000      -0.476589       -12.9687
  52   2.0000      -0.470622       -12.8063
  53   2.0000      -0.465214       -12.6591
  54   2.0000      -0.459714       -12.5095
  55   2.0000      -0.456197       -12.4138
  56   2.0000      -0.449813       -12.2400
  57   2.0000      -0.434588       -11.8257
  58   2.0000      -0.433844       -11.8055
  59   2.0000      -0.429185       -11.6787
  60   2.0000      -0.425521       -11.5790
  61   2.0000      -0.420576       -11.4445
  62   2.0000      -0.408850       -11.1254
  63   2.0000      -0.342535        -9.3209
  64   2.0000      -0.332801        -9.0560
  65   2.0000      -0.323845        -8.8123
  66   2.0000      -0.295738        -8.0474
  67   0.0000       0.034557         0.9403
  68   0.0000       0.064924         1.7667
  69   0.0000       0.113706         3.0941
  70   0.0000       0.117876         3.2076
  71   0.0000       0.131090         3.5671

MULLIKEN ATOMIC CHARGES
-----------------------
   0 S :    0.119401
   1 C :   -0.078135
   2 C :   -0.076261
   3 C :    0.019210
   4 C :   -0.169586
   5 H :    0.023693
   6 C :    0.054965
   7 H :   -0.001631
   8 H :    0.019193
   9 C :   -0.064226
  10 H :    0.031379
  11 H :    0.023775
  12 C :    0.004574
  13 H :    0.032796
  14 H :    0.030598
  15 H :    0.011795
  16 S :    0.132677
  17 C :   -0.113157
  18 C :   -0.032641
  19 C :   -0.056145
  20 C :   -0.173206
  21 H :    0.016532
  22 C :    0.074000
  23 H :    0.047193
  24 H :    0.020941
  25 C :   -0.102565
  26 H :    0.024360
  27 H :    0.034244
  28 C :   -0.055139
  29 H :    0.041495
  30 H :    0.043019
  31 H :    0.037752
  32 H :    0.003963
  33 H :    0.075138
Sum of atomic charges:   -0.0000000

LOEWDIN ATOMIC CHARGES
----------------------
   0 S :    0.408593
   1 C :   -0.185550
   2 C :   -0.066868
   3 C :   -0.056269
   4 C :   -0.192661
   5 H :    0.033727
   6 C :   -0.033090
   7 H :    0.023670
   8 H :    0.028124
   9 C :   -0.036536
  10 H :    0.024573
  11 H :    0.023073
  12 C :   -0.056390
  13 H :    0.030387
  14 H :    0.018576
  15 H :    0.024902
  16 S :    0.424144
  17 C :   -0.190805
  18 C :   -0.071970
  19 C :   -0.054835
  20 C :   -0.228647
  21 H :    0.031857
  22 C :   -0.036835
  23 H :    0.039345
  24 H :    0.031559
  25 C :   -0.049334
  26 H :    0.021774
  27 H :    0.020656
  28 C :   -0.062365
  29 H :    0.026545
  30 H :    0.028992
  31 H :    0.028866
  32 H :    0.011266
  33 H :    0.041524

  Mayer bond orders larger than 0.100000
B(  0-S ,  1-C ) :   1.1183 B(  0-S ,  4-C ) :   1.1661 B(  1-C ,  2-C ) :   1.6267
B(  1-C , 32-H ) :   0.9697 B(  2-C ,  3-C ) :   1.2397 B(  2-C ,  6-C ) :   1.0380
B(  3-C ,  4-C ) :   1.5695 B(  3-C ,  5-H ) :   0.9933 B(  4-C , 20-C ) :   1.0179
B(  6-C ,  7-H ) :   0.9315 B(  6-C ,  8-H ) :   0.9282 B(  6-C ,  9-C ) :   1.0632
B(  9-C , 10-H ) :   0.9536 B(  9-C , 11-H ) :   0.9514 B(  9-C , 12-C ) :   1.0763
B( 12-C , 13-H ) :   0.9754 B( 12-C , 14-H ) :   0.9736 B( 12-C , 15-H ) :   0.9687
B( 16-S , 17-C ) :   1.1725 B( 16-S , 20-C ) :   1.1496 B( 17-C , 18-C ) :   1.5716
B( 17-C , 20-C ) :   0.1002 B( 17-C , 33-H ) :   0.9515 B( 18-C , 19-C ) :   1.2903
B( 18-C , 21-H ) :   0.9875 B( 19-C , 20-C ) :   1.5933 B( 19-C , 22-C ) :   1.0075
B( 22-C , 23-H ) :   0.9369 B( 22-C , 24-H ) :   0.9227 B( 22-C , 25-C ) :   1.0895
B( 25-C , 26-H ) :   0.9456 B( 25-C , 27-H ) :   0.9521 B( 25-C , 28-C ) :   1.0813
B( 28-C , 29-H ) :   0.9764 B( 28-C , 30-H ) :   0.9733 B( 28-C , 31-H ) :   0.9758

Dispersion correction           -0.013979333
FINAL SINGLE POINT ENERGY     -1339.869249347201

DIPOLE MOMENT
-------------
                                X             Y             Z
Electronic contribution:     18.49965     -24.46324       4.12324
Nuclear contribution   :    -18.98515      25.02171      -3.99447
                        -----------------------------------------
Total Dipole Moment    :     -0.48550       0.55847       0.12877
                        -----------------------------------------
Magnitude (a.u.)       :      0.75112
Magnitude (Debye)      :      1.90918

Rotational constants in cm-1:     0.016082     0.009134     0.006697
Rotational constants in MHz :   482.115458   273.823078   200.769154

                             ****ORCA TERMINATED NORMALLY****
TOTAL RUN TIME: 0 days 0 hours 0 minutes 34 seconds 317 msec
