                         Program Version 4.2.1 -  RELEASE  -
|  1> ! wB97X-D3 SP def2-SVP
|  2> %pal
|  3> nprocs 16
|  4> end
|  5>
|  6> * xyz 0 1
|  7> S 	 -62.9291 	 36.313 	 118.196
|  8> C 	 -63.5323 	 35.7197 	 119.751
|  9> C 	 -64.2159 	 36.7028 	 120.437
| 10> C 	 -64.4737 	 37.7868 	 119.618
| 11> C 	 -63.9243 	 37.7336 	 118.357
| 12> H 	 -65.0383 	 38.6654 	 119.927
| 13> C 	 -64.8707 	 36.5434 	 121.85
| 14> H 	 -65.4519 	 37.5033 	 121.981
| 15> H 	 -64.0607 	 36.4521 	 122.63
| 16> C 	 -65.9567 	 35.4694 	 122.01
| 17> H 	 -66.3652 	 35.592 	 122.994
| 18> H 	 -66.7793 	 35.7198 	 121.303
| 19> C 	 -65.3572 	 34.0278 	 121.902
| 20> H 	 -66.0889 	 33.1802 	 122.159
| 21> H 	 -65.0979 	 33.9072 	 120.882
| 22> H 	 -64.4254 	 33.873 	 122.502
| 23> S 	 -62.5403 	 39.1978 	 116.539
| 24> C 	 -63.3323 	 40.4987 	 115.663
| 25> C 	 -64.688 	 40.3413 	 115.771
| 26> C 	 -65.1186 	 39.3433 	 116.701
| 27> C 	 -64.0557 	 38.668 	 117.288
| 28> H 	 -65.361 	 40.9985 	 115.21
| 29> C 	 -66.5972 	 38.9951 	 116.921
| 30> H 	 -66.697 	 38.0542 	 117.497
| 31> H 	 -67.0312 	 38.6829 	 115.925
| 32> C 	 -67.4527 	 40.2141 	 117.532
| 33> H 	 -68.5425 	 39.9033 	 117.551
| 34> H 	 -67.4582 	 41.0597 	 116.842
| 35> C 	 -66.946 	 40.6406 	 118.939
| 36> H 	 -66.6955 	 39.7696 	 119.488
| 37> H 	 -67.6762 	 41.1934 	 119.464
| 38> H 	 -65.9852 	 41.2108 	 118.855
| 39> H 	 -63.2251 	 34.7518 	 120.157
| 40> H 	 -62.9338 	 41.0554 	 114.823
| 41> *
| 42>
| 43>                          ****END OF INPUT****

CARTESIAN COORDINATES (ANGSTROEM)
---------------------------------
  S    -62.929100   36.313000  118.196000
  C    -63.532300   35.719700  119.751000
  C    -64.215900   36.702800  120.437000
  C    -64.473700   37.786800  119.618000
  C    -63.924300   37.733600  118.357000
  H    -65.038300   38.665400  119.927000
  C    -64.870700   36.543400  121.850000
  H    -65.451900   37.503300  121.981000
  H    -64.060700   36.452100  122.630000
  C    -65.956700   35.469400  122.010000
  H    -66.365200   35.592000  122.994000
  H    -66.779300   35.719800  121.303000
  C    -65.357200   34.027800  121.902000
  H    -66.088900   33.180200  122.159000
  H    -65.097900   33.907200  120.882000
  H    -64.425400   33.873000  122.502000
  S    -62.540300   39.197800  116.539000
  C    -63.332300   40.498700  115.663000
  C    -64.688000   40.341300  115.771000
  C    -65.118600   39.343300  116.701000
  C    -64.055700   38.668000  117.288000
  H    -65.361000   40.998500  115.210000
  C    -66.597200   38.995100  116.921000
  H    -66.697000   38.054200  117.497000
  H    -67.031200   38.682900  115.925000
  C    -67.452700   40.214100  117.532000
  H    -68.542500   39.903300  117.551000
  H    -67.458200   41.059700  116.842000
  C    -66.946000   40.640600  118.939000
  H    -66.695500   39.769600  119.488000
  H    -67.676200   41.193400  119.464000
  H    -65.985200   41.210800  118.855000
  H    -63.225100   34.751800  120.157000
  H    -62.933800   41.055400  114.823000

 Total Charge           Charge          ....    0
 Multiplicity           Mult            ....    1
 Number of Electrons    NEL             ....  134
 Basis Dimension        Dim             ....  322

ORBITAL ENERGIES
----------------

  NO   OCC          E(Eh)            E(eV)
   0   2.0000     -88.968154     -2420.9466
   1   2.0000     -88.961583     -2420.7677
   2   2.0000     -10.327484      -281.0251
   3   2.0000     -10.326743      -281.0050
   4   2.0000     -10.317517      -280.7539
   5   2.0000     -10.316267      -280.7199
   6   2.0000     -10.306079      -280.4427
   7   2.0000     -10.305261      -280.4204
   8   2.0000     -10.302991      -280.3586
   9   2.0000     -10.301152      -280.3086
  10   2.0000     -10.298535      -280.2374
  11   2.0000     -10.294990      -280.1409
  12   2.0000     -10.293265      -280.0940
  13   2.0000     -10.291031      -280.0332
  14   2.0000     -10.286156      -279.9005
  15   2.0000     -10.276457      -279.6366
  16   2.0000      -8.082860      -219.9458
  17   2.0000      -8.076267      -219.7664
  18   2.0000      -6.041269      -164.3913
  19   2.0000      -6.037439      -164.2871
  20   2.0000      -6.034909      -164.2182
  21   2.0000      -6.033655      -164.1841
  22   2.0000      -6.030798      -164.1064
  23   2.0000      -6.026857      -163.9991
  24   2.0000      -1.010901       -27.5080
  25   2.0000      -0.985491       -26.8166
  26   2.0000      -0.909329       -24.7441
  27   2.0000      -0.896582       -24.3972
  28   2.0000      -0.871480       -23.7142
  29   2.0000      -0.850732       -23.1496
  30   2.0000      -0.842228       -22.9182
  31   2.0000      -0.810484       -22.0544
  32   2.0000      -0.782803       -21.3011
  33   2.0000      -0.773422       -21.0459
  34   2.0000      -0.711532       -19.3618
  35   2.0000      -0.698067       -18.9954
  36   2.0000      -0.697261       -18.9734
  37   2.0000      -0.656807       -17.8726
  38   2.0000      -0.641303       -17.4507
  39   2.0000      -0.620293       -16.8790
  40   2.0000      -0.591184       -16.0869
  41   2.0000      -0.569573       -15.4989
  42   2.0000      -0.549778       -14.9602
  43   2.0000      -0.544815       -14.8252
  44   2.0000      -0.539372       -14.6771
  45   2.0000      -0.529442       -14.4068
  46   2.0000      -0.515332       -14.0229
  47   2.0000      -0.514549       -14.0016
  48   2.0000      -0.504736       -13.7346
  49   2.0000      -0.496910       -13.5216
  50   2.0000      -0.487461       -13.2645
  51   2.0000      -0.480601       -13.0778
  52   2.0000      -0.469221       -12.7682
  53   2.0000      -0.464676       -12.6445
  54   2.0000      -0.463735       -12.6189
  55   2.0000      -0.447858       -12.1868
  56   2.0000      -0.442774       -12.0485
  57   2.0000      -0.439371       -11.9559
  58   2.0000      -0.434092       -11.8122
  59   2.0000      -0.427318       -11.6279
  60   2.0000      -0.423648       -11.5281
  61   2.0000      -0.414261       -11.2726
  62   2.0000      -0.408278       -11.1098
  63   2.0000      -0.349700        -9.5158
  64   2.0000      -0.338807        -9.2194
  65   2.0000      -0.327387        -8.9086
  66   2.0000      -0.289893        -7.8884
  67   0.0000       0.024148         0.6571
  68   0.0000       0.063358         1.7241
  69   0.0000       0.103192         2.8080
  70   0.0000       0.120506         3.2791
  71   0.0000       0.134042         3.6475

MULLIKEN ATOMIC CHARGES
-----------------------
   0 S :    0.114899
   1 C :   -0.148645
   2 C :   -0.051565
   3 C :    0.009446
   4 C :   -0.131472
   5 H :   -0.000927
   6 C :    0.012152
   7 H :    0.030038
   8 H :    0.051546
   9 C :   -0.044487
  10 H :    0.029385
  11 H :    0.039710
  12 C :   -0.090599
  13 H :    0.049390
  14 H :    0.032635
  15 H :    0.039372
  16 S :    0.081734
  17 C :   -0.073754
  18 C :   -0.060079
  19 C :   -0.018197
  20 C :   -0.157750
  21 H :    0.026127
  22 C :    0.018703
  23 H :    0.038488
  24 H :    0.042968
  25 C :   -0.103252
  26 H :    0.037923
  27 H :    0.032494
  28 C :   -0.026793
  29 H :    0.015613
  30 H :    0.031372
  31 H :    0.052216
  32 H :    0.056370
  33 H :    0.064938
Sum of atomic charges:    0.0000000

LOEWDIN ATOMIC CHARGES
----------------------
   0 S :    0.405351
   1 C :   -0.188680
   2 C :   -0.069080
   3 C :   -0.064325
   4 C :   -0.197042
   5 H :    0.030810
   6 C :   -0.031155
   7 H :    0.035097
   8 H :    0.035825
   9 C :   -0.038192
  10 H :    0.021432
  11 H :    0.031374
  12 C :   -0.076412
  13 H :    0.035263
  14 H :    0.016974
  15 H :    0.028907
  16 S :    0.385721
  17 C :   -0.188160
  18 C :   -0.070350
  19 C :   -0.062210
  20 C :   -0.187406
  21 H :    0.032663
  22 C :   -0.035548
  23 H :    0.032110
  24 H :    0.038470
  25 C :   -0.041315
  26 H :    0.028532
  27 H :    0.019319
  28 C :   -0.062966
  29 H :    0.014626
  30 H :    0.021915
  31 H :    0.036752
  32 H :    0.026736
  33 H :    0.034965

  Mayer bond orders larger than 0.100000
B(  0-S ,  1-C ) :   1.1483 B(  0-S ,  4-C ) :   1.1496 B(  1-C ,  2-C ) :   1.5864
B(  1-C ,  4-C ) :   0.1095 B(  1-C , 32-H ) :   0.9611 B(  2-C ,  3-C ) :   1.2777
B(  2-C ,  6-C ) :   0.9996 B(  3-C ,  4-C ) :   1.5572 B(  3-C ,  5-H ) :   0.9910
B(  4-C , 20-C ) :   1.0498 B(  6-C ,  7-H ) :   0.9469 B(  6-C ,  8-H ) :   0.9406
B(  6-C ,  9-C ) :   1.0757 B(  9-C , 10-H ) :   0.9549 B(  9-C , 11-H ) :   0.9561
B(  9-C , 12-C ) :   1.0629 B( 12-C , 13-H ) :   0.9724 B( 12-C , 14-H ) :   0.9706
B( 12-C , 15-H ) :   0.9758 B( 16-S , 17-C ) :   1.1399 B( 16-S , 20-C ) :   1.1289
B( 17-C , 18-C ) :   1.6308 B( 17-C , 20-C ) :   0.1022 B( 17-C , 33-H ) :   0.9606
B( 18-C , 19-C ) :   1.2315 B( 18-C , 21-H ) :   0.9828 B( 19-C , 20-C ) :   1.5946
B( 19-C , 22-C ) :   1.0334 B( 22-C , 23-H ) :   0.9456 B( 22-C , 24-H ) :   0.9427
B( 22-C , 25-C ) :   1.0535 B( 25-C , 26-H ) :   0.9595 B( 25-C , 27-H ) :   0.9619
B( 25-C , 28-C ) :   1.0637 B( 28-C , 29-H ) :   0.9714 B( 28-C , 30-H ) :   0.9695
B( 28-C , 31-H ) :   0.9742

Dispersion correction           -0.015207600
FINAL SINGLE POINT ENERGY     -1339.880554104659

DIPOLE MOMENT
-------------
                                X             Y             Z
Electronic contribution:     21.78703       1.64800     -16.64799
Nuclear contribution   :    -22.45297      -1.59731      16.88955
                        -----------------------------------------
Total Dipole Moment    :     -0.66594       0.05068       0.24156
                        -----------------------------------------
Magnitude (a.u.)       :      0.71021
Magnitude (Debye)      :      1.80521

Rotational constants in cm-1:     0.020994     0.008847     0.006758
Rotational constants in MHz :   629.383720   265.213350   202.610123

                             ****ORCA TERMINATED NORMALLY****
TOTAL RUN TIME: 0 days 0 hours 0 minutes 30 seconds 851 msec
