                         Program Version 4.2.1 -  RELEASE  -
|  1> ! wB97X-D3 SP def2-SVP
|  2> %pal
|  3> nprocs 16
|  4> end
|  5>
|  6> * xyz 0 1
|  7> S 	 -86.7414 	 43.1936 	 130.344
|  8> C 	 -86.4687 	 41.6043 	 131.193
|  9> C 	 -86.4999 	 40.5221 	 130.29
| 10> C 	 -87.0588 	 40.9671 	 129.014
| 11> C 	 -87.1208 	 42.3229 	 128.867
| 12> H 	 -87.2633 	 40.3233 	 128.136
| 13> C 	 -86.21 	 39.1285 	 130.68
| 14> H 	 -86.6964 	 38.5208 	 129.918
| 15> H 	 -86.6921 	 38.7733 	 131.619
| 16> C 	 -84.7024 	 38.667 	 130.872
| 17> H 	 -84.5082 	 38.8117 	 131.954
| 18> H 	 -84.6438 	 37.6496 	 130.689
| 19> C 	 -83.6135 	 39.401 	 130.157
| 20> H 	 -83.5564 	 39.0496 	 129.095
| 21> H 	 -83.7108 	 40.4605 	 130.233
| 22> H 	 -82.6103 	 39.1987 	 130.589
| 23> S 	 -86.9116 	 42.4842 	 126.102
| 24> C 	 -87.6524 	 43.7637 	 125.205
| 25> C 	 -88.4796 	 44.4945 	 126.018
| 26> C 	 -88.491 	 44.0271 	 127.388
| 27> C 	 -87.63 	 42.9838 	 127.652
| 28> H 	 -89.0577 	 45.2596 	 125.546
| 29> C 	 -89.5118 	 44.7272 	 128.336
| 30> H 	 -89.6742 	 44.0451 	 129.197
| 31> H 	 -90.4673 	 44.9258 	 127.743
| 32> C 	 -88.9921 	 46.0523 	 128.858
| 33> H 	 -88.6678 	 46.6194 	 127.981
| 34> H 	 -88.0028 	 45.8192 	 129.27
| 35> C 	 -89.802 	 46.8036 	 129.829
| 36> H 	 -89.2467 	 47.7332 	 130.103
| 37> H 	 -90.0326 	 46.2516 	 130.705
| 38> H 	 -90.7753 	 47.1982 	 129.417
| 39> H 	 -86.3254 	 41.4732 	 132.264
| 40> H 	 -87.4046 	 43.9357 	 124.147
| 41> *
| 42>
| 43>                          ****END OF INPUT****

CARTESIAN COORDINATES (ANGSTROEM)
---------------------------------
  S    -86.741400   43.193600  130.344000
  C    -86.468700   41.604300  131.193000
  C    -86.499900   40.522100  130.290000
  C    -87.058800   40.967100  129.014000
  C    -87.120800   42.322900  128.867000
  H    -87.263300   40.323300  128.136000
  C    -86.210000   39.128500  130.680000
  H    -86.696400   38.520800  129.918000
  H    -86.692100   38.773300  131.619000
  C    -84.702400   38.667000  130.872000
  H    -84.508200   38.811700  131.954000
  H    -84.643800   37.649600  130.689000
  C    -83.613500   39.401000  130.157000
  H    -83.556400   39.049600  129.095000
  H    -83.710800   40.460500  130.233000
  H    -82.610300   39.198700  130.589000
  S    -86.911600   42.484200  126.102000
  C    -87.652400   43.763700  125.205000
  C    -88.479600   44.494500  126.018000
  C    -88.491000   44.027100  127.388000
  C    -87.630000   42.983800  127.652000
  H    -89.057700   45.259600  125.546000
  C    -89.511800   44.727200  128.336000
  H    -89.674200   44.045100  129.197000
  H    -90.467300   44.925800  127.743000
  C    -88.992100   46.052300  128.858000
  H    -88.667800   46.619400  127.981000
  H    -88.002800   45.819200  129.270000
  C    -89.802000   46.803600  129.829000
  H    -89.246700   47.733200  130.103000
  H    -90.032600   46.251600  130.705000
  H    -90.775300   47.198200  129.417000
  H    -86.325400   41.473200  132.264000
  H    -87.404600   43.935700  124.147000

 Total Charge           Charge          ....    0
 Multiplicity           Mult            ....    1
 Number of Electrons    NEL             ....  134
 Basis Dimension        Dim             ....  322

ORBITAL ENERGIES
----------------

  NO   OCC          E(Eh)            E(eV)
   0   2.0000     -88.972792     -2421.0728
   1   2.0000     -88.960815     -2420.7469
   2   2.0000     -10.333266      -281.1825
   3   2.0000     -10.331127      -281.1243
   4   2.0000     -10.323563      -280.9184
   5   2.0000     -10.318741      -280.7872
   6   2.0000     -10.310353      -280.5590
   7   2.0000     -10.308043      -280.4961
   8   2.0000     -10.299328      -280.2590
   9   2.0000     -10.295964      -280.1674
  10   2.0000     -10.295247      -280.1479
  11   2.0000     -10.292975      -280.0861
  12   2.0000     -10.283410      -279.8258
  13   2.0000     -10.276792      -279.6457
  14   2.0000     -10.276336      -279.6333
  15   2.0000     -10.273010      -279.5428
  16   2.0000      -8.085669      -220.0222
  17   2.0000      -8.075872      -219.7556
  18   2.0000      -6.044384      -164.4760
  19   2.0000      -6.040551      -164.3718
  20   2.0000      -6.036223      -164.2540
  21   2.0000      -6.034462      -164.2061
  22   2.0000      -6.030210      -164.0903
  23   2.0000      -6.026641      -163.9932
  24   2.0000      -1.002857       -27.2891
  25   2.0000      -0.979519       -26.6541
  26   2.0000      -0.910657       -24.7802
  27   2.0000      -0.909652       -24.7529
  28   2.0000      -0.867772       -23.6133
  29   2.0000      -0.850500       -23.1433
  30   2.0000      -0.845778       -23.0148
  31   2.0000      -0.813797       -22.1446
  32   2.0000      -0.783905       -21.3311
  33   2.0000      -0.772979       -21.0338
  34   2.0000      -0.703172       -19.1343
  35   2.0000      -0.700979       -19.0746
  36   2.0000      -0.686955       -18.6930
  37   2.0000      -0.663243       -18.0478
  38   2.0000      -0.632217       -17.2035
  39   2.0000      -0.611464       -16.6388
  40   2.0000      -0.593581       -16.1522
  41   2.0000      -0.571397       -15.5485
  42   2.0000      -0.562146       -15.2968
  43   2.0000      -0.557290       -15.1646
  44   2.0000      -0.540064       -14.6959
  45   2.0000      -0.524561       -14.2740
  46   2.0000      -0.515807       -14.0358
  47   2.0000      -0.512549       -13.9472
  48   2.0000      -0.505716       -13.7612
  49   2.0000      -0.497386       -13.5346
  50   2.0000      -0.494485       -13.4556
  51   2.0000      -0.478247       -13.0138
  52   2.0000      -0.469852       -12.7853
  53   2.0000      -0.463103       -12.6017
  54   2.0000      -0.461262       -12.5516
  55   2.0000      -0.452773       -12.3206
  56   2.0000      -0.442388       -12.0380
  57   2.0000      -0.437750       -11.9118
  58   2.0000      -0.426074       -11.5941
  59   2.0000      -0.423363       -11.5203
  60   2.0000      -0.412029       -11.2119
  61   2.0000      -0.405298       -11.0287
  62   2.0000      -0.403888       -10.9904
  63   2.0000      -0.348763        -9.4903
  64   2.0000      -0.331451        -9.0192
  65   2.0000      -0.327404        -8.9091
  66   2.0000      -0.294421        -8.0116
  67   0.0000       0.025528         0.6946
  68   0.0000       0.069593         1.8937
  69   0.0000       0.097352         2.6491
  70   0.0000       0.104231         2.8363
  71   0.0000       0.131547         3.5796

MULLIKEN ATOMIC CHARGES
-----------------------
   0 S :    0.105500
   1 C :   -0.129706
   2 C :   -0.084822
   3 C :   -0.004035
   4 C :   -0.102774
   5 H :    0.033842
   6 C :    0.047685
   7 H :    0.017552
   8 H :    0.042700
   9 C :   -0.060661
  10 H :    0.023362
  11 H :    0.018375
  12 C :   -0.045016
  13 H :    0.034892
  14 H :    0.038209
  15 H :    0.030220
  16 S :    0.083155
  17 C :   -0.104209
  18 C :   -0.024404
  19 C :   -0.058634
  20 C :   -0.152960
  21 H :    0.016896
  22 C :    0.043092
  23 H :    0.030439
  24 H :    0.038857
  25 C :   -0.080069
  26 H :    0.012031
  27 H :    0.009713
  28 C :   -0.000740
  29 H :    0.036893
  30 H :    0.027954
  31 H :    0.026907
  32 H :    0.056606
  33 H :    0.073151
Sum of atomic charges:    0.0000000

LOEWDIN ATOMIC CHARGES
----------------------
   0 S :    0.381135
   1 C :   -0.176123
   2 C :   -0.055887
   3 C :   -0.066692
   4 C :   -0.189501
   5 H :    0.036043
   6 C :   -0.041461
   7 H :    0.029149
   8 H :    0.040704
   9 C :   -0.035420
  10 H :    0.025053
  11 H :    0.016561
  12 C :   -0.069466
  13 H :    0.028866
  14 H :    0.022987
  15 H :    0.030509
  16 S :    0.396890
  17 C :   -0.186283
  18 C :   -0.075352
  19 C :   -0.055155
  20 C :   -0.189645
  21 H :    0.029806
  22 C :   -0.031414
  23 H :    0.027885
  24 H :    0.035969
  25 C :   -0.058476
  26 H :    0.022552
  27 H :    0.019458
  28 C :   -0.064489
  29 H :    0.035833
  30 H :    0.021552
  31 H :    0.028205
  32 H :    0.029524
  33 H :    0.036681

  Mayer bond orders larger than 0.100000
B(  0-S ,  1-C ) :   1.1154 B(  0-S ,  4-C ) :   1.1228 B(  1-C ,  2-C ) :   1.6082
B(  1-C , 32-H ) :   0.9702 B(  2-C ,  3-C ) :   1.2125 B(  2-C ,  6-C ) :   1.0438
B(  3-C ,  4-C ) :   1.6091 B(  3-C ,  5-H ) :   0.9775 B(  4-C , 20-C ) :   1.0331
B(  6-C ,  7-H ) :   0.9372 B(  6-C ,  8-H ) :   0.9475 B(  6-C ,  9-C ) :   1.0395
B(  9-C , 10-H ) :   0.9581 B(  9-C , 11-H ) :   0.9576 B(  9-C , 12-C ) :   1.1087
B( 12-C , 13-H ) :   0.9753 B( 12-C , 14-H ) :   0.9628 B( 12-C , 15-H ) :   0.9710
B( 16-S , 17-C ) :   1.1651 B( 16-S , 20-C ) :   1.1229 B( 17-C , 18-C ) :   1.6069
B( 17-C , 33-H ) :   0.9648 B( 18-C , 19-C ) :   1.2159 B( 18-C , 21-H ) :   0.9976
B( 19-C , 20-C ) :   1.6183 B( 19-C , 22-C ) :   1.0333 B( 22-C , 23-H ) :   0.9348
B( 22-C , 24-H ) :   0.9394 B( 22-C , 25-C ) :   1.0685 B( 25-C , 26-H ) :   0.9493
B( 25-C , 27-H ) :   0.9398 B( 25-C , 28-C ) :   1.0980 B( 28-C , 29-H ) :   0.9673
B( 28-C , 30-H ) :   0.9694 B( 28-C , 31-H ) :   0.9690

Dispersion correction           -0.014339270
FINAL SINGLE POINT ENERGY     -1339.874639129701

DIPOLE MOMENT
-------------
                                X             Y             Z
Electronic contribution:      0.12698       0.81478     -10.36305
Nuclear contribution   :     -0.24433      -0.94278      10.46791
                        -----------------------------------------
Total Dipole Moment    :     -0.11735      -0.12800       0.10485
                        -----------------------------------------
Magnitude (a.u.)       :      0.20285
Magnitude (Debye)      :      0.51561

Rotational constants in cm-1:     0.021701     0.008046     0.006291
Rotational constants in MHz :   650.592627   241.218886   188.591554

                             ****ORCA TERMINATED NORMALLY****
TOTAL RUN TIME: 0 days 0 hours 0 minutes 32 seconds 21 msec
