                         Program Version 4.2.1 -  RELEASE  -
|  1> ! wB97X-D3 SP def2-SVP
|  2> %pal
|  3> nprocs 16
|  4> end
|  5>
|  6> * xyz 0 1
|  7> S 	 55.4215 	 14.3628 	 50.2434
|  8> C 	 56.3946 	 14.7502 	 51.6588
|  9> C 	 55.6779 	 15.2968 	 52.6475
| 10> C 	 54.2664 	 15.4183 	 52.3578
| 11> C 	 53.9518 	 15.0029 	 51.0492
| 12> H 	 53.4728 	 15.7934 	 52.9481
| 13> C 	 56.1829 	 15.428 	 54.1141
| 14> H 	 57.2675 	 15.3379 	 54.18
| 15> H 	 55.7033 	 14.6109 	 54.7297
| 16> C 	 55.9837 	 16.7537 	 54.8131
| 17> H 	 54.9195 	 16.7862 	 54.9032
| 18> H 	 56.4093 	 16.7768 	 55.8194
| 19> C 	 56.7124 	 17.9764 	 54.0994
| 20> H 	 57.7701 	 17.7365 	 53.8904
| 21> H 	 56.3215 	 18.1261 	 53.1228
| 22> H 	 56.7069 	 18.8374 	 54.7096
| 23> S 	 52.5475 	 15.3397 	 48.7358
| 24> C 	 50.8097 	 15.3117 	 48.7615
| 25> C 	 50.3486 	 15.0585 	 50.0539
| 26> C 	 51.3545 	 14.8572 	 51.0392
| 27> C 	 52.6423 	 14.9957 	 50.4792
| 28> H 	 49.2875 	 14.9435 	 50.2452
| 29> C 	 50.9643 	 14.5365 	 52.5054
| 30> H 	 51.8825 	 14.281 	 53.0184
| 31> H 	 50.2839 	 13.6942 	 52.6664
| 32> C 	 50.2924 	 15.7637 	 53.2208
| 33> H 	 49.5261 	 16.1859 	 52.5637
| 34> H 	 50.9644 	 16.5713 	 53.3151
| 35> C 	 49.8186 	 15.4191 	 54.5969
| 36> H 	 50.6302 	 14.7602 	 55.0061
| 37> H 	 48.9122 	 14.9113 	 54.4938
| 38> H 	 49.7075 	 16.4002 	 55.0301
| 39> H 	 57.3512 	 14.4404 	 51.8262
| 40> H 	 50.0941 	 15.4816 	 47.9229
| 41> *
| 42>
| 43>                          ****END OF INPUT****

CARTESIAN COORDINATES (ANGSTROEM)
---------------------------------
  S     55.421500   14.362800   50.243400
  C     56.394600   14.750200   51.658800
  C     55.677900   15.296800   52.647500
  C     54.266400   15.418300   52.357800
  C     53.951800   15.002900   51.049200
  H     53.472800   15.793400   52.948100
  C     56.182900   15.428000   54.114100
  H     57.267500   15.337900   54.180000
  H     55.703300   14.610900   54.729700
  C     55.983700   16.753700   54.813100
  H     54.919500   16.786200   54.903200
  H     56.409300   16.776800   55.819400
  C     56.712400   17.976400   54.099400
  H     57.770100   17.736500   53.890400
  H     56.321500   18.126100   53.122800
  H     56.706900   18.837400   54.709600
  S     52.547500   15.339700   48.735800
  C     50.809700   15.311700   48.761500
  C     50.348600   15.058500   50.053900
  C     51.354500   14.857200   51.039200
  C     52.642300   14.995700   50.479200
  H     49.287500   14.943500   50.245200
  C     50.964300   14.536500   52.505400
  H     51.882500   14.281000   53.018400
  H     50.283900   13.694200   52.666400
  C     50.292400   15.763700   53.220800
  H     49.526100   16.185900   52.563700
  H     50.964400   16.571300   53.315100
  C     49.818600   15.419100   54.596900
  H     50.630200   14.760200   55.006100
  H     48.912200   14.911300   54.493800
  H     49.707500   16.400200   55.030100
  H     57.351200   14.440400   51.826200
  H     50.094100   15.481600   47.922900

 Total Charge           Charge          ....    0
 Multiplicity           Mult            ....    1
 Number of Electrons    NEL             ....  134
 Basis Dimension        Dim             ....  322

ORBITAL ENERGIES
----------------

  NO   OCC          E(Eh)            E(eV)
   0   2.0000     -88.969377     -2420.9798
   1   2.0000     -88.968248     -2420.9491
   2   2.0000     -10.335907      -281.2543
   3   2.0000     -10.332799      -281.1698
   4   2.0000     -10.323016      -280.9035
   5   2.0000     -10.310919      -280.5744
   6   2.0000     -10.306496      -280.4540
   7   2.0000     -10.302394      -280.3424
   8   2.0000     -10.298682      -280.2414
   9   2.0000     -10.296429      -280.1801
  10   2.0000     -10.296170      -280.1730
  11   2.0000     -10.294813      -280.1361
  12   2.0000     -10.285444      -279.8811
  13   2.0000     -10.281678      -279.7787
  14   2.0000     -10.276435      -279.6360
  15   2.0000     -10.274365      -279.5797
  16   2.0000      -8.083690      -219.9684
  17   2.0000      -8.082126      -219.9258
  18   2.0000      -6.042247      -164.4179
  19   2.0000      -6.040844      -164.3797
  20   2.0000      -6.038237      -164.3088
  21   2.0000      -6.036887      -164.2720
  22   2.0000      -6.034447      -164.2056
  23   2.0000      -6.032572      -164.1546
  24   2.0000      -1.004022       -27.3208
  25   2.0000      -0.981220       -26.7004
  26   2.0000      -0.914651       -24.8889
  27   2.0000      -0.907999       -24.7079
  28   2.0000      -0.873968       -23.7819
  29   2.0000      -0.857764       -23.3409
  30   2.0000      -0.840102       -22.8603
  31   2.0000      -0.812116       -22.0988
  32   2.0000      -0.784540       -21.3484
  33   2.0000      -0.776917       -21.1410
  34   2.0000      -0.711273       -19.3547
  35   2.0000      -0.698572       -19.0091
  36   2.0000      -0.695014       -18.9123
  37   2.0000      -0.662630       -18.0311
  38   2.0000      -0.642572       -17.4853
  39   2.0000      -0.621137       -16.9020
  40   2.0000      -0.597393       -16.2559
  41   2.0000      -0.573162       -15.5965
  42   2.0000      -0.562450       -15.3050
  43   2.0000      -0.553131       -15.0515
  44   2.0000      -0.546845       -14.8804
  45   2.0000      -0.534768       -14.5518
  46   2.0000      -0.519382       -14.1331
  47   2.0000      -0.512625       -13.9492
  48   2.0000      -0.506119       -13.7722
  49   2.0000      -0.501370       -13.6430
  50   2.0000      -0.495400       -13.4805
  51   2.0000      -0.476039       -12.9537
  52   2.0000      -0.472309       -12.8522
  53   2.0000      -0.463250       -12.6057
  54   2.0000      -0.458733       -12.4828
  55   2.0000      -0.451212       -12.2781
  56   2.0000      -0.447252       -12.1703
  57   2.0000      -0.438616       -11.9354
  58   2.0000      -0.435700       -11.8560
  59   2.0000      -0.423433       -11.5222
  60   2.0000      -0.422342       -11.4925
  61   2.0000      -0.416018       -11.3204
  62   2.0000      -0.407395       -11.0858
  63   2.0000      -0.359884        -9.7929
  64   2.0000      -0.334139        -9.0924
  65   2.0000      -0.332233        -9.0405
  66   2.0000      -0.284386        -7.7385
  67   0.0000       0.019100         0.5197
  68   0.0000       0.075235         2.0473
  69   0.0000       0.103188         2.8079
  70   0.0000       0.115520         3.1434
  71   0.0000       0.123625         3.3640

MULLIKEN ATOMIC CHARGES
-----------------------
   0 S :    0.102263
   1 C :   -0.074054
   2 C :   -0.042529
   3 C :    0.008820
   4 C :   -0.128044
   5 H :   -0.002943
   6 C :    0.021397
   7 H :    0.012205
   8 H :    0.055477
   9 C :   -0.077981
  10 H :    0.019220
  11 H :    0.032936
  12 C :   -0.041318
  13 H :    0.021361
  14 H :    0.037055
  15 H :    0.033831
  16 S :    0.108310
  17 C :   -0.097314
  18 C :   -0.048480
  19 C :   -0.018002
  20 C :   -0.159649
  21 H :    0.019594
  22 C :    0.049025
  23 H :    0.017273
  24 H :    0.033338
  25 C :   -0.109034
  26 H :    0.022699
  27 H :    0.011510
  28 C :    0.004391
  29 H :    0.038924
  30 H :    0.027382
  31 H :    0.038932
  32 H :    0.008772
  33 H :    0.074634
Sum of atomic charges:    0.0000000

LOEWDIN ATOMIC CHARGES
----------------------
   0 S :    0.377523
   1 C :   -0.173496
   2 C :   -0.062444
   3 C :   -0.059128
   4 C :   -0.172548
   5 H :    0.023184
   6 C :   -0.032632
   7 H :    0.022990
   8 H :    0.040154
   9 C :   -0.042310
  10 H :    0.014295
  11 H :    0.026692
  12 C :   -0.058549
  13 H :    0.027849
  14 H :    0.022634
  15 H :    0.020477
  16 S :    0.405089
  17 C :   -0.198972
  18 C :   -0.073697
  19 C :   -0.051144
  20 C :   -0.189264
  21 H :    0.029884
  22 C :   -0.029192
  23 H :    0.023485
  24 H :    0.031873
  25 C :   -0.040568
  26 H :    0.021375
  27 H :    0.012856
  28 C :   -0.056014
  29 H :    0.034682
  30 H :    0.017529
  31 H :    0.031897
  32 H :    0.012524
  33 H :    0.042965

  Mayer bond orders larger than 0.100000
B(  0-S ,  1-C ) :   1.1092 B(  0-S ,  4-C ) :   1.1249 B(  1-C ,  2-C ) :   1.6715
B(  1-C , 32-H ) :   0.9708 B(  2-C ,  3-C ) :   1.1879 B(  2-C ,  6-C ) :   1.0160
B(  3-C ,  4-C ) :   1.5882 B(  3-C ,  5-H ) :   0.9975 B(  4-C , 20-C ) :   1.0995
B(  6-C ,  7-H ) :   0.9456 B(  6-C ,  8-H ) :   0.9478 B(  6-C ,  9-C ) :   1.0686
B(  9-C , 10-H ) :   0.9607 B(  9-C , 11-H ) :   0.9576 B(  9-C , 12-C ) :   1.0624
B( 12-C , 13-H ) :   0.9735 B( 12-C , 14-H ) :   0.9769 B( 12-C , 15-H ) :   0.9793
B( 16-S , 17-C ) :   1.1522 B( 16-S , 20-C ) :   1.1364 B( 17-C , 18-C ) :   1.6006
B( 17-C , 20-C ) :   0.1040 B( 17-C , 33-H ) :   0.9619 B( 18-C , 19-C ) :   1.2602
B( 18-C , 21-H ) :   0.9841 B( 19-C , 20-C ) :   1.5641 B( 19-C , 22-C ) :   1.0364
B( 22-C , 23-H ) :   0.9284 B( 22-C , 24-H ) :   0.9437 B( 22-C , 25-C ) :   1.0566
B( 25-C , 26-H ) :   0.9536 B( 25-C , 27-H ) :   0.9557 B( 25-C , 28-C ) :   1.0729
B( 28-C , 29-H ) :   0.9708 B( 28-C , 30-H ) :   0.9757 B( 28-C , 31-H ) :   0.9746

Dispersion correction           -0.014036454
FINAL SINGLE POINT ENERGY     -1339.865150268006

DIPOLE MOMENT
-------------
                                X             Y             Z
Electronic contribution:      3.88699      -8.92187     -28.79846
Nuclear contribution   :     -4.24940       8.99125      29.45204
                        -----------------------------------------
Total Dipole Moment    :     -0.36240       0.06938       0.65359
                        -----------------------------------------
Magnitude (a.u.)       :      0.75055
Magnitude (Debye)      :      1.90775

Rotational constants in cm-1:     0.016190     0.009623     0.006700
Rotational constants in MHz :   485.367548   288.497143   200.867941

                             ****ORCA TERMINATED NORMALLY****
TOTAL RUN TIME: 0 days 0 hours 0 minutes 30 seconds 620 msec
