                         Program Version 4.2.1 -  RELEASE  -
|  1> ! wB97X-D3 SP def2-SVP
|  2> %pal
|  3> nprocs 16
|  4> end
|  5>
|  6> * xyz 0 1
|  7> S 	 4.06154 	 -13.1135 	 68.3687
|  8> C 	 2.79319 	 -11.9253 	 68.1154
|  9> C 	 3.28191 	 -10.6638 	 67.9226
| 10> C 	 4.75959 	 -10.724 	 67.8146
| 11> C 	 5.31653 	 -12.0005 	 68.0215
| 12> H 	 5.39696 	 -9.82707 	 67.6863
| 13> C 	 2.41725 	 -9.41411 	 67.6838
| 14> H 	 3.14412 	 -8.58125 	 67.8375
| 15> H 	 1.65119 	 -9.22653 	 68.4957
| 16> C 	 1.89073 	 -9.25391 	 66.324
| 17> H 	 1.22433 	 -10.0565 	 66.1548
| 18> H 	 1.31876 	 -8.33047 	 66.2347
| 19> C 	 2.90014 	 -9.43859 	 65.1909
| 20> H 	 3.55979 	 -10.3493 	 65.2392
| 21> H 	 2.51509 	 -9.39337 	 64.1771
| 22> H 	 3.62354 	 -8.72066 	 65.3467
| 23> S 	 7.73904 	 -10.9841 	 67.3746
| 24> C 	 9.2648 	 -11.8242 	 67.7325
| 25> C 	 8.94353 	 -13.0797 	 68.1961
| 26> C 	 7.52024 	 -13.3462 	 68.2442
| 27> C 	 6.73905 	 -12.2306 	 68.0243
| 28> H 	 9.71271 	 -13.8739 	 68.366
| 29> C 	 7.02247 	 -14.742 	 68.3683
| 30> H 	 6.15297 	 -14.6692 	 69.0148
| 31> H 	 7.72414 	 -15.3925 	 68.9304
| 32> C 	 6.54336 	 -15.3703 	 67.0123
| 33> H 	 5.83621 	 -14.6766 	 66.5026
| 34> H 	 6.04252 	 -16.2977 	 67.2283
| 35> C 	 7.75447 	 -15.6469 	 66.1308
| 36> H 	 8.35981 	 -14.79 	 65.9259
| 37> H 	 7.34718 	 -15.9102 	 65.1709
| 38> H 	 8.42002 	 -16.3885 	 66.4225
| 39> H 	 1.77442 	 -12.0009 	 68.0327
| 40> H 	 10.3469 	 -11.5666 	 67.5069
| 41> *
| 42>
| 43>                          ****END OF INPUT****

CARTESIAN COORDINATES (ANGSTROEM)
---------------------------------
  S      4.061540  -13.113500   68.368700
  C      2.793190  -11.925300   68.115400
  C      3.281910  -10.663800   67.922600
  C      4.759590  -10.724000   67.814600
  C      5.316530  -12.000500   68.021500
  H      5.396960   -9.827070   67.686300
  C      2.417250   -9.414110   67.683800
  H      3.144120   -8.581250   67.837500
  H      1.651190   -9.226530   68.495700
  C      1.890730   -9.253910   66.324000
  H      1.224330  -10.056500   66.154800
  H      1.318760   -8.330470   66.234700
  C      2.900140   -9.438590   65.190900
  H      3.559790  -10.349300   65.239200
  H      2.515090   -9.393370   64.177100
  H      3.623540   -8.720660   65.346700
  S      7.739040  -10.984100   67.374600
  C      9.264800  -11.824200   67.732500
  C      8.943530  -13.079700   68.196100
  C      7.520240  -13.346200   68.244200
  C      6.739050  -12.230600   68.024300
  H      9.712710  -13.873900   68.366000
  C      7.022470  -14.742000   68.368300
  H      6.152970  -14.669200   69.014800
  H      7.724140  -15.392500   68.930400
  C      6.543360  -15.370300   67.012300
  H      5.836210  -14.676600   66.502600
  H      6.042520  -16.297700   67.228300
  C      7.754470  -15.646900   66.130800
  H      8.359810  -14.790000   65.925900
  H      7.347180  -15.910200   65.170900
  H      8.420020  -16.388500   66.422500
  H      1.774420  -12.000900   68.032700
  H     10.346900  -11.566600   67.506900

 Total Charge           Charge          ....    0
 Multiplicity           Mult            ....    1
 Number of Electrons    NEL             ....  134
 Basis Dimension        Dim             ....  322

ORBITAL ENERGIES
----------------

  NO   OCC          E(Eh)            E(eV)
   0   2.0000     -88.974284     -2421.1134
   1   2.0000     -88.965678     -2420.8792
   2   2.0000     -10.335184      -281.2347
   3   2.0000     -10.327581      -281.0278
   4   2.0000     -10.325205      -280.9631
   5   2.0000     -10.307656      -280.4856
   6   2.0000     -10.306229      -280.4468
   7   2.0000     -10.301384      -280.3149
   8   2.0000     -10.300657      -280.2951
   9   2.0000     -10.299376      -280.2603
  10   2.0000     -10.297939      -280.2212
  11   2.0000     -10.289636      -279.9952
  12   2.0000     -10.287823      -279.9459
  13   2.0000     -10.280180      -279.7379
  14   2.0000     -10.269249      -279.4405
  15   2.0000     -10.262022      -279.2438
  16   2.0000      -8.088342      -220.0950
  17   2.0000      -8.080075      -219.8700
  18   2.0000      -6.047203      -164.5528
  19   2.0000      -6.042797      -164.4329
  20   2.0000      -6.038958      -164.3284
  21   2.0000      -6.038905      -164.3270
  22   2.0000      -6.034632      -164.2107
  23   2.0000      -6.030439      -164.0966
  24   2.0000      -1.012259       -27.5450
  25   2.0000      -0.986288       -26.8382
  26   2.0000      -0.922655       -25.1067
  27   2.0000      -0.908081       -24.7101
  28   2.0000      -0.876788       -23.8586
  29   2.0000      -0.850357       -23.1394
  30   2.0000      -0.840542       -22.8723
  31   2.0000      -0.813014       -22.1232
  32   2.0000      -0.788520       -21.4567
  33   2.0000      -0.775529       -21.1032
  34   2.0000      -0.713696       -19.4206
  35   2.0000      -0.706767       -19.2321
  36   2.0000      -0.692487       -18.8435
  37   2.0000      -0.666151       -18.1269
  38   2.0000      -0.630419       -17.1546
  39   2.0000      -0.607203       -16.5228
  40   2.0000      -0.592221       -16.1152
  41   2.0000      -0.579646       -15.7730
  42   2.0000      -0.556860       -15.1529
  43   2.0000      -0.552703       -15.0398
  44   2.0000      -0.549096       -14.9417
  45   2.0000      -0.542548       -14.7635
  46   2.0000      -0.523909       -14.2563
  47   2.0000      -0.508295       -13.8314
  48   2.0000      -0.503727       -13.7071
  49   2.0000      -0.501138       -13.6367
  50   2.0000      -0.494011       -13.4427
  51   2.0000      -0.479819       -13.0565
  52   2.0000      -0.469658       -12.7800
  53   2.0000      -0.464933       -12.6515
  54   2.0000      -0.460999       -12.5444
  55   2.0000      -0.454900       -12.3784
  56   2.0000      -0.438705       -11.9378
  57   2.0000      -0.437760       -11.9120
  58   2.0000      -0.428601       -11.6628
  59   2.0000      -0.427193       -11.6245
  60   2.0000      -0.418641       -11.3918
  61   2.0000      -0.412135       -11.2148
  62   2.0000      -0.400633       -10.9018
  63   2.0000      -0.368652       -10.0315
  64   2.0000      -0.332800        -9.0560
  65   2.0000      -0.324316        -8.8251
  66   2.0000      -0.282999        -7.7008
  67   0.0000       0.016207         0.4410
  68   0.0000       0.086132         2.3438
  69   0.0000       0.110238         2.9997
  70   0.0000       0.118238         3.2174
  71   0.0000       0.131392         3.5754

MULLIKEN ATOMIC CHARGES
-----------------------
   0 S :    0.114801
   1 C :   -0.056080
   2 C :   -0.116201
   3 C :   -0.053921
   4 C :   -0.094018
   5 H :    0.036746
   6 C :    0.037860
   7 H :    0.020532
   8 H :    0.050253
   9 C :   -0.021017
  10 H :    0.008229
  11 H :    0.035734
  12 C :   -0.050414
  13 H :    0.047229
  14 H :    0.039227
  15 H :   -0.002328
  16 S :    0.074452
  17 C :   -0.095277
  18 C :   -0.043172
  19 C :   -0.107610
  20 C :   -0.088728
  21 H :    0.033905
  22 C :    0.028698
  23 H :    0.021308
  24 H :    0.026228
  25 C :   -0.045848
  26 H :    0.040170
  27 H :    0.031042
  28 C :   -0.020096
  29 H :    0.027800
  30 H :    0.019305
  31 H :    0.013906
  32 H :    0.004384
  33 H :    0.082903
Sum of atomic charges:    0.0000000

LOEWDIN ATOMIC CHARGES
----------------------
   0 S :    0.433075
   1 C :   -0.188268
   2 C :   -0.052743
   3 C :   -0.080274
   4 C :   -0.202219
   5 H :    0.025156
   6 C :   -0.038060
   7 H :    0.031651
   8 H :    0.041649
   9 C :   -0.041844
  10 H :    0.016028
  11 H :    0.029544
  12 C :   -0.065272
  13 H :    0.037526
  14 H :    0.027930
  15 H :    0.010057
  16 S :    0.411819
  17 C :   -0.194737
  18 C :   -0.076958
  19 C :   -0.066461
  20 C :   -0.194474
  21 H :    0.037398
  22 C :   -0.043014
  23 H :    0.018208
  24 H :    0.032220
  25 C :   -0.028129
  26 H :    0.026628
  27 H :    0.023670
  28 C :   -0.062242
  29 H :    0.024098
  30 H :    0.025960
  31 H :    0.014812
  32 H :    0.015101
  33 H :    0.052168

  Mayer bond orders larger than 0.100000
B(  0-S ,  1-C ) :   1.1192 B(  0-S ,  4-C ) :   1.1363 B(  1-C ,  2-C ) :   1.6422
B(  1-C , 32-H ) :   0.9683 B(  2-C ,  3-C ) :   1.2422 B(  2-C ,  6-C ) :   1.0135
B(  3-C ,  4-C ) :   1.5327 B(  3-C ,  5-H ) :   0.9742 B(  4-C , 20-C ) :   1.1199
B(  6-C ,  7-H ) :   0.9360 B(  6-C ,  8-H ) :   0.9416 B(  6-C ,  9-C ) :   1.0822
B(  9-C , 10-H ) :   0.9511 B(  9-C , 11-H ) :   0.9518 B(  9-C , 12-C ) :   1.0700
B( 12-C , 13-H ) :   0.9659 B( 12-C , 14-H ) :   0.9743 B( 12-C , 15-H ) :   0.9746
B( 16-S , 17-C ) :   1.1323 B( 16-S , 20-C ) :   1.1299 B( 17-C , 18-C ) :   1.6176
B( 17-C , 33-H ) :   0.9596 B( 18-C , 19-C ) :   1.2489 B( 18-C , 21-H ) :   0.9770
B( 19-C , 20-C ) :   1.5595 B( 19-C , 22-C ) :   1.0603 B( 22-C , 23-H ) :   0.9238
B( 22-C , 24-H ) :   0.9353 B( 22-C , 25-C ) :   1.0646 B( 25-C , 26-H ) :   0.9540
B( 25-C , 27-H ) :   0.9553 B( 25-C , 28-C ) :   1.0779 B( 28-C , 29-H ) :   0.9734
B( 28-C , 30-H ) :   0.9700 B( 28-C , 31-H ) :   0.9754

Dispersion correction           -0.015393162
FINAL SINGLE POINT ENERGY     -1339.860999908619

DIPOLE MOMENT
-------------
                                X             Y             Z
Electronic contribution:      6.02660       1.90318      10.57069
Nuclear contribution   :     -6.08799      -1.97320     -10.78363
                        -----------------------------------------
Total Dipole Moment    :     -0.06139      -0.07001      -0.21294
                        -----------------------------------------
Magnitude (a.u.)       :      0.23241
Magnitude (Debye)      :      0.59073

Rotational constants in cm-1:     0.023311     0.008502     0.007265
Rotational constants in MHz :   698.858047   254.872904   217.813235

                             ****ORCA TERMINATED NORMALLY****
TOTAL RUN TIME: 0 days 0 hours 0 minutes 29 seconds 957 msec
