                         Program Version 4.2.1 -  RELEASE  -
|  1> ! wB97X-D3 SP def2-SVP
|  2> %pal
|  3> nprocs 16
|  4> end
|  5>
|  6> * xyz 0 1
|  7> S 	 40.3961 	 28.7552 	 50.7037
|  8> C 	 41.7553 	 29.3323 	 51.5377
|  9> C 	 41.4287 	 29.8624 	 52.7701
| 10> C 	 40.0492 	 30.0194 	 52.8507
| 11> C 	 39.3673 	 29.201 	 51.9671
| 12> H 	 39.4962 	 30.4566 	 53.6618
| 13> C 	 42.379 	 30.3994 	 53.7159
| 14> H 	 43.1993 	 29.6972 	 53.6391
| 15> H 	 41.859 	 30.4641 	 54.6597
| 16> C 	 43.0108 	 31.7789 	 53.4022
| 17> H 	 42.2899 	 32.5682 	 53.1511
| 18> H 	 43.4829 	 32.1142 	 54.3402
| 19> C 	 44.152 	 31.7815 	 52.3328
| 20> H 	 43.7764 	 31.3653 	 51.4385
| 21> H 	 44.6008 	 32.8123 	 52.1597
| 22> H 	 45.002 	 31.2617 	 52.5921
| 23> S 	 37.3069 	 27.7203 	 53.1721
| 24> C 	 35.7944 	 27.6222 	 52.3407
| 25> C 	 35.6762 	 28.4617 	 51.2219
| 26> C 	 36.8838 	 29.1657 	 51.1261
| 27> C 	 37.8941 	 28.9354 	 52.0766
| 28> H 	 34.8705 	 28.5316 	 50.5215
| 29> C 	 37.1253 	 29.8944 	 49.8032
| 30> H 	 36.453 	 29.5644 	 49.0523
| 31> H 	 38.1299 	 29.6239 	 49.3731
| 32> C 	 36.9975 	 31.4212 	 49.9511
| 33> H 	 37.6673 	 31.7352 	 50.724
| 34> H 	 35.9594 	 31.6524 	 50.205
| 35> C 	 37.3283 	 32.1082 	 48.6647
| 36> H 	 37.9593 	 31.6924 	 47.817
| 37> H 	 37.6598 	 33.1964 	 48.8955
| 38> H 	 36.3918 	 32.176 	 48.1154
| 39> H 	 42.8045 	 29.3102 	 51.2046
| 40> H 	 35.0354 	 26.8601 	 52.52
| 41> *
| 42>
| 43>                          ****END OF INPUT****

CARTESIAN COORDINATES (ANGSTROEM)
---------------------------------
  S     40.396100   28.755200   50.703700
  C     41.755300   29.332300   51.537700
  C     41.428700   29.862400   52.770100
  C     40.049200   30.019400   52.850700
  C     39.367300   29.201000   51.967100
  H     39.496200   30.456600   53.661800
  C     42.379000   30.399400   53.715900
  H     43.199300   29.697200   53.639100
  H     41.859000   30.464100   54.659700
  C     43.010800   31.778900   53.402200
  H     42.289900   32.568200   53.151100
  H     43.482900   32.114200   54.340200
  C     44.152000   31.781500   52.332800
  H     43.776400   31.365300   51.438500
  H     44.600800   32.812300   52.159700
  H     45.002000   31.261700   52.592100
  S     37.306900   27.720300   53.172100
  C     35.794400   27.622200   52.340700
  C     35.676200   28.461700   51.221900
  C     36.883800   29.165700   51.126100
  C     37.894100   28.935400   52.076600
  H     34.870500   28.531600   50.521500
  C     37.125300   29.894400   49.803200
  H     36.453000   29.564400   49.052300
  H     38.129900   29.623900   49.373100
  C     36.997500   31.421200   49.951100
  H     37.667300   31.735200   50.724000
  H     35.959400   31.652400   50.205000
  C     37.328300   32.108200   48.664700
  H     37.959300   31.692400   47.817000
  H     37.659800   33.196400   48.895500
  H     36.391800   32.176000   48.115400
  H     42.804500   29.310200   51.204600
  H     35.035400   26.860100   52.520000

 Total Charge           Charge          ....    0
 Multiplicity           Mult            ....    1
 Number of Electrons    NEL             ....  134
 Basis Dimension        Dim             ....  322

ORBITAL ENERGIES
----------------

  NO   OCC          E(Eh)            E(eV)
   0   2.0000     -88.970313     -2421.0053
   1   2.0000     -88.968489     -2420.9557
   2   2.0000     -10.323742      -280.9233
   3   2.0000     -10.322933      -280.9013
   4   2.0000     -10.320853      -280.8447
   5   2.0000     -10.306477      -280.4535
   6   2.0000     -10.298009      -280.2231
   7   2.0000     -10.293819      -280.1090
   8   2.0000     -10.290969      -280.0315
   9   2.0000     -10.287745      -279.9438
  10   2.0000     -10.286212      -279.9020
  11   2.0000     -10.283455      -279.8270
  12   2.0000     -10.283293      -279.8226
  13   2.0000     -10.279283      -279.7135
  14   2.0000     -10.277439      -279.6633
  15   2.0000     -10.274981      -279.5964
  16   2.0000      -8.085168      -220.0086
  17   2.0000      -8.084471      -219.9896
  18   2.0000      -6.043561      -164.4537
  19   2.0000      -6.042698      -164.4302
  20   2.0000      -6.039511      -164.3435
  21   2.0000      -6.038792      -164.3239
  22   2.0000      -6.036186      -164.2530
  23   2.0000      -6.035468      -164.2334
  24   2.0000      -1.017057       -27.6755
  25   2.0000      -0.993736       -27.0409
  26   2.0000      -0.917847       -24.9759
  27   2.0000      -0.907945       -24.7064
  28   2.0000      -0.864667       -23.5288
  29   2.0000      -0.855929       -23.2910
  30   2.0000      -0.849789       -23.1239
  31   2.0000      -0.813857       -22.1462
  32   2.0000      -0.784950       -21.3596
  33   2.0000      -0.765438       -20.8286
  34   2.0000      -0.708341       -19.2749
  35   2.0000      -0.697168       -18.9709
  36   2.0000      -0.685447       -18.6520
  37   2.0000      -0.667245       -18.1566
  38   2.0000      -0.642118       -17.4729
  39   2.0000      -0.618570       -16.8322
  40   2.0000      -0.594410       -16.1747
  41   2.0000      -0.577496       -15.7145
  42   2.0000      -0.564556       -15.3623
  43   2.0000      -0.549045       -14.9403
  44   2.0000      -0.542490       -14.7619
  45   2.0000      -0.523859       -14.2549
  46   2.0000      -0.520578       -14.1656
  47   2.0000      -0.509140       -13.8544
  48   2.0000      -0.501216       -13.6388
  49   2.0000      -0.492022       -13.3886
  50   2.0000      -0.487206       -13.2575
  51   2.0000      -0.478075       -13.0091
  52   2.0000      -0.475781       -12.9466
  53   2.0000      -0.469509       -12.7760
  54   2.0000      -0.466428       -12.6921
  55   2.0000      -0.448933       -12.2161
  56   2.0000      -0.441407       -12.0113
  57   2.0000      -0.437762       -11.9121
  58   2.0000      -0.431487       -11.7414
  59   2.0000      -0.428767       -11.6673
  60   2.0000      -0.416407       -11.3310
  61   2.0000      -0.410240       -11.1632
  62   2.0000      -0.404868       -11.0170
  63   2.0000      -0.338104        -9.2003
  64   2.0000      -0.331452        -9.0193
  65   2.0000      -0.320698        -8.7266
  66   2.0000      -0.298345        -8.1184
  67   0.0000       0.038678         1.0525
  68   0.0000       0.056425         1.5354
  69   0.0000       0.116025         3.1572
  70   0.0000       0.118497         3.2245
  71   0.0000       0.132517         3.6060

MULLIKEN ATOMIC CHARGES
-----------------------
   0 S :    0.150197
   1 C :   -0.140221
   2 C :   -0.088264
   3 C :    0.018597
   4 C :   -0.163294
   5 H :    0.007307
   6 C :    0.096327
   7 H :    0.023493
   8 H :    0.022803
   9 C :   -0.068914
  10 H :    0.033487
  11 H :    0.028031
  12 C :   -0.044741
  13 H :    0.022122
  14 H :    0.039060
  15 H :    0.010002
  16 S :    0.127615
  17 C :   -0.096707
  18 C :   -0.015484
  19 C :   -0.059486
  20 C :   -0.135153
  21 H :    0.019305
  22 C :    0.022472
  23 H :    0.002120
  24 H :    0.025661
  25 C :   -0.025839
  26 H :    0.031752
  27 H :    0.027296
  28 C :   -0.092438
  29 H :    0.044569
  30 H :    0.046609
  31 H :    0.017962
  32 H :    0.053192
  33 H :    0.060564
Sum of atomic charges:   -0.0000000

LOEWDIN ATOMIC CHARGES
----------------------
   0 S :    0.468380
   1 C :   -0.224175
   2 C :   -0.071726
   3 C :   -0.060727
   4 C :   -0.217977
   5 H :    0.027084
   6 C :   -0.031806
   7 H :    0.036959
   8 H :    0.034435
   9 C :   -0.033245
  10 H :    0.025224
  11 H :    0.024834
  12 C :   -0.064653
  13 H :    0.014958
  14 H :    0.038211
  15 H :    0.011449
  16 S :    0.437472
  17 C :   -0.186333
  18 C :   -0.068543
  19 C :   -0.051452
  20 C :   -0.223917
  21 H :    0.032795
  22 C :   -0.032056
  23 H :    0.017262
  24 H :    0.021901
  25 C :   -0.036526
  26 H :    0.021448
  27 H :    0.027285
  28 C :   -0.088186
  29 H :    0.032773
  30 H :    0.036298
  31 H :    0.022671
  32 H :    0.030432
  33 H :    0.029448

  Mayer bond orders larger than 0.100000
B(  0-S ,  1-C ) :   1.1683 B(  0-S ,  4-C ) :   1.1817 B(  1-C ,  2-C ) :   1.5494
B(  1-C , 32-H ) :   0.9605 B(  2-C ,  3-C ) :   1.2838 B(  2-C ,  6-C ) :   1.0497
B(  3-C ,  4-C ) :   1.5391 B(  3-C ,  5-H ) :   0.9892 B(  4-C , 20-C ) :   1.0143
B(  6-C ,  7-H ) :   0.9291 B(  6-C ,  8-H ) :   0.9284 B(  6-C ,  9-C ) :   1.0708
B(  9-C , 10-H ) :   0.9588 B(  9-C , 11-H ) :   0.9566 B(  9-C , 12-C ) :   1.0748
B( 12-C , 13-H ) :   0.9755 B( 12-C , 14-H ) :   0.9714 B( 12-C , 15-H ) :   0.9747
B( 16-S , 17-C ) :   1.2094 B( 16-S , 20-C ) :   1.1390 B( 17-C , 18-C ) :   1.5354
B( 17-C , 33-H ) :   0.9617 B( 18-C , 19-C ) :   1.3029 B( 18-C , 21-H ) :   0.9965
B( 19-C , 20-C ) :   1.5604 B( 19-C , 22-C ) :   1.0364 B( 22-C , 23-H ) :   0.9442
B( 22-C , 24-H ) :   0.9387 B( 22-C , 25-C ) :   1.0597 B( 25-C , 26-H ) :   0.9641
B( 25-C , 27-H ) :   0.9546 B( 25-C , 28-C ) :   1.0657 B( 28-C , 29-H ) :   0.9752
B( 28-C , 30-H ) :   0.9741 B( 28-C , 31-H ) :   0.9747

Dispersion correction           -0.014435862
FINAL SINGLE POINT ENERGY     -1339.847072413919

DIPOLE MOMENT
-------------
                                X             Y             Z
Electronic contribution:    -10.23084     -20.66671       6.57556
Nuclear contribution   :     10.28823      20.83708      -6.69070
                        -----------------------------------------
Total Dipole Moment    :      0.05739       0.17037      -0.11513
                        -----------------------------------------
Magnitude (a.u.)       :      0.21348
Magnitude (Debye)      :      0.54263

Rotational constants in cm-1:     0.020482     0.008316     0.006755
Rotational constants in MHz :   614.026526   249.319025   202.514236

                             ****ORCA TERMINATED NORMALLY****
TOTAL RUN TIME: 0 days 0 hours 0 minutes 35 seconds 423 msec
