                         Program Version 4.2.1 -  RELEASE  -
|  1> ! wB97X-D3 SP def2-SVP
|  2> %pal
|  3> nprocs 16
|  4> end
|  5>
|  6> * xyz 0 1
|  7> S 	 -35.8828 	 74.0125 	 147.971
|  8> C 	 -34.1479 	 74.1404 	 147.845
|  9> C 	 -33.5057 	 73.2766 	 148.74
| 10> C 	 -34.4343 	 72.291 	 149.241
| 11> C 	 -35.7271 	 72.5196 	 148.89
| 12> H 	 -34.2142 	 71.4909 	 149.917
| 13> C 	 -31.9979 	 73.0636 	 148.963
| 14> H 	 -31.7739 	 72.2171 	 149.532
| 15> H 	 -31.6811 	 73.9182 	 149.629
| 16> C 	 -31.1721 	 73.2018 	 147.701
| 17> H 	 -31.5272 	 72.4477 	 147.067
| 18> H 	 -31.2723 	 74.1955 	 147.276
| 19> C 	 -29.6333 	 73.0456 	 148.054
| 20> H 	 -29.3212 	 73.8819 	 148.789
| 21> H 	 -29.346 	 72.1648 	 148.659
| 22> H 	 -28.9077 	 73.2108 	 147.183
| 23> S 	 -37.0143 	 70.3763 	 148.021
| 24> C 	 -38.296 	 69.6942 	 148.963
| 25> C 	 -38.5744 	 70.4619 	 150.064
| 26> C 	 -37.7321 	 71.5905 	 150.237
| 27> C 	 -36.826 	 71.6669 	 149.183
| 28> H 	 -39.4029 	 70.1995 	 150.697
| 29> C 	 -37.7539 	 72.5132 	 151.488
| 30> H 	 -38.7446 	 72.8399 	 151.712
| 31> H 	 -37.2574 	 73.4517 	 151.145
| 32> C 	 -37.0505 	 72.0615 	 152.759
| 33> H 	 -36.1305 	 71.6099 	 152.506
| 34> H 	 -37.5596 	 71.2135 	 153.26
| 35> C 	 -36.9535 	 73.2167 	 153.727
| 36> H 	 -36.4493 	 72.8351 	 154.574
| 37> H 	 -38.0038 	 73.4789 	 153.987
| 38> H 	 -36.3258 	 74.0232 	 153.288
| 39> H 	 -33.7333 	 74.9749 	 147.469
| 40> H 	 -38.9456 	 68.8772 	 148.604
| 41> *
| 42>
| 43>                          ****END OF INPUT****

CARTESIAN COORDINATES (ANGSTROEM)
---------------------------------
  S    -35.882800   74.012500  147.971000
  C    -34.147900   74.140400  147.845000
  C    -33.505700   73.276600  148.740000
  C    -34.434300   72.291000  149.241000
  C    -35.727100   72.519600  148.890000
  H    -34.214200   71.490900  149.917000
  C    -31.997900   73.063600  148.963000
  H    -31.773900   72.217100  149.532000
  H    -31.681100   73.918200  149.629000
  C    -31.172100   73.201800  147.701000
  H    -31.527200   72.447700  147.067000
  H    -31.272300   74.195500  147.276000
  C    -29.633300   73.045600  148.054000
  H    -29.321200   73.881900  148.789000
  H    -29.346000   72.164800  148.659000
  H    -28.907700   73.210800  147.183000
  S    -37.014300   70.376300  148.021000
  C    -38.296000   69.694200  148.963000
  C    -38.574400   70.461900  150.064000
  C    -37.732100   71.590500  150.237000
  C    -36.826000   71.666900  149.183000
  H    -39.402900   70.199500  150.697000
  C    -37.753900   72.513200  151.488000
  H    -38.744600   72.839900  151.712000
  H    -37.257400   73.451700  151.145000
  C    -37.050500   72.061500  152.759000
  H    -36.130500   71.609900  152.506000
  H    -37.559600   71.213500  153.260000
  C    -36.953500   73.216700  153.727000
  H    -36.449300   72.835100  154.574000
  H    -38.003800   73.478900  153.987000
  H    -36.325800   74.023200  153.288000
  H    -33.733300   74.974900  147.469000
  H    -38.945600   68.877200  148.604000

 Total Charge           Charge          ....    0
 Multiplicity           Mult            ....    1
 Number of Electrons    NEL             ....  134
 Basis Dimension        Dim             ....  322

ORBITAL ENERGIES
----------------

  NO   OCC          E(Eh)            E(eV)
   0   2.0000     -88.963791     -2420.8278
   1   2.0000     -88.963235     -2420.8127
   2   2.0000     -10.320667      -280.8396
   3   2.0000     -10.320054      -280.8230
   4   2.0000     -10.313057      -280.6325
   5   2.0000     -10.307405      -280.4787
   6   2.0000     -10.305553      -280.4284
   7   2.0000     -10.304355      -280.3957
   8   2.0000     -10.294543      -280.1288
   9   2.0000     -10.292040      -280.0607
  10   2.0000     -10.291138      -280.0361
  11   2.0000     -10.289324      -279.9867
  12   2.0000     -10.288045      -279.9519
  13   2.0000     -10.287963      -279.9497
  14   2.0000     -10.279776      -279.7269
  15   2.0000     -10.278202      -279.6841
  16   2.0000      -8.078603      -219.8300
  17   2.0000      -8.078548      -219.8285
  18   2.0000      -6.037026      -164.2758
  19   2.0000      -6.036903      -164.2725
  20   2.0000      -6.033215      -164.1721
  21   2.0000      -6.032929      -164.1644
  22   2.0000      -6.029478      -164.0704
  23   2.0000      -6.029336      -164.0666
  24   2.0000      -1.008781       -27.4503
  25   2.0000      -0.983374       -26.7590
  26   2.0000      -0.911910       -24.8143
  27   2.0000      -0.911333       -24.7986
  28   2.0000      -0.871937       -23.7266
  29   2.0000      -0.852401       -23.1950
  30   2.0000      -0.844824       -22.9888
  31   2.0000      -0.809710       -22.0333
  32   2.0000      -0.779346       -21.2071
  33   2.0000      -0.768009       -20.8986
  34   2.0000      -0.711884       -19.3713
  35   2.0000      -0.701097       -19.0778
  36   2.0000      -0.693460       -18.8700
  37   2.0000      -0.659063       -17.9340
  38   2.0000      -0.653278       -17.7766
  39   2.0000      -0.613051       -16.6820
  40   2.0000      -0.597513       -16.2591
  41   2.0000      -0.576088       -15.6762
  42   2.0000      -0.568544       -15.4709
  43   2.0000      -0.557643       -15.1742
  44   2.0000      -0.527541       -14.3551
  45   2.0000      -0.523962       -14.2577
  46   2.0000      -0.516344       -14.0504
  47   2.0000      -0.512902       -13.9568
  48   2.0000      -0.505366       -13.7517
  49   2.0000      -0.495707       -13.4889
  50   2.0000      -0.483334       -13.1522
  51   2.0000      -0.478432       -13.0188
  52   2.0000      -0.466877       -12.7044
  53   2.0000      -0.466274       -12.6880
  54   2.0000      -0.450007       -12.2453
  55   2.0000      -0.447910       -12.1883
  56   2.0000      -0.443952       -12.0806
  57   2.0000      -0.441845       -12.0232
  58   2.0000      -0.436514       -11.8781
  59   2.0000      -0.425686       -11.5835
  60   2.0000      -0.424509       -11.5515
  61   2.0000      -0.418219       -11.3803
  62   2.0000      -0.414087       -11.2679
  63   2.0000      -0.338544        -9.2123
  64   2.0000      -0.327561        -8.9134
  65   2.0000      -0.317455        -8.6384
  66   2.0000      -0.310230        -8.4418
  67   0.0000       0.046454         1.2641
  68   0.0000       0.051641         1.4052
  69   0.0000       0.110116         2.9964
  70   0.0000       0.121051         3.2940
  71   0.0000       0.133379         3.6294

MULLIKEN ATOMIC CHARGES
-----------------------
   0 S :    0.115999
   1 C :   -0.081946
   2 C :   -0.069652
   3 C :    0.036057
   4 C :   -0.167145
   5 H :    0.007995
   6 C :    0.059405
   7 H :    0.008051
   8 H :    0.031375
   9 C :   -0.038083
  10 H :    0.036828
  11 H :    0.037868
  12 C :   -0.114891
  13 H :    0.027476
  14 H :    0.038650
  15 H :    0.053362
  16 S :    0.123668
  17 C :   -0.099175
  18 C :   -0.040584
  19 C :    0.010738
  20 C :   -0.217430
  21 H :    0.009838
  22 C :    0.073631
  23 H :    0.010409
  24 H :    0.017643
  25 C :   -0.056697
  26 H :    0.008531
  27 H :    0.022051
  28 C :   -0.028990
  29 H :    0.024565
  30 H :    0.038126
  31 H :    0.045464
  32 H :    0.010213
  33 H :    0.066650
Sum of atomic charges:    0.0000000

LOEWDIN ATOMIC CHARGES
----------------------
   0 S :    0.404408
   1 C :   -0.184369
   2 C :   -0.051061
   3 C :   -0.056419
   4 C :   -0.203638
   5 H :    0.029694
   6 C :   -0.029917
   7 H :    0.019534
   8 H :    0.038134
   9 C :   -0.029736
  10 H :    0.019987
  11 H :    0.027739
  12 C :   -0.085586
  13 H :    0.029870
  14 H :    0.024631
  15 H :    0.033548
  16 S :    0.424617
  17 C :   -0.198023
  18 C :   -0.074132
  19 C :   -0.051431
  20 C :   -0.203905
  21 H :    0.028773
  22 C :   -0.028998
  23 H :    0.023466
  24 H :    0.032914
  25 C :   -0.041909
  26 H :    0.015041
  27 H :    0.024532
  28 C :   -0.057624
  29 H :    0.021195
  30 H :    0.031847
  31 H :    0.031794
  32 H :    0.000062
  33 H :    0.034962

  Mayer bond orders larger than 0.100000
B(  0-S ,  1-C ) :   1.1453 B(  0-S ,  4-C ) :   1.1375 B(  1-C ,  2-C ) :   1.6072
B(  1-C , 32-H ) :   0.9760 B(  2-C ,  3-C ) :   1.2185 B(  2-C ,  6-C ) :   1.0218
B(  3-C ,  4-C ) :   1.6131 B(  3-C ,  5-H ) :   0.9960 B(  4-C , 20-C ) :   1.0202
B(  6-C ,  7-H ) :   0.9548 B(  6-C ,  8-H ) :   0.9249 B(  6-C ,  9-C ) :   1.0694
B(  9-C , 10-H ) :   0.9636 B(  9-C , 11-H ) :   0.9494 B(  9-C , 12-C ) :   1.0654
B( 12-C , 13-H ) :   0.9737 B( 12-C , 14-H ) :   0.9771 B( 12-C , 15-H ) :   0.9758
B( 16-S , 17-C ) :   1.1556 B( 16-S , 20-C ) :   1.1686 B( 17-C , 18-C ) :   1.6093
B( 17-C , 20-C ) :   0.1032 B( 17-C , 33-H ) :   0.9626 B( 18-C , 19-C ) :   1.2426
B( 18-C , 21-H ) :   0.9922 B( 19-C , 20-C ) :   1.5924 B( 19-C , 22-C ) :   1.0384
B( 22-C , 23-H ) :   0.9312 B( 22-C , 24-H ) :   0.9306 B( 22-C , 25-C ) :   1.0660
B( 25-C , 26-H ) :   0.9495 B( 25-C , 27-H ) :   0.9490 B( 25-C , 28-C ) :   1.0877
B( 28-C , 29-H ) :   0.9713 B( 28-C , 30-H ) :   0.9728 B( 28-C , 31-H ) :   0.9747

Dispersion correction           -0.013785230
FINAL SINGLE POINT ENERGY     -1339.868873251407

DIPOLE MOMENT
-------------
                                X             Y             Z
Electronic contribution:    -17.32992      -4.94611     -16.17929
Nuclear contribution   :     17.58227       4.92360      16.70551
                        -----------------------------------------
Total Dipole Moment    :      0.25235      -0.02251       0.52622
                        -----------------------------------------
Magnitude (a.u.)       :      0.58403
Magnitude (Debye)      :      1.48449

Rotational constants in cm-1:     0.018810     0.007664     0.006539
Rotational constants in MHz :   563.907624   229.752379   196.034327

                             ****ORCA TERMINATED NORMALLY****
TOTAL RUN TIME: 0 days 0 hours 0 minutes 31 seconds 465 msec
