                         Program Version 4.2.1 -  RELEASE  -
|  1> ! wB97X-D3 SP def2-SVP
|  2> %pal
|  3> nprocs 16
|  4> end
|  5>
|  6> * xyz 0 1
|  7> S 	 32.5629 	 26.1126 	 52.196
|  8> C 	 32.3192 	 27.6029 	 53.1848
|  9> C 	 33.4678 	 27.9748 	 53.8437
| 10> C 	 34.4517 	 26.9343 	 53.6908
| 11> C 	 34.0242 	 25.8071 	 53.011
| 12> H 	 35.4689 	 26.9514 	 54.0815
| 13> C 	 33.7143 	 29.2604 	 54.5628
| 14> H 	 34.744 	 29.6317 	 54.5131
| 15> H 	 33.5601 	 29.0519 	 55.609
| 16> C 	 32.6828 	 30.3711 	 54.2701
| 17> H 	 32.7809 	 30.6145 	 53.188
| 18> H 	 31.6144 	 30.1037 	 54.4338
| 19> C 	 32.8662 	 31.6167 	 55.2052
| 20> H 	 33.9263 	 31.9903 	 55.2166
| 21> H 	 32.3693 	 32.5591 	 54.8664
| 22> H 	 32.4609 	 31.4033 	 56.1344
| 23> S 	 35.3954 	 23.9913 	 54.3999
| 24> C 	 35.9147 	 22.4934 	 53.5959
| 25> C 	 35.4982 	 22.4428 	 52.3121
| 26> C 	 34.7343 	 23.5733 	 51.9298
| 27> C 	 34.7249 	 24.5767 	 52.8783
| 28> H 	 35.9235 	 21.7247 	 51.6473
| 29> C 	 34.2332 	 23.6876 	 50.5362
| 30> H 	 35.1047 	 23.5262 	 49.9815
| 31> H 	 34.0158 	 24.6934 	 50.3012
| 32> C 	 33.1348 	 22.7571 	 50.0298
| 33> H 	 32.2237 	 22.7916 	 50.5865
| 34> H 	 33.6321 	 21.767 	 50.2175
| 35> C 	 32.8399 	 22.8714 	 48.4762
| 36> H 	 32.8055 	 23.9162 	 48.1457
| 37> H 	 31.8588 	 22.4557 	 48.2752
| 38> H 	 33.6165 	 22.4773 	 47.8328
| 39> H 	 31.3993 	 28.2594 	 53.0701
| 40> H 	 36.7933 	 21.88 	 53.7931
| 41> *
| 42>
| 43>                          ****END OF INPUT****

CARTESIAN COORDINATES (ANGSTROEM)
---------------------------------
  S     32.562900   26.112600   52.196000
  C     32.319200   27.602900   53.184800
  C     33.467800   27.974800   53.843700
  C     34.451700   26.934300   53.690800
  C     34.024200   25.807100   53.011000
  H     35.468900   26.951400   54.081500
  C     33.714300   29.260400   54.562800
  H     34.744000   29.631700   54.513100
  H     33.560100   29.051900   55.609000
  C     32.682800   30.371100   54.270100
  H     32.780900   30.614500   53.188000
  H     31.614400   30.103700   54.433800
  C     32.866200   31.616700   55.205200
  H     33.926300   31.990300   55.216600
  H     32.369300   32.559100   54.866400
  H     32.460900   31.403300   56.134400
  S     35.395400   23.991300   54.399900
  C     35.914700   22.493400   53.595900
  C     35.498200   22.442800   52.312100
  C     34.734300   23.573300   51.929800
  C     34.724900   24.576700   52.878300
  H     35.923500   21.724700   51.647300
  C     34.233200   23.687600   50.536200
  H     35.104700   23.526200   49.981500
  H     34.015800   24.693400   50.301200
  C     33.134800   22.757100   50.029800
  H     32.223700   22.791600   50.586500
  H     33.632100   21.767000   50.217500
  C     32.839900   22.871400   48.476200
  H     32.805500   23.916200   48.145700
  H     31.858800   22.455700   48.275200
  H     33.616500   22.477300   47.832800
  H     31.399300   28.259400   53.070100
  H     36.793300   21.880000   53.793100

 Total Charge           Charge          ....    0
 Multiplicity           Mult            ....    1
 Number of Electrons    NEL             ....  134
 Basis Dimension        Dim             ....  322

ORBITAL ENERGIES
----------------

  NO   OCC          E(Eh)            E(eV)
   0   2.0000     -88.964999     -2420.8607
   1   2.0000     -88.962998     -2420.8063
   2   2.0000     -10.324314      -280.9389
   3   2.0000     -10.324007      -280.9305
   4   2.0000     -10.320163      -280.8259
   5   2.0000     -10.310952      -280.5753
   6   2.0000     -10.305604      -280.4297
   7   2.0000     -10.298477      -280.2358
   8   2.0000     -10.297352      -280.2052
   9   2.0000     -10.296327      -280.1773
  10   2.0000     -10.294011      -280.1143
  11   2.0000     -10.289654      -279.9957
  12   2.0000     -10.287559      -279.9387
  13   2.0000     -10.283681      -279.8332
  14   2.0000     -10.280332      -279.7421
  15   2.0000     -10.277925      -279.6766
  16   2.0000      -8.079701      -219.8598
  17   2.0000      -8.077146      -219.7903
  18   2.0000      -6.038242      -164.3089
  19   2.0000      -6.035891      -164.2450
  20   2.0000      -6.034465      -164.2061
  21   2.0000      -6.031829      -164.1344
  22   2.0000      -6.030180      -164.0895
  23   2.0000      -6.027567      -164.0184
  24   2.0000      -1.011848       -27.5338
  25   2.0000      -0.984981       -26.8027
  26   2.0000      -0.916089       -24.9281
  27   2.0000      -0.909427       -24.7468
  28   2.0000      -0.873157       -23.7598
  29   2.0000      -0.852086       -23.1864
  30   2.0000      -0.842211       -22.9177
  31   2.0000      -0.812429       -22.1073
  32   2.0000      -0.787956       -21.4414
  33   2.0000      -0.772789       -21.0287
  34   2.0000      -0.714115       -19.4321
  35   2.0000      -0.705149       -19.1881
  36   2.0000      -0.696034       -18.9401
  37   2.0000      -0.665386       -18.1061
  38   2.0000      -0.632830       -17.2202
  39   2.0000      -0.611506       -16.6399
  40   2.0000      -0.594322       -16.1723
  41   2.0000      -0.576258       -15.6808
  42   2.0000      -0.570756       -15.5311
  43   2.0000      -0.563086       -15.3224
  44   2.0000      -0.531668       -14.4674
  45   2.0000      -0.521592       -14.1932
  46   2.0000      -0.517556       -14.0834
  47   2.0000      -0.513971       -13.9859
  48   2.0000      -0.509558       -13.8658
  49   2.0000      -0.500617       -13.6225
  50   2.0000      -0.488634       -13.2964
  51   2.0000      -0.472626       -12.8608
  52   2.0000      -0.468672       -12.7532
  53   2.0000      -0.467102       -12.7105
  54   2.0000      -0.458288       -12.4706
  55   2.0000      -0.449567       -12.2333
  56   2.0000      -0.442418       -12.0388
  57   2.0000      -0.440857       -11.9963
  58   2.0000      -0.432764       -11.7761
  59   2.0000      -0.429463       -11.6863
  60   2.0000      -0.423321       -11.5191
  61   2.0000      -0.418042       -11.3755
  62   2.0000      -0.408839       -11.1251
  63   2.0000      -0.354178        -9.6377
  64   2.0000      -0.329879        -8.9765
  65   2.0000      -0.326908        -8.8956
  66   2.0000      -0.287156        -7.8139
  67   0.0000       0.019506         0.5308
  68   0.0000       0.081251         2.2109
  69   0.0000       0.092921         2.5285
  70   0.0000       0.117194         3.1890
  71   0.0000       0.130806         3.5594

MULLIKEN ATOMIC CHARGES
-----------------------
   0 S :    0.103050
   1 C :   -0.162573
   2 C :   -0.047524
   3 C :   -0.015974
   4 C :   -0.122671
   5 H :    0.015090
   6 C :    0.090957
   7 H :    0.037697
   8 H :    0.032973
   9 C :   -0.138165
  10 H :    0.042086
  11 H :    0.044092
  12 C :   -0.050665
  13 H :    0.033999
  14 H :    0.033918
  15 H :    0.029312
  16 S :    0.086521
  17 C :   -0.066789
  18 C :   -0.048134
  19 C :   -0.053286
  20 C :   -0.116758
  21 H :    0.019446
  22 C :    0.075169
  23 H :    0.008368
  24 H :   -0.006964
  25 C :   -0.065148
  26 H :    0.033976
  27 H :    0.027299
  28 C :   -0.045843
  29 H :    0.024346
  30 H :    0.039751
  31 H :    0.032007
  32 H :    0.070657
  33 H :    0.059778
Sum of atomic charges:    0.0000000

LOEWDIN ATOMIC CHARGES
----------------------
   0 S :    0.407137
   1 C :   -0.192544
   2 C :   -0.058674
   3 C :   -0.069392
   4 C :   -0.207489
   5 H :    0.028557
   6 C :   -0.033148
   7 H :    0.037351
   8 H :    0.037598
   9 C :   -0.045394
  10 H :    0.025144
  11 H :    0.027899
  12 C :   -0.067413
  13 H :    0.029285
  14 H :    0.032396
  15 H :    0.014781
  16 S :    0.391109
  17 C :   -0.185689
  18 C :   -0.064234
  19 C :   -0.060114
  20 C :   -0.182279
  21 H :    0.030495
  22 C :   -0.039246
  23 H :    0.029345
  24 H :    0.010574
  25 C :   -0.031904
  26 H :    0.021347
  27 H :    0.028200
  28 C :   -0.065775
  29 H :    0.025167
  30 H :    0.028378
  31 H :    0.024689
  32 H :    0.037988
  33 H :    0.035854

  Mayer bond orders larger than 0.100000
B(  0-S ,  1-C ) :   1.1168 B(  0-S ,  4-C ) :   1.1430 B(  1-C ,  2-C ) :   1.6308
B(  1-C , 32-H ) :   0.9527 B(  2-C ,  3-C ) :   1.2191 B(  2-C ,  6-C ) :   1.0164
B(  3-C ,  4-C ) :   1.5395 B(  3-C ,  5-H ) :   0.9993 B(  4-C , 20-C ) :   1.0856
B(  6-C ,  7-H ) :   0.9448 B(  6-C ,  8-H ) :   0.9236 B(  6-C ,  9-C ) :   1.0637
B(  9-C , 10-H ) :   0.9621 B(  9-C , 11-H ) :   0.9515 B(  9-C , 12-C ) :   1.0732
B( 12-C , 13-H ) :   0.9753 B( 12-C , 14-H ) :   0.9743 B( 12-C , 15-H ) :   0.9789
B( 16-S , 17-C ) :   1.1249 B( 16-S , 20-C ) :   1.1224 B( 17-C , 18-C ) :   1.6640
B( 17-C , 33-H ) :   0.9485 B( 18-C , 19-C ) :   1.2134 B( 18-C , 21-H ) :   0.9830
B( 19-C , 20-C ) :   1.6006 B( 19-C , 22-C ) :   1.0440 B( 22-C , 23-H ) :   0.9292
B( 22-C , 24-H ) :   0.9298 B( 22-C , 25-C ) :   1.0471 B( 25-C , 26-H ) :   0.9618
B( 25-C , 27-H ) :   0.9579 B( 25-C , 28-C ) :   1.0725 B( 28-C , 29-H ) :   0.9768
B( 28-C , 30-H ) :   0.9779 B( 28-C , 31-H ) :   0.9762

Dispersion correction           -0.013458854
FINAL SINGLE POINT ENERGY     -1339.858691206795

DIPOLE MOMENT
-------------
                                X             Y             Z
Electronic contribution:      5.67687     -12.17503       7.97187
Nuclear contribution   :     -5.48796      12.56625      -8.22807
                        -----------------------------------------
Total Dipole Moment    :      0.18891       0.39123      -0.25620
                        -----------------------------------------
Magnitude (a.u.)       :      0.50436
Magnitude (Debye)      :      1.28199

Rotational constants in cm-1:     0.023640     0.007069     0.005615
Rotational constants in MHz :   708.699936   211.932039   168.348210

                             ****ORCA TERMINATED NORMALLY****
TOTAL RUN TIME: 0 days 0 hours 0 minutes 34 seconds 353 msec
