                         Program Version 4.2.1 -  RELEASE  -
|  1> ! wB97X-D3 SP def2-SVP
|  2> %pal
|  3> nprocs 16
|  4> end
|  5>
|  6> * xyz 0 1
|  7> S 	 -35.5782 	 40.1896 	 96.6198
|  8> C 	 -34.1806 	 39.6362 	 95.7431
|  9> C 	 -33.5086 	 38.5662 	 96.378
| 10> C 	 -34.2052 	 38.2579 	 97.5592
| 11> C 	 -35.268 	 39.04 	 97.9664
| 12> H 	 -33.7889 	 37.5888 	 98.2961
| 13> C 	 -32.3051 	 37.804 	 95.9243
| 14> H 	 -32.317 	 37.6967 	 94.8218
| 15> H 	 -32.5015 	 36.8018 	 96.3468
| 16> C 	 -30.9931 	 38.3928 	 96.3785
| 17> H 	 -30.8789 	 39.2614 	 95.6933
| 18> H 	 -31.0688 	 38.6464 	 97.4215
| 19> C 	 -29.9091 	 37.4052 	 96.0523
| 20> H 	 -29.8196 	 37.2594 	 94.9925
| 21> H 	 -28.9533 	 37.7441 	 96.5191
| 22> H 	 -30.1018 	 36.4372 	 96.4568
| 23> S 	 -37.8569 	 38.8802 	 98.8945
| 24> C 	 -38.0526 	 38.7841 	 100.641
| 25> C 	 -36.884 	 38.622 	 101.369
| 26> C 	 -35.7311 	 38.5978 	 100.45
| 27> C 	 -36.1098 	 38.9504 	 99.1552
| 28> H 	 -36.9802 	 38.4423 	 102.433
| 29> C 	 -34.3538 	 38.4687 	 100.978
| 30> H 	 -33.5683 	 38.0259 	 100.321
| 31> H 	 -34.4925 	 37.7756 	 101.799
| 32> C 	 -33.6748 	 39.7768 	 101.363
| 33> H 	 -34.2953 	 40.4175 	 101.976
| 34> H 	 -33.4928 	 40.255 	 100.466
| 35> C 	 -32.3065 	 39.4785 	 102.046
| 36> H 	 -31.6867 	 40.3641 	 101.956
| 37> H 	 -31.7744 	 38.6429 	 101.617
| 38> H 	 -32.4316 	 39.3232 	 103.121
| 39> H 	 -33.8843 	 40.0753 	 94.8105
| 40> H 	 -39.0062 	 38.7783 	 101.101
| 41> *
| 42>
| 43>                          ****END OF INPUT****

CARTESIAN COORDINATES (ANGSTROEM)
---------------------------------
  S    -35.578200   40.189600   96.619800
  C    -34.180600   39.636200   95.743100
  C    -33.508600   38.566200   96.378000
  C    -34.205200   38.257900   97.559200
  C    -35.268000   39.040000   97.966400
  H    -33.788900   37.588800   98.296100
  C    -32.305100   37.804000   95.924300
  H    -32.317000   37.696700   94.821800
  H    -32.501500   36.801800   96.346800
  C    -30.993100   38.392800   96.378500
  H    -30.878900   39.261400   95.693300
  H    -31.068800   38.646400   97.421500
  C    -29.909100   37.405200   96.052300
  H    -29.819600   37.259400   94.992500
  H    -28.953300   37.744100   96.519100
  H    -30.101800   36.437200   96.456800
  S    -37.856900   38.880200   98.894500
  C    -38.052600   38.784100  100.641000
  C    -36.884000   38.622000  101.369000
  C    -35.731100   38.597800  100.450000
  C    -36.109800   38.950400   99.155200
  H    -36.980200   38.442300  102.433000
  C    -34.353800   38.468700  100.978000
  H    -33.568300   38.025900  100.321000
  H    -34.492500   37.775600  101.799000
  C    -33.674800   39.776800  101.363000
  H    -34.295300   40.417500  101.976000
  H    -33.492800   40.255000  100.466000
  C    -32.306500   39.478500  102.046000
  H    -31.686700   40.364100  101.956000
  H    -31.774400   38.642900  101.617000
  H    -32.431600   39.323200  103.121000
  H    -33.884300   40.075300   94.810500
  H    -39.006200   38.778300  101.101000

 Total Charge           Charge          ....    0
 Multiplicity           Mult            ....    1
 Number of Electrons    NEL             ....  134
 Basis Dimension        Dim             ....  322

ORBITAL ENERGIES
----------------

  NO   OCC          E(Eh)            E(eV)
   0   2.0000     -88.967408     -2420.9262
   1   2.0000     -88.964958     -2420.8596
   2   2.0000     -10.329838      -281.0892
   3   2.0000     -10.328640      -281.0566
   4   2.0000     -10.316346      -280.7220
   5   2.0000     -10.314892      -280.6825
   6   2.0000     -10.308930      -280.5202
   7   2.0000     -10.300637      -280.2946
   8   2.0000     -10.298775      -280.2439
   9   2.0000     -10.292145      -280.0635
  10   2.0000     -10.290056      -280.0067
  11   2.0000     -10.288166      -279.9552
  12   2.0000     -10.286119      -279.8995
  13   2.0000     -10.279086      -279.7082
  14   2.0000     -10.277348      -279.6609
  15   2.0000     -10.276130      -279.6277
  16   2.0000      -8.081807      -219.9172
  17   2.0000      -8.079047      -219.8421
  18   2.0000      -6.040317      -164.3654
  19   2.0000      -6.037575      -164.2908
  20   2.0000      -6.036653      -164.2657
  21   2.0000      -6.033509      -164.1801
  22   2.0000      -6.032292      -164.1470
  23   2.0000      -6.029971      -164.0839
  24   2.0000      -1.001295       -27.2466
  25   2.0000      -0.979749       -26.6603
  26   2.0000      -0.922049       -25.0902
  27   2.0000      -0.914296       -24.8793
  28   2.0000      -0.868505       -23.6332
  29   2.0000      -0.853357       -23.2210
  30   2.0000      -0.847966       -23.0743
  31   2.0000      -0.812897       -22.1201
  32   2.0000      -0.781910       -21.2769
  33   2.0000      -0.768228       -20.9045
  34   2.0000      -0.710634       -19.3373
  35   2.0000      -0.702499       -19.1160
  36   2.0000      -0.692644       -18.8478
  37   2.0000      -0.663999       -18.0683
  38   2.0000      -0.640169       -17.4199
  39   2.0000      -0.625729       -17.0269
  40   2.0000      -0.601987       -16.3809
  41   2.0000      -0.574730       -15.6392
  42   2.0000      -0.568013       -15.4564
  43   2.0000      -0.562889       -15.3170
  44   2.0000      -0.528678       -14.3861
  45   2.0000      -0.524589       -14.2748
  46   2.0000      -0.520801       -14.1717
  47   2.0000      -0.508463       -13.8360
  48   2.0000      -0.496794       -13.5185
  49   2.0000      -0.494228       -13.4486
  50   2.0000      -0.491847       -13.3838
  51   2.0000      -0.485698       -13.2165
  52   2.0000      -0.465915       -12.6782
  53   2.0000      -0.463543       -12.6136
  54   2.0000      -0.460960       -12.5434
  55   2.0000      -0.451699       -12.2913
  56   2.0000      -0.448035       -12.1916
  57   2.0000      -0.438390       -11.9292
  58   2.0000      -0.434331       -11.8187
  59   2.0000      -0.430141       -11.7047
  60   2.0000      -0.425370       -11.5749
  61   2.0000      -0.419525       -11.4159
  62   2.0000      -0.413000       -11.2383
  63   2.0000      -0.349415        -9.5081
  64   2.0000      -0.330894        -9.0041
  65   2.0000      -0.328705        -8.9445
  66   2.0000      -0.284768        -7.7489
  67   0.0000       0.025120         0.6836
  68   0.0000       0.069570         1.8931
  69   0.0000       0.099601         2.7103
  70   0.0000       0.117499         3.1973
  71   0.0000       0.128210         3.4888

MULLIKEN ATOMIC CHARGES
-----------------------
   0 S :    0.100751
   1 C :   -0.114525
   2 C :   -0.084211
   3 C :    0.030610
   4 C :   -0.168012
   5 H :   -0.002347
   6 C :    0.016753
   7 H :    0.029974
   8 H :    0.026412
   9 C :   -0.046587
  10 H :    0.033494
  11 H :    0.029668
  12 C :   -0.008231
  13 H :    0.023181
  14 H :    0.037835
  15 H :    0.014105
  16 S :    0.107207
  17 C :   -0.076337
  18 C :   -0.031430
  19 C :   -0.033009
  20 C :   -0.117837
  21 H :    0.027200
  22 C :    0.018794
  23 H :    0.019617
  24 H :    0.021246
  25 C :   -0.023110
  26 H :    0.024935
  27 H :    0.017879
  28 C :   -0.046413
  29 H :    0.031232
  30 H :    0.026429
  31 H :    0.034514
  32 H :    0.039036
  33 H :    0.041177
Sum of atomic charges:   -0.0000000

LOEWDIN ATOMIC CHARGES
----------------------
   0 S :    0.390787
   1 C :   -0.193249
   2 C :   -0.067285
   3 C :   -0.067395
   4 C :   -0.186462
   5 H :    0.023163
   6 C :   -0.035979
   7 H :    0.032947
   8 H :    0.031396
   9 C :   -0.036351
  10 H :    0.032510
  11 H :    0.023113
  12 C :   -0.061058
  13 H :    0.024250
  14 H :    0.030737
  15 H :    0.018447
  16 S :    0.392363
  17 C :   -0.169686
  18 C :   -0.066211
  19 C :   -0.046729
  20 C :   -0.193586
  21 H :    0.036396
  22 C :   -0.040032
  23 H :    0.031004
  24 H :    0.028811
  25 C :   -0.022951
  26 H :    0.022333
  27 H :    0.017222
  28 C :   -0.062562
  29 H :    0.026469
  30 H :    0.021069
  31 H :    0.026603
  32 H :    0.021234
  33 H :    0.018683

  Mayer bond orders larger than 0.100000
B(  0-S ,  1-C ) :   1.1619 B(  0-S ,  4-C ) :   1.1343 B(  1-C ,  2-C ) :   1.5655
B(  1-C ,  4-C ) :   0.1077 B(  1-C , 32-H ) :   0.9703 B(  2-C ,  3-C ) :   1.2896
B(  2-C ,  6-C ) :   1.0145 B(  3-C ,  4-C ) :   1.5682 B(  3-C ,  5-H ) :   0.9784
B(  4-C , 20-C ) :   1.0592 B(  6-C ,  7-H ) :   0.9391 B(  6-C ,  8-H ) :   0.9427
B(  6-C ,  9-C ) :   1.0637 B(  9-C , 10-H ) :   0.9503 B(  9-C , 11-H ) :   0.9568
B(  9-C , 12-C ) :   1.0901 B( 12-C , 13-H ) :   0.9686 B( 12-C , 14-H ) :   0.9724
B( 12-C , 15-H ) :   0.9730 B( 16-S , 17-C ) :   1.1409 B( 16-S , 20-C ) :   1.1285
B( 17-C , 18-C ) :   1.6556 B( 17-C , 33-H ) :   0.9687 B( 18-C , 19-C ) :   1.1830
B( 18-C , 21-H ) :   0.9893 B( 19-C , 20-C ) :   1.6098 B( 19-C , 22-C ) :   1.0663
B( 22-C , 23-H ) :   0.9333 B( 22-C , 24-H ) :   0.9300 B( 22-C , 25-C ) :   1.0618
B( 25-C , 26-H ) :   0.9564 B( 25-C , 27-H ) :   0.9549 B( 25-C , 28-C ) :   1.0775
B( 28-C , 29-H ) :   0.9750 B( 28-C , 30-H ) :   0.9740 B( 28-C , 31-H ) :   0.9775

Dispersion correction           -0.013961132
FINAL SINGLE POINT ENERGY     -1339.876034955545

DIPOLE MOMENT
-------------
                                X             Y             Z
Electronic contribution:    -30.71710       6.02799      -6.72687
Nuclear contribution   :     31.30670      -6.29750       7.04147
                        -----------------------------------------
Total Dipole Moment    :      0.58960      -0.26952       0.31460
                        -----------------------------------------
Magnitude (a.u.)       :      0.72058
Magnitude (Debye)      :      1.83158

Rotational constants in cm-1:     0.017796     0.008994     0.006603
Rotational constants in MHz :   533.520294   269.637259   197.963244

                             ****ORCA TERMINATED NORMALLY****
TOTAL RUN TIME: 0 days 0 hours 0 minutes 30 seconds 176 msec
