                         Program Version 4.2.1 -  RELEASE  -
|  1> ! wB97X-D3 SP def2-SVP
|  2> %pal
|  3> nprocs 16
|  4> end
|  5>
|  6> * xyz 0 1
|  7> S 	 5.78864 	 -26.2745 	 79.2419
|  8> C 	 4.50967 	 -27.4422 	 79.0228
|  9> C 	 4.7641 	 -28.6218 	 79.7223
| 10> C 	 6.1473 	 -28.6836 	 80.0635
| 11> C 	 6.80329 	 -27.5251 	 79.8006
| 12> H 	 6.57959 	 -29.5508 	 80.5138
| 13> C 	 3.94966 	 -29.8827 	 79.7432
| 14> H 	 4.19545 	 -30.4308 	 78.8524
| 15> H 	 2.89855 	 -29.751 	 79.6375
| 16> C 	 4.10769 	 -30.7186 	 80.9842
| 17> H 	 3.6788 	 -31.711 	 80.8435
| 18> H 	 5.14965 	 -31.0764 	 80.9866
| 19> C 	 3.66119 	 -30.0992 	 82.3836
| 20> H 	 4.01005 	 -30.8171 	 83.16
| 21> H 	 4.19038 	 -29.1578 	 82.6063
| 22> H 	 2.56179 	 -29.9631 	 82.4277
| 23> S 	 8.83421 	 -26.0437 	 81.1512
| 24> C 	 10.4296 	 -26.5496 	 81.1047
| 25> C 	 10.6034 	 -27.6037 	 80.2454
| 26> C 	 9.3866 	 -28.1057 	 79.7617
| 27> C 	 8.28333 	 -27.3261 	 80.0479
| 28> H 	 11.6198 	 -28.0669 	 80.1047
| 29> C 	 9.29689 	 -29.3613 	 78.8402
| 30> H 	 9.97003 	 -29.0625 	 77.9934
| 31> H 	 8.29475 	 -29.5215 	 78.553
| 32> C 	 9.77122 	 -30.6311 	 79.4507
| 33> H 	 9.1277 	 -30.8227 	 80.2981
| 34> H 	 10.7724 	 -30.5576 	 79.9673
| 35> C 	 9.76679 	 -31.7657 	 78.4165
| 36> H 	 10.3471 	 -31.3847 	 77.6638
| 37> H 	 8.72557 	 -31.9424 	 78.0931
| 38> H 	 10.2395 	 -32.7168 	 78.7449
| 39> H 	 3.49733 	 -27.2977 	 78.6652
| 40> H 	 11.2817 	 -26.007 	 81.6198
| 41> *
| 42>
| 43>                          ****END OF INPUT****

CARTESIAN COORDINATES (ANGSTROEM)
---------------------------------
  S      5.788640  -26.274500   79.241900
  C      4.509670  -27.442200   79.022800
  C      4.764100  -28.621800   79.722300
  C      6.147300  -28.683600   80.063500
  C      6.803290  -27.525100   79.800600
  H      6.579590  -29.550800   80.513800
  C      3.949660  -29.882700   79.743200
  H      4.195450  -30.430800   78.852400
  H      2.898550  -29.751000   79.637500
  C      4.107690  -30.718600   80.984200
  H      3.678800  -31.711000   80.843500
  H      5.149650  -31.076400   80.986600
  C      3.661190  -30.099200   82.383600
  H      4.010050  -30.817100   83.160000
  H      4.190380  -29.157800   82.606300
  H      2.561790  -29.963100   82.427700
  S      8.834210  -26.043700   81.151200
  C     10.429600  -26.549600   81.104700
  C     10.603400  -27.603700   80.245400
  C      9.386600  -28.105700   79.761700
  C      8.283330  -27.326100   80.047900
  H     11.619800  -28.066900   80.104700
  C      9.296890  -29.361300   78.840200
  H      9.970030  -29.062500   77.993400
  H      8.294750  -29.521500   78.553000
  C      9.771220  -30.631100   79.450700
  H      9.127700  -30.822700   80.298100
  H     10.772400  -30.557600   79.967300
  C      9.766790  -31.765700   78.416500
  H     10.347100  -31.384700   77.663800
  H      8.725570  -31.942400   78.093100
  H     10.239500  -32.716800   78.744900
  H      3.497330  -27.297700   78.665200
  H     11.281700  -26.007000   81.619800

 Total Charge           Charge          ....    0
 Multiplicity           Mult            ....    1
 Number of Electrons    NEL             ....  134
 Basis Dimension        Dim             ....  322

ORBITAL ENERGIES
----------------

  NO   OCC          E(Eh)            E(eV)
   0   2.0000     -88.970482     -2421.0099
   1   2.0000     -88.961628     -2420.7690
   2   2.0000     -10.328311      -281.0476
   3   2.0000     -10.326715      -281.0042
   4   2.0000     -10.315764      -280.7062
   5   2.0000     -10.312679      -280.6223
   6   2.0000     -10.300610      -280.2938
   7   2.0000     -10.299205      -280.2556
   8   2.0000     -10.291818      -280.0546
   9   2.0000     -10.290822      -280.0275
  10   2.0000     -10.289433      -279.9897
  11   2.0000     -10.287655      -279.9413
  12   2.0000     -10.287558      -279.9387
  13   2.0000     -10.287146      -279.9275
  14   2.0000     -10.283284      -279.8224
  15   2.0000     -10.275598      -279.6132
  16   2.0000      -8.085897      -220.0285
  17   2.0000      -8.077582      -219.8022
  18   2.0000      -6.044382      -164.4760
  19   2.0000      -6.040486      -164.3700
  20   2.0000      -6.036464      -164.2605
  21   2.0000      -6.035949      -164.2465
  22   2.0000      -6.031809      -164.1339
  23   2.0000      -6.028527      -164.0445
  24   2.0000      -1.012455       -27.5503
  25   2.0000      -0.994379       -27.0584
  26   2.0000      -0.915928       -24.9237
  27   2.0000      -0.915568       -24.9139
  28   2.0000      -0.863693       -23.5023
  29   2.0000      -0.851669       -23.1751
  30   2.0000      -0.844973       -22.9929
  31   2.0000      -0.812456       -22.1080
  32   2.0000      -0.786326       -21.3970
  33   2.0000      -0.775870       -21.1125
  34   2.0000      -0.707163       -19.2429
  35   2.0000      -0.696116       -18.9423
  36   2.0000      -0.691150       -18.8072
  37   2.0000      -0.652469       -17.7546
  38   2.0000      -0.637218       -17.3396
  39   2.0000      -0.629912       -17.1408
  40   2.0000      -0.599878       -16.3235
  41   2.0000      -0.570063       -15.5122
  42   2.0000      -0.565686       -15.3931
  43   2.0000      -0.558430       -15.1957
  44   2.0000      -0.533126       -14.5071
  45   2.0000      -0.522110       -14.2073
  46   2.0000      -0.513457       -13.9719
  47   2.0000      -0.509930       -13.8759
  48   2.0000      -0.506127       -13.7724
  49   2.0000      -0.494847       -13.4655
  50   2.0000      -0.491738       -13.3809
  51   2.0000      -0.479856       -13.0575
  52   2.0000      -0.470078       -12.7915
  53   2.0000      -0.469092       -12.7646
  54   2.0000      -0.465386       -12.6638
  55   2.0000      -0.454337       -12.3631
  56   2.0000      -0.447582       -12.1793
  57   2.0000      -0.438669       -11.9368
  58   2.0000      -0.434715       -11.8292
  59   2.0000      -0.427980       -11.6459
  60   2.0000      -0.419044       -11.4028
  61   2.0000      -0.412026       -11.2118
  62   2.0000      -0.408107       -11.1051
  63   2.0000      -0.344837        -9.3835
  64   2.0000      -0.332463        -9.0468
  65   2.0000      -0.330738        -8.9998
  66   2.0000      -0.294782        -8.0214
  67   0.0000       0.038040         1.0351
  68   0.0000       0.068074         1.8524
  69   0.0000       0.112098         3.0503
  70   0.0000       0.120954         3.2913
  71   0.0000       0.128595         3.4993

MULLIKEN ATOMIC CHARGES
-----------------------
   0 S :    0.135593
   1 C :   -0.109678
   2 C :   -0.083762
   3 C :    0.005449
   4 C :   -0.132530
   5 H :    0.004419
   6 C :    0.086667
   7 H :    0.038626
   8 H :    0.005145
   9 C :   -0.109662
  10 H :    0.019192
  11 H :    0.014011
  12 C :   -0.059283
  13 H :    0.042547
  14 H :    0.051060
  15 H :    0.047872
  16 S :    0.101188
  17 C :   -0.112737
  18 C :   -0.051451
  19 C :   -0.057147
  20 C :   -0.137687
  21 H :    0.036132
  22 C :    0.074133
  23 H :    0.040181
  24 H :    0.013158
  25 C :   -0.108490
  26 H :    0.015611
  27 H :    0.026775
  28 C :    0.001077
  29 H :    0.008570
  30 H :    0.032767
  31 H :    0.039088
  32 H :    0.041329
  33 H :    0.081838
Sum of atomic charges:   -0.0000000

LOEWDIN ATOMIC CHARGES
----------------------
   0 S :    0.431006
   1 C :   -0.201905
   2 C :   -0.058563
   3 C :   -0.061624
   4 C :   -0.201637
   5 H :    0.026632
   6 C :   -0.035794
   7 H :    0.038259
   8 H :    0.023607
   9 C :   -0.050781
  10 H :    0.026077
  11 H :    0.019867
  12 C :   -0.066209
  13 H :    0.033399
  14 H :    0.030341
  15 H :    0.029451
  16 S :    0.419228
  17 C :   -0.214011
  18 C :   -0.091435
  19 C :   -0.057644
  20 C :   -0.195987
  21 H :    0.040724
  22 C :   -0.023473
  23 H :    0.036922
  24 H :    0.021846
  25 C :   -0.049020
  26 H :    0.016767
  27 H :    0.024480
  28 C :   -0.055880
  29 H :    0.012804
  30 H :    0.028657
  31 H :    0.030645
  32 H :    0.027440
  33 H :    0.045810

  Mayer bond orders larger than 0.100000
B(  0-S ,  1-C ) :   1.1361 B(  0-S ,  4-C ) :   1.1633 B(  1-C ,  2-C ) :   1.6213
B(  1-C , 32-H ) :   0.9641 B(  2-C ,  3-C ) :   1.2184 B(  2-C ,  6-C ) :   1.0314
B(  3-C ,  4-C ) :   1.5812 B(  3-C ,  5-H ) :   1.0030 B(  4-C , 20-C ) :   0.9886
B(  6-C ,  7-H ) :   0.9362 B(  6-C ,  8-H ) :   0.9347 B(  6-C ,  9-C ) :   1.0842
B(  9-C , 10-H ) :   0.9476 B(  9-C , 11-H ) :   0.9493 B(  9-C , 12-C ) :   1.0619
B( 12-C , 13-H ) :   0.9742 B( 12-C , 14-H ) :   0.9758 B( 12-C , 15-H ) :   0.9766
B( 16-S , 17-C ) :   1.1953 B( 16-S , 20-C ) :   1.1360 B( 17-C , 18-C ) :   1.5794
B( 17-C , 33-H ) :   0.9551 B( 18-C , 19-C ) :   1.2637 B( 18-C , 21-H ) :   0.9841
B( 19-C , 20-C ) :   1.6117 B( 19-C , 22-C ) :   1.0273 B( 22-C , 23-H ) :   0.9387
B( 22-C , 24-H ) :   0.9355 B( 22-C , 25-C ) :   1.0640 B( 25-C , 26-H ) :   0.9513
B( 25-C , 27-H ) :   0.9540 B( 25-C , 28-C ) :   1.0735 B( 28-C , 29-H ) :   0.9739
B( 28-C , 30-H ) :   0.9733 B( 28-C , 31-H ) :   0.9741

Dispersion correction           -0.014379348
FINAL SINGLE POINT ENERGY     -1339.870183622766

DIPOLE MOMENT
-------------
                                X             Y             Z
Electronic contribution:      3.16551      28.57393      -0.12252
Nuclear contribution   :     -3.17723     -29.29202       0.11116
                        -----------------------------------------
Total Dipole Moment    :     -0.01172      -0.71810      -0.01136
                        -----------------------------------------
Magnitude (a.u.)       :      0.71828
Magnitude (Debye)      :      1.82572

Rotational constants in cm-1:     0.015936     0.009716     0.007347
Rotational constants in MHz :   477.745681   291.278732   220.268265

                             ****ORCA TERMINATED NORMALLY****
TOTAL RUN TIME: 0 days 0 hours 0 minutes 33 seconds 906 msec
