                         Program Version 4.2.1 -  RELEASE  -
|  1> ! wB97X-D3 SP def2-SVP
|  2> %pal
|  3> nprocs 16
|  4> end
|  5>
|  6> * xyz 0 1
|  7> S 	 40.2446 	 12.4811 	 82.7375
|  8> C 	 41.2845 	 11.7817 	 81.4581
|  9> C 	 41.4086 	 12.6613 	 80.396
| 10> C 	 40.7417 	 13.8728 	 80.6536
| 11> C 	 40.189 	 14.0329 	 81.9312
| 12> H 	 40.7698 	 14.7603 	 79.9677
| 13> C 	 42.0734 	 12.4659 	 79.0978
| 14> H 	 42.5718 	 11.5888 	 79.2657
| 15> H 	 42.9135 	 13.1421 	 79.0947
| 16> C 	 41.2302 	 12.4745 	 77.796
| 17> H 	 40.445 	 11.7192 	 77.8752
| 18> H 	 40.6772 	 13.3469 	 77.5861
| 19> C 	 42.0413 	 12.3057 	 76.5384
| 20> H 	 42.8125 	 12.9949 	 76.4546
| 21> H 	 42.587 	 11.3995 	 76.7566
| 22> H 	 41.388 	 12.1638 	 75.6533
| 23> S 	 37.8435 	 14.8825 	 82.8837
| 24> C 	 37.6179 	 16.4531 	 83.5625
| 25> C 	 38.7647 	 17.2612 	 83.4737
| 26> C 	 39.8672 	 16.5411 	 82.8842
| 27> C 	 39.4733 	 15.2016 	 82.5754
| 28> H 	 38.6182 	 18.2874 	 83.8491
| 29> C 	 41.2471 	 17.0591 	 82.7564
| 30> H 	 41.86 	 16.2452 	 82.4097
| 31> H 	 41.6681 	 17.4828 	 83.6658
| 32> C 	 41.3193 	 18.1721 	 81.7015
| 33> H 	 40.6718 	 18.9806 	 82.0202
| 34> H 	 41.0022 	 17.7301 	 80.7493
| 35> C 	 42.7704 	 18.7399 	 81.5217
| 36> H 	 43.4526 	 17.8669 	 81.3789
| 37> H 	 42.9614 	 19.2746 	 82.4491
| 38> H 	 43.0147 	 19.357 	 80.6587
| 39> H 	 41.8754 	 10.9094 	 81.4798
| 40> H 	 36.7157 	 16.8926 	 83.96
| 41> *
| 42>
| 43>                          ****END OF INPUT****

CARTESIAN COORDINATES (ANGSTROEM)
---------------------------------
  S     40.244600   12.481100   82.737500
  C     41.284500   11.781700   81.458100
  C     41.408600   12.661300   80.396000
  C     40.741700   13.872800   80.653600
  C     40.189000   14.032900   81.931200
  H     40.769800   14.760300   79.967700
  C     42.073400   12.465900   79.097800
  H     42.571800   11.588800   79.265700
  H     42.913500   13.142100   79.094700
  C     41.230200   12.474500   77.796000
  H     40.445000   11.719200   77.875200
  H     40.677200   13.346900   77.586100
  C     42.041300   12.305700   76.538400
  H     42.812500   12.994900   76.454600
  H     42.587000   11.399500   76.756600
  H     41.388000   12.163800   75.653300
  S     37.843500   14.882500   82.883700
  C     37.617900   16.453100   83.562500
  C     38.764700   17.261200   83.473700
  C     39.867200   16.541100   82.884200
  C     39.473300   15.201600   82.575400
  H     38.618200   18.287400   83.849100
  C     41.247100   17.059100   82.756400
  H     41.860000   16.245200   82.409700
  H     41.668100   17.482800   83.665800
  C     41.319300   18.172100   81.701500
  H     40.671800   18.980600   82.020200
  H     41.002200   17.730100   80.749300
  C     42.770400   18.739900   81.521700
  H     43.452600   17.866900   81.378900
  H     42.961400   19.274600   82.449100
  H     43.014700   19.357000   80.658700
  H     41.875400   10.909400   81.479800
  H     36.715700   16.892600   83.960000

 Total Charge           Charge          ....    0
 Multiplicity           Mult            ....    1
 Number of Electrons    NEL             ....  134
 Basis Dimension        Dim             ....  322

ORBITAL ENERGIES
----------------

  NO   OCC          E(Eh)            E(eV)
   0   2.0000     -88.969529     -2420.9840
   1   2.0000     -88.967271     -2420.9225
   2   2.0000     -10.335695      -281.2486
   3   2.0000     -10.330672      -281.1119
   4   2.0000     -10.314615      -280.6749
   5   2.0000     -10.313981      -280.6577
   6   2.0000     -10.310114      -280.5525
   7   2.0000     -10.299417      -280.2614
   8   2.0000     -10.297001      -280.1956
   9   2.0000     -10.294367      -280.1240
  10   2.0000     -10.285826      -279.8916
  11   2.0000     -10.285560      -279.8843
  12   2.0000     -10.285162      -279.8735
  13   2.0000     -10.284931      -279.8672
  14   2.0000     -10.280786      -279.7544
  15   2.0000     -10.273266      -279.5498
  16   2.0000      -8.085385      -220.0145
  17   2.0000      -8.081183      -219.9002
  18   2.0000      -6.043648      -164.4560
  19   2.0000      -6.039836      -164.3523
  20   2.0000      -6.039597      -164.3458
  21   2.0000      -6.036469      -164.2607
  22   2.0000      -6.035755      -164.2412
  23   2.0000      -6.031876      -164.1357
  24   2.0000      -1.007391       -27.4125
  25   2.0000      -0.985420       -26.8147
  26   2.0000      -0.919433       -25.0190
  27   2.0000      -0.912945       -24.8425
  28   2.0000      -0.872284       -23.7360
  29   2.0000      -0.849815       -23.1246
  30   2.0000      -0.845865       -23.0172
  31   2.0000      -0.815345       -22.1867
  32   2.0000      -0.785265       -21.3681
  33   2.0000      -0.770126       -20.9562
  34   2.0000      -0.713559       -19.4169
  35   2.0000      -0.699812       -19.0429
  36   2.0000      -0.693104       -18.8603
  37   2.0000      -0.655873       -17.8472
  38   2.0000      -0.641084       -17.4448
  39   2.0000      -0.620045       -16.8723
  40   2.0000      -0.595409       -16.2019
  41   2.0000      -0.577361       -15.7108
  42   2.0000      -0.570512       -15.5244
  43   2.0000      -0.563410       -15.3312
  44   2.0000      -0.541448       -14.7335
  45   2.0000      -0.520603       -14.1663
  46   2.0000      -0.517330       -14.0773
  47   2.0000      -0.509477       -13.8636
  48   2.0000      -0.502825       -13.6826
  49   2.0000      -0.500183       -13.6107
  50   2.0000      -0.495628       -13.4867
  51   2.0000      -0.477613       -12.9965
  52   2.0000      -0.471451       -12.8288
  53   2.0000      -0.463440       -12.6108
  54   2.0000      -0.453190       -12.3319
  55   2.0000      -0.452464       -12.3122
  56   2.0000      -0.445631       -12.1262
  57   2.0000      -0.442196       -12.0328
  58   2.0000      -0.434788       -11.8312
  59   2.0000      -0.427919       -11.6443
  60   2.0000      -0.424006       -11.5378
  61   2.0000      -0.417426       -11.3587
  62   2.0000      -0.411638       -11.2012
  63   2.0000      -0.340617        -9.2687
  64   2.0000      -0.331486        -9.0202
  65   2.0000      -0.326848        -8.8940
  66   2.0000      -0.295318        -8.0360
  67   0.0000       0.035538         0.9670
  68   0.0000       0.060652         1.6504
  69   0.0000       0.112662         3.0657
  70   0.0000       0.118956         3.2369
  71   0.0000       0.126438         3.4405

MULLIKEN ATOMIC CHARGES
-----------------------
   0 S :    0.105479
   1 C :   -0.092412
   2 C :   -0.140069
   3 C :    0.031605
   4 C :   -0.169272
   5 H :    0.024142
   6 C :    0.146742
   7 H :   -0.030158
   8 H :    0.019694
   9 C :   -0.049624
  10 H :    0.028807
  11 H :    0.017502
  12 C :   -0.014479
  13 H :    0.014528
  14 H :    0.008902
  15 H :    0.050267
  16 S :    0.138950
  17 C :   -0.098300
  18 C :   -0.064924
  19 C :   -0.002618
  20 C :   -0.170064
  21 H :    0.032960
  22 C :    0.090913
  23 H :    0.017503
  24 H :    0.027707
  25 C :   -0.112544
  26 H :    0.032252
  27 H :    0.028265
  28 C :   -0.049683
  29 H :    0.028845
  30 H :    0.032622
  31 H :    0.041030
  32 H :    0.027601
  33 H :    0.047831
Sum of atomic charges:   -0.0000000

LOEWDIN ATOMIC CHARGES
----------------------
   0 S :    0.393423
   1 C :   -0.183741
   2 C :   -0.064815
   3 C :   -0.069955
   4 C :   -0.198775
   5 H :    0.035274
   6 C :   -0.028246
   7 H :    0.018456
   8 H :    0.034308
   9 C :   -0.032352
  10 H :    0.028224
  11 H :    0.017166
  12 C :   -0.057765
  13 H :    0.015379
  14 H :    0.022922
  15 H :    0.035698
  16 S :    0.455660
  17 C :   -0.202487
  18 C :   -0.072812
  19 C :   -0.050201
  20 C :   -0.222977
  21 H :    0.039087
  22 C :   -0.030667
  23 H :    0.028746
  24 H :    0.030871
  25 C :   -0.034821
  26 H :    0.019212
  27 H :    0.020842
  28 C :   -0.071782
  29 H :    0.027815
  30 H :    0.024112
  31 H :    0.025908
  32 H :    0.021186
  33 H :    0.027108

  Mayer bond orders larger than 0.100000
B(  0-S ,  1-C ) :   1.1273 B(  0-S ,  4-C ) :   1.1583 B(  1-C ,  2-C ) :   1.6101
B(  1-C ,  4-C ) :   0.1055 B(  1-C , 32-H ) :   0.9656 B(  2-C ,  3-C ) :   1.2464
B(  2-C ,  6-C ) :   1.0266 B(  3-C ,  4-C ) :   1.5732 B(  3-C ,  5-H ) :   0.9879
B(  4-C , 20-C ) :   0.9807 B(  6-C ,  7-H ) :   0.9139 B(  6-C ,  8-H ) :   0.9227
B(  6-C ,  9-C ) :   1.0492 B(  9-C , 10-H ) :   0.9535 B(  9-C , 11-H ) :   0.9560
B(  9-C , 12-C ) :   1.0864 B( 12-C , 13-H ) :   0.9732 B( 12-C , 14-H ) :   0.9722
B( 12-C , 15-H ) :   0.9722 B( 16-S , 17-C ) :   1.1684 B( 16-S , 20-C ) :   1.1912
B( 17-C , 18-C ) :   1.6093 B( 17-C , 33-H ) :   0.9665 B( 18-C , 19-C ) :   1.2302
B( 18-C , 21-H ) :   0.9878 B( 19-C , 20-C ) :   1.5593 B( 19-C , 22-C ) :   1.0647
B( 22-C , 23-H ) :   0.9235 B( 22-C , 24-H ) :   0.9381 B( 22-C , 25-C ) :   1.0524
B( 25-C , 26-H ) :   0.9644 B( 25-C , 27-H ) :   0.9561 B( 25-C , 28-C ) :   1.0729
B( 28-C , 29-H ) :   0.9739 B( 28-C , 30-H ) :   0.9755 B( 28-C , 31-H ) :   0.9779

Dispersion correction           -0.013477916
FINAL SINGLE POINT ENERGY     -1339.857904621178

DIPOLE MOMENT
-------------
                                X             Y             Z
Electronic contribution:    -18.37097      -9.82786      20.46260
Nuclear contribution   :     18.71520      10.15080     -20.87780
                        -----------------------------------------
Total Dipole Moment    :      0.34423       0.32295      -0.41520
                        -----------------------------------------
Magnitude (a.u.)       :      0.62863
Magnitude (Debye)      :      1.59786

Rotational constants in cm-1:     0.016637     0.008373     0.006493
Rotational constants in MHz :   498.766021   251.007836   194.661487

                             ****ORCA TERMINATED NORMALLY****
TOTAL RUN TIME: 0 days 0 hours 0 minutes 29 seconds 60 msec
