                         Program Version 4.2.1 -  RELEASE  -
|  1> ! wB97X-D3 SP def2-SVP
|  2> %pal
|  3> nprocs 16
|  4> end
|  5>
|  6> * xyz 0 1
|  7> S 	 21.2416 	 32.5246 	 54.3613
|  8> C 	 20.0094 	 31.7745 	 55.326
|  9> C 	 19.9009 	 32.3861 	 56.548
| 10> C 	 20.7016 	 33.5408 	 56.5575
| 11> C 	 21.3404 	 33.7932 	 55.4224
| 12> H 	 20.9095 	 34.2463 	 57.3792
| 13> C 	 19.0755 	 31.9426 	 57.7294
| 14> H 	 18.9455 	 30.9367 	 57.5738
| 15> H 	 18.1035 	 32.3477 	 57.6059
| 16> C 	 19.7474 	 32.2173 	 59.1133
| 17> H 	 20.8292 	 31.9411 	 58.9783
| 18> H 	 19.7188 	 33.2898 	 59.3042
| 19> C 	 19.0289 	 31.33 	 60.1446
| 20> H 	 17.9717 	 31.6349 	 60.0851
| 21> H 	 19.1228 	 30.2392 	 59.9794
| 22> H 	 19.445 	 31.4501 	 61.0972
| 23> S 	 24.1337 	 34.2811 	 55.4585
| 24> C 	 24.6362 	 35.9631 	 55.2451
| 25> C 	 23.6027 	 36.8551 	 55.3832
| 26> C 	 22.2998 	 36.2274 	 55.4683
| 27> C 	 22.4214 	 34.8074 	 55.3746
| 28> H 	 23.8402 	 37.918 	 55.541
| 29> C 	 20.9797 	 36.9482 	 55.6055
| 30> H 	 20.3219 	 36.2611 	 56.0208
| 31> H 	 20.5017 	 36.9342 	 54.6145
| 32> C 	 21.0449 	 38.4314 	 56.0967
| 33> H 	 20.2862 	 38.9749 	 55.6299
| 34> H 	 21.9506 	 38.9813 	 55.7275
| 35> C 	 20.9124 	 38.5817 	 57.6551
| 36> H 	 19.8828 	 38.4644 	 57.9908
| 37> H 	 21.1906 	 39.5414 	 57.9255
| 38> H 	 21.5846 	 37.8501 	 58.2188
| 39> H 	 19.5115 	 30.8299 	 55.1208
| 40> H 	 25.664 	 36.2544 	 55.2802
| 41> *
| 42>
| 43>                          ****END OF INPUT****

CARTESIAN COORDINATES (ANGSTROEM)
---------------------------------
  S     21.241600   32.524600   54.361300
  C     20.009400   31.774500   55.326000
  C     19.900900   32.386100   56.548000
  C     20.701600   33.540800   56.557500
  C     21.340400   33.793200   55.422400
  H     20.909500   34.246300   57.379200
  C     19.075500   31.942600   57.729400
  H     18.945500   30.936700   57.573800
  H     18.103500   32.347700   57.605900
  C     19.747400   32.217300   59.113300
  H     20.829200   31.941100   58.978300
  H     19.718800   33.289800   59.304200
  C     19.028900   31.330000   60.144600
  H     17.971700   31.634900   60.085100
  H     19.122800   30.239200   59.979400
  H     19.445000   31.450100   61.097200
  S     24.133700   34.281100   55.458500
  C     24.636200   35.963100   55.245100
  C     23.602700   36.855100   55.383200
  C     22.299800   36.227400   55.468300
  C     22.421400   34.807400   55.374600
  H     23.840200   37.918000   55.541000
  C     20.979700   36.948200   55.605500
  H     20.321900   36.261100   56.020800
  H     20.501700   36.934200   54.614500
  C     21.044900   38.431400   56.096700
  H     20.286200   38.974900   55.629900
  H     21.950600   38.981300   55.727500
  C     20.912400   38.581700   57.655100
  H     19.882800   38.464400   57.990800
  H     21.190600   39.541400   57.925500
  H     21.584600   37.850100   58.218800
  H     19.511500   30.829900   55.120800
  H     25.664000   36.254400   55.280200

 Total Charge           Charge          ....    0
 Multiplicity           Mult            ....    1
 Number of Electrons    NEL             ....  134
 Basis Dimension        Dim             ....  322

ORBITAL ENERGIES
----------------

  NO   OCC          E(Eh)            E(eV)
   0   2.0000     -88.963527     -2420.8207
   1   2.0000     -88.963228     -2420.8125
   2   2.0000     -10.326921      -281.0098
   3   2.0000     -10.312566      -280.6192
   4   2.0000     -10.311209      -280.5823
   5   2.0000     -10.308138      -280.4987
   6   2.0000     -10.306442      -280.4526
   7   2.0000     -10.294586      -280.1299
   8   2.0000     -10.294018      -280.1145
   9   2.0000     -10.293499      -280.1003
  10   2.0000     -10.292950      -280.0854
  11   2.0000     -10.287090      -279.9259
  12   2.0000     -10.281681      -279.7788
  13   2.0000     -10.280812      -279.7551
  14   2.0000     -10.280381      -279.7434
  15   2.0000     -10.279282      -279.7135
  16   2.0000      -8.080091      -219.8705
  17   2.0000      -8.077210      -219.7921
  18   2.0000      -6.038361      -164.3122
  19   2.0000      -6.035783      -164.2420
  20   2.0000      -6.034385      -164.2040
  21   2.0000      -6.032085      -164.1414
  22   2.0000      -6.030874      -164.1084
  23   2.0000      -6.027773      -164.0240
  24   2.0000      -1.019551       -27.7434
  25   2.0000      -0.977273       -26.5929
  26   2.0000      -0.915775       -24.9195
  27   2.0000      -0.901868       -24.5411
  28   2.0000      -0.868588       -23.6355
  29   2.0000      -0.852060       -23.1857
  30   2.0000      -0.841655       -22.9026
  31   2.0000      -0.815216       -22.1831
  32   2.0000      -0.786261       -21.3953
  33   2.0000      -0.771840       -21.0028
  34   2.0000      -0.714304       -19.4372
  35   2.0000      -0.708799       -19.2874
  36   2.0000      -0.689972       -18.7751
  37   2.0000      -0.645001       -17.5514
  38   2.0000      -0.643164       -17.5014
  39   2.0000      -0.618557       -16.8318
  40   2.0000      -0.598144       -16.2763
  41   2.0000      -0.573914       -15.6170
  42   2.0000      -0.563135       -15.3237
  43   2.0000      -0.546470       -14.8702
  44   2.0000      -0.534042       -14.5320
  45   2.0000      -0.526983       -14.3399
  46   2.0000      -0.519004       -14.1228
  47   2.0000      -0.512173       -13.9369
  48   2.0000      -0.499594       -13.5946
  49   2.0000      -0.490549       -13.3485
  50   2.0000      -0.486732       -13.2447
  51   2.0000      -0.476591       -12.9687
  52   2.0000      -0.468873       -12.7587
  53   2.0000      -0.467050       -12.7091
  54   2.0000      -0.461950       -12.5703
  55   2.0000      -0.452839       -12.3224
  56   2.0000      -0.445673       -12.1274
  57   2.0000      -0.439558       -11.9610
  58   2.0000      -0.434454       -11.8221
  59   2.0000      -0.432490       -11.7686
  60   2.0000      -0.426113       -11.5951
  61   2.0000      -0.418564       -11.3897
  62   2.0000      -0.415708       -11.3120
  63   2.0000      -0.339063        -9.2264
  64   2.0000      -0.328016        -8.9258
  65   2.0000      -0.324542        -8.8312
  66   2.0000      -0.293498        -7.9865
  67   0.0000       0.039345         1.0706
  68   0.0000       0.064641         1.7590
  69   0.0000       0.109042         2.9672
  70   0.0000       0.124803         3.3961
  71   0.0000       0.137155         3.7322

MULLIKEN ATOMIC CHARGES
-----------------------
   0 S :    0.122288
   1 C :   -0.128770
   2 C :   -0.106902
   3 C :   -0.000271
   4 C :   -0.162931
   5 H :    0.024820
   6 C :    0.145419
   7 H :   -0.016910
   8 H :    0.031402
   9 C :   -0.124551
  10 H :    0.045699
  11 H :    0.045581
  12 C :   -0.018165
  13 H :    0.037441
  14 H :    0.038111
  15 H :    0.022630
  16 S :    0.101918
  17 C :   -0.081718
  18 C :   -0.052080
  19 C :   -0.058305
  20 C :   -0.170734
  21 H :    0.029935
  22 C :    0.123367
  23 H :   -0.015473
  24 H :    0.032023
  25 C :   -0.054425
  26 H :    0.013137
  27 H :    0.034524
  28 C :   -0.035846
  29 H :    0.033093
  30 H :    0.014601
  31 H :    0.044365
  32 H :    0.039437
  33 H :    0.047289
Sum of atomic charges:    0.0000000

LOEWDIN ATOMIC CHARGES
----------------------
   0 S :    0.452838
   1 C :   -0.204829
   2 C :   -0.061846
   3 C :   -0.071018
   4 C :   -0.237568
   5 H :    0.035737
   6 C :   -0.023346
   7 H :    0.016893
   8 H :    0.030310
   9 C :   -0.036510
  10 H :    0.031036
  11 H :    0.024409
  12 C :   -0.060955
  13 H :    0.030818
  14 H :    0.031222
  15 H :    0.017278
  16 S :    0.375407
  17 C :   -0.176960
  18 C :   -0.077809
  19 C :   -0.047722
  20 C :   -0.189079
  21 H :    0.035056
  22 C :   -0.036622
  23 H :    0.021899
  24 H :    0.045109
  25 C :   -0.032914
  26 H :    0.017975
  27 H :    0.030563
  28 C :   -0.061753
  29 H :    0.025174
  30 H :    0.012895
  31 H :    0.033917
  32 H :    0.027471
  33 H :    0.022926

  Mayer bond orders larger than 0.100000
B(  0-S ,  1-C ) :   1.1516 B(  0-S ,  4-C ) :   1.1739 B(  1-C ,  2-C ) :   1.6062
B(  1-C , 32-H ) :   0.9686 B(  2-C ,  3-C ) :   1.2505 B(  2-C ,  6-C ) :   1.0058
B(  3-C ,  4-C ) :   1.5721 B(  3-C ,  5-H ) :   0.9887 B(  4-C , 20-C ) :   1.0060
B(  6-C ,  7-H ) :   0.9287 B(  6-C ,  8-H ) :   0.9233 B(  6-C ,  9-C ) :   1.0607
B(  9-C , 10-H ) :   0.9626 B(  9-C , 11-H ) :   0.9503 B(  9-C , 12-C ) :   1.0790
B( 12-C , 13-H ) :   0.9724 B( 12-C , 14-H ) :   0.9755 B( 12-C , 15-H ) :   0.9732
B( 16-S , 17-C ) :   1.1408 B( 16-S , 20-C ) :   1.1417 B( 17-C , 18-C ) :   1.6389
B( 17-C , 33-H ) :   0.9647 B( 18-C , 19-C ) :   1.2296 B( 18-C , 21-H ) :   0.9792
B( 19-C , 20-C ) :   1.5929 B( 19-C , 22-C ) :   1.0454 B( 22-C , 23-H ) :   0.9178
B( 22-C , 24-H ) :   0.9180 B( 22-C , 25-C ) :   1.0525 B( 25-C , 26-H ) :   0.9528
B( 25-C , 27-H ) :   0.9581 B( 25-C , 28-C ) :   1.0712 B( 28-C , 29-H ) :   0.9774
B( 28-C , 30-H ) :   0.9756 B( 28-C , 31-H ) :   0.9794

Dispersion correction           -0.013926823
FINAL SINGLE POINT ENERGY     -1339.852580104120

DIPOLE MOMENT
-------------
                                X             Y             Z
Electronic contribution:     15.48517      -9.27351     -20.66383
Nuclear contribution   :    -15.89816       9.51551      21.26433
                        -----------------------------------------
Total Dipole Moment    :     -0.41300       0.24199       0.60049
                        -----------------------------------------
Magnitude (a.u.)       :      0.76793
Magnitude (Debye)      :      1.95193

Rotational constants in cm-1:     0.016778     0.008684     0.006941
Rotational constants in MHz :   502.982720   260.350179   208.090123

                             ****ORCA TERMINATED NORMALLY****
TOTAL RUN TIME: 0 days 0 hours 0 minutes 35 seconds 178 msec
