                         Program Version 4.2.1 -  RELEASE  -
|  1> ! wB97X-D3 SP def2-SVP
|  2> %pal
|  3> nprocs 16
|  4> end
|  5>
|  6> * xyz 0 1
|  7> S 	 -6.10029 	 38.1163 	 34.0942
|  8> C 	 -7.68462 	 38.7076 	 33.6923
|  9> C 	 -7.62435 	 40.1289 	 33.5506
| 10> C 	 -6.31558 	 40.6266 	 33.7697
| 11> C 	 -5.39735 	 39.7349 	 34.157
| 12> H 	 -6.12394 	 41.7098 	 33.8528
| 13> C 	 -8.88769 	 40.9479 	 33.2335
| 14> H 	 -9.10708 	 41.4133 	 34.1642
| 15> H 	 -9.82767 	 40.3637 	 33.1208
| 16> C 	 -8.83601 	 41.9183 	 31.9798
| 17> H 	 -7.83831 	 42.2825 	 31.7604
| 18> H 	 -9.31355 	 41.4522 	 31.1193
| 19> C 	 -9.56981 	 43.2978 	 32.2097
| 20> H 	 -8.92161 	 44.0589 	 32.6438
| 21> H 	 -10.0274 	 43.6823 	 31.258
| 22> H 	 -10.2184 	 43.1174 	 32.9597
| 23> S 	 -3.34364 	 39.1152 	 35.79
| 24> C 	 -1.80416 	 39.9424 	 35.6842
| 25> C 	 -1.84958 	 40.9591 	 34.7483
| 26> C 	 -3.16305 	 41.0983 	 34.1651
| 27> C 	 -4.01682 	 40.0111 	 34.4668
| 28> H 	 -1.01002 	 41.6781 	 34.7213
| 29> C 	 -3.41069 	 42.1186 	 33.1438
| 30> H 	 -4.03395 	 41.7574 	 32.3049
| 31> H 	 -2.39501 	 42.2935 	 32.6974
| 32> C 	 -3.82202 	 43.5117 	 33.6262
| 33> H 	 -3.29305 	 43.7218 	 34.5399
| 34> H 	 -4.84562 	 43.4621 	 34.0003
| 35> C 	 -3.66607 	 44.663 	 32.5324
| 36> H 	 -2.67232 	 44.958 	 32.4504
| 37> H 	 -4.3269 	 45.5048 	 32.8317
| 38> H 	 -4.05524 	 44.3868 	 31.4985
| 39> H 	 -8.49436 	 38.0871 	 33.7469
| 40> H 	 -0.905012 	 39.8702 	 36.3308
| 41> *
| 42>
| 43>                          ****END OF INPUT****

CARTESIAN COORDINATES (ANGSTROEM)
---------------------------------
  S     -6.100290   38.116300   34.094200
  C     -7.684620   38.707600   33.692300
  C     -7.624350   40.128900   33.550600
  C     -6.315580   40.626600   33.769700
  C     -5.397350   39.734900   34.157000
  H     -6.123940   41.709800   33.852800
  C     -8.887690   40.947900   33.233500
  H     -9.107080   41.413300   34.164200
  H     -9.827670   40.363700   33.120800
  C     -8.836010   41.918300   31.979800
  H     -7.838310   42.282500   31.760400
  H     -9.313550   41.452200   31.119300
  C     -9.569810   43.297800   32.209700
  H     -8.921610   44.058900   32.643800
  H    -10.027400   43.682300   31.258000
  H    -10.218400   43.117400   32.959700
  S     -3.343640   39.115200   35.790000
  C     -1.804160   39.942400   35.684200
  C     -1.849580   40.959100   34.748300
  C     -3.163050   41.098300   34.165100
  C     -4.016820   40.011100   34.466800
  H     -1.010020   41.678100   34.721300
  C     -3.410690   42.118600   33.143800
  H     -4.033950   41.757400   32.304900
  H     -2.395010   42.293500   32.697400
  C     -3.822020   43.511700   33.626200
  H     -3.293050   43.721800   34.539900
  H     -4.845620   43.462100   34.000300
  C     -3.666070   44.663000   32.532400
  H     -2.672320   44.958000   32.450400
  H     -4.326900   45.504800   32.831700
  H     -4.055240   44.386800   31.498500
  H     -8.494360   38.087100   33.746900
  H     -0.905012   39.870200   36.330800

 Total Charge           Charge          ....    0
 Multiplicity           Mult            ....    1
 Number of Electrons    NEL             ....  134
 Basis Dimension        Dim             ....  322

ORBITAL ENERGIES
----------------

  NO   OCC          E(Eh)            E(eV)
   0   2.0000     -88.967064     -2420.9169
   1   2.0000     -88.964263     -2420.8407
   2   2.0000     -10.328663      -281.0572
   3   2.0000     -10.327753      -281.0325
   4   2.0000     -10.320378      -280.8318
   5   2.0000     -10.312239      -280.6103
   6   2.0000     -10.309088      -280.5246
   7   2.0000     -10.306155      -280.4447
   8   2.0000     -10.298570      -280.2383
   9   2.0000     -10.297906      -280.2203
  10   2.0000     -10.291537      -280.0470
  11   2.0000     -10.291402      -280.0433
  12   2.0000     -10.291167      -280.0369
  13   2.0000     -10.289921      -280.0030
  14   2.0000     -10.288099      -279.9534
  15   2.0000     -10.274196      -279.5751
  16   2.0000      -8.081912      -219.9200
  17   2.0000      -8.079043      -219.8420
  18   2.0000      -6.040471      -164.3696
  19   2.0000      -6.037551      -164.2901
  20   2.0000      -6.036345      -164.2573
  21   2.0000      -6.033461      -164.1788
  22   2.0000      -6.032649      -164.1567
  23   2.0000      -6.029884      -164.0815
  24   2.0000      -1.010367       -27.4935
  25   2.0000      -0.985102       -26.8060
  26   2.0000      -0.910279       -24.7699
  27   2.0000      -0.902058       -24.5462
  28   2.0000      -0.873740       -23.7757
  29   2.0000      -0.851502       -23.1705
  30   2.0000      -0.844612       -22.9831
  31   2.0000      -0.820279       -22.3209
  32   2.0000      -0.780705       -21.2441
  33   2.0000      -0.768224       -20.9044
  34   2.0000      -0.713238       -19.4082
  35   2.0000      -0.703212       -19.1354
  36   2.0000      -0.695710       -18.9312
  37   2.0000      -0.663418       -18.0525
  38   2.0000      -0.645780       -17.5726
  39   2.0000      -0.626345       -17.0437
  40   2.0000      -0.594648       -16.1812
  41   2.0000      -0.567944       -15.4545
  42   2.0000      -0.559932       -15.2365
  43   2.0000      -0.552121       -15.0240
  44   2.0000      -0.532748       -14.4968
  45   2.0000      -0.524367       -14.2688
  46   2.0000      -0.517726       -14.0881
  47   2.0000      -0.510601       -13.8941
  48   2.0000      -0.508259       -13.8304
  49   2.0000      -0.500767       -13.6266
  50   2.0000      -0.493414       -13.4265
  51   2.0000      -0.489411       -13.3176
  52   2.0000      -0.471206       -12.8222
  53   2.0000      -0.465680       -12.6718
  54   2.0000      -0.463207       -12.6045
  55   2.0000      -0.450209       -12.2508
  56   2.0000      -0.443286       -12.0624
  57   2.0000      -0.439891       -11.9700
  58   2.0000      -0.432392       -11.7660
  59   2.0000      -0.425299       -11.5730
  60   2.0000      -0.420212       -11.4346
  61   2.0000      -0.412548       -11.2260
  62   2.0000      -0.405659       -11.0385
  63   2.0000      -0.359376        -9.7791
  64   2.0000      -0.331776        -9.0281
  65   2.0000      -0.326786        -8.8923
  66   2.0000      -0.285343        -7.7646
  67   0.0000       0.021366         0.5814
  68   0.0000       0.078376         2.1327
  69   0.0000       0.108690         2.9576
  70   0.0000       0.118524         3.2252
  71   0.0000       0.122642         3.3373

MULLIKEN ATOMIC CHARGES
-----------------------
   0 S :    0.100714
   1 C :   -0.092006
   2 C :   -0.081088
   3 C :   -0.015909
   4 C :   -0.095877
   5 H :    0.007572
   6 C :    0.056010
   7 H :    0.029856
   8 H :    0.025228
   9 C :   -0.083312
  10 H :    0.036607
  11 H :    0.044354
  12 C :   -0.051059
  13 H :    0.027704
  14 H :    0.048886
  15 H :    0.002661
  16 S :    0.103241
  17 C :   -0.091958
  18 C :   -0.044340
  19 C :   -0.047631
  20 C :   -0.110779
  21 H :    0.034631
  22 C :   -0.004196
  23 H :    0.042435
  24 H :    0.023535
  25 C :   -0.053660
  26 H :    0.018860
  27 H :    0.017392
  28 C :   -0.054297
  29 H :    0.034595
  30 H :    0.040532
  31 H :    0.041138
  32 H :    0.022521
  33 H :    0.067640
Sum of atomic charges:   -0.0000000

LOEWDIN ATOMIC CHARGES
----------------------
   0 S :    0.401351
   1 C :   -0.185651
   2 C :   -0.052704
   3 C :   -0.074415
   4 C :   -0.189643
   5 H :    0.035642
   6 C :   -0.037436
   7 H :    0.027763
   8 H :    0.036938
   9 C :   -0.035349
  10 H :    0.022703
  11 H :    0.027333
  12 C :   -0.061122
  13 H :    0.024810
  14 H :    0.034156
  15 H :    0.004323
  16 S :    0.417688
  17 C :   -0.194065
  18 C :   -0.076476
  19 C :   -0.057470
  20 C :   -0.197559
  21 H :    0.038318
  22 C :   -0.047653
  23 H :    0.033922
  24 H :    0.036315
  25 C :   -0.038161
  26 H :    0.022569
  27 H :    0.015838
  28 C :   -0.063004
  29 H :    0.015494
  30 H :    0.032562
  31 H :    0.033596
  32 H :    0.008259
  33 H :    0.041130

  Mayer bond orders larger than 0.100000
B(  0-S ,  1-C ) :   1.1498 B(  0-S ,  4-C ) :   1.1394 B(  1-C ,  2-C ) :   1.5669
B(  1-C ,  4-C ) :   0.1029 B(  1-C , 32-H ) :   0.9858 B(  2-C ,  3-C ) :   1.2691
B(  2-C ,  6-C ) :   1.0163 B(  3-C ,  4-C ) :   1.5847 B(  3-C ,  5-H ) :   0.9831
B(  4-C , 20-C ) :   1.0572 B(  6-C ,  7-H ) :   0.9466 B(  6-C ,  8-H ) :   0.9451
B(  6-C ,  9-C ) :   1.0376 B(  9-C , 10-H ) :   0.9738 B(  9-C , 11-H ) :   0.9674
B(  9-C , 12-C ) :   1.0556 B( 12-C , 13-H ) :   0.9800 B( 12-C , 14-H ) :   0.9771
B( 12-C , 15-H ) :   0.9804 B( 16-S , 17-C ) :   1.1564 B( 16-S , 20-C ) :   1.1414
B( 17-C , 18-C ) :   1.6169 B( 17-C , 33-H ) :   0.9598 B( 18-C , 19-C ) :   1.2550
B( 18-C , 21-H ) :   0.9777 B( 19-C , 20-C ) :   1.5547 B( 19-C , 22-C ) :   1.0536
B( 22-C , 23-H ) :   0.9403 B( 22-C , 24-H ) :   0.9387 B( 22-C , 25-C ) :   1.0514
B( 25-C , 26-H ) :   0.9506 B( 25-C , 27-H ) :   0.9497 B( 25-C , 28-C ) :   1.0649
B( 28-C , 29-H ) :   0.9793 B( 28-C , 30-H ) :   0.9768 B( 28-C , 31-H ) :   0.9772

Dispersion correction           -0.013925190
FINAL SINGLE POINT ENERGY     -1339.852788711412

DIPOLE MOMENT
-------------
                                X             Y             Z
Electronic contribution:     11.32578     -29.13640      13.92006
Nuclear contribution   :    -11.48621      29.90995     -13.97145
                        -----------------------------------------
Total Dipole Moment    :     -0.16043       0.77354      -0.05139
                        -----------------------------------------
Magnitude (a.u.)       :      0.79167
Magnitude (Debye)      :      2.01228

Rotational constants in cm-1:     0.016158     0.009898     0.006395
Rotational constants in MHz :   484.398410   296.724338   191.704326

                             ****ORCA TERMINATED NORMALLY****
TOTAL RUN TIME: 0 days 0 hours 0 minutes 31 seconds 977 msec
