                         Program Version 4.2.1 -  RELEASE  -
|  1> ! wB97X-D3 SP def2-SVP
|  2> %pal
|  3> nprocs 16
|  4> end
|  5>
|  6> * xyz 0 1
|  7> S 	 -37.6693 	 36.3806 	 82.0132
|  8> C 	 -37.855 	 38.061 	 81.562
|  9> C 	 -38.9394 	 38.5996 	 82.1197
| 10> C 	 -39.6576 	 37.6651 	 82.8655
| 11> C 	 -39.1748 	 36.3839 	 82.8034
| 12> H 	 -40.6189 	 37.8081 	 83.277
| 13> C 	 -39.3788 	 40.018 	 81.8607
| 14> H 	 -38.4822 	 40.5998 	 82.2184
| 15> H 	 -40.2842 	 40.2822 	 82.4877
| 16> C 	 -39.4697 	 40.475 	 80.4243
| 17> H 	 -39.78 	 41.4919 	 80.3519
| 18> H 	 -38.4648 	 40.4108 	 79.9927
| 19> C 	 -40.4512 	 39.6828 	 79.5675
| 20> H 	 -41.4824 	 39.9386 	 79.815
| 21> H 	 -40.366 	 40.0155 	 78.5746
| 22> H 	 -40.3546 	 38.5677 	 79.6507
| 23> S 	 -38.4338 	 34.1684 	 84.1225
| 24> C 	 -39.5594 	 32.9114 	 84.5892
| 25> C 	 -40.8581 	 33.168 	 84.135
| 26> C 	 -40.8682 	 34.4284 	 83.421
| 27> C 	 -39.6857 	 35.1172 	 83.4357
| 28> H 	 -41.6218 	 32.433 	 84.2927
| 29> C 	 -42.2146 	 34.7995 	 82.8792
| 30> H 	 -42.6459 	 35.3289 	 83.712
| 31> H 	 -42.792 	 33.8719 	 82.8587
| 32> C 	 -42.3335 	 35.5004 	 81.5101
| 33> H 	 -41.8972 	 36.4962 	 81.4338
| 34> H 	 -43.4299 	 35.6338 	 81.3282
| 35> C 	 -41.9652 	 34.644 	 80.3231
| 36> H 	 -41.0249 	 34.2195 	 80.6875
| 37> H 	 -41.7125 	 35.2016 	 79.3259
| 38> H 	 -42.6732 	 33.8169 	 80.2303
| 39> H 	 -37.0779 	 38.7118 	 81.0044
| 40> H 	 -39.3344 	 31.9806 	 84.9853
| 41> *
| 42>
| 43>                          ****END OF INPUT****

CARTESIAN COORDINATES (ANGSTROEM)
---------------------------------
  S    -37.669300   36.380600   82.013200
  C    -37.855000   38.061000   81.562000
  C    -38.939400   38.599600   82.119700
  C    -39.657600   37.665100   82.865500
  C    -39.174800   36.383900   82.803400
  H    -40.618900   37.808100   83.277000
  C    -39.378800   40.018000   81.860700
  H    -38.482200   40.599800   82.218400
  H    -40.284200   40.282200   82.487700
  C    -39.469700   40.475000   80.424300
  H    -39.780000   41.491900   80.351900
  H    -38.464800   40.410800   79.992700
  C    -40.451200   39.682800   79.567500
  H    -41.482400   39.938600   79.815000
  H    -40.366000   40.015500   78.574600
  H    -40.354600   38.567700   79.650700
  S    -38.433800   34.168400   84.122500
  C    -39.559400   32.911400   84.589200
  C    -40.858100   33.168000   84.135000
  C    -40.868200   34.428400   83.421000
  C    -39.685700   35.117200   83.435700
  H    -41.621800   32.433000   84.292700
  C    -42.214600   34.799500   82.879200
  H    -42.645900   35.328900   83.712000
  H    -42.792000   33.871900   82.858700
  C    -42.333500   35.500400   81.510100
  H    -41.897200   36.496200   81.433800
  H    -43.429900   35.633800   81.328200
  C    -41.965200   34.644000   80.323100
  H    -41.024900   34.219500   80.687500
  H    -41.712500   35.201600   79.325900
  H    -42.673200   33.816900   80.230300
  H    -37.077900   38.711800   81.004400
  H    -39.334400   31.980600   84.985300

 Total Charge           Charge          ....    0
 Multiplicity           Mult            ....    1
 Number of Electrons    NEL             ....  134
 Basis Dimension        Dim             ....  322

ORBITAL ENERGIES
----------------

  NO   OCC          E(Eh)            E(eV)
   0   2.0000     -88.965629     -2420.8779
   1   2.0000     -88.965437     -2420.8726
   2   2.0000     -10.328844      -281.0621
   3   2.0000     -10.326526      -280.9990
   4   2.0000     -10.314211      -280.6640
   5   2.0000     -10.311782      -280.5979
   6   2.0000     -10.303756      -280.3795
   7   2.0000     -10.296909      -280.1931
   8   2.0000     -10.296231      -280.1747
   9   2.0000     -10.292135      -280.0632
  10   2.0000     -10.290498      -280.0187
  11   2.0000     -10.285182      -279.8740
  12   2.0000     -10.284450      -279.8541
  13   2.0000     -10.283785      -279.8360
  14   2.0000     -10.277897      -279.6758
  15   2.0000     -10.272040      -279.5164
  16   2.0000      -8.081367      -219.9052
  17   2.0000      -8.080911      -219.8928
  18   2.0000      -6.039805      -164.3514
  19   2.0000      -6.039482      -164.3427
  20   2.0000      -6.035724      -164.2404
  21   2.0000      -6.035259      -164.2277
  22   2.0000      -6.032126      -164.1425
  23   2.0000      -6.031594      -164.1280
  24   2.0000      -1.018106       -27.7041
  25   2.0000      -0.993604       -27.0373
  26   2.0000      -0.919050       -25.0086
  27   2.0000      -0.910594       -24.7785
  28   2.0000      -0.871815       -23.7233
  29   2.0000      -0.851247       -23.1636
  30   2.0000      -0.848714       -23.0947
  31   2.0000      -0.819679       -22.3046
  32   2.0000      -0.784456       -21.3461
  33   2.0000      -0.773759       -21.0550
  34   2.0000      -0.704723       -19.1765
  35   2.0000      -0.702734       -19.1224
  36   2.0000      -0.685845       -18.6628
  37   2.0000      -0.669857       -18.2277
  38   2.0000      -0.636153       -17.3106
  39   2.0000      -0.615629       -16.7521
  40   2.0000      -0.587857       -15.9964
  41   2.0000      -0.579806       -15.7773
  42   2.0000      -0.556644       -15.1470
  43   2.0000      -0.554802       -15.0969
  44   2.0000      -0.546922       -14.8825
  45   2.0000      -0.545084       -14.8325
  46   2.0000      -0.516529       -14.0555
  47   2.0000      -0.509964       -13.8768
  48   2.0000      -0.504364       -13.7244
  49   2.0000      -0.499011       -13.5788
  50   2.0000      -0.489278       -13.3139
  51   2.0000      -0.478940       -13.0326
  52   2.0000      -0.473500       -12.8846
  53   2.0000      -0.465377       -12.6635
  54   2.0000      -0.458210       -12.4685
  55   2.0000      -0.446537       -12.1509
  56   2.0000      -0.445829       -12.1316
  57   2.0000      -0.440873       -11.9968
  58   2.0000      -0.432184       -11.7603
  59   2.0000      -0.424470       -11.5504
  60   2.0000      -0.423170       -11.5150
  61   2.0000      -0.414629       -11.2826
  62   2.0000      -0.395068       -10.7503
  63   2.0000      -0.348338        -9.4788
  64   2.0000      -0.333035        -9.0624
  65   2.0000      -0.328385        -8.9358
  66   2.0000      -0.295730        -8.0472
  67   0.0000       0.033187         0.9031
  68   0.0000       0.071987         1.9589
  69   0.0000       0.105081         2.8594
  70   0.0000       0.124046         3.3755
  71   0.0000       0.127776         3.4770

MULLIKEN ATOMIC CHARGES
-----------------------
   0 S :    0.113168
   1 C :   -0.170896
   2 C :   -0.070706
   3 C :    0.044597
   4 C :   -0.146902
   5 H :   -0.010685
   6 C :    0.050221
   7 H :    0.040874
   8 H :    0.034705
   9 C :   -0.056070
  10 H :    0.025683
  11 H :    0.019967
  12 C :   -0.046366
  13 H :    0.017379
  14 H :    0.019469
  15 H :    0.055315
  16 S :    0.096702
  17 C :   -0.053158
  18 C :   -0.050587
  19 C :   -0.069578
  20 C :   -0.126197
  21 H :    0.022930
  22 C :    0.062192
  23 H :    0.042283
  24 H :    0.011015
  25 C :   -0.062581
  26 H :    0.038097
  27 H :    0.023608
  28 C :   -0.070284
  29 H :    0.026335
  30 H :    0.059406
  31 H :    0.029337
  32 H :    0.072809
  33 H :    0.027916
Sum of atomic charges:   -0.0000000

LOEWDIN ATOMIC CHARGES
----------------------
   0 S :    0.424613
   1 C :   -0.213045
   2 C :   -0.075510
   3 C :   -0.067500
   4 C :   -0.199992
   5 H :    0.022615
   6 C :   -0.036973
   7 H :    0.044132
   8 H :    0.034285
   9 C :   -0.039685
  10 H :    0.025463
  11 H :    0.021930
  12 C :   -0.067072
  13 H :    0.022676
  14 H :    0.019171
  15 H :    0.031758
  16 S :    0.419690
  17 C :   -0.170930
  18 C :   -0.065534
  19 C :   -0.060737
  20 C :   -0.211816
  21 H :    0.032008
  22 C :   -0.033738
  23 H :    0.038522
  24 H :    0.032230
  25 C :   -0.051184
  26 H :    0.023340
  27 H :    0.027247
  28 C :   -0.075226
  29 H :    0.023684
  30 H :    0.042144
  31 H :    0.022559
  32 H :    0.046484
  33 H :    0.014391

  Mayer bond orders larger than 0.100000
B(  0-S ,  1-C ) :   1.1315 B(  0-S ,  4-C ) :   1.1747 B(  1-C ,  2-C ) :   1.6173
B(  1-C , 32-H ) :   0.9553 B(  2-C ,  3-C ) :   1.2577 B(  2-C ,  6-C ) :   1.0076
B(  3-C ,  4-C ) :   1.5710 B(  3-C ,  5-H ) :   1.0037 B(  4-C , 20-C ) :   0.9973
B(  6-C ,  7-H ) :   0.9284 B(  6-C ,  8-H ) :   0.9483 B(  6-C ,  9-C ) :   1.0898
B(  9-C , 10-H ) :   0.9503 B(  9-C , 11-H ) :   0.9488 B(  9-C , 12-C ) :   1.0837
B( 12-C , 13-H ) :   0.9733 B( 12-C , 14-H ) :   0.9713 B( 12-C , 15-H ) :   0.9736
B( 16-S , 17-C ) :   1.1627 B( 16-S , 20-C ) :   1.1298 B( 17-C , 18-C ) :   1.6191
B( 17-C , 33-H ) :   0.9721 B( 18-C , 19-C ) :   1.2271 B( 18-C , 21-H ) :   0.9929
B( 19-C , 20-C ) :   1.6183 B( 19-C , 22-C ) :   1.0263 B( 22-C , 23-H ) :   0.9313
B( 22-C , 24-H ) :   0.9322 B( 22-C , 25-C ) :   1.0720 B( 25-C , 26-H ) :   0.9530
B( 25-C , 27-H ) :   0.9527 B( 25-C , 28-C ) :   1.0642 B( 28-C , 29-H ) :   0.9800
B( 28-C , 30-H ) :   0.9714 B( 28-C , 31-H ) :   0.9728

Dispersion correction           -0.015441547
FINAL SINGLE POINT ENERGY     -1339.861862898645

DIPOLE MOMENT
-------------
                                X             Y             Z
Electronic contribution:     18.27594     -13.28300      15.84595
Nuclear contribution   :    -18.78603      13.52304     -15.99258
                        -----------------------------------------
Total Dipole Moment    :     -0.51009       0.24004      -0.14663
                        -----------------------------------------
Magnitude (a.u.)       :      0.58251
Magnitude (Debye)      :      1.48062

Rotational constants in cm-1:     0.022029     0.009378     0.007394
Rotational constants in MHz :   660.402497   281.158435   221.652357

                             ****ORCA TERMINATED NORMALLY****
TOTAL RUN TIME: 0 days 0 hours 0 minutes 32 seconds 304 msec
