                         Program Version 4.2.1 -  RELEASE  -
|  1> ! wB97X-D3 SP def2-SVP
|  2> %pal
|  3> nprocs 16
|  4> end
|  5>
|  6> * xyz 0 1
|  7> S 	 42.8333 	 12.8131 	 87.7169
|  8> C 	 44.5599 	 13.1681 	 87.4881
|  9> C 	 45.2287 	 12.0955 	 86.9142
| 10> C 	 44.3798 	 10.9059 	 86.9178
| 11> C 	 43.1573 	 11.0579 	 87.4401
| 12> H 	 44.6634 	 9.89162 	 86.6006
| 13> C 	 46.6598 	 12.2465 	 86.4994
| 14> H 	 47.2548 	 11.3478 	 86.8432
| 15> H 	 46.9459 	 13.1709 	 87.0363
| 16> C 	 46.8601 	 12.4146 	 84.9508
| 17> H 	 47.9365 	 12.4138 	 84.9306
| 18> H 	 46.5723 	 11.6007 	 84.2777
| 19> C 	 46.3797 	 13.6945 	 84.2767
| 20> H 	 45.425 	 13.4329 	 83.7401
| 21> H 	 46.3672 	 14.6145 	 84.864
| 22> H 	 47.0738 	 13.8427 	 83.4348
| 23> S 	 40.4851 	 10.446 	 87.1904
| 24> C 	 39.945 	 8.88393 	 87.5603
| 25> C 	 40.9313 	 8.16042 	 88.2066
| 26> C 	 42.1999 	 8.74975 	 88.0941
| 27> C 	 42.1715 	 10.0199 	 87.6012
| 28> H 	 40.7205 	 7.22445 	 88.7783
| 29> C 	 43.3596 	 8.11813 	 88.8209
| 30> H 	 43.8726 	 8.94805 	 89.3248
| 31> H 	 43.965 	 7.83991 	 88.0503
| 32> C 	 43.1705 	 6.76133 	 89.6107
| 33> H 	 42.589 	 6.14014 	 88.8946
| 34> H 	 42.5794 	 7.06894 	 90.4441
| 35> C 	 44.419 	 6.03888 	 89.9264
| 36> H 	 45.0943 	 5.88309 	 89.16
| 37> H 	 44.1474 	 5.02018 	 90.3273
| 38> H 	 44.836 	 6.63154 	 90.7721
| 39> H 	 45.0905 	 14.1447 	 87.6097
| 40> H 	 38.9365 	 8.48904 	 87.5268
| 41> *
| 42>
| 43>                          ****END OF INPUT****

CARTESIAN COORDINATES (ANGSTROEM)
---------------------------------
  S     42.833300   12.813100   87.716900
  C     44.559900   13.168100   87.488100
  C     45.228700   12.095500   86.914200
  C     44.379800   10.905900   86.917800
  C     43.157300   11.057900   87.440100
  H     44.663400    9.891620   86.600600
  C     46.659800   12.246500   86.499400
  H     47.254800   11.347800   86.843200
  H     46.945900   13.170900   87.036300
  C     46.860100   12.414600   84.950800
  H     47.936500   12.413800   84.930600
  H     46.572300   11.600700   84.277700
  C     46.379700   13.694500   84.276700
  H     45.425000   13.432900   83.740100
  H     46.367200   14.614500   84.864000
  H     47.073800   13.842700   83.434800
  S     40.485100   10.446000   87.190400
  C     39.945000    8.883930   87.560300
  C     40.931300    8.160420   88.206600
  C     42.199900    8.749750   88.094100
  C     42.171500   10.019900   87.601200
  H     40.720500    7.224450   88.778300
  C     43.359600    8.118130   88.820900
  H     43.872600    8.948050   89.324800
  H     43.965000    7.839910   88.050300
  C     43.170500    6.761330   89.610700
  H     42.589000    6.140140   88.894600
  H     42.579400    7.068940   90.444100
  C     44.419000    6.038880   89.926400
  H     45.094300    5.883090   89.160000
  H     44.147400    5.020180   90.327300
  H     44.836000    6.631540   90.772100
  H     45.090500   14.144700   87.609700
  H     38.936500    8.489040   87.526800

 Total Charge           Charge          ....    0
 Multiplicity           Mult            ....    1
 Number of Electrons    NEL             ....  134
 Basis Dimension        Dim             ....  322

ORBITAL ENERGIES
----------------

  NO   OCC          E(Eh)            E(eV)
   0   2.0000     -88.963899     -2420.8308
   1   2.0000     -88.962286     -2420.7869
   2   2.0000     -10.328105      -281.0420
   3   2.0000     -10.323222      -280.9092
   4   2.0000     -10.316750      -280.7330
   5   2.0000     -10.312042      -280.6049
   6   2.0000     -10.302353      -280.3413
   7   2.0000     -10.300823      -280.2996
   8   2.0000     -10.297448      -280.2078
   9   2.0000     -10.293432      -280.0985
  10   2.0000     -10.289458      -279.9904
  11   2.0000     -10.288909      -279.9755
  12   2.0000     -10.287747      -279.9438
  13   2.0000     -10.281512      -279.7742
  14   2.0000     -10.280780      -279.7543
  15   2.0000     -10.280061      -279.7347
  16   2.0000      -8.079154      -219.8450
  17   2.0000      -8.075918      -219.7569
  18   2.0000      -6.037655      -164.2929
  19   2.0000      -6.034791      -164.2150
  20   2.0000      -6.033631      -164.1834
  21   2.0000      -6.030918      -164.1096
  22   2.0000      -6.029866      -164.0810
  23   2.0000      -6.026009      -163.9760
  24   2.0000      -1.008887       -27.4532
  25   2.0000      -0.981920       -26.7194
  26   2.0000      -0.915657       -24.9163
  27   2.0000      -0.909188       -24.7403
  28   2.0000      -0.872636       -23.7456
  29   2.0000      -0.859863       -23.3981
  30   2.0000      -0.841374       -22.8950
  31   2.0000      -0.816863       -22.2280
  32   2.0000      -0.784839       -21.3566
  33   2.0000      -0.770354       -20.9624
  34   2.0000      -0.710680       -19.3386
  35   2.0000      -0.703640       -19.1470
  36   2.0000      -0.688950       -18.7473
  37   2.0000      -0.651354       -17.7242
  38   2.0000      -0.637273       -17.3411
  39   2.0000      -0.612640       -16.6708
  40   2.0000      -0.595169       -16.1954
  41   2.0000      -0.582169       -15.8416
  42   2.0000      -0.565157       -15.3787
  43   2.0000      -0.548110       -14.9148
  44   2.0000      -0.533823       -14.5261
  45   2.0000      -0.527297       -14.3485
  46   2.0000      -0.523900       -14.2560
  47   2.0000      -0.519526       -14.1370
  48   2.0000      -0.504960       -13.7407
  49   2.0000      -0.502609       -13.6767
  50   2.0000      -0.487580       -13.2677
  51   2.0000      -0.479879       -13.0582
  52   2.0000      -0.471356       -12.8262
  53   2.0000      -0.466044       -12.6817
  54   2.0000      -0.459698       -12.5090
  55   2.0000      -0.452606       -12.3160
  56   2.0000      -0.442852       -12.0506
  57   2.0000      -0.436484       -11.8773
  58   2.0000      -0.433907       -11.8072
  59   2.0000      -0.430012       -11.7012
  60   2.0000      -0.415710       -11.3120
  61   2.0000      -0.407335       -11.0842
  62   2.0000      -0.400742       -10.9047
  63   2.0000      -0.355292        -9.6680
  64   2.0000      -0.329783        -8.9738
  65   2.0000      -0.323490        -8.8026
  66   2.0000      -0.283842        -7.7237
  67   0.0000       0.028175         0.7667
  68   0.0000       0.066699         1.8150
  69   0.0000       0.107617         2.9284
  70   0.0000       0.122554         3.3349
  71   0.0000       0.136689         3.7195

MULLIKEN ATOMIC CHARGES
-----------------------
   0 S :    0.088048
   1 C :   -0.134246
   2 C :   -0.078790
   3 C :    0.001413
   4 C :   -0.110550
   5 H :    0.014901
   6 C :    0.046684
   7 H :    0.042939
   8 H :    0.025494
   9 C :   -0.079902
  10 H :    0.023249
  11 H :    0.035632
  12 C :   -0.059094
  13 H :    0.047683
  14 H :    0.037498
  15 H :    0.028672
  16 S :    0.107724
  17 C :   -0.066393
  18 C :   -0.092104
  19 C :   -0.039111
  20 C :   -0.173516
  21 H :    0.040300
  22 C :    0.079062
  23 H :    0.042878
  24 H :   -0.007740
  25 C :   -0.105428
  26 H :    0.035850
  27 H :    0.039534
  28 C :   -0.007215
  29 H :    0.024391
  30 H :    0.039539
  31 H :    0.037159
  32 H :    0.061946
  33 H :    0.053491
Sum of atomic charges:    0.0000000

LOEWDIN ATOMIC CHARGES
----------------------
   0 S :    0.351287
   1 C :   -0.196827
   2 C :   -0.064992
   3 C :   -0.066040
   4 C :   -0.170612
   5 H :    0.033746
   6 C :   -0.031954
   7 H :    0.038401
   8 H :    0.035447
   9 C :   -0.045952
  10 H :    0.020208
  11 H :    0.029465
  12 C :   -0.073398
  13 H :    0.036140
  14 H :    0.023568
  15 H :    0.030775
  16 S :    0.414918
  17 C :   -0.200970
  18 C :   -0.084759
  19 C :   -0.056866
  20 C :   -0.187866
  21 H :    0.038756
  22 C :   -0.031293
  23 H :    0.035055
  24 H :    0.016964
  25 C :   -0.039398
  26 H :    0.025867
  27 H :    0.022752
  28 C :   -0.058686
  29 H :    0.015153
  30 H :    0.036603
  31 H :    0.034802
  32 H :    0.037212
  33 H :    0.032495

  Mayer bond orders larger than 0.100000
B(  0-S ,  1-C ) :   1.1070 B(  0-S ,  4-C ) :   1.0911 B(  1-C ,  2-C ) :   1.6597
B(  1-C , 32-H ) :   0.9562 B(  2-C ,  3-C ) :   1.1711 B(  2-C ,  6-C ) :   1.0312
B(  3-C ,  4-C ) :   1.6382 B(  3-C ,  5-H ) :   0.9952 B(  4-C , 20-C ) :   1.0786
B(  6-C ,  7-H ) :   0.9414 B(  6-C ,  8-H ) :   0.9404 B(  6-C ,  9-C ) :   1.0600
B(  9-C , 10-H ) :   0.9628 B(  9-C , 11-H ) :   0.9586 B(  9-C , 12-C ) :   1.0699
B( 12-C , 13-H ) :   0.9772 B( 12-C , 14-H ) :   0.9770 B( 12-C , 15-H ) :   0.9727
B( 16-S , 17-C ) :   1.1820 B( 16-S , 20-C ) :   1.1183 B( 17-C , 18-C ) :   1.5786
B( 17-C , 20-C ) :   0.1025 B( 17-C , 33-H ) :   0.9614 B( 18-C , 19-C ) :   1.2824
B( 18-C , 21-H ) :   0.9707 B( 19-C , 20-C ) :   1.6007 B( 19-C , 22-C ) :   1.0173
B( 22-C , 23-H ) :   0.9358 B( 22-C , 24-H ) :   0.9051 B( 22-C , 25-C ) :   1.0692
B( 25-C , 26-H ) :   0.9454 B( 25-C , 27-H ) :   0.9550 B( 25-C , 28-C ) :   1.0902
B( 28-C , 29-H ) :   0.9732 B( 28-C , 30-H ) :   0.9693 B( 28-C , 31-H ) :   0.9725

Dispersion correction           -0.013489216
FINAL SINGLE POINT ENERGY     -1339.845895977340

DIPOLE MOMENT
-------------
                                X             Y             Z
Electronic contribution:    -22.18556      10.46105       1.32754
Nuclear contribution   :     22.80953     -10.98297      -1.31417
                        -----------------------------------------
Total Dipole Moment    :      0.62396      -0.52192       0.01337
                        -----------------------------------------
Magnitude (a.u.)       :      0.81358
Magnitude (Debye)      :      2.06796

Rotational constants in cm-1:     0.019027     0.007824     0.006161
Rotational constants in MHz :   570.428966   234.549914   184.711192

                             ****ORCA TERMINATED NORMALLY****
TOTAL RUN TIME: 0 days 0 hours 0 minutes 27 seconds 503 msec
