                         Program Version 4.2.1 -  RELEASE  -
|  1> ! wB97X-D3 SP def2-SVP
|  2> %pal
|  3> nprocs 16
|  4> end
|  5>
|  6> * xyz 0 1
|  7> S 	 -4.28461 	 -9.53255 	 80.1944
|  8> C 	 -4.2985 	 -9.88267 	 78.5165
|  9> C 	 -5.44637 	 -9.33492 	 77.8977
| 10> C 	 -6.21413 	 -8.60442 	 78.888
| 11> C 	 -5.90674 	 -8.91439 	 80.1996
| 12> H 	 -7.18398 	 -8.1574 	 78.6573
| 13> C 	 -5.85758 	 -9.48435 	 76.4671
| 14> H 	 -4.93852 	 -9.3723 	 75.8428
| 15> H 	 -6.58699 	 -8.6697 	 76.2508
| 16> C 	 -6.56172 	 -10.8351 	 76.1787
| 17> H 	 -6.9193 	 -10.8361 	 75.1848
| 18> H 	 -5.78834 	 -11.6421 	 76.304
| 19> C 	 -7.86382 	 -11.0811 	 76.9693
| 20> H 	 -7.67422 	 -11.1279 	 78.0353
| 21> H 	 -8.60101 	 -10.2435 	 76.8176
| 22> H 	 -8.38926 	 -11.996 	 76.6186
| 23> S 	 -5.9865 	 -7.26602 	 82.452
| 24> C 	 -7.33772 	 -7.42702 	 83.5508
| 25> C 	 -8.12129 	 -8.57509 	 83.3236
| 26> C 	 -7.74493 	 -9.13005 	 82.0739
| 27> C 	 -6.62464 	 -8.5638 	 81.4342
| 28> H 	 -8.97675 	 -8.78251 	 83.9593
| 29> C 	 -8.497 	 -10.273 	 81.453
| 30> H 	 -8.97945 	 -10.8854 	 82.2633
| 31> H 	 -7.78362 	 -10.9963 	 80.9823
| 32> C 	 -9.60451 	 -9.95758 	 80.3309
| 33> H 	 -10.0346 	 -10.9103 	 79.8922
| 34> H 	 -9.03871 	 -9.42994 	 79.6199
| 35> C 	 -10.7504 	 -9.02751 	 80.9156
| 36> H 	 -10.3545 	 -8.1511 	 81.4434
| 37> H 	 -11.4891 	 -9.61342 	 81.4705
| 38> H 	 -11.5013 	 -8.81754 	 80.0896
| 39> H 	 -3.58827 	 -10.5171 	 78.035
| 40> H 	 -7.52063 	 -6.75191 	 84.3763
| 41> *
| 42>
| 43>                          ****END OF INPUT****

CARTESIAN COORDINATES (ANGSTROEM)
---------------------------------
  S     -4.284610   -9.532550   80.194400
  C     -4.298500   -9.882670   78.516500
  C     -5.446370   -9.334920   77.897700
  C     -6.214130   -8.604420   78.888000
  C     -5.906740   -8.914390   80.199600
  H     -7.183980   -8.157400   78.657300
  C     -5.857580   -9.484350   76.467100
  H     -4.938520   -9.372300   75.842800
  H     -6.586990   -8.669700   76.250800
  C     -6.561720  -10.835100   76.178700
  H     -6.919300  -10.836100   75.184800
  H     -5.788340  -11.642100   76.304000
  C     -7.863820  -11.081100   76.969300
  H     -7.674220  -11.127900   78.035300
  H     -8.601010  -10.243500   76.817600
  H     -8.389260  -11.996000   76.618600
  S     -5.986500   -7.266020   82.452000
  C     -7.337720   -7.427020   83.550800
  C     -8.121290   -8.575090   83.323600
  C     -7.744930   -9.130050   82.073900
  C     -6.624640   -8.563800   81.434200
  H     -8.976750   -8.782510   83.959300
  C     -8.497000  -10.273000   81.453000
  H     -8.979450  -10.885400   82.263300
  H     -7.783620  -10.996300   80.982300
  C     -9.604510   -9.957580   80.330900
  H    -10.034600  -10.910300   79.892200
  H     -9.038710   -9.429940   79.619900
  C    -10.750400   -9.027510   80.915600
  H    -10.354500   -8.151100   81.443400
  H    -11.489100   -9.613420   81.470500
  H    -11.501300   -8.817540   80.089600
  H     -3.588270  -10.517100   78.035000
  H     -7.520630   -6.751910   84.376300

 Total Charge           Charge          ....    0
 Multiplicity           Mult            ....    1
 Number of Electrons    NEL             ....  134
 Basis Dimension        Dim             ....  322

ORBITAL ENERGIES
----------------

  NO   OCC          E(Eh)            E(eV)
   0   2.0000     -88.969271     -2420.9770
   1   2.0000     -88.964465     -2420.8462
   2   2.0000     -10.330937      -281.1191
   3   2.0000     -10.330133      -281.0972
   4   2.0000     -10.323488      -280.9164
   5   2.0000     -10.313448      -280.6432
   6   2.0000     -10.308603      -280.5114
   7   2.0000     -10.304879      -280.4100
   8   2.0000     -10.300297      -280.2853
   9   2.0000     -10.299041      -280.2511
  10   2.0000     -10.297001      -280.1956
  11   2.0000     -10.294009      -280.1142
  12   2.0000     -10.293770      -280.1077
  13   2.0000     -10.290248      -280.0119
  14   2.0000     -10.283846      -279.8377
  15   2.0000     -10.283126      -279.8181
  16   2.0000      -8.083608      -219.9661
  17   2.0000      -8.080137      -219.8717
  18   2.0000      -6.041983      -164.4107
  19   2.0000      -6.038566      -164.3177
  20   2.0000      -6.038101      -164.3051
  21   2.0000      -6.034608      -164.2100
  22   2.0000      -6.034461      -164.2060
  23   2.0000      -6.030962      -164.1108
  24   2.0000      -1.007074       -27.4039
  25   2.0000      -0.985365       -26.8131
  26   2.0000      -0.911660       -24.8075
  27   2.0000      -0.895169       -24.3588
  28   2.0000      -0.867191       -23.5975
  29   2.0000      -0.844915       -22.9913
  30   2.0000      -0.842707       -22.9312
  31   2.0000      -0.814876       -22.1739
  32   2.0000      -0.780229       -21.2311
  33   2.0000      -0.765745       -20.8370
  34   2.0000      -0.706259       -19.2183
  35   2.0000      -0.700313       -19.0565
  36   2.0000      -0.686773       -18.6880
  37   2.0000      -0.662776       -18.0351
  38   2.0000      -0.642944       -17.4954
  39   2.0000      -0.611761       -16.6469
  40   2.0000      -0.587642       -15.9905
  41   2.0000      -0.576188       -15.6789
  42   2.0000      -0.554393       -15.0858
  43   2.0000      -0.550058       -14.9679
  44   2.0000      -0.547964       -14.9109
  45   2.0000      -0.534569       -14.5463
  46   2.0000      -0.508592       -13.8395
  47   2.0000      -0.505206       -13.7474
  48   2.0000      -0.500337       -13.6149
  49   2.0000      -0.498064       -13.5530
  50   2.0000      -0.480904       -13.0861
  51   2.0000      -0.476697       -12.9716
  52   2.0000      -0.474226       -12.9044
  53   2.0000      -0.463519       -12.6130
  54   2.0000      -0.461451       -12.5567
  55   2.0000      -0.449925       -12.2431
  56   2.0000      -0.445981       -12.1358
  57   2.0000      -0.434801       -11.8315
  58   2.0000      -0.427786       -11.6406
  59   2.0000      -0.424652       -11.5554
  60   2.0000      -0.418430       -11.3861
  61   2.0000      -0.414126       -11.2689
  62   2.0000      -0.407958       -11.1011
  63   2.0000      -0.340290        -9.2598
  64   2.0000      -0.329102        -8.9553
  65   2.0000      -0.322283        -8.7698
  66   2.0000      -0.299295        -8.1442
  67   0.0000       0.035223         0.9585
  68   0.0000       0.045525         1.2388
  69   0.0000       0.109965         2.9923
  70   0.0000       0.112185         3.0527
  71   0.0000       0.130332         3.5465

MULLIKEN ATOMIC CHARGES
-----------------------
   0 S :    0.122375
   1 C :   -0.103690
   2 C :   -0.132617
   3 C :    0.062749
   4 C :   -0.188987
   5 H :    0.025259
   6 C :    0.048300
   7 H :    0.044405
   8 H :    0.029019
   9 C :   -0.050172
  10 H :    0.024687
  11 H :    0.035737
  12 C :   -0.092366
  13 H :    0.049579
  14 H :    0.031970
  15 H :    0.043061
  16 S :    0.119372
  17 C :   -0.106632
  18 C :   -0.026358
  19 C :   -0.027736
  20 C :   -0.158655
  21 H :    0.033354
  22 C :    0.003465
  23 H :    0.024798
  24 H :    0.042505
  25 C :   -0.045764
  26 H :    0.045749
  27 H :    0.011208
  28 C :   -0.082621
  29 H :    0.064079
  30 H :    0.021712
  31 H :    0.030520
  32 H :    0.042795
  33 H :    0.058899
Sum of atomic charges:   -0.0000000

LOEWDIN ATOMIC CHARGES
----------------------
   0 S :    0.427516
   1 C :   -0.206288
   2 C :   -0.064611
   3 C :   -0.060483
   4 C :   -0.205584
   5 H :    0.028079
   6 C :   -0.037016
   7 H :    0.038352
   8 H :    0.034007
   9 C :   -0.037654
  10 H :    0.019324
  11 H :    0.027383
  12 C :   -0.070798
  13 H :    0.022024
  14 H :    0.028134
  15 H :    0.031428
  16 S :    0.408676
  17 C :   -0.176218
  18 C :   -0.071814
  19 C :   -0.053946
  20 C :   -0.206149
  21 H :    0.038666
  22 C :   -0.042967
  23 H :    0.029244
  24 H :    0.034281
  25 C :   -0.029895
  26 H :    0.032961
  27 H :    0.008388
  28 C :   -0.082260
  29 H :    0.030235
  30 H :    0.023794
  31 H :    0.033495
  32 H :    0.023047
  33 H :    0.026651

  Mayer bond orders larger than 0.100000
B(  0-S ,  1-C ) :   1.1611 B(  0-S ,  4-C ) :   1.1625 B(  1-C ,  2-C ) :   1.5731
B(  1-C ,  4-C ) :   0.1045 B(  1-C , 32-H ) :   0.9743 B(  2-C ,  3-C ) :   1.2574
B(  2-C ,  6-C ) :   1.0307 B(  3-C ,  4-C ) :   1.5738 B(  3-C ,  5-H ) :   0.9744
B(  4-C , 20-C ) :   1.0278 B(  6-C ,  7-H ) :   0.9404 B(  6-C ,  8-H ) :   0.9389
B(  6-C ,  9-C ) :   1.0735 B(  9-C , 10-H ) :   0.9563 B(  9-C , 11-H ) :   0.9556
B(  9-C , 12-C ) :   1.0711 B( 12-C , 13-H ) :   0.9739 B( 12-C , 14-H ) :   0.9723
B( 12-C , 15-H ) :   0.9724 B( 16-S , 17-C ) :   1.1874 B( 16-S , 20-C ) :   1.1377
B( 17-C , 18-C ) :   1.5772 B( 17-C , 20-C ) :   0.1074 B( 17-C , 33-H ) :   0.9653
B( 18-C , 19-C ) :   1.2555 B( 18-C , 21-H ) :   0.9913 B( 19-C , 20-C ) :   1.5822
B( 19-C , 22-C ) :   1.0522 B( 22-C , 23-H ) :   0.9414 B( 22-C , 24-H ) :   0.9341
B( 22-C , 25-C ) :   1.0549 B( 25-C , 26-H ) :   0.9562 B( 25-C , 27-H ) :   0.9537
B( 25-C , 28-C ) :   1.0725 B( 28-C , 29-H ) :   0.9734 B( 28-C , 30-H ) :   0.9731
B( 28-C , 31-H ) :   0.9706

Dispersion correction           -0.016529706
FINAL SINGLE POINT ENERGY     -1339.869800413032

DIPOLE MOMENT
-------------
                                X             Y             Z
Electronic contribution:     22.15328      11.23219      16.32210
Nuclear contribution   :    -22.69995     -11.48385     -16.64740
                        -----------------------------------------
Total Dipole Moment    :     -0.54667      -0.25165      -0.32530
                        -----------------------------------------
Magnitude (a.u.)       :      0.68410
Magnitude (Debye)      :      1.73885

Rotational constants in cm-1:     0.018786     0.010463     0.007398
Rotational constants in MHz :   563.179608   313.671394   221.790758

                             ****ORCA TERMINATED NORMALLY****
TOTAL RUN TIME: 0 days 0 hours 0 minutes 37 seconds 403 msec
