                         Program Version 4.2.1 -  RELEASE  -
|  1> ! wB97X-D3 SP def2-SVP
|  2> %pal
|  3> nprocs 16
|  4> end
|  5>
|  6> * xyz 0 1
|  7> S 	 -2.03864 	 -14.9835 	 83.1279
|  8> C 	 -0.783343 	 -15.3531 	 81.9644
|  9> C 	 0.468691 	 -14.8205 	 82.2904
| 10> C 	 0.378711 	 -14.1611 	 83.5932
| 11> C 	 -0.885628 	 -14.1851 	 84.1766
| 12> H 	 1.16054 	 -13.6604 	 84.1362
| 13> C 	 1.73682 	 -14.957 	 81.6027
| 14> H 	 2.06193 	 -13.9674 	 81.5782
| 15> H 	 1.60207 	 -15.3779 	 80.5759
| 16> C 	 2.79587 	 -15.715 	 82.3994
| 17> H 	 3.6795 	 -15.4294 	 81.8721
| 18> H 	 2.90946 	 -15.3439 	 83.4036
| 19> C 	 2.42131 	 -17.2378 	 82.3574
| 20> H 	 3.22297 	 -17.8081 	 82.8646
| 21> H 	 1.56539 	 -17.4385 	 82.9889
| 22> H 	 2.14135 	 -17.5075 	 81.3459
| 23> S 	 -1.93392 	 -15.1022 	 86.4936
| 24> C 	 -2.57811 	 -14.0175 	 87.658
| 25> C 	 -2.06212 	 -12.7418 	 87.4016
| 26> C 	 -1.29468 	 -12.5739 	 86.2289
| 27> C 	 -1.25984 	 -13.8183 	 85.525
| 28> H 	 -2.36477 	 -11.9135 	 88.0152
| 29> C 	 -0.736234 	 -11.2408 	 85.6729
| 30> H 	 -0.387924 	 -11.4619 	 84.6862
| 31> H 	 0.244438 	 -10.9791 	 86.1466
| 32> C 	 -1.69998 	 -10.0676 	 85.5549
| 33> H 	 -2.65977 	 -10.3287 	 85.1362
| 34> H 	 -1.14944 	 -9.27166 	 84.9966
| 35> C 	 -2.13949 	 -9.42313 	 86.8719
| 36> H 	 -2.85868 	 -9.92237 	 87.4278
| 37> H 	 -2.51072 	 -8.41863 	 86.6251
| 38> H 	 -1.36531 	 -9.32992 	 87.6383
| 39> H 	 -0.926522 	 -15.7929 	 80.9382
| 40> H 	 -3.34403 	 -14.1911 	 88.4466
| 41> *
| 42>
| 43>                          ****END OF INPUT****

CARTESIAN COORDINATES (ANGSTROEM)
---------------------------------
  S     -2.038640  -14.983500   83.127900
  C     -0.783343  -15.353100   81.964400
  C      0.468691  -14.820500   82.290400
  C      0.378711  -14.161100   83.593200
  C     -0.885628  -14.185100   84.176600
  H      1.160540  -13.660400   84.136200
  C      1.736820  -14.957000   81.602700
  H      2.061930  -13.967400   81.578200
  H      1.602070  -15.377900   80.575900
  C      2.795870  -15.715000   82.399400
  H      3.679500  -15.429400   81.872100
  H      2.909460  -15.343900   83.403600
  C      2.421310  -17.237800   82.357400
  H      3.222970  -17.808100   82.864600
  H      1.565390  -17.438500   82.988900
  H      2.141350  -17.507500   81.345900
  S     -1.933920  -15.102200   86.493600
  C     -2.578110  -14.017500   87.658000
  C     -2.062120  -12.741800   87.401600
  C     -1.294680  -12.573900   86.228900
  C     -1.259840  -13.818300   85.525000
  H     -2.364770  -11.913500   88.015200
  C     -0.736234  -11.240800   85.672900
  H     -0.387924  -11.461900   84.686200
  H      0.244438  -10.979100   86.146600
  C     -1.699980  -10.067600   85.554900
  H     -2.659770  -10.328700   85.136200
  H     -1.149440   -9.271660   84.996600
  C     -2.139490   -9.423130   86.871900
  H     -2.858680   -9.922370   87.427800
  H     -2.510720   -8.418630   86.625100
  H     -1.365310   -9.329920   87.638300
  H     -0.926522  -15.792900   80.938200
  H     -3.344030  -14.191100   88.446600

 Total Charge           Charge          ....    0
 Multiplicity           Mult            ....    1
 Number of Electrons    NEL             ....  134
 Basis Dimension        Dim             ....  322

ORBITAL ENERGIES
----------------

  NO   OCC          E(Eh)            E(eV)
   0   2.0000     -88.965973     -2420.8872
   1   2.0000     -88.965911     -2420.8855
   2   2.0000     -10.327993      -281.0390
   3   2.0000     -10.326274      -280.9922
   4   2.0000     -10.317168      -280.7444
   5   2.0000     -10.316623      -280.7296
   6   2.0000     -10.307596      -280.4840
   7   2.0000     -10.301230      -280.3107
   8   2.0000     -10.296066      -280.1702
   9   2.0000     -10.294681      -280.1325
  10   2.0000     -10.289755      -279.9985
  11   2.0000     -10.289066      -279.9797
  12   2.0000     -10.285734      -279.8890
  13   2.0000     -10.285355      -279.8787
  14   2.0000     -10.278202      -279.6841
  15   2.0000     -10.270348      -279.4704
  16   2.0000      -8.081055      -219.8967
  17   2.0000      -8.080460      -219.8805
  18   2.0000      -6.039426      -164.3411
  19   2.0000      -6.039012      -164.3299
  20   2.0000      -6.035331      -164.2297
  21   2.0000      -6.034990      -164.2204
  22   2.0000      -6.032095      -164.1416
  23   2.0000      -6.031169      -164.1165
  24   2.0000      -1.005332       -27.3565
  25   2.0000      -0.981611       -26.7110
  26   2.0000      -0.922526       -25.1032
  27   2.0000      -0.908625       -24.7249
  28   2.0000      -0.865381       -23.5482
  29   2.0000      -0.849581       -23.1183
  30   2.0000      -0.841859       -22.9082
  31   2.0000      -0.810570       -22.0567
  32   2.0000      -0.788351       -21.4521
  33   2.0000      -0.774676       -21.0800
  34   2.0000      -0.712857       -19.3978
  35   2.0000      -0.698538       -19.0082
  36   2.0000      -0.691240       -18.8096
  37   2.0000      -0.654303       -17.8045
  38   2.0000      -0.637122       -17.3370
  39   2.0000      -0.620913       -16.8959
  40   2.0000      -0.598982       -16.2991
  41   2.0000      -0.566621       -15.4185
  42   2.0000      -0.560904       -15.2630
  43   2.0000      -0.549684       -14.9577
  44   2.0000      -0.539478       -14.6799
  45   2.0000      -0.535340       -14.5673
  46   2.0000      -0.517825       -14.0907
  47   2.0000      -0.516889       -14.0653
  48   2.0000      -0.502120       -13.6634
  49   2.0000      -0.491486       -13.3740
  50   2.0000      -0.485602       -13.2139
  51   2.0000      -0.482358       -13.1256
  52   2.0000      -0.476185       -12.9577
  53   2.0000      -0.465304       -12.6616
  54   2.0000      -0.458980       -12.4895
  55   2.0000      -0.445960       -12.1352
  56   2.0000      -0.443568       -12.0701
  57   2.0000      -0.435087       -11.8393
  58   2.0000      -0.430338       -11.7101
  59   2.0000      -0.425674       -11.5832
  60   2.0000      -0.423691       -11.5292
  61   2.0000      -0.418594       -11.3905
  62   2.0000      -0.411699       -11.2029
  63   2.0000      -0.339642        -9.2421
  64   2.0000      -0.332876        -9.0580
  65   2.0000      -0.319895        -8.7048
  66   2.0000      -0.291374        -7.9287
  67   0.0000       0.027276         0.7422
  68   0.0000       0.068849         1.8735
  69   0.0000       0.115948         3.1551
  70   0.0000       0.119779         3.2593
  71   0.0000       0.134001         3.6464

MULLIKEN ATOMIC CHARGES
-----------------------
   0 S :    0.124318
   1 C :   -0.137393
   2 C :   -0.094960
   3 C :    0.033717
   4 C :   -0.171717
   5 H :    0.008560
   6 C :    0.066810
   7 H :    0.014708
   8 H :    0.029340
   9 C :   -0.054834
  10 H :    0.023226
  11 H :    0.027782
  12 C :   -0.041618
  13 H :    0.040378
  14 H :    0.040311
  15 H :    0.027684
  16 S :    0.128387
  17 C :   -0.106464
  18 C :   -0.060969
  19 C :   -0.001937
  20 C :   -0.203620
  21 H :    0.002523
  22 C :    0.095846
  23 H :    0.005468
  24 H :    0.039449
  25 C :   -0.063967
  26 H :    0.041216
  27 H :    0.040184
  28 C :   -0.056264
  29 H :    0.019476
  30 H :    0.033550
  31 H :    0.015881
  32 H :    0.061550
  33 H :    0.073379
Sum of atomic charges:   -0.0000000

LOEWDIN ATOMIC CHARGES
----------------------
   0 S :    0.406872
   1 C :   -0.214815
   2 C :   -0.060260
   3 C :   -0.055971
   4 C :   -0.203088
   5 H :    0.026251
   6 C :   -0.035818
   7 H :    0.028484
   8 H :    0.034867
   9 C :   -0.028313
  10 H :    0.020746
  11 H :    0.022148
  12 C :   -0.061789
  13 H :    0.029787
  14 H :    0.028972
  15 H :    0.022838
  16 S :    0.433802
  17 C :   -0.214117
  18 C :   -0.077491
  19 C :   -0.051930
  20 C :   -0.207719
  21 H :    0.024400
  22 C :   -0.035420
  23 H :    0.027128
  24 H :    0.038739
  25 C :   -0.036503
  26 H :    0.031012
  27 H :    0.034382
  28 C :   -0.069609
  29 H :    0.009617
  30 H :    0.030474
  31 H :    0.021260
  32 H :    0.038200
  33 H :    0.042863

  Mayer bond orders larger than 0.100000
B(  0-S ,  1-C ) :   1.1313 B(  0-S ,  4-C ) :   1.1472 B(  1-C ,  2-C ) :   1.6167
B(  1-C , 32-H ) :   0.9544 B(  2-C ,  3-C ) :   1.2097 B(  2-C ,  6-C ) :   1.0425
B(  3-C ,  4-C ) :   1.5875 B(  3-C ,  5-H ) :   0.9885 B(  4-C , 20-C ) :   1.0420
B(  6-C ,  7-H ) :   0.9163 B(  6-C ,  8-H ) :   0.9406 B(  6-C ,  9-C ) :   1.0855
B(  9-C , 10-H ) :   0.9569 B(  9-C , 11-H ) :   0.9529 B(  9-C , 12-C ) :   1.0600
B( 12-C , 13-H ) :   0.9745 B( 12-C , 14-H ) :   0.9754 B( 12-C , 15-H ) :   0.9767
B( 16-S , 17-C ) :   1.1618 B( 16-S , 20-C ) :   1.1839 B( 17-C , 18-C ) :   1.5692
B( 17-C , 20-C ) :   0.1091 B( 17-C , 33-H ) :   0.9644 B( 18-C , 19-C ) :   1.2883
B( 18-C , 21-H ) :   0.9861 B( 19-C , 20-C ) :   1.5208 B( 19-C , 22-C ) :   1.0318
B( 22-C , 23-H ) :   0.9220 B( 22-C , 24-H ) :   0.9319 B( 22-C , 25-C ) :   1.0802
B( 25-C , 26-H ) :   0.9566 B( 25-C , 27-H ) :   0.9546 B( 25-C , 28-C ) :   1.0719
B( 28-C , 29-H ) :   0.9731 B( 28-C , 30-H ) :   0.9708 B( 28-C , 31-H ) :   0.9750

Dispersion correction           -0.014379567
FINAL SINGLE POINT ENERGY     -1339.864488358973

DIPOLE MOMENT
-------------
                                X             Y             Z
Electronic contribution:    -13.73192     -11.62028       3.34583
Nuclear contribution   :     14.11347      12.02508      -3.49268
                        -----------------------------------------
Total Dipole Moment    :      0.38155       0.40481      -0.14685
                        -----------------------------------------
Magnitude (a.u.)       :      0.57534
Magnitude (Debye)      :      1.46239

Rotational constants in cm-1:     0.022431     0.007620     0.006783
Rotational constants in MHz :   672.468409   228.450060   203.337561

                             ****ORCA TERMINATED NORMALLY****
TOTAL RUN TIME: 0 days 0 hours 0 minutes 33 seconds 924 msec
