                         Program Version 4.2.1 -  RELEASE  -
|  1> ! wB97X-D3 SP def2-SVP
|  2> %pal
|  3> nprocs 16
|  4> end
|  5>
|  6> * xyz 0 1
|  7> S 	 6.91012 	 24.6451 	 69.6269
|  8> C 	 6.87946 	 24.319 	 67.8383
|  9> C 	 6.9928 	 25.4812 	 67.1673
| 10> C 	 7.16114 	 26.6062 	 68.1053
| 11> C 	 7.34143 	 26.3326 	 69.4461
| 12> H 	 7.25762 	 27.6281 	 67.7272
| 13> C 	 6.91242 	 25.7207 	 65.6558
| 14> H 	 6.87235 	 24.7733 	 65.0727
| 15> H 	 7.8871 	 26.1853 	 65.4392
| 16> C 	 5.84206 	 26.7248 	 65.2315
| 17> H 	 5.04264 	 26.1828 	 64.783
| 18> H 	 5.51352 	 27.2678 	 66.0938
| 19> C 	 6.3396 	 27.7768 	 64.1677
| 20> H 	 7.18267 	 28.4121 	 64.4541
| 21> H 	 6.75419 	 27.2319 	 63.2686
| 22> H 	 5.55695 	 28.4794 	 63.6974
| 23> S 	 8.77166 	 26.8789 	 71.6833
| 24> C 	 8.76863 	 28.4434 	 72.3261
| 25> C 	 7.85598 	 29.2553 	 71.7322
| 26> C 	 7.18952 	 28.6496 	 70.6361
| 27> C 	 7.57374 	 27.316 	 70.4776
| 28> H 	 7.73043 	 30.2361 	 72.2106
| 29> C 	 6.22588 	 29.4021 	 69.6682
| 30> H 	 5.49876 	 29.9458 	 70.2609
| 31> H 	 5.71956 	 28.7396 	 68.9722
| 32> C 	 6.91451 	 30.4058 	 68.6877
| 33> H 	 7.60917 	 29.8765 	 68.1584
| 34> H 	 7.47788 	 31.1997 	 69.2666
| 35> C 	 5.90492 	 31.1589 	 67.8187
| 36> H 	 5.22128 	 30.368 	 67.4023
| 37> H 	 6.24601 	 31.7414 	 67.0169
| 38> H 	 5.40455 	 31.9818 	 68.3308
| 39> H 	 6.80102 	 23.3561 	 67.362
| 40> H 	 9.30238 	 28.761 	 73.2089
| 41> *
| 42>
| 43>                          ****END OF INPUT****

CARTESIAN COORDINATES (ANGSTROEM)
---------------------------------
  S      6.910120   24.645100   69.626900
  C      6.879460   24.319000   67.838300
  C      6.992800   25.481200   67.167300
  C      7.161140   26.606200   68.105300
  C      7.341430   26.332600   69.446100
  H      7.257620   27.628100   67.727200
  C      6.912420   25.720700   65.655800
  H      6.872350   24.773300   65.072700
  H      7.887100   26.185300   65.439200
  C      5.842060   26.724800   65.231500
  H      5.042640   26.182800   64.783000
  H      5.513520   27.267800   66.093800
  C      6.339600   27.776800   64.167700
  H      7.182670   28.412100   64.454100
  H      6.754190   27.231900   63.268600
  H      5.556950   28.479400   63.697400
  S      8.771660   26.878900   71.683300
  C      8.768630   28.443400   72.326100
  C      7.855980   29.255300   71.732200
  C      7.189520   28.649600   70.636100
  C      7.573740   27.316000   70.477600
  H      7.730430   30.236100   72.210600
  C      6.225880   29.402100   69.668200
  H      5.498760   29.945800   70.260900
  H      5.719560   28.739600   68.972200
  C      6.914510   30.405800   68.687700
  H      7.609170   29.876500   68.158400
  H      7.477880   31.199700   69.266600
  C      5.904920   31.158900   67.818700
  H      5.221280   30.368000   67.402300
  H      6.246010   31.741400   67.016900
  H      5.404550   31.981800   68.330800
  H      6.801020   23.356100   67.362000
  H      9.302380   28.761000   73.208900

 Total Charge           Charge          ....    0
 Multiplicity           Mult            ....    1
 Number of Electrons    NEL             ....  134
 Basis Dimension        Dim             ....  322

ORBITAL ENERGIES
----------------

  NO   OCC          E(Eh)            E(eV)
   0   2.0000     -88.966265     -2420.8952
   1   2.0000     -88.961709     -2420.7712
   2   2.0000     -10.332735      -281.1680
   3   2.0000     -10.330179      -281.0985
   4   2.0000     -10.316354      -280.7223
   5   2.0000     -10.312749      -280.6242
   6   2.0000     -10.312340      -280.6130
   7   2.0000     -10.304581      -280.4019
   8   2.0000     -10.300385      -280.2877
   9   2.0000     -10.296954      -280.1944
  10   2.0000     -10.295595      -280.1574
  11   2.0000     -10.293963      -280.1130
  12   2.0000     -10.292858      -280.0829
  13   2.0000     -10.290319      -280.0138
  14   2.0000     -10.287009      -279.9237
  15   2.0000     -10.279910      -279.7306
  16   2.0000      -8.082291      -219.9303
  17   2.0000      -8.075611      -219.7485
  18   2.0000      -6.040552      -164.3718
  19   2.0000      -6.036631      -164.2651
  20   2.0000      -6.034570      -164.2090
  21   2.0000      -6.033189      -164.1714
  22   2.0000      -6.030349      -164.0941
  23   2.0000      -6.025782      -163.9699
  24   2.0000      -1.011800       -27.5325
  25   2.0000      -0.984873       -26.7998
  26   2.0000      -0.912580       -24.8326
  27   2.0000      -0.909043       -24.7363
  28   2.0000      -0.874898       -23.8072
  29   2.0000      -0.854738       -23.2586
  30   2.0000      -0.835776       -22.7426
  31   2.0000      -0.814304       -22.1583
  32   2.0000      -0.784196       -21.3391
  33   2.0000      -0.775746       -21.1091
  34   2.0000      -0.713848       -19.4248
  35   2.0000      -0.703825       -19.1521
  36   2.0000      -0.699745       -19.0410
  37   2.0000      -0.660446       -17.9716
  38   2.0000      -0.637020       -17.3342
  39   2.0000      -0.624308       -16.9883
  40   2.0000      -0.600946       -16.3526
  41   2.0000      -0.572288       -15.5727
  42   2.0000      -0.568971       -15.4825
  43   2.0000      -0.556819       -15.1518
  44   2.0000      -0.530240       -14.4286
  45   2.0000      -0.526488       -14.3265
  46   2.0000      -0.518031       -14.0964
  47   2.0000      -0.514448       -13.9988
  48   2.0000      -0.505726       -13.7615
  49   2.0000      -0.501495       -13.6464
  50   2.0000      -0.494670       -13.4607
  51   2.0000      -0.476751       -12.9730
  52   2.0000      -0.470319       -12.7980
  53   2.0000      -0.465478       -12.6663
  54   2.0000      -0.460698       -12.5362
  55   2.0000      -0.455775       -12.4023
  56   2.0000      -0.443356       -12.0643
  57   2.0000      -0.432854       -11.7785
  58   2.0000      -0.431893       -11.7524
  59   2.0000      -0.430445       -11.7130
  60   2.0000      -0.425245       -11.5715
  61   2.0000      -0.418477       -11.3874
  62   2.0000      -0.408405       -11.1133
  63   2.0000      -0.355337        -9.6692
  64   2.0000      -0.335147        -9.1198
  65   2.0000      -0.322890        -8.7863
  66   2.0000      -0.295786        -8.0488
  67   0.0000       0.027263         0.7419
  68   0.0000       0.078401         2.1334
  69   0.0000       0.111120         3.0237
  70   0.0000       0.119053         3.2396
  71   0.0000       0.122173         3.3245

MULLIKEN ATOMIC CHARGES
-----------------------
   0 S :    0.080704
   1 C :   -0.133193
   2 C :   -0.068993
   3 C :   -0.027178
   4 C :   -0.072391
   5 H :   -0.002181
   6 C :    0.063837
   7 H :    0.032773
   8 H :    0.037306
   9 C :   -0.024745
  10 H :    0.033573
  11 H :    0.034965
  12 C :   -0.130930
  13 H :    0.037270
  14 H :    0.032930
  15 H :    0.050632
  16 S :    0.119159
  17 C :   -0.081163
  18 C :   -0.057634
  19 C :   -0.008327
  20 C :   -0.174524
  21 H :    0.025768
  22 C :    0.061499
  23 H :    0.026041
  24 H :    0.020320
  25 C :   -0.059105
  26 H :    0.013080
  27 H :    0.028309
  28 C :   -0.039011
  29 H :    0.035100
  30 H :    0.018713
  31 H :    0.030525
  32 H :    0.042299
  33 H :    0.054571
Sum of atomic charges:   -0.0000000

LOEWDIN ATOMIC CHARGES
----------------------
   0 S :    0.363844
   1 C :   -0.173241
   2 C :   -0.062300
   3 C :   -0.072227
   4 C :   -0.191600
   5 H :    0.022388
   6 C :   -0.030181
   7 H :    0.034435
   8 H :    0.036584
   9 C :   -0.033140
  10 H :    0.026259
  11 H :    0.021893
  12 C :   -0.084267
  13 H :    0.021450
  14 H :    0.027399
  15 H :    0.035384
  16 S :    0.434607
  17 C :   -0.197594
  18 C :   -0.079418
  19 C :   -0.045641
  20 C :   -0.196441
  21 H :    0.038269
  22 C :   -0.022561
  23 H :    0.029366
  24 H :    0.025447
  25 C :   -0.033532
  26 H :    0.005477
  27 H :    0.027394
  28 C :   -0.070040
  29 H :    0.030457
  30 H :    0.020635
  31 H :    0.029724
  32 H :    0.030201
  33 H :    0.030970

  Mayer bond orders larger than 0.100000
B(  0-S ,  1-C ) :   1.0998 B(  0-S ,  4-C ) :   1.1198 B(  1-C ,  2-C ) :   1.6659
B(  1-C , 32-H ) :   0.9693 B(  2-C ,  3-C ) :   1.1999 B(  2-C ,  6-C ) :   1.0191
B(  3-C ,  4-C ) :   1.6004 B(  3-C ,  5-H ) :   0.9867 B(  4-C , 20-C ) :   1.0539
B(  6-C ,  7-H ) :   0.9443 B(  6-C ,  8-H ) :   0.9457 B(  6-C ,  9-C ) :   1.0383
B(  9-C , 10-H ) :   0.9563 B(  9-C , 11-H ) :   0.9662 B(  9-C , 12-C ) :   1.0653
B( 12-C , 13-H ) :   0.9773 B( 12-C , 14-H ) :   0.9763 B( 12-C , 15-H ) :   0.9762
B( 16-S , 17-C ) :   1.1741 B( 16-S , 20-C ) :   1.1464 B( 17-C , 18-C ) :   1.6168
B( 17-C , 33-H ) :   0.9630 B( 18-C , 19-C ) :   1.2348 B( 18-C , 21-H ) :   0.9915
B( 19-C , 20-C ) :   1.5832 B( 19-C , 22-C ) :   1.0414 B( 22-C , 23-H ) :   0.9366
B( 22-C , 24-H ) :   0.9364 B( 22-C , 25-C ) :   1.0550 B( 25-C , 26-H ) :   0.9559
B( 25-C , 27-H ) :   0.9528 B( 25-C , 28-C ) :   1.0798 B( 28-C , 29-H ) :   0.9723
B( 28-C , 30-H ) :   0.9717 B( 28-C , 31-H ) :   0.9730

Dispersion correction           -0.014556398
FINAL SINGLE POINT ENERGY     -1339.866568408144

DIPOLE MOMENT
-------------
                                X             Y             Z
Electronic contribution:      9.53316     -19.97625      26.51055
Nuclear contribution   :     -9.61826      20.61395     -27.02558
                        -----------------------------------------
Total Dipole Moment    :     -0.08510       0.63770      -0.51502
                        -----------------------------------------
Magnitude (a.u.)       :      0.82411
Magnitude (Debye)      :      2.09472

Rotational constants in cm-1:     0.016250     0.010413     0.006744
Rotational constants in MHz :   487.155627   312.188624   202.189792

                             ****ORCA TERMINATED NORMALLY****
TOTAL RUN TIME: 0 days 0 hours 0 minutes 36 seconds 387 msec
