                         Program Version 4.2.1 -  RELEASE  -
|  1> ! wB97X-D3 SP def2-SVP
|  2> %pal
|  3> nprocs 16
|  4> end
|  5>
|  6> * xyz 0 1
|  7> S 	 -31.3783 	 60.1228 	 109.703
|  8> C 	 -31.2612 	 58.3946 	 109.461
|  9> C 	 -30.9137 	 57.6835 	 110.63
| 10> C 	 -30.6434 	 58.5515 	 111.825
| 11> C 	 -30.8861 	 59.8979 	 111.429
| 12> H 	 -30.2453 	 58.37 	 112.822
| 13> C 	 -30.7143 	 56.1719 	 110.664
| 14> H 	 -31.4467 	 55.6466 	 109.925
| 15> H 	 -30.9388 	 55.8519 	 111.693
| 16> C 	 -29.3027 	 55.8802 	 110.204
| 17> H 	 -29.2208 	 56.3496 	 109.199
| 18> H 	 -28.5994 	 56.4141 	 110.813
| 19> C 	 -29.1646 	 54.3449 	 110.097
| 20> H 	 -29.9665 	 53.9403 	 109.485
| 21> H 	 -28.1354 	 54.142 	 109.729
| 22> H 	 -29.0805 	 53.8968 	 111.066
| 23> S 	 -32.3182 	 61.7982 	 112.883
| 24> C 	 -31.5524 	 62.6241 	 114.195
| 25> C 	 -30.1435 	 62.3519 	 114.141
| 26> C 	 -29.7626 	 61.3331 	 113.187
| 27> C 	 -30.8492 	 60.9812 	 112.383
| 28> H 	 -29.5007 	 62.7791 	 114.889
| 29> C 	 -28.4065 	 60.8246 	 113.098
| 30> H 	 -28.351 	 59.7715 	 112.958
| 31> H 	 -27.9528 	 61.1547 	 114.053
| 32> C 	 -27.7165 	 61.4774 	 111.951
| 33> H 	 -27.7909 	 62.5587 	 111.98
| 34> H 	 -28.1673 	 61.0902 	 111.022
| 35> C 	 -26.2363 	 60.9552 	 111.855
| 36> H 	 -26.1644 	 59.9756 	 111.501
| 37> H 	 -25.6984 	 60.993 	 112.817
| 38> H 	 -25.6554 	 61.4625 	 111.05
| 39> H 	 -31.3416 	 57.9444 	 108.503
| 40> H 	 -31.9967 	 63.1719 	 114.936
| 41> *
| 42>
| 43>                          ****END OF INPUT****

CARTESIAN COORDINATES (ANGSTROEM)
---------------------------------
  S    -31.378300   60.122800  109.703000
  C    -31.261200   58.394600  109.461000
  C    -30.913700   57.683500  110.630000
  C    -30.643400   58.551500  111.825000
  C    -30.886100   59.897900  111.429000
  H    -30.245300   58.370000  112.822000
  C    -30.714300   56.171900  110.664000
  H    -31.446700   55.646600  109.925000
  H    -30.938800   55.851900  111.693000
  C    -29.302700   55.880200  110.204000
  H    -29.220800   56.349600  109.199000
  H    -28.599400   56.414100  110.813000
  C    -29.164600   54.344900  110.097000
  H    -29.966500   53.940300  109.485000
  H    -28.135400   54.142000  109.729000
  H    -29.080500   53.896800  111.066000
  S    -32.318200   61.798200  112.883000
  C    -31.552400   62.624100  114.195000
  C    -30.143500   62.351900  114.141000
  C    -29.762600   61.333100  113.187000
  C    -30.849200   60.981200  112.383000
  H    -29.500700   62.779100  114.889000
  C    -28.406500   60.824600  113.098000
  H    -28.351000   59.771500  112.958000
  H    -27.952800   61.154700  114.053000
  C    -27.716500   61.477400  111.951000
  H    -27.790900   62.558700  111.980000
  H    -28.167300   61.090200  111.022000
  C    -26.236300   60.955200  111.855000
  H    -26.164400   59.975600  111.501000
  H    -25.698400   60.993000  112.817000
  H    -25.655400   61.462500  111.050000
  H    -31.341600   57.944400  108.503000
  H    -31.996700   63.171900  114.936000

 Total Charge           Charge          ....    0
 Multiplicity           Mult            ....    1
 Number of Electrons    NEL             ....  134
 Basis Dimension        Dim             ....  322

ORBITAL ENERGIES
----------------

  NO   OCC          E(Eh)            E(eV)
   0   2.0000     -88.970877     -2421.0207
   1   2.0000     -88.966247     -2420.8946
   2   2.0000     -10.336516      -281.2709
   3   2.0000     -10.320931      -280.8468
   4   2.0000     -10.316231      -280.7189
   5   2.0000     -10.315274      -280.6929
   6   2.0000     -10.312835      -280.6265
   7   2.0000     -10.310226      -280.5555
   8   2.0000     -10.299608      -280.2666
   9   2.0000     -10.297773      -280.2167
  10   2.0000     -10.297379      -280.2059
  11   2.0000     -10.286516      -279.9103
  12   2.0000     -10.283553      -279.8297
  13   2.0000     -10.283267      -279.8219
  14   2.0000     -10.280280      -279.7406
  15   2.0000     -10.274243      -279.5764
  16   2.0000      -8.084377      -219.9871
  17   2.0000      -8.080902      -219.8925
  18   2.0000      -6.042939      -164.4367
  19   2.0000      -6.039379      -164.3398
  20   2.0000      -6.039149      -164.3336
  21   2.0000      -6.035196      -164.2260
  22   2.0000      -6.035074      -164.2227
  23   2.0000      -6.031928      -164.1371
  24   2.0000      -1.000054       -27.2129
  25   2.0000      -0.972468       -26.4622
  26   2.0000      -0.921285       -25.0694
  27   2.0000      -0.913946       -24.8697
  28   2.0000      -0.866833       -23.5877
  29   2.0000      -0.847700       -23.0671
  30   2.0000      -0.843390       -22.9498
  31   2.0000      -0.806973       -21.9589
  32   2.0000      -0.780033       -21.2258
  33   2.0000      -0.765264       -20.8239
  34   2.0000      -0.706721       -19.2309
  35   2.0000      -0.700049       -19.0493
  36   2.0000      -0.694143       -18.8886
  37   2.0000      -0.665836       -18.1183
  38   2.0000      -0.645647       -17.5689
  39   2.0000      -0.612629       -16.6705
  40   2.0000      -0.598910       -16.2972
  41   2.0000      -0.571100       -15.5404
  42   2.0000      -0.568736       -15.4761
  43   2.0000      -0.561141       -15.2694
  44   2.0000      -0.523593       -14.2477
  45   2.0000      -0.518127       -14.0989
  46   2.0000      -0.516398       -14.0519
  47   2.0000      -0.512716       -13.9517
  48   2.0000      -0.509065       -13.8524
  49   2.0000      -0.496768       -13.5177
  50   2.0000      -0.494262       -13.4496
  51   2.0000      -0.480446       -13.0736
  52   2.0000      -0.474024       -12.8989
  53   2.0000      -0.462606       -12.5881
  54   2.0000      -0.457844       -12.4586
  55   2.0000      -0.445182       -12.1140
  56   2.0000      -0.441953       -12.0261
  57   2.0000      -0.438999       -11.9458
  58   2.0000      -0.435614       -11.8537
  59   2.0000      -0.430127       -11.7044
  60   2.0000      -0.421371       -11.4661
  61   2.0000      -0.415007       -11.2929
  62   2.0000      -0.409852       -11.1526
  63   2.0000      -0.342083        -9.3085
  64   2.0000      -0.326451        -8.8832
  65   2.0000      -0.323581        -8.8051
  66   2.0000      -0.289270        -7.8715
  67   0.0000       0.032953         0.8967
  68   0.0000       0.055656         1.5145
  69   0.0000       0.111278         3.0280
  70   0.0000       0.112528         3.0620
  71   0.0000       0.122307         3.3281

MULLIKEN ATOMIC CHARGES
-----------------------
   0 S :    0.114176
   1 C :   -0.103036
   2 C :   -0.096654
   3 C :    0.036851
   4 C :   -0.193135
   5 H :    0.039398
   6 C :    0.014771
   7 H :    0.040840
   8 H :    0.031962
   9 C :   -0.078562
  10 H :    0.025518
  11 H :    0.020986
  12 C :   -0.006575
  13 H :    0.041187
  14 H :    0.029919
  15 H :    0.023912
  16 S :    0.124652
  17 C :   -0.073297
  18 C :   -0.038988
  19 C :   -0.062216
  20 C :   -0.148061
  21 H :    0.014667
  22 C :    0.125805
  23 H :    0.005302
  24 H :    0.017650
  25 C :   -0.089936
  26 H :    0.034722
  27 H :    0.038883
  28 C :   -0.034248
  29 H :    0.012511
  30 H :    0.029289
  31 H :    0.031495
  32 H :    0.040911
  33 H :    0.029299
Sum of atomic charges:    0.0000000

LOEWDIN ATOMIC CHARGES
----------------------
   0 S :    0.383956
   1 C :   -0.203281
   2 C :   -0.050237
   3 C :   -0.054645
   4 C :   -0.175789
   5 H :    0.038323
   6 C :   -0.040442
   7 H :    0.037710
   8 H :    0.028674
   9 C :   -0.040617
  10 H :    0.026687
  11 H :    0.020043
  12 C :   -0.063928
  13 H :    0.027644
  14 H :    0.029656
  15 H :    0.022791
  16 S :    0.424034
  17 C :   -0.183382
  18 C :   -0.068126
  19 C :   -0.051399
  20 C :   -0.215541
  21 H :    0.024588
  22 C :   -0.034241
  23 H :    0.026236
  24 H :    0.034081
  25 C :   -0.029450
  26 H :    0.024090
  27 H :    0.030376
  28 C :   -0.070597
  29 H :    0.015566
  30 H :    0.023213
  31 H :    0.030407
  32 H :    0.020671
  33 H :    0.012927

  Mayer bond orders larger than 0.100000
B(  0-S ,  1-C ) :   1.1186 B(  0-S ,  4-C ) :   1.1360 B(  1-C ,  2-C ) :   1.6363
B(  1-C , 32-H ) :   0.9694 B(  2-C ,  3-C ) :   1.1912 B(  2-C ,  6-C ) :   1.0268
B(  3-C ,  4-C ) :   1.5944 B(  3-C ,  5-H ) :   0.9818 B(  4-C , 20-C ) :   1.0480
B(  6-C ,  7-H ) :   0.9455 B(  6-C ,  8-H ) :   0.9416 B(  6-C ,  9-C ) :   1.0569
B(  9-C , 10-H ) :   0.9560 B(  9-C , 11-H ) :   0.9549 B(  9-C , 12-C ) :   1.0745
B( 12-C , 13-H ) :   0.9727 B( 12-C , 14-H ) :   0.9716 B( 12-C , 15-H ) :   0.9729
B( 16-S , 17-C ) :   1.1786 B( 16-S , 20-C ) :   1.1444 B( 17-C , 18-C ) :   1.5658
B( 17-C , 20-C ) :   0.1026 B( 17-C , 33-H ) :   0.9821 B( 18-C , 19-C ) :   1.2701
B( 18-C , 21-H ) :   0.9849 B( 19-C , 20-C ) :   1.5465 B( 19-C , 22-C ) :   1.0664
B( 22-C , 23-H ) :   0.9146 B( 22-C , 24-H ) :   0.9182 B( 22-C , 25-C ) :   1.0802
B( 25-C , 26-H ) :   0.9575 B( 25-C , 27-H ) :   0.9532 B( 25-C , 28-C ) :   1.0775
B( 28-C , 29-H ) :   0.9721 B( 28-C , 30-H ) :   0.9750 B( 28-C , 31-H ) :   0.9730

Dispersion correction           -0.014488724
FINAL SINGLE POINT ENERGY     -1339.860634136666

DIPOLE MOMENT
-------------
                                X             Y             Z
Electronic contribution:    -22.78064      18.16318       1.39999
Nuclear contribution   :     23.28503     -18.62520      -1.16737
                        -----------------------------------------
Total Dipole Moment    :      0.50439      -0.46203       0.23262
                        -----------------------------------------
Magnitude (a.u.)       :      0.72249
Magnitude (Debye)      :      1.83642

Rotational constants in cm-1:     0.018843     0.008479     0.006951
Rotational constants in MHz :   564.892600   254.181067   208.378925

                             ****ORCA TERMINATED NORMALLY****
TOTAL RUN TIME: 0 days 0 hours 0 minutes 30 seconds 461 msec
