                         Program Version 4.2.1 -  RELEASE  -
|  1> ! wB97X-D3 SP def2-SVP
|  2> %pal
|  3> nprocs 16
|  4> end
|  5>
|  6> * xyz 0 1
|  7> S 	 -51.2816 	 9.11373 	 93.8597
|  8> C 	 -50.431 	 8.82776 	 95.3744
|  9> C 	 -49.091 	 8.49569 	 95.1776
| 10> C 	 -48.6927 	 8.53815 	 93.7842
| 11> C 	 -49.7513 	 8.86306 	 92.9643
| 12> H 	 -47.6832 	 8.40373 	 93.5165
| 13> C 	 -48.1805 	 8.00928 	 96.3558
| 14> H 	 -48.1421 	 8.74274 	 97.104
| 15> H 	 -47.1467 	 7.79126 	 96.06
| 16> C 	 -48.6791 	 6.71889 	 96.9348
| 17> H 	 -47.9683 	 6.59892 	 97.7183
| 18> H 	 -49.6796 	 6.7092 	 97.318
| 19> C 	 -48.3544 	 5.5782 	 95.934
| 20> H 	 -48.6472 	 4.60446 	 96.4914
| 21> H 	 -49.0374 	 5.46602 	 95.0156
| 22> H 	 -47.3128 	 5.52975 	 95.5984
| 23> S 	 -50.767 	 8.30567 	 90.4899
| 24> C 	 -49.8186 	 8.7796 	 89.0854
| 25> C 	 -48.8085 	 9.68834 	 89.4239
| 26> C 	 -48.6659 	 9.86686 	 90.802
| 27> C 	 -49.6542 	 9.1799 	 91.5506
| 28> H 	 -48.252 	 10.0816 	 88.6202
| 29> C 	 -47.5551 	 10.7989 	 91.4023
| 30> H 	 -46.5695 	 10.7817 	 90.874
| 31> H 	 -47.3376 	 10.361 	 92.3935
| 32> C 	 -48.1761 	 12.2736 	 91.5514
| 33> H 	 -47.7149 	 12.8618 	 92.306
| 34> H 	 -49.1301 	 12.1429 	 91.9134
| 35> C 	 -48.089 	 13.0047 	 90.2264
| 36> H 	 -48.5146 	 12.327 	 89.5398
| 37> H 	 -47.0396 	 13.0734 	 89.8873
| 38> H 	 -48.6819 	 13.9295 	 90.2051
| 39> H 	 -50.8602 	 8.96708 	 96.3407
| 40> H 	 -49.9443 	 8.44862 	 88.0072
| 41> *
| 42>
| 43>                          ****END OF INPUT****

CARTESIAN COORDINATES (ANGSTROEM)
---------------------------------
  S    -51.281600    9.113730   93.859700
  C    -50.431000    8.827760   95.374400
  C    -49.091000    8.495690   95.177600
  C    -48.692700    8.538150   93.784200
  C    -49.751300    8.863060   92.964300
  H    -47.683200    8.403730   93.516500
  C    -48.180500    8.009280   96.355800
  H    -48.142100    8.742740   97.104000
  H    -47.146700    7.791260   96.060000
  C    -48.679100    6.718890   96.934800
  H    -47.968300    6.598920   97.718300
  H    -49.679600    6.709200   97.318000
  C    -48.354400    5.578200   95.934000
  H    -48.647200    4.604460   96.491400
  H    -49.037400    5.466020   95.015600
  H    -47.312800    5.529750   95.598400
  S    -50.767000    8.305670   90.489900
  C    -49.818600    8.779600   89.085400
  C    -48.808500    9.688340   89.423900
  C    -48.665900    9.866860   90.802000
  C    -49.654200    9.179900   91.550600
  H    -48.252000   10.081600   88.620200
  C    -47.555100   10.798900   91.402300
  H    -46.569500   10.781700   90.874000
  H    -47.337600   10.361000   92.393500
  C    -48.176100   12.273600   91.551400
  H    -47.714900   12.861800   92.306000
  H    -49.130100   12.142900   91.913400
  C    -48.089000   13.004700   90.226400
  H    -48.514600   12.327000   89.539800
  H    -47.039600   13.073400   89.887300
  H    -48.681900   13.929500   90.205100
  H    -50.860200    8.967080   96.340700
  H    -49.944300    8.448620   88.007200

 Total Charge           Charge          ....    0
 Multiplicity           Mult            ....    1
 Number of Electrons    NEL             ....  134
 Basis Dimension        Dim             ....  322

ORBITAL ENERGIES
----------------

  NO   OCC          E(Eh)            E(eV)
   0   2.0000     -88.969307     -2420.9779
   1   2.0000     -88.968492     -2420.9557
   2   2.0000     -10.332737      -281.1681
   3   2.0000     -10.328748      -281.0595
   4   2.0000     -10.323578      -280.9188
   5   2.0000     -10.313041      -280.6321
   6   2.0000     -10.309537      -280.5368
   7   2.0000     -10.303900      -280.3834
   8   2.0000     -10.301428      -280.3161
   9   2.0000     -10.294625      -280.1310
  10   2.0000     -10.290633      -280.0224
  11   2.0000     -10.289709      -279.9972
  12   2.0000     -10.287569      -279.9390
  13   2.0000     -10.282377      -279.7977
  14   2.0000     -10.275322      -279.6057
  15   2.0000     -10.270518      -279.4750
  16   2.0000      -8.083378      -219.9599
  17   2.0000      -8.082371      -219.9325
  18   2.0000      -6.041847      -164.4070
  19   2.0000      -6.041006      -164.3841
  20   2.0000      -6.037904      -164.2997
  21   2.0000      -6.037121      -164.2784
  22   2.0000      -6.034295      -164.2015
  23   2.0000      -6.032946      -164.1648
  24   2.0000      -1.000818       -27.2337
  25   2.0000      -0.977138       -26.5893
  26   2.0000      -0.915912       -24.9232
  27   2.0000      -0.901324       -24.5263
  28   2.0000      -0.866230       -23.5713
  29   2.0000      -0.849811       -23.1245
  30   2.0000      -0.840445       -22.8697
  31   2.0000      -0.808362       -21.9966
  32   2.0000      -0.778513       -21.1844
  33   2.0000      -0.765172       -20.8214
  34   2.0000      -0.707988       -19.2653
  35   2.0000      -0.698948       -19.0193
  36   2.0000      -0.691855       -18.8263
  37   2.0000      -0.661009       -17.9870
  38   2.0000      -0.639304       -17.3964
  39   2.0000      -0.620216       -16.8769
  40   2.0000      -0.590740       -16.0748
  41   2.0000      -0.579337       -15.7646
  42   2.0000      -0.555283       -15.1100
  43   2.0000      -0.546067       -14.8592
  44   2.0000      -0.539724       -14.6866
  45   2.0000      -0.536883       -14.6093
  46   2.0000      -0.515050       -14.0152
  47   2.0000      -0.509537       -13.8652
  48   2.0000      -0.499302       -13.5867
  49   2.0000      -0.485785       -13.2189
  50   2.0000      -0.485582       -13.2134
  51   2.0000      -0.475587       -12.9414
  52   2.0000      -0.467546       -12.7226
  53   2.0000      -0.461831       -12.5671
  54   2.0000      -0.458320       -12.4715
  55   2.0000      -0.451766       -12.2932
  56   2.0000      -0.442337       -12.0366
  57   2.0000      -0.437765       -11.9122
  58   2.0000      -0.433043       -11.7837
  59   2.0000      -0.424600       -11.5539
  60   2.0000      -0.421787       -11.4774
  61   2.0000      -0.411408       -11.1950
  62   2.0000      -0.406864       -11.0713
  63   2.0000      -0.347707        -9.4616
  64   2.0000      -0.335498        -9.1294
  65   2.0000      -0.330298        -8.9879
  66   2.0000      -0.283370        -7.7109
  67   0.0000       0.025621         0.6972
  68   0.0000       0.060694         1.6516
  69   0.0000       0.103789         2.8242
  70   0.0000       0.122431         3.3315
  71   0.0000       0.129200         3.5157

MULLIKEN ATOMIC CHARGES
-----------------------
   0 S :    0.105553
   1 C :   -0.117822
   2 C :   -0.104512
   3 C :    0.048335
   4 C :   -0.123576
   5 H :    0.003675
   6 C :    0.074712
   7 H :    0.018233
   8 H :    0.013667
   9 C :   -0.028870
  10 H :    0.018877
  11 H :    0.035665
  12 C :   -0.122570
  13 H :    0.036803
  14 H :    0.058288
  15 H :    0.039054
  16 S :    0.111171
  17 C :   -0.123317
  18 C :   -0.030941
  19 C :   -0.031226
  20 C :   -0.155391
  21 H :    0.009757
  22 C :    0.020173
  23 H :    0.038913
  24 H :    0.016876
  25 C :   -0.010840
  26 H :    0.017762
  27 H :    0.011664
  28 C :   -0.017055
  29 H :   -0.000560
  30 H :    0.025882
  31 H :    0.043868
  32 H :    0.040537
  33 H :    0.077216
Sum of atomic charges:   -0.0000000

LOEWDIN ATOMIC CHARGES
----------------------
   0 S :    0.382904
   1 C :   -0.194139
   2 C :   -0.052963
   3 C :   -0.055184
   4 C :   -0.180304
   5 H :    0.025542
   6 C :   -0.025792
   7 H :    0.020194
   8 H :    0.028854
   9 C :   -0.034324
  10 H :    0.023594
  11 H :    0.022200
  12 C :   -0.079943
  13 H :    0.032337
  14 H :    0.035296
  15 H :    0.023513
  16 S :    0.404361
  17 C :   -0.193771
  18 C :   -0.075507
  19 C :   -0.050114
  20 C :   -0.200421
  21 H :    0.026126
  22 C :   -0.027921
  23 H :    0.031650
  24 H :    0.028377
  25 C :   -0.023963
  26 H :    0.016495
  27 H :    0.015705
  28 C :   -0.063718
  29 H :    0.016875
  30 H :    0.027533
  31 H :    0.030321
  32 H :    0.022014
  33 H :    0.044175

  Mayer bond orders larger than 0.100000
B(  0-S ,  1-C ) :   1.1236 B(  0-S ,  4-C ) :   1.1382 B(  1-C ,  2-C ) :   1.6287
B(  1-C , 32-H ) :   0.9721 B(  2-C ,  3-C ) :   1.2344 B(  2-C ,  6-C ) :   1.0072
B(  3-C ,  4-C ) :   1.5772 B(  3-C ,  5-H ) :   0.9991 B(  4-C , 20-C ) :   1.0245
B(  6-C ,  7-H ) :   0.9396 B(  6-C ,  8-H ) :   0.9483 B(  6-C ,  9-C ) :   1.0825
B(  9-C , 10-H ) :   0.9518 B(  9-C , 11-H ) :   0.9575 B(  9-C , 12-C ) :   1.0686
B( 12-C , 13-H ) :   0.9748 B( 12-C , 14-H ) :   0.9749 B( 12-C , 15-H ) :   0.9738
B( 16-S , 17-C ) :   1.1670 B( 16-S , 20-C ) :   1.1454 B( 17-C , 18-C ) :   1.5901
B( 17-C , 20-C ) :   0.1144 B( 17-C , 33-H ) :   0.9573 B( 18-C , 19-C ) :   1.2598
B( 18-C , 21-H ) :   0.9929 B( 19-C , 20-C ) :   1.5691 B( 19-C , 22-C ) :   1.0294
B( 22-C , 23-H ) :   0.9510 B( 22-C , 24-H ) :   0.9329 B( 22-C , 25-C ) :   1.0532
B( 25-C , 26-H ) :   0.9584 B( 25-C , 27-H ) :   0.9540 B( 25-C , 28-C ) :   1.0772
B( 28-C , 29-H ) :   0.9714 B( 28-C , 30-H ) :   0.9733 B( 28-C , 31-H ) :   0.9693

Dispersion correction           -0.014789153
FINAL SINGLE POINT ENERGY     -1339.856747666120

DIPOLE MOMENT
-------------
                                X             Y             Z
Electronic contribution:    -17.32582      -3.28871      -8.80089
Nuclear contribution   :     17.92282       3.34662       9.03364
                        -----------------------------------------
Total Dipole Moment    :      0.59699       0.05791       0.23276
                        -----------------------------------------
Magnitude (a.u.)       :      0.64337
Magnitude (Debye)      :      1.63533

Rotational constants in cm-1:     0.021456     0.007967     0.007098
Rotational constants in MHz :   643.249524   238.848962   212.783675

                             ****ORCA TERMINATED NORMALLY****
TOTAL RUN TIME: 0 days 0 hours 0 minutes 30 seconds 208 msec
