                         Program Version 4.2.1 -  RELEASE  -
|  1> ! wB97X-D3 SP def2-SVP
|  2> %pal
|  3> nprocs 16
|  4> end
|  5>
|  6> * xyz 0 1
|  7> S 	 5.20587 	 20.0536 	 51.4898
|  8> C 	 4.57331 	 19.5279 	 53.0621
|  9> C 	 4.81966 	 18.2122 	 53.2882
| 10> C 	 5.81424 	 17.6805 	 52.3998
| 11> C 	 6.14026 	 18.5329 	 51.3253
| 12> H 	 6.32722 	 16.7396 	 52.4719
| 13> C 	 4.40991 	 17.5681 	 54.6166
| 14> H 	 3.94375 	 16.5624 	 54.3567
| 15> H 	 3.72503 	 18.1755 	 55.2
| 16> C 	 5.59484 	 17.2354 	 55.5426
| 17> H 	 6.41834 	 16.9311 	 54.9299
| 18> H 	 5.83979 	 18.1807 	 56.0588
| 19> C 	 5.29612 	 16.1101 	 56.5279
| 20> H 	 6.20732 	 15.9801 	 57.1335
| 21> H 	 4.54452 	 16.4225 	 57.2558
| 22> H 	 5.09056 	 15.1664 	 56.0427
| 23> S 	 8.5659 	 17.5198 	 50.5729
| 24> C 	 9.10175 	 17.6655 	 48.8648
| 25> C 	 8.1376 	 18.287 	 48.127
| 26> C 	 7.02189 	 18.7311 	 48.9025
| 27> C 	 7.04533 	 18.2842 	 50.2056
| 28> H 	 8.36637 	 18.518 	 47.0779
| 29> C 	 5.97967 	 19.5439 	 48.2809
| 30> H 	 5.14465 	 19.5016 	 48.9894
| 31> H 	 5.50981 	 19.1322 	 47.3858
| 32> C 	 6.36313 	 20.9828 	 47.8511
| 33> H 	 5.37561 	 21.4436 	 47.5523
| 34> H 	 6.95665 	 21.02 	 46.9756
| 35> C 	 6.91115 	 21.8111 	 48.9814
| 36> H 	 7.0774 	 22.8649 	 48.7141
| 37> H 	 7.96283 	 21.535 	 49.3681
| 38> H 	 6.22178 	 21.7546 	 49.8574
| 39> H 	 4.03185 	 20.1454 	 53.7359
| 40> H 	 10.0723 	 17.41 	 48.5208
| 41> *
| 42>
| 43>                          ****END OF INPUT****

CARTESIAN COORDINATES (ANGSTROEM)
---------------------------------
  S      5.205870   20.053600   51.489800
  C      4.573310   19.527900   53.062100
  C      4.819660   18.212200   53.288200
  C      5.814240   17.680500   52.399800
  C      6.140260   18.532900   51.325300
  H      6.327220   16.739600   52.471900
  C      4.409910   17.568100   54.616600
  H      3.943750   16.562400   54.356700
  H      3.725030   18.175500   55.200000
  C      5.594840   17.235400   55.542600
  H      6.418340   16.931100   54.929900
  H      5.839790   18.180700   56.058800
  C      5.296120   16.110100   56.527900
  H      6.207320   15.980100   57.133500
  H      4.544520   16.422500   57.255800
  H      5.090560   15.166400   56.042700
  S      8.565900   17.519800   50.572900
  C      9.101750   17.665500   48.864800
  C      8.137600   18.287000   48.127000
  C      7.021890   18.731100   48.902500
  C      7.045330   18.284200   50.205600
  H      8.366370   18.518000   47.077900
  C      5.979670   19.543900   48.280900
  H      5.144650   19.501600   48.989400
  H      5.509810   19.132200   47.385800
  C      6.363130   20.982800   47.851100
  H      5.375610   21.443600   47.552300
  H      6.956650   21.020000   46.975600
  C      6.911150   21.811100   48.981400
  H      7.077400   22.864900   48.714100
  H      7.962830   21.535000   49.368100
  H      6.221780   21.754600   49.857400
  H      4.031850   20.145400   53.735900
  H     10.072300   17.410000   48.520800

 Total Charge           Charge          ....    0
 Multiplicity           Mult            ....    1
 Number of Electrons    NEL             ....  134
 Basis Dimension        Dim             ....  322

ORBITAL ENERGIES
----------------

  NO   OCC          E(Eh)            E(eV)
   0   2.0000     -88.967848     -2420.9382
   1   2.0000     -88.964831     -2420.8561
   2   2.0000     -10.339369      -281.3485
   3   2.0000     -10.328554      -281.0542
   4   2.0000     -10.318330      -280.7760
   5   2.0000     -10.312862      -280.6273
   6   2.0000     -10.302948      -280.3575
   7   2.0000     -10.300660      -280.2952
   8   2.0000     -10.298268      -280.2301
   9   2.0000     -10.296353      -280.1780
  10   2.0000     -10.294350      -280.1235
  11   2.0000     -10.285707      -279.8883
  12   2.0000     -10.284015      -279.8423
  13   2.0000     -10.283783      -279.8360
  14   2.0000     -10.278960      -279.7047
  15   2.0000     -10.275645      -279.6145
  16   2.0000      -8.080790      -219.8895
  17   2.0000      -8.079164      -219.8452
  18   2.0000      -6.039488      -164.3428
  19   2.0000      -6.037873      -164.2989
  20   2.0000      -6.035550      -164.2357
  21   2.0000      -6.033791      -164.1878
  22   2.0000      -6.031414      -164.1231
  23   2.0000      -6.029686      -164.0761
  24   2.0000      -1.005573       -27.3630
  25   2.0000      -0.982420       -26.7330
  26   2.0000      -0.911545       -24.8044
  27   2.0000      -0.909547       -24.7500
  28   2.0000      -0.873776       -23.7767
  29   2.0000      -0.848429       -23.0869
  30   2.0000      -0.842456       -22.9244
  31   2.0000      -0.818037       -22.2599
  32   2.0000      -0.781006       -21.2523
  33   2.0000      -0.769366       -20.9355
  34   2.0000      -0.711547       -19.3622
  35   2.0000      -0.697768       -18.9872
  36   2.0000      -0.688056       -18.7229
  37   2.0000      -0.666672       -18.1411
  38   2.0000      -0.637304       -17.3419
  39   2.0000      -0.620566       -16.8865
  40   2.0000      -0.598221       -16.2784
  41   2.0000      -0.570089       -15.5129
  42   2.0000      -0.568838       -15.4789
  43   2.0000      -0.552746       -15.0410
  44   2.0000      -0.537264       -14.6197
  45   2.0000      -0.525008       -14.2862
  46   2.0000      -0.518404       -14.1065
  47   2.0000      -0.512788       -13.9537
  48   2.0000      -0.508577       -13.8391
  49   2.0000      -0.499216       -13.5844
  50   2.0000      -0.487881       -13.2759
  51   2.0000      -0.480482       -13.0746
  52   2.0000      -0.472485       -12.8570
  53   2.0000      -0.466565       -12.6959
  54   2.0000      -0.458464       -12.4754
  55   2.0000      -0.445257       -12.1161
  56   2.0000      -0.437690       -11.9102
  57   2.0000      -0.434794       -11.8314
  58   2.0000      -0.432628       -11.7724
  59   2.0000      -0.426386       -11.6025
  60   2.0000      -0.423463       -11.5230
  61   2.0000      -0.408244       -11.1089
  62   2.0000      -0.398223       -10.8362
  63   2.0000      -0.358682        -9.7602
  64   2.0000      -0.330611        -8.9964
  65   2.0000      -0.328898        -8.9498
  66   2.0000      -0.287014        -7.8100
  67   0.0000       0.024339         0.6623
  68   0.0000       0.073046         1.9877
  69   0.0000       0.103868         2.8264
  70   0.0000       0.111921         3.0455
  71   0.0000       0.131382         3.5751

MULLIKEN ATOMIC CHARGES
-----------------------
   0 S :    0.081525
   1 C :   -0.102292
   2 C :   -0.031035
   3 C :   -0.004702
   4 C :   -0.125569
   5 H :    0.015371
   6 C :    0.027863
   7 H :    0.034720
   8 H :    0.023452
   9 C :   -0.081781
  10 H :    0.024674
  11 H :    0.030988
  12 C :   -0.044484
  13 H :    0.032218
  14 H :    0.033512
  15 H :    0.038110
  16 S :    0.083746
  17 C :   -0.083712
  18 C :   -0.018527
  19 C :   -0.049920
  20 C :   -0.105325
  21 H :    0.029298
  22 C :    0.024065
  23 H :    0.017329
  24 H :    0.028067
  25 C :   -0.044362
  26 H :    0.033688
  27 H :    0.022697
  28 C :   -0.091884
  29 H :    0.030949
  30 H :    0.045269
  31 H :    0.042959
  32 H :    0.037411
  33 H :    0.045683
Sum of atomic charges:    0.0000000

LOEWDIN ATOMIC CHARGES
----------------------
   0 S :    0.402263
   1 C :   -0.178019
   2 C :   -0.062495
   3 C :   -0.062779
   4 C :   -0.167598
   5 H :    0.026715
   6 C :   -0.031666
   7 H :    0.035366
   8 H :    0.025824
   9 C :   -0.040836
  10 H :    0.018987
  11 H :    0.027062
  12 C :   -0.064814
  13 H :    0.030636
  14 H :    0.025585
  15 H :    0.024222
  16 S :    0.386990
  17 C :   -0.160849
  18 C :   -0.064051
  19 C :   -0.065546
  20 C :   -0.194742
  21 H :    0.037993
  22 C :   -0.046106
  23 H :    0.018365
  24 H :    0.035260
  25 C :   -0.037353
  26 H :    0.034646
  27 H :    0.015394
  28 C :   -0.086115
  29 H :    0.024955
  30 H :    0.033022
  31 H :    0.013575
  32 H :    0.022854
  33 H :    0.023253

  Mayer bond orders larger than 0.100000
B(  0-S ,  1-C ) :   1.1192 B(  0-S ,  4-C ) :   1.1212 B(  1-C ,  2-C ) :   1.6362
B(  1-C , 32-H ) :   0.9719 B(  2-C ,  3-C ) :   1.2012 B(  2-C ,  6-C ) :   1.0379
B(  3-C ,  4-C ) :   1.5864 B(  3-C ,  5-H ) :   0.9893 B(  4-C , 20-C ) :   1.0618
B(  6-C ,  7-H ) :   0.9362 B(  6-C ,  8-H ) :   0.9516 B(  6-C ,  9-C ) :   1.0534
B(  9-C , 10-H ) :   0.9581 B(  9-C , 11-H ) :   0.9544 B(  9-C , 12-C ) :   1.0894
B( 12-C , 13-H ) :   0.9714 B( 12-C , 14-H ) :   0.9747 B( 12-C , 15-H ) :   0.9739
B( 16-S , 17-C ) :   1.1297 B( 16-S , 20-C ) :   1.1267 B( 17-C , 18-C ) :   1.6353
B( 17-C , 33-H ) :   0.9725 B( 18-C , 19-C ) :   1.2089 B( 18-C , 21-H ) :   0.9886
B( 19-C , 20-C ) :   1.5897 B( 19-C , 22-C ) :   1.0650 B( 22-C , 23-H ) :   0.9261
B( 22-C , 24-H ) :   0.9291 B( 22-C , 25-C ) :   1.0682 B( 25-C , 26-H ) :   0.9509
B( 25-C , 27-H ) :   0.9561 B( 25-C , 28-C ) :   1.0774 B( 28-C , 29-H ) :   0.9705
B( 28-C , 30-H ) :   0.9693 B( 28-C , 31-H ) :   0.9670

Dispersion correction           -0.014747527
FINAL SINGLE POINT ENERGY     -1339.882735305747

DIPOLE MOMENT
-------------
                                X             Y             Z
Electronic contribution:      5.73800      -1.69796      -8.44609
Nuclear contribution   :     -5.74882       1.70404       8.51490
                        -----------------------------------------
Total Dipole Moment    :     -0.01082       0.00608       0.06881
                        -----------------------------------------
Magnitude (a.u.)       :      0.06992
Magnitude (Debye)      :      0.17773

Rotational constants in cm-1:     0.024219     0.008045     0.006410
Rotational constants in MHz :   726.069338   241.192855   192.178663

                             ****ORCA TERMINATED NORMALLY****
TOTAL RUN TIME: 0 days 0 hours 0 minutes 35 seconds 153 msec
