                         Program Version 4.2.1 -  RELEASE  -
|  1> ! wB97X-D3 SP def2-SVP
|  2> %pal
|  3> nprocs 16
|  4> end
|  5>
|  6> * xyz 0 1
|  7> S 	 -7.99335 	 52.9448 	 29.3379
|  8> C 	 -7.63008 	 51.667 	 28.2804
|  9> C 	 -6.30863 	 51.6086 	 27.8603
| 10> C 	 -5.52335 	 52.5844 	 28.5375
| 11> C 	 -6.2739 	 53.3534 	 29.3704
| 12> H 	 -4.41587 	 52.6701 	 28.5078
| 13> C 	 -5.66285 	 50.5078 	 27.0166
| 14> H 	 -5.01577 	 50.883 	 26.1985
| 15> H 	 -6.41559 	 49.9075 	 26.5867
| 16> C 	 -4.91407 	 49.4436 	 27.9198
| 17> H 	 -4.06142 	 49.9664 	 28.3374
| 18> H 	 -5.51479 	 49.1074 	 28.7159
| 19> C 	 -4.46743 	 48.2493 	 27.0923
| 20> H 	 -5.21429 	 47.5967 	 26.7753
| 21> H 	 -3.7833 	 48.4955 	 26.3202
| 22> H 	 -3.97891 	 47.618 	 27.789
| 23> S 	 -6.26293 	 56.0088 	 30.0048
| 24> C 	 -5.50697 	 56.5016 	 31.6068
| 25> C 	 -4.68032 	 55.4537 	 32.0704
| 26> C 	 -4.84703 	 54.2575 	 31.3032
| 27> C 	 -5.80671 	 54.3436 	 30.2781
| 28> H 	 -4.03961 	 55.6794 	 32.9083
| 29> C 	 -4.1605 	 52.9135 	 31.6963
| 30> H 	 -3.45807 	 53.1371 	 32.4106
| 31> H 	 -3.67522 	 52.5272 	 30.7782
| 32> C 	 -5.2449 	 52.0738 	 32.4326
| 33> H 	 -4.82848 	 51.1218 	 32.739
| 34> H 	 -5.96714 	 51.7918 	 31.6549
| 35> C 	 -5.8509 	 52.6563 	 33.7759
| 36> H 	 -5.00972 	 52.7042 	 34.4328
| 37> H 	 -6.63755 	 51.9626 	 34.0774
| 38> H 	 -6.24845 	 53.7029 	 33.7087
| 39> H 	 -8.31901 	 50.9622 	 27.8486
| 40> H 	 -5.46408 	 57.462 	 31.947
| 41> *
| 42>
| 43>                          ****END OF INPUT****

CARTESIAN COORDINATES (ANGSTROEM)
---------------------------------
  S     -7.993350   52.944800   29.337900
  C     -7.630080   51.667000   28.280400
  C     -6.308630   51.608600   27.860300
  C     -5.523350   52.584400   28.537500
  C     -6.273900   53.353400   29.370400
  H     -4.415870   52.670100   28.507800
  C     -5.662850   50.507800   27.016600
  H     -5.015770   50.883000   26.198500
  H     -6.415590   49.907500   26.586700
  C     -4.914070   49.443600   27.919800
  H     -4.061420   49.966400   28.337400
  H     -5.514790   49.107400   28.715900
  C     -4.467430   48.249300   27.092300
  H     -5.214290   47.596700   26.775300
  H     -3.783300   48.495500   26.320200
  H     -3.978910   47.618000   27.789000
  S     -6.262930   56.008800   30.004800
  C     -5.506970   56.501600   31.606800
  C     -4.680320   55.453700   32.070400
  C     -4.847030   54.257500   31.303200
  C     -5.806710   54.343600   30.278100
  H     -4.039610   55.679400   32.908300
  C     -4.160500   52.913500   31.696300
  H     -3.458070   53.137100   32.410600
  H     -3.675220   52.527200   30.778200
  C     -5.244900   52.073800   32.432600
  H     -4.828480   51.121800   32.739000
  H     -5.967140   51.791800   31.654900
  C     -5.850900   52.656300   33.775900
  H     -5.009720   52.704200   34.432800
  H     -6.637550   51.962600   34.077400
  H     -6.248450   53.702900   33.708700
  H     -8.319010   50.962200   27.848600
  H     -5.464080   57.462000   31.947000

 Total Charge           Charge          ....    0
 Multiplicity           Mult            ....    1
 Number of Electrons    NEL             ....  134
 Basis Dimension        Dim             ....  322

ORBITAL ENERGIES
----------------

  NO   OCC          E(Eh)            E(eV)
   0   2.0000     -88.969683     -2420.9882
   1   2.0000     -88.962393     -2420.7898
   2   2.0000     -10.322847      -280.8989
   3   2.0000     -10.320977      -280.8481
   4   2.0000     -10.317397      -280.7506
   5   2.0000     -10.309557      -280.5373
   6   2.0000     -10.303998      -280.3860
   7   2.0000     -10.299347      -280.2595
   8   2.0000     -10.299148      -280.2541
   9   2.0000     -10.294988      -280.1409
  10   2.0000     -10.292174      -280.0643
  11   2.0000     -10.288309      -279.9591
  12   2.0000     -10.284574      -279.8575
  13   2.0000     -10.283947      -279.8404
  14   2.0000     -10.279136      -279.7095
  15   2.0000     -10.267316      -279.3879
  16   2.0000      -8.084842      -219.9997
  17   2.0000      -8.075850      -219.7550
  18   2.0000      -6.043158      -164.4427
  19   2.0000      -6.039428      -164.3412
  20   2.0000      -6.035621      -164.2376
  21   2.0000      -6.034411      -164.2047
  22   2.0000      -6.030675      -164.1030
  23   2.0000      -6.026505      -163.9895
  24   2.0000      -1.008413       -27.4403
  25   2.0000      -0.975999       -26.5583
  26   2.0000      -0.910453       -24.7747
  27   2.0000      -0.897495       -24.4221
  28   2.0000      -0.872129       -23.7318
  29   2.0000      -0.856613       -23.3096
  30   2.0000      -0.834313       -22.7028
  31   2.0000      -0.814262       -22.1572
  32   2.0000      -0.782897       -21.3037
  33   2.0000      -0.768790       -20.9198
  34   2.0000      -0.711361       -19.3571
  35   2.0000      -0.701685       -19.0938
  36   2.0000      -0.687657       -18.7121
  37   2.0000      -0.664474       -18.0812
  38   2.0000      -0.644116       -17.5273
  39   2.0000      -0.621707       -16.9175
  40   2.0000      -0.581291       -15.8177
  41   2.0000      -0.576240       -15.6803
  42   2.0000      -0.563763       -15.3408
  43   2.0000      -0.553733       -15.0678
  44   2.0000      -0.539215       -14.6728
  45   2.0000      -0.523924       -14.2567
  46   2.0000      -0.518890       -14.1197
  47   2.0000      -0.508299       -13.8315
  48   2.0000      -0.500346       -13.6151
  49   2.0000      -0.495691       -13.4884
  50   2.0000      -0.489713       -13.3258
  51   2.0000      -0.481434       -13.1005
  52   2.0000      -0.471404       -12.8275
  53   2.0000      -0.465409       -12.6644
  54   2.0000      -0.459833       -12.5127
  55   2.0000      -0.448617       -12.2075
  56   2.0000      -0.441571       -12.0158
  57   2.0000      -0.437647       -11.9090
  58   2.0000      -0.433349       -11.7920
  59   2.0000      -0.431591       -11.7442
  60   2.0000      -0.417967       -11.3735
  61   2.0000      -0.414475       -11.2784
  62   2.0000      -0.406251       -11.0547
  63   2.0000      -0.344264        -9.3679
  64   2.0000      -0.329853        -8.9758
  65   2.0000      -0.323553        -8.8043
  66   2.0000      -0.290783        -7.9126
  67   0.0000       0.029916         0.8141
  68   0.0000       0.062048         1.6884
  69   0.0000       0.102524         2.7898
  70   0.0000       0.119076         3.2402
  71   0.0000       0.130538         3.5521

MULLIKEN ATOMIC CHARGES
-----------------------
   0 S :    0.143550
   1 C :   -0.101990
   2 C :   -0.089470
   3 C :    0.030538
   4 C :   -0.189066
   5 H :    0.031669
   6 C :    0.066511
   7 H :    0.041196
   8 H :   -0.003405
   9 C :   -0.079223
  10 H :    0.021909
  11 H :    0.023843
  12 C :    0.006526
  13 H :    0.017220
  14 H :    0.027855
  15 H :    0.012745
  16 S :    0.092104
  17 C :   -0.070122
  18 C :   -0.047013
  19 C :   -0.055430
  20 C :   -0.162436
  21 H :    0.025340
  22 C :    0.143284
  23 H :   -0.014855
  24 H :    0.033458
  25 C :   -0.094225
  26 H :    0.018766
  27 H :    0.038281
  28 C :   -0.058047
  29 H :    0.024437
  30 H :    0.049211
  31 H :    0.055616
  32 H :    0.035929
  33 H :    0.025295
Sum of atomic charges:   -0.0000000

LOEWDIN ATOMIC CHARGES
----------------------
   0 S :    0.429213
   1 C :   -0.211085
   2 C :   -0.064886
   3 C :   -0.054814
   4 C :   -0.197164
   5 H :    0.039469
   6 C :   -0.029638
   7 H :    0.034489
   8 H :    0.018865
   9 C :   -0.025575
  10 H :    0.019330
  11 H :    0.020068
  12 C :   -0.057969
  13 H :    0.018856
  14 H :    0.022624
  15 H :    0.027005
  16 S :    0.373737
  17 C :   -0.149743
  18 C :   -0.065418
  19 C :   -0.051653
  20 C :   -0.206810
  21 H :    0.033466
  22 C :   -0.022543
  23 H :    0.012021
  24 H :    0.033012
  25 C :   -0.037597
  26 H :    0.017601
  27 H :    0.021326
  28 C :   -0.061421
  29 H :    0.019446
  30 H :    0.032448
  31 H :    0.031699
  32 H :    0.025271
  33 H :    0.006368

  Mayer bond orders larger than 0.100000
B(  0-S ,  1-C ) :   1.1479 B(  0-S ,  4-C ) :   1.1395 B(  1-C ,  2-C ) :   1.6268
B(  1-C , 32-H ) :   0.9599 B(  2-C ,  3-C ) :   1.2222 B(  2-C ,  6-C ) :   1.0409
B(  3-C ,  4-C ) :   1.6007 B(  3-C ,  5-H ) :   0.9891 B(  4-C , 20-C ) :   1.0489
B(  6-C ,  7-H ) :   0.9424 B(  6-C ,  8-H ) :   0.9386 B(  6-C ,  9-C ) :   1.0538
B(  9-C , 10-H ) :   0.9566 B(  9-C , 11-H ) :   0.9566 B(  9-C , 12-C ) :   1.0975
B( 12-C , 13-H ) :   0.9708 B( 12-C , 14-H ) :   0.9732 B( 12-C , 15-H ) :   0.9656
B( 16-S , 17-C ) :   1.1369 B( 16-S , 20-C ) :   1.1526 B( 17-C , 18-C ) :   1.6027
B( 17-C , 20-C ) :   0.1158 B( 17-C , 33-H ) :   0.9791 B( 18-C , 19-C ) :   1.2411
B( 18-C , 21-H ) :   0.9907 B( 19-C , 20-C ) :   1.5645 B( 19-C , 22-C ) :   1.0374
B( 22-C , 23-H ) :   0.9260 B( 22-C , 24-H ) :   0.9369 B( 22-C , 25-C ) :   1.0629
B( 25-C , 26-H ) :   0.9577 B( 25-C , 27-H ) :   0.9625 B( 25-C , 28-C ) :   1.0556
B( 28-C , 29-H ) :   0.9767 B( 28-C , 30-H ) :   0.9747 B( 28-C , 31-H ) :   0.9747

Dispersion correction           -0.015621650
FINAL SINGLE POINT ENERGY     -1339.856971912419

DIPOLE MOMENT
-------------
                                X             Y             Z
Electronic contribution:    -12.54579      23.92365      -3.45885
Nuclear contribution   :     13.06332     -24.53885       3.55956
                        -----------------------------------------
Total Dipole Moment    :      0.51753      -0.61521       0.10070
                        -----------------------------------------
Magnitude (a.u.)       :      0.81022
Magnitude (Debye)      :      2.05942

Rotational constants in cm-1:     0.021161     0.008596     0.007387
Rotational constants in MHz :   634.393602   257.714118   221.466971

                             ****ORCA TERMINATED NORMALLY****
TOTAL RUN TIME: 0 days 0 hours 0 minutes 34 seconds 104 msec
