                         Program Version 4.2.1 -  RELEASE  -
|  1> ! wB97X-D3 SP def2-SVP
|  2> %pal
|  3> nprocs 16
|  4> end
|  5>
|  6> * xyz 0 1
|  7> S 	 -1.50734 	 75.5538 	 52.1717
|  8> C 	 -2.125 	 76.5055 	 53.5526
|  9> C 	 -3.02595 	 77.4292 	 53.0358
| 10> C 	 -3.26455 	 77.3568 	 51.6029
| 11> C 	 -2.61533 	 76.2992 	 51.0357
| 12> H 	 -3.82894 	 78.0136 	 50.9773
| 13> C 	 -3.57905 	 78.5409 	 53.9016
| 14> H 	 -3.05351 	 79.5079 	 53.8205
| 15> H 	 -3.61189 	 78.1957 	 54.9481
| 16> C 	 -5.0569 	 78.9425 	 53.5389
| 17> H 	 -5.26119 	 79.1692 	 52.5031
| 18> H 	 -5.6865 	 78.0734 	 53.7397
| 19> C 	 -5.6922 	 80.0598 	 54.3419
| 20> H 	 -5.54007 	 79.6907 	 55.3179
| 21> H 	 -5.16388 	 80.952 	 54.236
| 22> H 	 -6.79741 	 80.1474 	 54.1881
| 23> S 	 -1.22525 	 75.8491 	 48.7568
| 24> C 	 -2.05394 	 75.1751 	 47.3278
| 25> C 	 -3.4213 	 75.1897 	 47.4726
| 26> C 	 -3.79544 	 75.5825 	 48.7953
| 27> C 	 -2.7154 	 75.8776 	 49.642
| 28> H 	 -4.07796 	 74.8892 	 46.6324
| 29> C 	 -5.22533 	 75.6905 	 49.3297
| 30> H 	 -5.24396 	 75.6314 	 50.4597
| 31> H 	 -5.79009 	 74.9066 	 48.8803
| 32> C 	 -5.99856 	 76.9751 	 48.9113
| 33> H 	 -5.77587 	 77.1491 	 47.8056
| 34> H 	 -5.52224 	 77.7813 	 49.5502
| 35> C 	 -7.56246 	 76.9206 	 49.1751
| 36> H 	 -7.84628 	 76.564 	 50.1899
| 37> H 	 -7.8881 	 76.2317 	 48.4014
| 38> H 	 -7.9176 	 77.892 	 49.1715
| 39> H 	 -1.94477 	 76.471 	 54.6329
| 40> H 	 -1.61751 	 74.874 	 46.3787
| 41> *
| 42>
| 43>                          ****END OF INPUT****

CARTESIAN COORDINATES (ANGSTROEM)
---------------------------------
  S     -1.507340   75.553800   52.171700
  C     -2.125000   76.505500   53.552600
  C     -3.025950   77.429200   53.035800
  C     -3.264550   77.356800   51.602900
  C     -2.615330   76.299200   51.035700
  H     -3.828940   78.013600   50.977300
  C     -3.579050   78.540900   53.901600
  H     -3.053510   79.507900   53.820500
  H     -3.611890   78.195700   54.948100
  C     -5.056900   78.942500   53.538900
  H     -5.261190   79.169200   52.503100
  H     -5.686500   78.073400   53.739700
  C     -5.692200   80.059800   54.341900
  H     -5.540070   79.690700   55.317900
  H     -5.163880   80.952000   54.236000
  H     -6.797410   80.147400   54.188100
  S     -1.225250   75.849100   48.756800
  C     -2.053940   75.175100   47.327800
  C     -3.421300   75.189700   47.472600
  C     -3.795440   75.582500   48.795300
  C     -2.715400   75.877600   49.642000
  H     -4.077960   74.889200   46.632400
  C     -5.225330   75.690500   49.329700
  H     -5.243960   75.631400   50.459700
  H     -5.790090   74.906600   48.880300
  C     -5.998560   76.975100   48.911300
  H     -5.775870   77.149100   47.805600
  H     -5.522240   77.781300   49.550200
  C     -7.562460   76.920600   49.175100
  H     -7.846280   76.564000   50.189900
  H     -7.888100   76.231700   48.401400
  H     -7.917600   77.892000   49.171500
  H     -1.944770   76.471000   54.632900
  H     -1.617510   74.874000   46.378700

 Total Charge           Charge          ....    0
 Multiplicity           Mult            ....    1
 Number of Electrons    NEL             ....  134
 Basis Dimension        Dim             ....  322

ORBITAL ENERGIES
----------------

  NO   OCC          E(Eh)            E(eV)
   0   2.0000     -88.968766     -2420.9632
   1   2.0000     -88.966951     -2420.9138
   2   2.0000     -10.332059      -281.1496
   3   2.0000     -10.327316      -281.0206
   4   2.0000     -10.321567      -280.8641
   5   2.0000     -10.320510      -280.8354
   6   2.0000     -10.307963      -280.4939
   7   2.0000     -10.306680      -280.4590
   8   2.0000     -10.300624      -280.2942
   9   2.0000     -10.299460      -280.2625
  10   2.0000     -10.298284      -280.2305
  11   2.0000     -10.295821      -280.1635
  12   2.0000     -10.290801      -280.0269
  13   2.0000     -10.281988      -279.7871
  14   2.0000     -10.280994      -279.7601
  15   2.0000     -10.271366      -279.4981
  16   2.0000      -8.082602      -219.9388
  17   2.0000      -8.081435      -219.9070
  18   2.0000      -6.041407      -164.3950
  19   2.0000      -6.039990      -164.3565
  20   2.0000      -6.037170      -164.2798
  21   2.0000      -6.036017      -164.2484
  22   2.0000      -6.033129      -164.1698
  23   2.0000      -6.032102      -164.1418
  24   2.0000      -1.006898       -27.3991
  25   2.0000      -0.982065       -26.7233
  26   2.0000      -0.910951       -24.7882
  27   2.0000      -0.900344       -24.4996
  28   2.0000      -0.874945       -23.8085
  29   2.0000      -0.848192       -23.0805
  30   2.0000      -0.845053       -22.9951
  31   2.0000      -0.821777       -22.3617
  32   2.0000      -0.780204       -21.2304
  33   2.0000      -0.769502       -20.9392
  34   2.0000      -0.710349       -19.3296
  35   2.0000      -0.691001       -18.8031
  36   2.0000      -0.685739       -18.6599
  37   2.0000      -0.660668       -17.9777
  38   2.0000      -0.643273       -17.5044
  39   2.0000      -0.619526       -16.8581
  40   2.0000      -0.589232       -16.0338
  41   2.0000      -0.575286       -15.6543
  42   2.0000      -0.572012       -15.5652
  43   2.0000      -0.565477       -15.3874
  44   2.0000      -0.528448       -14.3798
  45   2.0000      -0.523793       -14.2531
  46   2.0000      -0.513449       -13.9717
  47   2.0000      -0.511528       -13.9194
  48   2.0000      -0.507093       -13.7987
  49   2.0000      -0.504678       -13.7330
  50   2.0000      -0.500170       -13.6103
  51   2.0000      -0.481895       -13.1130
  52   2.0000      -0.474941       -12.9238
  53   2.0000      -0.463120       -12.6021
  54   2.0000      -0.458907       -12.4875
  55   2.0000      -0.450493       -12.2585
  56   2.0000      -0.445534       -12.1236
  57   2.0000      -0.428636       -11.6638
  58   2.0000      -0.424619       -11.5545
  59   2.0000      -0.422165       -11.4877
  60   2.0000      -0.420965       -11.4551
  61   2.0000      -0.416580       -11.3357
  62   2.0000      -0.411585       -11.1998
  63   2.0000      -0.348811        -9.4916
  64   2.0000      -0.329566        -8.9680
  65   2.0000      -0.328807        -8.9473
  66   2.0000      -0.296443        -8.0666
  67   0.0000       0.027530         0.7491
  68   0.0000       0.065829         1.7913
  69   0.0000       0.105158         2.8615
  70   0.0000       0.121369         3.3026
  71   0.0000       0.123926         3.3722

MULLIKEN ATOMIC CHARGES
-----------------------
   0 S :    0.111960
   1 C :   -0.113158
   2 C :   -0.079440
   3 C :    0.047532
   4 C :   -0.136570
   5 H :    0.007182
   6 C :    0.055666
   7 H :    0.050617
   8 H :    0.024690
   9 C :   -0.139116
  10 H :    0.024105
  11 H :    0.021277
  12 C :   -0.005998
  13 H :    0.006591
  14 H :    0.020703
  15 H :    0.046472
  16 S :    0.106263
  17 C :   -0.088789
  18 C :   -0.047764
  19 C :   -0.017907
  20 C :   -0.168781
  21 H :    0.036404
  22 C :    0.052512
  23 H :    0.052167
  24 H :    0.003594
  25 C :   -0.139530
  26 H :    0.042767
  27 H :    0.024373
  28 C :   -0.012400
  29 H :    0.032306
  30 H :    0.043230
  31 H :    0.027448
  32 H :    0.056442
  33 H :    0.055151
Sum of atomic charges:   -0.0000000

LOEWDIN ATOMIC CHARGES
----------------------
   0 S :    0.393733
   1 C :   -0.193259
   2 C :   -0.061092
   3 C :   -0.057705
   4 C :   -0.189426
   5 H :    0.027256
   6 C :   -0.031840
   7 H :    0.035685
   8 H :    0.031539
   9 C :   -0.049489
  10 H :    0.013923
  11 H :    0.021938
  12 C :   -0.058448
  13 H :    0.018567
  14 H :    0.013864
  15 H :    0.036578
  16 S :    0.401978
  17 C :   -0.175156
  18 C :   -0.074502
  19 C :   -0.053858
  20 C :   -0.203622
  21 H :    0.041946
  22 C :   -0.037842
  23 H :    0.038625
  24 H :    0.019263
  25 C :   -0.044798
  26 H :    0.028643
  27 H :    0.018189
  28 C :   -0.059483
  29 H :    0.030151
  30 H :    0.028739
  31 H :    0.018297
  32 H :    0.040272
  33 H :    0.031332

  Mayer bond orders larger than 0.100000
B(  0-S ,  1-C ) :   1.1117 B(  0-S ,  4-C ) :   1.1437 B(  1-C ,  2-C ) :   1.6336
B(  1-C , 32-H ) :   0.9680 B(  2-C ,  3-C ) :   1.1980 B(  2-C ,  6-C ) :   1.0377
B(  3-C ,  4-C ) :   1.5843 B(  3-C ,  5-H ) :   0.9979 B(  4-C , 20-C ) :   1.0271
B(  6-C ,  7-H ) :   0.9420 B(  6-C ,  8-H ) :   0.9402 B(  6-C ,  9-C ) :   1.0508
B(  9-C , 10-H ) :   0.9561 B(  9-C , 11-H ) :   0.9593 B(  9-C , 12-C ) :   1.0837
B( 12-C , 13-H ) :   0.9731 B( 12-C , 14-H ) :   0.9751 B( 12-C , 15-H ) :   0.9722
B( 16-S , 17-C ) :   1.1439 B( 16-S , 20-C ) :   1.1462 B( 17-C , 18-C ) :   1.6249
B( 17-C , 20-C ) :   0.1005 B( 17-C , 33-H ) :   0.9652 B( 18-C , 19-C ) :   1.2340
B( 18-C , 21-H ) :   0.9849 B( 19-C , 20-C ) :   1.5938 B( 19-C , 22-C ) :   1.0474
B( 22-C , 23-H ) :   0.9359 B( 22-C , 24-H ) :   0.9306 B( 22-C , 25-C ) :   1.0539
B( 25-C , 26-H ) :   0.9587 B( 25-C , 27-H ) :   0.9527 B( 25-C , 28-C ) :   1.0643
B( 28-C , 29-H ) :   0.9752 B( 28-C , 30-H ) :   0.9774 B( 28-C , 31-H ) :   0.9757

Dispersion correction           -0.014231173
FINAL SINGLE POINT ENERGY     -1339.864078544400

DIPOLE MOMENT
-------------
                                X             Y             Z
Electronic contribution:     28.66861     -15.34727      -7.57212
Nuclear contribution   :    -29.29838      15.67170       7.56255
                        -----------------------------------------
Total Dipole Moment    :     -0.62977       0.32443      -0.00957
                        -----------------------------------------
Magnitude (a.u.)       :      0.70849
Magnitude (Debye)      :      1.80083

Rotational constants in cm-1:     0.016594     0.009700     0.006594
Rotational constants in MHz :   497.467216   290.788900   197.677742

                             ****ORCA TERMINATED NORMALLY****
TOTAL RUN TIME: 0 days 0 hours 0 minutes 32 seconds 820 msec
