                         Program Version 4.2.1 -  RELEASE  -
|  1> ! wB97X-D3 SP def2-SVP
|  2> %pal
|  3> nprocs 16
|  4> end
|  5>
|  6> * xyz 0 1
|  7> S 	 -56.5749 	 54.6939 	 134.204
|  8> C 	 -55.1565 	 55.6222 	 134.136
|  9> C 	 -55.0517 	 56.667 	 135.018
| 10> C 	 -56.2827 	 56.8154 	 135.703
| 11> C 	 -57.2373 	 55.8794 	 135.385
| 12> H 	 -56.5576 	 57.6195 	 136.443
| 13> C 	 -53.9661 	 57.6462 	 135.058
| 14> H 	 -54.4115 	 58.5808 	 134.606
| 15> H 	 -53.074 	 57.402 	 134.493
| 16> C 	 -53.3977 	 57.8749 	 136.524
| 17> H 	 -54.1519 	 58.078 	 137.306
| 18> H 	 -52.9015 	 56.8592 	 136.801
| 19> C 	 -52.3959 	 59.0231 	 136.684
| 20> H 	 -52.5788 	 59.9354 	 136.137
| 21> H 	 -52.2663 	 59.2347 	 137.762
| 22> H 	 -51.3658 	 58.6843 	 136.364
| 23> S 	 -59.7887 	 55.118 	 134.946
| 24> C 	 -61.0534 	 55.2824 	 136.148
| 25> C 	 -60.4652 	 55.5349 	 137.322
| 26> C 	 -59.0733 	 55.8283 	 137.233
| 27> C 	 -58.567 	 55.6785 	 135.932
| 28> H 	 -61.0284 	 55.4363 	 138.226
| 29> C 	 -58.3121 	 56.2579 	 138.476
| 30> H 	 -59.1223 	 56.704 	 139.074
| 31> H 	 -57.6972 	 57.1239 	 138.186
| 32> C 	 -57.4839 	 55.1134 	 139.162
| 33> H 	 -57.3652 	 55.3354 	 140.21
| 34> H 	 -56.4203 	 55.2001 	 138.814
| 35> C 	 -58.1639 	 53.7207 	 139.157
| 36> H 	 -57.3469 	 53.0771 	 139.574
| 37> H 	 -58.4138 	 53.4713 	 138.136
| 38> H 	 -59.0931 	 53.6825 	 139.817
| 39> H 	 -54.3681 	 55.269 	 133.569
| 40> H 	 -62.1589 	 55.2201 	 136.068
| 41> *
| 42>
| 43>                          ****END OF INPUT****

CARTESIAN COORDINATES (ANGSTROEM)
---------------------------------
  S    -56.574900   54.693900  134.204000
  C    -55.156500   55.622200  134.136000
  C    -55.051700   56.667000  135.018000
  C    -56.282700   56.815400  135.703000
  C    -57.237300   55.879400  135.385000
  H    -56.557600   57.619500  136.443000
  C    -53.966100   57.646200  135.058000
  H    -54.411500   58.580800  134.606000
  H    -53.074000   57.402000  134.493000
  C    -53.397700   57.874900  136.524000
  H    -54.151900   58.078000  137.306000
  H    -52.901500   56.859200  136.801000
  C    -52.395900   59.023100  136.684000
  H    -52.578800   59.935400  136.137000
  H    -52.266300   59.234700  137.762000
  H    -51.365800   58.684300  136.364000
  S    -59.788700   55.118000  134.946000
  C    -61.053400   55.282400  136.148000
  C    -60.465200   55.534900  137.322000
  C    -59.073300   55.828300  137.233000
  C    -58.567000   55.678500  135.932000
  H    -61.028400   55.436300  138.226000
  C    -58.312100   56.257900  138.476000
  H    -59.122300   56.704000  139.074000
  H    -57.697200   57.123900  138.186000
  C    -57.483900   55.113400  139.162000
  H    -57.365200   55.335400  140.210000
  H    -56.420300   55.200100  138.814000
  C    -58.163900   53.720700  139.157000
  H    -57.346900   53.077100  139.574000
  H    -58.413800   53.471300  138.136000
  H    -59.093100   53.682500  139.817000
  H    -54.368100   55.269000  133.569000
  H    -62.158900   55.220100  136.068000

 Total Charge           Charge          ....    0
 Multiplicity           Mult            ....    1
 Number of Electrons    NEL             ....  134
 Basis Dimension        Dim             ....  322

ORBITAL ENERGIES
----------------

  NO   OCC          E(Eh)            E(eV)
   0   2.0000     -88.965100     -2420.8634
   1   2.0000     -88.962062     -2420.7808
   2   2.0000     -10.331626      -281.1378
   3   2.0000     -10.321031      -280.8495
   4   2.0000     -10.313536      -280.6456
   5   2.0000     -10.303049      -280.3602
   6   2.0000     -10.300597      -280.2935
   7   2.0000     -10.298767      -280.2437
   8   2.0000     -10.297524      -280.2099
   9   2.0000     -10.297455      -280.2080
  10   2.0000     -10.296884      -280.1925
  11   2.0000     -10.290835      -280.0279
  12   2.0000     -10.287638      -279.9409
  13   2.0000     -10.285039      -279.8702
  14   2.0000     -10.284154      -279.8461
  15   2.0000     -10.282357      -279.7972
  16   2.0000      -8.080487      -219.8812
  17   2.0000      -8.078419      -219.8250
  18   2.0000      -6.038843      -164.3253
  19   2.0000      -6.036978      -164.2745
  20   2.0000      -6.035080      -164.2229
  21   2.0000      -6.032529      -164.1535
  22   2.0000      -6.031206      -164.1175
  23   2.0000      -6.029170      -164.0621
  24   2.0000      -1.016003       -27.6468
  25   2.0000      -0.993306       -27.0292
  26   2.0000      -0.910220       -24.7683
  27   2.0000      -0.900366       -24.5002
  28   2.0000      -0.876436       -23.8490
  29   2.0000      -0.853937       -23.2368
  30   2.0000      -0.842591       -22.9281
  31   2.0000      -0.821367       -22.3505
  32   2.0000      -0.779711       -21.2170
  33   2.0000      -0.767295       -20.8792
  34   2.0000      -0.710320       -19.3288
  35   2.0000      -0.693745       -18.8778
  36   2.0000      -0.686300       -18.6752
  37   2.0000      -0.664314       -18.0769
  38   2.0000      -0.642794       -17.4913
  39   2.0000      -0.626295       -17.0424
  40   2.0000      -0.580313       -15.7911
  41   2.0000      -0.569789       -15.5048
  42   2.0000      -0.559263       -15.2183
  43   2.0000      -0.552629       -15.0378
  44   2.0000      -0.542085       -14.7509
  45   2.0000      -0.527016       -14.3408
  46   2.0000      -0.517588       -14.0843
  47   2.0000      -0.506608       -13.7855
  48   2.0000      -0.504871       -13.7382
  49   2.0000      -0.499564       -13.5938
  50   2.0000      -0.490363       -13.3434
  51   2.0000      -0.481527       -13.1030
  52   2.0000      -0.474773       -12.9192
  53   2.0000      -0.468112       -12.7380
  54   2.0000      -0.458988       -12.4897
  55   2.0000      -0.447541       -12.1782
  56   2.0000      -0.440056       -11.9745
  57   2.0000      -0.436166       -11.8687
  58   2.0000      -0.426035       -11.5930
  59   2.0000      -0.423512       -11.5244
  60   2.0000      -0.420324       -11.4376
  61   2.0000      -0.414831       -11.2881
  62   2.0000      -0.402624       -10.9560
  63   2.0000      -0.360496        -9.8096
  64   2.0000      -0.334941        -9.1142
  65   2.0000      -0.323079        -8.7914
  66   2.0000      -0.283867        -7.7244
  67   0.0000       0.028556         0.7771
  68   0.0000       0.077126         2.0987
  69   0.0000       0.108103         2.9416
  70   0.0000       0.121628         3.3097
  71   0.0000       0.130575         3.5531

MULLIKEN ATOMIC CHARGES
-----------------------
   0 S :    0.106915
   1 C :   -0.088598
   2 C :   -0.043967
   3 C :   -0.021859
   4 C :   -0.124452
   5 H :    0.033230
   6 C :    0.054575
   7 H :    0.053065
   8 H :    0.023395
   9 C :   -0.144040
  10 H :    0.036518
  11 H :    0.047283
  12 C :   -0.050388
  13 H :    0.037061
  14 H :    0.038168
  15 H :    0.028808
  16 S :    0.101779
  17 C :   -0.096161
  18 C :   -0.031336
  19 C :   -0.114411
  20 C :   -0.129688
  21 H :    0.011824
  22 C :    0.088230
  23 H :    0.017725
  24 H :    0.015492
  25 C :   -0.075921
  26 H :    0.019449
  27 H :    0.043242
  28 C :   -0.068267
  29 H :    0.046663
  30 H :    0.056870
  31 H :    0.045344
  32 H :    0.015956
  33 H :    0.067496
Sum of atomic charges:    0.0000000

LOEWDIN ATOMIC CHARGES
----------------------
   0 S :    0.400771
   1 C :   -0.193450
   2 C :   -0.071379
   3 C :   -0.063345
   4 C :   -0.170786
   5 H :    0.039996
   6 C :   -0.033180
   7 H :    0.042066
   8 H :    0.030479
   9 C :   -0.049602
  10 H :    0.021073
  11 H :    0.036818
  12 C :   -0.075618
  13 H :    0.023315
  14 H :    0.031117
  15 H :    0.027841
  16 S :    0.437915
  17 C :   -0.194505
  18 C :   -0.075441
  19 C :   -0.067569
  20 C :   -0.229988
  21 H :    0.028960
  22 C :   -0.038253
  23 H :    0.030434
  24 H :    0.027594
  25 C :   -0.046894
  26 H :    0.020893
  27 H :    0.032510
  28 C :   -0.067593
  29 H :    0.035584
  30 H :    0.023668
  31 H :    0.032680
  32 H :    0.009554
  33 H :    0.044336

  Mayer bond orders larger than 0.100000
B(  0-S ,  1-C ) :   1.1509 B(  0-S ,  4-C ) :   1.1336 B(  1-C ,  2-C ) :   1.6070
B(  1-C , 32-H ) :   0.9712 B(  2-C ,  3-C ) :   1.2176 B(  2-C ,  6-C ) :   1.0454
B(  3-C ,  4-C ) :   1.6182 B(  3-C ,  5-H ) :   0.9805 B(  4-C , 20-C ) :   1.0520
B(  6-C ,  7-H ) :   0.9388 B(  6-C ,  8-H ) :   0.9434 B(  6-C ,  9-C ) :   1.0348
B(  9-C , 10-H ) :   0.9663 B(  9-C , 11-H ) :   0.9561 B(  9-C , 12-C ) :   1.0757
B( 12-C , 13-H ) :   0.9761 B( 12-C , 14-H ) :   0.9757 B( 12-C , 15-H ) :   0.9741
B( 16-S , 17-C ) :   1.1493 B( 16-S , 20-C ) :   1.1639 B( 17-C , 18-C ) :   1.6034
B( 17-C , 33-H ) :   0.9643 B( 18-C , 19-C ) :   1.2724 B( 18-C , 21-H ) :   0.9901
B( 19-C , 20-C ) :   1.5343 B( 19-C , 22-C ) :   1.0333 B( 22-C , 23-H ) :   0.9317
B( 22-C , 24-H ) :   0.9422 B( 22-C , 25-C ) :   1.0486 B( 25-C , 26-H ) :   0.9561
B( 25-C , 27-H ) :   0.9574 B( 25-C , 28-C ) :   1.0753 B( 28-C , 29-H ) :   0.9728
B( 28-C , 30-H ) :   0.9705 B( 28-C , 31-H ) :   0.9741

Dispersion correction           -0.014805261
FINAL SINGLE POINT ENERGY     -1339.868066775170

DIPOLE MOMENT
-------------
                                X             Y             Z
Electronic contribution:    -17.39704      -9.83943     -19.81415
Nuclear contribution   :     17.68335      10.15986      20.34560
                        -----------------------------------------
Total Dipole Moment    :      0.28630       0.32043       0.53145
                        -----------------------------------------
Magnitude (a.u.)       :      0.68344
Magnitude (Debye)      :      1.73716

Rotational constants in cm-1:     0.020342     0.008582     0.006982
Rotational constants in MHz :   609.829009   257.287335   209.305783

                             ****ORCA TERMINATED NORMALLY****
TOTAL RUN TIME: 0 days 0 hours 0 minutes 35 seconds 600 msec
