                         Program Version 4.2.1 -  RELEASE  -
|  1> ! wB97X-D3 SP def2-SVP
|  2> %pal
|  3> nprocs 16
|  4> end
|  5>
|  6> * xyz 0 1
|  7> S 	 45.6099 	 10.7973 	 80.3317
|  8> C 	 43.9515 	 10.8104 	 80.9166
|  9> C 	 43.2726 	 11.9568 	 80.4951
| 10> C 	 44.0384 	 12.7679 	 79.6047
| 11> C 	 45.3143 	 12.2954 	 79.5512
| 12> H 	 43.7327 	 13.6666 	 79.136
| 13> C 	 41.8824 	 12.1945 	 80.9246
| 14> H 	 41.6167 	 11.54 	 81.8352
| 15> H 	 41.1411 	 11.7227 	 80.2039
| 16> C 	 41.3304 	 13.6259 	 81.3099
| 17> H 	 42.0432 	 14.016 	 82.0764
| 18> H 	 41.5234 	 14.3653 	 80.4879
| 19> C 	 39.8394 	 13.5697 	 81.764
| 20> H 	 39.4072 	 14.6039 	 81.8885
| 21> H 	 39.1985 	 13.1895 	 80.9722
| 22> H 	 39.7293 	 13.0046 	 82.7119
| 23> S 	 47.3415 	 11.9538 	 77.7908
| 24> C 	 48.2184 	 13.3272 	 77.1869
| 25> C 	 47.7085 	 14.4907 	 77.6943
| 26> C 	 46.6537 	 14.3068 	 78.5797
| 27> C 	 46.3747 	 12.9885 	 78.8185
| 28> H 	 48.1157 	 15.3708 	 77.2333
| 29> C 	 45.9594 	 15.5051 	 79.1696
| 30> H 	 44.8878 	 15.4915 	 79.0479
| 31> H 	 46.1606 	 16.3194 	 78.4692
| 32> C 	 46.506 	 15.9676 	 80.4841
| 33> H 	 47.5874 	 15.7532 	 80.4502
| 34> H 	 46.1327 	 15.4028 	 81.3225
| 35> C 	 46.1289 	 17.3605 	 80.9002
| 36> H 	 46.3207 	 17.9923 	 79.9879
| 37> H 	 46.7236 	 17.7515 	 81.7553
| 38> H 	 45.0745 	 17.4515 	 81.2499
| 39> H 	 43.4531 	 10.2047 	 81.6407
| 40> H 	 49.1292 	 13.3059 	 76.557
| 41> *
| 42>
| 43>                          ****END OF INPUT****

CARTESIAN COORDINATES (ANGSTROEM)
---------------------------------
  S     45.609900   10.797300   80.331700
  C     43.951500   10.810400   80.916600
  C     43.272600   11.956800   80.495100
  C     44.038400   12.767900   79.604700
  C     45.314300   12.295400   79.551200
  H     43.732700   13.666600   79.136000
  C     41.882400   12.194500   80.924600
  H     41.616700   11.540000   81.835200
  H     41.141100   11.722700   80.203900
  C     41.330400   13.625900   81.309900
  H     42.043200   14.016000   82.076400
  H     41.523400   14.365300   80.487900
  C     39.839400   13.569700   81.764000
  H     39.407200   14.603900   81.888500
  H     39.198500   13.189500   80.972200
  H     39.729300   13.004600   82.711900
  S     47.341500   11.953800   77.790800
  C     48.218400   13.327200   77.186900
  C     47.708500   14.490700   77.694300
  C     46.653700   14.306800   78.579700
  C     46.374700   12.988500   78.818500
  H     48.115700   15.370800   77.233300
  C     45.959400   15.505100   79.169600
  H     44.887800   15.491500   79.047900
  H     46.160600   16.319400   78.469200
  C     46.506000   15.967600   80.484100
  H     47.587400   15.753200   80.450200
  H     46.132700   15.402800   81.322500
  C     46.128900   17.360500   80.900200
  H     46.320700   17.992300   79.987900
  H     46.723600   17.751500   81.755300
  H     45.074500   17.451500   81.249900
  H     43.453100   10.204700   81.640700
  H     49.129200   13.305900   76.557000

 Total Charge           Charge          ....    0
 Multiplicity           Mult            ....    1
 Number of Electrons    NEL             ....  134
 Basis Dimension        Dim             ....  322

ORBITAL ENERGIES
----------------

  NO   OCC          E(Eh)            E(eV)
   0   2.0000     -88.972522     -2421.0654
   1   2.0000     -88.963124     -2420.8097
   2   2.0000     -10.325714      -280.9770
   3   2.0000     -10.322896      -280.9003
   4   2.0000     -10.313625      -280.6480
   5   2.0000     -10.309630      -280.5393
   6   2.0000     -10.300846      -280.3003
   7   2.0000     -10.300640      -280.2947
   8   2.0000     -10.300496      -280.2907
   9   2.0000     -10.297707      -280.2149
  10   2.0000     -10.291643      -280.0498
  11   2.0000     -10.289596      -279.9942
  12   2.0000     -10.287215      -279.9294
  13   2.0000     -10.286317      -279.9049
  14   2.0000     -10.283682      -279.8332
  15   2.0000     -10.278604      -279.6950
  16   2.0000      -8.087295      -220.0665
  17   2.0000      -8.078369      -219.8236
  18   2.0000      -6.045757      -164.5134
  19   2.0000      -6.041929      -164.4093
  20   2.0000      -6.037974      -164.3016
  21   2.0000      -6.036751      -164.2683
  22   2.0000      -6.032767      -164.1599
  23   2.0000      -6.029271      -164.0648
  24   2.0000      -1.015121       -27.6228
  25   2.0000      -0.990503       -26.9530
  26   2.0000      -0.917668       -24.9710
  27   2.0000      -0.906023       -24.6541
  28   2.0000      -0.869415       -23.6580
  29   2.0000      -0.858114       -23.3505
  30   2.0000      -0.849679       -23.1209
  31   2.0000      -0.818300       -22.2671
  32   2.0000      -0.781791       -21.2736
  33   2.0000      -0.769129       -20.9291
  34   2.0000      -0.711454       -19.3597
  35   2.0000      -0.697075       -18.9684
  36   2.0000      -0.691150       -18.8071
  37   2.0000      -0.663907       -18.0658
  38   2.0000      -0.638735       -17.3809
  39   2.0000      -0.627564       -17.0769
  40   2.0000      -0.600768       -16.3477
  41   2.0000      -0.570856       -15.5338
  42   2.0000      -0.566171       -15.4063
  43   2.0000      -0.554469       -15.0879
  44   2.0000      -0.524624       -14.2757
  45   2.0000      -0.522912       -14.2292
  46   2.0000      -0.517181       -14.0732
  47   2.0000      -0.510845       -13.9008
  48   2.0000      -0.504747       -13.7349
  49   2.0000      -0.497714       -13.5435
  50   2.0000      -0.491893       -13.3851
  51   2.0000      -0.486090       -13.2272
  52   2.0000      -0.473339       -12.8802
  53   2.0000      -0.465460       -12.6658
  54   2.0000      -0.461335       -12.5536
  55   2.0000      -0.452474       -12.3124
  56   2.0000      -0.446163       -12.1407
  57   2.0000      -0.438391       -11.9292
  58   2.0000      -0.432301       -11.7635
  59   2.0000      -0.427372       -11.6294
  60   2.0000      -0.422131       -11.4868
  61   2.0000      -0.411466       -11.1966
  62   2.0000      -0.402475       -10.9519
  63   2.0000      -0.349673        -9.5151
  64   2.0000      -0.335483        -9.1289
  65   2.0000      -0.331398        -9.0178
  66   2.0000      -0.288507        -7.8507
  67   0.0000       0.028891         0.7862
  68   0.0000       0.076144         2.0720
  69   0.0000       0.105451         2.8695
  70   0.0000       0.117672         3.2020
  71   0.0000       0.129604         3.5267

MULLIKEN ATOMIC CHARGES
-----------------------
   0 S :    0.131990
   1 C :   -0.095908
   2 C :   -0.053074
   3 C :    0.031632
   4 C :   -0.115969
   5 H :   -0.005903
   6 C :   -0.024012
   7 H :    0.019618
   8 H :    0.045268
   9 C :   -0.093073
  10 H :    0.036969
  11 H :    0.031889
  12 C :   -0.067130
  13 H :    0.041910
  14 H :    0.037433
  15 H :    0.050959
  16 S :    0.095061
  17 C :   -0.106302
  18 C :   -0.042656
  19 C :   -0.042347
  20 C :   -0.134552
  21 H :    0.013834
  22 C :    0.085872
  23 H :    0.010278
  24 H :   -0.005314
  25 C :   -0.036795
  26 H :    0.031965
  27 H :    0.024354
  28 C :   -0.075948
  29 H :    0.028551
  30 H :    0.043253
  31 H :    0.040522
  32 H :    0.032444
  33 H :    0.065179
Sum of atomic charges:   -0.0000000

LOEWDIN ATOMIC CHARGES
----------------------
   0 S :    0.423137
   1 C :   -0.201447
   2 C :   -0.058041
   3 C :   -0.056469
   4 C :   -0.195349
   5 H :    0.025945
   6 C :   -0.053891
   7 H :    0.034640
   8 H :    0.037524
   9 C :   -0.050242
  10 H :    0.027161
  11 H :    0.022696
  12 C :   -0.071414
  13 H :    0.034967
  14 H :    0.026862
  15 H :    0.031683
  16 S :    0.406349
  17 C :   -0.193782
  18 C :   -0.074376
  19 C :   -0.064263
  20 C :   -0.187809
  21 H :    0.032913
  22 C :   -0.032312
  23 H :    0.023076
  24 H :    0.029538
  25 C :   -0.047518
  26 H :    0.030442
  27 H :    0.024794
  28 C :   -0.071319
  29 H :    0.023990
  30 H :    0.031994
  31 H :    0.029339
  32 H :    0.024130
  33 H :    0.037054

  Mayer bond orders larger than 0.100000
B(  0-S ,  1-C ) :   1.1132 B(  0-S ,  4-C ) :   1.1676 B(  1-C ,  2-C ) :   1.6212
B(  1-C , 32-H ) :   0.9671 B(  2-C ,  3-C ) :   1.2197 B(  2-C ,  6-C ) :   1.0407
B(  3-C ,  4-C ) :   1.5698 B(  3-C ,  5-H ) :   1.0032 B(  4-C , 20-C ) :   1.0190
B(  6-C ,  7-H ) :   0.9416 B(  6-C ,  8-H ) :   0.9324 B(  6-C ,  9-C ) :   1.0415
B(  9-C , 10-H ) :   0.9589 B(  9-C , 11-H ) :   0.9550 B(  9-C , 12-C ) :   1.0725
B( 12-C , 13-H ) :   0.9738 B( 12-C , 14-H ) :   0.9747 B( 12-C , 15-H ) :   0.9757
B( 16-S , 17-C ) :   1.1580 B( 16-S , 20-C ) :   1.1494 B( 17-C , 18-C ) :   1.6165
B( 17-C , 20-C ) :   0.1038 B( 17-C , 33-H ) :   0.9603 B( 18-C , 19-C ) :   1.2465
B( 18-C , 21-H ) :   0.9941 B( 19-C , 20-C ) :   1.6046 B( 19-C , 22-C ) :   1.0424
B( 22-C , 23-H ) :   0.9264 B( 22-C , 24-H ) :   0.9196 B( 22-C , 25-C ) :   1.0665
B( 25-C , 26-H ) :   0.9503 B( 25-C , 27-H ) :   0.9471 B( 25-C , 28-C ) :   1.0825
B( 28-C , 29-H ) :   0.9749 B( 28-C , 30-H ) :   0.9723 B( 28-C , 31-H ) :   0.9733

Dispersion correction           -0.013781204
FINAL SINGLE POINT ENERGY     -1339.872460506512

DIPOLE MOMENT
-------------
                                X             Y             Z
Electronic contribution:     19.47015     -22.74843     -12.19590
Nuclear contribution   :    -19.85454      23.32871      12.31436
                        -----------------------------------------
Total Dipole Moment    :     -0.38439       0.58028       0.11846
                        -----------------------------------------
Magnitude (a.u.)       :      0.70606
Magnitude (Debye)      :      1.79465

Rotational constants in cm-1:     0.017184     0.009126     0.006560
Rotational constants in MHz :   515.152851   273.581220   196.678374

                             ****ORCA TERMINATED NORMALLY****
TOTAL RUN TIME: 0 days 0 hours 0 minutes 28 seconds 791 msec
