                         Program Version 4.2.1 -  RELEASE  -
|  1> ! wB97X-D3 SP def2-SVP
|  2> %pal
|  3> nprocs 16
|  4> end
|  5>
|  6> * xyz 0 1
|  7> S 	 -34.8126 	 38.9636 	 96.4194
|  8> C 	 -34.5464 	 37.2092 	 96.335
|  9> C 	 -35.2903 	 36.5618 	 97.3377
| 10> C 	 -36.0835 	 37.5305 	 98.0893
| 11> C 	 -35.9289 	 38.8295 	 97.6664
| 12> H 	 -36.8757 	 37.3593 	 98.8459
| 13> C 	 -35.2475 	 35.1213 	 97.6814
| 14> H 	 -34.3564 	 34.5809 	 97.301
| 15> H 	 -36.1009 	 34.5839 	 97.2227
| 16> C 	 -35.3132 	 34.7697 	 99.1182
| 17> H 	 -34.383 	 35.185 	 99.5877
| 18> H 	 -36.2194 	 35.1287 	 99.5576
| 19> C 	 -35.0111 	 33.2901 	 99.3233
| 20> H 	 -35.8549 	 32.6819 	 98.9537
| 21> H 	 -34.0628 	 32.9085 	 98.8284
| 22> H 	 -34.8892 	 33.0606 	 100.402
| 23> S 	 -37.7298 	 40.8858 	 97.0936
| 24> C 	 -38.536 	 41.6102 	 98.5066
| 25> C 	 -37.8533 	 41.3045 	 99.6576
| 26> C 	 -36.8206 	 40.342 	 99.5031
| 27> C 	 -36.6887 	 39.9362 	 98.2203
| 28> H 	 -38.0883 	 41.8276 	 100.571
| 29> C 	 -36.0294 	 39.8291 	 100.729
| 30> H 	 -35.3366 	 39.175 	 100.289
| 31> H 	 -36.6713 	 39.3363 	 101.399
| 32> C 	 -35.3582 	 40.9278 	 101.583
| 33> H 	 -35.9805 	 41.8019 	 101.686
| 34> H 	 -34.3453 	 41.2681 	 101.138
| 35> C 	 -35.1396 	 40.4889 	 103.008
| 36> H 	 -34.6288 	 41.2656 	 103.533
| 37> H 	 -34.5062 	 39.6752 	 103.184
| 38> H 	 -36.1095 	 40.3625 	 103.504
| 39> H 	 -33.9656 	 36.6003 	 95.6366
| 40> H 	 -39.354 	 42.3865 	 98.4777
| 41> *
| 42>
| 43>                          ****END OF INPUT****

CARTESIAN COORDINATES (ANGSTROEM)
---------------------------------
  S    -34.812600   38.963600   96.419400
  C    -34.546400   37.209200   96.335000
  C    -35.290300   36.561800   97.337700
  C    -36.083500   37.530500   98.089300
  C    -35.928900   38.829500   97.666400
  H    -36.875700   37.359300   98.845900
  C    -35.247500   35.121300   97.681400
  H    -34.356400   34.580900   97.301000
  H    -36.100900   34.583900   97.222700
  C    -35.313200   34.769700   99.118200
  H    -34.383000   35.185000   99.587700
  H    -36.219400   35.128700   99.557600
  C    -35.011100   33.290100   99.323300
  H    -35.854900   32.681900   98.953700
  H    -34.062800   32.908500   98.828400
  H    -34.889200   33.060600  100.402000
  S    -37.729800   40.885800   97.093600
  C    -38.536000   41.610200   98.506600
  C    -37.853300   41.304500   99.657600
  C    -36.820600   40.342000   99.503100
  C    -36.688700   39.936200   98.220300
  H    -38.088300   41.827600  100.571000
  C    -36.029400   39.829100  100.729000
  H    -35.336600   39.175000  100.289000
  H    -36.671300   39.336300  101.399000
  C    -35.358200   40.927800  101.583000
  H    -35.980500   41.801900  101.686000
  H    -34.345300   41.268100  101.138000
  C    -35.139600   40.488900  103.008000
  H    -34.628800   41.265600  103.533000
  H    -34.506200   39.675200  103.184000
  H    -36.109500   40.362500  103.504000
  H    -33.965600   36.600300   95.636600
  H    -39.354000   42.386500   98.477700

 Total Charge           Charge          ....    0
 Multiplicity           Mult            ....    1
 Number of Electrons    NEL             ....  134
 Basis Dimension        Dim             ....  322

ORBITAL ENERGIES
----------------

  NO   OCC          E(Eh)            E(eV)
   0   2.0000     -88.967993     -2420.9422
   1   2.0000     -88.963637     -2420.8236
   2   2.0000     -10.326197      -280.9901
   3   2.0000     -10.323493      -280.9165
   4   2.0000     -10.322317      -280.8845
   5   2.0000     -10.317547      -280.7547
   6   2.0000     -10.305756      -280.4339
   7   2.0000     -10.300339      -280.2865
   8   2.0000     -10.294596      -280.1302
   9   2.0000     -10.291070      -280.0343
  10   2.0000     -10.290598      -280.0214
  11   2.0000     -10.289324      -279.9867
  12   2.0000     -10.286618      -279.9131
  13   2.0000     -10.285627      -279.8862
  14   2.0000     -10.284377      -279.8521
  15   2.0000     -10.270039      -279.4620
  16   2.0000      -8.083274      -219.9571
  17   2.0000      -8.077420      -219.7978
  18   2.0000      -6.041773      -164.4050
  19   2.0000      -6.037608      -164.2917
  20   2.0000      -6.036083      -164.2502
  21   2.0000      -6.034098      -164.1961
  22   2.0000      -6.032295      -164.1471
  23   2.0000      -6.027817      -164.0252
  24   2.0000      -1.008649       -27.4467
  25   2.0000      -0.982378       -26.7319
  26   2.0000      -0.925148       -25.1746
  27   2.0000      -0.910058       -24.7639
  28   2.0000      -0.871267       -23.7084
  29   2.0000      -0.854218       -23.2445
  30   2.0000      -0.844249       -22.9732
  31   2.0000      -0.811909       -22.0932
  32   2.0000      -0.784357       -21.3435
  33   2.0000      -0.774991       -21.0886
  34   2.0000      -0.706647       -19.2288
  35   2.0000      -0.697696       -18.9853
  36   2.0000      -0.689033       -18.7495
  37   2.0000      -0.657185       -17.8829
  38   2.0000      -0.642747       -17.4900
  39   2.0000      -0.615812       -16.7571
  40   2.0000      -0.595150       -16.1949
  41   2.0000      -0.580042       -15.7838
  42   2.0000      -0.574935       -15.6448
  43   2.0000      -0.567001       -15.4289
  44   2.0000      -0.528536       -14.3822
  45   2.0000      -0.521325       -14.1860
  46   2.0000      -0.519129       -14.1262
  47   2.0000      -0.511184       -13.9100
  48   2.0000      -0.503118       -13.6905
  49   2.0000      -0.501562       -13.6482
  50   2.0000      -0.486203       -13.2303
  51   2.0000      -0.480136       -13.0652
  52   2.0000      -0.471853       -12.8398
  53   2.0000      -0.467474       -12.7206
  54   2.0000      -0.457915       -12.4605
  55   2.0000      -0.450620       -12.2620
  56   2.0000      -0.447584       -12.1794
  57   2.0000      -0.435315       -11.8455
  58   2.0000      -0.428389       -11.6571
  59   2.0000      -0.427739       -11.6394
  60   2.0000      -0.425270       -11.5722
  61   2.0000      -0.416125       -11.3233
  62   2.0000      -0.409197       -11.1348
  63   2.0000      -0.341897        -9.3035
  64   2.0000      -0.331259        -9.0140
  65   2.0000      -0.327319        -8.9068
  66   2.0000      -0.297745        -8.1020
  67   0.0000       0.035635         0.9697
  68   0.0000       0.067106         1.8260
  69   0.0000       0.108360         2.9486
  70   0.0000       0.122016         3.3202
  71   0.0000       0.130571         3.5530

MULLIKEN ATOMIC CHARGES
-----------------------
   0 S :    0.122503
   1 C :   -0.118711
   2 C :   -0.064140
   3 C :    0.003671
   4 C :   -0.164653
   5 H :    0.030008
   6 C :    0.049350
   7 H :    0.014815
   8 H :    0.035291
   9 C :   -0.087331
  10 H :    0.035173
  11 H :    0.037160
  12 C :   -0.080261
  13 H :    0.029933
  14 H :    0.042435
  15 H :    0.039884
  16 S :    0.095232
  17 C :   -0.106306
  18 C :   -0.039569
  19 C :   -0.028551
  20 C :   -0.176846
  21 H :    0.014635
  22 C :    0.165475
  23 H :    0.020710
  24 H :    0.010710
  25 C :   -0.113209
  26 H :    0.026297
  27 H :    0.044027
  28 C :   -0.032625
  29 H :    0.018981
  30 H :    0.022547
  31 H :    0.030424
  32 H :    0.048206
  33 H :    0.074735
Sum of atomic charges:    0.0000000

LOEWDIN ATOMIC CHARGES
----------------------
   0 S :    0.429139
   1 C :   -0.202243
   2 C :   -0.054991
   3 C :   -0.071521
   4 C :   -0.221216
   5 H :    0.036819
   6 C :   -0.044895
   7 H :    0.031718
   8 H :    0.035693
   9 C :   -0.044474
  10 H :    0.032989
  11 H :    0.020697
  12 C :   -0.070311
  13 H :    0.021529
  14 H :    0.032285
  15 H :    0.028796
  16 S :    0.362217
  17 C :   -0.177353
  18 C :   -0.073136
  19 C :   -0.052941
  20 C :   -0.178936
  21 H :    0.028321
  22 C :   -0.015236
  23 H :    0.026069
  24 H :    0.024240
  25 C :   -0.039055
  26 H :    0.020765
  27 H :    0.034137
  28 C :   -0.063859
  29 H :    0.025797
  30 H :    0.016770
  31 H :    0.026161
  32 H :    0.033972
  33 H :    0.042052

  Mayer bond orders larger than 0.100000
B(  0-S ,  1-C ) :   1.1226 B(  0-S ,  4-C ) :   1.1688 B(  1-C ,  2-C ) :   1.6208
B(  1-C , 32-H ) :   0.9679 B(  2-C ,  3-C ) :   1.2189 B(  2-C ,  6-C ) :   1.0320
B(  3-C ,  4-C ) :   1.5824 B(  3-C ,  5-H ) :   0.9852 B(  4-C , 20-C ) :   1.0165
B(  6-C ,  7-H ) :   0.9459 B(  6-C ,  8-H ) :   0.9217 B(  6-C ,  9-C ) :   1.0775
B(  9-C , 10-H ) :   0.9565 B(  9-C , 11-H ) :   0.9462 B(  9-C , 12-C ) :   1.0840
B( 12-C , 13-H ) :   0.9725 B( 12-C , 14-H ) :   0.9712 B( 12-C , 15-H ) :   0.9751
B( 16-S , 17-C ) :   1.1314 B( 16-S , 20-C ) :   1.1079 B( 17-C , 18-C ) :   1.6548
B( 17-C , 33-H ) :   0.9585 B( 18-C , 19-C ) :   1.1979 B( 18-C , 21-H ) :   0.9870
B( 19-C , 20-C ) :   1.6609 B( 19-C , 22-C ) :   1.0299 B( 22-C , 23-H ) :   0.9219
B( 22-C , 24-H ) :   0.9373 B( 22-C , 25-C ) :   1.0600 B( 25-C , 26-H ) :   0.9602
B( 25-C , 27-H ) :   0.9528 B( 25-C , 28-C ) :   1.0921 B( 28-C , 29-H ) :   0.9687
B( 28-C , 30-H ) :   0.9742 B( 28-C , 31-H ) :   0.9717

Dispersion correction           -0.013495818
FINAL SINGLE POINT ENERGY     -1339.870117636023

DIPOLE MOMENT
-------------
                                X             Y             Z
Electronic contribution:     -6.51364      16.90059     -24.26905
Nuclear contribution   :      6.51962     -17.23602      24.95485
                        -----------------------------------------
Total Dipole Moment    :      0.00598      -0.33543       0.68580
                        -----------------------------------------
Magnitude (a.u.)       :      0.76346
Magnitude (Debye)      :      1.94056

Rotational constants in cm-1:     0.016144     0.008730     0.006580
Rotational constants in MHz :   483.993331   261.719343   197.278377

                             ****ORCA TERMINATED NORMALLY****
TOTAL RUN TIME: 0 days 0 hours 0 minutes 28 seconds 7 msec
