                         Program Version 4.2.1 -  RELEASE  -
|  1> ! wB97X-D3 SP def2-SVP
|  2> %pal
|  3> nprocs 16
|  4> end
|  5>
|  6> * xyz 0 1
|  7> S 	 12.9945 	 25.5944 	 65.6693
|  8> C 	 13.2805 	 26.8148 	 64.3995
|  9> C 	 13.9967 	 27.8644 	 64.8758
| 10> C 	 14.4514 	 27.6488 	 66.2438
| 11> C 	 14.0153 	 26.469 	 66.7758
| 12> H 	 15.0534 	 28.3122 	 66.7842
| 13> C 	 14.4048 	 29.0732 	 64.0522
| 14> H 	 13.7044 	 29.8123 	 64.4735
| 15> H 	 14.1696 	 29.061 	 62.9718
| 16> C 	 15.8404 	 29.5996 	 64.1877
| 17> H 	 15.7908 	 30.6035 	 63.8823
| 18> H 	 16.2441 	 29.5162 	 65.1936
| 19> C 	 16.7348 	 28.8404 	 63.2176
| 20> H 	 16.9271 	 27.8262 	 63.6855
| 21> H 	 16.4134 	 28.7109 	 62.2073
| 22> H 	 17.69 	 29.3397 	 63.1649
| 23> S 	 13.252 	 24.8216 	 68.8021
| 24> C 	 14.0534 	 24.7478 	 70.3006
| 25> C 	 15.2081 	 25.5459 	 70.2439
| 26> C 	 15.3821 	 26.2891 	 69.052
| 27> C 	 14.3862 	 25.9375 	 68.1074
| 28> H 	 15.8322 	 25.5213 	 71.1618
| 29> C 	 16.5392 	 27.1061 	 68.8616
| 30> H 	 16.6684 	 27.1923 	 67.7888
| 31> H 	 17.404 	 26.589 	 69.3107
| 32> C 	 16.5709 	 28.5601 	 69.4529
| 33> H 	 17.5406 	 29.1196 	 69.1743
| 34> H 	 16.6575 	 28.4208 	 70.4855
| 35> C 	 15.4187 	 29.589 	 69.2419
| 36> H 	 14.474 	 29.1177 	 69.3442
| 37> H 	 15.4621 	 30.1305 	 68.2716
| 38> H 	 15.584 	 30.2865 	 70.0314
| 39> H 	 12.8204 	 26.7624 	 63.4063
| 40> H 	 13.8822 	 23.9997 	 71.0846
| 41> *
| 42>
| 43>                          ****END OF INPUT****

CARTESIAN COORDINATES (ANGSTROEM)
---------------------------------
  S     12.994500   25.594400   65.669300
  C     13.280500   26.814800   64.399500
  C     13.996700   27.864400   64.875800
  C     14.451400   27.648800   66.243800
  C     14.015300   26.469000   66.775800
  H     15.053400   28.312200   66.784200
  C     14.404800   29.073200   64.052200
  H     13.704400   29.812300   64.473500
  H     14.169600   29.061000   62.971800
  C     15.840400   29.599600   64.187700
  H     15.790800   30.603500   63.882300
  H     16.244100   29.516200   65.193600
  C     16.734800   28.840400   63.217600
  H     16.927100   27.826200   63.685500
  H     16.413400   28.710900   62.207300
  H     17.690000   29.339700   63.164900
  S     13.252000   24.821600   68.802100
  C     14.053400   24.747800   70.300600
  C     15.208100   25.545900   70.243900
  C     15.382100   26.289100   69.052000
  C     14.386200   25.937500   68.107400
  H     15.832200   25.521300   71.161800
  C     16.539200   27.106100   68.861600
  H     16.668400   27.192300   67.788800
  H     17.404000   26.589000   69.310700
  C     16.570900   28.560100   69.452900
  H     17.540600   29.119600   69.174300
  H     16.657500   28.420800   70.485500
  C     15.418700   29.589000   69.241900
  H     14.474000   29.117700   69.344200
  H     15.462100   30.130500   68.271600
  H     15.584000   30.286500   70.031400
  H     12.820400   26.762400   63.406300
  H     13.882200   23.999700   71.084600

 Total Charge           Charge          ....    0
 Multiplicity           Mult            ....    1
 Number of Electrons    NEL             ....  134
 Basis Dimension        Dim             ....  322

ORBITAL ENERGIES
----------------

  NO   OCC          E(Eh)            E(eV)
   0   2.0000     -88.966501     -2420.9016
   1   2.0000     -88.963020     -2420.8068
   2   2.0000     -10.332220      -281.1540
   3   2.0000     -10.331665      -281.1389
   4   2.0000     -10.316523      -280.7269
   5   2.0000     -10.312802      -280.6256
   6   2.0000     -10.303341      -280.3681
   7   2.0000     -10.302877      -280.3555
   8   2.0000     -10.295972      -280.1676
   9   2.0000     -10.294520      -280.1281
  10   2.0000     -10.292286      -280.0674
  11   2.0000     -10.290340      -280.0144
  12   2.0000     -10.289479      -279.9910
  13   2.0000     -10.284536      -279.8565
  14   2.0000     -10.277841      -279.6743
  15   2.0000     -10.275057      -279.5985
  16   2.0000      -8.082283      -219.9301
  17   2.0000      -8.077694      -219.8052
  18   2.0000      -6.040655      -164.3746
  19   2.0000      -6.036498      -164.2615
  20   2.0000      -6.036443      -164.2600
  21   2.0000      -6.033341      -164.1755
  22   2.0000      -6.032285      -164.1468
  23   2.0000      -6.028076      -164.0323
  24   2.0000      -1.010597       -27.4998
  25   2.0000      -0.986328       -26.8394
  26   2.0000      -0.915890       -24.9226
  27   2.0000      -0.913620       -24.8609
  28   2.0000      -0.869880       -23.6706
  29   2.0000      -0.856500       -23.3066
  30   2.0000      -0.843572       -22.9548
  31   2.0000      -0.816098       -22.2071
  32   2.0000      -0.786166       -21.3927
  33   2.0000      -0.775466       -21.1015
  34   2.0000      -0.712772       -19.3955
  35   2.0000      -0.699043       -19.0219
  36   2.0000      -0.692148       -18.8343
  37   2.0000      -0.659291       -17.9402
  38   2.0000      -0.637225       -17.3398
  39   2.0000      -0.630819       -17.1655
  40   2.0000      -0.594932       -16.1889
  41   2.0000      -0.568921       -15.4811
  42   2.0000      -0.556007       -15.1297
  43   2.0000      -0.551699       -15.0125
  44   2.0000      -0.546924       -14.8825
  45   2.0000      -0.537183       -14.6175
  46   2.0000      -0.522907       -14.2290
  47   2.0000      -0.512933       -13.9576
  48   2.0000      -0.504169       -13.7191
  49   2.0000      -0.500681       -13.6242
  50   2.0000      -0.492122       -13.3913
  51   2.0000      -0.482919       -13.1409
  52   2.0000      -0.471028       -12.8173
  53   2.0000      -0.468860       -12.7583
  54   2.0000      -0.461583       -12.5603
  55   2.0000      -0.447763       -12.1842
  56   2.0000      -0.444292       -12.0898
  57   2.0000      -0.438655       -11.9364
  58   2.0000      -0.436884       -11.8882
  59   2.0000      -0.430184       -11.7059
  60   2.0000      -0.420334       -11.4379
  61   2.0000      -0.415342       -11.3020
  62   2.0000      -0.408193       -11.1075
  63   2.0000      -0.357766        -9.7353
  64   2.0000      -0.332128        -9.0377
  65   2.0000      -0.325228        -8.8499
  66   2.0000      -0.285437        -7.7671
  67   0.0000       0.022465         0.6113
  68   0.0000       0.086398         2.3510
  69   0.0000       0.103909         2.8275
  70   0.0000       0.114563         3.1174
  71   0.0000       0.126700         3.4477

MULLIKEN ATOMIC CHARGES
-----------------------
   0 S :    0.088912
   1 C :   -0.146786
   2 C :   -0.039367
   3 C :    0.007313
   4 C :   -0.066669
   5 H :   -0.057504
   6 C :    0.029458
   7 H :    0.040623
   8 H :    0.023671
   9 C :   -0.041119
  10 H :    0.018085
  11 H :    0.033896
  12 C :   -0.058008
  13 H :    0.043097
  14 H :    0.027015
  15 H :    0.026849
  16 S :    0.104232
  17 C :   -0.096626
  18 C :   -0.074731
  19 C :   -0.032811
  20 C :   -0.124500
  21 H :    0.030092
  22 C :    0.054612
  23 H :    0.023132
  24 H :    0.035944
  25 C :   -0.103043
  26 H :    0.036916
  27 H :    0.011788
  28 C :   -0.034673
  29 H :    0.039622
  30 H :    0.046311
  31 H :    0.031251
  32 H :    0.053448
  33 H :    0.069571
Sum of atomic charges:    0.0000000

LOEWDIN ATOMIC CHARGES
----------------------
   0 S :    0.377500
   1 C :   -0.190486
   2 C :   -0.056580
   3 C :   -0.066342
   4 C :   -0.180869
   5 H :    0.015119
   6 C :   -0.034675
   7 H :    0.037799
   8 H :    0.032258
   9 C :   -0.034997
  10 H :    0.019367
  11 H :    0.024976
  12 C :   -0.064988
  13 H :    0.035349
  14 H :    0.018951
  15 H :    0.022414
  16 S :    0.437561
  17 C :   -0.212506
  18 C :   -0.075272
  19 C :   -0.066482
  20 C :   -0.194079
  21 H :    0.036009
  22 C :   -0.040408
  23 H :    0.028965
  24 H :    0.042364
  25 C :   -0.039625
  26 H :    0.033274
  27 H :    0.012403
  28 C :   -0.063638
  29 H :    0.023186
  30 H :    0.025827
  31 H :    0.028280
  32 H :    0.032746
  33 H :    0.036602

  Mayer bond orders larger than 0.100000
B(  0-S ,  1-C ) :   1.0981 B(  0-S ,  4-C ) :   1.1365 B(  1-C ,  2-C ) :   1.6570
B(  1-C , 32-H ) :   0.9678 B(  2-C ,  3-C ) :   1.1938 B(  2-C ,  6-C ) :   1.0109
B(  3-C ,  4-C ) :   1.5992 B(  3-C ,  5-H ) :   0.9976 B(  4-C , 20-C ) :   1.0463
B(  6-C ,  7-H ) :   0.9286 B(  6-C ,  8-H ) :   0.9505 B(  6-C ,  9-C ) :   1.0773
B(  9-C , 10-H ) :   0.9489 B(  9-C , 11-H ) :   0.9556 B(  9-C , 12-C ) :   1.0807
B( 12-C , 13-H ) :   0.9764 B( 12-C , 14-H ) :   0.9769 B( 12-C , 15-H ) :   0.9734
B( 16-S , 17-C ) :   1.1813 B( 16-S , 20-C ) :   1.1677 B( 17-C , 18-C ) :   1.5720
B( 17-C , 20-C ) :   0.1068 B( 17-C , 33-H ) :   0.9633 B( 18-C , 19-C ) :   1.2698
B( 18-C , 21-H ) :   0.9855 B( 19-C , 20-C ) :   1.5165 B( 19-C , 22-C ) :   1.0679
B( 22-C , 23-H ) :   0.9260 B( 22-C , 24-H ) :   0.9323 B( 22-C , 25-C ) :   1.0573
B( 25-C , 26-H ) :   0.9560 B( 25-C , 27-H ) :   0.9598 B( 25-C , 28-C ) :   1.0818
B( 28-C , 29-H ) :   0.9718 B( 28-C , 30-H ) :   0.9684 B( 28-C , 31-H ) :   0.9704

Dispersion correction           -0.015074955
FINAL SINGLE POINT ENERGY     -1339.876868057571

DIPOLE MOMENT
-------------
                                X             Y             Z
Electronic contribution:    -18.20103     -23.52242       5.04251
Nuclear contribution   :     18.69004      24.08395      -4.96092
                        -----------------------------------------
Total Dipole Moment    :      0.48900       0.56153       0.08159
                        -----------------------------------------
Magnitude (a.u.)       :      0.74907
Magnitude (Debye)      :      1.90398

Rotational constants in cm-1:     0.018814     0.010038     0.007162
Rotational constants in MHz :   564.038022   300.928664   214.706081

                             ****ORCA TERMINATED NORMALLY****
TOTAL RUN TIME: 0 days 0 hours 0 minutes 36 seconds 659 msec
