                         Program Version 4.2.1 -  RELEASE  -
|  1> ! wB97X-D3 SP def2-SVP
|  2> %pal
|  3> nprocs 16
|  4> end
|  5>
|  6> * xyz 0 1
|  7> S 	 -2.59551 	 -11.8879 	 64.2057
|  8> C 	 -4.06461 	 -11.9983 	 65.1816
|  9> C 	 -3.83512 	 -12.5547 	 66.4262
| 10> C 	 -2.43532 	 -12.896 	 66.5863
| 11> C 	 -1.65308 	 -12.6737 	 65.4992
| 12> H 	 -1.96299 	 -13.121 	 67.4734
| 13> C 	 -4.88394 	 -12.8364 	 67.504
| 14> H 	 -4.48413 	 -13.6239 	 68.2312
| 15> H 	 -5.57377 	 -13.4836 	 67.0636
| 16> C 	 -5.60053 	 -11.5552 	 67.9388
| 17> H 	 -6.00602 	 -11.1613 	 67.0505
| 18> H 	 -6.47983 	 -11.6105 	 68.5623
| 19> C 	 -4.58845 	 -10.5463 	 68.5361
| 20> H 	 -3.63443 	 -10.3958 	 68.029
| 21> H 	 -5.02802 	 -9.53089 	 68.6686
| 22> H 	 -4.32853 	 -10.949 	 69.5331
| 23> S 	 0.669936 	 -12.158 	 64.0591
| 24> C 	 2.16337 	 -12.9083 	 64.5918
| 25> C 	 1.93681 	 -13.8481 	 65.5987
| 26> C 	 0.568721 	 -13.9395 	 65.9268
| 27> C 	 -0.26209 	 -13.0295 	 65.285
| 28> H 	 2.79679 	 -14.3885 	 65.9011
| 29> C 	 0.104029 	 -15.1402 	 66.7284
| 30> H 	 0.128246 	 -15.9947 	 66.0248
| 31> H 	 -0.916189 	 -15.1571 	 66.9237
| 32> C 	 0.996106 	 -15.6592 	 67.8073
| 33> H 	 1.95528 	 -15.9893 	 67.4813
| 34> H 	 0.583147 	 -16.5566 	 68.2578
| 35> C 	 1.10955 	 -14.7203 	 69.0165
| 36> H 	 1.5077 	 -13.8043 	 68.796
| 37> H 	 1.77633 	 -15.152 	 69.8344
| 38> H 	 0.114016 	 -14.5562 	 69.3831
| 39> H 	 -5.01435 	 -11.7161 	 64.7328
| 40> H 	 3.15695 	 -12.8203 	 64.0952
| 41> *
| 42>
| 43>                          ****END OF INPUT****

CARTESIAN COORDINATES (ANGSTROEM)
---------------------------------
  S     -2.595510  -11.887900   64.205700
  C     -4.064610  -11.998300   65.181600
  C     -3.835120  -12.554700   66.426200
  C     -2.435320  -12.896000   66.586300
  C     -1.653080  -12.673700   65.499200
  H     -1.962990  -13.121000   67.473400
  C     -4.883940  -12.836400   67.504000
  H     -4.484130  -13.623900   68.231200
  H     -5.573770  -13.483600   67.063600
  C     -5.600530  -11.555200   67.938800
  H     -6.006020  -11.161300   67.050500
  H     -6.479830  -11.610500   68.562300
  C     -4.588450  -10.546300   68.536100
  H     -3.634430  -10.395800   68.029000
  H     -5.028020   -9.530890   68.668600
  H     -4.328530  -10.949000   69.533100
  S      0.669936  -12.158000   64.059100
  C      2.163370  -12.908300   64.591800
  C      1.936810  -13.848100   65.598700
  C      0.568721  -13.939500   65.926800
  C     -0.262090  -13.029500   65.285000
  H      2.796790  -14.388500   65.901100
  C      0.104029  -15.140200   66.728400
  H      0.128246  -15.994700   66.024800
  H     -0.916189  -15.157100   66.923700
  C      0.996106  -15.659200   67.807300
  H      1.955280  -15.989300   67.481300
  H      0.583147  -16.556600   68.257800
  C      1.109550  -14.720300   69.016500
  H      1.507700  -13.804300   68.796000
  H      1.776330  -15.152000   69.834400
  H      0.114016  -14.556200   69.383100
  H     -5.014350  -11.716100   64.732800
  H      3.156950  -12.820300   64.095200

 Total Charge           Charge          ....    0
 Multiplicity           Mult            ....    1
 Number of Electrons    NEL             ....  134
 Basis Dimension        Dim             ....  322

ORBITAL ENERGIES
----------------

  NO   OCC          E(Eh)            E(eV)
   0   2.0000     -88.967318     -2420.9238
   1   2.0000     -88.963613     -2420.8230
   2   2.0000     -10.331194      -281.1261
   3   2.0000     -10.329257      -281.0734
   4   2.0000     -10.323872      -280.9268
   5   2.0000     -10.316940      -280.7382
   6   2.0000     -10.306692      -280.4594
   7   2.0000     -10.306497      -280.4541
   8   2.0000     -10.295594      -280.1573
   9   2.0000     -10.293195      -280.0921
  10   2.0000     -10.287157      -279.9278
  11   2.0000     -10.286575      -279.9119
  12   2.0000     -10.285692      -279.8879
  13   2.0000     -10.281960      -279.7864
  14   2.0000     -10.276396      -279.6350
  15   2.0000     -10.269446      -279.4458
  16   2.0000      -8.081665      -219.9133
  17   2.0000      -8.077969      -219.8127
  18   2.0000      -6.040234      -164.3631
  19   2.0000      -6.036641      -164.2654
  20   2.0000      -6.036220      -164.2539
  21   2.0000      -6.032649      -164.1567
  22   2.0000      -6.032400      -164.1500
  23   2.0000      -6.028484      -164.0434
  24   2.0000      -1.005790       -27.3689
  25   2.0000      -0.982205       -26.7272
  26   2.0000      -0.917189       -24.9580
  27   2.0000      -0.912060       -24.8184
  28   2.0000      -0.868885       -23.6436
  29   2.0000      -0.852798       -23.2058
  30   2.0000      -0.841162       -22.8892
  31   2.0000      -0.816539       -22.2191
  32   2.0000      -0.787406       -21.4264
  33   2.0000      -0.774886       -21.0857
  34   2.0000      -0.710341       -19.3294
  35   2.0000      -0.709310       -19.3013
  36   2.0000      -0.696147       -18.9431
  37   2.0000      -0.662775       -18.0350
  38   2.0000      -0.642958       -17.4958
  39   2.0000      -0.621272       -16.9057
  40   2.0000      -0.600507       -16.3406
  41   2.0000      -0.576294       -15.6818
  42   2.0000      -0.552864       -15.0442
  43   2.0000      -0.551926       -15.0187
  44   2.0000      -0.549190       -14.9442
  45   2.0000      -0.538200       -14.6452
  46   2.0000      -0.517666       -14.0864
  47   2.0000      -0.513133       -13.9631
  48   2.0000      -0.499917       -13.6034
  49   2.0000      -0.496376       -13.5071
  50   2.0000      -0.492990       -13.4149
  51   2.0000      -0.475103       -12.9282
  52   2.0000      -0.471530       -12.8310
  53   2.0000      -0.466834       -12.7032
  54   2.0000      -0.454782       -12.3752
  55   2.0000      -0.449086       -12.2203
  56   2.0000      -0.444067       -12.0837
  57   2.0000      -0.438726       -11.9384
  58   2.0000      -0.432226       -11.7615
  59   2.0000      -0.425214       -11.5707
  60   2.0000      -0.420424       -11.4403
  61   2.0000      -0.415690       -11.3115
  62   2.0000      -0.410185       -11.1617
  63   2.0000      -0.361197        -9.8287
  64   2.0000      -0.335607        -9.1323
  65   2.0000      -0.326200        -8.8764
  66   2.0000      -0.280745        -7.6395
  67   0.0000       0.017523         0.4768
  68   0.0000       0.078832         2.1451
  69   0.0000       0.093515         2.5447
  70   0.0000       0.115004         3.1294
  71   0.0000       0.133533         3.6336

MULLIKEN ATOMIC CHARGES
-----------------------
   0 S :    0.082713
   1 C :   -0.136114
   2 C :   -0.091633
   3 C :    0.000218
   4 C :   -0.093618
   5 H :   -0.010609
   6 C :    0.082220
   7 H :    0.029037
   8 H :    0.014244
   9 C :   -0.020545
  10 H :    0.008380
  11 H :    0.028125
  12 C :   -0.078701
  13 H :    0.050524
  14 H :    0.036470
  15 H :    0.025266
  16 S :    0.098107
  17 C :   -0.104737
  18 C :   -0.038298
  19 C :   -0.033265
  20 C :   -0.113382
  21 H :    0.012373
  22 C :    0.081293
  23 H :    0.039139
  24 H :   -0.008982
  25 C :   -0.060086
  26 H :    0.014968
  27 H :    0.019692
  28 C :   -0.030193
  29 H :    0.013587
  30 H :    0.036918
  31 H :    0.017383
  32 H :    0.056557
  33 H :    0.072950
Sum of atomic charges:    0.0000000

LOEWDIN ATOMIC CHARGES
----------------------
   0 S :    0.371378
   1 C :   -0.187530
   2 C :   -0.052760
   3 C :   -0.064424
   4 C :   -0.166768
   5 H :    0.018800
   6 C :   -0.036516
   7 H :    0.038473
   8 H :    0.026171
   9 C :   -0.034145
  10 H :    0.017106
  11 H :    0.025685
  12 C :   -0.069770
  13 H :    0.027891
  14 H :    0.027636
  15 H :    0.024913
  16 S :    0.394124
  17 C :   -0.182443
  18 C :   -0.069752
  19 C :   -0.053270
  20 C :   -0.194102
  21 H :    0.030035
  22 C :   -0.032284
  23 H :    0.047881
  24 H :    0.019028
  25 C :   -0.039528
  26 H :    0.015809
  27 H :    0.029051
  28 C :   -0.059513
  29 H :    0.007926
  30 H :    0.033262
  31 H :    0.020735
  32 H :    0.027086
  33 H :    0.039818

  Mayer bond orders larger than 0.100000
B(  0-S ,  1-C ) :   1.1273 B(  0-S ,  4-C ) :   1.1225 B(  1-C ,  2-C ) :   1.6329
B(  1-C , 32-H ) :   0.9683 B(  2-C ,  3-C ) :   1.2078 B(  2-C ,  6-C ) :   1.0043
B(  3-C ,  4-C ) :   1.6190 B(  3-C ,  5-H ) :   0.9985 B(  4-C , 20-C ) :   1.0736
B(  6-C ,  7-H ) :   0.9483 B(  6-C ,  8-H ) :   0.9323 B(  6-C ,  9-C ) :   1.0568
B(  9-C , 10-H ) :   0.9521 B(  9-C , 11-H ) :   0.9573 B(  9-C , 12-C ) :   1.0707
B( 12-C , 13-H ) :   0.9762 B( 12-C , 14-H ) :   0.9756 B( 12-C , 15-H ) :   0.9767
B( 16-S , 17-C ) :   1.1635 B( 16-S , 20-C ) :   1.1191 B( 17-C , 18-C ) :   1.6057
B( 17-C , 20-C ) :   0.1017 B( 17-C , 33-H ) :   0.9586 B( 18-C , 19-C ) :   1.2357
B( 18-C , 21-H ) :   0.9991 B( 19-C , 20-C ) :   1.5802 B( 19-C , 22-C ) :   1.0364
B( 22-C , 23-H ) :   0.9217 B( 22-C , 24-H ) :   0.9379 B( 22-C , 25-C ) :   1.0877
B( 25-C , 26-H ) :   0.9461 B( 25-C , 27-H ) :   0.9488 B( 25-C , 28-C ) :   1.0777
B( 28-C , 29-H ) :   0.9776 B( 28-C , 30-H ) :   0.9744 B( 28-C , 31-H ) :   0.9728

Dispersion correction           -0.014496835
FINAL SINGLE POINT ENERGY     -1339.859693736397

DIPOLE MOMENT
-------------
                                X             Y             Z
Electronic contribution:      6.55084       7.12233     -25.17752
Nuclear contribution   :     -6.63284      -7.63795      25.60112
                        -----------------------------------------
Total Dipole Moment    :     -0.08200      -0.51562       0.42360
                        -----------------------------------------
Magnitude (a.u.)       :      0.67233
Magnitude (Debye)      :      1.70892

Rotational constants in cm-1:     0.019259     0.008839     0.006676
Rotational constants in MHz :   577.378591   264.993882   200.144281

                             ****ORCA TERMINATED NORMALLY****
TOTAL RUN TIME: 0 days 0 hours 0 minutes 35 seconds 473 msec
