                         Program Version 4.2.1 -  RELEASE  -
|  1> ! wB97X-D3 SP def2-SVP
|  2> %pal
|  3> nprocs 16
|  4> end
|  5>
|  6> * xyz 0 1
|  7> S 	 -39.4992 	 34.2111 	 81.5273
|  8> C 	 -39.706 	 35.5093 	 80.3172
|  9> C 	 -40.7005 	 35.2231 	 79.4016
| 10> C 	 -41.2308 	 33.8939 	 79.5899
| 11> C 	 -40.757 	 33.2696 	 80.7398
| 12> H 	 -41.9916 	 33.3921 	 78.9648
| 13> C 	 -41.1379 	 36.2556 	 78.3981
| 14> H 	 -41.8456 	 35.7105 	 77.7273
| 15> H 	 -40.3074 	 36.6253 	 77.8106
| 16> C 	 -41.8805 	 37.5193 	 78.9396
| 17> H 	 -42.9102 	 37.2274 	 79.2789
| 18> H 	 -41.3739 	 37.8634 	 79.8458
| 19> C 	 -42.059 	 38.6251 	 77.9737
| 20> H 	 -42.6271 	 38.4899 	 77.0806
| 21> H 	 -42.4235 	 39.4419 	 78.5417
| 22> H 	 -41.0701 	 38.8312 	 77.7352
| 23> S 	 -43.1166 	 31.9112 	 81.5338
| 24> C 	 -42.9197 	 30.4143 	 82.3021
| 25> C 	 -41.6061 	 30.0255 	 82.3053
| 26> C 	 -40.6789 	 30.9006 	 81.6402
| 27> C 	 -41.3434 	 32.0315 	 81.2232
| 28> H 	 -41.2947 	 29.1744 	 82.7382
| 29> C 	 -39.156 	 30.6117 	 81.5283
| 30> H 	 -38.8915 	 30.5642 	 82.6325
| 31> H 	 -38.6384 	 31.4595 	 81.1413
| 32> C 	 -38.7754 	 29.2386 	 80.8946
| 33> H 	 -39.1221 	 29.2641 	 79.8249
| 34> H 	 -39.2562 	 28.4025 	 81.4281
| 35> C 	 -37.2051 	 28.9104 	 80.8032
| 36> H 	 -36.9514 	 28.4278 	 81.7636
| 37> H 	 -36.5665 	 29.7975 	 80.5441
| 38> H 	 -37.0114 	 28.1634 	 80.0807
| 39> H 	 -39.2191 	 36.5074 	 80.3504
| 40> H 	 -43.6257 	 29.8602 	 82.8215
| 41> *
| 42>
| 43>                          ****END OF INPUT****

CARTESIAN COORDINATES (ANGSTROEM)
---------------------------------
  S    -39.499200   34.211100   81.527300
  C    -39.706000   35.509300   80.317200
  C    -40.700500   35.223100   79.401600
  C    -41.230800   33.893900   79.589900
  C    -40.757000   33.269600   80.739800
  H    -41.991600   33.392100   78.964800
  C    -41.137900   36.255600   78.398100
  H    -41.845600   35.710500   77.727300
  H    -40.307400   36.625300   77.810600
  C    -41.880500   37.519300   78.939600
  H    -42.910200   37.227400   79.278900
  H    -41.373900   37.863400   79.845800
  C    -42.059000   38.625100   77.973700
  H    -42.627100   38.489900   77.080600
  H    -42.423500   39.441900   78.541700
  H    -41.070100   38.831200   77.735200
  S    -43.116600   31.911200   81.533800
  C    -42.919700   30.414300   82.302100
  C    -41.606100   30.025500   82.305300
  C    -40.678900   30.900600   81.640200
  C    -41.343400   32.031500   81.223200
  H    -41.294700   29.174400   82.738200
  C    -39.156000   30.611700   81.528300
  H    -38.891500   30.564200   82.632500
  H    -38.638400   31.459500   81.141300
  C    -38.775400   29.238600   80.894600
  H    -39.122100   29.264100   79.824900
  H    -39.256200   28.402500   81.428100
  C    -37.205100   28.910400   80.803200
  H    -36.951400   28.427800   81.763600
  H    -36.566500   29.797500   80.544100
  H    -37.011400   28.163400   80.080700
  H    -39.219100   36.507400   80.350400
  H    -43.625700   29.860200   82.821500

 Total Charge           Charge          ....    0
 Multiplicity           Mult            ....    1
 Number of Electrons    NEL             ....  134
 Basis Dimension        Dim             ....  322

ORBITAL ENERGIES
----------------

  NO   OCC          E(Eh)            E(eV)
   0   2.0000     -88.970595     -2421.0130
   1   2.0000     -88.965398     -2420.8716
   2   2.0000     -10.327869      -281.0356
   3   2.0000     -10.323998      -280.9303
   4   2.0000     -10.316066      -280.7144
   5   2.0000     -10.308505      -280.5087
   6   2.0000     -10.302956      -280.3577
   7   2.0000     -10.301570      -280.3200
   8   2.0000     -10.299805      -280.2720
   9   2.0000     -10.298850      -280.2459
  10   2.0000     -10.296262      -280.1755
  11   2.0000     -10.293275      -280.0943
  12   2.0000     -10.286219      -279.9023
  13   2.0000     -10.284010      -279.8421
  14   2.0000     -10.281428      -279.7719
  15   2.0000     -10.264685      -279.3163
  16   2.0000      -8.083967      -219.9759
  17   2.0000      -8.080255      -219.8749
  18   2.0000      -6.042613      -164.4279
  19   2.0000      -6.038769      -164.3232
  20   2.0000      -6.038646      -164.3199
  21   2.0000      -6.034842      -164.2164
  22   2.0000      -6.034683      -164.2121
  23   2.0000      -6.030899      -164.1091
  24   2.0000      -1.002974       -27.2923
  25   2.0000      -0.980704       -26.6863
  26   2.0000      -0.914305       -24.8795
  27   2.0000      -0.898400       -24.4467
  28   2.0000      -0.871925       -23.7263
  29   2.0000      -0.850922       -23.1548
  30   2.0000      -0.845985       -23.0204
  31   2.0000      -0.811426       -22.0800
  32   2.0000      -0.784631       -21.3509
  33   2.0000      -0.772101       -21.0099
  34   2.0000      -0.702943       -19.1281
  35   2.0000      -0.698207       -18.9992
  36   2.0000      -0.695578       -18.9276
  37   2.0000      -0.662287       -18.0218
  38   2.0000      -0.632764       -17.2184
  39   2.0000      -0.612281       -16.6610
  40   2.0000      -0.597818       -16.2674
  41   2.0000      -0.571503       -15.5514
  42   2.0000      -0.565029       -15.3752
  43   2.0000      -0.558846       -15.2070
  44   2.0000      -0.527318       -14.3490
  45   2.0000      -0.524098       -14.2614
  46   2.0000      -0.514741       -14.0068
  47   2.0000      -0.513830       -13.9820
  48   2.0000      -0.506234       -13.7753
  49   2.0000      -0.504357       -13.7243
  50   2.0000      -0.485233       -13.2039
  51   2.0000      -0.476114       -12.9557
  52   2.0000      -0.474017       -12.8987
  53   2.0000      -0.466050       -12.6819
  54   2.0000      -0.458714       -12.4822
  55   2.0000      -0.453687       -12.3454
  56   2.0000      -0.449469       -12.2307
  57   2.0000      -0.437863       -11.9148
  58   2.0000      -0.430251       -11.7077
  59   2.0000      -0.427348       -11.6287
  60   2.0000      -0.421045       -11.4572
  61   2.0000      -0.410765       -11.1775
  62   2.0000      -0.407754       -11.0956
  63   2.0000      -0.342353        -9.3159
  64   2.0000      -0.331104        -9.0098
  65   2.0000      -0.328364        -8.9352
  66   2.0000      -0.291578        -7.9343
  67   0.0000       0.031813         0.8657
  68   0.0000       0.066288         1.8038
  69   0.0000       0.109912         2.9909
  70   0.0000       0.110604         3.0097
  71   0.0000       0.127551         3.4708

MULLIKEN ATOMIC CHARGES
-----------------------
   0 S :    0.118721
   1 C :   -0.150276
   2 C :   -0.062987
   3 C :    0.000395
   4 C :   -0.154713
   5 H :    0.027056
   6 C :    0.057465
   7 H :    0.023241
   8 H :    0.027387
   9 C :   -0.105940
  10 H :    0.025370
  11 H :    0.023580
  12 C :    0.027050
  13 H :    0.034743
  14 H :    0.024759
  15 H :   -0.000987
  16 S :    0.117952
  17 C :   -0.042791
  18 C :   -0.000821
  19 C :   -0.031965
  20 C :   -0.180115
  21 H :   -0.040334
  22 C :    0.083657
  23 H :    0.041955
  24 H :    0.017953
  25 C :   -0.118288
  26 H :    0.047441
  27 H :    0.040355
  28 C :   -0.056226
  29 H :    0.034813
  30 H :    0.049741
  31 H :    0.028821
  32 H :    0.061493
  33 H :    0.031496
Sum of atomic charges:   -0.0000000

LOEWDIN ATOMIC CHARGES
----------------------
   0 S :    0.394063
   1 C :   -0.195774
   2 C :   -0.062376
   3 C :   -0.066582
   4 C :   -0.191071
   5 H :    0.035673
   6 C :   -0.035834
   7 H :    0.033492
   8 H :    0.028135
   9 C :   -0.039060
  10 H :    0.024340
  11 H :    0.022052
  12 C :   -0.055607
  13 H :    0.024582
  14 H :    0.029076
  15 H :    0.015932
  16 S :    0.407888
  17 C :   -0.187084
  18 C :   -0.059277
  19 C :   -0.047049
  20 C :   -0.189338
  21 H :    0.005231
  22 C :   -0.031802
  23 H :    0.041409
  24 H :    0.017784
  25 C :   -0.041749
  26 H :    0.029947
  27 H :    0.025256
  28 C :   -0.068471
  29 H :    0.027002
  30 H :    0.033149
  31 H :    0.020193
  32 H :    0.035063
  33 H :    0.020806

  Mayer bond orders larger than 0.100000
B(  0-S ,  1-C ) :   1.1210 B(  0-S ,  4-C ) :   1.1353 B(  1-C ,  2-C ) :   1.6209
B(  1-C , 32-H ) :   0.9617 B(  2-C ,  3-C ) :   1.2295 B(  2-C ,  6-C ) :   1.0266
B(  3-C ,  4-C ) :   1.5645 B(  3-C ,  5-H ) :   0.9912 B(  4-C , 20-C ) :   1.0695
B(  6-C ,  7-H ) :   0.9394 B(  6-C ,  8-H ) :   0.9404 B(  6-C ,  9-C ) :   1.0610
B(  9-C , 10-H ) :   0.9521 B(  9-C , 11-H ) :   0.9578 B(  9-C , 12-C ) :   1.0833
B( 12-C , 13-H ) :   0.9757 B( 12-C , 14-H ) :   0.9658 B( 12-C , 15-H ) :   0.9688
B( 16-S , 17-C ) :   1.1510 B( 16-S , 20-C ) :   1.1208 B( 17-C , 18-C ) :   1.6157
B( 17-C , 33-H ) :   0.9726 B( 18-C , 19-C ) :   1.2318 B( 18-C , 21-H ) :   1.0022
B( 19-C , 20-C ) :   1.5987 B( 19-C , 22-C ) :   1.0290 B( 22-C , 23-H ) :   0.9380
B( 22-C , 24-H ) :   0.9313 B( 22-C , 25-C ) :   1.0532 B( 25-C , 26-H ) :   0.9622
B( 25-C , 27-H ) :   0.9589 B( 25-C , 28-C ) :   1.0709 B( 28-C , 29-H ) :   0.9790
B( 28-C , 30-H ) :   0.9770 B( 28-C , 31-H ) :   0.9781

Dispersion correction           -0.013388025
FINAL SINGLE POINT ENERGY     -1339.866318117155

DIPOLE MOMENT
-------------
                                X             Y             Z
Electronic contribution:     -8.53801      -3.94054      11.16570
Nuclear contribution   :      8.64042       3.91568     -11.30303
                        -----------------------------------------
Total Dipole Moment    :      0.10241      -0.02486      -0.13733
                        -----------------------------------------
Magnitude (a.u.)       :      0.17310
Magnitude (Debye)      :      0.43999

Rotational constants in cm-1:     0.022069     0.006917     0.005759
Rotational constants in MHz :   661.603377   207.357563   172.656170

                             ****ORCA TERMINATED NORMALLY****
TOTAL RUN TIME: 0 days 0 hours 0 minutes 27 seconds 15 msec
