                         Program Version 4.2.1 -  RELEASE  -
|  1> ! wB97X-D3 SP def2-SVP
|  2> %pal
|  3> nprocs 16
|  4> end
|  5>
|  6> * xyz 0 1
|  7> S 	 -7.90079 	 59.8176 	 47.8696
|  8> C 	 -8.98726 	 61.1432 	 48.1111
|  9> C 	 -8.51978 	 62.0581 	 49.0854
| 10> C 	 -7.31578 	 61.618 	 49.6925
| 11> C 	 -6.78089 	 60.4874 	 49.0412
| 12> H 	 -6.83946 	 62.0853 	 50.5082
| 13> C 	 -9.19113 	 63.3886 	 49.4528
| 14> H 	 -9.77099 	 63.1895 	 50.3897
| 15> H 	 -9.88867 	 63.577 	 48.6408
| 16> C 	 -8.30554 	 64.6331 	 49.4484
| 17> H 	 -7.44187 	 64.3998 	 49.9861
| 18> H 	 -7.97551 	 64.9246 	 48.4865
| 19> C 	 -9.0532 	 65.7197 	 50.1882
| 20> H 	 -10.1041 	 65.9277 	 49.832
| 21> H 	 -9.11568 	 65.4193 	 51.2345
| 22> H 	 -8.40146 	 66.6402 	 50.117
| 23> S 	 -5.41012 	 58.0927 	 49.1851
| 24> C 	 -3.67324 	 58.0954 	 49.5619
| 25> C 	 -3.30636 	 59.3649 	 49.8634
| 26> C 	 -4.3198 	 60.389 	 49.947
| 27> C 	 -5.5323 	 59.8311 	 49.4761
| 28> H 	 -2.27991 	 59.5314 	 50.2229
| 29> C 	 -3.99752 	 61.8268 	 50.4734
| 30> H 	 -3.15452 	 61.745 	 51.2255
| 31> H 	 -4.8817 	 62.2388 	 50.9099
| 32> C 	 -3.35661 	 62.8287 	 49.5117
| 33> H 	 -2.40545 	 62.42 	 49.1816
| 34> H 	 -3.1153 	 63.8028 	 49.901
| 35> C 	 -4.21653 	 63.1799 	 48.2711
| 36> H 	 -5.15466 	 63.4866 	 48.6736
| 37> H 	 -4.46035 	 62.3141 	 47.7146
| 38> H 	 -3.79272 	 63.9715 	 47.7043
| 39> H 	 -9.91515 	 61.3232 	 47.5002
| 40> H 	 -2.85316 	 57.3422 	 49.4069
| 41> *
| 42>
| 43>                          ****END OF INPUT****

CARTESIAN COORDINATES (ANGSTROEM)
---------------------------------
  S     -7.900790   59.817600   47.869600
  C     -8.987260   61.143200   48.111100
  C     -8.519780   62.058100   49.085400
  C     -7.315780   61.618000   49.692500
  C     -6.780890   60.487400   49.041200
  H     -6.839460   62.085300   50.508200
  C     -9.191130   63.388600   49.452800
  H     -9.770990   63.189500   50.389700
  H     -9.888670   63.577000   48.640800
  C     -8.305540   64.633100   49.448400
  H     -7.441870   64.399800   49.986100
  H     -7.975510   64.924600   48.486500
  C     -9.053200   65.719700   50.188200
  H    -10.104100   65.927700   49.832000
  H     -9.115680   65.419300   51.234500
  H     -8.401460   66.640200   50.117000
  S     -5.410120   58.092700   49.185100
  C     -3.673240   58.095400   49.561900
  C     -3.306360   59.364900   49.863400
  C     -4.319800   60.389000   49.947000
  C     -5.532300   59.831100   49.476100
  H     -2.279910   59.531400   50.222900
  C     -3.997520   61.826800   50.473400
  H     -3.154520   61.745000   51.225500
  H     -4.881700   62.238800   50.909900
  C     -3.356610   62.828700   49.511700
  H     -2.405450   62.420000   49.181600
  H     -3.115300   63.802800   49.901000
  C     -4.216530   63.179900   48.271100
  H     -5.154660   63.486600   48.673600
  H     -4.460350   62.314100   47.714600
  H     -3.792720   63.971500   47.704300
  H     -9.915150   61.323200   47.500200
  H     -2.853160   57.342200   49.406900

 Total Charge           Charge          ....    0
 Multiplicity           Mult            ....    1
 Number of Electrons    NEL             ....  134
 Basis Dimension        Dim             ....  322

ORBITAL ENERGIES
----------------

  NO   OCC          E(Eh)            E(eV)
   0   2.0000     -88.974760     -2421.1263
   1   2.0000     -88.967977     -2420.9417
   2   2.0000     -10.336831      -281.2795
   3   2.0000     -10.334704      -281.2216
   4   2.0000     -10.319263      -280.8014
   5   2.0000     -10.318888      -280.7912
   6   2.0000     -10.312390      -280.6144
   7   2.0000     -10.304030      -280.3869
   8   2.0000     -10.303775      -280.3800
   9   2.0000     -10.294830      -280.1366
  10   2.0000     -10.293377      -280.0970
  11   2.0000     -10.292999      -280.0867
  12   2.0000     -10.286579      -279.9120
  13   2.0000     -10.283259      -279.8217
  14   2.0000     -10.280349      -279.7425
  15   2.0000     -10.260895      -279.2132
  16   2.0000      -8.089024      -220.1135
  17   2.0000      -8.081852      -219.9184
  18   2.0000      -6.047498      -164.5608
  19   2.0000      -6.043561      -164.4537
  20   2.0000      -6.040591      -164.3728
  21   2.0000      -6.039898      -164.3540
  22   2.0000      -6.036540      -164.2626
  23   2.0000      -6.032357      -164.1488
  24   2.0000      -1.003563       -27.3083
  25   2.0000      -0.980636       -26.6845
  26   2.0000      -0.917886       -24.9770
  27   2.0000      -0.906786       -24.6749
  28   2.0000      -0.867859       -23.6156
  29   2.0000      -0.855459       -23.2782
  30   2.0000      -0.842969       -22.9384
  31   2.0000      -0.812344       -22.1050
  32   2.0000      -0.783415       -21.3178
  33   2.0000      -0.768474       -20.9112
  34   2.0000      -0.712017       -19.3750
  35   2.0000      -0.698084       -18.9958
  36   2.0000      -0.690410       -18.7870
  37   2.0000      -0.656593       -17.8668
  38   2.0000      -0.634560       -17.2673
  39   2.0000      -0.625769       -17.0280
  40   2.0000      -0.590309       -16.0631
  41   2.0000      -0.573399       -15.6030
  42   2.0000      -0.560597       -15.2546
  43   2.0000      -0.554025       -15.0758
  44   2.0000      -0.545371       -14.8403
  45   2.0000      -0.525282       -14.2937
  46   2.0000      -0.514674       -14.0050
  47   2.0000      -0.511686       -13.9237
  48   2.0000      -0.502266       -13.6674
  49   2.0000      -0.495538       -13.4843
  50   2.0000      -0.492539       -13.4027
  51   2.0000      -0.479090       -13.0367
  52   2.0000      -0.473797       -12.8927
  53   2.0000      -0.467117       -12.7109
  54   2.0000      -0.462636       -12.5890
  55   2.0000      -0.450026       -12.2458
  56   2.0000      -0.447816       -12.1857
  57   2.0000      -0.443652       -12.0724
  58   2.0000      -0.429337       -11.6829
  59   2.0000      -0.424001       -11.5376
  60   2.0000      -0.419098       -11.4042
  61   2.0000      -0.413665       -11.2564
  62   2.0000      -0.409886       -11.1536
  63   2.0000      -0.357083        -9.7167
  64   2.0000      -0.335043        -9.1170
  65   2.0000      -0.330421        -8.9912
  66   2.0000      -0.281125        -7.6498
  67   0.0000       0.016214         0.4412
  68   0.0000       0.079980         2.1764
  69   0.0000       0.102127         2.7790
  70   0.0000       0.114537         3.1167
  71   0.0000       0.131162         3.5691

MULLIKEN ATOMIC CHARGES
-----------------------
   0 S :    0.129413
   1 C :   -0.144667
   2 C :   -0.091344
   3 C :    0.011932
   4 C :   -0.113188
   5 H :   -0.007004
   6 C :    0.037648
   7 H :    0.053853
   8 H :    0.015114
   9 C :   -0.026627
  10 H :    0.010644
  11 H :    0.027964
  12 C :   -0.074772
  13 H :    0.043845
  14 H :    0.031652
  15 H :    0.041741
  16 S :    0.091611
  17 C :   -0.097328
  18 C :   -0.054717
  19 C :   -0.049164
  20 C :   -0.151807
  21 H :    0.023176
  22 C :    0.068569
  23 H :    0.041614
  24 H :    0.016993
  25 C :   -0.071945
  26 H :    0.017721
  27 H :    0.023896
  28 C :   -0.012667
  29 H :   -0.001573
  30 H :    0.034944
  31 H :    0.029325
  32 H :    0.067552
  33 H :    0.077597
Sum of atomic charges:   -0.0000000

LOEWDIN ATOMIC CHARGES
----------------------
   0 S :    0.423491
   1 C :   -0.222061
   2 C :   -0.061925
   3 C :   -0.058636
   4 C :   -0.191768
   5 H :    0.019728
   6 C :   -0.033302
   7 H :    0.040127
   8 H :    0.029128
   9 C :   -0.033909
  10 H :    0.012517
  11 H :    0.022306
  12 C :   -0.065681
  13 H :    0.029629
  14 H :    0.024748
  15 H :    0.031693
  16 S :    0.383003
  17 C :   -0.200413
  18 C :   -0.074469
  19 C :   -0.060756
  20 C :   -0.180830
  21 H :    0.031193
  22 C :   -0.025425
  23 H :    0.045240
  24 H :    0.020131
  25 C :   -0.037645
  26 H :    0.018310
  27 H :    0.022812
  28 C :   -0.057291
  29 H :    0.016771
  30 H :    0.022308
  31 H :    0.021204
  32 H :    0.039438
  33 H :    0.050334

  Mayer bond orders larger than 0.100000
B(  0-S ,  1-C ) :   1.1477 B(  0-S ,  4-C ) :   1.1639 B(  1-C ,  2-C ) :   1.5841
B(  1-C , 32-H ) :   0.9570 B(  2-C ,  3-C ) :   1.2784 B(  2-C ,  6-C ) :   1.0102
B(  3-C ,  4-C ) :   1.5170 B(  3-C ,  5-H ) :   0.9997 B(  4-C , 20-C ) :   1.0738
B(  6-C ,  7-H ) :   0.9448 B(  6-C ,  8-H ) :   0.9401 B(  6-C ,  9-C ) :   1.0606
B(  9-C , 10-H ) :   0.9510 B(  9-C , 11-H ) :   0.9563 B(  9-C , 12-C ) :   1.0804
B( 12-C , 13-H ) :   0.9739 B( 12-C , 14-H ) :   0.9766 B( 12-C , 15-H ) :   0.9727
B( 16-S , 17-C ) :   1.1086 B( 16-S , 20-C ) :   1.1417 B( 17-C , 18-C ) :   1.6697
B( 17-C , 33-H ) :   0.9554 B( 18-C , 19-C ) :   1.2449 B( 18-C , 21-H ) :   0.9703
B( 19-C , 20-C ) :   1.5718 B( 19-C , 22-C ) :   1.0233 B( 22-C , 23-H ) :   0.9348
B( 22-C , 24-H ) :   0.9433 B( 22-C , 25-C ) :   1.0748 B( 25-C , 26-H ) :   0.9542
B( 25-C , 27-H ) :   0.9573 B( 25-C , 28-C ) :   1.0772 B( 28-C , 29-H ) :   0.9712
B( 28-C , 30-H ) :   0.9734 B( 28-C , 31-H ) :   0.9744

Dispersion correction           -0.015340370
FINAL SINGLE POINT ENERGY     -1339.866713060425

DIPOLE MOMENT
-------------
                                X             Y             Z
Electronic contribution:     -1.66573     -31.32800      -5.32718
Nuclear contribution   :      1.83495      32.03356       5.50756
                        -----------------------------------------
Total Dipole Moment    :      0.16922       0.70556       0.18038
                        -----------------------------------------
Magnitude (a.u.)       :      0.74765
Magnitude (Debye)      :      1.90038

Rotational constants in cm-1:     0.019615     0.009475     0.006977
Rotational constants in MHz :   588.056681   284.061245   209.180006

                             ****ORCA TERMINATED NORMALLY****
TOTAL RUN TIME: 0 days 0 hours 0 minutes 33 seconds 513 msec
