                         Program Version 4.2.1 -  RELEASE  -
|  1> ! wB97X-D3 SP def2-SVP
|  2> %pal
|  3> nprocs 16
|  4> end
|  5>
|  6> * xyz 0 1
|  7> S 	 -3.40632 	 50.7053 	 50.9376
|  8> C 	 -2.80988 	 50.7319 	 52.5714
|  9> C 	 -3.81468 	 50.5078 	 53.46
| 10> C 	 -5.13905 	 50.4945 	 52.8081
| 11> C 	 -5.06252 	 50.6388 	 51.4777
| 12> H 	 -6.09428 	 50.4476 	 53.2803
| 13> C 	 -3.66238 	 50.4033 	 54.9386
| 14> H 	 -2.79971 	 49.6691 	 55.0668
| 15> H 	 -4.54532 	 49.9954 	 55.2865
| 16> C 	 -3.44153 	 51.6631 	 55.6349
| 17> H 	 -2.52868 	 52.1069 	 55.21
| 18> H 	 -4.33736 	 52.281 	 55.3884
| 19> C 	 -3.33037 	 51.5637 	 57.145
| 20> H 	 -2.47593 	 50.9215 	 57.4745
| 21> H 	 -3.22728 	 52.5502 	 57.6491
| 22> H 	 -4.21412 	 51.2015 	 57.5405
| 23> S 	 -5.84244 	 52.2072 	 49.4079
| 24> C 	 -7.42945 	 52.1752 	 48.7311
| 25> C 	 -8.20677 	 51.1753 	 49.2505
| 26> C 	 -7.49621 	 50.4225 	 50.28
| 27> C 	 -6.23046 	 50.9025 	 50.544
| 28> H 	 -9.2261 	 51.0569 	 48.8769
| 29> C 	 -8.25965 	 49.3431 	 51.0056
| 30> H 	 -7.55891 	 48.979 	 51.6715
| 31> H 	 -8.33302 	 48.5984 	 50.2624
| 32> C 	 -9.61238 	 49.7208 	 51.6096
| 33> H 	 -9.98679 	 48.7965 	 52.178
| 34> H 	 -10.2809 	 49.95 	 50.7719
| 35> C 	 -9.44415 	 50.9411 	 52.5154
| 36> H 	 -10.1343 	 50.8446 	 53.2958
| 37> H 	 -9.79544 	 51.8454 	 51.8841
| 38> H 	 -8.38078 	 51.0992 	 52.8596
| 39> H 	 -1.74044 	 50.7221 	 52.7707
| 40> H 	 -7.60355 	 52.7794 	 47.8652
| 41> *
| 42>
| 43>                          ****END OF INPUT****

CARTESIAN COORDINATES (ANGSTROEM)
---------------------------------
  S     -3.406320   50.705300   50.937600
  C     -2.809880   50.731900   52.571400
  C     -3.814680   50.507800   53.460000
  C     -5.139050   50.494500   52.808100
  C     -5.062520   50.638800   51.477700
  H     -6.094280   50.447600   53.280300
  C     -3.662380   50.403300   54.938600
  H     -2.799710   49.669100   55.066800
  H     -4.545320   49.995400   55.286500
  C     -3.441530   51.663100   55.634900
  H     -2.528680   52.106900   55.210000
  H     -4.337360   52.281000   55.388400
  C     -3.330370   51.563700   57.145000
  H     -2.475930   50.921500   57.474500
  H     -3.227280   52.550200   57.649100
  H     -4.214120   51.201500   57.540500
  S     -5.842440   52.207200   49.407900
  C     -7.429450   52.175200   48.731100
  C     -8.206770   51.175300   49.250500
  C     -7.496210   50.422500   50.280000
  C     -6.230460   50.902500   50.544000
  H     -9.226100   51.056900   48.876900
  C     -8.259650   49.343100   51.005600
  H     -7.558910   48.979000   51.671500
  H     -8.333020   48.598400   50.262400
  C     -9.612380   49.720800   51.609600
  H     -9.986790   48.796500   52.178000
  H    -10.280900   49.950000   50.771900
  C     -9.444150   50.941100   52.515400
  H    -10.134300   50.844600   53.295800
  H     -9.795440   51.845400   51.884100
  H     -8.380780   51.099200   52.859600
  H     -1.740440   50.722100   52.770700
  H     -7.603550   52.779400   47.865200

 Total Charge           Charge          ....    0
 Multiplicity           Mult            ....    1
 Number of Electrons    NEL             ....  134
 Basis Dimension        Dim             ....  322

ORBITAL ENERGIES
----------------

  NO   OCC          E(Eh)            E(eV)
   0   2.0000     -88.963309     -2420.8147
   1   2.0000     -88.957279     -2420.6506
   2   2.0000     -10.331638      -281.1382
   3   2.0000     -10.331222      -281.1268
   4   2.0000     -10.312742      -280.6240
   5   2.0000     -10.312254      -280.6107
   6   2.0000     -10.306158      -280.4448
   7   2.0000     -10.301027      -280.3052
   8   2.0000     -10.295305      -280.1495
   9   2.0000     -10.294314      -280.1225
  10   2.0000     -10.292023      -280.0602
  11   2.0000     -10.283392      -279.8253
  12   2.0000     -10.282824      -279.8099
  13   2.0000     -10.282216      -279.7933
  14   2.0000     -10.278038      -279.6796
  15   2.0000     -10.276660      -279.6421
  16   2.0000      -8.078660      -219.8315
  17   2.0000      -8.072796      -219.6719
  18   2.0000      -6.037352      -164.2847
  19   2.0000      -6.033138      -164.1700
  20   2.0000      -6.031238      -164.1183
  21   2.0000      -6.029115      -164.0606
  22   2.0000      -6.027203      -164.0085
  23   2.0000      -6.023539      -163.9088
  24   2.0000      -1.007836       -27.4246
  25   2.0000      -0.986610       -26.8470
  26   2.0000      -0.925973       -25.1970
  27   2.0000      -0.914599       -24.8875
  28   2.0000      -0.869093       -23.6492
  29   2.0000      -0.850907       -23.1543
  30   2.0000      -0.843366       -22.9492
  31   2.0000      -0.820855       -22.3366
  32   2.0000      -0.784024       -21.3344
  33   2.0000      -0.777018       -21.1437
  34   2.0000      -0.703163       -19.1340
  35   2.0000      -0.700590       -19.0640
  36   2.0000      -0.689071       -18.7506
  37   2.0000      -0.661024       -17.9874
  38   2.0000      -0.645892       -17.5756
  39   2.0000      -0.618546       -16.8315
  40   2.0000      -0.596705       -16.2372
  41   2.0000      -0.583788       -15.8857
  42   2.0000      -0.563892       -15.3443
  43   2.0000      -0.560922       -15.2635
  44   2.0000      -0.541762       -14.7421
  45   2.0000      -0.524994       -14.2858
  46   2.0000      -0.520835       -14.1726
  47   2.0000      -0.514453       -13.9990
  48   2.0000      -0.509776       -13.8717
  49   2.0000      -0.502808       -13.6821
  50   2.0000      -0.489175       -13.3111
  51   2.0000      -0.476684       -12.9712
  52   2.0000      -0.474566       -12.9136
  53   2.0000      -0.461336       -12.5536
  54   2.0000      -0.456726       -12.4281
  55   2.0000      -0.453023       -12.3274
  56   2.0000      -0.443155       -12.0589
  57   2.0000      -0.436085       -11.8665
  58   2.0000      -0.432603       -11.7717
  59   2.0000      -0.426562       -11.6074
  60   2.0000      -0.420600       -11.4451
  61   2.0000      -0.413953       -11.2642
  62   2.0000      -0.406860       -11.0712
  63   2.0000      -0.354812        -9.6549
  64   2.0000      -0.326646        -8.8885
  65   2.0000      -0.325965        -8.8700
  66   2.0000      -0.298919        -8.1340
  67   0.0000       0.037475         1.0197
  68   0.0000       0.075704         2.0600
  69   0.0000       0.109612         2.9827
  70   0.0000       0.119215         3.2440
  71   0.0000       0.135284         3.6813

MULLIKEN ATOMIC CHARGES
-----------------------
   0 S :    0.104234
   1 C :   -0.137598
   2 C :   -0.094611
   3 C :    0.025550
   4 C :   -0.102314
   5 H :   -0.003114
   6 C :    0.101153
   7 H :    0.033818
   8 H :   -0.013234
   9 C :   -0.075751
  10 H :    0.024427
  11 H :    0.029500
  12 C :   -0.013225
  13 H :    0.033947
  14 H :    0.036404
  15 H :    0.006911
  16 S :    0.076098
  17 C :   -0.081559
  18 C :   -0.045013
  19 C :   -0.097406
  20 C :   -0.150097
  21 H :    0.027908
  22 C :    0.132323
  23 H :   -0.009318
  24 H :    0.018612
  25 C :   -0.100036
  26 H :    0.049361
  27 H :    0.035886
  28 C :   -0.048419
  29 H :    0.026713
  30 H :    0.046358
  31 H :    0.051828
  32 H :    0.055299
  33 H :    0.055363
Sum of atomic charges:    0.0000000

LOEWDIN ATOMIC CHARGES
----------------------
   0 S :    0.400613
   1 C :   -0.196483
   2 C :   -0.055736
   3 C :   -0.066278
   4 C :   -0.189681
   5 H :    0.024657
   6 C :   -0.035120
   7 H :    0.037819
   8 H :    0.016763
   9 C :   -0.043023
  10 H :    0.023368
  11 H :    0.031770
  12 C :   -0.062953
  13 H :    0.029620
  14 H :    0.032734
  15 H :    0.012472
  16 S :    0.396081
  17 C :   -0.179698
  18 C :   -0.078090
  19 C :   -0.054460
  20 C :   -0.186057
  21 H :    0.034792
  22 C :   -0.030627
  23 H :    0.016741
  24 H :    0.030010
  25 C :   -0.042553
  26 H :    0.034226
  27 H :    0.023438
  28 C :   -0.068505
  29 H :    0.016346
  30 H :    0.042168
  31 H :    0.031506
  32 H :    0.030660
  33 H :    0.023479

  Mayer bond orders larger than 0.100000
B(  0-S ,  1-C ) :   1.1192 B(  0-S ,  4-C ) :   1.1471 B(  1-C ,  2-C ) :   1.6401
B(  1-C , 32-H ) :   0.9704 B(  2-C ,  3-C ) :   1.1953 B(  2-C ,  6-C ) :   1.0321
B(  3-C ,  4-C ) :   1.6307 B(  3-C ,  5-H ) :   0.9967 B(  4-C , 20-C ) :   0.9831
B(  6-C ,  7-H ) :   0.9296 B(  6-C ,  8-H ) :   0.9242 B(  6-C ,  9-C ) :   1.0845
B(  9-C , 10-H ) :   0.9531 B(  9-C , 11-H ) :   0.9471 B(  9-C , 12-C ) :   1.0910
B( 12-C , 13-H ) :   0.9723 B( 12-C , 14-H ) :   0.9723 B( 12-C , 15-H ) :   0.9699
B( 16-S , 17-C ) :   1.1636 B( 16-S , 20-C ) :   1.1300 B( 17-C , 18-C ) :   1.6228
B( 17-C , 33-H ) :   0.9687 B( 18-C , 19-C ) :   1.1974 B( 18-C , 21-H ) :   0.9932
B( 19-C , 20-C ) :   1.6452 B( 19-C , 22-C ) :   1.0311 B( 22-C , 23-H ) :   0.9306
B( 22-C , 24-H ) :   0.9193 B( 22-C , 25-C ) :   1.0743 B( 25-C , 26-H ) :   0.9585
B( 25-C , 27-H ) :   0.9544 B( 25-C , 28-C ) :   1.0588 B( 28-C , 29-H ) :   0.9743
B( 28-C , 30-H ) :   0.9690 B( 28-C , 31-H ) :   0.9787

Dispersion correction           -0.014373519
FINAL SINGLE POINT ENERGY     -1339.868868951567

DIPOLE MOMENT
-------------
                                X             Y             Z
Electronic contribution:     10.21728       2.76680     -24.63426
Nuclear contribution   :    -10.63729      -2.93240      25.08276
                        -----------------------------------------
Total Dipole Moment    :     -0.42001      -0.16561       0.44850
                        -----------------------------------------
Magnitude (a.u.)       :      0.63639
Magnitude (Debye)      :      1.61757

Rotational constants in cm-1:     0.020024     0.008165     0.006467
Rotational constants in MHz :   600.311787   244.790514   193.865213

                             ****ORCA TERMINATED NORMALLY****
TOTAL RUN TIME: 0 days 0 hours 0 minutes 34 seconds 178 msec
