                         Program Version 4.2.1 -  RELEASE  -
|  1> ! wB97X-D3 SP def2-SVP
|  2> %pal
|  3> nprocs 16
|  4> end
|  5>
|  6> * xyz 0 1
|  7> S 	 19.2291 	 -1.60933 	 83.704
|  8> C 	 19.2012 	 -0.914102 	 82.1423
|  9> C 	 18.2768 	 0.0984263 	 82.0825
| 10> C 	 17.61 	 0.285809 	 83.3091
| 11> C 	 17.966 	 -0.627195 	 84.274
| 12> H 	 16.7314 	 0.875197 	 83.3647
| 13> C 	 17.6981 	 0.711292 	 80.8049
| 14> H 	 16.6741 	 0.300284 	 80.677
| 15> H 	 18.2246 	 0.304641 	 79.9825
| 16> C 	 17.7315 	 2.22869 	 80.778
| 17> H 	 17.0536 	 2.51461 	 81.5602
| 18> H 	 18.7484 	 2.60519 	 81.0561
| 19> C 	 17.3805 	 2.73048 	 79.4241
| 20> H 	 16.3566 	 2.5005 	 79.2165
| 21> H 	 17.5124 	 3.82221 	 79.3693
| 22> H 	 17.924 	 2.18906 	 78.6012
| 23> S 	 18.253 	 -0.948667 	 87.0341
| 24> C 	 16.8342 	 -1.24109 	 88.041
| 25> C 	 15.7017 	 -1.35965 	 87.2835
| 26> C 	 15.9434 	 -1.17131 	 85.8333
| 27> C 	 17.287 	 -0.90155 	 85.5579
| 28> H 	 14.7685 	 -1.49214 	 87.732
| 29> C 	 14.8177 	 -1.15282 	 84.7771
| 30> H 	 15.3837 	 -1.40581 	 83.8329
| 31> H 	 14.3376 	 -0.159446 	 84.5762
| 32> C 	 13.811 	 -2.27269 	 84.9424
| 33> H 	 13.1701 	 -2.20782 	 85.8136
| 34> H 	 14.3538 	 -3.25406 	 85.0843
| 35> C 	 12.9129 	 -2.1976 	 83.703
| 36> H 	 12.7854 	 -1.22721 	 83.2903
| 37> H 	 11.8798 	 -2.35263 	 84.0281
| 38> H 	 13.2582 	 -2.94585 	 82.9848
| 39> H 	 19.5236 	 -1.56085 	 81.2836
| 40> H 	 16.8115 	 -1.27102 	 89.1428
| 41> *
| 42>
| 43>                          ****END OF INPUT****

CARTESIAN COORDINATES (ANGSTROEM)
---------------------------------
  S     19.229100   -1.609330   83.704000
  C     19.201200   -0.914102   82.142300
  C     18.276800    0.098426   82.082500
  C     17.610000    0.285809   83.309100
  C     17.966000   -0.627195   84.274000
  H     16.731400    0.875197   83.364700
  C     17.698100    0.711292   80.804900
  H     16.674100    0.300284   80.677000
  H     18.224600    0.304641   79.982500
  C     17.731500    2.228690   80.778000
  H     17.053600    2.514610   81.560200
  H     18.748400    2.605190   81.056100
  C     17.380500    2.730480   79.424100
  H     16.356600    2.500500   79.216500
  H     17.512400    3.822210   79.369300
  H     17.924000    2.189060   78.601200
  S     18.253000   -0.948667   87.034100
  C     16.834200   -1.241090   88.041000
  C     15.701700   -1.359650   87.283500
  C     15.943400   -1.171310   85.833300
  C     17.287000   -0.901550   85.557900
  H     14.768500   -1.492140   87.732000
  C     14.817700   -1.152820   84.777100
  H     15.383700   -1.405810   83.832900
  H     14.337600   -0.159446   84.576200
  C     13.811000   -2.272690   84.942400
  H     13.170100   -2.207820   85.813600
  H     14.353800   -3.254060   85.084300
  C     12.912900   -2.197600   83.703000
  H     12.785400   -1.227210   83.290300
  H     11.879800   -2.352630   84.028100
  H     13.258200   -2.945850   82.984800
  H     19.523600   -1.560850   81.283600
  H     16.811500   -1.271020   89.142800

 Total Charge           Charge          ....    0
 Multiplicity           Mult            ....    1
 Number of Electrons    NEL             ....  134
 Basis Dimension        Dim             ....  322

ORBITAL ENERGIES
----------------

  NO   OCC          E(Eh)            E(eV)
   0   2.0000     -88.963649     -2420.8240
   1   2.0000     -88.963231     -2420.8126
   2   2.0000     -10.330112      -281.0966
   3   2.0000     -10.327431      -281.0237
   4   2.0000     -10.319621      -280.8112
   5   2.0000     -10.311111      -280.5796
   6   2.0000     -10.308541      -280.5097
   7   2.0000     -10.298592      -280.2389
   8   2.0000     -10.297658      -280.2135
   9   2.0000     -10.293062      -280.0885
  10   2.0000     -10.289198      -279.9833
  11   2.0000     -10.287868      -279.9471
  12   2.0000     -10.287658      -279.9414
  13   2.0000     -10.283984      -279.8414
  14   2.0000     -10.278573      -279.6942
  15   2.0000     -10.275201      -279.6024
  16   2.0000      -8.080377      -219.8782
  17   2.0000      -8.077633      -219.8036
  18   2.0000      -6.038680      -164.3208
  19   2.0000      -6.036333      -164.2570
  20   2.0000      -6.034476      -164.2064
  21   2.0000      -6.032190      -164.1442
  22   2.0000      -6.031335      -164.1210
  23   2.0000      -6.028211      -164.0359
  24   2.0000      -1.014033       -27.5932
  25   2.0000      -0.982372       -26.7317
  26   2.0000      -0.920027       -25.0352
  27   2.0000      -0.911046       -24.7908
  28   2.0000      -0.871678       -23.7196
  29   2.0000      -0.855387       -23.2763
  30   2.0000      -0.842510       -22.9259
  31   2.0000      -0.817057       -22.2333
  32   2.0000      -0.780872       -21.2486
  33   2.0000      -0.767443       -20.8832
  34   2.0000      -0.707360       -19.2482
  35   2.0000      -0.699561       -19.0360
  36   2.0000      -0.688763       -18.7422
  37   2.0000      -0.655735       -17.8435
  38   2.0000      -0.643122       -17.5002
  39   2.0000      -0.628925       -17.1139
  40   2.0000      -0.594680       -16.1821
  41   2.0000      -0.572700       -15.5840
  42   2.0000      -0.571221       -15.5437
  43   2.0000      -0.564393       -15.3579
  44   2.0000      -0.531838       -14.4720
  45   2.0000      -0.520039       -14.1510
  46   2.0000      -0.518675       -14.1139
  47   2.0000      -0.510203       -13.8833
  48   2.0000      -0.506314       -13.7775
  49   2.0000      -0.505388       -13.7523
  50   2.0000      -0.495858       -13.4930
  51   2.0000      -0.471635       -12.8338
  52   2.0000      -0.469661       -12.7801
  53   2.0000      -0.467285       -12.7155
  54   2.0000      -0.460118       -12.5204
  55   2.0000      -0.450284       -12.2528
  56   2.0000      -0.445999       -12.1362
  57   2.0000      -0.440099       -11.9757
  58   2.0000      -0.437961       -11.9175
  59   2.0000      -0.425975       -11.5914
  60   2.0000      -0.415538       -11.3074
  61   2.0000      -0.412661       -11.2291
  62   2.0000      -0.405919       -11.0456
  63   2.0000      -0.346390        -9.4257
  64   2.0000      -0.333193        -9.0666
  65   2.0000      -0.325944        -8.8694
  66   2.0000      -0.297020        -8.0823
  67   0.0000       0.037434         1.0186
  68   0.0000       0.064330         1.7505
  69   0.0000       0.112836         3.0704
  70   0.0000       0.121072         3.2945
  71   0.0000       0.133256         3.6261

MULLIKEN ATOMIC CHARGES
-----------------------
   0 S :    0.118615
   1 C :   -0.141412
   2 C :   -0.100860
   3 C :    0.044193
   4 C :   -0.156880
   5 H :    0.001366
   6 C :    0.052688
   7 H :    0.038099
   8 H :   -0.007072
   9 C :   -0.077365
  10 H :    0.026099
  11 H :    0.038692
  12 C :   -0.022087
  13 H :    0.012870
  14 H :    0.042587
  15 H :    0.033329
  16 S :    0.095729
  17 C :   -0.092950
  18 C :   -0.007447
  19 C :   -0.031909
  20 C :   -0.149979
  21 H :   -0.001212
  22 C :    0.004248
  23 H :    0.045162
  24 H :    0.055519
  25 C :   -0.106305
  26 H :    0.026812
  27 H :    0.046255
  28 C :   -0.022082
  29 H :    0.017953
  30 H :    0.019465
  31 H :    0.051619
  32 H :    0.079136
  33 H :    0.067124
Sum of atomic charges:    0.0000000

LOEWDIN ATOMIC CHARGES
----------------------
   0 S :    0.446022
   1 C :   -0.226024
   2 C :   -0.063074
   3 C :   -0.062504
   4 C :   -0.207656
   5 H :    0.024241
   6 C :   -0.026569
   7 H :    0.034649
   8 H :    0.017309
   9 C :   -0.043671
  10 H :    0.021270
  11 H :    0.031248
  12 C :   -0.065799
  13 H :    0.020030
  14 H :    0.029886
  15 H :    0.031429
  16 S :    0.386071
  17 C :   -0.181605
  18 C :   -0.065322
  19 C :   -0.056031
  20 C :   -0.195780
  21 H :    0.021017
  22 C :   -0.042777
  23 H :    0.040481
  24 H :    0.033552
  25 C :   -0.046897
  26 H :    0.016446
  27 H :    0.034997
  28 C :   -0.063805
  29 H :    0.020039
  30 H :    0.027482
  31 H :    0.032151
  32 H :    0.041408
  33 H :    0.037787

  Mayer bond orders larger than 0.100000
B(  0-S ,  1-C ) :   1.1548 B(  0-S ,  4-C ) :   1.1954 B(  1-C ,  2-C ) :   1.6025
B(  1-C , 32-H ) :   0.9555 B(  2-C ,  3-C ) :   1.2680 B(  2-C ,  6-C ) :   1.0238
B(  3-C ,  4-C ) :   1.5517 B(  3-C ,  5-H ) :   1.0014 B(  4-C , 20-C ) :   1.0054
B(  6-C ,  7-H ) :   0.9412 B(  6-C ,  8-H ) :   0.9403 B(  6-C ,  9-C ) :   1.0523
B(  9-C , 10-H ) :   0.9527 B(  9-C , 11-H ) :   0.9563 B(  9-C , 12-C ) :   1.0938
B( 12-C , 13-H ) :   0.9677 B( 12-C , 14-H ) :   0.9726 B( 12-C , 15-H ) :   0.9717
B( 16-S , 17-C ) :   1.1349 B( 16-S , 20-C ) :   1.1320 B( 17-C , 18-C ) :   1.6476
B( 17-C , 33-H ) :   0.9622 B( 18-C , 19-C ) :   1.2009 B( 18-C , 21-H ) :   0.9981
B( 19-C , 20-C ) :   1.6310 B( 19-C , 22-C ) :   1.0233 B( 22-C , 23-H ) :   0.9384
B( 22-C , 24-H ) :   0.9402 B( 22-C , 25-C ) :   1.0601 B( 25-C , 26-H ) :   0.9592
B( 25-C , 27-H ) :   0.9604 B( 25-C , 28-C ) :   1.0705 B( 28-C , 29-H ) :   0.9704
B( 28-C , 30-H ) :   0.9746 B( 28-C , 31-H ) :   0.9772

Dispersion correction           -0.013653160
FINAL SINGLE POINT ENERGY     -1339.873299849617

DIPOLE MOMENT
-------------
                                X             Y             Z
Electronic contribution:     20.71227      -7.80680      20.85859
Nuclear contribution   :    -21.55239       7.84686     -21.27954
                        -----------------------------------------
Total Dipole Moment    :     -0.84012       0.04006      -0.42094
                        -----------------------------------------
Magnitude (a.u.)       :      0.94053
Magnitude (Debye)      :      2.39064

Rotational constants in cm-1:     0.017283     0.008406     0.006552
Rotational constants in MHz :   518.140403   252.000227   196.421759

                             ****ORCA TERMINATED NORMALLY****
TOTAL RUN TIME: 0 days 0 hours 0 minutes 34 seconds 256 msec
