                         Program Version 4.2.1 -  RELEASE  -
|  1> ! wB97X-D3 SP def2-SVP
|  2> %pal
|  3> nprocs 16
|  4> end
|  5>
|  6> * xyz 0 1
|  7> S 	 -101.285 	 57.343 	 116.369
|  8> C 	 -100.147 	 55.9545 	 116.416
|  9> C 	 -100.417 	 55.076 	 117.438
| 10> C 	 -101.534 	 55.4951 	 118.221
| 11> C 	 -102.189 	 56.6126 	 117.727
| 12> H 	 -101.911 	 54.9062 	 119.05
| 13> C 	 -99.6144 	 53.8405 	 117.744
| 14> H 	 -99.6903 	 53.2178 	 116.89
| 15> H 	 -100.059 	 53.2012 	 118.51
| 16> C 	 -98.085 	 53.988 	 117.861
| 17> H 	 -97.668 	 53.0591 	 117.51
| 18> H 	 -97.7764 	 54.8282 	 117.203
| 19> C 	 -97.7906 	 54.3859 	 119.297
| 20> H 	 -98.3189 	 55.312 	 119.513
| 21> H 	 -97.9881 	 53.6051 	 119.982
| 22> H 	 -96.7773 	 54.616 	 119.402
| 23> S 	 -104.578 	 57.5816 	 116.856
| 24> C 	 -105.866 	 57.8718 	 117.993
| 25> C 	 -105.556 	 57.3971 	 119.26
| 26> C 	 -104.123 	 57.0546 	 119.341
| 27> C 	 -103.465 	 57.1054 	 118.147
| 28> H 	 -106.338 	 57.5272 	 119.964
| 29> C 	 -103.55 	 56.454 	 120.615
| 30> H 	 -103.547 	 57.349 	 121.276
| 31> H 	 -102.528 	 56.1464 	 120.593
| 32> C 	 -104.28 	 55.3423 	 121.289
| 33> H 	 -105.295 	 55.4337 	 120.977
| 34> H 	 -104.228 	 55.5108 	 122.363
| 35> C 	 -103.766 	 53.9195 	 120.939
| 36> H 	 -103.582 	 53.8708 	 119.855
| 37> H 	 -104.503 	 53.1841 	 121.091
| 38> H 	 -102.81 	 53.5887 	 121.373
| 39> H 	 -99.3998 	 55.8505 	 115.64
| 40> H 	 -106.891 	 58.2988 	 117.794
| 41> *
| 42>
| 43>                          ****END OF INPUT****

CARTESIAN COORDINATES (ANGSTROEM)
---------------------------------
  S    -101.285000   57.343000  116.369000
  C    -100.147000   55.954500  116.416000
  C    -100.417000   55.076000  117.438000
  C    -101.534000   55.495100  118.221000
  C    -102.189000   56.612600  117.727000
  H    -101.911000   54.906200  119.050000
  C    -99.614400   53.840500  117.744000
  H    -99.690300   53.217800  116.890000
  H    -100.059000   53.201200  118.510000
  C    -98.085000   53.988000  117.861000
  H    -97.668000   53.059100  117.510000
  H    -97.776400   54.828200  117.203000
  C    -97.790600   54.385900  119.297000
  H    -98.318900   55.312000  119.513000
  H    -97.988100   53.605100  119.982000
  H    -96.777300   54.616000  119.402000
  S    -104.578000   57.581600  116.856000
  C    -105.866000   57.871800  117.993000
  C    -105.556000   57.397100  119.260000
  C    -104.123000   57.054600  119.341000
  C    -103.465000   57.105400  118.147000
  H    -106.338000   57.527200  119.964000
  C    -103.550000   56.454000  120.615000
  H    -103.547000   57.349000  121.276000
  H    -102.528000   56.146400  120.593000
  C    -104.280000   55.342300  121.289000
  H    -105.295000   55.433700  120.977000
  H    -104.228000   55.510800  122.363000
  C    -103.766000   53.919500  120.939000
  H    -103.582000   53.870800  119.855000
  H    -104.503000   53.184100  121.091000
  H    -102.810000   53.588700  121.373000
  H    -99.399800   55.850500  115.640000
  H    -106.891000   58.298800  117.794000

 Total Charge           Charge          ....    0
 Multiplicity           Mult            ....    1
 Number of Electrons    NEL             ....  134
 Basis Dimension        Dim             ....  322

ORBITAL ENERGIES
----------------

  NO   OCC          E(Eh)            E(eV)
   0   2.0000     -88.967592     -2420.9313
   1   2.0000     -88.962593     -2420.7952
   2   2.0000     -10.331790      -281.1423
   3   2.0000     -10.323669      -280.9213
   4   2.0000     -10.322552      -280.8909
   5   2.0000     -10.316088      -280.7150
   6   2.0000     -10.308127      -280.4984
   7   2.0000     -10.302017      -280.3321
   8   2.0000     -10.297431      -280.2073
   9   2.0000     -10.293700      -280.1058
  10   2.0000     -10.287139      -279.9273
  11   2.0000     -10.285668      -279.8873
  12   2.0000     -10.285117      -279.8723
  13   2.0000     -10.283647      -279.8323
  14   2.0000     -10.278920      -279.7036
  15   2.0000     -10.265876      -279.3487
  16   2.0000      -8.081035      -219.8961
  17   2.0000      -8.077409      -219.7975
  18   2.0000      -6.039648      -164.3472
  19   2.0000      -6.036098      -164.2506
  20   2.0000      -6.035805      -164.2426
  21   2.0000      -6.031950      -164.1377
  22   2.0000      -6.031686      -164.1305
  23   2.0000      -6.027895      -164.0274
  24   2.0000      -1.004421       -27.3317
  25   2.0000      -0.978817       -26.6350
  26   2.0000      -0.916591       -24.9417
  27   2.0000      -0.914575       -24.8868
  28   2.0000      -0.871867       -23.7247
  29   2.0000      -0.850793       -23.1513
  30   2.0000      -0.842193       -22.9172
  31   2.0000      -0.815162       -22.1817
  32   2.0000      -0.787108       -21.4183
  33   2.0000      -0.776998       -21.1432
  34   2.0000      -0.711853       -19.3705
  35   2.0000      -0.706613       -19.2279
  36   2.0000      -0.693496       -18.8710
  37   2.0000      -0.657576       -17.8935
  38   2.0000      -0.636653       -17.3242
  39   2.0000      -0.622005       -16.9256
  40   2.0000      -0.600309       -16.3352
  41   2.0000      -0.579943       -15.7810
  42   2.0000      -0.559458       -15.2236
  43   2.0000      -0.555226       -15.1085
  44   2.0000      -0.546274       -14.8649
  45   2.0000      -0.528680       -14.3861
  46   2.0000      -0.521497       -14.1907
  47   2.0000      -0.510738       -13.8979
  48   2.0000      -0.503310       -13.6958
  49   2.0000      -0.496014       -13.4972
  50   2.0000      -0.490912       -13.3584
  51   2.0000      -0.478835       -13.0298
  52   2.0000      -0.468607       -12.7514
  53   2.0000      -0.467158       -12.7120
  54   2.0000      -0.462677       -12.5901
  55   2.0000      -0.448254       -12.1976
  56   2.0000      -0.446653       -12.1541
  57   2.0000      -0.436078       -11.8663
  58   2.0000      -0.431997       -11.7552
  59   2.0000      -0.428491       -11.6598
  60   2.0000      -0.423281       -11.5181
  61   2.0000      -0.420955       -11.4548
  62   2.0000      -0.407282       -11.0827
  63   2.0000      -0.352774        -9.5995
  64   2.0000      -0.330547        -8.9946
  65   2.0000      -0.326253        -8.8778
  66   2.0000      -0.286295        -7.7905
  67   0.0000       0.021512         0.5854
  68   0.0000       0.075488         2.0541
  69   0.0000       0.097471         2.6523
  70   0.0000       0.114294         3.1101
  71   0.0000       0.133535         3.6337

MULLIKEN ATOMIC CHARGES
-----------------------
   0 S :    0.101629
   1 C :   -0.149593
   2 C :   -0.051714
   3 C :    0.028347
   4 C :   -0.135941
   5 H :   -0.023465
   6 C :    0.068175
   7 H :    0.016298
   8 H :    0.015899
   9 C :   -0.076527
  10 H :    0.025481
  11 H :    0.033048
  12 C :    0.000655
  13 H :    0.033907
  14 H :    0.020339
  15 H :    0.011750
  16 S :    0.095198
  17 C :   -0.113959
  18 C :   -0.039266
  19 C :   -0.048622
  20 C :   -0.100759
  21 H :    0.018417
  22 C :    0.026213
  23 H :    0.033231
  24 H :    0.016898
  25 C :   -0.023256
  26 H :    0.016587
  27 H :    0.031037
  28 C :   -0.057557
  29 H :    0.036947
  30 H :    0.024745
  31 H :    0.037934
  32 H :    0.051244
  33 H :    0.076679
Sum of atomic charges:    0.0000000

LOEWDIN ATOMIC CHARGES
----------------------
   0 S :    0.370943
   1 C :   -0.181297
   2 C :   -0.058140
   3 C :   -0.059965
   4 C :   -0.176045
   5 H :    0.026500
   6 C :   -0.035915
   7 H :    0.030811
   8 H :    0.028704
   9 C :   -0.030325
  10 H :    0.020271
  11 H :    0.028783
  12 C :   -0.056366
  13 H :    0.031388
  14 H :    0.018856
  15 H :    0.015628
  16 S :    0.392041
  17 C :   -0.189514
  18 C :   -0.075340
  19 C :   -0.051651
  20 C :   -0.193188
  21 H :    0.028191
  22 C :   -0.039399
  23 H :    0.040743
  24 H :    0.023898
  25 C :   -0.034136
  26 H :    0.021137
  27 H :    0.027688
  28 C :   -0.067774
  29 H :    0.027464
  30 H :    0.022155
  31 H :    0.026213
  32 H :    0.023678
  33 H :    0.043962

  Mayer bond orders larger than 0.100000
B(  0-S ,  1-C ) :   1.1166 B(  0-S ,  4-C ) :   1.1357 B(  1-C ,  2-C ) :   1.6148
B(  1-C , 32-H ) :   0.9664 B(  2-C ,  3-C ) :   1.2424 B(  2-C ,  6-C ) :   1.0266
B(  3-C ,  4-C ) :   1.5610 B(  3-C ,  5-H ) :   0.9828 B(  4-C , 20-C ) :   1.0779
B(  6-C ,  7-H ) :   0.9250 B(  6-C ,  8-H ) :   0.9423 B(  6-C ,  9-C ) :   1.0682
B(  9-C , 10-H ) :   0.9564 B(  9-C , 11-H ) :   0.9557 B(  9-C , 12-C ) :   1.0817
B( 12-C , 13-H ) :   0.9739 B( 12-C , 14-H ) :   0.9759 B( 12-C , 15-H ) :   0.9713
B( 16-S , 17-C ) :   1.1480 B( 16-S , 20-C ) :   1.1057 B( 17-C , 18-C ) :   1.6544
B( 17-C , 33-H ) :   0.9577 B( 18-C , 19-C ) :   1.1800 B( 18-C , 21-H ) :   0.9899
B( 19-C , 20-C ) :   1.6388 B( 19-C , 22-C ) :   1.0454 B( 22-C , 23-H ) :   0.9214
B( 22-C , 24-H ) :   0.9437 B( 22-C , 25-C ) :   1.0726 B( 25-C , 26-H ) :   0.9521
B( 25-C , 27-H ) :   0.9502 B( 25-C , 28-C ) :   1.0824 B( 28-C , 29-H ) :   0.9648
B( 28-C , 30-H ) :   0.9698 B( 28-C , 31-H ) :   0.9736

Dispersion correction           -0.014685524
FINAL SINGLE POINT ENERGY     -1339.866087359902

DIPOLE MOMENT
-------------
                                X             Y             Z
Electronic contribution:    -11.77623      19.09500     -19.03299
Nuclear contribution   :     11.81398     -19.65675      19.50354
                        -----------------------------------------
Total Dipole Moment    :      0.03775      -0.56175       0.47054
                        -----------------------------------------
Magnitude (a.u.)       :      0.73375
Magnitude (Debye)      :      1.86506

Rotational constants in cm-1:     0.019621     0.009284     0.006749
Rotational constants in MHz :   588.228382   278.328161   202.324264

                             ****ORCA TERMINATED NORMALLY****
TOTAL RUN TIME: 0 days 0 hours 0 minutes 35 seconds 947 msec
