                         Program Version 4.2.1 -  RELEASE  -
|  1> ! wB97X-D3 SP def2-SVP
|  2> %pal
|  3> nprocs 16
|  4> end
|  5>
|  6> * xyz 0 1
|  7> S 	 -15.1064 	 -7.95242 	 84.2737
|  8> C 	 -13.7754 	 -7.36263 	 83.3047
|  9> C 	 -12.6295 	 -7.04838 	 84.022
| 10> C 	 -12.9236 	 -7.18116 	 85.4177
| 11> C 	 -14.1656 	 -7.6565 	 85.7344
| 12> H 	 -12.1261 	 -7.0907 	 86.1884
| 13> C 	 -11.2984 	 -6.54351 	 83.4591
| 14> H 	 -11.4774 	 -5.59699 	 82.9758
| 15> H 	 -10.9099 	 -7.37605 	 82.8283
| 16> C 	 -10.2765 	 -6.24687 	 84.5358
| 17> H 	 -10.7138 	 -5.55583 	 85.2699
| 18> H 	 -10.0587 	 -7.187 	 85.038
| 19> C 	 -8.8873 	 -5.76117 	 84.0918
| 20> H 	 -8.16819 	 -6.11916 	 84.8389
| 21> H 	 -8.59376 	 -6.19264 	 83.1635
| 22> H 	 -8.89699 	 -4.66892 	 84.0273
| 23> S 	 -14.9292 	 -9.81301 	 87.3131
| 24> C 	 -15.6224 	 -9.55865 	 88.8794
| 25> C 	 -15.5846 	 -8.18355 	 89.2743
| 26> C 	 -15.0482 	 -7.34123 	 88.2096
| 27> C 	 -14.6787 	 -8.07556 	 87.0679
| 28> H 	 -16.062 	 -7.78609 	 90.134
| 29> C 	 -15.1397 	 -5.82475 	 88.1631
| 30> H 	 -15.5655 	 -5.56971 	 87.2717
| 31> H 	 -14.1067 	 -5.55498 	 88.0981
| 32> C 	 -15.8814 	 -5.06489 	 89.295
| 33> H 	 -15.265 	 -5.17499 	 90.2003
| 34> H 	 -16.7979 	 -5.49057 	 89.6144
| 35> C 	 -16.0121 	 -3.5929 	 88.9682
| 36> H 	 -16.7613 	 -3.40725 	 88.1576
| 37> H 	 -15.017 	 -3.12834 	 88.756
| 38> H 	 -16.2924 	 -2.9577 	 89.802
| 39> H 	 -13.8432 	 -7.30611 	 82.17
| 40> H 	 -16.2423 	 -10.229 	 89.391
| 41> *
| 42>
| 43>                          ****END OF INPUT****

CARTESIAN COORDINATES (ANGSTROEM)
---------------------------------
  S    -15.106400   -7.952420   84.273700
  C    -13.775400   -7.362630   83.304700
  C    -12.629500   -7.048380   84.022000
  C    -12.923600   -7.181160   85.417700
  C    -14.165600   -7.656500   85.734400
  H    -12.126100   -7.090700   86.188400
  C    -11.298400   -6.543510   83.459100
  H    -11.477400   -5.596990   82.975800
  H    -10.909900   -7.376050   82.828300
  C    -10.276500   -6.246870   84.535800
  H    -10.713800   -5.555830   85.269900
  H    -10.058700   -7.187000   85.038000
  C     -8.887300   -5.761170   84.091800
  H     -8.168190   -6.119160   84.838900
  H     -8.593760   -6.192640   83.163500
  H     -8.896990   -4.668920   84.027300
  S    -14.929200   -9.813010   87.313100
  C    -15.622400   -9.558650   88.879400
  C    -15.584600   -8.183550   89.274300
  C    -15.048200   -7.341230   88.209600
  C    -14.678700   -8.075560   87.067900
  H    -16.062000   -7.786090   90.134000
  C    -15.139700   -5.824750   88.163100
  H    -15.565500   -5.569710   87.271700
  H    -14.106700   -5.554980   88.098100
  C    -15.881400   -5.064890   89.295000
  H    -15.265000   -5.174990   90.200300
  H    -16.797900   -5.490570   89.614400
  C    -16.012100   -3.592900   88.968200
  H    -16.761300   -3.407250   88.157600
  H    -15.017000   -3.128340   88.756000
  H    -16.292400   -2.957700   89.802000
  H    -13.843200   -7.306110   82.170000
  H    -16.242300  -10.229000   89.391000

 Total Charge           Charge          ....    0
 Multiplicity           Mult            ....    1
 Number of Electrons    NEL             ....  134
 Basis Dimension        Dim             ....  322

ORBITAL ENERGIES
----------------

  NO   OCC          E(Eh)            E(eV)
   0   2.0000     -88.967478     -2420.9282
   1   2.0000     -88.965205     -2420.8663
   2   2.0000     -10.328265      -281.0464
   3   2.0000     -10.325485      -280.9707
   4   2.0000     -10.319243      -280.8009
   5   2.0000     -10.315857      -280.7087
   6   2.0000     -10.306255      -280.4474
   7   2.0000     -10.302429      -280.3434
   8   2.0000     -10.297649      -280.2133
   9   2.0000     -10.296837      -280.1912
  10   2.0000     -10.294791      -280.1355
  11   2.0000     -10.285987      -279.8959
  12   2.0000     -10.285563      -279.8844
  13   2.0000     -10.282583      -279.8033
  14   2.0000     -10.280972      -279.7595
  15   2.0000     -10.279363      -279.7157
  16   2.0000      -8.081964      -219.9214
  17   2.0000      -8.079587      -219.8567
  18   2.0000      -6.040449      -164.3690
  19   2.0000      -6.038051      -164.3037
  20   2.0000      -6.036534      -164.2624
  21   2.0000      -6.034036      -164.1945
  22   2.0000      -6.032737      -164.1591
  23   2.0000      -6.030539      -164.0993
  24   2.0000      -1.000027       -27.2121
  25   2.0000      -0.976938       -26.5838
  26   2.0000      -0.915582       -24.9142
  27   2.0000      -0.908904       -24.7325
  28   2.0000      -0.863352       -23.4930
  29   2.0000      -0.850791       -23.1512
  30   2.0000      -0.844277       -22.9739
  31   2.0000      -0.811685       -22.0871
  32   2.0000      -0.784041       -21.3348
  33   2.0000      -0.769611       -20.9422
  34   2.0000      -0.710794       -19.3417
  35   2.0000      -0.704145       -19.1608
  36   2.0000      -0.680595       -18.5199
  37   2.0000      -0.651426       -17.7262
  38   2.0000      -0.636430       -17.3181
  39   2.0000      -0.617533       -16.8039
  40   2.0000      -0.593980       -16.1630
  41   2.0000      -0.585481       -15.9318
  42   2.0000      -0.570956       -15.5365
  43   2.0000      -0.561446       -15.2777
  44   2.0000      -0.524976       -14.2853
  45   2.0000      -0.519725       -14.1424
  46   2.0000      -0.517088       -14.0707
  47   2.0000      -0.509960       -13.8767
  48   2.0000      -0.505305       -13.7500
  49   2.0000      -0.495985       -13.4964
  50   2.0000      -0.488105       -13.2820
  51   2.0000      -0.477971       -13.0062
  52   2.0000      -0.470924       -12.8145
  53   2.0000      -0.462743       -12.5919
  54   2.0000      -0.460128       -12.5207
  55   2.0000      -0.450998       -12.2723
  56   2.0000      -0.448297       -12.1988
  57   2.0000      -0.432267       -11.7626
  58   2.0000      -0.429863       -11.6972
  59   2.0000      -0.428073       -11.6485
  60   2.0000      -0.425766       -11.5857
  61   2.0000      -0.414942       -11.2912
  62   2.0000      -0.413308       -11.2467
  63   2.0000      -0.338409        -9.2086
  64   2.0000      -0.326923        -8.8960
  65   2.0000      -0.325102        -8.8465
  66   2.0000      -0.296964        -8.0808
  67   0.0000       0.033869         0.9216
  68   0.0000       0.061144         1.6638
  69   0.0000       0.120292         3.2733
  70   0.0000       0.127316         3.4644
  71   0.0000       0.131323         3.5735

MULLIKEN ATOMIC CHARGES
-----------------------
   0 S :    0.120647
   1 C :   -0.158342
   2 C :   -0.122473
   3 C :    0.026073
   4 C :   -0.166308
   5 H :    0.029136
   6 C :    0.120830
   7 H :    0.040387
   8 H :    0.047113
   9 C :   -0.182509
  10 H :    0.041467
  11 H :    0.030555
  12 C :    0.008316
  13 H :    0.035668
  14 H :    0.018743
  15 H :    0.036860
  16 S :    0.117028
  17 C :   -0.070406
  18 C :   -0.043873
  19 C :   -0.047974
  20 C :   -0.185677
  21 H :    0.011980
  22 C :    0.118783
  23 H :    0.014752
  24 H :    0.021251
  25 C :   -0.062580
  26 H :    0.022671
  27 H :    0.023055
  28 C :   -0.060941
  29 H :    0.047162
  30 H :    0.030035
  31 H :    0.026278
  32 H :    0.066726
  33 H :    0.045564
Sum of atomic charges:   -0.0000000

LOEWDIN ATOMIC CHARGES
----------------------
   0 S :    0.404882
   1 C :   -0.202332
   2 C :   -0.070453
   3 C :   -0.065255
   4 C :   -0.202748
   5 H :    0.038090
   6 C :   -0.029736
   7 H :    0.033673
   8 H :    0.041395
   9 C :   -0.052783
  10 H :    0.025142
  11 H :    0.022120
  12 C :   -0.057367
  13 H :    0.032136
  14 H :    0.019958
  15 H :    0.026442
  16 S :    0.412164
  17 C :   -0.188198
  18 C :   -0.068442
  19 C :   -0.045216
  20 C :   -0.206871
  21 H :    0.023599
  22 C :   -0.021644
  23 H :    0.020487
  24 H :    0.035413
  25 C :   -0.041440
  26 H :    0.025958
  27 H :    0.017378
  28 C :   -0.070625
  29 H :    0.031000
  30 H :    0.030787
  31 H :    0.025295
  32 H :    0.038229
  33 H :    0.018960

  Mayer bond orders larger than 0.100000
B(  0-S ,  1-C ) :   1.1534 B(  0-S ,  4-C ) :   1.1431 B(  1-C ,  2-C ) :   1.6242
B(  1-C , 32-H ) :   0.9602 B(  2-C ,  3-C ) :   1.2664 B(  2-C ,  6-C ) :   0.9924
B(  3-C ,  4-C ) :   1.5819 B(  3-C ,  5-H ) :   0.9774 B(  4-C , 20-C ) :   1.0079
B(  6-C ,  7-H ) :   0.9367 B(  6-C ,  8-H ) :   0.9281 B(  6-C ,  9-C ) :   1.1156
B(  9-C , 10-H ) :   0.9471 B(  9-C , 11-H ) :   0.9529 B(  9-C , 12-C ) :   1.0753
B( 12-C , 13-H ) :   0.9766 B( 12-C , 14-H ) :   0.9721 B( 12-C , 15-H ) :   0.9755
B( 16-S , 17-C ) :   1.1775 B( 16-S , 20-C ) :   1.1446 B( 17-C , 18-C ) :   1.5731
B( 17-C , 20-C ) :   0.1043 B( 17-C , 33-H ) :   0.9692 B( 18-C , 19-C ) :   1.2679
B( 18-C , 21-H ) :   0.9858 B( 19-C , 20-C ) :   1.5963 B( 19-C , 22-C ) :   1.0168
B( 22-C , 23-H ) :   0.9401 B( 22-C , 24-H ) :   0.9171 B( 22-C , 25-C ) :   1.0710
B( 25-C , 26-H ) :   0.9474 B( 25-C , 27-H ) :   0.9554 B( 25-C , 28-C ) :   1.0948
B( 28-C , 29-H ) :   0.9748 B( 28-C , 30-H ) :   0.9710 B( 28-C , 31-H ) :   0.9711

Dispersion correction           -0.013315483
FINAL SINGLE POINT ENERGY     -1339.872255900403

DIPOLE MOMENT
-------------
                                X             Y             Z
Electronic contribution:    -14.01854     -22.71929      -4.32225
Nuclear contribution   :     14.29936      23.22438       4.35685
                        -----------------------------------------
Total Dipole Moment    :      0.28082       0.50509       0.03460
                        -----------------------------------------
Magnitude (a.u.)       :      0.57894
Magnitude (Debye)      :      1.47154

Rotational constants in cm-1:     0.016297     0.007892     0.006571
Rotational constants in MHz :   488.565754   236.581569   197.006368

                             ****ORCA TERMINATED NORMALLY****
TOTAL RUN TIME: 0 days 0 hours 0 minutes 32 seconds 151 msec
