                         Program Version 4.2.1 -  RELEASE  -
|  1> ! wB97X-D3 SP def2-SVP
|  2> %pal
|  3> nprocs 16
|  4> end
|  5>
|  6> * xyz 0 1
|  7> S 	 41.8224 	 12.5969 	 85.1686
|  8> C 	 41.5956 	 10.8108 	 85.29
|  9> C 	 42.8263 	 10.1498 	 84.9659
| 10> C 	 43.8595 	 11.1061 	 84.632
| 11> C 	 43.4821 	 12.4285 	 84.7035
| 12> H 	 44.9246 	 10.9518 	 84.3425
| 13> C 	 43.2086 	 8.68159 	 85.011
| 14> H 	 43.9202 	 8.5191 	 84.2328
| 15> H 	 42.3891 	 8.20593 	 84.5141
| 16> C 	 43.6584 	 8.04552 	 86.2863
| 17> H 	 44.21 	 7.16006 	 86.0503
| 18> H 	 44.3159 	 8.74215 	 86.7846
| 19> C 	 42.4953 	 7.59607 	 87.1393
| 20> H 	 41.9432 	 8.51773 	 87.2989
| 21> H 	 41.9001 	 6.82566 	 86.6567
| 22> H 	 42.8185 	 7.19662 	 88.1237
| 23> S 	 44.0161 	 14.6554 	 83.067
| 24> C 	 45.4887 	 15.5579 	 83.2531
| 25> C 	 46.2345 	 15.0046 	 84.2601
| 26> C 	 45.6636 	 13.8646 	 84.8981
| 27> C 	 44.3618 	 13.567 	 84.3454
| 28> H 	 47.1628 	 15.5155 	 84.6098
| 29> C 	 46.2627 	 13.0853 	 86.0489
| 30> H 	 47.2967 	 12.8855 	 85.7514
| 31> H 	 45.8055 	 12.049 	 86.1118
| 32> C 	 46.1861 	 13.8018 	 87.4386
| 33> H 	 46.9537 	 14.5415 	 87.3952
| 34> H 	 46.4681 	 13.036 	 88.2309
| 35> C 	 44.8524 	 14.3978 	 87.7058
| 36> H 	 44.9245 	 14.9185 	 88.723
| 37> H 	 44.0516 	 13.6987 	 87.7105
| 38> H 	 44.5515 	 15.1855 	 87.0318
| 39> H 	 40.7569 	 10.2246 	 85.6496
| 40> H 	 45.8161 	 16.4591 	 82.6724
| 41> *
| 42>
| 43>                          ****END OF INPUT****

CARTESIAN COORDINATES (ANGSTROEM)
---------------------------------
  S     41.822400   12.596900   85.168600
  C     41.595600   10.810800   85.290000
  C     42.826300   10.149800   84.965900
  C     43.859500   11.106100   84.632000
  C     43.482100   12.428500   84.703500
  H     44.924600   10.951800   84.342500
  C     43.208600    8.681590   85.011000
  H     43.920200    8.519100   84.232800
  H     42.389100    8.205930   84.514100
  C     43.658400    8.045520   86.286300
  H     44.210000    7.160060   86.050300
  H     44.315900    8.742150   86.784600
  C     42.495300    7.596070   87.139300
  H     41.943200    8.517730   87.298900
  H     41.900100    6.825660   86.656700
  H     42.818500    7.196620   88.123700
  S     44.016100   14.655400   83.067000
  C     45.488700   15.557900   83.253100
  C     46.234500   15.004600   84.260100
  C     45.663600   13.864600   84.898100
  C     44.361800   13.567000   84.345400
  H     47.162800   15.515500   84.609800
  C     46.262700   13.085300   86.048900
  H     47.296700   12.885500   85.751400
  H     45.805500   12.049000   86.111800
  C     46.186100   13.801800   87.438600
  H     46.953700   14.541500   87.395200
  H     46.468100   13.036000   88.230900
  C     44.852400   14.397800   87.705800
  H     44.924500   14.918500   88.723000
  H     44.051600   13.698700   87.710500
  H     44.551500   15.185500   87.031800
  H     40.756900   10.224600   85.649600
  H     45.816100   16.459100   82.672400

 Total Charge           Charge          ....    0
 Multiplicity           Mult            ....    1
 Number of Electrons    NEL             ....  134
 Basis Dimension        Dim             ....  322

ORBITAL ENERGIES
----------------

  NO   OCC          E(Eh)            E(eV)
   0   2.0000     -88.973272     -2421.0858
   1   2.0000     -88.968984     -2420.9691
   2   2.0000     -10.330749      -281.1140
   3   2.0000     -10.330305      -281.1019
   4   2.0000     -10.326671      -281.0030
   5   2.0000     -10.320389      -280.8321
   6   2.0000     -10.311507      -280.5904
   7   2.0000     -10.306713      -280.4599
   8   2.0000     -10.296601      -280.1848
   9   2.0000     -10.295520      -280.1553
  10   2.0000     -10.292072      -280.0615
  11   2.0000     -10.285938      -279.8946
  12   2.0000     -10.284925      -279.8670
  13   2.0000     -10.281773      -279.7813
  14   2.0000     -10.277591      -279.6675
  15   2.0000     -10.268779      -279.4277
  16   2.0000      -8.086762      -220.0520
  17   2.0000      -8.084091      -219.9793
  18   2.0000      -6.045439      -164.5047
  19   2.0000      -6.042438      -164.4231
  20   2.0000      -6.041335      -164.3931
  21   2.0000      -6.038353      -164.3120
  22   2.0000      -6.037512      -164.2891
  23   2.0000      -6.035178      -164.2255
  24   2.0000      -1.004976       -27.3468
  25   2.0000      -0.981313       -26.7029
  26   2.0000      -0.921059       -25.0633
  27   2.0000      -0.907093       -24.6832
  28   2.0000      -0.866813       -23.5872
  29   2.0000      -0.849579       -23.1182
  30   2.0000      -0.845642       -23.0111
  31   2.0000      -0.811542       -22.0832
  32   2.0000      -0.785799       -21.3827
  33   2.0000      -0.771444       -20.9921
  34   2.0000      -0.706492       -19.2246
  35   2.0000      -0.700334       -19.0571
  36   2.0000      -0.690454       -18.7882
  37   2.0000      -0.648015       -17.6334
  38   2.0000      -0.639835       -17.4108
  39   2.0000      -0.614762       -16.7285
  40   2.0000      -0.591782       -16.1032
  41   2.0000      -0.580148       -15.7866
  42   2.0000      -0.553859       -15.0713
  43   2.0000      -0.550284       -14.9740
  44   2.0000      -0.540905       -14.7188
  45   2.0000      -0.537791       -14.6340
  46   2.0000      -0.520212       -14.1557
  47   2.0000      -0.512957       -13.9583
  48   2.0000      -0.501894       -13.6572
  49   2.0000      -0.498137       -13.5550
  50   2.0000      -0.487341       -13.2612
  51   2.0000      -0.480033       -13.0624
  52   2.0000      -0.468440       -12.7469
  53   2.0000      -0.467014       -12.7081
  54   2.0000      -0.461756       -12.5650
  55   2.0000      -0.445800       -12.1308
  56   2.0000      -0.440231       -11.9793
  57   2.0000      -0.439715       -11.9653
  58   2.0000      -0.424728       -11.5574
  59   2.0000      -0.423919       -11.5354
  60   2.0000      -0.416267       -11.3272
  61   2.0000      -0.412807       -11.2330
  62   2.0000      -0.411011       -11.1842
  63   2.0000      -0.345681        -9.4065
  64   2.0000      -0.332439        -9.0461
  65   2.0000      -0.328825        -8.9478
  66   2.0000      -0.294946        -8.0259
  67   0.0000       0.030355         0.8260
  68   0.0000       0.065452         1.7811
  69   0.0000       0.111279         3.0281
  70   0.0000       0.120494         3.2788
  71   0.0000       0.125744         3.4217

MULLIKEN ATOMIC CHARGES
-----------------------
   0 S :    0.119240
   1 C :   -0.117089
   2 C :   -0.126477
   3 C :    0.022156
   4 C :   -0.167726
   5 H :    0.034748
   6 C :    0.073410
   7 H :    0.008719
   8 H :    0.007946
   9 C :   -0.000479
  10 H :    0.020131
  11 H :    0.025364
  12 C :   -0.057404
  13 H :    0.025062
  14 H :    0.033202
  15 H :    0.036388
  16 S :    0.127081
  17 C :   -0.118886
  18 C :   -0.045010
  19 C :   -0.069541
  20 C :   -0.161127
  21 H :    0.032816
  22 C :    0.043848
  23 H :    0.027073
  24 H :    0.030204
  25 C :   -0.054721
  26 H :    0.017566
  27 H :    0.041396
  28 C :   -0.042481
  29 H :    0.035154
  30 H :    0.026814
  31 H :    0.039804
  32 H :    0.054052
  33 H :    0.078765
Sum of atomic charges:    0.0000000

LOEWDIN ATOMIC CHARGES
----------------------
   0 S :    0.403445
   1 C :   -0.195597
   2 C :   -0.053586
   3 C :   -0.071034
   4 C :   -0.202777
   5 H :    0.039519
   6 C :   -0.038498
   7 H :    0.031541
   8 H :    0.029545
   9 C :   -0.034674
  10 H :    0.022973
  11 H :    0.025605
  12 C :   -0.062726
  13 H :    0.023186
  14 H :    0.024292
  15 H :    0.027997
  16 S :    0.436816
  17 C :   -0.206670
  18 C :   -0.082162
  19 C :   -0.057494
  20 C :   -0.219834
  21 H :    0.037994
  22 C :   -0.043601
  23 H :    0.029615
  24 H :    0.034207
  25 C :   -0.038949
  26 H :    0.016753
  27 H :    0.033477
  28 C :   -0.067665
  29 H :    0.035138
  30 H :    0.019684
  31 H :    0.026094
  32 H :    0.031273
  33 H :    0.046115

  Mayer bond orders larger than 0.100000
B(  0-S ,  1-C ) :   1.1270 B(  0-S ,  4-C ) :   1.1483 B(  1-C ,  2-C ) :   1.6020
B(  1-C , 32-H ) :   0.9680 B(  2-C ,  3-C ) :   1.2333 B(  2-C ,  6-C ) :   1.0226
B(  3-C ,  4-C ) :   1.5924 B(  3-C ,  5-H ) :   0.9780 B(  4-C , 20-C ) :   1.0171
B(  6-C ,  7-H ) :   0.9315 B(  6-C ,  8-H ) :   0.9274 B(  6-C ,  9-C ) :   1.0656
B(  9-C , 10-H ) :   0.9484 B(  9-C , 11-H ) :   0.9520 B(  9-C , 12-C ) :   1.0844
B( 12-C , 13-H ) :   0.9767 B( 12-C , 14-H ) :   0.9756 B( 12-C , 15-H ) :   0.9725
B( 16-S , 17-C ) :   1.1669 B( 16-S , 20-C ) :   1.1797 B( 17-C , 18-C ) :   1.5787
B( 17-C , 20-C ) :   0.1028 B( 17-C , 33-H ) :   0.9619 B( 18-C , 19-C ) :   1.2906
B( 18-C , 21-H ) :   0.9813 B( 19-C , 20-C ) :   1.5166 B( 19-C , 22-C ) :   1.0484
B( 22-C , 23-H ) :   0.9357 B( 22-C , 24-H ) :   0.9289 B( 22-C , 25-C ) :   1.0594
B( 25-C , 26-H ) :   0.9543 B( 25-C , 27-H ) :   0.9556 B( 25-C , 28-C ) :   1.0927
B( 28-C , 29-H ) :   0.9694 B( 28-C , 30-H ) :   0.9747 B( 28-C , 31-H ) :   0.9645

Dispersion correction           -0.015537761
FINAL SINGLE POINT ENERGY     -1339.878607674623

DIPOLE MOMENT
-------------
                                X             Y             Z
Electronic contribution:     -8.01049      16.70339     -17.86452
Nuclear contribution   :      8.49457     -17.07438      18.08101
                        -----------------------------------------
Total Dipole Moment    :      0.48408      -0.37099       0.21649
                        -----------------------------------------
Magnitude (a.u.)       :      0.64717
Magnitude (Debye)      :      1.64498

Rotational constants in cm-1:     0.021773     0.008366     0.007285
Rotational constants in MHz :   652.750693   250.804515   218.384235

                             ****ORCA TERMINATED NORMALLY****
TOTAL RUN TIME: 0 days 0 hours 0 minutes 31 seconds 689 msec
