                         Program Version 4.2.1 -  RELEASE  -
|  1> ! wB97X-D3 SP def2-SVP
|  2> %pal
|  3> nprocs 16
|  4> end
|  5>
|  6> * xyz 0 1
|  7> S 	 0.569017 	 -9.15386 	 91.6542
|  8> C 	 -1.11088 	 -9.23133 	 91.9187
|  9> C 	 -1.68847 	 -9.80025 	 90.8576
| 10> C 	 -0.693866 	 -10.1729 	 89.8819
| 11> C 	 0.640444 	 -9.94581 	 90.1481
| 12> H 	 -0.900168 	 -10.7145 	 89.0097
| 13> C 	 -3.13025 	 -10.1674 	 90.6999
| 14> H 	 -3.4711 	 -10.0756 	 89.6986
| 15> H 	 -3.70222 	 -9.35792 	 91.2141
| 16> C 	 -3.51002 	 -11.4893 	 91.3063
| 17> H 	 -2.76569 	 -12.271 	 90.9484
| 18> H 	 -3.37856 	 -11.4308 	 92.3986
| 19> C 	 -4.87435 	 -12.0927 	 90.9846
| 20> H 	 -4.88398 	 -13.2028 	 91.0729
| 21> H 	 -5.59149 	 -11.6734 	 91.6577
| 22> H 	 -5.26672 	 -11.8003 	 89.9319
| 23> S 	 2.98533 	 -8.86744 	 89.1059
| 24> C 	 3.93239 	 -9.70727 	 87.8946
| 25> C 	 3.32024 	 -10.8957 	 87.6062
| 26> C 	 2.19877 	 -11.2053 	 88.4421
| 27> C 	 1.80699 	 -10.1896 	 89.3072
| 28> H 	 3.71533 	 -11.4924 	 86.8177
| 29> C 	 1.54573 	 -12.6081 	 88.3782
| 30> H 	 2.15616 	 -13.0835 	 87.6742
| 31> H 	 0.503441 	 -12.4971 	 88.0451
| 32> C 	 1.58292 	 -13.4261 	 89.6915
| 33> H 	 1.20001 	 -12.8343 	 90.5477
| 34> H 	 2.61346 	 -13.7359 	 89.9006
| 35> C 	 0.720612 	 -14.6971 	 89.5807
| 36> H 	 0.994634 	 -15.3954 	 90.3634
| 37> H 	 0.721789 	 -15.2123 	 88.6039
| 38> H 	 -0.364323 	 -14.444 	 89.6519
| 39> H 	 -1.581 	 -8.93775 	 92.8893
| 40> H 	 4.83723 	 -9.31809 	 87.4797
| 41> *
| 42>
| 43>                          ****END OF INPUT****

CARTESIAN COORDINATES (ANGSTROEM)
---------------------------------
  S      0.569017   -9.153860   91.654200
  C     -1.110880   -9.231330   91.918700
  C     -1.688470   -9.800250   90.857600
  C     -0.693866  -10.172900   89.881900
  C      0.640444   -9.945810   90.148100
  H     -0.900168  -10.714500   89.009700
  C     -3.130250  -10.167400   90.699900
  H     -3.471100  -10.075600   89.698600
  H     -3.702220   -9.357920   91.214100
  C     -3.510020  -11.489300   91.306300
  H     -2.765690  -12.271000   90.948400
  H     -3.378560  -11.430800   92.398600
  C     -4.874350  -12.092700   90.984600
  H     -4.883980  -13.202800   91.072900
  H     -5.591490  -11.673400   91.657700
  H     -5.266720  -11.800300   89.931900
  S      2.985330   -8.867440   89.105900
  C      3.932390   -9.707270   87.894600
  C      3.320240  -10.895700   87.606200
  C      2.198770  -11.205300   88.442100
  C      1.806990  -10.189600   89.307200
  H      3.715330  -11.492400   86.817700
  C      1.545730  -12.608100   88.378200
  H      2.156160  -13.083500   87.674200
  H      0.503441  -12.497100   88.045100
  C      1.582920  -13.426100   89.691500
  H      1.200010  -12.834300   90.547700
  H      2.613460  -13.735900   89.900600
  C      0.720612  -14.697100   89.580700
  H      0.994634  -15.395400   90.363400
  H      0.721789  -15.212300   88.603900
  H     -0.364323  -14.444000   89.651900
  H     -1.581000   -8.937750   92.889300
  H      4.837230   -9.318090   87.479700

 Total Charge           Charge          ....    0
 Multiplicity           Mult            ....    1
 Number of Electrons    NEL             ....  134
 Basis Dimension        Dim             ....  322

ORBITAL ENERGIES
----------------

  NO   OCC          E(Eh)            E(eV)
   0   2.0000     -88.962146     -2420.7831
   1   2.0000     -88.960075     -2420.7267
   2   2.0000     -10.334725      -281.2222
   3   2.0000     -10.330521      -281.1078
   4   2.0000     -10.319500      -280.8079
   5   2.0000     -10.314343      -280.6675
   6   2.0000     -10.307725      -280.4875
   7   2.0000     -10.297881      -280.2196
   8   2.0000     -10.294244      -280.1206
   9   2.0000     -10.290848      -280.0282
  10   2.0000     -10.290721      -280.0248
  11   2.0000     -10.290243      -280.0117
  12   2.0000     -10.288114      -279.9538
  13   2.0000     -10.287821      -279.9459
  14   2.0000     -10.287045      -279.9247
  15   2.0000     -10.279371      -279.7159
  16   2.0000      -8.076843      -219.7821
  17   2.0000      -8.076676      -219.7775
  18   2.0000      -6.035320      -164.2294
  19   2.0000      -6.035251      -164.2275
  20   2.0000      -6.031029      -164.1126
  21   2.0000      -6.030797      -164.1063
  22   2.0000      -6.027705      -164.0222
  23   2.0000      -6.027536      -164.0176
  24   2.0000      -1.018343       -27.7105
  25   2.0000      -0.990918       -26.9642
  26   2.0000      -0.918449       -24.9923
  27   2.0000      -0.904498       -24.6126
  28   2.0000      -0.878050       -23.8930
  29   2.0000      -0.848650       -23.0929
  30   2.0000      -0.844086       -22.9687
  31   2.0000      -0.821346       -22.3500
  32   2.0000      -0.783672       -21.3248
  33   2.0000      -0.773878       -21.0583
  34   2.0000      -0.710086       -19.3224
  35   2.0000      -0.696364       -18.9490
  36   2.0000      -0.691314       -18.8116
  37   2.0000      -0.668514       -18.1912
  38   2.0000      -0.647623       -17.6227
  39   2.0000      -0.622581       -16.9413
  40   2.0000      -0.593599       -16.1527
  41   2.0000      -0.580849       -15.8057
  42   2.0000      -0.568189       -15.4612
  43   2.0000      -0.560484       -15.2515
  44   2.0000      -0.528475       -14.3805
  45   2.0000      -0.527773       -14.3614
  46   2.0000      -0.521130       -14.1807
  47   2.0000      -0.515344       -14.0232
  48   2.0000      -0.512412       -13.9434
  49   2.0000      -0.503608       -13.7039
  50   2.0000      -0.497132       -13.5276
  51   2.0000      -0.490767       -13.3545
  52   2.0000      -0.471525       -12.8308
  53   2.0000      -0.465426       -12.6649
  54   2.0000      -0.462512       -12.5856
  55   2.0000      -0.447700       -12.1825
  56   2.0000      -0.440927       -11.9982
  57   2.0000      -0.436025       -11.8648
  58   2.0000      -0.434018       -11.8102
  59   2.0000      -0.419526       -11.4159
  60   2.0000      -0.414680       -11.2840
  61   2.0000      -0.407734       -11.0950
  62   2.0000      -0.403681       -10.9847
  63   2.0000      -0.357604        -9.7309
  64   2.0000      -0.329598        -8.9688
  65   2.0000      -0.326735        -8.8909
  66   2.0000      -0.297871        -8.1055
  67   0.0000       0.026853         0.7307
  68   0.0000       0.077868         2.1189
  69   0.0000       0.117104         3.1866
  70   0.0000       0.124865         3.3978
  71   0.0000       0.129978         3.5369

MULLIKEN ATOMIC CHARGES
-----------------------
   0 S :    0.097530
   1 C :   -0.141472
   2 C :   -0.072661
   3 C :    0.027649
   4 C :   -0.130444
   5 H :   -0.028634
   6 C :    0.099088
   7 H :    0.010922
   8 H :    0.019997
   9 C :   -0.099518
  10 H :    0.033154
  11 H :    0.029368
  12 C :   -0.055446
  13 H :    0.048501
  14 H :    0.027925
  15 H :    0.036805
  16 S :    0.086268
  17 C :   -0.082311
  18 C :   -0.026856
  19 C :   -0.066805
  20 C :   -0.123201
  21 H :    0.013364
  22 C :    0.097369
  23 H :   -0.000438
  24 H :    0.035458
  25 C :   -0.075521
  26 H :    0.052236
  27 H :    0.031576
  28 C :   -0.070512
  29 H :    0.040808
  30 H :    0.027899
  31 H :    0.030366
  32 H :    0.070741
  33 H :    0.056797
Sum of atomic charges:   -0.0000000

LOEWDIN ATOMIC CHARGES
----------------------
   0 S :    0.439566
   1 C :   -0.205408
   2 C :   -0.073077
   3 C :   -0.060397
   4 C :   -0.214465
   5 H :    0.014222
   6 C :   -0.033533
   7 H :    0.024716
   8 H :    0.033917
   9 C :   -0.050647
  10 H :    0.028692
  11 H :    0.025853
  12 C :   -0.072294
  13 H :    0.033132
  14 H :    0.019504
  15 H :    0.032753
  16 S :    0.391647
  17 C :   -0.171366
  18 C :   -0.075532
  19 C :   -0.054166
  20 C :   -0.185381
  21 H :    0.028940
  22 C :   -0.024114
  23 H :    0.020809
  24 H :    0.030315
  25 C :   -0.037662
  26 H :    0.031213
  27 H :    0.025061
  28 C :   -0.073699
  29 H :    0.026596
  30 H :    0.024583
  31 H :    0.026727
  32 H :    0.044189
  33 H :    0.029305

  Mayer bond orders larger than 0.100000
B(  0-S ,  1-C ) :   1.1646 B(  0-S ,  4-C ) :   1.1579 B(  1-C ,  2-C ) :   1.5779
B(  1-C , 32-H ) :   0.9672 B(  2-C ,  3-C ) :   1.2668 B(  2-C ,  6-C ) :   1.0331
B(  3-C ,  4-C ) :   1.5428 B(  3-C ,  5-H ) :   1.0092 B(  4-C , 20-C ) :   1.0493
B(  6-C ,  7-H ) :   0.9333 B(  6-C ,  8-H ) :   0.9320 B(  6-C ,  9-C ) :   1.0686
B(  9-C , 10-H ) :   0.9600 B(  9-C , 11-H ) :   0.9526 B(  9-C , 12-C ) :   1.0732
B( 12-C , 13-H ) :   0.9762 B( 12-C , 14-H ) :   0.9754 B( 12-C , 15-H ) :   0.9743
B( 16-S , 17-C ) :   1.1648 B( 16-S , 20-C ) :   1.1287 B( 17-C , 18-C ) :   1.5902
B( 17-C , 20-C ) :   0.1012 B( 17-C , 33-H ) :   0.9722 B( 18-C , 19-C ) :   1.2591
B( 18-C , 21-H ) :   0.9943 B( 19-C , 20-C ) :   1.5852 B( 19-C , 22-C ) :   1.0296
B( 22-C , 23-H ) :   0.9276 B( 22-C , 24-H ) :   0.9363 B( 22-C , 25-C ) :   1.0703
B( 25-C , 26-H ) :   0.9581 B( 25-C , 27-H ) :   0.9569 B( 25-C , 28-C ) :   1.0762
B( 28-C , 29-H ) :   0.9752 B( 28-C , 30-H ) :   0.9742 B( 28-C , 31-H ) :   0.9744

Dispersion correction           -0.014100856
FINAL SINGLE POINT ENERGY     -1339.877111695322

DIPOLE MOMENT
-------------
                                X             Y             Z
Electronic contribution:     21.18124      23.78020       0.59759
Nuclear contribution   :    -21.55713     -24.32631      -0.81723
                        -----------------------------------------
Total Dipole Moment    :     -0.37589      -0.54611      -0.21964
                        -----------------------------------------
Magnitude (a.u.)       :      0.69841
Magnitude (Debye)      :      1.77521

Rotational constants in cm-1:     0.019013     0.008740     0.006639
Rotational constants in MHz :   569.990864   262.031541   199.021558

                             ****ORCA TERMINATED NORMALLY****
TOTAL RUN TIME: 0 days 0 hours 0 minutes 35 seconds 450 msec
