                         Program Version 4.2.1 -  RELEASE  -
|  1> ! wB97X-D3 SP def2-SVP
|  2> %pal
|  3> nprocs 16
|  4> end
|  5>
|  6> * xyz 0 1
|  7> S 	 15.4893 	 7.72381 	 81.6945
|  8> C 	 16.2343 	 9.3815 	 81.6836
|  9> C 	 15.3625 	 10.3293 	 82.1485
| 10> C 	 14.1811 	 9.7431 	 82.7116
| 11> C 	 14.1543 	 8.34417 	 82.687
| 12> H 	 13.4355 	 10.2864 	 83.2327
| 13> C 	 15.5231 	 11.879 	 81.9838
| 14> H 	 16.4709 	 12.1288 	 82.2791
| 15> H 	 14.9155 	 12.2747 	 82.781
| 16> C 	 15.1699 	 12.5127 	 80.6332
| 17> H 	 14.1244 	 12.1767 	 80.3644
| 18> H 	 15.0651 	 13.5683 	 80.689
| 19> C 	 16.1421 	 12.2043 	 79.5229
| 20> H 	 16.2387 	 11.1901 	 79.3758
| 21> H 	 15.8497 	 12.6266 	 78.5779
| 22> H 	 17.1163 	 12.6263 	 79.7471
| 23> S 	 13.8239 	 6.04938 	 84.2618
| 24> C 	 12.23 	 5.61185 	 84.8236
| 25> C 	 11.2536 	 6.51604 	 84.358
| 26> C 	 11.8095 	 7.53203 	 83.5121
| 27> C 	 13.182 	 7.44733 	 83.3447
| 28> H 	 10.2152 	 6.39116 	 84.6819
| 29> C 	 10.9464 	 8.6721 	 82.9093
| 30> H 	 10.326 	 8.20389 	 82.1526
| 31> H 	 11.5651 	 9.37896 	 82.2854
| 32> C 	 10.0308 	 9.43773 	 83.84
| 33> H 	 9.24838 	 8.77159 	 84.2443
| 34> H 	 9.59276 	 10.2344 	 83.1952
| 35> C 	 10.6817 	 10.0793 	 85.084
| 36> H 	 10.1138 	 10.6125 	 85.7396
| 37> H 	 11.244 	 10.9254 	 84.8067
| 38> H 	 11.3261 	 9.43132 	 85.7509
| 39> H 	 17.2073 	 9.61484 	 81.3177
| 40> H 	 11.9335 	 4.83978 	 85.4221
| 41> *
| 42>
| 43>                          ****END OF INPUT****

CARTESIAN COORDINATES (ANGSTROEM)
---------------------------------
  S     15.489300    7.723810   81.694500
  C     16.234300    9.381500   81.683600
  C     15.362500   10.329300   82.148500
  C     14.181100    9.743100   82.711600
  C     14.154300    8.344170   82.687000
  H     13.435500   10.286400   83.232700
  C     15.523100   11.879000   81.983800
  H     16.470900   12.128800   82.279100
  H     14.915500   12.274700   82.781000
  C     15.169900   12.512700   80.633200
  H     14.124400   12.176700   80.364400
  H     15.065100   13.568300   80.689000
  C     16.142100   12.204300   79.522900
  H     16.238700   11.190100   79.375800
  H     15.849700   12.626600   78.577900
  H     17.116300   12.626300   79.747100
  S     13.823900    6.049380   84.261800
  C     12.230000    5.611850   84.823600
  C     11.253600    6.516040   84.358000
  C     11.809500    7.532030   83.512100
  C     13.182000    7.447330   83.344700
  H     10.215200    6.391160   84.681900
  C     10.946400    8.672100   82.909300
  H     10.326000    8.203890   82.152600
  H     11.565100    9.378960   82.285400
  C     10.030800    9.437730   83.840000
  H      9.248380    8.771590   84.244300
  H      9.592760   10.234400   83.195200
  C     10.681700   10.079300   85.084000
  H     10.113800   10.612500   85.739600
  H     11.244000   10.925400   84.806700
  H     11.326100    9.431320   85.750900
  H     17.207300    9.614840   81.317700
  H     11.933500    4.839780   85.422100

 Total Charge           Charge          ....    0
 Multiplicity           Mult            ....    1
 Number of Electrons    NEL             ....  134
 Basis Dimension        Dim             ....  322

ORBITAL ENERGIES
----------------

  NO   OCC          E(Eh)            E(eV)
   0   2.0000     -88.968093     -2420.9449
   1   2.0000     -88.967274     -2420.9226
   2   2.0000     -10.336183      -281.2618
   3   2.0000     -10.331347      -281.1303
   4   2.0000     -10.316854      -280.7359
   5   2.0000     -10.315904      -280.7100
   6   2.0000     -10.308216      -280.5008
   7   2.0000     -10.303859      -280.3823
   8   2.0000     -10.299361      -280.2599
   9   2.0000     -10.295153      -280.1454
  10   2.0000     -10.295060      -280.1428
  11   2.0000     -10.293401      -280.0977
  12   2.0000     -10.289180      -279.9828
  13   2.0000     -10.287712      -279.9429
  14   2.0000     -10.268905      -279.4311
  15   2.0000     -10.266918      -279.3770
  16   2.0000      -8.081963      -219.9214
  17   2.0000      -8.080539      -219.8827
  18   2.0000      -6.040521      -164.3709
  19   2.0000      -6.039197      -164.3349
  20   2.0000      -6.036514      -164.2619
  21   2.0000      -6.035470      -164.2335
  22   2.0000      -6.032781      -164.1603
  23   2.0000      -6.031010      -164.1121
  24   2.0000      -0.997661       -27.1477
  25   2.0000      -0.976012       -26.5586
  26   2.0000      -0.910996       -24.7895
  27   2.0000      -0.907323       -24.6895
  28   2.0000      -0.866500       -23.5787
  29   2.0000      -0.848926       -23.1005
  30   2.0000      -0.841039       -22.8858
  31   2.0000      -0.812462       -22.1082
  32   2.0000      -0.791989       -21.5511
  33   2.0000      -0.784150       -21.3378
  34   2.0000      -0.710081       -19.3223
  35   2.0000      -0.702078       -19.1045
  36   2.0000      -0.698249       -19.0003
  37   2.0000      -0.657303       -17.8861
  38   2.0000      -0.640299       -17.4234
  39   2.0000      -0.619137       -16.8476
  40   2.0000      -0.596655       -16.2358
  41   2.0000      -0.571265       -15.5449
  42   2.0000      -0.553871       -15.0716
  43   2.0000      -0.548449       -14.9241
  44   2.0000      -0.545133       -14.8338
  45   2.0000      -0.540571       -14.7097
  46   2.0000      -0.520363       -14.1598
  47   2.0000      -0.511939       -13.9306
  48   2.0000      -0.501272       -13.6403
  49   2.0000      -0.490877       -13.3574
  50   2.0000      -0.487436       -13.2638
  51   2.0000      -0.480076       -13.0635
  52   2.0000      -0.472507       -12.8576
  53   2.0000      -0.464379       -12.6364
  54   2.0000      -0.458772       -12.4838
  55   2.0000      -0.448534       -12.2052
  56   2.0000      -0.446107       -12.1392
  57   2.0000      -0.441084       -12.0025
  58   2.0000      -0.440042       -11.9742
  59   2.0000      -0.425718       -11.5844
  60   2.0000      -0.417396       -11.3579
  61   2.0000      -0.415227       -11.2989
  62   2.0000      -0.408520       -11.1164
  63   2.0000      -0.345283        -9.3956
  64   2.0000      -0.333489        -9.0747
  65   2.0000      -0.330550        -8.9947
  66   2.0000      -0.290328        -7.9002
  67   0.0000       0.022637         0.6160
  68   0.0000       0.069646         1.8952
  69   0.0000       0.100084         2.7234
  70   0.0000       0.119175         3.2429
  71   0.0000       0.131203         3.5702

MULLIKEN ATOMIC CHARGES
-----------------------
   0 S :    0.096692
   1 C :   -0.118514
   2 C :   -0.103174
   3 C :    0.038141
   4 C :   -0.144799
   5 H :   -0.004193
   6 C :    0.125122
   7 H :   -0.004058
   8 H :    0.010005
   9 C :   -0.050321
  10 H :    0.024885
  11 H :    0.023229
  12 C :   -0.010308
  13 H :    0.016789
  14 H :    0.024402
  15 H :    0.018075
  16 S :    0.112314
  17 C :   -0.048754
  18 C :   -0.063901
  19 C :   -0.023438
  20 C :   -0.153866
  21 H :    0.028385
  22 C :    0.062958
  23 H :    0.032614
  24 H :    0.026987
  25 C :   -0.080726
  26 H :    0.036032
  27 H :    0.041243
  28 C :   -0.020006
  29 H :   -0.002931
  30 H :    0.000472
  31 H :    0.050681
  32 H :    0.037681
  33 H :    0.022282
Sum of atomic charges:    0.0000000

LOEWDIN ATOMIC CHARGES
----------------------
   0 S :    0.365306
   1 C :   -0.170217
   2 C :   -0.057405
   3 C :   -0.060841
   4 C :   -0.177356
   5 H :    0.022441
   6 C :   -0.018616
   7 H :    0.016141
   8 H :    0.029877
   9 C :   -0.035889
  10 H :    0.028744
  11 H :    0.021116
  12 C :   -0.056038
  13 H :    0.013425
  14 H :    0.026689
  15 H :    0.023701
  16 S :    0.398983
  17 C :   -0.169580
  18 C :   -0.072628
  19 C :   -0.052404
  20 C :   -0.192675
  21 H :    0.034561
  22 C :   -0.036028
  23 H :    0.035134
  24 H :    0.033923
  25 C :   -0.040250
  26 H :    0.023901
  27 H :    0.035515
  28 C :   -0.076232
  29 H :    0.015342
  30 H :    0.019191
  31 H :    0.037663
  32 H :    0.021571
  33 H :    0.012932

  Mayer bond orders larger than 0.100000
B(  0-S ,  1-C ) :   1.1108 B(  0-S ,  4-C ) :   1.1392 B(  1-C ,  2-C ) :   1.6448
B(  1-C , 32-H ) :   0.9698 B(  2-C ,  3-C ) :   1.2311 B(  2-C ,  6-C ) :   1.0090
B(  3-C ,  4-C ) :   1.5778 B(  3-C ,  5-H ) :   0.9931 B(  4-C , 20-C ) :   1.0468
B(  6-C ,  7-H ) :   0.9357 B(  6-C ,  8-H ) :   0.9342 B(  6-C ,  9-C ) :   1.0689
B(  9-C , 10-H ) :   0.9522 B(  9-C , 11-H ) :   0.9539 B(  9-C , 12-C ) :   1.0877
B( 12-C , 13-H ) :   0.9740 B( 12-C , 14-H ) :   0.9692 B( 12-C , 15-H ) :   0.9724
B( 16-S , 17-C ) :   1.1609 B( 16-S , 20-C ) :   1.1247 B( 17-C , 18-C ) :   1.6064
B( 17-C , 33-H ) :   0.9759 B( 18-C , 19-C ) :   1.2359 B( 18-C , 21-H ) :   0.9879
B( 19-C , 20-C ) :   1.6038 B( 19-C , 22-C ) :   1.0239 B( 22-C , 23-H ) :   0.9284
B( 22-C , 24-H ) :   0.9382 B( 22-C , 25-C ) :   1.0799 B( 25-C , 26-H ) :   0.9539
B( 25-C , 27-H ) :   0.9530 B( 25-C , 28-C ) :   1.0755 B( 28-C , 29-H ) :   0.9656
B( 28-C , 30-H ) :   0.9634 B( 28-C , 31-H ) :   0.9727

Dispersion correction           -0.014854103
FINAL SINGLE POINT ENERGY     -1339.862002139666

DIPOLE MOMENT
-------------
                                X             Y             Z
Electronic contribution:      9.02302     -25.83924       4.14595
Nuclear contribution   :     -9.46016      26.51568      -4.08201
                        -----------------------------------------
Total Dipole Moment    :     -0.43714       0.67644       0.06394
                        -----------------------------------------
Magnitude (a.u.)       :      0.80793
Magnitude (Debye)      :      2.05360

Rotational constants in cm-1:     0.020540     0.008513     0.006506
Rotational constants in MHz :   615.765050   255.222788   195.039339

                             ****ORCA TERMINATED NORMALLY****
TOTAL RUN TIME: 0 days 0 hours 0 minutes 35 seconds 862 msec
