                         Program Version 4.2.1 -  RELEASE  -
|  1> ! wB97X-D3 SP def2-SVP
|  2> %pal
|  3> nprocs 16
|  4> end
|  5>
|  6> * xyz 0 1
|  7> S 	 -2.99404 	 75.8842 	 50.4573
|  8> C 	 -1.70367 	 76.9977 	 50.0095
|  9> C 	 -1.75615 	 78.0916 	 50.8192
| 10> C 	 -2.81256 	 78.0873 	 51.7755
| 11> C 	 -3.5788 	 76.9375 	 51.7087
| 12> H 	 -3.065 	 78.8504 	 52.5268
| 13> C 	 -0.653373 	 79.0963 	 50.7891
| 14> H 	 -0.933252 	 79.9482 	 50.2619
| 15> H 	 0.208906 	 78.6871 	 50.2146
| 16> C 	 0.0353155 	 79.5646 	 52.0786
| 17> H 	 0.804109 	 80.3054 	 51.8779
| 18> H 	 -0.650882 	 80.1398 	 52.7089
| 19> C 	 0.649773 	 78.4232 	 52.8729
| 20> H 	 1.17685 	 78.7312 	 53.8324
| 21> H 	 -0.111542 	 77.6646 	 53.0243
| 22> H 	 1.37109 	 77.9254 	 52.2898
| 23> S 	 -6.30459 	 76.5224 	 52.0662
| 24> C 	 -7.0084 	 76.2467 	 53.6152
| 25> C 	 -5.99436 	 76.3809 	 54.5927
| 26> C 	 -4.71586 	 76.5959 	 54.0549
| 27> C 	 -4.67076 	 76.5763 	 52.6452
| 28> H 	 -6.32222 	 76.3865 	 55.6062
| 29> C 	 -3.47584 	 76.8922 	 54.8675
| 30> H 	 -3.69587 	 77.0919 	 55.982
| 31> H 	 -2.97762 	 77.7645 	 54.3862
| 32> C 	 -2.4657 	 75.8036 	 54.8843
| 33> H 	 -1.57112 	 76.2208 	 55.3613
| 34> H 	 -2.20302 	 75.4527 	 53.9029
| 35> C 	 -3.09892 	 74.5923 	 55.5066
| 36> H 	 -2.35537 	 73.7717 	 55.5308
| 37> H 	 -3.96399 	 74.2722 	 54.927
| 38> H 	 -3.52535 	 74.8516 	 56.4714
| 39> H 	 -0.799086 	 76.7473 	 49.4202
| 40> H 	 -8.09886 	 76.0267 	 53.7951
| 41> *
| 42>
| 43>                          ****END OF INPUT****

CARTESIAN COORDINATES (ANGSTROEM)
---------------------------------
  S     -2.994040   75.884200   50.457300
  C     -1.703670   76.997700   50.009500
  C     -1.756150   78.091600   50.819200
  C     -2.812560   78.087300   51.775500
  C     -3.578800   76.937500   51.708700
  H     -3.065000   78.850400   52.526800
  C     -0.653373   79.096300   50.789100
  H     -0.933252   79.948200   50.261900
  H      0.208906   78.687100   50.214600
  C      0.035315   79.564600   52.078600
  H      0.804109   80.305400   51.877900
  H     -0.650882   80.139800   52.708900
  C      0.649773   78.423200   52.872900
  H      1.176850   78.731200   53.832400
  H     -0.111542   77.664600   53.024300
  H      1.371090   77.925400   52.289800
  S     -6.304590   76.522400   52.066200
  C     -7.008400   76.246700   53.615200
  C     -5.994360   76.380900   54.592700
  C     -4.715860   76.595900   54.054900
  C     -4.670760   76.576300   52.645200
  H     -6.322220   76.386500   55.606200
  C     -3.475840   76.892200   54.867500
  H     -3.695870   77.091900   55.982000
  H     -2.977620   77.764500   54.386200
  C     -2.465700   75.803600   54.884300
  H     -1.571120   76.220800   55.361300
  H     -2.203020   75.452700   53.902900
  C     -3.098920   74.592300   55.506600
  H     -2.355370   73.771700   55.530800
  H     -3.963990   74.272200   54.927000
  H     -3.525350   74.851600   56.471400
  H     -0.799086   76.747300   49.420200
  H     -8.098860   76.026700   53.795100

 Total Charge           Charge          ....    0
 Multiplicity           Mult            ....    1
 Number of Electrons    NEL             ....  134
 Basis Dimension        Dim             ....  322

ORBITAL ENERGIES
----------------

  NO   OCC          E(Eh)            E(eV)
   0   2.0000     -88.969020     -2420.9701
   1   2.0000     -88.967400     -2420.9260
   2   2.0000     -10.335096      -281.2323
   3   2.0000     -10.328539      -281.0538
   4   2.0000     -10.324668      -280.9485
   5   2.0000     -10.317484      -280.7530
   6   2.0000     -10.305596      -280.4295
   7   2.0000     -10.301950      -280.3303
   8   2.0000     -10.299379      -280.2604
   9   2.0000     -10.295340      -280.1504
  10   2.0000     -10.291854      -280.0556
  11   2.0000     -10.288212      -279.9565
  12   2.0000     -10.286674      -279.9146
  13   2.0000     -10.275250      -279.6038
  14   2.0000     -10.272627      -279.5324
  15   2.0000     -10.268339      -279.4157
  16   2.0000      -8.083672      -219.9679
  17   2.0000      -8.082537      -219.9370
  18   2.0000      -6.042182      -164.4161
  19   2.0000      -6.040881      -164.3807
  20   2.0000      -6.038083      -164.3046
  21   2.0000      -6.036710      -164.2672
  22   2.0000      -6.034508      -164.2073
  23   2.0000      -6.033724      -164.1860
  24   2.0000      -1.011057       -27.5123
  25   2.0000      -0.990919       -26.9643
  26   2.0000      -0.920319       -25.0432
  27   2.0000      -0.916734       -24.9456
  28   2.0000      -0.870805       -23.6958
  29   2.0000      -0.849716       -23.1219
  30   2.0000      -0.845720       -23.0132
  31   2.0000      -0.817047       -22.2330
  32   2.0000      -0.784402       -21.3447
  33   2.0000      -0.772230       -21.0134
  34   2.0000      -0.711736       -19.3673
  35   2.0000      -0.695836       -18.9347
  36   2.0000      -0.683845       -18.6084
  37   2.0000      -0.661758       -18.0073
  38   2.0000      -0.641643       -17.4600
  39   2.0000      -0.623620       -16.9696
  40   2.0000      -0.594669       -16.1818
  41   2.0000      -0.574181       -15.6243
  42   2.0000      -0.561319       -15.2743
  43   2.0000      -0.556336       -15.1387
  44   2.0000      -0.546089       -14.8598
  45   2.0000      -0.543080       -14.7779
  46   2.0000      -0.516998       -14.0682
  47   2.0000      -0.513294       -13.9674
  48   2.0000      -0.505330       -13.7507
  49   2.0000      -0.498307       -13.5596
  50   2.0000      -0.486508       -13.2386
  51   2.0000      -0.482245       -13.1226
  52   2.0000      -0.471828       -12.8391
  53   2.0000      -0.469001       -12.7622
  54   2.0000      -0.459719       -12.5096
  55   2.0000      -0.447770       -12.1844
  56   2.0000      -0.442718       -12.0470
  57   2.0000      -0.434726       -11.8295
  58   2.0000      -0.428865       -11.6700
  59   2.0000      -0.422716       -11.5027
  60   2.0000      -0.419837       -11.4244
  61   2.0000      -0.413470       -11.2511
  62   2.0000      -0.408600       -11.1186
  63   2.0000      -0.341995        -9.3062
  64   2.0000      -0.333187        -9.0665
  65   2.0000      -0.330549        -8.9947
  66   2.0000      -0.301305        -8.1989
  67   0.0000       0.029472         0.8020
  68   0.0000       0.059030         1.6063
  69   0.0000       0.110363         3.0031
  70   0.0000       0.123721         3.3666
  71   0.0000       0.133297         3.6272

MULLIKEN ATOMIC CHARGES
-----------------------
   0 S :    0.115434
   1 C :   -0.129633
   2 C :   -0.088655
   3 C :    0.035248
   4 C :   -0.168767
   5 H :    0.037455
   6 C :    0.072241
   7 H :    0.025989
   8 H :    0.014100
   9 C :   -0.077362
  10 H :    0.024832
  11 H :    0.019235
  12 C :   -0.045813
  13 H :    0.047242
  14 H :    0.035498
  15 H :    0.007526
  16 S :    0.122425
  17 C :   -0.132265
  18 C :   -0.040705
  19 C :   -0.030544
  20 C :   -0.156081
  21 H :    0.011502
  22 C :    0.036589
  23 H :    0.035380
  24 H :    0.018190
  25 C :   -0.049815
  26 H :    0.032525
  27 H :    0.026907
  28 C :   -0.043826
  29 H :    0.037226
  30 H :    0.043479
  31 H :    0.008553
  32 H :    0.069685
  33 H :    0.086207
Sum of atomic charges:   -0.0000000

LOEWDIN ATOMIC CHARGES
----------------------
   0 S :    0.411266
   1 C :   -0.199848
   2 C :   -0.067232
   3 C :   -0.064428
   4 C :   -0.196746
   5 H :    0.038590
   6 C :   -0.029479
   7 H :    0.026126
   8 H :    0.033055
   9 C :   -0.043162
  10 H :    0.025677
  11 H :    0.017662
  12 C :   -0.068019
  13 H :    0.035027
  14 H :    0.025744
  15 H :    0.015686
  16 S :    0.441096
  17 C :   -0.206139
  18 C :   -0.076202
  19 C :   -0.056499
  20 C :   -0.218401
  21 H :    0.028432
  22 C :   -0.038285
  23 H :    0.037108
  24 H :    0.030120
  25 C :   -0.044081
  26 H :    0.025372
  27 H :    0.021037
  28 C :   -0.062269
  29 H :    0.027443
  30 H :    0.029116
  31 H :    0.015939
  32 H :    0.041126
  33 H :    0.045169

  Mayer bond orders larger than 0.100000
B(  0-S ,  1-C ) :   1.1270 B(  0-S ,  4-C ) :   1.1700 B(  1-C ,  2-C ) :   1.6251
B(  1-C , 32-H ) :   0.9603 B(  2-C ,  3-C ) :   1.2264 B(  2-C ,  6-C ) :   1.0239
B(  3-C ,  4-C ) :   1.5713 B(  3-C ,  5-H ) :   0.9891 B(  4-C , 20-C ) :   1.0015
B(  6-C ,  7-H ) :   0.9278 B(  6-C ,  8-H ) :   0.9456 B(  6-C ,  9-C ) :   1.0812
B(  9-C , 10-H ) :   0.9522 B(  9-C , 11-H ) :   0.9498 B(  9-C , 12-C ) :   1.0739
B( 12-C , 13-H ) :   0.9735 B( 12-C , 14-H ) :   0.9735 B( 12-C , 15-H ) :   0.9707
B( 16-S , 17-C ) :   1.2043 B( 16-S , 20-C ) :   1.1803 B( 17-C , 18-C ) :   1.5233
B( 17-C , 20-C ) :   0.1198 B( 17-C , 33-H ) :   0.9627 B( 18-C , 19-C ) :   1.2958
B( 18-C , 21-H ) :   1.0054 B( 19-C , 20-C ) :   1.5188 B( 19-C , 22-C ) :   1.0387
B( 22-C , 23-H ) :   0.9412 B( 22-C , 24-H ) :   0.9233 B( 22-C , 25-C ) :   1.0890
B( 25-C , 26-H ) :   0.9526 B( 25-C , 27-H ) :   0.9479 B( 25-C , 28-C ) :   1.0709
B( 28-C , 29-H ) :   0.9719 B( 28-C , 30-H ) :   0.9679 B( 28-C , 31-H ) :   0.9731

Dispersion correction           -0.016335163
FINAL SINGLE POINT ENERGY     -1339.880628555200

DIPOLE MOMENT
-------------
                                X             Y             Z
Electronic contribution:    -21.26598      -5.48296     -15.71605
Nuclear contribution   :     21.64458       5.84507      16.09561
                        -----------------------------------------
Total Dipole Moment    :      0.37860       0.36212       0.37955
                        -----------------------------------------
Magnitude (a.u.)       :      0.64694
Magnitude (Debye)      :      1.64438

Rotational constants in cm-1:     0.020082     0.009791     0.007941
Rotational constants in MHz :   602.034938   293.538995   238.064473

                             ****ORCA TERMINATED NORMALLY****
TOTAL RUN TIME: 0 days 0 hours 0 minutes 37 seconds 693 msec
