                         Program Version 4.2.1 -  RELEASE  -
|  1> ! wB97X-D3 SP def2-SVP
|  2> %pal
|  3> nprocs 16
|  4> end
|  5>
|  6> * xyz 0 1
|  7> S 	 -116.908 	 45.1369 	 134.453
|  8> C 	 -117.835 	 46.6195 	 134.449
|  9> C 	 -117.227 	 47.6559 	 135.135
| 10> C 	 -116.031 	 47.1309 	 135.769
| 11> C 	 -115.736 	 45.8057 	 135.551
| 12> H 	 -115.407 	 47.7825 	 136.383
| 13> C 	 -117.784 	 49.0686 	 135.245
| 14> H 	 -117.344 	 49.3585 	 136.214
| 15> H 	 -118.85 	 48.9949 	 135.549
| 16> C 	 -117.331 	 50.1991 	 134.207
| 17> H 	 -117.439 	 51.1413 	 134.717
| 18> H 	 -116.269 	 49.9924 	 134.099
| 19> C 	 -118.146 	 50.2446 	 132.907
| 20> H 	 -119.23 	 50.2065 	 133.058
| 21> H 	 -117.917 	 51.0985 	 132.291
| 22> H 	 -117.989 	 49.2361 	 132.41
| 23> S 	 -114.711 	 44.6684 	 137.738
| 24> C 	 -113.044 	 44.0471 	 137.826
| 25> C 	 -112.471 	 44.1723 	 136.569
| 26> C 	 -113.349 	 44.7733 	 135.596
| 27> C 	 -114.568 	 45.1273 	 136.106
| 28> H 	 -111.471 	 43.764 	 136.35
| 29> C 	 -112.894 	 44.9659 	 134.139
| 30> H 	 -111.828 	 45.2269 	 134.059
| 31> H 	 -113.529 	 45.7953 	 133.733
| 32> C 	 -113.314 	 43.7941 	 133.202
| 33> H 	 -114.341 	 43.5502 	 133.207
| 34> H 	 -112.746 	 42.8716 	 133.441
| 35> C 	 -112.816 	 44.1887 	 131.803
| 36> H 	 -112.934 	 43.426 	 131.074
| 37> H 	 -111.761 	 44.2141 	 131.89
| 38> H 	 -113.188 	 45.2155 	 131.493
| 39> H 	 -118.62 	 46.7246 	 133.805
| 40> H 	 -112.543 	 43.515 	 138.62
| 41> *
| 42>
| 43>                          ****END OF INPUT****

CARTESIAN COORDINATES (ANGSTROEM)
---------------------------------
  S    -116.908000   45.136900  134.453000
  C    -117.835000   46.619500  134.449000
  C    -117.227000   47.655900  135.135000
  C    -116.031000   47.130900  135.769000
  C    -115.736000   45.805700  135.551000
  H    -115.407000   47.782500  136.383000
  C    -117.784000   49.068600  135.245000
  H    -117.344000   49.358500  136.214000
  H    -118.850000   48.994900  135.549000
  C    -117.331000   50.199100  134.207000
  H    -117.439000   51.141300  134.717000
  H    -116.269000   49.992400  134.099000
  C    -118.146000   50.244600  132.907000
  H    -119.230000   50.206500  133.058000
  H    -117.917000   51.098500  132.291000
  H    -117.989000   49.236100  132.410000
  S    -114.711000   44.668400  137.738000
  C    -113.044000   44.047100  137.826000
  C    -112.471000   44.172300  136.569000
  C    -113.349000   44.773300  135.596000
  C    -114.568000   45.127300  136.106000
  H    -111.471000   43.764000  136.350000
  C    -112.894000   44.965900  134.139000
  H    -111.828000   45.226900  134.059000
  H    -113.529000   45.795300  133.733000
  C    -113.314000   43.794100  133.202000
  H    -114.341000   43.550200  133.207000
  H    -112.746000   42.871600  133.441000
  C    -112.816000   44.188700  131.803000
  H    -112.934000   43.426000  131.074000
  H    -111.761000   44.214100  131.890000
  H    -113.188000   45.215500  131.493000
  H    -118.620000   46.724600  133.805000
  H    -112.543000   43.515000  138.620000

 Total Charge           Charge          ....    0
 Multiplicity           Mult            ....    1
 Number of Electrons    NEL             ....  134
 Basis Dimension        Dim             ....  322

ORBITAL ENERGIES
----------------

  NO   OCC          E(Eh)            E(eV)
   0   2.0000     -88.967828     -2420.9377
   1   2.0000     -88.963178     -2420.8111
   2   2.0000     -10.328830      -281.0617
   3   2.0000     -10.320996      -280.8486
   4   2.0000     -10.318150      -280.7711
   5   2.0000     -10.309298      -280.5303
   6   2.0000     -10.304691      -280.4049
   7   2.0000     -10.300945      -280.3030
   8   2.0000     -10.300340      -280.2865
   9   2.0000     -10.296951      -280.1943
  10   2.0000     -10.295752      -280.1616
  11   2.0000     -10.295644      -280.1587
  12   2.0000     -10.295132      -280.1448
  13   2.0000     -10.284403      -279.8528
  14   2.0000     -10.282510      -279.8013
  15   2.0000     -10.271740      -279.5083
  16   2.0000      -8.082534      -219.9369
  17   2.0000      -8.078201      -219.8190
  18   2.0000      -6.041012      -164.3843
  19   2.0000      -6.037016      -164.2756
  20   2.0000      -6.036833      -164.2706
  21   2.0000      -6.033369      -164.1763
  22   2.0000      -6.032495      -164.1525
  23   2.0000      -6.028959      -164.0563
  24   2.0000      -1.008980       -27.4557
  25   2.0000      -0.984932       -26.8014
  26   2.0000      -0.905185       -24.6313
  27   2.0000      -0.904882       -24.6231
  28   2.0000      -0.870917       -23.6989
  29   2.0000      -0.849571       -23.1180
  30   2.0000      -0.844912       -22.9912
  31   2.0000      -0.815554       -22.1923
  32   2.0000      -0.781923       -21.2772
  33   2.0000      -0.765784       -20.8380
  34   2.0000      -0.708326       -19.2745
  35   2.0000      -0.701467       -19.0879
  36   2.0000      -0.693272       -18.8649
  37   2.0000      -0.664578       -18.0841
  38   2.0000      -0.644688       -17.5428
  39   2.0000      -0.615868       -16.7586
  40   2.0000      -0.591362       -16.0918
  41   2.0000      -0.571420       -15.5491
  42   2.0000      -0.566395       -15.4124
  43   2.0000      -0.549579       -14.9548
  44   2.0000      -0.533982       -14.5304
  45   2.0000      -0.522532       -14.2188
  46   2.0000      -0.518542       -14.1102
  47   2.0000      -0.513785       -13.9808
  48   2.0000      -0.506168       -13.7735
  49   2.0000      -0.499150       -13.5826
  50   2.0000      -0.484685       -13.1889
  51   2.0000      -0.476053       -12.9541
  52   2.0000      -0.475903       -12.9500
  53   2.0000      -0.460439       -12.5292
  54   2.0000      -0.459029       -12.4908
  55   2.0000      -0.446324       -12.1451
  56   2.0000      -0.439468       -11.9585
  57   2.0000      -0.437505       -11.9051
  58   2.0000      -0.434533       -11.8242
  59   2.0000      -0.430554       -11.7160
  60   2.0000      -0.419226       -11.4077
  61   2.0000      -0.412614       -11.2278
  62   2.0000      -0.410384       -11.1671
  63   2.0000      -0.334953        -9.1145
  64   2.0000      -0.333739        -9.0815
  65   2.0000      -0.323024        -8.7899
  66   2.0000      -0.309279        -8.4159
  67   0.0000       0.044397         1.2081
  68   0.0000       0.058566         1.5937
  69   0.0000       0.112396         3.0584
  70   0.0000       0.119787         3.2596
  71   0.0000       0.128281         3.4907

MULLIKEN ATOMIC CHARGES
-----------------------
   0 S :    0.114976
   1 C :   -0.088674
   2 C :   -0.098101
   3 C :    0.037622
   4 C :   -0.157927
   5 H :    0.012145
   6 C :    0.019767
   7 H :    0.017440
   8 H :    0.041999
   9 C :   -0.031484
  10 H :    0.031247
  11 H :    0.035398
  12 C :   -0.055566
  13 H :    0.027611
  14 H :    0.047230
  15 H :    0.035137
  16 S :    0.113981
  17 C :   -0.093837
  18 C :   -0.046636
  19 C :   -0.004512
  20 C :   -0.179509
  21 H :    0.027061
  22 C :    0.020291
  23 H :    0.033955
  24 H :    0.034081
  25 C :   -0.059028
  26 H :    0.023703
  27 H :    0.023685
  28 C :   -0.023525
  29 H :    0.022928
  30 H :    0.008074
  31 H :    0.039417
  32 H :    0.014273
  33 H :    0.056778
Sum of atomic charges:   -0.0000000

LOEWDIN ATOMIC CHARGES
----------------------
   0 S :    0.412746
   1 C :   -0.175654
   2 C :   -0.067102
   3 C :   -0.055809
   4 C :   -0.212828
   5 H :    0.030108
   6 C :   -0.041298
   7 H :    0.035189
   8 H :    0.037105
   9 C :   -0.030778
  10 H :    0.022791
  11 H :    0.028582
  12 C :   -0.073645
  13 H :    0.025870
  14 H :    0.026289
  15 H :    0.033426
  16 S :    0.423713
  17 C :   -0.184308
  18 C :   -0.072632
  19 C :   -0.061024
  20 C :   -0.216753
  21 H :    0.034426
  22 C :   -0.031219
  23 H :    0.031807
  24 H :    0.036066
  25 C :   -0.032786
  26 H :    0.012544
  27 H :    0.024097
  28 C :   -0.064688
  29 H :    0.019394
  30 H :    0.018669
  31 H :    0.030357
  32 H :    0.005218
  33 H :    0.032130

  Mayer bond orders larger than 0.100000
B(  0-S ,  1-C ) :   1.1551 B(  0-S ,  4-C ) :   1.1400 B(  1-C ,  2-C ) :   1.5989
B(  1-C , 32-H ) :   0.9780 B(  2-C ,  3-C ) :   1.2541 B(  2-C ,  6-C ) :   1.0119
B(  3-C ,  4-C ) :   1.5890 B(  3-C ,  5-H ) :   0.9891 B(  4-C , 20-C ) :   0.9945
B(  6-C ,  7-H ) :   0.9354 B(  6-C ,  8-H ) :   0.9466 B(  6-C ,  9-C ) :   1.0487
B(  9-C , 10-H ) :   0.9584 B(  9-C , 11-H ) :   0.9563 B(  9-C , 12-C ) :   1.0761
B( 12-C , 13-H ) :   0.9751 B( 12-C , 14-H ) :   0.9746 B( 12-C , 15-H ) :   0.9742
B( 16-S , 17-C ) :   1.1477 B( 16-S , 20-C ) :   1.1597 B( 17-C , 18-C ) :   1.6080
B( 17-C , 33-H ) :   0.9695 B( 18-C , 19-C ) :   1.2454 B( 18-C , 21-H ) :   0.9835
B( 19-C , 20-C ) :   1.6146 B( 19-C , 22-C ) :   1.0386 B( 22-C , 23-H ) :   0.9451
B( 22-C , 24-H ) :   0.9330 B( 22-C , 25-C ) :   1.0618 B( 25-C , 26-H ) :   0.9562
B( 25-C , 27-H ) :   0.9546 B( 25-C , 28-C ) :   1.0805 B( 28-C , 29-H ) :   0.9714
B( 28-C , 30-H ) :   0.9721 B( 28-C , 31-H ) :   0.9735

Dispersion correction           -0.014259981
FINAL SINGLE POINT ENERGY     -1339.874652483571

DIPOLE MOMENT
-------------
                                X             Y             Z
Electronic contribution:     -2.43173     -13.63918      18.64858
Nuclear contribution   :      2.62556      14.01572     -18.90229
                        -----------------------------------------
Total Dipole Moment    :      0.19383       0.37654      -0.25371
                        -----------------------------------------
Magnitude (a.u.)       :      0.49368
Magnitude (Debye)      :      1.25484

Rotational constants in cm-1:     0.019198     0.008035     0.006648
Rotational constants in MHz :   575.544467   240.895593   199.296547

                             ****ORCA TERMINATED NORMALLY****
TOTAL RUN TIME: 0 days 0 hours 0 minutes 33 seconds 237 msec
