                         Program Version 4.2.1 -  RELEASE  -
|  1> ! wB97X-D3 SP def2-SVP
|  2> %pal
|  3> nprocs 16
|  4> end
|  5>
|  6> * xyz 0 1
|  7> S 	 -3.0994 	 -14.789 	 85.7861
|  8> C 	 -4.21561 	 -15.8526 	 84.9458
|  9> C 	 -3.65423 	 -16.272 	 83.7715
| 10> C 	 -2.38192 	 -15.7953 	 83.4902
| 11> C 	 -1.95154 	 -14.8149 	 84.4497
| 12> H 	 -1.71987 	 -15.8646 	 82.6453
| 13> C 	 -4.39978 	 -17.2118 	 82.8402
| 14> H 	 -4.44506 	 -18.1429 	 83.3617
| 15> H 	 -3.83644 	 -17.3613 	 81.9096
| 16> C 	 -5.8077 	 -16.8221 	 82.4042
| 17> H 	 -6.32529 	 -17.6859 	 82.0069
| 18> H 	 -6.35927 	 -16.5817 	 83.301
| 19> C 	 -5.92937 	 -15.6457 	 81.4303
| 20> H 	 -6.77073 	 -14.9695 	 81.6619
| 21> H 	 -5.01884 	 -15.0162 	 81.2471
| 22> H 	 -6.09578 	 -16.0094 	 80.4167
| 23> S 	 0.0978337 	 -14.1213 	 86.2541
| 24> C 	 1.55332 	 -13.5089 	 85.535
| 25> C 	 1.37392 	 -13.1675 	 84.3009
| 26> C 	 0.112855 	 -13.435 	 83.7004
| 27> C 	 -0.667328 	 -14.1025 	 84.6188
| 28> H 	 2.31041 	 -12.8352 	 83.7839
| 29> C 	 -0.215849 	 -13.267 	 82.225
| 30> H 	 -0.171758 	 -12.2096 	 82.1121
| 31> H 	 -1.28158 	 -13.5657 	 82.0166
| 32> C 	 0.749831 	 -13.958 	 81.1526
| 33> H 	 1.71973 	 -13.5215 	 81.2542
| 34> H 	 0.416364 	 -13.7315 	 80.1562
| 35> C 	 0.83193 	 -15.438 	 81.2454
| 36> H 	 1.27162 	 -15.6991 	 82.1909
| 37> H 	 1.51272 	 -15.9053 	 80.5107
| 38> H 	 -0.00469765 	 -16.0985 	 81.1779
| 39> H 	 -5.25803 	 -16.1571 	 85.2088
| 40> H 	 2.47171 	 -13.488 	 86.0905
| 41> *
| 42>
| 43>                          ****END OF INPUT****

CARTESIAN COORDINATES (ANGSTROEM)
---------------------------------
  S     -3.099400  -14.789000   85.786100
  C     -4.215610  -15.852600   84.945800
  C     -3.654230  -16.272000   83.771500
  C     -2.381920  -15.795300   83.490200
  C     -1.951540  -14.814900   84.449700
  H     -1.719870  -15.864600   82.645300
  C     -4.399780  -17.211800   82.840200
  H     -4.445060  -18.142900   83.361700
  H     -3.836440  -17.361300   81.909600
  C     -5.807700  -16.822100   82.404200
  H     -6.325290  -17.685900   82.006900
  H     -6.359270  -16.581700   83.301000
  C     -5.929370  -15.645700   81.430300
  H     -6.770730  -14.969500   81.661900
  H     -5.018840  -15.016200   81.247100
  H     -6.095780  -16.009400   80.416700
  S      0.097834  -14.121300   86.254100
  C      1.553320  -13.508900   85.535000
  C      1.373920  -13.167500   84.300900
  C      0.112855  -13.435000   83.700400
  C     -0.667328  -14.102500   84.618800
  H      2.310410  -12.835200   83.783900
  C     -0.215849  -13.267000   82.225000
  H     -0.171758  -12.209600   82.112100
  H     -1.281580  -13.565700   82.016600
  C      0.749831  -13.958000   81.152600
  H      1.719730  -13.521500   81.254200
  H      0.416364  -13.731500   80.156200
  C      0.831930  -15.438000   81.245400
  H      1.271620  -15.699100   82.190900
  H      1.512720  -15.905300   80.510700
  H     -0.004698  -16.098500   81.177900
  H     -5.258030  -16.157100   85.208800
  H      2.471710  -13.488000   86.090500

 Total Charge           Charge          ....    0
 Multiplicity           Mult            ....    1
 Number of Electrons    NEL             ....  134
 Basis Dimension        Dim             ....  322

ORBITAL ENERGIES
----------------

  NO   OCC          E(Eh)            E(eV)
   0   2.0000     -88.966590     -2420.9040
   1   2.0000     -88.959268     -2420.7047
   2   2.0000     -10.334931      -281.2278
   3   2.0000     -10.331691      -281.1396
   4   2.0000     -10.312866      -280.6273
   5   2.0000     -10.307353      -280.4773
   6   2.0000     -10.305612      -280.4299
   7   2.0000     -10.299776      -280.2711
   8   2.0000     -10.295818      -280.1635
   9   2.0000     -10.295389      -280.1518
  10   2.0000     -10.291119      -280.0356
  11   2.0000     -10.288096      -279.9533
  12   2.0000     -10.287066      -279.9253
  13   2.0000     -10.284894      -279.8662
  14   2.0000     -10.279147      -279.7098
  15   2.0000     -10.273171      -279.5472
  16   2.0000      -8.080677      -219.8864
  17   2.0000      -8.074377      -219.7150
  18   2.0000      -6.039173      -164.3343
  19   2.0000      -6.035090      -164.2231
  20   2.0000      -6.032939      -164.1646
  21   2.0000      -6.031690      -164.1306
  22   2.0000      -6.029159      -164.0617
  23   2.0000      -6.024704      -163.9405
  24   2.0000      -1.007713       -27.4213
  25   2.0000      -0.987709       -26.8769
  26   2.0000      -0.911862       -24.8130
  27   2.0000      -0.909197       -24.7405
  28   2.0000      -0.869558       -23.6619
  29   2.0000      -0.855857       -23.2890
  30   2.0000      -0.843840       -22.9621
  31   2.0000      -0.816151       -22.2086
  32   2.0000      -0.787690       -21.4341
  33   2.0000      -0.775882       -21.1128
  34   2.0000      -0.713193       -19.4070
  35   2.0000      -0.705574       -19.1996
  36   2.0000      -0.699524       -19.0350
  37   2.0000      -0.653904       -17.7936
  38   2.0000      -0.634550       -17.2670
  39   2.0000      -0.611568       -16.6416
  40   2.0000      -0.597809       -16.2672
  41   2.0000      -0.575502       -15.6602
  42   2.0000      -0.555096       -15.1049
  43   2.0000      -0.552928       -15.0459
  44   2.0000      -0.550745       -14.9865
  45   2.0000      -0.533177       -14.5085
  46   2.0000      -0.520761       -14.1706
  47   2.0000      -0.512870       -13.9559
  48   2.0000      -0.502350       -13.6696
  49   2.0000      -0.493243       -13.4218
  50   2.0000      -0.488126       -13.2826
  51   2.0000      -0.484674       -13.1887
  52   2.0000      -0.476362       -12.9625
  53   2.0000      -0.470602       -12.8057
  54   2.0000      -0.459954       -12.5160
  55   2.0000      -0.444441       -12.0939
  56   2.0000      -0.441779       -12.0214
  57   2.0000      -0.434760       -11.8304
  58   2.0000      -0.431314       -11.7367
  59   2.0000      -0.426225       -11.5982
  60   2.0000      -0.420071       -11.4307
  61   2.0000      -0.415885       -11.3168
  62   2.0000      -0.409146       -11.1334
  63   2.0000      -0.353018        -9.6061
  64   2.0000      -0.334535        -9.1032
  65   2.0000      -0.330469        -8.9925
  66   2.0000      -0.286482        -7.7956
  67   0.0000       0.024852         0.6763
  68   0.0000       0.071207         1.9376
  69   0.0000       0.104363         2.8399
  70   0.0000       0.130579         3.5532
  71   0.0000       0.134418         3.6577

MULLIKEN ATOMIC CHARGES
-----------------------
   0 S :    0.103434
   1 C :   -0.130986
   2 C :   -0.070513
   3 C :    0.064055
   4 C :   -0.183056
   5 H :   -0.027170
   6 C :    0.075328
   7 H :    0.032961
   8 H :    0.017647
   9 C :   -0.054909
  10 H :    0.028122
  11 H :    0.010176
  12 C :   -0.072426
  13 H :    0.041439
  14 H :    0.039000
  15 H :    0.023890
  16 S :    0.082876
  17 C :   -0.080620
  18 C :   -0.043046
  19 C :   -0.025809
  20 C :   -0.150657
  21 H :    0.028398
  22 C :    0.052863
  23 H :    0.030346
  24 H :    0.040491
  25 C :   -0.018646
  26 H :    0.023083
  27 H :    0.025912
  28 C :   -0.062181
  29 H :    0.026035
  30 H :    0.027312
  31 H :    0.034421
  32 H :    0.061465
  33 H :    0.050764
Sum of atomic charges:    0.0000000

LOEWDIN ATOMIC CHARGES
----------------------
   0 S :    0.406633
   1 C :   -0.209101
   2 C :   -0.070929
   3 C :   -0.064926
   4 C :   -0.179614
   5 H :    0.026537
   6 C :   -0.026699
   7 H :    0.032194
   8 H :    0.027455
   9 C :   -0.042288
  10 H :    0.026590
  11 H :    0.017175
  12 C :   -0.076819
  13 H :    0.031297
  14 H :    0.031791
  15 H :    0.024564
  16 S :    0.365617
  17 C :   -0.173886
  18 C :   -0.084154
  19 C :   -0.058778
  20 C :   -0.174442
  21 H :    0.039713
  22 C :   -0.027805
  23 H :    0.031714
  24 H :    0.037162
  25 C :   -0.029521
  26 H :    0.022755
  27 H :    0.024399
  28 C :   -0.074961
  29 H :    0.025751
  30 H :    0.032480
  31 H :    0.020156
  32 H :    0.039912
  33 H :    0.030025

  Mayer bond orders larger than 0.100000
B(  0-S ,  1-C ) :   1.1363 B(  0-S ,  4-C ) :   1.1776 B(  1-C ,  2-C ) :   1.5871
B(  1-C ,  4-C ) :   0.1126 B(  1-C , 32-H ) :   0.9624 B(  2-C ,  3-C ) :   1.2662
B(  2-C ,  6-C ) :   1.0086 B(  3-C ,  4-C ) :   1.5148 B(  3-C ,  5-H ) :   0.9954
B(  4-C , 20-C ) :   1.0478 B(  6-C ,  7-H ) :   0.9320 B(  6-C ,  8-H ) :   0.9493
B(  6-C ,  9-C ) :   1.0896 B(  9-C , 10-H ) :   0.9551 B(  9-C , 11-H ) :   0.9592
B(  9-C , 12-C ) :   1.0546 B( 12-C , 13-H ) :   0.9779 B( 12-C , 14-H ) :   0.9812
B( 12-C , 15-H ) :   0.9765 B( 16-S , 17-C ) :   1.1157 B( 16-S , 20-C ) :   1.1231
B( 17-C , 18-C ) :   1.6981 B( 17-C , 33-H ) :   0.9669 B( 18-C , 19-C ) :   1.1716
B( 18-C , 21-H ) :   0.9788 B( 19-C , 20-C ) :   1.6286 B( 19-C , 22-C ) :   1.0422
B( 22-C , 23-H ) :   0.9267 B( 22-C , 24-H ) :   0.9369 B( 22-C , 25-C ) :   1.0680
B( 25-C , 26-H ) :   0.9504 B( 25-C , 27-H ) :   0.9564 B( 25-C , 28-C ) :   1.0836
B( 28-C , 29-H ) :   0.9714 B( 28-C , 30-H ) :   0.9660 B( 28-C , 31-H ) :   0.9671

Dispersion correction           -0.014877036
FINAL SINGLE POINT ENERGY     -1339.865847343063

DIPOLE MOMENT
-------------
                                X             Y             Z
Electronic contribution:      6.47802       6.97335      27.03227
Nuclear contribution   :     -6.30285      -7.16697     -27.77693
                        -----------------------------------------
Total Dipole Moment    :      0.17517      -0.19362      -0.74467
                        -----------------------------------------
Magnitude (a.u.)       :      0.78912
Magnitude (Debye)      :      2.00577

Rotational constants in cm-1:     0.020087     0.008997     0.006768
Rotational constants in MHz :   602.182440   269.724807   202.889623

                             ****ORCA TERMINATED NORMALLY****
TOTAL RUN TIME: 0 days 0 hours 0 minutes 35 seconds 298 msec
