                         Program Version 4.2.1 -  RELEASE  -
|  1> ! wB97X-D3 SP def2-SVP
|  2> %pal
|  3> nprocs 16
|  4> end
|  5>
|  6> * xyz 0 1
|  7> S 	 -2.06367 	 -10.8751 	 86.6383
|  8> C 	 -2.4024 	 -12.4833 	 87.1031
|  9> C 	 -3.64193 	 -12.6773 	 87.6634
| 10> C 	 -4.31363 	 -11.411 	 87.6797
| 11> C 	 -3.70286 	 -10.3534 	 87.0699
| 12> H 	 -5.2964 	 -11.266 	 88.0658
| 13> C 	 -4.33599 	 -14.0003 	 88.0544
| 14> H 	 -3.93842 	 -14.895 	 87.5912
| 15> H 	 -5.3381 	 -13.9151 	 87.6338
| 16> C 	 -4.3386 	 -14.2255 	 89.5275
| 17> H 	 -3.27447 	 -14.2909 	 89.8051
| 18> H 	 -4.64006 	 -13.3223 	 90.0474
| 19> C 	 -5.15717 	 -15.5334 	 89.85
| 20> H 	 -4.61236 	 -16.4954 	 89.7375
| 21> H 	 -5.74755 	 -15.5067 	 90.8262
| 22> H 	 -5.94031 	 -15.6035 	 89.1116
| 23> S 	 -4.34485 	 -7.61439 	 86.9751
| 24> C 	 -5.17627 	 -6.94818 	 85.6344
| 25> C 	 -5.56608 	 -7.95572 	 84.765
| 26> C 	 -5.16986 	 -9.29431 	 85.1805
| 27> C 	 -4.4177 	 -9.28414 	 86.3536
| 28> H 	 -6.02502 	 -7.60434 	 83.8542
| 29> C 	 -5.33087 	 -10.5265 	 84.36
| 30> H 	 -6.10529 	 -10.3468 	 83.7049
| 31> H 	 -5.64271 	 -11.3479 	 85.0881
| 32> C 	 -4.16294 	 -11.067 	 83.5952
| 33> H 	 -3.21327 	 -10.7897 	 84.0457
| 34> H 	 -4.11199 	 -10.5566 	 82.5345
| 35> C 	 -4.32478 	 -12.5947 	 83.3758
| 36> H 	 -3.346 	 -12.9996 	 82.918
| 37> H 	 -5.17479 	 -12.8514 	 82.7223
| 38> H 	 -4.41305 	 -12.9749 	 84.3772
| 39> H 	 -1.77037 	 -13.2857 	 86.92
| 40> H 	 -5.55477 	 -5.94779 	 85.5628
| 41> *
| 42>
| 43>                          ****END OF INPUT****

CARTESIAN COORDINATES (ANGSTROEM)
---------------------------------
  S     -2.063670  -10.875100   86.638300
  C     -2.402400  -12.483300   87.103100
  C     -3.641930  -12.677300   87.663400
  C     -4.313630  -11.411000   87.679700
  C     -3.702860  -10.353400   87.069900
  H     -5.296400  -11.266000   88.065800
  C     -4.335990  -14.000300   88.054400
  H     -3.938420  -14.895000   87.591200
  H     -5.338100  -13.915100   87.633800
  C     -4.338600  -14.225500   89.527500
  H     -3.274470  -14.290900   89.805100
  H     -4.640060  -13.322300   90.047400
  C     -5.157170  -15.533400   89.850000
  H     -4.612360  -16.495400   89.737500
  H     -5.747550  -15.506700   90.826200
  H     -5.940310  -15.603500   89.111600
  S     -4.344850   -7.614390   86.975100
  C     -5.176270   -6.948180   85.634400
  C     -5.566080   -7.955720   84.765000
  C     -5.169860   -9.294310   85.180500
  C     -4.417700   -9.284140   86.353600
  H     -6.025020   -7.604340   83.854200
  C     -5.330870  -10.526500   84.360000
  H     -6.105290  -10.346800   83.704900
  H     -5.642710  -11.347900   85.088100
  C     -4.162940  -11.067000   83.595200
  H     -3.213270  -10.789700   84.045700
  H     -4.111990  -10.556600   82.534500
  C     -4.324780  -12.594700   83.375800
  H     -3.346000  -12.999600   82.918000
  H     -5.174790  -12.851400   82.722300
  H     -4.413050  -12.974900   84.377200
  H     -1.770370  -13.285700   86.920000
  H     -5.554770   -5.947790   85.562800

 Total Charge           Charge          ....    0
 Multiplicity           Mult            ....    1
 Number of Electrons    NEL             ....  134
 Basis Dimension        Dim             ....  322

ORBITAL ENERGIES
----------------

  NO   OCC          E(Eh)            E(eV)
   0   2.0000     -88.967484     -2420.9283
   1   2.0000     -88.959871     -2420.7212
   2   2.0000     -10.329310      -281.0748
   3   2.0000     -10.328493      -281.0526
   4   2.0000     -10.314062      -280.6599
   5   2.0000     -10.313302      -280.6392
   6   2.0000     -10.306812      -280.4626
   7   2.0000     -10.304946      -280.4118
   8   2.0000     -10.296881      -280.1924
   9   2.0000     -10.296535      -280.1830
  10   2.0000     -10.294521      -280.1282
  11   2.0000     -10.290513      -280.0191
  12   2.0000     -10.290455      -280.0175
  13   2.0000     -10.285214      -279.8749
  14   2.0000     -10.282089      -279.7899
  15   2.0000     -10.281216      -279.7661
  16   2.0000      -8.082405      -219.9334
  17   2.0000      -8.074963      -219.7309
  18   2.0000      -6.040881      -164.3807
  19   2.0000      -6.036789      -164.2694
  20   2.0000      -6.033386      -164.1768
  21   2.0000      -6.033245      -164.1730
  22   2.0000      -6.029204      -164.0630
  23   2.0000      -6.026011      -163.9761
  24   2.0000      -1.009033       -27.4572
  25   2.0000      -0.986092       -26.8329
  26   2.0000      -0.918241       -24.9866
  27   2.0000      -0.911310       -24.7980
  28   2.0000      -0.871379       -23.7114
  29   2.0000      -0.849316       -23.1111
  30   2.0000      -0.844157       -22.9707
  31   2.0000      -0.814891       -22.1743
  32   2.0000      -0.781286       -21.2599
  33   2.0000      -0.770414       -20.9640
  34   2.0000      -0.708975       -19.2922
  35   2.0000      -0.703537       -19.1442
  36   2.0000      -0.687504       -18.7079
  37   2.0000      -0.659110       -17.9353
  38   2.0000      -0.653111       -17.7721
  39   2.0000      -0.626012       -17.0346
  40   2.0000      -0.592878       -16.1330
  41   2.0000      -0.575432       -15.6583
  42   2.0000      -0.565948       -15.4002
  43   2.0000      -0.562492       -15.3062
  44   2.0000      -0.523530       -14.2460
  45   2.0000      -0.518568       -14.1110
  46   2.0000      -0.517209       -14.0740
  47   2.0000      -0.511629       -13.9221
  48   2.0000      -0.504354       -13.7242
  49   2.0000      -0.501002       -13.6330
  50   2.0000      -0.497840       -13.5469
  51   2.0000      -0.479796       -13.0559
  52   2.0000      -0.469586       -12.7781
  53   2.0000      -0.468766       -12.7558
  54   2.0000      -0.459312       -12.4985
  55   2.0000      -0.448446       -12.2028
  56   2.0000      -0.443132       -12.0582
  57   2.0000      -0.436226       -11.8703
  58   2.0000      -0.435401       -11.8479
  59   2.0000      -0.427693       -11.6381
  60   2.0000      -0.417984       -11.3739
  61   2.0000      -0.413070       -11.2402
  62   2.0000      -0.405520       -11.0348
  63   2.0000      -0.336831        -9.1656
  64   2.0000      -0.326912        -8.8957
  65   2.0000      -0.325846        -8.8667
  66   2.0000      -0.309847        -8.4314
  67   0.0000       0.039175         1.0660
  68   0.0000       0.048180         1.3111
  69   0.0000       0.118024         3.2116
  70   0.0000       0.121495         3.3060
  71   0.0000       0.128918         3.5080

MULLIKEN ATOMIC CHARGES
-----------------------
   0 S :    0.112827
   1 C :   -0.087934
   2 C :   -0.101554
   3 C :    0.039492
   4 C :   -0.134470
   5 H :    0.007220
   6 C :    0.064443
   7 H :    0.019850
   8 H :    0.027758
   9 C :   -0.062189
  10 H :    0.029771
  11 H :    0.028506
  12 C :   -0.056610
  13 H :    0.047227
  14 H :    0.049521
  15 H :    0.016684
  16 S :    0.098190
  17 C :   -0.088614
  18 C :   -0.051174
  19 C :   -0.025990
  20 C :   -0.187379
  21 H :    0.018302
  22 C :    0.104108
  23 H :   -0.002720
  24 H :    0.027521
  25 C :   -0.081634
  26 H :    0.029591
  27 H :    0.028509
  28 C :   -0.071427
  29 H :    0.044031
  30 H :    0.046800
  31 H :    0.031954
  32 H :    0.020534
  33 H :    0.058857
Sum of atomic charges:    0.0000000

LOEWDIN ATOMIC CHARGES
----------------------
   0 S :    0.421933
   1 C :   -0.183914
   2 C :   -0.069011
   3 C :   -0.039295
   4 C :   -0.205404
   5 H :    0.027306
   6 C :   -0.029080
   7 H :    0.028750
   8 H :    0.028570
   9 C :   -0.043421
  10 H :    0.028409
  11 H :    0.024070
  12 C :   -0.074816
  13 H :    0.032179
  14 H :    0.037252
  15 H :    0.020056
  16 S :    0.404325
  17 C :   -0.193843
  18 C :   -0.078969
  19 C :   -0.046311
  20 C :   -0.195312
  21 H :    0.030535
  22 C :   -0.037368
  23 H :    0.019283
  24 H :    0.039182
  25 C :   -0.045820
  26 H :    0.011279
  27 H :    0.028410
  28 C :   -0.066671
  29 H :    0.035267
  30 H :    0.027581
  31 H :    0.019060
  32 H :    0.015277
  33 H :    0.030511

  Mayer bond orders larger than 0.100000
B(  0-S ,  1-C ) :   1.1694 B(  0-S ,  4-C ) :   1.1320 B(  1-C ,  2-C ) :   1.6082
B(  1-C , 32-H ) :   0.9710 B(  2-C ,  3-C ) :   1.2408 B(  2-C ,  6-C ) :   1.0087
B(  3-C ,  4-C ) :   1.5975 B(  3-C ,  5-H ) :   0.9969 B(  4-C , 20-C ) :   1.0147
B(  6-C ,  7-H ) :   0.9475 B(  6-C ,  8-H ) :   0.9383 B(  6-C ,  9-C ) :   1.0607
B(  9-C , 10-H ) :   0.9554 B(  9-C , 11-H ) :   0.9624 B(  9-C , 12-C ) :   1.0513
B( 12-C , 13-H ) :   0.9754 B( 12-C , 14-H ) :   0.9764 B( 12-C , 15-H ) :   0.9758
B( 16-S , 17-C ) :   1.1778 B( 16-S , 20-C ) :   1.1341 B( 17-C , 18-C ) :   1.6043
B( 17-C , 33-H ) :   0.9655 B( 18-C , 19-C ) :   1.2327 B( 18-C , 21-H ) :   0.9939
B( 19-C , 20-C ) :   1.5832 B( 19-C , 22-C ) :   1.0605 B( 22-C , 23-H ) :   0.9148
B( 22-C , 24-H ) :   0.9299 B( 22-C , 25-C ) :   1.0559 B( 25-C , 26-H ) :   0.9569
B( 25-C , 27-H ) :   0.9491 B( 25-C , 28-C ) :   1.0668 B( 28-C , 29-H ) :   0.9734
B( 28-C , 30-H ) :   0.9764 B( 28-C , 31-H ) :   0.9764

Dispersion correction           -0.015860901
FINAL SINGLE POINT ENERGY     -1339.863901516450

DIPOLE MOMENT
-------------
                                X             Y             Z
Electronic contribution:      8.75551      26.17607       2.61169
Nuclear contribution   :     -9.17007     -26.78114      -2.83950
                        -----------------------------------------
Total Dipole Moment    :     -0.41457      -0.60507      -0.22781
                        -----------------------------------------
Magnitude (a.u.)       :      0.76804
Magnitude (Debye)      :      1.95219

Rotational constants in cm-1:     0.020651     0.008233     0.007324
Rotational constants in MHz :   619.110043   246.808838   219.582731

                             ****ORCA TERMINATED NORMALLY****
TOTAL RUN TIME: 0 days 0 hours 0 minutes 35 seconds 795 msec
