                         Program Version 4.2.1 -  RELEASE  -
|  1> ! wB97X-D3 SP def2-SVP
|  2> %pal
|  3> nprocs 16
|  4> end
|  5>
|  6> * xyz 0 1
|  7> S 	 -2.10827 	 -11.7416 	 63.9906
|  8> C 	 -3.56206 	 -10.9489 	 64.534
|  9> C 	 -3.3686 	 -10.3705 	 65.7735
| 10> C 	 -2.02056 	 -10.5943 	 66.2725
| 11> C 	 -1.19085 	 -11.3257 	 65.4021
| 12> H 	 -1.53699 	 -10.1622 	 67.1429
| 13> C 	 -4.32493 	 -9.56702 	 66.5899
| 14> H 	 -4.02891 	 -9.44098 	 67.6548
| 15> H 	 -5.30965 	 -10.1029 	 66.4897
| 16> C 	 -4.58592 	 -8.22418 	 65.9153
| 17> H 	 -4.86153 	 -8.36497 	 64.8625
| 18> H 	 -5.4734 	 -7.81705 	 66.378
| 19> C 	 -3.35299 	 -7.34875 	 66.0005
| 20> H 	 -2.4657 	 -7.79702 	 65.5299
| 21> H 	 -3.4725 	 -6.31188 	 65.6088
| 22> H 	 -2.93948 	 -7.04123 	 67.0439
| 23> S 	 1.15256 	 -10.8372 	 64.2659
| 24> C 	 2.54665 	 -11.1149 	 65.0832
| 25> C 	 2.38157 	 -11.8242 	 66.2847
| 26> C 	 1.01777 	 -12.0743 	 66.5894
| 27> C 	 0.235896 	 -11.4597 	 65.5826
| 28> H 	 3.32354 	 -12.112 	 66.8287
| 29> C 	 0.420198 	 -12.6877 	 67.8672
| 30> H 	 0.560049 	 -13.7501 	 68.0303
| 31> H 	 -0.616953 	 -12.6915 	 67.7881
| 32> C 	 0.968217 	 -11.9564 	 69.144
| 33> H 	 1.98862 	 -12.2359 	 69.2081
| 34> H 	 0.468332 	 -12.3734 	 69.9868
| 35> C 	 0.870622 	 -10.4807 	 69.1885
| 36> H 	 1.45119 	 -9.9912 	 68.4081
| 37> H 	 1.32201 	 -10.1235 	 70.1361
| 38> H 	 -0.143477 	 -10.0481 	 69.1192
| 39> H 	 -4.38648 	 -10.9133 	 63.9432
| 40> H 	 3.49615 	 -10.8638 	 64.6458
| 41> *
| 42>
| 43>                          ****END OF INPUT****

CARTESIAN COORDINATES (ANGSTROEM)
---------------------------------
  S     -2.108270  -11.741600   63.990600
  C     -3.562060  -10.948900   64.534000
  C     -3.368600  -10.370500   65.773500
  C     -2.020560  -10.594300   66.272500
  C     -1.190850  -11.325700   65.402100
  H     -1.536990  -10.162200   67.142900
  C     -4.324930   -9.567020   66.589900
  H     -4.028910   -9.440980   67.654800
  H     -5.309650  -10.102900   66.489700
  C     -4.585920   -8.224180   65.915300
  H     -4.861530   -8.364970   64.862500
  H     -5.473400   -7.817050   66.378000
  C     -3.352990   -7.348750   66.000500
  H     -2.465700   -7.797020   65.529900
  H     -3.472500   -6.311880   65.608800
  H     -2.939480   -7.041230   67.043900
  S      1.152560  -10.837200   64.265900
  C      2.546650  -11.114900   65.083200
  C      2.381570  -11.824200   66.284700
  C      1.017770  -12.074300   66.589400
  C      0.235896  -11.459700   65.582600
  H      3.323540  -12.112000   66.828700
  C      0.420198  -12.687700   67.867200
  H      0.560049  -13.750100   68.030300
  H     -0.616953  -12.691500   67.788100
  C      0.968217  -11.956400   69.144000
  H      1.988620  -12.235900   69.208100
  H      0.468332  -12.373400   69.986800
  C      0.870622  -10.480700   69.188500
  H      1.451190   -9.991200   68.408100
  H      1.322010  -10.123500   70.136100
  H     -0.143477  -10.048100   69.119200
  H     -4.386480  -10.913300   63.943200
  H      3.496150  -10.863800   64.645800

 Total Charge           Charge          ....    0
 Multiplicity           Mult            ....    1
 Number of Electrons    NEL             ....  134
 Basis Dimension        Dim             ....  322

ORBITAL ENERGIES
----------------

  NO   OCC          E(Eh)            E(eV)
   0   2.0000     -88.967084     -2420.9174
   1   2.0000     -88.964161     -2420.8379
   2   2.0000     -10.324757      -280.9509
   3   2.0000     -10.321954      -280.8746
   4   2.0000     -10.310103      -280.5522
   5   2.0000     -10.308585      -280.5109
   6   2.0000     -10.306973      -280.4670
   7   2.0000     -10.301847      -280.3275
   8   2.0000     -10.298514      -280.2368
   9   2.0000     -10.293845      -280.1098
  10   2.0000     -10.290981      -280.0318
  11   2.0000     -10.288269      -279.9580
  12   2.0000     -10.286166      -279.9008
  13   2.0000     -10.281610      -279.7768
  14   2.0000     -10.279354      -279.7154
  15   2.0000     -10.274077      -279.5718
  16   2.0000      -8.084666      -219.9949
  17   2.0000      -8.079158      -219.8451
  18   2.0000      -6.042629      -164.4283
  19   2.0000      -6.038763      -164.3231
  20   2.0000      -6.037698      -164.2941
  21   2.0000      -6.035820      -164.2430
  22   2.0000      -6.033460      -164.1788
  23   2.0000      -6.030052      -164.0861
  24   2.0000      -1.015722       -27.6392
  25   2.0000      -0.987706       -26.8768
  26   2.0000      -0.916946       -24.9514
  27   2.0000      -0.913099       -24.8467
  28   2.0000      -0.869183       -23.6517
  29   2.0000      -0.855977       -23.2923
  30   2.0000      -0.839433       -22.8421
  31   2.0000      -0.809144       -22.0179
  32   2.0000      -0.788558       -21.4577
  33   2.0000      -0.771980       -21.0066
  34   2.0000      -0.706176       -19.2160
  35   2.0000      -0.704224       -19.1629
  36   2.0000      -0.692393       -18.8410
  37   2.0000      -0.655800       -17.8452
  38   2.0000      -0.644371       -17.5342
  39   2.0000      -0.616225       -16.7683
  40   2.0000      -0.598431       -16.2841
  41   2.0000      -0.575381       -15.6569
  42   2.0000      -0.551942       -15.0191
  43   2.0000      -0.548291       -14.9198
  44   2.0000      -0.546669       -14.8756
  45   2.0000      -0.536233       -14.5916
  46   2.0000      -0.521000       -14.1771
  47   2.0000      -0.507981       -13.8229
  48   2.0000      -0.503571       -13.7029
  49   2.0000      -0.495098       -13.4723
  50   2.0000      -0.488371       -13.2893
  51   2.0000      -0.478485       -13.0202
  52   2.0000      -0.471897       -12.8410
  53   2.0000      -0.469445       -12.7743
  54   2.0000      -0.463780       -12.6201
  55   2.0000      -0.450956       -12.2711
  56   2.0000      -0.438914       -11.9435
  57   2.0000      -0.434635       -11.8270
  58   2.0000      -0.427837       -11.6420
  59   2.0000      -0.423155       -11.5146
  60   2.0000      -0.421558       -11.4712
  61   2.0000      -0.416295       -11.3280
  62   2.0000      -0.412788       -11.2325
  63   2.0000      -0.342140        -9.3101
  64   2.0000      -0.335865        -9.1394
  65   2.0000      -0.323353        -8.7989
  66   2.0000      -0.288752        -7.8573
  67   0.0000       0.035832         0.9750
  68   0.0000       0.068294         1.8584
  69   0.0000       0.118042         3.2121
  70   0.0000       0.126151         3.4327
  71   0.0000       0.128522         3.4973

MULLIKEN ATOMIC CHARGES
-----------------------
   0 S :    0.108665
   1 C :   -0.101189
   2 C :   -0.067533
   3 C :    0.026505
   4 C :   -0.154309
   5 H :   -0.001784
   6 C :    0.046299
   7 H :    0.041273
   8 H :    0.036110
   9 C :   -0.030216
  10 H :    0.029609
  11 H :    0.024459
  12 C :   -0.102692
  13 H :    0.052323
  14 H :    0.034869
  15 H :    0.025283
  16 S :    0.149214
  17 C :   -0.090982
  18 C :   -0.082491
  19 C :   -0.004113
  20 C :   -0.210314
  21 H :    0.037054
  22 C :    0.118069
  23 H :    0.027026
  24 H :    0.001235
  25 C :   -0.056352
  26 H :    0.020223
  27 H :    0.020622
  28 C :   -0.057599
  29 H :    0.036598
  30 H :    0.030389
  31 H :    0.037704
  32 H :    0.008009
  33 H :    0.048034
Sum of atomic charges:    0.0000000

LOEWDIN ATOMIC CHARGES
----------------------
   0 S :    0.413534
   1 C :   -0.189816
   2 C :   -0.057626
   3 C :   -0.068942
   4 C :   -0.210214
   5 H :    0.026468
   6 C :   -0.035218
   7 H :    0.035683
   8 H :    0.039169
   9 C :   -0.039243
  10 H :    0.027470
  11 H :    0.021588
  12 C :   -0.084892
  13 H :    0.030060
  14 H :    0.027338
  15 H :    0.029900
  16 S :    0.479280
  17 C :   -0.222446
  18 C :   -0.083579
  19 C :   -0.044578
  20 C :   -0.212907
  21 H :    0.039702
  22 C :   -0.024175
  23 H :    0.035207
  24 H :    0.020062
  25 C :   -0.033849
  26 H :    0.020366
  27 H :    0.022046
  28 C :   -0.070627
  29 H :    0.026375
  30 H :    0.031499
  31 H :    0.023546
  32 H :    0.005680
  33 H :    0.023134

  Mayer bond orders larger than 0.100000
B(  0-S ,  1-C ) :   1.1387 B(  0-S ,  4-C ) :   1.1661 B(  1-C ,  2-C ) :   1.5783
B(  1-C , 32-H ) :   0.9878 B(  2-C ,  3-C ) :   1.2432 B(  2-C ,  6-C ) :   1.0261
B(  3-C ,  4-C ) :   1.5462 B(  3-C ,  5-H ) :   0.9919 B(  4-C , 20-C ) :   1.0464
B(  6-C ,  7-H ) :   0.9489 B(  6-C ,  8-H ) :   0.9322 B(  6-C ,  9-C ) :   1.0769
B(  9-C , 10-H ) :   0.9532 B(  9-C , 11-H ) :   0.9555 B(  9-C , 12-C ) :   1.0648
B( 12-C , 13-H ) :   0.9727 B( 12-C , 14-H ) :   0.9731 B( 12-C , 15-H ) :   0.9732
B( 16-S , 17-C ) :   1.2082 B( 16-S , 20-C ) :   1.1898 B( 17-C , 18-C ) :   1.5568
B( 17-C , 20-C ) :   0.1040 B( 17-C , 33-H ) :   0.9704 B( 18-C , 19-C ) :   1.2597
B( 18-C , 21-H ) :   0.9877 B( 19-C , 20-C ) :   1.5311 B( 19-C , 22-C ) :   1.0444
B( 22-C , 23-H ) :   0.9335 B( 22-C , 24-H ) :   0.9267 B( 22-C , 25-C ) :   1.0651
B( 25-C , 26-H ) :   0.9526 B( 25-C , 27-H ) :   0.9539 B( 25-C , 28-C ) :   1.0937
B( 28-C , 29-H ) :   0.9674 B( 28-C , 30-H ) :   0.9664 B( 28-C , 31-H ) :   0.9696

Dispersion correction           -0.015562787
FINAL SINGLE POINT ENERGY     -1339.874776097264

DIPOLE MOMENT
-------------
                                X             Y             Z
Electronic contribution:      6.33519     -11.61839     -20.82337
Nuclear contribution   :     -6.33442      11.82087      21.25662
                        -----------------------------------------
Total Dipole Moment    :      0.00078       0.20248       0.43325
                        -----------------------------------------
Magnitude (a.u.)       :      0.47822
Magnitude (Debye)      :      1.21555

Rotational constants in cm-1:     0.019347     0.009372     0.007808
Rotational constants in MHz :   580.018057   280.980044   234.081521

                             ****ORCA TERMINATED NORMALLY****
TOTAL RUN TIME: 0 days 0 hours 0 minutes 37 seconds 497 msec
