                         Program Version 4.2.1 -  RELEASE  -
|  1> ! wB97X-D3 SP def2-SVP
|  2> %pal
|  3> nprocs 16
|  4> end
|  5>
|  6> * xyz 0 1
|  7> S 	 68.3061 	 29.776 	 72.1515
|  8> C 	 68.0711 	 29.6854 	 70.3308
|  9> C 	 68.9293 	 28.6552 	 69.8457
| 10> C 	 69.7653 	 28.0277 	 70.7981
| 11> C 	 69.6307 	 28.5203 	 72.1129
| 12> H 	 70.5535 	 27.3204 	 70.5375
| 13> C 	 69.1882 	 28.3827 	 68.3853
| 14> H 	 70.2169 	 28.1789 	 68.112
| 15> H 	 68.956 	 29.2474 	 67.7811
| 16> C 	 68.344 	 27.2965 	 67.6854
| 17> H 	 67.3404 	 27.6428 	 67.5815
| 18> H 	 68.7523 	 27.1793 	 66.6519
| 19> C 	 68.2803 	 25.9408 	 68.418
| 20> H 	 69.3132 	 25.7727 	 68.7
| 21> H 	 67.6368 	 25.916 	 69.3389
| 22> H 	 67.9994 	 25.0948 	 67.7829
| 23> S 	 70.9572 	 29.6504 	 74.1418
| 24> C 	 71.8531 	 28.6095 	 75.215
| 25> C 	 71.8521 	 27.3145 	 74.8763
| 26> C 	 71.117 	 27.0333 	 73.7034
| 27> C 	 70.4232 	 28.1747 	 73.2423
| 28> H 	 72.3974 	 26.719 	 75.5359
| 29> C 	 70.9561 	 25.6337 	 73.1365
| 30> H 	 70.2177 	 25.6265 	 72.3239
| 31> H 	 70.4601 	 25.0325 	 73.9221
| 32> C 	 72.2388 	 24.8921 	 72.7637
| 33> H 	 71.9075 	 23.9846 	 72.2816
| 34> H 	 72.8026 	 24.5542 	 73.684
| 35> C 	 73.1554 	 25.6137 	 71.841
| 36> H 	 73.8615 	 24.9219 	 71.3923
| 37> H 	 73.5798 	 26.5011 	 72.2741
| 38> H 	 72.5514 	 25.8849 	 70.9926
| 39> H 	 67.4601 	 30.2941 	 69.7047
| 40> H 	 72.1847 	 29.0452 	 76.148
| 41> *
| 42>
| 43>                          ****END OF INPUT****

CARTESIAN COORDINATES (ANGSTROEM)
---------------------------------
  S     68.306100   29.776000   72.151500
  C     68.071100   29.685400   70.330800
  C     68.929300   28.655200   69.845700
  C     69.765300   28.027700   70.798100
  C     69.630700   28.520300   72.112900
  H     70.553500   27.320400   70.537500
  C     69.188200   28.382700   68.385300
  H     70.216900   28.178900   68.112000
  H     68.956000   29.247400   67.781100
  C     68.344000   27.296500   67.685400
  H     67.340400   27.642800   67.581500
  H     68.752300   27.179300   66.651900
  C     68.280300   25.940800   68.418000
  H     69.313200   25.772700   68.700000
  H     67.636800   25.916000   69.338900
  H     67.999400   25.094800   67.782900
  S     70.957200   29.650400   74.141800
  C     71.853100   28.609500   75.215000
  C     71.852100   27.314500   74.876300
  C     71.117000   27.033300   73.703400
  C     70.423200   28.174700   73.242300
  H     72.397400   26.719000   75.535900
  C     70.956100   25.633700   73.136500
  H     70.217700   25.626500   72.323900
  H     70.460100   25.032500   73.922100
  C     72.238800   24.892100   72.763700
  H     71.907500   23.984600   72.281600
  H     72.802600   24.554200   73.684000
  C     73.155400   25.613700   71.841000
  H     73.861500   24.921900   71.392300
  H     73.579800   26.501100   72.274100
  H     72.551400   25.884900   70.992600
  H     67.460100   30.294100   69.704700
  H     72.184700   29.045200   76.148000

 Total Charge           Charge          ....    0
 Multiplicity           Mult            ....    1
 Number of Electrons    NEL             ....  134
 Basis Dimension        Dim             ....  322

ORBITAL ENERGIES
----------------

  NO   OCC          E(Eh)            E(eV)
   0   2.0000     -88.970728     -2421.0166
   1   2.0000     -88.960915     -2420.7496
   2   2.0000     -10.338333      -281.3203
   3   2.0000     -10.331590      -281.1369
   4   2.0000     -10.326556      -280.9999
   5   2.0000     -10.313109      -280.6340
   6   2.0000     -10.312598      -280.6201
   7   2.0000     -10.306870      -280.4642
   8   2.0000     -10.297046      -280.1969
   9   2.0000     -10.295256      -280.1482
  10   2.0000     -10.288460      -279.9632
  11   2.0000     -10.288115      -279.9539
  12   2.0000     -10.287718      -279.9430
  13   2.0000     -10.285527      -279.8834
  14   2.0000     -10.277556      -279.6665
  15   2.0000     -10.271489      -279.5014
  16   2.0000      -8.082507      -219.9362
  17   2.0000      -8.075730      -219.7518
  18   2.0000      -6.041319      -164.3927
  19   2.0000      -6.037394      -164.2859
  20   2.0000      -6.034093      -164.1960
  21   2.0000      -6.033123      -164.1696
  22   2.0000      -6.030381      -164.0950
  23   2.0000      -6.026461      -163.9883
  24   2.0000      -1.001551       -27.2536
  25   2.0000      -0.972233       -26.4558
  26   2.0000      -0.915893       -24.9227
  27   2.0000      -0.908837       -24.7307
  28   2.0000      -0.870630       -23.6910
  29   2.0000      -0.854667       -23.2567
  30   2.0000      -0.839006       -22.8305
  31   2.0000      -0.814381       -22.1604
  32   2.0000      -0.787794       -21.4370
  33   2.0000      -0.773735       -21.0544
  34   2.0000      -0.714534       -19.4434
  35   2.0000      -0.698438       -19.0055
  36   2.0000      -0.690771       -18.7968
  37   2.0000      -0.658615       -17.9218
  38   2.0000      -0.636530       -17.3209
  39   2.0000      -0.618363       -16.8265
  40   2.0000      -0.599250       -16.3064
  41   2.0000      -0.573793       -15.6137
  42   2.0000      -0.558676       -15.2024
  43   2.0000      -0.556864       -15.1530
  44   2.0000      -0.546319       -14.8661
  45   2.0000      -0.537836       -14.6352
  46   2.0000      -0.516053       -14.0425
  47   2.0000      -0.512331       -13.9412
  48   2.0000      -0.502955       -13.6861
  49   2.0000      -0.496949       -13.5227
  50   2.0000      -0.490464       -13.3462
  51   2.0000      -0.477156       -12.9841
  52   2.0000      -0.473950       -12.8968
  53   2.0000      -0.466021       -12.6811
  54   2.0000      -0.453558       -12.3419
  55   2.0000      -0.448216       -12.1966
  56   2.0000      -0.440786       -11.9944
  57   2.0000      -0.438033       -11.9195
  58   2.0000      -0.432685       -11.7740
  59   2.0000      -0.420694       -11.4477
  60   2.0000      -0.416619       -11.3368
  61   2.0000      -0.416085       -11.3223
  62   2.0000      -0.410266       -11.1639
  63   2.0000      -0.351356        -9.5609
  64   2.0000      -0.332723        -9.0538
  65   2.0000      -0.330990        -9.0067
  66   2.0000      -0.282991        -7.7006
  67   0.0000       0.011878         0.3232
  68   0.0000       0.067357         1.8329
  69   0.0000       0.101678         2.7668
  70   0.0000       0.117978         3.2103
  71   0.0000       0.119194         3.2434

MULLIKEN ATOMIC CHARGES
-----------------------
   0 S :    0.093976
   1 C :   -0.107332
   2 C :   -0.054498
   3 C :    0.018429
   4 C :   -0.126027
   5 H :    0.013561
   6 C :    0.036459
   7 H :    0.028376
   8 H :    0.015834
   9 C :   -0.078597
  10 H :    0.019376
  11 H :    0.034052
  12 C :   -0.064120
  13 H :    0.009475
  14 H :    0.055043
  15 H :    0.036533
  16 S :    0.076777
  17 C :   -0.089292
  18 C :   -0.003854
  19 C :   -0.015787
  20 C :   -0.151798
  21 H :   -0.003620
  22 C :    0.049924
  23 H :    0.022391
  24 H :    0.039943
  25 C :   -0.092439
  26 H :    0.023538
  27 H :    0.034412
  28 C :   -0.008794
  29 H :    0.029870
  30 H :    0.048909
  31 H :    0.006585
  32 H :    0.044892
  33 H :    0.057802
Sum of atomic charges:    0.0000000

LOEWDIN ATOMIC CHARGES
----------------------
   0 S :    0.349148
   1 C :   -0.172299
   2 C :   -0.057469
   3 C :   -0.063500
   4 C :   -0.171657
   5 H :    0.030754
   6 C :   -0.036954
   7 H :    0.029163
   8 H :    0.031442
   9 C :   -0.038790
  10 H :    0.014354
  11 H :    0.029084
  12 C :   -0.074516
  13 H :    0.017367
  14 H :    0.034395
  15 H :    0.026694
  16 S :    0.378155
  17 C :   -0.169056
  18 C :   -0.069740
  19 C :   -0.046827
  20 C :   -0.176193
  21 H :    0.027718
  22 C :   -0.035231
  23 H :    0.029844
  24 H :    0.040576
  25 C :   -0.045496
  26 H :    0.025744
  27 H :    0.025625
  28 C :   -0.062728
  29 H :    0.029846
  30 H :    0.027423
  31 H :    0.021140
  32 H :    0.026236
  33 H :    0.025748

  Mayer bond orders larger than 0.100000
B(  0-S ,  1-C ) :   1.1122 B(  0-S ,  4-C ) :   1.1263 B(  1-C ,  2-C ) :   1.5889
B(  1-C ,  4-C ) :   0.1104 B(  1-C , 32-H ) :   0.9733 B(  2-C ,  3-C ) :   1.2538
B(  2-C ,  6-C ) :   1.0234 B(  3-C ,  4-C ) :   1.5431 B(  3-C ,  5-H ) :   0.9879
B(  4-C , 20-C ) :   1.0982 B(  6-C ,  7-H ) :   0.9501 B(  6-C ,  8-H ) :   0.9409
B(  6-C ,  9-C ) :   1.0758 B(  9-C , 10-H ) :   0.9587 B(  9-C , 11-H ) :   0.9552
B(  9-C , 12-C ) :   1.0759 B( 12-C , 13-H ) :   0.9764 B( 12-C , 14-H ) :   0.9711
B( 12-C , 15-H ) :   0.9745 B( 16-S , 17-C ) :   1.1483 B( 16-S , 20-C ) :   1.1259
B( 17-C , 18-C ) :   1.6402 B( 17-C , 33-H ) :   0.9629 B( 18-C , 19-C ) :   1.1895
B( 18-C , 21-H ) :   1.0070 B( 19-C , 20-C ) :   1.5764 B( 19-C , 22-C ) :   1.0428
B( 22-C , 23-H ) :   0.9386 B( 22-C , 24-H ) :   0.9326 B( 22-C , 25-C ) :   1.0778
B( 25-C , 26-H ) :   0.9509 B( 25-C , 27-H ) :   0.9502 B( 25-C , 28-C ) :   1.0906
B( 28-C , 29-H ) :   0.9661 B( 28-C , 30-H ) :   0.9701 B( 28-C , 31-H ) :   0.9680

Dispersion correction           -0.015021902
FINAL SINGLE POINT ENERGY     -1339.867962850454

DIPOLE MOMENT
-------------
                                X             Y             Z
Electronic contribution:     -5.32969      22.12497      18.64817
Nuclear contribution   :      5.66754     -22.68029     -18.95147
                        -----------------------------------------
Total Dipole Moment    :      0.33784      -0.55533      -0.30329
                        -----------------------------------------
Magnitude (a.u.)       :      0.71730
Magnitude (Debye)      :      1.82322

Rotational constants in cm-1:     0.018149     0.009883     0.006949
Rotational constants in MHz :   544.083943   296.272438   208.320814

                             ****ORCA TERMINATED NORMALLY****
TOTAL RUN TIME: 0 days 0 hours 0 minutes 31 seconds 308 msec
