                         Program Version 4.2.1 -  RELEASE  -
|  1> ! wB97X-D3 SP def2-SVP
|  2> %pal
|  3> nprocs 16
|  4> end
|  5>
|  6> * xyz 0 1
|  7> S 	 0.931967 	 -4.77305 	 74.0402
|  8> C 	 0.682831 	 -5.90888 	 75.3677
|  9> C 	 1.45421 	 -5.57283 	 76.4425
| 10> C 	 1.99675 	 -4.24268 	 76.3657
| 11> C 	 1.71241 	 -3.55938 	 75.1802
| 12> H 	 2.62747 	 -3.71582 	 77.0163
| 13> C 	 1.72697 	 -6.51807 	 77.6641
| 14> H 	 2.73751 	 -6.35445 	 77.9567
| 15> H 	 1.616 	 -7.44863 	 77.2618
| 16> C 	 1.04266 	 -6.1696 	 78.9746
| 17> H 	 1.38075 	 -6.72938 	 79.8154
| 18> H 	 1.17558 	 -5.16244 	 79.3095
| 19> C 	 -0.499633 	 -6.36562 	 78.8847
| 20> H 	 -1.01042 	 -5.92384 	 79.7364
| 21> H 	 -1.03549 	 -5.88256 	 78.1408
| 22> H 	 -0.820203 	 -7.41635 	 78.9538
| 23> S 	 3.28818 	 -2.45159 	 73.1836
| 24> C 	 3.87563 	 -0.822872 	 73.295
| 25> C 	 3.42739 	 -0.193929 	 74.4293
| 26> C 	 2.46857 	 -1.0557 	 75.1625
| 27> C 	 2.3407 	 -2.33794 	 74.6368
| 28> H 	 3.66438 	 0.800486 	 74.6069
| 29> C 	 1.8772 	 -0.557817 	 76.4308
| 30> H 	 2.37767 	 0.435524 	 76.6577
| 31> H 	 2.25666 	 -1.19338 	 77.2519
| 32> C 	 0.353626 	 -0.413998 	 76.4951
| 33> H 	 0.113211 	 -0.0313391 	 77.5307
| 34> H 	 -0.00425689 	 -1.46176 	 76.4526
| 35> C 	 -0.248603 	 0.417164 	 75.4164
| 36> H 	 0.0599265 	 0.0308607 	 74.4407
| 37> H 	 0.0888885 	 1.49535 	 75.5132
| 38> H 	 -1.34905 	 0.430781 	 75.5223
| 39> H 	 0.135551 	 -6.85835 	 75.3532
| 40> H 	 4.43203 	 -0.293997 	 72.5317
| 41> *
| 42>
| 43>                          ****END OF INPUT****

CARTESIAN COORDINATES (ANGSTROEM)
---------------------------------
  S      0.931967   -4.773050   74.040200
  C      0.682831   -5.908880   75.367700
  C      1.454210   -5.572830   76.442500
  C      1.996750   -4.242680   76.365700
  C      1.712410   -3.559380   75.180200
  H      2.627470   -3.715820   77.016300
  C      1.726970   -6.518070   77.664100
  H      2.737510   -6.354450   77.956700
  H      1.616000   -7.448630   77.261800
  C      1.042660   -6.169600   78.974600
  H      1.380750   -6.729380   79.815400
  H      1.175580   -5.162440   79.309500
  C     -0.499633   -6.365620   78.884700
  H     -1.010420   -5.923840   79.736400
  H     -1.035490   -5.882560   78.140800
  H     -0.820203   -7.416350   78.953800
  S      3.288180   -2.451590   73.183600
  C      3.875630   -0.822872   73.295000
  C      3.427390   -0.193929   74.429300
  C      2.468570   -1.055700   75.162500
  C      2.340700   -2.337940   74.636800
  H      3.664380    0.800486   74.606900
  C      1.877200   -0.557817   76.430800
  H      2.377670    0.435524   76.657700
  H      2.256660   -1.193380   77.251900
  C      0.353626   -0.413998   76.495100
  H      0.113211   -0.031339   77.530700
  H     -0.004257   -1.461760   76.452600
  C     -0.248603    0.417164   75.416400
  H      0.059927    0.030861   74.440700
  H      0.088888    1.495350   75.513200
  H     -1.349050    0.430781   75.522300
  H      0.135551   -6.858350   75.353200
  H      4.432030   -0.293997   72.531700

 Total Charge           Charge          ....    0
 Multiplicity           Mult            ....    1
 Number of Electrons    NEL             ....  134
 Basis Dimension        Dim             ....  322

ORBITAL ENERGIES
----------------

  NO   OCC          E(Eh)            E(eV)
   0   2.0000     -88.965155     -2420.8649
   1   2.0000     -88.964723     -2420.8532
   2   2.0000     -10.341653      -281.4107
   3   2.0000     -10.330027      -281.0943
   4   2.0000     -10.319383      -280.8047
   5   2.0000     -10.316752      -280.7331
   6   2.0000     -10.306165      -280.4450
   7   2.0000     -10.305959      -280.4394
   8   2.0000     -10.300163      -280.2817
   9   2.0000     -10.293238      -280.0933
  10   2.0000     -10.290501      -280.0188
  11   2.0000     -10.288676      -279.9691
  12   2.0000     -10.287137      -279.9272
  13   2.0000     -10.284495      -279.8553
  14   2.0000     -10.276554      -279.6392
  15   2.0000     -10.267949      -279.4051
  16   2.0000      -8.079964      -219.8670
  17   2.0000      -8.078522      -219.8278
  18   2.0000      -6.038571      -164.3179
  19   2.0000      -6.037241      -164.2817
  20   2.0000      -6.034303      -164.2017
  21   2.0000      -6.033435      -164.1781
  22   2.0000      -6.030662      -164.1027
  23   2.0000      -6.028901      -164.0547
  24   2.0000      -1.003030       -27.2938
  25   2.0000      -0.980569       -26.6826
  26   2.0000      -0.910494       -24.7758
  27   2.0000      -0.910353       -24.7720
  28   2.0000      -0.871188       -23.7062
  29   2.0000      -0.847644       -23.0656
  30   2.0000      -0.840442       -22.8696
  31   2.0000      -0.820351       -22.3229
  32   2.0000      -0.786543       -21.4029
  33   2.0000      -0.772711       -21.0265
  34   2.0000      -0.715615       -19.4729
  35   2.0000      -0.702883       -19.1264
  36   2.0000      -0.681092       -18.5334
  37   2.0000      -0.666509       -18.1366
  38   2.0000      -0.644704       -17.5433
  39   2.0000      -0.617356       -16.7991
  40   2.0000      -0.586756       -15.9664
  41   2.0000      -0.569204       -15.4888
  42   2.0000      -0.554312       -15.0836
  43   2.0000      -0.550201       -14.9717
  44   2.0000      -0.549007       -14.9392
  45   2.0000      -0.543377       -14.7860
  46   2.0000      -0.525566       -14.3014
  47   2.0000      -0.510704       -13.8970
  48   2.0000      -0.509350       -13.8601
  49   2.0000      -0.492901       -13.4125
  50   2.0000      -0.485160       -13.2019
  51   2.0000      -0.481602       -13.1050
  52   2.0000      -0.473121       -12.8743
  53   2.0000      -0.467036       -12.7087
  54   2.0000      -0.460427       -12.5289
  55   2.0000      -0.445063       -12.1108
  56   2.0000      -0.439442       -11.9578
  57   2.0000      -0.436765       -11.8850
  58   2.0000      -0.431223       -11.7342
  59   2.0000      -0.420578       -11.4445
  60   2.0000      -0.415620       -11.3096
  61   2.0000      -0.414219       -11.2715
  62   2.0000      -0.404437       -11.0053
  63   2.0000      -0.353069        -9.6075
  64   2.0000      -0.329444        -8.9646
  65   2.0000      -0.325865        -8.8672
  66   2.0000      -0.294698        -8.0191
  67   0.0000       0.024267         0.6603
  68   0.0000       0.063937         1.7398
  69   0.0000       0.100530         2.7356
  70   0.0000       0.119150         3.2422
  71   0.0000       0.131191         3.5699

MULLIKEN ATOMIC CHARGES
-----------------------
   0 S :    0.078758
   1 C :   -0.106654
   2 C :   -0.113518
   3 C :    0.062130
   4 C :   -0.152531
   5 H :   -0.002817
   6 C :    0.146769
   7 H :    0.018465
   8 H :    0.001425
   9 C :   -0.030514
  10 H :    0.023607
  11 H :    0.020581
  12 C :   -0.062811
  13 H :    0.010898
  14 H :    0.021318
  15 H :    0.026734
  16 S :    0.107006
  17 C :   -0.089404
  18 C :   -0.000105
  19 C :   -0.094813
  20 C :   -0.129129
  21 H :   -0.000657
  22 C :    0.038466
  23 H :    0.014312
  24 H :    0.032951
  25 C :   -0.076441
  26 H :    0.031079
  27 H :    0.039518
  28 C :   -0.051161
  29 H :    0.049447
  30 H :    0.028858
  31 H :    0.041944
  32 H :    0.056588
  33 H :    0.059700
Sum of atomic charges:    0.0000000

LOEWDIN ATOMIC CHARGES
----------------------
   0 S :    0.355760
   1 C :   -0.187727
   2 C :   -0.059632
   3 C :   -0.046019
   4 C :   -0.162650
   5 H :    0.023487
   6 C :   -0.013645
   7 H :    0.033191
   8 H :    0.016642
   9 C :   -0.030846
  10 H :    0.024330
  11 H :    0.024423
  12 C :   -0.072675
  13 H :    0.025018
  14 H :    0.014714
  15 H :    0.024614
  16 S :    0.415190
  17 C :   -0.185900
  18 C :   -0.062899
  19 C :   -0.059702
  20 C :   -0.210761
  21 H :    0.020798
  22 C :   -0.045002
  23 H :    0.030246
  24 H :    0.032898
  25 C :   -0.048163
  26 H :    0.028075
  27 H :    0.027801
  28 C :   -0.069294
  29 H :    0.029081
  30 H :    0.028599
  31 H :    0.030637
  32 H :    0.036787
  33 H :    0.032623

  Mayer bond orders larger than 0.100000
B(  0-S ,  1-C ) :   1.1251 B(  0-S ,  4-C ) :   1.1153 B(  1-C ,  2-C ) :   1.6410
B(  1-C , 32-H ) :   0.9630 B(  2-C ,  3-C ) :   1.2075 B(  2-C ,  6-C ) :   1.0141
B(  3-C ,  4-C ) :   1.5957 B(  3-C ,  5-H ) :   0.9975 B(  4-C , 20-C ) :   1.0463
B(  6-C ,  7-H ) :   0.9351 B(  6-C ,  8-H ) :   0.9460 B(  6-C ,  9-C ) :   1.0650
B(  9-C , 10-H ) :   0.9548 B(  9-C , 11-H ) :   0.9563 B(  9-C , 12-C ) :   1.0732
B( 12-C , 13-H ) :   0.9711 B( 12-C , 14-H ) :   0.9780 B( 12-C , 15-H ) :   0.9787
B( 16-S , 17-C ) :   1.1583 B( 16-S , 20-C ) :   1.1293 B( 17-C , 18-C ) :   1.6208
B( 17-C , 33-H ) :   0.9646 B( 18-C , 19-C ) :   1.2279 B( 18-C , 21-H ) :   0.9989
B( 19-C , 20-C ) :   1.5967 B( 19-C , 22-C ) :   1.0459 B( 22-C , 23-H ) :   0.9339
B( 22-C , 24-H ) :   0.9330 B( 22-C , 25-C ) :   1.0689 B( 25-C , 26-H ) :   0.9522
B( 25-C , 27-H ) :   0.9510 B( 25-C , 28-C ) :   1.0842 B( 28-C , 29-H ) :   0.9688
B( 28-C , 30-H ) :   0.9721 B( 28-C , 31-H ) :   0.9716

Dispersion correction           -0.014722630
FINAL SINGLE POINT ENERGY     -1339.860189064407

DIPOLE MOMENT
-------------
                                X             Y             Z
Electronic contribution:     11.24773      -2.53304     -23.11604
Nuclear contribution   :    -11.08703       2.61159      23.79917
                        -----------------------------------------
Total Dipole Moment    :      0.16070       0.07855       0.68312
                        -----------------------------------------
Magnitude (a.u.)       :      0.70615
Magnitude (Debye)      :      1.79490

Rotational constants in cm-1:     0.020379     0.008437     0.007046
Rotational constants in MHz :   610.949338   252.921740   211.243910

                             ****ORCA TERMINATED NORMALLY****
TOTAL RUN TIME: 0 days 0 hours 0 minutes 35 seconds 277 msec
