                         Program Version 4.2.1 -  RELEASE  -
|  1> ! wB97X-D3 SP def2-SVP
|  2> %pal
|  3> nprocs 16
|  4> end
|  5>
|  6> * xyz 0 1
|  7> S 	 52.1191 	 1.58017 	 81.2305
|  8> C 	 51.4864 	 0.490065 	 82.4357
|  9> C 	 52.2956 	 0.565217 	 83.5771
| 10> C 	 53.5038 	 1.25717 	 83.4164
| 11> C 	 53.6535 	 1.69075 	 82.0756
| 12> H 	 54.298 	 1.38662 	 84.1327
| 13> C 	 51.9862 	 -0.102792 	 84.8874
| 14> H 	 52.8482 	 -0.0432519 	 85.5474
| 15> H 	 51.8514 	 -1.2393 	 84.8035
| 16> C 	 50.7224 	 0.488628 	 85.5071
| 17> H 	 50.8206 	 1.56351 	 85.5184
| 18> H 	 49.8594 	 0.218106 	 84.9092
| 19> C 	 50.4261 	 -0.0634461 	 86.9695
| 20> H 	 51.2342 	 0.153292 	 87.7059
| 21> H 	 49.4988 	 0.328112 	 87.3435
| 22> H 	 50.4074 	 -1.13906 	 86.92
| 23> S 	 54.2362 	 4.34135 	 81.231
| 24> C 	 55.9487 	 4.77755 	 81.1563
| 25> C 	 56.8034 	 3.71085 	 81.5305
| 26> C 	 56.1226 	 2.48917 	 81.9506
| 27> C 	 54.723 	 2.65638 	 81.7136
| 28> H 	 57.81 	 3.94406 	 81.4023
| 29> C 	 56.7796 	 1.22675 	 82.4405
| 30> H 	 56.399 	 0.918317 	 83.469
| 31> H 	 57.7801 	 1.47221 	 82.5251
| 32> C 	 56.6313 	 0.0288027 	 81.3907
| 33> H 	 57.1091 	 0.439753 	 80.5235
| 34> H 	 55.6495 	 -0.163782 	 81.014
| 35> C 	 57.3195 	 -1.24911 	 81.7275
| 36> H 	 56.8704 	 -1.90885 	 82.4654
| 37> H 	 58.4257 	 -1.15992 	 81.915
| 38> H 	 57.3602 	 -1.77691 	 80.7492
| 39> H 	 50.5205 	 -0.0281243 	 82.4044
| 40> H 	 56.2855 	 5.72802 	 80.8679
| 41> *
| 42>
| 43>                          ****END OF INPUT****

CARTESIAN COORDINATES (ANGSTROEM)
---------------------------------
  S     52.119100    1.580170   81.230500
  C     51.486400    0.490065   82.435700
  C     52.295600    0.565217   83.577100
  C     53.503800    1.257170   83.416400
  C     53.653500    1.690750   82.075600
  H     54.298000    1.386620   84.132700
  C     51.986200   -0.102792   84.887400
  H     52.848200   -0.043252   85.547400
  H     51.851400   -1.239300   84.803500
  C     50.722400    0.488628   85.507100
  H     50.820600    1.563510   85.518400
  H     49.859400    0.218106   84.909200
  C     50.426100   -0.063446   86.969500
  H     51.234200    0.153292   87.705900
  H     49.498800    0.328112   87.343500
  H     50.407400   -1.139060   86.920000
  S     54.236200    4.341350   81.231000
  C     55.948700    4.777550   81.156300
  C     56.803400    3.710850   81.530500
  C     56.122600    2.489170   81.950600
  C     54.723000    2.656380   81.713600
  H     57.810000    3.944060   81.402300
  C     56.779600    1.226750   82.440500
  H     56.399000    0.918317   83.469000
  H     57.780100    1.472210   82.525100
  C     56.631300    0.028803   81.390700
  H     57.109100    0.439753   80.523500
  H     55.649500   -0.163782   81.014000
  C     57.319500   -1.249110   81.727500
  H     56.870400   -1.908850   82.465400
  H     58.425700   -1.159920   81.915000
  H     57.360200   -1.776910   80.749200
  H     50.520500   -0.028124   82.404400
  H     56.285500    5.728020   80.867900

 Total Charge           Charge          ....    0
 Multiplicity           Mult            ....    1
 Number of Electrons    NEL             ....  134
 Basis Dimension        Dim             ....  322

ORBITAL ENERGIES
----------------

  NO   OCC          E(Eh)            E(eV)
   0   2.0000     -88.971638     -2421.0413
   1   2.0000     -88.968362     -2420.9522
   2   2.0000     -10.334495      -281.2159
   3   2.0000     -10.331760      -281.1415
   4   2.0000     -10.317132      -280.7434
   5   2.0000     -10.316102      -280.7154
   6   2.0000     -10.311764      -280.5974
   7   2.0000     -10.299980      -280.2767
   8   2.0000     -10.297056      -280.1971
   9   2.0000     -10.296327      -280.1773
  10   2.0000     -10.295539      -280.1559
  11   2.0000     -10.293480      -280.0998
  12   2.0000     -10.286957      -279.9223
  13   2.0000     -10.281524      -279.7745
  14   2.0000     -10.279949      -279.7316
  15   2.0000     -10.278791      -279.7001
  16   2.0000      -8.085877      -220.0279
  17   2.0000      -8.081415      -219.9065
  18   2.0000      -6.044333      -164.4746
  19   2.0000      -6.040501      -164.3704
  20   2.0000      -6.039980      -164.3562
  21   2.0000      -6.036684      -164.2665
  22   2.0000      -6.036282      -164.2556
  23   2.0000      -6.032115      -164.1422
  24   2.0000      -1.000835       -27.2341
  25   2.0000      -0.971476       -26.4352
  26   2.0000      -0.908660       -24.7259
  27   2.0000      -0.904912       -24.6239
  28   2.0000      -0.859956       -23.4006
  29   2.0000      -0.852981       -23.2108
  30   2.0000      -0.847349       -23.0575
  31   2.0000      -0.807594       -21.9757
  32   2.0000      -0.781281       -21.2597
  33   2.0000      -0.766373       -20.8541
  34   2.0000      -0.707634       -19.2557
  35   2.0000      -0.701979       -19.1018
  36   2.0000      -0.688500       -18.7350
  37   2.0000      -0.660871       -17.9832
  38   2.0000      -0.640424       -17.4268
  39   2.0000      -0.615139       -16.7388
  40   2.0000      -0.588191       -16.0055
  41   2.0000      -0.567377       -15.4391
  42   2.0000      -0.563907       -15.3447
  43   2.0000      -0.555028       -15.1031
  44   2.0000      -0.526384       -14.3236
  45   2.0000      -0.520643       -14.1674
  46   2.0000      -0.518542       -14.1103
  47   2.0000      -0.512112       -13.9353
  48   2.0000      -0.500441       -13.6177
  49   2.0000      -0.499818       -13.6007
  50   2.0000      -0.489405       -13.3174
  51   2.0000      -0.482015       -13.1163
  52   2.0000      -0.468123       -12.7383
  53   2.0000      -0.459808       -12.5120
  54   2.0000      -0.455577       -12.3969
  55   2.0000      -0.449260       -12.2250
  56   2.0000      -0.444743       -12.1021
  57   2.0000      -0.441613       -12.0169
  58   2.0000      -0.432057       -11.7569
  59   2.0000      -0.423120       -11.5137
  60   2.0000      -0.420338       -11.4380
  61   2.0000      -0.415056       -11.2943
  62   2.0000      -0.414514       -11.2795
  63   2.0000      -0.343925        -9.3587
  64   2.0000      -0.329972        -8.9790
  65   2.0000      -0.327870        -8.9218
  66   2.0000      -0.282659        -7.6915
  67   0.0000       0.019650         0.5347
  68   0.0000       0.058634         1.5955
  69   0.0000       0.103419         2.8142
  70   0.0000       0.120011         3.2657
  71   0.0000       0.123814         3.3692

MULLIKEN ATOMIC CHARGES
-----------------------
   0 S :    0.111754
   1 C :   -0.112591
   2 C :   -0.075305
   3 C :    0.024613
   4 C :   -0.151476
   5 H :    0.020158
   6 C :    0.037224
   7 H :    0.012786
   8 H :    0.040700
   9 C :   -0.087987
  10 H :    0.035603
  11 H :    0.029971
  12 C :   -0.042717
  13 H :    0.033211
  14 H :    0.036616
  15 H :    0.021304
  16 S :    0.099246
  17 C :   -0.094163
  18 C :   -0.012950
  19 C :   -0.060065
  20 C :   -0.144174
  21 H :   -0.001525
  22 C :    0.111950
  23 H :    0.038324
  24 H :   -0.002799
  25 C :   -0.063822
  26 H :    0.015450
  27 H :    0.039029
  28 C :   -0.057483
  29 H :    0.044190
  30 H :    0.027572
  31 H :    0.030741
  32 H :    0.058630
  33 H :    0.037986
Sum of atomic charges:   -0.0000000

LOEWDIN ATOMIC CHARGES
----------------------
   0 S :    0.417726
   1 C :   -0.204255
   2 C :   -0.064292
   3 C :   -0.051083
   4 C :   -0.197781
   5 H :    0.031410
   6 C :   -0.039900
   7 H :    0.024235
   8 H :    0.037893
   9 C :   -0.034662
  10 H :    0.023008
  11 H :    0.021988
  12 C :   -0.065819
  13 H :    0.027104
  14 H :    0.023068
  15 H :    0.020429
  16 S :    0.369791
  17 C :   -0.177070
  18 C :   -0.061585
  19 C :   -0.053839
  20 C :   -0.173716
  21 H :    0.020964
  22 C :   -0.026830
  23 H :    0.034479
  24 H :    0.019881
  25 C :   -0.035811
  26 H :    0.025531
  27 H :    0.026375
  28 C :   -0.075252
  29 H :    0.023648
  30 H :    0.028492
  31 H :    0.035748
  32 H :    0.034039
  33 H :    0.016085

  Mayer bond orders larger than 0.100000
B(  0-S ,  1-C ) :   1.1485 B(  0-S ,  4-C ) :   1.1718 B(  1-C ,  2-C ) :   1.5471
B(  1-C ,  4-C ) :   0.1078 B(  1-C , 32-H ) :   0.9707 B(  2-C ,  3-C ) :   1.3021
B(  2-C ,  6-C ) :   1.0286 B(  3-C ,  4-C ) :   1.4910 B(  3-C ,  5-H ) :   0.9925
B(  4-C , 20-C ) :   1.0557 B(  6-C ,  7-H ) :   0.9489 B(  6-C ,  8-H ) :   0.9380
B(  6-C ,  9-C ) :   1.0502 B(  9-C , 10-H ) :   0.9610 B(  9-C , 11-H ) :   0.9575
B(  9-C , 12-C ) :   1.0764 B( 12-C , 13-H ) :   0.9776 B( 12-C , 14-H ) :   0.9771
B( 12-C , 15-H ) :   0.9742 B( 16-S , 17-C ) :   1.1371 B( 16-S , 20-C ) :   1.1381
B( 17-C , 18-C ) :   1.6318 B( 17-C , 33-H ) :   0.9722 B( 18-C , 19-C ) :   1.2112
B( 18-C , 21-H ) :   0.9969 B( 19-C , 20-C ) :   1.5832 B( 19-C , 22-C ) :   1.0535
B( 22-C , 23-H ) :   0.9311 B( 22-C , 24-H ) :   0.9235 B( 22-C , 25-C ) :   1.0480
B( 25-C , 26-H ) :   0.9494 B( 25-C , 27-H ) :   0.9584 B( 25-C , 28-C ) :   1.0987
B( 28-C , 29-H ) :   0.9747 B( 28-C , 30-H ) :   0.9695 B( 28-C , 31-H ) :   0.9686

Dispersion correction           -0.014076592
FINAL SINGLE POINT ENERGY     -1339.858450690958

DIPOLE MOMENT
-------------
                                X             Y             Z
Electronic contribution:     -4.06140      19.55114     -17.19675
Nuclear contribution   :      4.28797     -19.86540      17.60512
                        -----------------------------------------
Total Dipole Moment    :      0.22656      -0.31426       0.40838
                        -----------------------------------------
Magnitude (a.u.)       :      0.56291
Magnitude (Debye)      :      1.43080

Rotational constants in cm-1:     0.017911     0.008185     0.006788
Rotational constants in MHz :   536.946836   245.379568   203.492374

                             ****ORCA TERMINATED NORMALLY****
TOTAL RUN TIME: 0 days 0 hours 0 minutes 28 seconds 566 msec
