                         Program Version 4.2.1 -  RELEASE  -
|  1> ! wB97X-D3 SP def2-SVP
|  2> %pal
|  3> nprocs 16
|  4> end
|  5>
|  6> * xyz 0 1
|  7> S 	 5.24481 	 -11.8124 	 60.2753
|  8> C 	 4.78815 	 -11.2429 	 61.8594
|  9> C 	 3.69976 	 -12.0015 	 62.2731
| 10> C 	 3.50087 	 -13.2097 	 61.4993
| 11> C 	 4.15878 	 -13.1903 	 60.3101
| 12> H 	 2.7734 	 -13.9241 	 61.7297
| 13> C 	 2.78311 	 -11.7184 	 63.4312
| 14> H 	 1.83994 	 -11.3457 	 63.1537
| 15> H 	 3.22433 	 -10.8541 	 63.8905
| 16> C 	 2.68248 	 -12.8733 	 64.5343
| 17> H 	 2.44851 	 -13.7281 	 63.9118
| 18> H 	 3.70843 	 -13.0455 	 64.7975
| 19> C 	 1.78384 	 -12.5085 	 65.683
| 20> H 	 0.746299 	 -12.3422 	 65.219
| 21> H 	 1.69502 	 -13.3066 	 66.4297
| 22> H 	 2.02339 	 -11.5686 	 66.2016
| 23> S 	 4.26988 	 -13.5717 	 57.4954
| 24> C 	 4.29364 	 -15.1792 	 56.8022
| 25> C 	 4.09695 	 -16.0847 	 57.8515
| 26> C 	 4.02117 	 -15.5567 	 59.1545
| 27> C 	 4.17486 	 -14.1861 	 59.1937
| 28> H 	 4.04218 	 -17.1372 	 57.5688
| 29> C 	 3.87872 	 -16.4263 	 60.42
| 30> H 	 3.55703 	 -17.3694 	 60.0175
| 31> H 	 3.13498 	 -15.9373 	 61.0185
| 32> C 	 5.10781 	 -16.5264 	 61.3188
| 33> H 	 5.30176 	 -15.5508 	 61.7854
| 34> H 	 5.8494 	 -16.7947 	 60.5723
| 35> C 	 4.7695 	 -17.4972 	 62.4636
| 36> H 	 4.56975 	 -18.5369 	 62.0309
| 37> H 	 3.98144 	 -17.0879 	 63.0655
| 38> H 	 5.61151 	 -17.7113 	 63.146
| 39> H 	 5.00296 	 -10.2579 	 62.3306
| 40> H 	 4.53052 	 -15.3865 	 55.7919
| 41> *
| 42>
| 43>                          ****END OF INPUT****

CARTESIAN COORDINATES (ANGSTROEM)
---------------------------------
  S      5.244810  -11.812400   60.275300
  C      4.788150  -11.242900   61.859400
  C      3.699760  -12.001500   62.273100
  C      3.500870  -13.209700   61.499300
  C      4.158780  -13.190300   60.310100
  H      2.773400  -13.924100   61.729700
  C      2.783110  -11.718400   63.431200
  H      1.839940  -11.345700   63.153700
  H      3.224330  -10.854100   63.890500
  C      2.682480  -12.873300   64.534300
  H      2.448510  -13.728100   63.911800
  H      3.708430  -13.045500   64.797500
  C      1.783840  -12.508500   65.683000
  H      0.746299  -12.342200   65.219000
  H      1.695020  -13.306600   66.429700
  H      2.023390  -11.568600   66.201600
  S      4.269880  -13.571700   57.495400
  C      4.293640  -15.179200   56.802200
  C      4.096950  -16.084700   57.851500
  C      4.021170  -15.556700   59.154500
  C      4.174860  -14.186100   59.193700
  H      4.042180  -17.137200   57.568800
  C      3.878720  -16.426300   60.420000
  H      3.557030  -17.369400   60.017500
  H      3.134980  -15.937300   61.018500
  C      5.107810  -16.526400   61.318800
  H      5.301760  -15.550800   61.785400
  H      5.849400  -16.794700   60.572300
  C      4.769500  -17.497200   62.463600
  H      4.569750  -18.536900   62.030900
  H      3.981440  -17.087900   63.065500
  H      5.611510  -17.711300   63.146000
  H      5.002960  -10.257900   62.330600
  H      4.530520  -15.386500   55.791900

 Total Charge           Charge          ....    0
 Multiplicity           Mult            ....    1
 Number of Electrons    NEL             ....  134
 Basis Dimension        Dim             ....  322

ORBITAL ENERGIES
----------------

  NO   OCC          E(Eh)            E(eV)
   0   2.0000     -88.965895     -2420.8851
   1   2.0000     -88.964839     -2420.8563
   2   2.0000     -10.336862      -281.2803
   3   2.0000     -10.334917      -281.2274
   4   2.0000     -10.320449      -280.8337
   5   2.0000     -10.319022      -280.7949
   6   2.0000     -10.304333      -280.3952
   7   2.0000     -10.303893      -280.3832
   8   2.0000     -10.297218      -280.2015
   9   2.0000     -10.291657      -280.0502
  10   2.0000     -10.290646      -280.0227
  11   2.0000     -10.289964      -280.0042
  12   2.0000     -10.288497      -279.9642
  13   2.0000     -10.286772      -279.9173
  14   2.0000     -10.284700      -279.8609
  15   2.0000     -10.284655      -279.8597
  16   2.0000      -8.080544      -219.8828
  17   2.0000      -8.078708      -219.8328
  18   2.0000      -6.039260      -164.3366
  19   2.0000      -6.037287      -164.2829
  20   2.0000      -6.034932      -164.2188
  21   2.0000      -6.033220      -164.1723
  22   2.0000      -6.031185      -164.1169
  23   2.0000      -6.029553      -164.0725
  24   2.0000      -1.006051       -27.3760
  25   2.0000      -0.984789       -26.7975
  26   2.0000      -0.912485       -24.8300
  27   2.0000      -0.910723       -24.7820
  28   2.0000      -0.868685       -23.6381
  29   2.0000      -0.851909       -23.1816
  30   2.0000      -0.845133       -22.9972
  31   2.0000      -0.818349       -22.2684
  32   2.0000      -0.780358       -21.2346
  33   2.0000      -0.771341       -20.9892
  34   2.0000      -0.714409       -19.4401
  35   2.0000      -0.701457       -19.0876
  36   2.0000      -0.691817       -18.8253
  37   2.0000      -0.664160       -18.0727
  38   2.0000      -0.643344       -17.5063
  39   2.0000      -0.628226       -17.0949
  40   2.0000      -0.596592       -16.2341
  41   2.0000      -0.575412       -15.6578
  42   2.0000      -0.571251       -15.5445
  43   2.0000      -0.556784       -15.1509
  44   2.0000      -0.528801       -14.3894
  45   2.0000      -0.525844       -14.3089
  46   2.0000      -0.513804       -13.9813
  47   2.0000      -0.510459       -13.8903
  48   2.0000      -0.507728       -13.8160
  49   2.0000      -0.504149       -13.7186
  50   2.0000      -0.494680       -13.4609
  51   2.0000      -0.487009       -13.2522
  52   2.0000      -0.484102       -13.1731
  53   2.0000      -0.468515       -12.7489
  54   2.0000      -0.463659       -12.6168
  55   2.0000      -0.448016       -12.1911
  56   2.0000      -0.440674       -11.9913
  57   2.0000      -0.431080       -11.7303
  58   2.0000      -0.427712       -11.6386
  59   2.0000      -0.422271       -11.4906
  60   2.0000      -0.420263       -11.4359
  61   2.0000      -0.416206       -11.3256
  62   2.0000      -0.409536       -11.1440
  63   2.0000      -0.354649        -9.6505
  64   2.0000      -0.332226        -9.0403
  65   2.0000      -0.327731        -8.9180
  66   2.0000      -0.292488        -7.9590
  67   0.0000       0.020943         0.5699
  68   0.0000       0.073004         1.9865
  69   0.0000       0.110023         2.9939
  70   0.0000       0.116612         3.1732
  71   0.0000       0.122954         3.3457

MULLIKEN ATOMIC CHARGES
-----------------------
   0 S :    0.101511
   1 C :   -0.110091
   2 C :   -0.129842
   3 C :    0.000308
   4 C :   -0.095196
   5 H :    0.001662
   6 C :    0.077194
   7 H :    0.023821
   8 H :   -0.008432
   9 C :   -0.071531
  10 H :    0.023267
  11 H :    0.024770
  12 C :   -0.045507
  13 H :    0.035843
  14 H :    0.045043
  15 H :    0.041086
  16 S :    0.086485
  17 C :   -0.084393
  18 C :   -0.057182
  19 C :   -0.035543
  20 C :   -0.139618
  21 H :    0.020746
  22 C :    0.080815
  23 H :    0.011708
  24 H :    0.005005
  25 C :   -0.057896
  26 H :    0.046453
  27 H :    0.034596
  28 C :   -0.055818
  29 H :    0.036263
  30 H :    0.033183
  31 H :    0.037542
  32 H :    0.068549
  33 H :    0.055201
Sum of atomic charges:    0.0000000

LOEWDIN ATOMIC CHARGES
----------------------
   0 S :    0.407330
   1 C :   -0.212539
   2 C :   -0.056773
   3 C :   -0.069275
   4 C :   -0.177780
   5 H :    0.018821
   6 C :   -0.030577
   7 H :    0.022603
   8 H :    0.022600
   9 C :   -0.037901
  10 H :    0.019931
  11 H :    0.021851
  12 C :   -0.070115
  13 H :    0.035579
  14 H :    0.029186
  15 H :    0.029955
  16 S :    0.382798
  17 C :   -0.177061
  18 C :   -0.077188
  19 C :   -0.061648
  20 C :   -0.177406
  21 H :    0.031829
  22 C :   -0.022186
  23 H :    0.025283
  24 H :    0.021452
  25 C :   -0.037860
  26 H :    0.029698
  27 H :    0.026006
  28 C :   -0.068075
  29 H :    0.031959
  30 H :    0.023504
  31 H :    0.027407
  32 H :    0.042218
  33 H :    0.026375

  Mayer bond orders larger than 0.100000
B(  0-S ,  1-C ) :   1.1266 B(  0-S ,  4-C ) :   1.1528 B(  1-C ,  2-C ) :   1.6289
B(  1-C , 32-H ) :   0.9550 B(  2-C ,  3-C ) :   1.2179 B(  2-C ,  6-C ) :   1.0363
B(  3-C ,  4-C ) :   1.5918 B(  3-C ,  5-H ) :   0.9953 B(  4-C , 20-C ) :   1.0238
B(  6-C ,  7-H ) :   0.9382 B(  6-C ,  8-H ) :   0.9315 B(  6-C ,  9-C ) :   1.0398
B(  9-C , 10-H ) :   0.9601 B(  9-C , 11-H ) :   0.9560 B(  9-C , 12-C ) :   1.0776
B( 12-C , 13-H ) :   0.9721 B( 12-C , 14-H ) :   0.9730 B( 12-C , 15-H ) :   0.9736
B( 16-S , 17-C ) :   1.1619 B( 16-S , 20-C ) :   1.1395 B( 17-C , 18-C ) :   1.5733
B( 17-C , 20-C ) :   0.1124 B( 17-C , 33-H ) :   0.9755 B( 18-C , 19-C ) :   1.2641
B( 18-C , 21-H ) :   0.9896 B( 19-C , 20-C ) :   1.5800 B( 19-C , 22-C ) :   1.0316
B( 22-C , 23-H ) :   0.9343 B( 22-C , 24-H ) :   0.9276 B( 22-C , 25-C ) :   1.0644
B( 25-C , 26-H ) :   0.9495 B( 25-C , 27-H ) :   0.9587 B( 25-C , 28-C ) :   1.0784
B( 28-C , 29-H ) :   0.9746 B( 28-C , 30-H ) :   0.9721 B( 28-C , 31-H ) :   0.9745

Dispersion correction           -0.014283189
FINAL SINGLE POINT ENERGY     -1339.867452684196

DIPOLE MOMENT
-------------
                                X             Y             Z
Electronic contribution:      8.11449      12.20619     -27.94224
Nuclear contribution   :     -8.41074     -12.53917      28.44463
                        -----------------------------------------
Total Dipole Moment    :     -0.29624      -0.33298       0.50239
                        -----------------------------------------
Magnitude (a.u.)       :      0.67159
Magnitude (Debye)      :      1.70704

Rotational constants in cm-1:     0.018342     0.008910     0.006699
Rotational constants in MHz :   549.878673   267.104559   200.845670

                             ****ORCA TERMINATED NORMALLY****
TOTAL RUN TIME: 0 days 0 hours 0 minutes 28 seconds 803 msec
