                         Program Version 4.2.1 -  RELEASE  -
|  1> ! wB97X-D3 SP def2-SVP
|  2> %pal
|  3> nprocs 16
|  4> end
|  5>
|  6> * xyz 0 1
|  7> S 	 37.2755 	 17.7314 	 78.5358
|  8> C 	 36.6868 	 16.8549 	 77.0384
|  9> C 	 36.0909 	 15.6527 	 77.4401
| 10> C 	 36.3355 	 15.4043 	 78.8278
| 11> C 	 37.0273 	 16.3472 	 79.4779
| 12> H 	 35.9346 	 14.5751 	 79.3998
| 13> C 	 35.2494 	 14.713 	 76.5852
| 14> H 	 34.8909 	 15.1708 	 75.662
| 15> H 	 34.2312 	 14.6325 	 77.0129
| 16> C 	 35.9875 	 13.4539 	 76.1719
| 17> H 	 36.9979 	 13.7345 	 75.8685
| 18> H 	 35.9708 	 12.766 	 77.0177
| 19> C 	 35.3823 	 12.6696 	 75.0122
| 20> H 	 36.1228 	 11.8885 	 74.7901
| 21> H 	 34.4999 	 12.1284 	 75.3199
| 22> H 	 35.2019 	 13.3246 	 74.1444
| 23> S 	 38.9936 	 16.6978 	 81.2701
| 24> C 	 38.5635 	 16.5788 	 83.0015
| 25> C 	 37.3036 	 16.0012 	 83.1744
| 26> C 	 36.4843 	 15.9899 	 81.9668
| 27> C 	 37.2808 	 16.359 	 80.8715
| 28> H 	 36.8562 	 15.8074 	 84.1484
| 29> C 	 35.0474 	 15.728 	 81.8799
| 30> H 	 35.0052 	 14.6554 	 82.0167
| 31> H 	 34.7943 	 16.0481 	 80.8292
| 32> C 	 34.1446 	 16.4937 	 82.8306
| 33> H 	 34.3261 	 17.5058 	 82.7102
| 34> H 	 34.546 	 16.2184 	 83.7835
| 35> C 	 32.6749 	 16.1914 	 82.7496
| 36> H 	 32.065 	 16.7823 	 83.4736
| 37> H 	 32.468 	 15.1312 	 82.9123
| 38> H 	 32.3171 	 16.3898 	 81.745
| 39> H 	 36.603 	 17.3304 	 76.1029
| 40> H 	 39.3077 	 16.6327 	 83.8206
| 41> *
| 42>
| 43>                          ****END OF INPUT****

CARTESIAN COORDINATES (ANGSTROEM)
---------------------------------
  S     37.275500   17.731400   78.535800
  C     36.686800   16.854900   77.038400
  C     36.090900   15.652700   77.440100
  C     36.335500   15.404300   78.827800
  C     37.027300   16.347200   79.477900
  H     35.934600   14.575100   79.399800
  C     35.249400   14.713000   76.585200
  H     34.890900   15.170800   75.662000
  H     34.231200   14.632500   77.012900
  C     35.987500   13.453900   76.171900
  H     36.997900   13.734500   75.868500
  H     35.970800   12.766000   77.017700
  C     35.382300   12.669600   75.012200
  H     36.122800   11.888500   74.790100
  H     34.499900   12.128400   75.319900
  H     35.201900   13.324600   74.144400
  S     38.993600   16.697800   81.270100
  C     38.563500   16.578800   83.001500
  C     37.303600   16.001200   83.174400
  C     36.484300   15.989900   81.966800
  C     37.280800   16.359000   80.871500
  H     36.856200   15.807400   84.148400
  C     35.047400   15.728000   81.879900
  H     35.005200   14.655400   82.016700
  H     34.794300   16.048100   80.829200
  C     34.144600   16.493700   82.830600
  H     34.326100   17.505800   82.710200
  H     34.546000   16.218400   83.783500
  C     32.674900   16.191400   82.749600
  H     32.065000   16.782300   83.473600
  H     32.468000   15.131200   82.912300
  H     32.317100   16.389800   81.745000
  H     36.603000   17.330400   76.102900
  H     39.307700   16.632700   83.820600

 Total Charge           Charge          ....    0
 Multiplicity           Mult            ....    1
 Number of Electrons    NEL             ....  134
 Basis Dimension        Dim             ....  322

ORBITAL ENERGIES
----------------

  NO   OCC          E(Eh)            E(eV)
   0   2.0000     -88.965045     -2420.8619
   1   2.0000     -88.962132     -2420.7827
   2   2.0000     -10.324593      -280.9465
   3   2.0000     -10.323791      -280.9246
   4   2.0000     -10.317618      -280.7567
   5   2.0000     -10.314806      -280.6801
   6   2.0000     -10.306701      -280.4596
   7   2.0000     -10.305484      -280.4265
   8   2.0000     -10.300440      -280.2892
   9   2.0000     -10.293129      -280.0903
  10   2.0000     -10.290628      -280.0222
  11   2.0000     -10.285207      -279.8747
  12   2.0000     -10.284810      -279.8639
  13   2.0000     -10.280680      -279.7515
  14   2.0000     -10.278804      -279.7005
  15   2.0000     -10.277402      -279.6623
  16   2.0000      -8.078678      -219.8320
  17   2.0000      -8.077031      -219.7872
  18   2.0000      -6.037252      -164.2820
  19   2.0000      -6.035546      -164.2355
  20   2.0000      -6.033539      -164.1809
  21   2.0000      -6.031717      -164.1314
  22   2.0000      -6.029220      -164.0634
  23   2.0000      -6.027541      -164.0177
  24   2.0000      -1.009115       -27.4594
  25   2.0000      -0.975881       -26.5551
  26   2.0000      -0.919609       -25.0238
  27   2.0000      -0.914327       -24.8801
  28   2.0000      -0.870992       -23.7009
  29   2.0000      -0.857030       -23.3210
  30   2.0000      -0.842891       -22.9362
  31   2.0000      -0.812792       -22.1172
  32   2.0000      -0.785637       -21.3783
  33   2.0000      -0.771599       -20.9963
  34   2.0000      -0.711380       -19.3576
  35   2.0000      -0.698090       -18.9960
  36   2.0000      -0.695154       -18.9161
  37   2.0000      -0.658523       -17.9193
  38   2.0000      -0.647663       -17.6238
  39   2.0000      -0.619092       -16.8464
  40   2.0000      -0.591500       -16.0955
  41   2.0000      -0.578810       -15.7502
  42   2.0000      -0.571847       -15.5608
  43   2.0000      -0.555549       -15.1173
  44   2.0000      -0.530420       -14.4335
  45   2.0000      -0.527927       -14.3656
  46   2.0000      -0.520776       -14.1710
  47   2.0000      -0.517020       -14.0688
  48   2.0000      -0.507663       -13.8142
  49   2.0000      -0.505366       -13.7517
  50   2.0000      -0.490160       -13.3379
  51   2.0000      -0.473034       -12.8719
  52   2.0000      -0.465563       -12.6686
  53   2.0000      -0.463122       -12.6022
  54   2.0000      -0.458231       -12.4691
  55   2.0000      -0.451830       -12.2949
  56   2.0000      -0.447778       -12.1846
  57   2.0000      -0.437681       -11.9099
  58   2.0000      -0.434200       -11.8152
  59   2.0000      -0.427428       -11.6309
  60   2.0000      -0.423125       -11.5138
  61   2.0000      -0.411871       -11.2076
  62   2.0000      -0.409049       -11.1308
  63   2.0000      -0.341521        -9.2933
  64   2.0000      -0.333366        -9.0713
  65   2.0000      -0.324637        -8.8338
  66   2.0000      -0.292092        -7.9482
  67   0.0000       0.027375         0.7449
  68   0.0000       0.068463         1.8630
  69   0.0000       0.101829         2.7709
  70   0.0000       0.105147         2.8612
  71   0.0000       0.136585         3.7167

MULLIKEN ATOMIC CHARGES
-----------------------
   0 S :    0.098671
   1 C :   -0.110892
   2 C :   -0.079611
   3 C :    0.007135
   4 C :   -0.122546
   5 H :    0.010325
   6 C :    0.068327
   7 H :   -0.006037
   8 H :    0.032041
   9 C :   -0.075534
  10 H :    0.037831
  11 H :    0.030531
  12 C :   -0.047300
  13 H :    0.037113
  14 H :    0.029081
  15 H :    0.038073
  16 S :    0.095963
  17 C :   -0.090930
  18 C :   -0.039010
  19 C :   -0.048424
  20 C :   -0.172668
  21 H :    0.025516
  22 C :    0.034507
  23 H :    0.037321
  24 H :    0.045163
  25 C :   -0.031715
  26 H :    0.018567
  27 H :    0.006841
  28 C :   -0.024422
  29 H :    0.044409
  30 H :    0.022619
  31 H :    0.022690
  32 H :    0.035223
  33 H :    0.071145
Sum of atomic charges:    0.0000000

LOEWDIN ATOMIC CHARGES
----------------------
   0 S :    0.396447
   1 C :   -0.168209
   2 C :   -0.049888
   3 C :   -0.068769
   4 C :   -0.220916
   5 H :    0.031017
   6 C :   -0.044022
   7 H :    0.025215
   8 H :    0.036887
   9 C :   -0.039952
  10 H :    0.029389
  11 H :    0.024700
  12 C :   -0.064516
  13 H :    0.031708
  14 H :    0.022101
  15 H :    0.024757
  16 S :    0.374003
  17 C :   -0.177534
  18 C :   -0.068403
  19 C :   -0.050443
  20 C :   -0.183929
  21 H :    0.029103
  22 C :   -0.038490
  23 H :    0.034325
  24 H :    0.040377
  25 C :   -0.034313
  26 H :    0.019819
  27 H :    0.017480
  28 C :   -0.061402
  29 H :    0.033723
  30 H :    0.024729
  31 H :    0.023585
  32 H :    0.017106
  33 H :    0.034313

  Mayer bond orders larger than 0.100000
B(  0-S ,  1-C ) :   1.1155 B(  0-S ,  4-C ) :   1.1582 B(  1-C ,  2-C ) :   1.6079
B(  1-C , 32-H ) :   0.9805 B(  2-C ,  3-C ) :   1.2163 B(  2-C ,  6-C ) :   1.0334
B(  3-C ,  4-C ) :   1.5844 B(  3-C ,  5-H ) :   1.0038 B(  4-C , 20-C ) :   1.0349
B(  6-C ,  7-H ) :   0.9351 B(  6-C ,  8-H ) :   0.9348 B(  6-C ,  9-C ) :   1.0541
B(  9-C , 10-H ) :   0.9564 B(  9-C , 11-H ) :   0.9540 B(  9-C , 12-C ) :   1.0968
B( 12-C , 13-H ) :   0.9743 B( 12-C , 14-H ) :   0.9743 B( 12-C , 15-H ) :   0.9733
B( 16-S , 17-C ) :   1.1300 B( 16-S , 20-C ) :   1.1294 B( 17-C , 18-C ) :   1.6425
B( 17-C , 20-C ) :   0.1000 B( 17-C , 33-H ) :   0.9626 B( 18-C , 19-C ) :   1.2027
B( 18-C , 21-H ) :   0.9774 B( 19-C , 20-C ) :   1.6140 B( 19-C , 22-C ) :   1.0481
B( 22-C , 23-H ) :   0.9179 B( 22-C , 24-H ) :   0.9298 B( 22-C , 25-C ) :   1.0659
B( 25-C , 26-H ) :   0.9530 B( 25-C , 27-H ) :   0.9488 B( 25-C , 28-C ) :   1.0961
B( 28-C , 29-H ) :   0.9725 B( 28-C , 30-H ) :   0.9718 B( 28-C , 31-H ) :   0.9719

Dispersion correction           -0.013624067
FINAL SINGLE POINT ENERGY     -1339.865180313187

DIPOLE MOMENT
-------------
                                X             Y             Z
Electronic contribution:     22.63959      15.40072       5.28754
Nuclear contribution   :    -23.33693     -15.85374      -5.22184
                        -----------------------------------------
Total Dipole Moment    :     -0.69733      -0.45302       0.06570
                        -----------------------------------------
Magnitude (a.u.)       :      0.83415
Magnitude (Debye)      :      2.12025

Rotational constants in cm-1:     0.017310     0.008165     0.006576
Rotational constants in MHz :   518.945863   244.775565   197.136398

                             ****ORCA TERMINATED NORMALLY****
TOTAL RUN TIME: 0 days 0 hours 0 minutes 28 seconds 643 msec
