                         Program Version 4.2.1 -  RELEASE  -
|  1> ! wB97X-D3 SP def2-SVP
|  2> %pal
|  3> nprocs 16
|  4> end
|  5>
|  6> * xyz 0 1
|  7> S 	 -43.5613 	 37.6035 	 80.5324
|  8> C 	 -42.8694 	 38.9443 	 79.8127
|  9> C 	 -41.5113 	 38.7355 	 79.5156
| 10> C 	 -41.2106 	 37.3193 	 79.5764
| 11> C 	 -42.1515 	 36.6214 	 80.304
| 12> H 	 -40.3171 	 36.6888 	 79.329
| 13> C 	 -40.5024 	 39.7467 	 79.1334
| 14> H 	 -39.5758 	 39.2458 	 78.7534
| 15> H 	 -40.1482 	 40.4151 	 79.923
| 16> C 	 -41.149 	 40.5713 	 77.9523
| 17> H 	 -41.5003 	 39.9461 	 77.109
| 18> H 	 -41.9293 	 41.2188 	 78.4648
| 19> C 	 -40.2587 	 41.6769 	 77.3824
| 20> H 	 -39.4672 	 41.2771 	 76.7789
| 21> H 	 -40.8662 	 42.3026 	 76.7169
| 22> H 	 -39.7929 	 42.2959 	 78.1655
| 23> S 	 -43.2619 	 34.2171 	 79.941
| 24> C 	 -42.4799 	 32.7782 	 80.5089
| 25> C 	 -41.2886 	 33.0818 	 81.1656
| 26> C 	 -41.0845 	 34.493 	 81.2585
| 27> C 	 -42.0629 	 35.2444 	 80.6968
| 28> H 	 -40.6371 	 32.2608 	 81.4116
| 29> C 	 -39.9649 	 35.125 	 82.0096
| 30> H 	 -39.8834 	 34.5471 	 82.9776
| 31> H 	 -40.1345 	 36.1882 	 82.1697
| 32> C 	 -38.6947 	 35.2512 	 81.2093
| 33> H 	 -38.922 	 35.873 	 80.3579
| 34> H 	 -38.3978 	 34.2469 	 80.9082
| 35> C 	 -37.5725 	 35.9894 	 81.8955
| 36> H 	 -37.5705 	 35.7367 	 82.9997
| 37> H 	 -37.6638 	 37.1366 	 81.9155
| 38> H 	 -36.6243 	 35.6679 	 81.5077
| 39> H 	 -43.2824 	 39.9477 	 79.9808
| 40> H 	 -42.6934 	 31.7119 	 80.2746
| 41> *
| 42>
| 43>                          ****END OF INPUT****

CARTESIAN COORDINATES (ANGSTROEM)
---------------------------------
  S    -43.561300   37.603500   80.532400
  C    -42.869400   38.944300   79.812700
  C    -41.511300   38.735500   79.515600
  C    -41.210600   37.319300   79.576400
  C    -42.151500   36.621400   80.304000
  H    -40.317100   36.688800   79.329000
  C    -40.502400   39.746700   79.133400
  H    -39.575800   39.245800   78.753400
  H    -40.148200   40.415100   79.923000
  C    -41.149000   40.571300   77.952300
  H    -41.500300   39.946100   77.109000
  H    -41.929300   41.218800   78.464800
  C    -40.258700   41.676900   77.382400
  H    -39.467200   41.277100   76.778900
  H    -40.866200   42.302600   76.716900
  H    -39.792900   42.295900   78.165500
  S    -43.261900   34.217100   79.941000
  C    -42.479900   32.778200   80.508900
  C    -41.288600   33.081800   81.165600
  C    -41.084500   34.493000   81.258500
  C    -42.062900   35.244400   80.696800
  H    -40.637100   32.260800   81.411600
  C    -39.964900   35.125000   82.009600
  H    -39.883400   34.547100   82.977600
  H    -40.134500   36.188200   82.169700
  C    -38.694700   35.251200   81.209300
  H    -38.922000   35.873000   80.357900
  H    -38.397800   34.246900   80.908200
  C    -37.572500   35.989400   81.895500
  H    -37.570500   35.736700   82.999700
  H    -37.663800   37.136600   81.915500
  H    -36.624300   35.667900   81.507700
  H    -43.282400   39.947700   79.980800
  H    -42.693400   31.711900   80.274600

 Total Charge           Charge          ....    0
 Multiplicity           Mult            ....    1
 Number of Electrons    NEL             ....  134
 Basis Dimension        Dim             ....  322

ORBITAL ENERGIES
----------------

  NO   OCC          E(Eh)            E(eV)
   0   2.0000     -88.964756     -2420.8541
   1   2.0000     -88.962423     -2420.7906
   2   2.0000     -10.323606      -280.9196
   3   2.0000     -10.319619      -280.8111
   4   2.0000     -10.318795      -280.7887
   5   2.0000     -10.309887      -280.5463
   6   2.0000     -10.305835      -280.4360
   7   2.0000     -10.299339      -280.2593
   8   2.0000     -10.297475      -280.2085
   9   2.0000     -10.297121      -280.1989
  10   2.0000     -10.294432      -280.1257
  11   2.0000     -10.294015      -280.1144
  12   2.0000     -10.286771      -279.9173
  13   2.0000     -10.284578      -279.8576
  14   2.0000     -10.281513      -279.7742
  15   2.0000     -10.275524      -279.6112
  16   2.0000      -8.081223      -219.9012
  17   2.0000      -8.077652      -219.8041
  18   2.0000      -6.039467      -164.3423
  19   2.0000      -6.036182      -164.2529
  20   2.0000      -6.035418      -164.2321
  21   2.0000      -6.032212      -164.1448
  22   2.0000      -6.031978      -164.1385
  23   2.0000      -6.028447      -164.0424
  24   2.0000      -1.016071       -27.6487
  25   2.0000      -0.991271       -26.9739
  26   2.0000      -0.918620       -24.9969
  27   2.0000      -0.911906       -24.8142
  28   2.0000      -0.874430       -23.7945
  29   2.0000      -0.854751       -23.2590
  30   2.0000      -0.850364       -23.1396
  31   2.0000      -0.816440       -22.2165
  32   2.0000      -0.779909       -21.2224
  33   2.0000      -0.768120       -20.9016
  34   2.0000      -0.703511       -19.1435
  35   2.0000      -0.692626       -18.8473
  36   2.0000      -0.687443       -18.7063
  37   2.0000      -0.667952       -18.1759
  38   2.0000      -0.646307       -17.5869
  39   2.0000      -0.613405       -16.6916
  40   2.0000      -0.597356       -16.2549
  41   2.0000      -0.573652       -15.6099
  42   2.0000      -0.571095       -15.5403
  43   2.0000      -0.563246       -15.3267
  44   2.0000      -0.528747       -14.3879
  45   2.0000      -0.525324       -14.2948
  46   2.0000      -0.518893       -14.1198
  47   2.0000      -0.511563       -13.9203
  48   2.0000      -0.507350       -13.8057
  49   2.0000      -0.500496       -13.6192
  50   2.0000      -0.497969       -13.5504
  51   2.0000      -0.480395       -13.0722
  52   2.0000      -0.477220       -12.9858
  53   2.0000      -0.463431       -12.6106
  54   2.0000      -0.461047       -12.5457
  55   2.0000      -0.447976       -12.1900
  56   2.0000      -0.441163       -12.0047
  57   2.0000      -0.436420       -11.8756
  58   2.0000      -0.430696       -11.7198
  59   2.0000      -0.424832       -11.5603
  60   2.0000      -0.419250       -11.4084
  61   2.0000      -0.410854       -11.1799
  62   2.0000      -0.407292       -11.0830
  63   2.0000      -0.347593        -9.4585
  64   2.0000      -0.329260        -8.9596
  65   2.0000      -0.323130        -8.7928
  66   2.0000      -0.294996        -8.0272
  67   0.0000       0.035218         0.9583
  68   0.0000       0.064614         1.7582
  69   0.0000       0.112816         3.0699
  70   0.0000       0.122465         3.3324
  71   0.0000       0.129477         3.5232

MULLIKEN ATOMIC CHARGES
-----------------------
   0 S :    0.131464
   1 C :   -0.108730
   2 C :   -0.099838
   3 C :    0.011706
   4 C :   -0.179474
   5 H :    0.039377
   6 C :    0.069329
   7 H :    0.025229
   8 H :    0.041092
   9 C :   -0.153012
  10 H :    0.056918
  11 H :    0.040976
  12 C :   -0.028536
  13 H :    0.021423
  14 H :    0.033719
  15 H :    0.027139
  16 S :    0.104527
  17 C :   -0.092575
  18 C :   -0.054179
  19 C :   -0.033727
  20 C :   -0.133492
  21 H :    0.018795
  22 C :    0.045397
  23 H :    0.042306
  24 H :    0.020093
  25 C :   -0.060769
  26 H :    0.011545
  27 H :    0.020701
  28 C :   -0.057458
  29 H :    0.025571
  30 H :    0.045725
  31 H :    0.035275
  32 H :    0.065643
  33 H :    0.067841
Sum of atomic charges:    0.0000000

LOEWDIN ATOMIC CHARGES
----------------------
   0 S :    0.447963
   1 C :   -0.232064
   2 C :   -0.059225
   3 C :   -0.068104
   4 C :   -0.210369
   5 H :    0.040039
   6 C :   -0.037792
   7 H :    0.031860
   8 H :    0.034421
   9 C :   -0.041239
  10 H :    0.033370
  11 H :    0.030497
  12 C :   -0.071121
  13 H :    0.016509
  14 H :    0.027356
  15 H :    0.024389
  16 S :    0.413334
  17 C :   -0.193054
  18 C :   -0.076414
  19 C :   -0.057764
  20 C :   -0.200459
  21 H :    0.031565
  22 C :   -0.035631
  23 H :    0.037884
  24 H :    0.031554
  25 C :   -0.042740
  26 H :    0.020057
  27 H :    0.019440
  28 C :   -0.072514
  29 H :    0.027506
  30 H :    0.033871
  31 H :    0.024581
  32 H :    0.032049
  33 H :    0.040245

  Mayer bond orders larger than 0.100000
B(  0-S ,  1-C ) :   1.1646 B(  0-S ,  4-C ) :   1.1703 B(  1-C ,  2-C ) :   1.5753
B(  1-C , 32-H ) :   0.9606 B(  2-C ,  3-C ) :   1.2333 B(  2-C ,  6-C ) :   1.0413
B(  3-C ,  4-C ) :   1.5760 B(  3-C ,  5-H ) :   0.9743 B(  4-C , 20-C ) :   1.0163
B(  6-C ,  7-H ) :   0.9454 B(  6-C ,  8-H ) :   0.9309 B(  6-C ,  9-C ) :   1.0613
B(  9-C , 10-H ) :   0.9613 B(  9-C , 11-H ) :   0.9538 B(  9-C , 12-C ) :   1.0846
B( 12-C , 13-H ) :   0.9737 B( 12-C , 14-H ) :   0.9742 B( 12-C , 15-H ) :   0.9712
B( 16-S , 17-C ) :   1.1657 B( 16-S , 20-C ) :   1.1318 B( 17-C , 18-C ) :   1.6155
B( 17-C , 33-H ) :   0.9601 B( 18-C , 19-C ) :   1.2153 B( 18-C , 21-H ) :   0.9964
B( 19-C , 20-C ) :   1.6310 B( 19-C , 22-C ) :   1.0537 B( 22-C , 23-H ) :   0.9333
B( 22-C , 24-H ) :   0.9326 B( 22-C , 25-C ) :   1.0656 B( 25-C , 26-H ) :   0.9446
B( 25-C , 27-H ) :   0.9544 B( 25-C , 28-C ) :   1.0869 B( 28-C , 29-H ) :   0.9719
B( 28-C , 30-H ) :   0.9717 B( 28-C , 31-H ) :   0.9728

Dispersion correction           -0.014311817
FINAL SINGLE POINT ENERGY     -1339.863621352981

DIPOLE MOMENT
-------------
                                X             Y             Z
Electronic contribution:    -25.03152     -15.88630       3.19492
Nuclear contribution   :     25.74839      16.03324      -3.21091
                        -----------------------------------------
Total Dipole Moment    :      0.71687       0.14694      -0.01599
                        -----------------------------------------
Magnitude (a.u.)       :      0.73195
Magnitude (Debye)      :      1.86046

Rotational constants in cm-1:     0.019356     0.008571     0.006530
Rotational constants in MHz :   580.267480   256.965546   195.756371

                             ****ORCA TERMINATED NORMALLY****
TOTAL RUN TIME: 0 days 0 hours 0 minutes 28 seconds 542 msec
