                         Program Version 4.2.1 -  RELEASE  -
|  1> ! wB97X-D3 SP def2-SVP
|  2> %pal
|  3> nprocs 16
|  4> end
|  5>
|  6> * xyz 0 1
|  7> S 	 -29.6034 	 75.5299 	 157.27
|  8> C 	 -28.7645 	 76.0295 	 158.774
|  9> C 	 -29.3141 	 75.4825 	 159.896
| 10> C 	 -30.3254 	 74.5684 	 159.594
| 11> C 	 -30.527 	 74.4488 	 158.226
| 12> H 	 -31.0049 	 74.0784 	 160.236
| 13> C 	 -28.8115 	 75.7341 	 161.236
| 14> H 	 -28.0257 	 76.3969 	 161.158
| 15> H 	 -28.3285 	 74.7804 	 161.651
| 16> C 	 -29.8318 	 76.3076 	 162.244
| 17> H 	 -30.4671 	 77.0958 	 161.81
| 18> H 	 -30.5229 	 75.4835 	 162.53
| 19> C 	 -29.113 	 76.8035 	 163.529
| 20> H 	 -28.7325 	 75.9275 	 163.982
| 21> H 	 -28.3122 	 77.4115 	 163.263
| 22> H 	 -29.724 	 77.319 	 164.308
| 23> S 	 -30.6011 	 72.2399 	 156.609
| 24> C 	 -32.0809 	 71.2843 	 156.705
| 25> C 	 -33.1357 	 71.9536 	 157.318
| 26> C 	 -32.7742 	 73.2298 	 157.789
| 27> C 	 -31.4065 	 73.4698 	 157.648
| 28> H 	 -34.0952 	 71.4914 	 157.34
| 29> C 	 -33.68 	 74.1416 	 158.633
| 30> H 	 -33.87 	 75.0092 	 157.981
| 31> H 	 -33.0495 	 74.5262 	 159.419
| 32> C 	 -35.035 	 73.5821 	 159.186
| 33> H 	 -35.4337 	 74.339 	 159.938
| 34> H 	 -34.7298 	 72.6719 	 159.782
| 35> C 	 -36.164 	 73.3964 	 158.127
| 36> H 	 -35.9268 	 72.4222 	 157.602
| 37> H 	 -36.1696 	 74.2668 	 157.45
| 38> H 	 -37.1644 	 73.3432 	 158.633
| 39> H 	 -27.8698 	 76.6656 	 158.743
| 40> H 	 -32.2254 	 70.3504 	 156.165
| 41> *
| 42>
| 43>                          ****END OF INPUT****

CARTESIAN COORDINATES (ANGSTROEM)
---------------------------------
  S    -29.603400   75.529900  157.270000
  C    -28.764500   76.029500  158.774000
  C    -29.314100   75.482500  159.896000
  C    -30.325400   74.568400  159.594000
  C    -30.527000   74.448800  158.226000
  H    -31.004900   74.078400  160.236000
  C    -28.811500   75.734100  161.236000
  H    -28.025700   76.396900  161.158000
  H    -28.328500   74.780400  161.651000
  C    -29.831800   76.307600  162.244000
  H    -30.467100   77.095800  161.810000
  H    -30.522900   75.483500  162.530000
  C    -29.113000   76.803500  163.529000
  H    -28.732500   75.927500  163.982000
  H    -28.312200   77.411500  163.263000
  H    -29.724000   77.319000  164.308000
  S    -30.601100   72.239900  156.609000
  C    -32.080900   71.284300  156.705000
  C    -33.135700   71.953600  157.318000
  C    -32.774200   73.229800  157.789000
  C    -31.406500   73.469800  157.648000
  H    -34.095200   71.491400  157.340000
  C    -33.680000   74.141600  158.633000
  H    -33.870000   75.009200  157.981000
  H    -33.049500   74.526200  159.419000
  C    -35.035000   73.582100  159.186000
  H    -35.433700   74.339000  159.938000
  H    -34.729800   72.671900  159.782000
  C    -36.164000   73.396400  158.127000
  H    -35.926800   72.422200  157.602000
  H    -36.169600   74.266800  157.450000
  H    -37.164400   73.343200  158.633000
  H    -27.869800   76.665600  158.743000
  H    -32.225400   70.350400  156.165000

 Total Charge           Charge          ....    0
 Multiplicity           Mult            ....    1
 Number of Electrons    NEL             ....  134
 Basis Dimension        Dim             ....  322

ORBITAL ENERGIES
----------------

  NO   OCC          E(Eh)            E(eV)
   0   2.0000     -88.966796     -2420.9096
   1   2.0000     -88.964811     -2420.8556
   2   2.0000     -10.322895      -280.9003
   3   2.0000     -10.322639      -280.8933
   4   2.0000     -10.317676      -280.7582
   5   2.0000     -10.312187      -280.6089
   6   2.0000     -10.304326      -280.3950
   7   2.0000     -10.301589      -280.3205
   8   2.0000     -10.293651      -280.1045
   9   2.0000     -10.293344      -280.0961
  10   2.0000     -10.293206      -280.0924
  11   2.0000     -10.292492      -280.0729
  12   2.0000     -10.291590      -280.0484
  13   2.0000     -10.287863      -279.9470
  14   2.0000     -10.285673      -279.8874
  15   2.0000     -10.274405      -279.5808
  16   2.0000      -8.081692      -219.9140
  17   2.0000      -8.078692      -219.8324
  18   2.0000      -6.039988      -164.3564
  19   2.0000      -6.037104      -164.2779
  20   2.0000      -6.036357      -164.2576
  21   2.0000      -6.033471      -164.1791
  22   2.0000      -6.032504      -164.1528
  23   2.0000      -6.029454      -164.0698
  24   2.0000      -1.007977       -27.4285
  25   2.0000      -0.981160       -26.6987
  26   2.0000      -0.917918       -24.9778
  27   2.0000      -0.900446       -24.5024
  28   2.0000      -0.869307       -23.6550
  29   2.0000      -0.852465       -23.1968
  30   2.0000      -0.844174       -22.9711
  31   2.0000      -0.813931       -22.1482
  32   2.0000      -0.785551       -21.3759
  33   2.0000      -0.769221       -20.9316
  34   2.0000      -0.711762       -19.3680
  35   2.0000      -0.695311       -18.9204
  36   2.0000      -0.691879       -18.8270
  37   2.0000      -0.656668       -17.8688
  38   2.0000      -0.645148       -17.5554
  39   2.0000      -0.622460       -16.9380
  40   2.0000      -0.591963       -16.1081
  41   2.0000      -0.572850       -15.5881
  42   2.0000      -0.561119       -15.2688
  43   2.0000      -0.548229       -14.9181
  44   2.0000      -0.535402       -14.5690
  45   2.0000      -0.520913       -14.1748
  46   2.0000      -0.519999       -14.1499
  47   2.0000      -0.513682       -13.9780
  48   2.0000      -0.508502       -13.8370
  49   2.0000      -0.493876       -13.4390
  50   2.0000      -0.487274       -13.2594
  51   2.0000      -0.476749       -12.9730
  52   2.0000      -0.474481       -12.9113
  53   2.0000      -0.468519       -12.7491
  54   2.0000      -0.458571       -12.4784
  55   2.0000      -0.449306       -12.2262
  56   2.0000      -0.446121       -12.1396
  57   2.0000      -0.435614       -11.8536
  58   2.0000      -0.433744       -11.8028
  59   2.0000      -0.431655       -11.7459
  60   2.0000      -0.424205       -11.5432
  61   2.0000      -0.419568       -11.4170
  62   2.0000      -0.412349       -11.2206
  63   2.0000      -0.336736        -9.1630
  64   2.0000      -0.333008        -9.0616
  65   2.0000      -0.328795        -8.9470
  66   2.0000      -0.289784        -7.8854
  67   0.0000       0.030740         0.8365
  68   0.0000       0.061188         1.6650
  69   0.0000       0.109338         2.9752
  70   0.0000       0.121314         3.3011
  71   0.0000       0.125754         3.4219

MULLIKEN ATOMIC CHARGES
-----------------------
   0 S :    0.116957
   1 C :   -0.153454
   2 C :   -0.039975
   3 C :    0.046334
   4 C :   -0.175576
   5 H :    0.000937
   6 C :    0.094362
   7 H :   -0.020209
   8 H :    0.046456
   9 C :   -0.111745
  10 H :    0.040011
  11 H :    0.034763
  12 C :   -0.016046
  13 H :    0.015600
  14 H :    0.017881
  15 H :    0.044377
  16 S :    0.107321
  17 C :   -0.085243
  18 C :   -0.056315
  19 C :    0.007974
  20 C :   -0.193614
  21 H :    0.003865
  22 C :    0.077194
  23 H :    0.033936
  24 H :    0.017790
  25 C :   -0.120717
  26 H :    0.042374
  27 H :    0.045531
  28 C :   -0.066766
  29 H :    0.045235
  30 H :    0.044783
  31 H :    0.050440
  32 H :    0.050328
  33 H :    0.055211
Sum of atomic charges:   -0.0000000

LOEWDIN ATOMIC CHARGES
----------------------
   0 S :    0.402154
   1 C :   -0.187568
   2 C :   -0.064091
   3 C :   -0.054725
   4 C :   -0.201844
   5 H :    0.024497
   6 C :   -0.029696
   7 H :    0.015040
   8 H :    0.044019
   9 C :   -0.037373
  10 H :    0.025031
  11 H :    0.024363
  12 C :   -0.059847
  13 H :    0.020979
  14 H :    0.014723
  15 H :    0.032805
  16 S :    0.382398
  17 C :   -0.177103
  18 C :   -0.074811
  19 C :   -0.050258
  20 C :   -0.188774
  21 H :    0.026104
  22 C :   -0.035326
  23 H :    0.035908
  24 H :    0.029101
  25 C :   -0.054128
  26 H :    0.032934
  27 H :    0.029299
  28 C :   -0.072042
  29 H :    0.029092
  30 H :    0.029711
  31 H :    0.033492
  32 H :    0.027980
  33 H :    0.027955

  Mayer bond orders larger than 0.100000
B(  0-S ,  1-C ) :   1.1155 B(  0-S ,  4-C ) :   1.1700 B(  1-C ,  2-C ) :   1.6138
B(  1-C , 32-H ) :   0.9642 B(  2-C ,  3-C ) :   1.2242 B(  2-C ,  6-C ) :   1.0488
B(  3-C ,  4-C ) :   1.5634 B(  3-C ,  5-H ) :   0.9986 B(  4-C , 20-C ) :   1.0428
B(  6-C ,  7-H ) :   0.9288 B(  6-C ,  8-H ) :   0.9274 B(  6-C ,  9-C ) :   1.0443
B(  9-C , 10-H ) :   0.9626 B(  9-C , 11-H ) :   0.9561 B(  9-C , 12-C ) :   1.0769
B( 12-C , 13-H ) :   0.9723 B( 12-C , 14-H ) :   0.9778 B( 12-C , 15-H ) :   0.9758
B( 16-S , 17-C ) :   1.1554 B( 16-S , 20-C ) :   1.1308 B( 17-C , 18-C ) :   1.6169
B( 17-C , 20-C ) :   0.1124 B( 17-C , 33-H ) :   0.9617 B( 18-C , 19-C ) :   1.2350
B( 18-C , 21-H ) :   0.9904 B( 19-C , 20-C ) :   1.5920 B( 19-C , 22-C ) :   1.0160
B( 22-C , 23-H ) :   0.9225 B( 22-C , 24-H ) :   0.9350 B( 22-C , 25-C ) :   1.0749
B( 25-C , 26-H ) :   0.9559 B( 25-C , 27-H ) :   0.9566 B( 25-C , 28-C ) :   1.0563
B( 28-C , 29-H ) :   0.9771 B( 28-C , 30-H ) :   0.9737 B( 28-C , 31-H ) :   0.9745

Dispersion correction           -0.013933047
FINAL SINGLE POINT ENERGY     -1339.870509698221

DIPOLE MOMENT
-------------
                                X             Y             Z
Electronic contribution:     13.33772      -6.91071     -23.48374
Nuclear contribution   :    -13.66444       7.00382      24.05428
                        -----------------------------------------
Total Dipole Moment    :     -0.32672       0.09311       0.57055
                        -----------------------------------------
Magnitude (a.u.)       :      0.66403
Magnitude (Debye)      :      1.68784

Rotational constants in cm-1:     0.018082     0.008165     0.006324
Rotational constants in MHz :   542.087480   244.783003   189.592560

                             ****ORCA TERMINATED NORMALLY****
TOTAL RUN TIME: 0 days 0 hours 0 minutes 33 seconds 908 msec
