                         Program Version 4.2.1 -  RELEASE  -
|  1> ! wB97X-D3 SP def2-SVP
|  2> %pal
|  3> nprocs 16
|  4> end
|  5>
|  6> * xyz 0 1
|  7> S 	 0.507316 	 -5.76475 	 89.5741
|  8> C 	 1.65242 	 -6.0759 	 90.7696
|  9> C 	 1.2564 	 -5.47069 	 91.9718
| 10> C 	 -0.0386683 	 -4.88379 	 91.9039
| 11> C 	 -0.584991 	 -4.98969 	 90.6521
| 12> H 	 -0.459242 	 -4.34765 	 92.6956
| 13> C 	 2.10603 	 -5.37932 	 93.2421
| 14> H 	 2.41543 	 -4.30746 	 93.3403
| 15> H 	 3.03038 	 -5.85095 	 93.1139
| 16> C 	 1.37197 	 -6.00843 	 94.4534
| 17> H 	 1.89517 	 -5.94675 	 95.3915
| 18> H 	 0.37478 	 -5.45083 	 94.5759
| 19> C 	 1.09861 	 -7.55063 	 94.3736
| 20> H 	 2.09016 	 -8.12446 	 94.5476
| 21> H 	 0.362401 	 -7.83434 	 95.09
| 22> H 	 0.735283 	 -7.89628 	 93.3943
| 23> S 	 -1.96574 	 -2.93704 	 89.4653
| 24> C 	 -3.62033 	 -3.16561 	 88.9625
| 25> C 	 -4.14376 	 -4.26223 	 89.6016
| 26> C 	 -3.17192 	 -5.04649 	 90.2255
| 27> C 	 -1.87054 	 -4.51042 	 90.1084
| 28> H 	 -5.16997 	 -4.50104 	 89.5722
| 29> C 	 -3.58984 	 -6.40425 	 90.8871
| 30> H 	 -3.01773 	 -7.19773 	 90.3619
| 31> H 	 -4.66048 	 -6.52593 	 90.6659
| 32> C 	 -3.48339 	 -6.56728 	 92.3784
| 33> H 	 -4.21048 	 -5.98602 	 92.9114
| 34> H 	 -2.51885 	 -6.17545 	 92.7455
| 35> C 	 -3.67515 	 -8.04472 	 92.7956
| 36> H 	 -3.86901 	 -8.18869 	 93.8368
| 37> H 	 -2.75945 	 -8.64497 	 92.6247
| 38> H 	 -4.54188 	 -8.51409 	 92.3203
| 39> H 	 2.6467 	 -6.47056 	 90.5921
| 40> H 	 -4.09582 	 -2.44897 	 88.2892
| 41> *
| 42>
| 43>                          ****END OF INPUT****

CARTESIAN COORDINATES (ANGSTROEM)
---------------------------------
  S      0.507316   -5.764750   89.574100
  C      1.652420   -6.075900   90.769600
  C      1.256400   -5.470690   91.971800
  C     -0.038668   -4.883790   91.903900
  C     -0.584991   -4.989690   90.652100
  H     -0.459242   -4.347650   92.695600
  C      2.106030   -5.379320   93.242100
  H      2.415430   -4.307460   93.340300
  H      3.030380   -5.850950   93.113900
  C      1.371970   -6.008430   94.453400
  H      1.895170   -5.946750   95.391500
  H      0.374780   -5.450830   94.575900
  C      1.098610   -7.550630   94.373600
  H      2.090160   -8.124460   94.547600
  H      0.362401   -7.834340   95.090000
  H      0.735283   -7.896280   93.394300
  S     -1.965740   -2.937040   89.465300
  C     -3.620330   -3.165610   88.962500
  C     -4.143760   -4.262230   89.601600
  C     -3.171920   -5.046490   90.225500
  C     -1.870540   -4.510420   90.108400
  H     -5.169970   -4.501040   89.572200
  C     -3.589840   -6.404250   90.887100
  H     -3.017730   -7.197730   90.361900
  H     -4.660480   -6.525930   90.665900
  C     -3.483390   -6.567280   92.378400
  H     -4.210480   -5.986020   92.911400
  H     -2.518850   -6.175450   92.745500
  C     -3.675150   -8.044720   92.795600
  H     -3.869010   -8.188690   93.836800
  H     -2.759450   -8.644970   92.624700
  H     -4.541880   -8.514090   92.320300
  H      2.646700   -6.470560   90.592100
  H     -4.095820   -2.448970   88.289200

 Total Charge           Charge          ....    0
 Multiplicity           Mult            ....    1
 Number of Electrons    NEL             ....  134
 Basis Dimension        Dim             ....  322

ORBITAL ENERGIES
----------------

  NO   OCC          E(Eh)            E(eV)
   0   2.0000     -88.963709     -2420.8256
   1   2.0000     -88.963577     -2420.8220
   2   2.0000     -10.325886      -280.9816
   3   2.0000     -10.322554      -280.8910
   4   2.0000     -10.316085      -280.7149
   5   2.0000     -10.310487      -280.5626
   6   2.0000     -10.301786      -280.3259
   7   2.0000     -10.300113      -280.2803
   8   2.0000     -10.294878      -280.1379
   9   2.0000     -10.292933      -280.0849
  10   2.0000     -10.292476      -280.0725
  11   2.0000     -10.289330      -279.9869
  12   2.0000     -10.287394      -279.9342
  13   2.0000     -10.282608      -279.8040
  14   2.0000     -10.280856      -279.7563
  15   2.0000     -10.274962      -279.5959
  16   2.0000      -8.080194      -219.8733
  17   2.0000      -8.079412      -219.8520
  18   2.0000      -6.038442      -164.3143
  19   2.0000      -6.037677      -164.2936
  20   2.0000      -6.034259      -164.2005
  21   2.0000      -6.033772      -164.1873
  22   2.0000      -6.031318      -164.1205
  23   2.0000      -6.030361      -164.0945
  24   2.0000      -1.014117       -27.5955
  25   2.0000      -0.993342       -27.0302
  26   2.0000      -0.906328       -24.6624
  27   2.0000      -0.904692       -24.6179
  28   2.0000      -0.869498       -23.6602
  29   2.0000      -0.848264       -23.0824
  30   2.0000      -0.845924       -23.0188
  31   2.0000      -0.814699       -22.1691
  32   2.0000      -0.781150       -21.2562
  33   2.0000      -0.768837       -20.9211
  34   2.0000      -0.705896       -19.2084
  35   2.0000      -0.695413       -18.9232
  36   2.0000      -0.683846       -18.6084
  37   2.0000      -0.663831       -18.0637
  38   2.0000      -0.647185       -17.6108
  39   2.0000      -0.628505       -17.1025
  40   2.0000      -0.597196       -16.2505
  41   2.0000      -0.568278       -15.4636
  42   2.0000      -0.561863       -15.2891
  43   2.0000      -0.548713       -14.9312
  44   2.0000      -0.540778       -14.7153
  45   2.0000      -0.515744       -14.0341
  46   2.0000      -0.515232       -14.0202
  47   2.0000      -0.509875       -13.8744
  48   2.0000      -0.506240       -13.7755
  49   2.0000      -0.497733       -13.5440
  50   2.0000      -0.485822       -13.2199
  51   2.0000      -0.484210       -13.1760
  52   2.0000      -0.473435       -12.8828
  53   2.0000      -0.463199       -12.6043
  54   2.0000      -0.461436       -12.5563
  55   2.0000      -0.446514       -12.1503
  56   2.0000      -0.444154       -12.0860
  57   2.0000      -0.440582       -11.9888
  58   2.0000      -0.434340       -11.8190
  59   2.0000      -0.418989       -11.4013
  60   2.0000      -0.416724       -11.3396
  61   2.0000      -0.413402       -11.2492
  62   2.0000      -0.411562       -11.1992
  63   2.0000      -0.339160        -9.2290
  64   2.0000      -0.332156        -9.0384
  65   2.0000      -0.315343        -8.5809
  66   2.0000      -0.309831        -8.4309
  67   0.0000       0.042558         1.1581
  68   0.0000       0.058356         1.5880
  69   0.0000       0.116706         3.1757
  70   0.0000       0.123460         3.3595
  71   0.0000       0.129402         3.5212

MULLIKEN ATOMIC CHARGES
-----------------------
   0 S :    0.132941
   1 C :   -0.108792
   2 C :   -0.149825
   3 C :    0.082885
   4 C :   -0.187000
   5 H :   -0.003492
   6 C :    0.118080
   7 H :    0.047303
   8 H :   -0.007848
   9 C :   -0.106673
  10 H :    0.033052
  11 H :    0.038015
  12 C :   -0.075603
  13 H :    0.039010
  14 H :    0.036168
  15 H :    0.040016
  16 S :    0.121522
  17 C :   -0.108058
  18 C :   -0.012967
  19 C :   -0.016089
  20 C :   -0.178991
  21 H :    0.002657
  22 C :    0.068188
  23 H :    0.043283
  24 H :    0.011139
  25 C :   -0.045577
  26 H :    0.017160
  27 H :    0.025689
  28 C :   -0.058456
  29 H :    0.019247
  30 H :    0.040231
  31 H :    0.027169
  32 H :    0.050657
  33 H :    0.064958
Sum of atomic charges:    0.0000000

LOEWDIN ATOMIC CHARGES
----------------------
   0 S :    0.456583
   1 C :   -0.225483
   2 C :   -0.062412
   3 C :   -0.055466
   4 C :   -0.207857
   5 H :    0.023442
   6 C :   -0.031512
   7 H :    0.041158
   8 H :    0.017522
   9 C :   -0.044721
  10 H :    0.022285
  11 H :    0.026990
  12 C :   -0.069197
  13 H :    0.032645
  14 H :    0.022640
  15 H :    0.023432
  16 S :    0.436641
  17 C :   -0.185259
  18 C :   -0.070495
  19 C :   -0.053943
  20 C :   -0.230604
  21 H :    0.025755
  22 C :   -0.028780
  23 H :    0.037610
  24 H :    0.028689
  25 C :   -0.042424
  26 H :    0.019631
  27 H :    0.024032
  28 C :   -0.067085
  29 H :    0.020928
  30 H :    0.029767
  31 H :    0.024564
  32 H :    0.030217
  33 H :    0.030707

  Mayer bond orders larger than 0.100000
B(  0-S ,  1-C ) :   1.1694 B(  0-S ,  4-C ) :   1.2006 B(  1-C ,  2-C ) :   1.5699
B(  1-C ,  4-C ) :   0.1003 B(  1-C , 32-H ) :   0.9686 B(  2-C ,  3-C ) :   1.2662
B(  2-C ,  6-C ) :   1.0230 B(  3-C ,  4-C ) :   1.5579 B(  3-C ,  5-H ) :   1.0065
B(  4-C , 20-C ) :   0.9809 B(  6-C ,  7-H ) :   0.9404 B(  6-C ,  8-H ) :   0.9380
B(  6-C ,  9-C ) :   1.0551 B(  9-C , 10-H ) :   0.9595 B(  9-C , 11-H ) :   0.9603
B(  9-C , 12-C ) :   1.0645 B( 12-C , 13-H ) :   0.9753 B( 12-C , 14-H ) :   0.9754
B( 12-C , 15-H ) :   0.9769 B( 16-S , 17-C ) :   1.1813 B( 16-S , 20-C ) :   1.1873
B( 17-C , 18-C ) :   1.5384 B( 17-C , 20-C ) :   0.1138 B( 17-C , 33-H ) :   0.9726
B( 18-C , 19-C ) :   1.3089 B( 18-C , 21-H ) :   0.9990 B( 19-C , 20-C ) :   1.5428
B( 19-C , 22-C ) :   1.0225 B( 22-C , 23-H ) :   0.9416 B( 22-C , 24-H ) :   0.9335
B( 22-C , 25-C ) :   1.0678 B( 25-C , 26-H ) :   0.9520 B( 25-C , 27-H ) :   0.9548
B( 25-C , 28-C ) :   1.0796 B( 28-C , 29-H ) :   0.9738 B( 28-C , 30-H ) :   0.9761
B( 28-C , 31-H ) :   0.9740

Dispersion correction           -0.015095578
FINAL SINGLE POINT ENERGY     -1339.882854596576

DIPOLE MOMENT
-------------
                                X             Y             Z
Electronic contribution:      2.20070      17.24125     -23.73402
Nuclear contribution   :     -2.27504     -17.33615      24.17648
                        -----------------------------------------
Total Dipole Moment    :     -0.07434      -0.09490       0.44246
                        -----------------------------------------
Magnitude (a.u.)       :      0.45859
Magnitude (Debye)      :      1.16564

Rotational constants in cm-1:     0.018133     0.009855     0.007471
Rotational constants in MHz :   543.622623   295.434731   223.963889

                             ****ORCA TERMINATED NORMALLY****
TOTAL RUN TIME: 0 days 0 hours 0 minutes 34 seconds 700 msec
