                         Program Version 4.2.1 -  RELEASE  -
|  1> ! wB97X-D3 SP def2-SVP
|  2> %pal
|  3> nprocs 16
|  4> end
|  5>
|  6> * xyz 0 1
|  7> S 	 -44.0001 	 14.6218 	 75.1173
|  8> C 	 -42.4861 	 14.5104 	 76.1004
|  9> C 	 -42.3825 	 15.5819 	 76.9366
| 10> C 	 -43.4957 	 16.4977 	 76.8296
| 11> C 	 -44.33 	 16.2437 	 75.7843
| 12> H 	 -43.5988 	 17.3732 	 77.4741
| 13> C 	 -41.302 	 15.8597 	 77.9558
| 14> H 	 -40.6945 	 14.9606 	 78.2298
| 15> H 	 -41.8065 	 16.1159 	 78.9009
| 16> C 	 -40.3159 	 16.9196 	 77.5333
| 17> H 	 -39.7114 	 16.612 	 76.6426
| 18> H 	 -40.9215 	 17.7953 	 77.1016
| 19> C 	 -39.1909 	 17.2542 	 78.5788
| 20> H 	 -38.7272 	 16.3894 	 78.9419
| 21> H 	 -38.3853 	 17.812 	 78.2345
| 22> H 	 -39.5607 	 17.8067 	 79.4093
| 23> S 	 -47.0632 	 16.2117 	 75.5032
| 24> C 	 -47.8824 	 17.5719 	 74.8322
| 25> C 	 -46.9987 	 18.6271 	 74.6027
| 26> C 	 -45.6657 	 18.3036 	 75.0107
| 27> C 	 -45.5026 	 17.0194 	 75.3997
| 28> H 	 -47.3338 	 19.5306 	 74.1183
| 29> C 	 -44.6096 	 19.3696 	 74.9673
| 30> H 	 -44.6386 	 19.8389 	 73.9796
| 31> H 	 -43.6163 	 18.847 	 75.1211
| 32> C 	 -44.8711 	 20.5246 	 75.9459
| 33> H 	 -45.2405 	 20.1625 	 76.967
| 34> H 	 -45.7377 	 21.1059 	 75.4906
| 35> C 	 -43.6255 	 21.3553 	 76.1681
| 36> H 	 -42.8129 	 20.9215 	 76.7534
| 37> H 	 -43.9462 	 22.1556 	 76.8289
| 38> H 	 -43.1372 	 21.7322 	 75.3115
| 39> H 	 -41.6427 	 13.8406 	 75.8797
| 40> H 	 -48.9054 	 17.5662 	 74.5587
| 41> *
| 42>
| 43>                          ****END OF INPUT****

CARTESIAN COORDINATES (ANGSTROEM)
---------------------------------
  S    -44.000100   14.621800   75.117300
  C    -42.486100   14.510400   76.100400
  C    -42.382500   15.581900   76.936600
  C    -43.495700   16.497700   76.829600
  C    -44.330000   16.243700   75.784300
  H    -43.598800   17.373200   77.474100
  C    -41.302000   15.859700   77.955800
  H    -40.694500   14.960600   78.229800
  H    -41.806500   16.115900   78.900900
  C    -40.315900   16.919600   77.533300
  H    -39.711400   16.612000   76.642600
  H    -40.921500   17.795300   77.101600
  C    -39.190900   17.254200   78.578800
  H    -38.727200   16.389400   78.941900
  H    -38.385300   17.812000   78.234500
  H    -39.560700   17.806700   79.409300
  S    -47.063200   16.211700   75.503200
  C    -47.882400   17.571900   74.832200
  C    -46.998700   18.627100   74.602700
  C    -45.665700   18.303600   75.010700
  C    -45.502600   17.019400   75.399700
  H    -47.333800   19.530600   74.118300
  C    -44.609600   19.369600   74.967300
  H    -44.638600   19.838900   73.979600
  H    -43.616300   18.847000   75.121100
  C    -44.871100   20.524600   75.945900
  H    -45.240500   20.162500   76.967000
  H    -45.737700   21.105900   75.490600
  C    -43.625500   21.355300   76.168100
  H    -42.812900   20.921500   76.753400
  H    -43.946200   22.155600   76.828900
  H    -43.137200   21.732200   75.311500
  H    -41.642700   13.840600   75.879700
  H    -48.905400   17.566200   74.558700

 Total Charge           Charge          ....    0
 Multiplicity           Mult            ....    1
 Number of Electrons    NEL             ....  134
 Basis Dimension        Dim             ....  322

ORBITAL ENERGIES
----------------

  NO   OCC          E(Eh)            E(eV)
   0   2.0000     -88.964951     -2420.8594
   1   2.0000     -88.961796     -2420.7735
   2   2.0000     -10.332476      -281.1610
   3   2.0000     -10.321869      -280.8723
   4   2.0000     -10.318703      -280.7862
   5   2.0000     -10.314733      -280.6781
   6   2.0000     -10.302614      -280.3484
   7   2.0000     -10.298281      -280.2305
   8   2.0000     -10.297923      -280.2207
   9   2.0000     -10.297273      -280.2030
  10   2.0000     -10.296596      -280.1846
  11   2.0000     -10.295427      -280.1528
  12   2.0000     -10.293146      -280.0907
  13   2.0000     -10.291048      -280.0336
  14   2.0000     -10.274319      -279.5784
  15   2.0000     -10.270956      -279.4869
  16   2.0000      -8.078436      -219.8254
  17   2.0000      -8.077167      -219.7909
  18   2.0000      -6.037230      -164.2814
  19   2.0000      -6.035735      -164.2407
  20   2.0000      -6.033268      -164.1736
  21   2.0000      -6.031543      -164.1266
  22   2.0000      -6.028796      -164.0519
  23   2.0000      -6.027862      -164.0265
  24   2.0000      -1.007090       -27.4043
  25   2.0000      -0.982624       -26.7386
  26   2.0000      -0.911604       -24.8060
  27   2.0000      -0.910355       -24.7720
  28   2.0000      -0.869633       -23.6639
  29   2.0000      -0.854012       -23.2389
  30   2.0000      -0.842883       -22.9360
  31   2.0000      -0.815005       -22.1774
  32   2.0000      -0.785631       -21.3781
  33   2.0000      -0.777329       -21.1522
  34   2.0000      -0.705016       -19.1845
  35   2.0000      -0.700688       -19.0667
  36   2.0000      -0.695434       -18.9237
  37   2.0000      -0.664520       -18.0825
  38   2.0000      -0.638783       -17.3822
  39   2.0000      -0.621635       -16.9156
  40   2.0000      -0.595571       -16.2063
  41   2.0000      -0.568223       -15.4621
  42   2.0000      -0.562895       -15.3172
  43   2.0000      -0.555241       -15.1089
  44   2.0000      -0.530261       -14.4291
  45   2.0000      -0.526704       -14.3323
  46   2.0000      -0.521065       -14.1789
  47   2.0000      -0.510850       -13.9009
  48   2.0000      -0.508539       -13.8380
  49   2.0000      -0.504448       -13.7267
  50   2.0000      -0.491979       -13.3874
  51   2.0000      -0.484912       -13.1951
  52   2.0000      -0.473368       -12.8810
  53   2.0000      -0.468399       -12.7458
  54   2.0000      -0.462073       -12.5737
  55   2.0000      -0.446469       -12.1490
  56   2.0000      -0.440675       -11.9914
  57   2.0000      -0.438132       -11.9222
  58   2.0000      -0.434961       -11.8359
  59   2.0000      -0.423440       -11.5224
  60   2.0000      -0.423090       -11.5129
  61   2.0000      -0.410126       -11.1601
  62   2.0000      -0.406045       -11.0491
  63   2.0000      -0.344838        -9.3835
  64   2.0000      -0.331525        -9.0212
  65   2.0000      -0.326734        -8.8909
  66   2.0000      -0.298624        -8.1260
  67   0.0000       0.032767         0.8916
  68   0.0000       0.066335         1.8051
  69   0.0000       0.108461         2.9514
  70   0.0000       0.120837         3.2881
  71   0.0000       0.123954         3.3730

MULLIKEN ATOMIC CHARGES
-----------------------
   0 S :    0.089508
   1 C :   -0.125686
   2 C :   -0.077908
   3 C :    0.031833
   4 C :   -0.143688
   5 H :    0.021237
   6 C :    0.056932
   7 H :    0.021443
   8 H :    0.035213
   9 C :   -0.122288
  10 H :    0.032186
  11 H :    0.036236
  12 C :    0.015513
  13 H :    0.011751
  14 H :    0.016721
  15 H :    0.021458
  16 S :    0.104086
  17 C :   -0.079857
  18 C :   -0.042176
  19 C :   -0.023678
  20 C :   -0.158395
  21 H :    0.019230
  22 C :    0.059511
  23 H :    0.028311
  24 H :    0.037434
  25 C :   -0.123269
  26 H :    0.042296
  27 H :    0.041733
  28 C :   -0.014748
  29 H :    0.027342
  30 H :    0.027739
  31 H :    0.022775
  32 H :    0.062811
  33 H :    0.048394
Sum of atomic charges:   -0.0000000

LOEWDIN ATOMIC CHARGES
----------------------
   0 S :    0.361302
   1 C :   -0.180522
   2 C :   -0.061395
   3 C :   -0.059242
   4 C :   -0.175418
   5 H :    0.033734
   6 C :   -0.039270
   7 H :    0.031911
   8 H :    0.034707
   9 C :   -0.049130
  10 H :    0.028704
  11 H :    0.027835
  12 C :   -0.056977
  13 H :    0.020577
  14 H :    0.020829
  15 H :    0.021365
  16 S :    0.407865
  17 C :   -0.180873
  18 C :   -0.071442
  19 C :   -0.057079
  20 C :   -0.199790
  21 H :    0.029970
  22 C :   -0.037985
  23 H :    0.032733
  24 H :    0.033306
  25 C :   -0.045208
  26 H :    0.030506
  27 H :    0.030603
  28 C :   -0.067845
  29 H :    0.027611
  30 H :    0.029722
  31 H :    0.018991
  32 H :    0.037210
  33 H :    0.022695

  Mayer bond orders larger than 0.100000
B(  0-S ,  1-C ) :   1.1029 B(  0-S ,  4-C ) :   1.1267 B(  1-C ,  2-C ) :   1.6754
B(  1-C , 32-H ) :   0.9600 B(  2-C ,  3-C ) :   1.1946 B(  2-C ,  6-C ) :   1.0242
B(  3-C ,  4-C ) :   1.6110 B(  3-C ,  5-H ) :   0.9900 B(  4-C , 20-C ) :   1.0201
B(  6-C ,  7-H ) :   0.9402 B(  6-C ,  8-H ) :   0.9404 B(  6-C ,  9-C ) :   1.0576
B(  9-C , 10-H ) :   0.9554 B(  9-C , 11-H ) :   0.9578 B(  9-C , 12-C ) :   1.0689
B( 12-C , 13-H ) :   0.9698 B( 12-C , 14-H ) :   0.9750 B( 12-C , 15-H ) :   0.9761
B( 16-S , 17-C ) :   1.1647 B( 16-S , 20-C ) :   1.1271 B( 17-C , 18-C ) :   1.6040
B( 17-C , 33-H ) :   0.9723 B( 18-C , 19-C ) :   1.2133 B( 18-C , 21-H ) :   0.9950
B( 19-C , 20-C ) :   1.6425 B( 19-C , 22-C ) :   1.0573 B( 22-C , 23-H ) :   0.9252
B( 22-C , 24-H ) :   0.9409 B( 22-C , 25-C ) :   1.0485 B( 25-C , 26-H ) :   0.9579
B( 25-C , 27-H ) :   0.9497 B( 25-C , 28-C ) :   1.0884 B( 28-C , 29-H ) :   0.9725
B( 28-C , 30-H ) :   0.9706 B( 28-C , 31-H ) :   0.9713

Dispersion correction           -0.014072234
FINAL SINGLE POINT ENERGY     -1339.878355310657

DIPOLE MOMENT
-------------
                                X             Y             Z
Electronic contribution:    -22.32280     -21.49841     -11.05154
Nuclear contribution   :     22.77814      22.13140      11.27286
                        -----------------------------------------
Total Dipole Moment    :      0.45534       0.63299       0.22132
                        -----------------------------------------
Magnitude (a.u.)       :      0.81055
Magnitude (Debye)      :      2.06025

Rotational constants in cm-1:     0.017057     0.009347     0.006415
Rotational constants in MHz :   511.368718   280.226943   192.319970

                             ****ORCA TERMINATED NORMALLY****
TOTAL RUN TIME: 0 days 0 hours 0 minutes 28 seconds 77 msec
