                         Program Version 4.2.1 -  RELEASE  -
|  1> ! wB97X-D3 SP def2-SVP
|  2> %pal
|  3> nprocs 16
|  4> end
|  5>
|  6> * xyz 0 1
|  7> S 	 13.542 	 26.3004 	 47.7282
|  8> C 	 14.1662 	 24.7425 	 47.805
|  9> C 	 13.201 	 23.7571 	 47.8567
| 10> C 	 11.9264 	 24.3964 	 47.5945
| 11> C 	 11.9352 	 25.7585 	 47.4919
| 12> H 	 11.0604 	 23.8193 	 47.4522
| 13> C 	 13.3498 	 22.2847 	 48.1081
| 14> H 	 14.337 	 22.1043 	 48.3956
| 15> H 	 13.1254 	 21.7762 	 47.1725
| 16> C 	 12.4583 	 21.7448 	 49.1744
| 17> H 	 12.6725 	 22.2202 	 50.1332
| 18> H 	 11.4398 	 21.9897 	 48.845
| 19> C 	 12.3443 	 20.2471 	 49.3259
| 20> H 	 13.2434 	 19.8232 	 49.7127
| 21> H 	 11.4693 	 19.9964 	 49.956
| 22> H 	 12.1216 	 19.8838 	 48.3243
| 23> S 	 10.9745 	 28.1743 	 46.7545
| 24> C 	 9.32511 	 28.5691 	 47.0599
| 25> C 	 8.75492 	 27.5824 	 47.8072
| 26> C 	 9.56264 	 26.4109 	 47.9995
| 27> C 	 10.7785 	 26.578 	 47.3581
| 28> H 	 7.74707 	 27.7953 	 48.1639
| 29> C 	 9.1073 	 25.1753 	 48.9222
| 30> H 	 8.55371 	 25.5712 	 49.7318
| 31> H 	 10.0274 	 24.7213 	 49.4167
| 32> C 	 8.32107 	 24.0625 	 48.1557
| 33> H 	 9.03171 	 23.3287 	 47.6883
| 34> H 	 7.72496 	 24.4381 	 47.3313
| 35> C 	 7.4569 	 23.3292 	 49.1004
| 36> H 	 7.912 	 23.0354 	 50.0619
| 37> H 	 7.02662 	 22.3834 	 48.7296
| 38> H 	 6.57696 	 23.9695 	 49.277
| 39> H 	 15.1872 	 24.5243 	 48.0534
| 40> H 	 8.88694 	 29.5797 	 46.8933
| 41> *
| 42>
| 43>                          ****END OF INPUT****

CARTESIAN COORDINATES (ANGSTROEM)
---------------------------------
  S     13.542000   26.300400   47.728200
  C     14.166200   24.742500   47.805000
  C     13.201000   23.757100   47.856700
  C     11.926400   24.396400   47.594500
  C     11.935200   25.758500   47.491900
  H     11.060400   23.819300   47.452200
  C     13.349800   22.284700   48.108100
  H     14.337000   22.104300   48.395600
  H     13.125400   21.776200   47.172500
  C     12.458300   21.744800   49.174400
  H     12.672500   22.220200   50.133200
  H     11.439800   21.989700   48.845000
  C     12.344300   20.247100   49.325900
  H     13.243400   19.823200   49.712700
  H     11.469300   19.996400   49.956000
  H     12.121600   19.883800   48.324300
  S     10.974500   28.174300   46.754500
  C      9.325110   28.569100   47.059900
  C      8.754920   27.582400   47.807200
  C      9.562640   26.410900   47.999500
  C     10.778500   26.578000   47.358100
  H      7.747070   27.795300   48.163900
  C      9.107300   25.175300   48.922200
  H      8.553710   25.571200   49.731800
  H     10.027400   24.721300   49.416700
  C      8.321070   24.062500   48.155700
  H      9.031710   23.328700   47.688300
  H      7.724960   24.438100   47.331300
  C      7.456900   23.329200   49.100400
  H      7.912000   23.035400   50.061900
  H      7.026620   22.383400   48.729600
  H      6.576960   23.969500   49.277000
  H     15.187200   24.524300   48.053400
  H      8.886940   29.579700   46.893300

 Total Charge           Charge          ....    0
 Multiplicity           Mult            ....    1
 Number of Electrons    NEL             ....  134
 Basis Dimension        Dim             ....  322

ORBITAL ENERGIES
----------------

  NO   OCC          E(Eh)            E(eV)
   0   2.0000     -88.963394     -2420.8170
   1   2.0000     -88.963015     -2420.8067
   2   2.0000     -10.322076      -280.8780
   3   2.0000     -10.319023      -280.7949
   4   2.0000     -10.315425      -280.6970
   5   2.0000     -10.308518      -280.5090
   6   2.0000     -10.304674      -280.4044
   7   2.0000     -10.302891      -280.3559
   8   2.0000     -10.297013      -280.1960
   9   2.0000     -10.293417      -280.0981
  10   2.0000     -10.290160      -280.0095
  11   2.0000     -10.285799      -279.8908
  12   2.0000     -10.282390      -279.7981
  13   2.0000     -10.282366      -279.7974
  14   2.0000     -10.278949      -279.7044
  15   2.0000     -10.278253      -279.6855
  16   2.0000      -8.080104      -219.8708
  17   2.0000      -8.079161      -219.8451
  18   2.0000      -6.038560      -164.3176
  19   2.0000      -6.037600      -164.2915
  20   2.0000      -6.034355      -164.2031
  21   2.0000      -6.033536      -164.1809
  22   2.0000      -6.030787      -164.1061
  23   2.0000      -6.029856      -164.0807
  24   2.0000      -1.018596       -27.7174
  25   2.0000      -0.993637       -27.0382
  26   2.0000      -0.924529       -25.1577
  27   2.0000      -0.908905       -24.7326
  28   2.0000      -0.878894       -23.9159
  29   2.0000      -0.856700       -23.3120
  30   2.0000      -0.847498       -23.0616
  31   2.0000      -0.816234       -22.2109
  32   2.0000      -0.785884       -21.3850
  33   2.0000      -0.774186       -21.0667
  34   2.0000      -0.707146       -19.2424
  35   2.0000      -0.697495       -18.9798
  36   2.0000      -0.690224       -18.7819
  37   2.0000      -0.663607       -18.0577
  38   2.0000      -0.636846       -17.3295
  39   2.0000      -0.629434       -17.1278
  40   2.0000      -0.595080       -16.1929
  41   2.0000      -0.583883       -15.8883
  42   2.0000      -0.566576       -15.4173
  43   2.0000      -0.563844       -15.3430
  44   2.0000      -0.529135       -14.3985
  45   2.0000      -0.525186       -14.2910
  46   2.0000      -0.521813       -14.1992
  47   2.0000      -0.514187       -13.9918
  48   2.0000      -0.511518       -13.9191
  49   2.0000      -0.502984       -13.6869
  50   2.0000      -0.500451       -13.6180
  51   2.0000      -0.485792       -13.2191
  52   2.0000      -0.469136       -12.7658
  53   2.0000      -0.467210       -12.7134
  54   2.0000      -0.460374       -12.5274
  55   2.0000      -0.450157       -12.2494
  56   2.0000      -0.447808       -12.1855
  57   2.0000      -0.435138       -11.8407
  58   2.0000      -0.433013       -11.7829
  59   2.0000      -0.429428       -11.6853
  60   2.0000      -0.417767       -11.3680
  61   2.0000      -0.415766       -11.3136
  62   2.0000      -0.412240       -11.2176
  63   2.0000      -0.361569        -9.8388
  64   2.0000      -0.331649        -9.0246
  65   2.0000      -0.325850        -8.8668
  66   2.0000      -0.286759        -7.8031
  67   0.0000       0.030523         0.8306
  68   0.0000       0.087468         2.3801
  69   0.0000       0.111438         3.0324
  70   0.0000       0.119787         3.2596
  71   0.0000       0.129214         3.5161

MULLIKEN ATOMIC CHARGES
-----------------------
   0 S :    0.120985
   1 C :   -0.110379
   2 C :   -0.109521
   3 C :    0.002404
   4 C :   -0.092462
   5 H :   -0.045734
   6 C :    0.160602
   7 H :   -0.007467
   8 H :    0.027800
   9 C :   -0.127396
  10 H :    0.032258
  11 H :    0.014834
  12 C :   -0.012763
  13 H :    0.028978
  14 H :    0.040890
  15 H :    0.017377
  16 S :    0.098626
  17 C :   -0.104283
  18 C :   -0.045481
  19 C :   -0.037275
  20 C :   -0.141706
  21 H :    0.018481
  22 C :    0.040982
  23 H :    0.018817
  24 H :    0.052181
  25 C :   -0.051755
  26 H :    0.039097
  27 H :    0.036714
  28 C :   -0.068434
  29 H :    0.034091
  30 H :    0.028180
  31 H :    0.032174
  32 H :    0.035954
  33 H :    0.073234
Sum of atomic charges:   -0.0000000

LOEWDIN ATOMIC CHARGES
----------------------
   0 S :    0.443273
   1 C :   -0.218334
   2 C :   -0.058482
   3 C :   -0.060869
   4 C :   -0.206183
   5 H :    0.013425
   6 C :   -0.025604
   7 H :    0.020072
   8 H :    0.035006
   9 C :   -0.044408
  10 H :    0.023862
  11 H :    0.021813
  12 C :   -0.056780
  13 H :    0.017558
  14 H :    0.033147
  15 H :    0.023796
  16 S :    0.422480
  17 C :   -0.202209
  18 C :   -0.076160
  19 C :   -0.051494
  20 C :   -0.205255
  21 H :    0.032003
  22 C :   -0.021615
  23 H :    0.022411
  24 H :    0.041569
  25 C :   -0.045307
  26 H :    0.023694
  27 H :    0.027150
  28 C :   -0.072644
  29 H :    0.025988
  30 H :    0.025979
  31 H :    0.027715
  32 H :    0.023759
  33 H :    0.040645

  Mayer bond orders larger than 0.100000
B(  0-S ,  1-C ) :   1.1603 B(  0-S ,  4-C ) :   1.1455 B(  1-C ,  2-C ) :   1.6031
B(  1-C , 32-H ) :   0.9621 B(  2-C ,  3-C ) :   1.2466 B(  2-C ,  6-C ) :   1.0370
B(  3-C ,  4-C ) :   1.5557 B(  3-C ,  5-H ) :   1.0086 B(  4-C , 20-C ) :   1.0859
B(  6-C ,  7-H ) :   0.9268 B(  6-C ,  8-H ) :   0.9246 B(  6-C ,  9-C ) :   1.0764
B(  9-C , 10-H ) :   0.9554 B(  9-C , 11-H ) :   0.9521 B(  9-C , 12-C ) :   1.0894
B( 12-C , 13-H ) :   0.9752 B( 12-C , 14-H ) :   0.9738 B( 12-C , 15-H ) :   0.9702
B( 16-S , 17-C ) :   1.1507 B( 16-S , 20-C ) :   1.1519 B( 17-C , 18-C ) :   1.6151
B( 17-C , 33-H ) :   0.9638 B( 18-C , 19-C ) :   1.2468 B( 18-C , 21-H ) :   0.9911
B( 19-C , 20-C ) :   1.5664 B( 19-C , 22-C ) :   1.0204 B( 22-C , 23-H ) :   0.9502
B( 22-C , 24-H ) :   0.9285 B( 22-C , 25-C ) :   1.0454 B( 25-C , 26-H ) :   0.9452
B( 25-C , 27-H ) :   0.9588 B( 25-C , 28-C ) :   1.0888 B( 28-C , 29-H ) :   0.9720
B( 28-C , 30-H ) :   0.9708 B( 28-C , 31-H ) :   0.9742

Dispersion correction           -0.014478640
FINAL SINGLE POINT ENERGY     -1339.880324297215

DIPOLE MOMENT
-------------
                                X             Y             Z
Electronic contribution:     12.60548      30.20677     -11.32369
Nuclear contribution   :    -13.01455     -30.72028      11.76240
                        -----------------------------------------
Total Dipole Moment    :     -0.40907      -0.51350       0.43872
                        -----------------------------------------
Magnitude (a.u.)       :      0.78962
Magnitude (Debye)      :      2.00705

Rotational constants in cm-1:     0.017235     0.010316     0.006657
Rotational constants in MHz :   516.687606   309.254742   199.560595

                             ****ORCA TERMINATED NORMALLY****
TOTAL RUN TIME: 0 days 0 hours 0 minutes 35 seconds 925 msec
