                         Program Version 4.2.1 -  RELEASE  -
|  1> ! wB97X-D3 SP def2-SVP
|  2> %pal
|  3> nprocs 16
|  4> end
|  5>
|  6> * xyz 0 1
|  7> S 	 -42.6499 	 37.0559 	 75.207
|  8> C 	 -43.9062 	 37.3968 	 76.3585
|  9> C 	 -43.3959 	 37.7451 	 77.6393
| 10> C 	 -41.9563 	 37.7572 	 77.6735
| 11> C 	 -41.4174 	 37.4309 	 76.408
| 12> H 	 -41.2389 	 38.0425 	 78.4207
| 13> C 	 -44.2136 	 37.974 	 78.855
| 14> H 	 -43.5279 	 38.014 	 79.683
| 15> H 	 -44.8584 	 37.1086 	 79.0106
| 16> C 	 -44.9141 	 39.3186 	 78.9668
| 17> H 	 -44.2365 	 40.1824 	 78.6453
| 18> H 	 -45.776 	 39.2993 	 78.2856
| 19> C 	 -45.6074 	 39.633 	 80.295
| 20> H 	 -45.8092 	 40.6737 	 80.4176
| 21> H 	 -46.4257 	 38.8884 	 80.3953
| 22> H 	 -44.8966 	 39.389 	 81.0593
| 23> S 	 -39.276 	 38.6408 	 75.1707
| 24> C 	 -37.7949 	 37.8405 	 75.1753
| 25> C 	 -37.7986 	 36.663 	 75.9025
| 26> C 	 -39.0982 	 36.409 	 76.4597
| 27> C 	 -40.0548 	 37.346 	 76.0516
| 28> H 	 -37.0029 	 36.0752 	 75.952
| 29> C 	 -39.3023 	 35.0765 	 77.2562
| 30> H 	 -39.2081 	 35.3802 	 78.3398
| 31> H 	 -38.421 	 34.4049 	 77.2094
| 32> C 	 -40.6731 	 34.3066 	 77.0498
| 33> H 	 -41.4626 	 35.0307 	 77.3718
| 34> H 	 -40.6957 	 33.4906 	 77.7578
| 35> C 	 -41.0866 	 33.9214 	 75.6499
| 36> H 	 -41.442 	 34.7626 	 75.0092
| 37> H 	 -41.9562 	 33.3006 	 75.7758
| 38> H 	 -40.291 	 33.5044 	 75.0475
| 39> H 	 -44.945 	 37.331 	 76.1873
| 40> H 	 -36.9087 	 38.1728 	 74.6868
| 41> *
| 42>
| 43>                          ****END OF INPUT****

CARTESIAN COORDINATES (ANGSTROEM)
---------------------------------
  S    -42.649900   37.055900   75.207000
  C    -43.906200   37.396800   76.358500
  C    -43.395900   37.745100   77.639300
  C    -41.956300   37.757200   77.673500
  C    -41.417400   37.430900   76.408000
  H    -41.238900   38.042500   78.420700
  C    -44.213600   37.974000   78.855000
  H    -43.527900   38.014000   79.683000
  H    -44.858400   37.108600   79.010600
  C    -44.914100   39.318600   78.966800
  H    -44.236500   40.182400   78.645300
  H    -45.776000   39.299300   78.285600
  C    -45.607400   39.633000   80.295000
  H    -45.809200   40.673700   80.417600
  H    -46.425700   38.888400   80.395300
  H    -44.896600   39.389000   81.059300
  S    -39.276000   38.640800   75.170700
  C    -37.794900   37.840500   75.175300
  C    -37.798600   36.663000   75.902500
  C    -39.098200   36.409000   76.459700
  C    -40.054800   37.346000   76.051600
  H    -37.002900   36.075200   75.952000
  C    -39.302300   35.076500   77.256200
  H    -39.208100   35.380200   78.339800
  H    -38.421000   34.404900   77.209400
  C    -40.673100   34.306600   77.049800
  H    -41.462600   35.030700   77.371800
  H    -40.695700   33.490600   77.757800
  C    -41.086600   33.921400   75.649900
  H    -41.442000   34.762600   75.009200
  H    -41.956200   33.300600   75.775800
  H    -40.291000   33.504400   75.047500
  H    -44.945000   37.331000   76.187300
  H    -36.908700   38.172800   74.686800

 Total Charge           Charge          ....    0
 Multiplicity           Mult            ....    1
 Number of Electrons    NEL             ....  134
 Basis Dimension        Dim             ....  322

ORBITAL ENERGIES
----------------

  NO   OCC          E(Eh)            E(eV)
   0   2.0000     -88.971108     -2421.0269
   1   2.0000     -88.964952     -2420.8594
   2   2.0000     -10.325718      -280.9771
   3   2.0000     -10.318174      -280.7718
   4   2.0000     -10.314023      -280.6588
   5   2.0000     -10.309701      -280.5412
   6   2.0000     -10.306810      -280.4626
   7   2.0000     -10.305519      -280.4274
   8   2.0000     -10.299966      -280.2763
   9   2.0000     -10.298732      -280.2427
  10   2.0000     -10.288231      -279.9570
  11   2.0000     -10.288008      -279.9509
  12   2.0000     -10.282652      -279.8052
  13   2.0000     -10.281114      -279.7633
  14   2.0000     -10.276445      -279.6363
  15   2.0000     -10.265822      -279.3472
  16   2.0000      -8.084970      -220.0032
  17   2.0000      -8.080961      -219.8941
  18   2.0000      -6.043389      -164.4490
  19   2.0000      -6.039432      -164.3413
  20   2.0000      -6.039310      -164.3380
  21   2.0000      -6.036028      -164.2487
  22   2.0000      -6.035212      -164.2265
  23   2.0000      -6.031897      -164.1363
  24   2.0000      -1.007691       -27.4207
  25   2.0000      -0.982401       -26.7325
  26   2.0000      -0.916154       -24.9298
  27   2.0000      -0.895084       -24.3565
  28   2.0000      -0.871374       -23.7113
  29   2.0000      -0.853956       -23.2373
  30   2.0000      -0.848136       -23.0790
  31   2.0000      -0.811823       -22.0908
  32   2.0000      -0.785328       -21.3699
  33   2.0000      -0.768393       -20.9090
  34   2.0000      -0.707675       -19.2568
  35   2.0000      -0.695667       -18.9301
  36   2.0000      -0.682476       -18.5711
  37   2.0000      -0.666844       -18.1457
  38   2.0000      -0.647938       -17.6313
  39   2.0000      -0.612708       -16.6726
  40   2.0000      -0.590202       -16.0602
  41   2.0000      -0.573771       -15.6131
  42   2.0000      -0.567195       -15.4342
  43   2.0000      -0.542861       -14.7720
  44   2.0000      -0.540546       -14.7090
  45   2.0000      -0.532943       -14.5021
  46   2.0000      -0.517613       -14.0850
  47   2.0000      -0.509232       -13.8569
  48   2.0000      -0.503270       -13.6947
  49   2.0000      -0.500697       -13.6247
  50   2.0000      -0.489703       -13.3255
  51   2.0000      -0.480002       -13.0615
  52   2.0000      -0.474017       -12.8987
  53   2.0000      -0.465300       -12.6615
  54   2.0000      -0.460300       -12.5254
  55   2.0000      -0.449803       -12.2398
  56   2.0000      -0.447108       -12.1664
  57   2.0000      -0.435176       -11.8417
  58   2.0000      -0.427477       -11.6322
  59   2.0000      -0.426218       -11.5980
  60   2.0000      -0.411610       -11.2005
  61   2.0000      -0.405707       -11.0398
  62   2.0000      -0.403395       -10.9769
  63   2.0000      -0.336724        -9.1627
  64   2.0000      -0.326939        -8.8965
  65   2.0000      -0.321160        -8.7392
  66   2.0000      -0.300122        -8.1667
  67   0.0000       0.035594         0.9686
  68   0.0000       0.058766         1.5991
  69   0.0000       0.111448         3.0326
  70   0.0000       0.125257         3.4084
  71   0.0000       0.128566         3.4985

MULLIKEN ATOMIC CHARGES
-----------------------
   0 S :    0.128290
   1 C :   -0.089906
   2 C :   -0.100065
   3 C :    0.065545
   4 C :   -0.221470
   5 H :    0.014735
   6 C :    0.092004
   7 H :    0.002073
   8 H :    0.035752
   9 C :   -0.124867
  10 H :    0.044891
  11 H :    0.022331
  12 C :   -0.010463
  13 H :    0.041193
  14 H :    0.034129
  15 H :    0.008083
  16 S :    0.138111
  17 C :   -0.070718
  18 C :    0.003309
  19 C :    0.010476
  20 C :   -0.200022
  21 H :   -0.042236
  22 C :    0.031070
  23 H :    0.035952
  24 H :    0.022622
  25 C :   -0.069130
  26 H :    0.043084
  27 H :    0.024774
  28 C :   -0.026220
  29 H :    0.026595
  30 H :    0.030995
  31 H :    0.025328
  32 H :    0.029085
  33 H :    0.044668
Sum of atomic charges:   -0.0000000

LOEWDIN ATOMIC CHARGES
----------------------
   0 S :    0.439224
   1 C :   -0.199484
   2 C :   -0.057860
   3 C :   -0.049881
   4 C :   -0.196599
   5 H :    0.034716
   6 C :   -0.038024
   7 H :    0.026430
   8 H :    0.034391
   9 C :   -0.048095
  10 H :    0.032742
  11 H :    0.018867
  12 C :   -0.062265
  13 H :    0.027695
  14 H :    0.030986
  15 H :    0.016542
  16 S :    0.441047
  17 C :   -0.194277
  18 C :   -0.059771
  19 C :   -0.039980
  20 C :   -0.231689
  21 H :    0.005486
  22 C :   -0.039098
  23 H :    0.039392
  24 H :    0.027949
  25 C :   -0.046750
  26 H :    0.033701
  27 H :    0.021767
  28 C :   -0.073362
  29 H :    0.014143
  30 H :    0.028241
  31 H :    0.020429
  32 H :    0.018664
  33 H :    0.024724

  Mayer bond orders larger than 0.100000
B(  0-S ,  1-C ) :   1.1543 B(  0-S ,  4-C ) :   1.1677 B(  1-C ,  2-C ) :   1.5759
B(  1-C ,  4-C ) :   0.1047 B(  1-C , 32-H ) :   0.9762 B(  2-C ,  3-C ) :   1.2414
B(  2-C ,  6-C ) :   1.0339 B(  3-C ,  4-C ) :   1.5666 B(  3-C ,  5-H ) :   0.9942
B(  4-C , 20-C ) :   1.0504 B(  6-C ,  7-H ) :   0.9334 B(  6-C ,  8-H ) :   0.9337
B(  6-C ,  9-C ) :   1.0604 B(  9-C , 10-H ) :   0.9559 B(  9-C , 11-H ) :   0.9573
B(  9-C , 12-C ) :   1.0793 B( 12-C , 13-H ) :   0.9733 B( 12-C , 14-H ) :   0.9742
B( 12-C , 15-H ) :   0.9740 B( 16-S , 17-C ) :   1.1854 B( 16-S , 20-C ) :   1.1460
B( 17-C , 18-C ) :   1.5796 B( 17-C , 33-H ) :   0.9678 B( 18-C , 19-C ) :   1.2523
B( 18-C , 21-H ) :   1.0153 B( 19-C , 20-C ) :   1.5734 B( 19-C , 22-C ) :   1.0191
B( 22-C , 23-H ) :   0.9313 B( 22-C , 24-H ) :   0.9474 B( 22-C , 25-C ) :   1.0682
B( 25-C , 26-H ) :   0.9450 B( 25-C , 27-H ) :   0.9548 B( 25-C , 28-C ) :   1.0820
B( 28-C , 29-H ) :   0.9611 B( 28-C , 30-H ) :   0.9707 B( 28-C , 31-H ) :   0.9748

Dispersion correction           -0.015583764
FINAL SINGLE POINT ENERGY     -1339.865852382751

DIPOLE MOMENT
-------------
                                X             Y             Z
Electronic contribution:     12.67893       6.78303     -17.54839
Nuclear contribution   :    -12.70258      -6.93257      18.04143
                        -----------------------------------------
Total Dipole Moment    :     -0.02365      -0.14954       0.49304
                        -----------------------------------------
Magnitude (a.u.)       :      0.51576
Magnitude (Debye)      :      1.31096

Rotational constants in cm-1:     0.022093     0.007984     0.007225
Rotational constants in MHz :   662.327214   239.347391   216.611927

                             ****ORCA TERMINATED NORMALLY****
TOTAL RUN TIME: 0 days 0 hours 0 minutes 29 seconds 719 msec
