                         Program Version 4.2.1 -  RELEASE  -
|  1> ! wB97X-D3 SP def2-SVP
|  2> %pal
|  3> nprocs 16
|  4> end
|  5>
|  6> * xyz 0 1
|  7> S 	 27.8971 	 9.07858 	 76.7534
|  8> C 	 29.0368 	 9.14014 	 78.1351
|  9> C 	 29.2715 	 7.89135 	 78.6328
| 10> C 	 28.3899 	 6.87941 	 78.0426
| 11> C 	 27.6414 	 7.36555 	 77.014
| 12> H 	 28.2843 	 5.87561 	 78.3645
| 13> C 	 30.1772 	 7.61823 	 79.8581
| 14> H 	 29.5297 	 6.98381 	 80.401
| 15> H 	 30.3348 	 8.39826 	 80.6629
| 16> C 	 31.4333 	 6.79171 	 79.5147
| 17> H 	 31.8947 	 6.41265 	 80.4635
| 18> H 	 31.2053 	 5.77092 	 79.0303
| 19> C 	 32.4853 	 7.51929 	 78.6254
| 20> H 	 33.2337 	 6.7386 	 78.3705
| 21> H 	 32.0285 	 7.99351 	 77.7276
| 22> H 	 33.1218 	 8.27654 	 79.0929
| 23> S 	 26.7054 	 7.00315 	 74.3609
| 24> C 	 25.6634 	 5.66599 	 73.9997
| 25> C 	 25.4067 	 4.8869 	 75.1037
| 26> C 	 25.9699 	 5.41899 	 76.2776
| 27> C 	 26.75 	 6.59212 	 76.1309
| 28> H 	 24.6445 	 4.08804 	 75.0656
| 29> C 	 25.5532 	 4.83278 	 77.5978
| 30> H 	 24.5247 	 4.56583 	 77.6595
| 31> H 	 25.7217 	 5.51616 	 78.3976
| 32> C 	 26.3528 	 3.60413 	 77.9193
| 33> H 	 27.3941 	 3.84642 	 77.7948
| 34> H 	 26.2223 	 2.93206 	 77.0794
| 35> C 	 26.0915 	 2.93548 	 79.2739
| 36> H 	 25.063 	 2.6711 	 79.5291
| 37> H 	 26.3457 	 3.72863 	 80.0223
| 38> H 	 26.8156 	 2.17358 	 79.7214
| 39> H 	 29.6154 	 9.9825 	 78.4401
| 40> H 	 25.3559 	 5.41154 	 73.0584
| 41> *
| 42>
| 43>                          ****END OF INPUT****

CARTESIAN COORDINATES (ANGSTROEM)
---------------------------------
  S     27.897100    9.078580   76.753400
  C     29.036800    9.140140   78.135100
  C     29.271500    7.891350   78.632800
  C     28.389900    6.879410   78.042600
  C     27.641400    7.365550   77.014000
  H     28.284300    5.875610   78.364500
  C     30.177200    7.618230   79.858100
  H     29.529700    6.983810   80.401000
  H     30.334800    8.398260   80.662900
  C     31.433300    6.791710   79.514700
  H     31.894700    6.412650   80.463500
  H     31.205300    5.770920   79.030300
  C     32.485300    7.519290   78.625400
  H     33.233700    6.738600   78.370500
  H     32.028500    7.993510   77.727600
  H     33.121800    8.276540   79.092900
  S     26.705400    7.003150   74.360900
  C     25.663400    5.665990   73.999700
  C     25.406700    4.886900   75.103700
  C     25.969900    5.418990   76.277600
  C     26.750000    6.592120   76.130900
  H     24.644500    4.088040   75.065600
  C     25.553200    4.832780   77.597800
  H     24.524700    4.565830   77.659500
  H     25.721700    5.516160   78.397600
  C     26.352800    3.604130   77.919300
  H     27.394100    3.846420   77.794800
  H     26.222300    2.932060   77.079400
  C     26.091500    2.935480   79.273900
  H     25.063000    2.671100   79.529100
  H     26.345700    3.728630   80.022300
  H     26.815600    2.173580   79.721400
  H     29.615400    9.982500   78.440100
  H     25.355900    5.411540   73.058400

 Total Charge           Charge          ....    0
 Multiplicity           Mult            ....    1
 Number of Electrons    NEL             ....  134
 Basis Dimension        Dim             ....  322

ORBITAL ENERGIES
----------------

  NO   OCC          E(Eh)            E(eV)
   0   2.0000     -88.967902     -2420.9397
   1   2.0000     -88.966534     -2420.9025
   2   2.0000     -10.338938      -281.3368
   3   2.0000     -10.336047      -281.2581
   4   2.0000     -10.314837      -280.6810
   5   2.0000     -10.314633      -280.6754
   6   2.0000     -10.308745      -280.5152
   7   2.0000     -10.306992      -280.4675
   8   2.0000     -10.300572      -280.2928
   9   2.0000     -10.298571      -280.2384
  10   2.0000     -10.297137      -280.1993
  11   2.0000     -10.295437      -280.1531
  12   2.0000     -10.288834      -279.9734
  13   2.0000     -10.283676      -279.8330
  14   2.0000     -10.282965      -279.8137
  15   2.0000     -10.281016      -279.7607
  16   2.0000      -8.081938      -219.9207
  17   2.0000      -8.080809      -219.8900
  18   2.0000      -6.040454      -164.3691
  19   2.0000      -6.039544      -164.3443
  20   2.0000      -6.036458      -164.2604
  21   2.0000      -6.035497      -164.2342
  22   2.0000      -6.032813      -164.1612
  23   2.0000      -6.031232      -164.1182
  24   2.0000      -1.004248       -27.3270
  25   2.0000      -0.983632       -26.7660
  26   2.0000      -0.918542       -24.9948
  27   2.0000      -0.906152       -24.6576
  28   2.0000      -0.867996       -23.6194
  29   2.0000      -0.850818       -23.1519
  30   2.0000      -0.840922       -22.8826
  31   2.0000      -0.817248       -22.2384
  32   2.0000      -0.785802       -21.3828
  33   2.0000      -0.777635       -21.1605
  34   2.0000      -0.710441       -19.3321
  35   2.0000      -0.702398       -19.1132
  36   2.0000      -0.693890       -18.8817
  37   2.0000      -0.664574       -18.0840
  38   2.0000      -0.643297       -17.5050
  39   2.0000      -0.622728       -16.9453
  40   2.0000      -0.605735       -16.4829
  41   2.0000      -0.570441       -15.5225
  42   2.0000      -0.566800       -15.4234
  43   2.0000      -0.549384       -14.9495
  44   2.0000      -0.531908       -14.4739
  45   2.0000      -0.520641       -14.1674
  46   2.0000      -0.515856       -14.0372
  47   2.0000      -0.514304       -13.9949
  48   2.0000      -0.505128       -13.7452
  49   2.0000      -0.502955       -13.6861
  50   2.0000      -0.491343       -13.3701
  51   2.0000      -0.480869       -13.0851
  52   2.0000      -0.473662       -12.8890
  53   2.0000      -0.465881       -12.6773
  54   2.0000      -0.461511       -12.5584
  55   2.0000      -0.455264       -12.3884
  56   2.0000      -0.445690       -12.1279
  57   2.0000      -0.433680       -11.8010
  58   2.0000      -0.430569       -11.7164
  59   2.0000      -0.422606       -11.4997
  60   2.0000      -0.416267       -11.3272
  61   2.0000      -0.409835       -11.1522
  62   2.0000      -0.409154       -11.1336
  63   2.0000      -0.358398        -9.7525
  64   2.0000      -0.335134        -9.1195
  65   2.0000      -0.330851        -9.0029
  66   2.0000      -0.290162        -7.8957
  67   0.0000       0.021318         0.5801
  68   0.0000       0.072382         1.9696
  69   0.0000       0.104529         2.8444
  70   0.0000       0.119096         3.2408
  71   0.0000       0.125810         3.4235

MULLIKEN ATOMIC CHARGES
-----------------------
   0 S :    0.092298
   1 C :   -0.104763
   2 C :   -0.075084
   3 C :    0.028442
   4 C :   -0.105254
   5 H :   -0.017594
   6 C :    0.065176
   7 H :    0.010564
   8 H :    0.046819
   9 C :   -0.115523
  10 H :    0.030346
  11 H :    0.040527
  12 C :   -0.065774
  13 H :    0.035262
  14 H :    0.054069
  15 H :    0.029163
  16 S :    0.090957
  17 C :   -0.045911
  18 C :   -0.032042
  19 C :   -0.068446
  20 C :   -0.118704
  21 H :    0.035072
  22 C :    0.094075
  23 H :    0.017853
  24 H :    0.006369
  25 C :   -0.070043
  26 H :    0.017380
  27 H :    0.011548
  28 C :   -0.052261
  29 H :    0.037453
  30 H :    0.013524
  31 H :    0.048136
  32 H :    0.041441
  33 H :    0.024927
Sum of atomic charges:    0.0000000

LOEWDIN ATOMIC CHARGES
----------------------
   0 S :    0.377570
   1 C :   -0.178323
   2 C :   -0.053250
   3 C :   -0.059239
   4 C :   -0.180924
   5 H :    0.023558
   6 C :   -0.041289
   7 H :    0.028116
   8 H :    0.042140
   9 C :   -0.051859
  10 H :    0.026736
  11 H :    0.032938
  12 C :   -0.078217
  13 H :    0.031408
  14 H :    0.031549
  15 H :    0.022516
  16 S :    0.389748
  17 C :   -0.165584
  18 C :   -0.075073
  19 C :   -0.051906
  20 C :   -0.176067
  21 H :    0.039888
  22 C :   -0.024486
  23 H :    0.026792
  24 H :    0.022146
  25 C :   -0.044778
  26 H :    0.020405
  27 H :    0.018541
  28 C :   -0.083997
  29 H :    0.024953
  30 H :    0.028176
  31 H :    0.039602
  32 H :    0.026192
  33 H :    0.012017

  Mayer bond orders larger than 0.100000
B(  0-S ,  1-C ) :   1.1014 B(  0-S ,  4-C ) :   1.1306 B(  1-C ,  2-C ) :   1.6642
B(  1-C , 32-H ) :   0.9725 B(  2-C ,  3-C ) :   1.1913 B(  2-C ,  6-C ) :   0.9987
B(  3-C ,  4-C ) :   1.6109 B(  3-C ,  5-H ) :   0.9945 B(  4-C , 20-C ) :   1.0474
B(  6-C ,  7-H ) :   0.9319 B(  6-C ,  8-H ) :   0.9557 B(  6-C ,  9-C ) :   1.0716
B(  9-C , 10-H ) :   0.9532 B(  9-C , 11-H ) :   0.9590 B(  9-C , 12-C ) :   1.0646
B( 12-C , 13-H ) :   0.9741 B( 12-C , 14-H ) :   0.9756 B( 12-C , 15-H ) :   0.9769
B( 16-S , 17-C ) :   1.1732 B( 16-S , 20-C ) :   1.1201 B( 17-C , 18-C ) :   1.5899
B( 17-C , 20-C ) :   0.1049 B( 17-C , 33-H ) :   0.9739 B( 18-C , 19-C ) :   1.2681
B( 18-C , 21-H ) :   0.9826 B( 19-C , 20-C ) :   1.5802 B( 19-C , 22-C ) :   1.0500
B( 22-C , 23-H ) :   0.9385 B( 22-C , 24-H ) :   0.9353 B( 22-C , 25-C ) :   1.0495
B( 25-C , 26-H ) :   0.9483 B( 25-C , 27-H ) :   0.9522 B( 25-C , 28-C ) :   1.0676
B( 28-C , 29-H ) :   0.9756 B( 28-C , 30-H ) :   0.9661 B( 28-C , 31-H ) :   0.9735

Dispersion correction           -0.014303637
FINAL SINGLE POINT ENERGY     -1339.863571307656

DIPOLE MOMENT
-------------
                                X             Y             Z
Electronic contribution:    -10.81148      16.73032     -20.87293
Nuclear contribution   :     10.87120     -17.22353      21.39969
                        -----------------------------------------
Total Dipole Moment    :      0.05972      -0.49321       0.52676
                        -----------------------------------------
Magnitude (a.u.)       :      0.72408
Magnitude (Debye)      :      1.84048

Rotational constants in cm-1:     0.017100     0.009134     0.006747
Rotational constants in MHz :   512.652196   273.821276   202.255360

                             ****ORCA TERMINATED NORMALLY****
TOTAL RUN TIME: 0 days 0 hours 0 minutes 34 seconds 874 msec
