                         Program Version 4.2.1 -  RELEASE  -
|  1> ! wB97X-D3 SP def2-SVP
|  2> %pal
|  3> nprocs 16
|  4> end
|  5>
|  6> * xyz 0 1
|  7> S 	 -81.3296 	 45.2161 	 134.767
|  8> C 	 -81.3967 	 44.0547 	 136.048
|  9> C 	 -81.8324 	 44.5075 	 137.269
| 10> C 	 -82.3957 	 45.8384 	 137.089
| 11> C 	 -82.1579 	 46.3737 	 135.814
| 12> H 	 -82.9291 	 46.3886 	 137.879
| 13> C 	 -81.7319 	 43.5556 	 138.481
| 14> H 	 -80.7038 	 43.2233 	 138.766
| 15> H 	 -82.2881 	 42.6477 	 138.226
| 16> C 	 -82.3623 	 44.039 	 139.729
| 17> H 	 -83.4042 	 44.367 	 139.513
| 18> H 	 -82.5036 	 43.2546 	 140.498
| 19> C 	 -81.5625 	 45.1061 	 140.443
| 20> H 	 -81.4617 	 46.0822 	 139.979
| 21> H 	 -81.985 	 45.2961 	 141.402
| 22> H 	 -80.553 	 44.7431 	 140.473
| 23> S 	 -83.3312 	 47.8335 	 133.743
| 24> C 	 -83.3374 	 49.6227 	 133.81
| 25> C 	 -82.9234 	 50.0621 	 135.03
| 26> C 	 -82.4058 	 48.9751 	 135.786
| 27> C 	 -82.6095 	 47.6843 	 135.298
| 28> H 	 -82.908 	 51.1322 	 135.203
| 29> C 	 -81.5953 	 49.3055 	 137.024
| 30> H 	 -81.9698 	 48.6733 	 137.856
| 31> H 	 -81.8835 	 50.2296 	 137.434
| 32> C 	 -80.0888 	 49.1347 	 136.874
| 33> H 	 -79.9875 	 48.1607 	 136.459
| 34> H 	 -79.5503 	 49.1452 	 137.827
| 35> C 	 -79.4749 	 50.0886 	 135.83
| 36> H 	 -79.3045 	 51.0062 	 136.386
| 37> H 	 -80.1982 	 50.4605 	 135.08
| 38> H 	 -78.5299 	 49.7754 	 135.487
| 39> H 	 -80.8515 	 43.0598 	 135.892
| 40> H 	 -83.7307 	 50.2871 	 133.098
| 41> *
| 42>
| 43>                          ****END OF INPUT****

CARTESIAN COORDINATES (ANGSTROEM)
---------------------------------
  S    -81.329600   45.216100  134.767000
  C    -81.396700   44.054700  136.048000
  C    -81.832400   44.507500  137.269000
  C    -82.395700   45.838400  137.089000
  C    -82.157900   46.373700  135.814000
  H    -82.929100   46.388600  137.879000
  C    -81.731900   43.555600  138.481000
  H    -80.703800   43.223300  138.766000
  H    -82.288100   42.647700  138.226000
  C    -82.362300   44.039000  139.729000
  H    -83.404200   44.367000  139.513000
  H    -82.503600   43.254600  140.498000
  C    -81.562500   45.106100  140.443000
  H    -81.461700   46.082200  139.979000
  H    -81.985000   45.296100  141.402000
  H    -80.553000   44.743100  140.473000
  S    -83.331200   47.833500  133.743000
  C    -83.337400   49.622700  133.810000
  C    -82.923400   50.062100  135.030000
  C    -82.405800   48.975100  135.786000
  C    -82.609500   47.684300  135.298000
  H    -82.908000   51.132200  135.203000
  C    -81.595300   49.305500  137.024000
  H    -81.969800   48.673300  137.856000
  H    -81.883500   50.229600  137.434000
  C    -80.088800   49.134700  136.874000
  H    -79.987500   48.160700  136.459000
  H    -79.550300   49.145200  137.827000
  C    -79.474900   50.088600  135.830000
  H    -79.304500   51.006200  136.386000
  H    -80.198200   50.460500  135.080000
  H    -78.529900   49.775400  135.487000
  H    -80.851500   43.059800  135.892000
  H    -83.730700   50.287100  133.098000

 Total Charge           Charge          ....    0
 Multiplicity           Mult            ....    1
 Number of Electrons    NEL             ....  134
 Basis Dimension        Dim             ....  322

ORBITAL ENERGIES
----------------

  NO   OCC          E(Eh)            E(eV)
   0   2.0000     -88.970194     -2421.0021
   1   2.0000     -88.964860     -2420.8569
   2   2.0000     -10.337146      -281.2880
   3   2.0000     -10.327231      -281.0182
   4   2.0000     -10.316372      -280.7227
   5   2.0000     -10.315477      -280.6984
   6   2.0000     -10.308046      -280.4962
   7   2.0000     -10.307054      -280.4692
   8   2.0000     -10.300615      -280.2940
   9   2.0000     -10.298560      -280.2381
  10   2.0000     -10.292901      -280.0841
  11   2.0000     -10.285998      -279.8962
  12   2.0000     -10.280553      -279.7481
  13   2.0000     -10.275849      -279.6201
  14   2.0000     -10.270751      -279.4813
  15   2.0000     -10.266240      -279.3586
  16   2.0000      -8.084918      -220.0018
  17   2.0000      -8.079444      -219.8529
  18   2.0000      -6.043319      -164.4471
  19   2.0000      -6.039475      -164.3425
  20   2.0000      -6.038030      -164.3031
  21   2.0000      -6.035749      -164.2411
  22   2.0000      -6.033898      -164.1907
  23   2.0000      -6.030183      -164.0896
  24   2.0000      -1.006465       -27.3873
  25   2.0000      -0.985693       -26.8221
  26   2.0000      -0.920615       -25.0512
  27   2.0000      -0.905211       -24.6320
  28   2.0000      -0.873470       -23.7683
  29   2.0000      -0.847858       -23.0714
  30   2.0000      -0.841407       -22.8958
  31   2.0000      -0.819470       -22.2989
  32   2.0000      -0.787070       -21.4173
  33   2.0000      -0.770739       -20.9729
  34   2.0000      -0.711549       -19.3622
  35   2.0000      -0.693342       -18.8668
  36   2.0000      -0.682082       -18.5604
  37   2.0000      -0.661905       -18.0113
  38   2.0000      -0.638044       -17.3621
  39   2.0000      -0.625266       -17.0143
  40   2.0000      -0.592633       -16.1264
  41   2.0000      -0.578343       -15.7375
  42   2.0000      -0.558918       -15.2089
  43   2.0000      -0.550424       -14.9778
  44   2.0000      -0.543636       -14.7931
  45   2.0000      -0.541935       -14.7468
  46   2.0000      -0.520767       -14.1708
  47   2.0000      -0.504853       -13.7377
  48   2.0000      -0.497311       -13.5325
  49   2.0000      -0.492080       -13.3902
  50   2.0000      -0.488959       -13.3053
  51   2.0000      -0.480115       -13.0646
  52   2.0000      -0.472123       -12.8471
  53   2.0000      -0.468764       -12.7557
  54   2.0000      -0.460382       -12.5276
  55   2.0000      -0.448734       -12.2107
  56   2.0000      -0.440952       -11.9989
  57   2.0000      -0.434813       -11.8319
  58   2.0000      -0.431038       -11.7292
  59   2.0000      -0.426556       -11.6072
  60   2.0000      -0.416122       -11.3232
  61   2.0000      -0.414257       -11.2725
  62   2.0000      -0.402370       -10.9490
  63   2.0000      -0.350362        -9.5338
  64   2.0000      -0.333101        -9.0641
  65   2.0000      -0.329742        -8.9727
  66   2.0000      -0.290998        -7.9185
  67   0.0000       0.026476         0.7204
  68   0.0000       0.071135         1.9357
  69   0.0000       0.107516         2.9257
  70   0.0000       0.113909         3.0996
  71   0.0000       0.134397         3.6571

MULLIKEN ATOMIC CHARGES
-----------------------
   0 S :    0.129271
   1 C :   -0.153808
   2 C :   -0.071948
   3 C :    0.017527
   4 C :   -0.158940
   5 H :    0.032829
   6 C :    0.059501
   7 H :    0.041219
   8 H :    0.042357
   9 C :   -0.107721
  10 H :    0.026975
  11 H :    0.030868
  12 C :   -0.024999
  13 H :    0.024405
  14 H :    0.029207
  15 H :    0.015465
  16 S :    0.096206
  17 C :   -0.080794
  18 C :   -0.021409
  19 C :   -0.081960
  20 C :   -0.125325
  21 H :    0.028238
  22 C :    0.082318
  23 H :    0.008290
  24 H :   -0.008294
  25 C :   -0.035103
  26 H :    0.023074
  27 H :    0.031428
  28 C :   -0.032310
  29 H :    0.006143
  30 H :    0.036905
  31 H :    0.029022
  32 H :    0.073690
  33 H :    0.037672
Sum of atomic charges:    0.0000000

LOEWDIN ATOMIC CHARGES
----------------------
   0 S :    0.409841
   1 C :   -0.204956
   2 C :   -0.064966
   3 C :   -0.055538
   4 C :   -0.190682
   5 H :    0.035567
   6 C :   -0.033941
   7 H :    0.035571
   8 H :    0.039653
   9 C :   -0.053366
  10 H :    0.023788
  11 H :    0.030550
  12 C :   -0.063056
  13 H :    0.021356
  14 H :    0.023231
  15 H :    0.022815
  16 S :    0.401714
  17 C :   -0.162122
  18 C :   -0.070619
  19 C :   -0.057213
  20 C :   -0.213767
  21 H :    0.037374
  22 C :   -0.034460
  23 H :    0.030321
  24 H :    0.015591
  25 C :   -0.034376
  26 H :    0.019505
  27 H :    0.025590
  28 C :   -0.065268
  29 H :    0.021855
  30 H :    0.031401
  31 H :    0.019164
  32 H :    0.038583
  33 H :    0.020861

  Mayer bond orders larger than 0.100000
B(  0-S ,  1-C ) :   1.1518 B(  0-S ,  4-C ) :   1.1430 B(  1-C ,  2-C ) :   1.6320
B(  1-C , 32-H ) :   0.9541 B(  2-C ,  3-C ) :   1.2392 B(  2-C ,  6-C ) :   0.9974
B(  3-C ,  4-C ) :   1.5782 B(  3-C ,  5-H ) :   0.9825 B(  4-C , 20-C ) :   1.0438
B(  6-C ,  7-H ) :   0.9416 B(  6-C ,  8-H ) :   0.9394 B(  6-C ,  9-C ) :   1.1015
B(  9-C , 10-H ) :   0.9468 B(  9-C , 11-H ) :   0.9513 B(  9-C , 12-C ) :   1.0762
B( 12-C , 13-H ) :   0.9755 B( 12-C , 14-H ) :   0.9746 B( 12-C , 15-H ) :   0.9689
B( 16-S , 17-C ) :   1.1543 B( 16-S , 20-C ) :   1.1313 B( 17-C , 18-C ) :   1.6133
B( 17-C , 33-H ) :   0.9685 B( 18-C , 19-C ) :   1.2453 B( 18-C , 21-H ) :   0.9900
B( 19-C , 20-C ) :   1.5879 B( 19-C , 22-C ) :   1.0439 B( 22-C , 23-H ) :   0.9258
B( 22-C , 24-H ) :   0.9342 B( 22-C , 25-C ) :   1.0656 B( 25-C , 26-H ) :   0.9577
B( 25-C , 27-H ) :   0.9566 B( 25-C , 28-C ) :   1.0650 B( 28-C , 29-H ) :   0.9723
B( 28-C , 30-H ) :   0.9751 B( 28-C , 31-H ) :   0.9757

Dispersion correction           -0.015204123
FINAL SINGLE POINT ENERGY     -1339.869275004555

DIPOLE MOMENT
-------------
                                X             Y             Z
Electronic contribution:     -9.38800      -3.41368     -24.15500
Nuclear contribution   :      9.52618       3.47653      24.76604
                        -----------------------------------------
Total Dipole Moment    :      0.13818       0.06285       0.61104
                        -----------------------------------------
Magnitude (a.u.)       :      0.62962
Magnitude (Debye)      :      1.60035

Rotational constants in cm-1:     0.020121     0.008927     0.007465
Rotational constants in MHz :   603.211716   267.624479   223.796752

                             ****ORCA TERMINATED NORMALLY****
TOTAL RUN TIME: 0 days 0 hours 0 minutes 37 seconds 422 msec
