                         Program Version 4.2.1 -  RELEASE  -
|  1> ! wB97X-D3 SP def2-SVP
|  2> %pal
|  3> nprocs 16
|  4> end
|  5>
|  6> * xyz 0 1
|  7> S 	 55.1105 	 11.5853 	 62.4534
|  8> C 	 56.7276 	 12.1851 	 62.6587
|  9> C 	 57.3587 	 12.3984 	 61.4448
| 10> C 	 56.3584 	 12.3304 	 60.403
| 11> C 	 55.1127 	 11.8643 	 60.7187
| 12> H 	 56.5226 	 12.55 	 59.3469
| 13> C 	 58.8252 	 12.891 	 61.1475
| 14> H 	 58.7948 	 13.7107 	 60.3835
| 15> H 	 59.2954 	 12.0679 	 60.5636
| 16> C 	 59.6848 	 13.359 	 62.3547
| 17> H 	 60.5722 	 13.8642 	 61.8992
| 18> H 	 59.1661 	 14.1863 	 62.8149
| 19> C 	 60.2086 	 12.2716 	 63.3751
| 20> H 	 59.4672 	 11.9538 	 64.1538
| 21> H 	 60.5603 	 11.4274 	 62.8972
| 22> H 	 61.0733 	 12.6428 	 64.0225
| 23> S 	 52.4146 	 12.5175 	 60.3313
| 24> C 	 51.5919 	 11.9012 	 58.9062
| 25> C 	 52.5236 	 11.2122 	 58.0813
| 26> C 	 53.8277 	 11.0512 	 58.6714
| 27> C 	 53.9404 	 11.7398 	 59.8576
| 28> H 	 52.1618 	 10.7746 	 57.1549
| 29> C 	 54.9104 	 10.359 	 57.9265
| 30> H 	 55.5926 	 11.232 	 57.7869
| 31> H 	 54.5055 	 9.95589 	 56.9275
| 32> C 	 55.541 	 9.1237 	 58.6298
| 33> H 	 55.6521 	 9.42574 	 59.6255
| 34> H 	 56.5842 	 8.91176 	 58.3899
| 35> C 	 54.5739 	 7.88639 	 58.6192
| 36> H 	 53.6366 	 7.96779 	 59.1029
| 37> H 	 55.0548 	 6.99148 	 59.0566
| 38> H 	 54.3788 	 7.61783 	 57.5991
| 39> H 	 57.2507 	 11.9094 	 63.5477
| 40> H 	 50.6187 	 11.9815 	 58.4568
| 41> *
| 42>
| 43>                          ****END OF INPUT****

CARTESIAN COORDINATES (ANGSTROEM)
---------------------------------
  S     55.110500   11.585300   62.453400
  C     56.727600   12.185100   62.658700
  C     57.358700   12.398400   61.444800
  C     56.358400   12.330400   60.403000
  C     55.112700   11.864300   60.718700
  H     56.522600   12.550000   59.346900
  C     58.825200   12.891000   61.147500
  H     58.794800   13.710700   60.383500
  H     59.295400   12.067900   60.563600
  C     59.684800   13.359000   62.354700
  H     60.572200   13.864200   61.899200
  H     59.166100   14.186300   62.814900
  C     60.208600   12.271600   63.375100
  H     59.467200   11.953800   64.153800
  H     60.560300   11.427400   62.897200
  H     61.073300   12.642800   64.022500
  S     52.414600   12.517500   60.331300
  C     51.591900   11.901200   58.906200
  C     52.523600   11.212200   58.081300
  C     53.827700   11.051200   58.671400
  C     53.940400   11.739800   59.857600
  H     52.161800   10.774600   57.154900
  C     54.910400   10.359000   57.926500
  H     55.592600   11.232000   57.786900
  H     54.505500    9.955890   56.927500
  C     55.541000    9.123700   58.629800
  H     55.652100    9.425740   59.625500
  H     56.584200    8.911760   58.389900
  C     54.573900    7.886390   58.619200
  H     53.636600    7.967790   59.102900
  H     55.054800    6.991480   59.056600
  H     54.378800    7.617830   57.599100
  H     57.250700   11.909400   63.547700
  H     50.618700   11.981500   58.456800

 Total Charge           Charge          ....    0
 Multiplicity           Mult            ....    1
 Number of Electrons    NEL             ....  134
 Basis Dimension        Dim             ....  322

ORBITAL ENERGIES
----------------

  NO   OCC          E(Eh)            E(eV)
   0   2.0000     -88.971908     -2421.0487
   1   2.0000     -88.961762     -2420.7726
   2   2.0000     -10.329300      -281.0745
   3   2.0000     -10.328027      -281.0399
   4   2.0000     -10.321188      -280.8538
   5   2.0000     -10.312233      -280.6101
   6   2.0000     -10.310233      -280.5557
   7   2.0000     -10.310060      -280.5510
   8   2.0000     -10.302974      -280.3582
   9   2.0000     -10.300124      -280.2806
  10   2.0000     -10.299350      -280.2596
  11   2.0000     -10.296065      -280.1702
  12   2.0000     -10.294121      -280.1173
  13   2.0000     -10.289161      -279.9823
  14   2.0000     -10.283075      -279.8167
  15   2.0000     -10.273848      -279.5656
  16   2.0000      -8.085357      -220.0138
  17   2.0000      -8.076881      -219.7831
  18   2.0000      -6.044145      -164.4695
  19   2.0000      -6.039900      -164.3540
  20   2.0000      -6.036018      -164.2484
  21   2.0000      -6.035375      -164.2309
  22   2.0000      -6.031305      -164.1201
  23   2.0000      -6.027642      -164.0205
  24   2.0000      -1.005511       -27.3613
  25   2.0000      -0.981960       -26.7205
  26   2.0000      -0.906676       -24.6719
  27   2.0000      -0.901505       -24.5312
  28   2.0000      -0.866449       -23.5773
  29   2.0000      -0.847969       -23.0744
  30   2.0000      -0.842087       -22.9144
  31   2.0000      -0.811417       -22.0798
  32   2.0000      -0.785923       -21.3861
  33   2.0000      -0.774464       -21.0742
  34   2.0000      -0.715475       -19.4691
  35   2.0000      -0.708126       -19.2691
  36   2.0000      -0.690740       -18.7960
  37   2.0000      -0.662098       -18.0166
  38   2.0000      -0.644253       -17.5310
  39   2.0000      -0.609483       -16.5849
  40   2.0000      -0.582135       -15.8407
  41   2.0000      -0.570920       -15.5355
  42   2.0000      -0.556116       -15.1327
  43   2.0000      -0.545276       -14.8377
  44   2.0000      -0.538949       -14.6655
  45   2.0000      -0.529968       -14.4212
  46   2.0000      -0.518910       -14.1203
  47   2.0000      -0.511020       -13.9056
  48   2.0000      -0.502497       -13.6736
  49   2.0000      -0.490307       -13.3419
  50   2.0000      -0.481693       -13.1075
  51   2.0000      -0.480089       -13.0639
  52   2.0000      -0.474994       -12.9252
  53   2.0000      -0.469739       -12.7823
  54   2.0000      -0.462226       -12.5778
  55   2.0000      -0.442117       -12.0306
  56   2.0000      -0.440251       -11.9798
  57   2.0000      -0.437511       -11.9053
  58   2.0000      -0.435457       -11.8494
  59   2.0000      -0.427307       -11.6276
  60   2.0000      -0.424880       -11.5616
  61   2.0000      -0.412498       -11.2246
  62   2.0000      -0.411532       -11.1983
  63   2.0000      -0.347133        -9.4460
  64   2.0000      -0.331109        -9.0099
  65   2.0000      -0.326569        -8.8864
  66   2.0000      -0.295063        -8.0291
  67   0.0000       0.028368         0.7719
  68   0.0000       0.066877         1.8198
  69   0.0000       0.112399         3.0585
  70   0.0000       0.116366         3.1665
  71   0.0000       0.129489         3.5236

MULLIKEN ATOMIC CHARGES
-----------------------
   0 S :    0.097418
   1 C :   -0.113696
   2 C :   -0.073902
   3 C :    0.002607
   4 C :   -0.160709
   5 H :    0.006955
   6 C :    0.019641
   7 H :    0.044876
   8 H :    0.041017
   9 C :   -0.065921
  10 H :    0.034895
  11 H :    0.037094
  12 C :   -0.066635
  13 H :    0.041499
  14 H :    0.024612
  15 H :    0.042852
  16 S :    0.132128
  17 C :   -0.078687
  18 C :   -0.070752
  19 C :   -0.025615
  20 C :   -0.158047
  21 H :    0.020883
  22 C :    0.024227
  23 H :    0.048255
  24 H :    0.032346
  25 C :   -0.026338
  26 H :    0.020466
  27 H :    0.026447
  28 C :   -0.046226
  29 H :    0.038058
  30 H :    0.033125
  31 H :    0.015077
  32 H :    0.050153
  33 H :    0.051896
Sum of atomic charges:    0.0000000

LOEWDIN ATOMIC CHARGES
----------------------
   0 S :    0.401250
   1 C :   -0.201776
   2 C :   -0.060389
   3 C :   -0.067674
   4 C :   -0.194996
   5 H :    0.026576
   6 C :   -0.035048
   7 H :    0.039573
   8 H :    0.035117
   9 C :   -0.044885
  10 H :    0.033748
  11 H :    0.026273
  12 C :   -0.069429
  13 H :    0.027860
  14 H :    0.014009
  15 H :    0.037689
  16 S :    0.407050
  17 C :   -0.192705
  18 C :   -0.070789
  19 C :   -0.056194
  20 C :   -0.199543
  21 H :    0.028768
  22 C :   -0.036397
  23 H :    0.039951
  24 H :    0.035376
  25 C :   -0.037714
  26 H :    0.018083
  27 H :    0.027973
  28 C :   -0.060999
  29 H :    0.023658
  30 H :    0.031322
  31 H :    0.017893
  32 H :    0.021256
  33 H :    0.035115

  Mayer bond orders larger than 0.100000
B(  0-S ,  1-C ) :   1.1495 B(  0-S ,  4-C ) :   1.1330 B(  1-C ,  2-C ) :   1.6238
B(  1-C , 32-H ) :   0.9544 B(  2-C ,  3-C ) :   1.2367 B(  2-C ,  6-C ) :   0.9955
B(  3-C ,  4-C ) :   1.6072 B(  3-C ,  5-H ) :   0.9852 B(  4-C , 20-C ) :   1.0417
B(  6-C ,  7-H ) :   0.9510 B(  6-C ,  8-H ) :   0.9371 B(  6-C ,  9-C ) :   1.0774
B(  9-C , 10-H ) :   0.9543 B(  9-C , 11-H ) :   0.9581 B(  9-C , 12-C ) :   1.0590
B( 12-C , 13-H ) :   0.9753 B( 12-C , 14-H ) :   0.9786 B( 12-C , 15-H ) :   0.9753
B( 16-S , 17-C ) :   1.1484 B( 16-S , 20-C ) :   1.1257 B( 17-C , 18-C ) :   1.6218
B( 17-C , 20-C ) :   0.1002 B( 17-C , 33-H ) :   0.9647 B( 18-C , 19-C ) :   1.2418
B( 18-C , 21-H ) :   0.9815 B( 19-C , 20-C ) :   1.5930 B( 19-C , 22-C ) :   1.0239
B( 22-C , 23-H ) :   0.9316 B( 22-C , 24-H ) :   0.9445 B( 22-C , 25-C ) :   1.0566
B( 25-C , 26-H ) :   0.9561 B( 25-C , 27-H ) :   0.9559 B( 25-C , 28-C ) :   1.0626
B( 28-C , 29-H ) :   0.9791 B( 28-C , 30-H ) :   0.9745 B( 28-C , 31-H ) :   0.9775

Dispersion correction           -0.014779725
FINAL SINGLE POINT ENERGY     -1339.862456568032

DIPOLE MOMENT
-------------
                                X             Y             Z
Electronic contribution:    -22.64391       8.71730       4.64660
Nuclear contribution   :     23.26132      -8.87811      -5.09000
                        -----------------------------------------
Total Dipole Moment    :      0.61742      -0.16081      -0.44340
                        -----------------------------------------
Magnitude (a.u.)       :      0.77696
Magnitude (Debye)      :      1.97488

Rotational constants in cm-1:     0.022838     0.007669     0.006610
Rotational constants in MHz :   684.674815   229.896038   198.161562

                             ****ORCA TERMINATED NORMALLY****
TOTAL RUN TIME: 0 days 0 hours 0 minutes 30 seconds 438 msec
