                         Program Version 4.2.1 -  RELEASE  -
|  1> ! wB97X-D3 SP def2-SVP
|  2> %pal
|  3> nprocs 16
|  4> end
|  5>
|  6> * xyz 0 1
|  7> S 	 -72.7435 	 51.8188 	 126.751
|  8> C 	 -72.5694 	 53.5476 	 127.145
|  9> C 	 -73.3453 	 54.3272 	 126.324
| 10> C 	 -73.9777 	 53.5095 	 125.356
| 11> C 	 -73.8915 	 52.1423 	 125.516
| 12> H 	 -74.5214 	 53.8879 	 124.459
| 13> C 	 -73.3663 	 55.7929 	 126.326
| 14> H 	 -72.3496 	 56.0984 	 126.039
| 15> H 	 -73.493 	 55.9127 	 127.36
| 16> C 	 -74.3622 	 56.6089 	 125.515
| 17> H 	 -73.9715 	 56.4964 	 124.426
| 18> H 	 -75.3788 	 56.097 	 125.507
| 19> C 	 -74.5071 	 58.0399 	 125.864
| 20> H 	 -75.546 	 58.308 	 125.423
| 21> H 	 -74.5796 	 58.192 	 126.89
| 22> H 	 -73.7564 	 58.6782 	 125.414
| 23> S 	 -73.208 	 50.4677 	 123.388
| 24> C 	 -74.4047 	 49.4981 	 122.58
| 25> C 	 -75.5647 	 49.5867 	 123.252
| 26> C 	 -75.6352 	 50.5854 	 124.317
| 27> C 	 -74.3962 	 51.1259 	 124.56
| 28> H 	 -76.4235 	 49.1293 	 122.817
| 29> C 	 -76.9251 	 50.8295 	 125.22
| 30> H 	 -77.6809 	 50.0363 	 125.024
| 31> H 	 -77.3464 	 51.8394 	 125.146
| 32> C 	 -76.5955 	 50.6049 	 126.691
| 33> H 	 -75.8372 	 51.2538 	 126.982
| 34> H 	 -76.2675 	 49.6157 	 126.81
| 35> C 	 -77.7791 	 50.8627 	 127.566
| 36> H 	 -77.5258 	 50.6548 	 128.566
| 37> H 	 -78.6293 	 50.2575 	 127.102
| 38> H 	 -78.0225 	 51.9014 	 127.672
| 39> H 	 -71.905 	 54.0806 	 127.831
| 40> H 	 -74.2473 	 48.7498 	 121.809
| 41> *
| 42>
| 43>                          ****END OF INPUT****

CARTESIAN COORDINATES (ANGSTROEM)
---------------------------------
  S    -72.743500   51.818800  126.751000
  C    -72.569400   53.547600  127.145000
  C    -73.345300   54.327200  126.324000
  C    -73.977700   53.509500  125.356000
  C    -73.891500   52.142300  125.516000
  H    -74.521400   53.887900  124.459000
  C    -73.366300   55.792900  126.326000
  H    -72.349600   56.098400  126.039000
  H    -73.493000   55.912700  127.360000
  C    -74.362200   56.608900  125.515000
  H    -73.971500   56.496400  124.426000
  H    -75.378800   56.097000  125.507000
  C    -74.507100   58.039900  125.864000
  H    -75.546000   58.308000  125.423000
  H    -74.579600   58.192000  126.890000
  H    -73.756400   58.678200  125.414000
  S    -73.208000   50.467700  123.388000
  C    -74.404700   49.498100  122.580000
  C    -75.564700   49.586700  123.252000
  C    -75.635200   50.585400  124.317000
  C    -74.396200   51.125900  124.560000
  H    -76.423500   49.129300  122.817000
  C    -76.925100   50.829500  125.220000
  H    -77.680900   50.036300  125.024000
  H    -77.346400   51.839400  125.146000
  C    -76.595500   50.604900  126.691000
  H    -75.837200   51.253800  126.982000
  H    -76.267500   49.615700  126.810000
  C    -77.779100   50.862700  127.566000
  H    -77.525800   50.654800  128.566000
  H    -78.629300   50.257500  127.102000
  H    -78.022500   51.901400  127.672000
  H    -71.905000   54.080600  127.831000
  H    -74.247300   48.749800  121.809000

 Total Charge           Charge          ....    0
 Multiplicity           Mult            ....    1
 Number of Electrons    NEL             ....  134
 Basis Dimension        Dim             ....  322

ORBITAL ENERGIES
----------------

  NO   OCC          E(Eh)            E(eV)
   0   2.0000     -88.969178     -2420.9744
   1   2.0000     -88.959690     -2420.7162
   2   2.0000     -10.330703      -281.1127
   3   2.0000     -10.327384      -281.0224
   4   2.0000     -10.314200      -280.6636
   5   2.0000     -10.314076      -280.6603
   6   2.0000     -10.309867      -280.5457
   7   2.0000     -10.298186      -280.2279
   8   2.0000     -10.296953      -280.1943
   9   2.0000     -10.296526      -280.1827
  10   2.0000     -10.291837      -280.0551
  11   2.0000     -10.288354      -279.9603
  12   2.0000     -10.286508      -279.9101
  13   2.0000     -10.281822      -279.7826
  14   2.0000     -10.269369      -279.4437
  15   2.0000     -10.263096      -279.2731
  16   2.0000      -8.083327      -219.9585
  17   2.0000      -8.074312      -219.7132
  18   2.0000      -6.041885      -164.4081
  19   2.0000      -6.037881      -164.2991
  20   2.0000      -6.034059      -164.1951
  21   2.0000      -6.032933      -164.1645
  22   2.0000      -6.028818      -164.0525
  23   2.0000      -6.024949      -163.9472
  24   2.0000      -1.006719       -27.3942
  25   2.0000      -0.985395       -26.8140
  26   2.0000      -0.923441       -25.1281
  27   2.0000      -0.911608       -24.8061
  28   2.0000      -0.875955       -23.8359
  29   2.0000      -0.851511       -23.1708
  30   2.0000      -0.841673       -22.9031
  31   2.0000      -0.816497       -22.2180
  32   2.0000      -0.786832       -21.4108
  33   2.0000      -0.773330       -21.0434
  34   2.0000      -0.714035       -19.4299
  35   2.0000      -0.692683       -18.8488
  36   2.0000      -0.684424       -18.6241
  37   2.0000      -0.655484       -17.8366
  38   2.0000      -0.634934       -17.2774
  39   2.0000      -0.615605       -16.7515
  40   2.0000      -0.594660       -16.1815
  41   2.0000      -0.583178       -15.8691
  42   2.0000      -0.578747       -15.7485
  43   2.0000      -0.569560       -15.4985
  44   2.0000      -0.532675       -14.4948
  45   2.0000      -0.521643       -14.1946
  46   2.0000      -0.520709       -14.1692
  47   2.0000      -0.508254       -13.8303
  48   2.0000      -0.505569       -13.7572
  49   2.0000      -0.499847       -13.6015
  50   2.0000      -0.495840       -13.4925
  51   2.0000      -0.480538       -13.0761
  52   2.0000      -0.474630       -12.9153
  53   2.0000      -0.469316       -12.7707
  54   2.0000      -0.456688       -12.4271
  55   2.0000      -0.450254       -12.2520
  56   2.0000      -0.437741       -11.9115
  57   2.0000      -0.426047       -11.5933
  58   2.0000      -0.424358       -11.5474
  59   2.0000      -0.422854       -11.5064
  60   2.0000      -0.420030       -11.4296
  61   2.0000      -0.417199       -11.3526
  62   2.0000      -0.409999       -11.1566
  63   2.0000      -0.335262        -9.1229
  64   2.0000      -0.328343        -8.9347
  65   2.0000      -0.325037        -8.8447
  66   2.0000      -0.309225        -8.4144
  67   0.0000       0.039716         1.0807
  68   0.0000       0.059159         1.6098
  69   0.0000       0.121670         3.3108
  70   0.0000       0.124979         3.4008
  71   0.0000       0.134334         3.6554

MULLIKEN ATOMIC CHARGES
-----------------------
   0 S :    0.125418
   1 C :   -0.131426
   2 C :   -0.092771
   3 C :    0.007382
   4 C :   -0.174428
   5 H :    0.027455
   6 C :    0.089174
   7 H :    0.044457
   8 H :    0.015727
   9 C :   -0.145429
  10 H :    0.042990
  11 H :    0.041343
  12 C :   -0.005227
  13 H :    0.041880
  14 H :    0.020039
  15 H :    0.041785
  16 S :    0.094353
  17 C :   -0.078361
  18 C :   -0.032331
  19 C :   -0.015967
  20 C :   -0.174257
  21 H :    0.012423
  22 C :    0.056321
  23 H :    0.023028
  24 H :    0.037018
  25 C :   -0.066289
  26 H :    0.021554
  27 H :    0.019160
  28 C :   -0.016516
  29 H :    0.018484
  30 H :    0.033069
  31 H :    0.017489
  32 H :    0.039898
  33 H :    0.062555
Sum of atomic charges:    0.0000000

LOEWDIN ATOMIC CHARGES
----------------------
   0 S :    0.418060
   1 C :   -0.196869
   2 C :   -0.065033
   3 C :   -0.067585
   4 C :   -0.218715
   5 H :    0.036033
   6 C :   -0.042493
   7 H :    0.040972
   8 H :    0.028136
   9 C :   -0.055662
  10 H :    0.034839
  11 H :    0.028976
  12 C :   -0.060487
  13 H :    0.044321
  14 H :    0.015761
  15 H :    0.027658
  16 S :    0.384101
  17 C :   -0.183894
  18 C :   -0.078484
  19 C :   -0.049505
  20 C :   -0.184008
  21 H :    0.025510
  22 C :   -0.022673
  23 H :    0.030448
  24 H :    0.032270
  25 C :   -0.037672
  26 H :    0.013094
  27 H :    0.018076
  28 C :   -0.060632
  29 H :    0.022002
  30 H :    0.031572
  31 H :    0.021481
  32 H :    0.033156
  33 H :    0.037245

  Mayer bond orders larger than 0.100000
B(  0-S ,  1-C ) :   1.1373 B(  0-S ,  4-C ) :   1.1521 B(  1-C ,  2-C ) :   1.6119
B(  1-C , 32-H ) :   0.9675 B(  2-C ,  3-C ) :   1.2580 B(  2-C ,  6-C ) :   0.9942
B(  3-C ,  4-C ) :   1.5743 B(  3-C ,  5-H ) :   0.9830 B(  4-C , 20-C ) :   0.9988
B(  6-C ,  7-H ) :   0.9296 B(  6-C ,  8-H ) :   0.9292 B(  6-C ,  9-C ) :   1.0831
B(  9-C , 10-H ) :   0.9427 B(  9-C , 11-H ) :   0.9595 B(  9-C , 12-C ) :   1.0852
B( 12-C , 13-H ) :   0.9720 B( 12-C , 14-H ) :   0.9742 B( 12-C , 15-H ) :   0.9733
B( 16-S , 17-C ) :   1.1370 B( 16-S , 20-C ) :   1.1326 B( 17-C , 18-C ) :   1.6638
B( 17-C , 33-H ) :   0.9610 B( 18-C , 19-C ) :   1.2216 B( 18-C , 21-H ) :   0.9812
B( 19-C , 20-C ) :   1.6428 B( 19-C , 22-C ) :   1.0229 B( 22-C , 23-H ) :   0.9447
B( 22-C , 24-H ) :   0.9389 B( 22-C , 25-C ) :   1.0738 B( 25-C , 26-H ) :   0.9449
B( 25-C , 27-H ) :   0.9539 B( 25-C , 28-C ) :   1.1057 B( 28-C , 29-H ) :   0.9665
B( 28-C , 30-H ) :   0.9710 B( 28-C , 31-H ) :   0.9692

Dispersion correction           -0.013948658
FINAL SINGLE POINT ENERGY     -1339.851338013337

DIPOLE MOMENT
-------------
                                X             Y             Z
Electronic contribution:     17.19400     -17.82719      -7.94800
Nuclear contribution   :    -17.51565      18.35261       7.96366
                        -----------------------------------------
Total Dipole Moment    :     -0.32164       0.52542       0.01567
                        -----------------------------------------
Magnitude (a.u.)       :      0.61625
Magnitude (Debye)      :      1.56640

Rotational constants in cm-1:     0.017464     0.008227     0.007313
Rotational constants in MHz :   523.552800   246.653718   219.248248

                             ****ORCA TERMINATED NORMALLY****
TOTAL RUN TIME: 0 days 0 hours 0 minutes 33 seconds 474 msec
