                         Program Version 4.2.1 -  RELEASE  -
|  1> ! wB97X-D3 SP def2-SVP
|  2> %pal
|  3> nprocs 16
|  4> end
|  5>
|  6> * xyz 0 1
|  7> S 	 -92.0906 	 40.124 	 113.367
|  8> C 	 -90.8337 	 38.9796 	 113.925
|  9> C 	 -90.0448 	 39.5585 	 114.923
| 10> C 	 -90.6974 	 40.7418 	 115.453
| 11> C 	 -91.8442 	 41.1877 	 114.761
| 12> H 	 -90.3389 	 41.1932 	 116.316
| 13> C 	 -88.8081 	 39.0231 	 115.655
| 14> H 	 -88.0133 	 39.1357 	 114.89
| 15> H 	 -89.1133 	 37.9633 	 115.723
| 16> C 	 -88.3364 	 39.7344 	 116.992
| 17> H 	 -88.2898 	 40.7795 	 116.833
| 18> H 	 -89.1696 	 39.7672 	 117.699
| 19> C 	 -87.0119 	 39.1104 	 117.484
| 20> H 	 -86.7528 	 39.523 	 118.437
| 21> H 	 -87.1682 	 38.0231 	 117.604
| 22> H 	 -86.1978 	 39.0335 	 116.756
| 23> S 	 -93.2293 	 43.1698 	 113.573
| 24> C 	 -93.5959 	 44.5812 	 114.51
| 25> C 	 -93.5294 	 44.395 	 115.901
| 26> C 	 -93.0718 	 43.0452 	 116.243
| 27> C 	 -92.6656 	 42.4064 	 115.038
| 28> H 	 -93.7852 	 45.1511 	 116.553
| 29> C 	 -92.8238 	 42.6629 	 117.677
| 30> H 	 -91.7453 	 42.7333 	 117.792
| 31> H 	 -92.9784 	 41.6462 	 117.915
| 32> C 	 -93.4259 	 43.4777 	 118.801
| 33> H 	 -94.485 	 43.6092 	 118.726
| 34> H 	 -92.9827 	 44.4813 	 118.771
| 35> C 	 -93.0644 	 42.7659 	 120.175
| 36> H 	 -93.5438 	 43.3066 	 120.96
| 37> H 	 -91.9377 	 42.7256 	 120.253
| 38> H 	 -93.4506 	 41.728 	 120.015
| 39> H 	 -90.612 	 38.1211 	 113.427
| 40> H 	 -94.0863 	 45.438 	 114.055
| 41> *
| 42>
| 43>                          ****END OF INPUT****

CARTESIAN COORDINATES (ANGSTROEM)
---------------------------------
  S    -92.090600   40.124000  113.367000
  C    -90.833700   38.979600  113.925000
  C    -90.044800   39.558500  114.923000
  C    -90.697400   40.741800  115.453000
  C    -91.844200   41.187700  114.761000
  H    -90.338900   41.193200  116.316000
  C    -88.808100   39.023100  115.655000
  H    -88.013300   39.135700  114.890000
  H    -89.113300   37.963300  115.723000
  C    -88.336400   39.734400  116.992000
  H    -88.289800   40.779500  116.833000
  H    -89.169600   39.767200  117.699000
  C    -87.011900   39.110400  117.484000
  H    -86.752800   39.523000  118.437000
  H    -87.168200   38.023100  117.604000
  H    -86.197800   39.033500  116.756000
  S    -93.229300   43.169800  113.573000
  C    -93.595900   44.581200  114.510000
  C    -93.529400   44.395000  115.901000
  C    -93.071800   43.045200  116.243000
  C    -92.665600   42.406400  115.038000
  H    -93.785200   45.151100  116.553000
  C    -92.823800   42.662900  117.677000
  H    -91.745300   42.733300  117.792000
  H    -92.978400   41.646200  117.915000
  C    -93.425900   43.477700  118.801000
  H    -94.485000   43.609200  118.726000
  H    -92.982700   44.481300  118.771000
  C    -93.064400   42.765900  120.175000
  H    -93.543800   43.306600  120.960000
  H    -91.937700   42.725600  120.253000
  H    -93.450600   41.728000  120.015000
  H    -90.612000   38.121100  113.427000
  H    -94.086300   45.438000  114.055000

 Total Charge           Charge          ....    0
 Multiplicity           Mult            ....    1
 Number of Electrons    NEL             ....  134
 Basis Dimension        Dim             ....  322

ORBITAL ENERGIES
----------------

  NO   OCC          E(Eh)            E(eV)
   0   2.0000     -88.967249     -2420.9219
   1   2.0000     -88.964098     -2420.8362
   2   2.0000     -10.335034      -281.2306
   3   2.0000     -10.332917      -281.1730
   4   2.0000     -10.316069      -280.7145
   5   2.0000     -10.314059      -280.6598
   6   2.0000     -10.310427      -280.5610
   7   2.0000     -10.305281      -280.4210
   8   2.0000     -10.302361      -280.3415
   9   2.0000     -10.297257      -280.2026
  10   2.0000     -10.295113      -280.1443
  11   2.0000     -10.291464      -280.0450
  12   2.0000     -10.289813      -280.0000
  13   2.0000     -10.289686      -279.9966
  14   2.0000     -10.288449      -279.9629
  15   2.0000     -10.286210      -279.9020
  16   2.0000      -8.082531      -219.9368
  17   2.0000      -8.077782      -219.8076
  18   2.0000      -6.040913      -164.3816
  19   2.0000      -6.037192      -164.2803
  20   2.0000      -6.036509      -164.2618
  21   2.0000      -6.033180      -164.1712
  22   2.0000      -6.032520      -164.1532
  23   2.0000      -6.028314      -164.0388
  24   2.0000      -0.998324       -27.1658
  25   2.0000      -0.974355       -26.5136
  26   2.0000      -0.916994       -24.9527
  27   2.0000      -0.905973       -24.6528
  28   2.0000      -0.863668       -23.5016
  29   2.0000      -0.851610       -23.1735
  30   2.0000      -0.840935       -22.8830
  31   2.0000      -0.810264       -22.0484
  32   2.0000      -0.780325       -21.2337
  33   2.0000      -0.771218       -20.9859
  34   2.0000      -0.722713       -19.6660
  35   2.0000      -0.708073       -19.2677
  36   2.0000      -0.692021       -18.8309
  37   2.0000      -0.657212       -17.8837
  38   2.0000      -0.637694       -17.3525
  39   2.0000      -0.622143       -16.9294
  40   2.0000      -0.603136       -16.4122
  41   2.0000      -0.574413       -15.6306
  42   2.0000      -0.566288       -15.4095
  43   2.0000      -0.557965       -15.1830
  44   2.0000      -0.535118       -14.5613
  45   2.0000      -0.530662       -14.4401
  46   2.0000      -0.512213       -13.9380
  47   2.0000      -0.505842       -13.7646
  48   2.0000      -0.501257       -13.6399
  49   2.0000      -0.492607       -13.4045
  50   2.0000      -0.488304       -13.2874
  51   2.0000      -0.484680       -13.1888
  52   2.0000      -0.473340       -12.8802
  53   2.0000      -0.471016       -12.8170
  54   2.0000      -0.459281       -12.4977
  55   2.0000      -0.454786       -12.3753
  56   2.0000      -0.443632       -12.0718
  57   2.0000      -0.437192       -11.8966
  58   2.0000      -0.434504       -11.8235
  59   2.0000      -0.428794       -11.6681
  60   2.0000      -0.424806       -11.5596
  61   2.0000      -0.421007       -11.4562
  62   2.0000      -0.414699       -11.2845
  63   2.0000      -0.346771        -9.4361
  64   2.0000      -0.331186        -9.0120
  65   2.0000      -0.323070        -8.7912
  66   2.0000      -0.278489        -7.5781
  67   0.0000       0.021852         0.5946
  68   0.0000       0.069343         1.8869
  69   0.0000       0.094714         2.5773
  70   0.0000       0.117642         3.2012
  71   0.0000       0.133607         3.6356

MULLIKEN ATOMIC CHARGES
-----------------------
   0 S :    0.087485
   1 C :   -0.096397
   2 C :   -0.088877
   3 C :    0.008976
   4 C :   -0.097017
   5 H :   -0.033997
   6 C :    0.017128
   7 H :    0.049244
   8 H :    0.048080
   9 C :   -0.078778
  10 H :    0.030556
  11 H :    0.029093
  12 C :   -0.003718
  13 H :    0.037355
  14 H :    0.023298
  15 H :    0.034427
  16 S :    0.108936
  17 C :   -0.081577
  18 C :   -0.035452
  19 C :    0.003805
  20 C :   -0.155099
  21 H :   -0.003962
  22 C :    0.040916
  23 H :    0.036011
  24 H :    0.010417
  25 C :   -0.101639
  26 H :    0.034857
  27 H :    0.032394
  28 C :   -0.049351
  29 H :    0.042559
  30 H :    0.041490
  31 H :    0.042602
  32 H :    0.009530
  33 H :    0.056702
Sum of atomic charges:   -0.0000000

LOEWDIN ATOMIC CHARGES
----------------------
   0 S :    0.373060
   1 C :   -0.179377
   2 C :   -0.051349
   3 C :   -0.069105
   4 C :   -0.184254
   5 H :    0.010552
   6 C :   -0.036779
   7 H :    0.039357
   8 H :    0.039425
   9 C :   -0.041739
  10 H :    0.019025
  11 H :    0.025942
  12 C :   -0.062701
  13 H :    0.025751
  14 H :    0.031081
  15 H :    0.030615
  16 S :    0.415610
  17 C :   -0.191145
  18 C :   -0.058509
  19 C :   -0.043710
  20 C :   -0.192463
  21 H :    0.017262
  22 C :   -0.040246
  23 H :    0.038023
  24 H :    0.024710
  25 C :   -0.038382
  26 H :    0.019203
  27 H :    0.022088
  28 C :   -0.057615
  29 H :    0.023131
  30 H :    0.031173
  31 H :    0.030988
  32 H :    0.004759
  33 H :    0.025618

  Mayer bond orders larger than 0.100000
B(  0-S ,  1-C ) :   1.1217 B(  0-S ,  4-C ) :   1.1416 B(  1-C ,  2-C ) :   1.6134
B(  1-C ,  4-C ) :   0.1008 B(  1-C , 32-H ) :   0.9851 B(  2-C ,  3-C ) :   1.2535
B(  2-C ,  6-C ) :   0.9869 B(  3-C ,  4-C ) :   1.5534 B(  3-C ,  5-H ) :   0.9947
B(  4-C , 20-C ) :   1.0554 B(  6-C ,  7-H ) :   0.9344 B(  6-C ,  8-H ) :   0.9466
B(  6-C ,  9-C ) :   1.0775 B(  9-C , 10-H ) :   0.9454 B(  9-C , 11-H ) :   0.9513
B(  9-C , 12-C ) :   1.0708 B( 12-C , 13-H ) :   0.9720 B( 12-C , 14-H ) :   0.9715
B( 12-C , 15-H ) :   0.9748 B( 16-S , 17-C ) :   1.1576 B( 16-S , 20-C ) :   1.1497
B( 17-C , 18-C ) :   1.6084 B( 17-C , 33-H ) :   0.9645 B( 18-C , 19-C ) :   1.2233
B( 18-C , 21-H ) :   0.9979 B( 19-C , 20-C ) :   1.5684 B( 19-C , 22-C ) :   1.0397
B( 22-C , 23-H ) :   0.9211 B( 22-C , 24-H ) :   0.9337 B( 22-C , 25-C ) :   1.0779
B( 25-C , 26-H ) :   0.9599 B( 25-C , 27-H ) :   0.9414 B( 25-C , 28-C ) :   1.0736
B( 28-C , 29-H ) :   0.9732 B( 28-C , 30-H ) :   0.9761 B( 28-C , 31-H ) :   0.9762

Dispersion correction           -0.013174506
FINAL SINGLE POINT ENERGY     -1339.842267570472

DIPOLE MOMENT
-------------
                                X             Y             Z
Electronic contribution:    -14.41708       3.53438     -28.94392
Nuclear contribution   :     14.80850      -3.48109      29.71430
                        -----------------------------------------
Total Dipole Moment    :      0.39141       0.05329       0.77038
                        -----------------------------------------
Magnitude (a.u.)       :      0.86576
Magnitude (Debye)      :      2.20058

Rotational constants in cm-1:     0.014776     0.009201     0.006163
Rotational constants in MHz :   442.961610   275.839177   184.768552

                             ****ORCA TERMINATED NORMALLY****
TOTAL RUN TIME: 0 days 0 hours 0 minutes 32 seconds 61 msec
