                         Program Version 4.2.1 -  RELEASE  -
|  1> ! wB97X-D3 SP def2-SVP
|  2> %pal
|  3> nprocs 16
|  4> end
|  5>
|  6> * xyz 0 1
|  7> S 	 35.2171 	 11.0107 	 84.9875
|  8> C 	 34.9448 	 10.0945 	 83.4672
|  9> C 	 35.9937 	 9.27978 	 83.1349
| 10> C 	 37.1503 	 9.69248 	 83.9383
| 11> C 	 36.8831 	 10.5363 	 85.0258
| 12> H 	 38.0767 	 9.05995 	 84.0303
| 13> C 	 36.0149 	 8.25871 	 82.0408
| 14> H 	 37.0325 	 7.82475 	 81.9855
| 15> H 	 35.838 	 8.7099 	 81.0909
| 16> C 	 35.0487 	 7.10113 	 82.2892
| 17> H 	 35.4563 	 6.6026 	 83.1211
| 18> H 	 34.0536 	 7.40288 	 82.6106
| 19> C 	 34.7944 	 6.05679 	 81.1059
| 20> H 	 34.2552 	 5.10708 	 81.2936
| 21> H 	 34.2069 	 6.6419 	 80.3632
| 22> H 	 35.7656 	 5.84404 	 80.6492
| 23> S 	 36.8981 	 10.8732 	 87.7601
| 24> C 	 38.3388 	 11.3028 	 88.5051
| 25> C 	 39.4272 	 11.456 	 87.6669
| 26> C 	 39.1059 	 11.1143 	 86.3077
| 27> C 	 37.7356 	 10.8386 	 86.2195
| 28> H 	 40.3829 	 11.7188 	 88.1168
| 29> C 	 40.1586 	 11.1069 	 85.1237
| 30> H 	 39.7052 	 11.3828 	 84.1877
| 31> H 	 40.4032 	 10.0797 	 84.8516
| 32> C 	 41.3459 	 12.1108 	 85.2995
| 33> H 	 41.8395 	 11.7454 	 86.2605
| 34> H 	 40.9313 	 13.0761 	 85.5388
| 35> C 	 42.4214 	 12.1328 	 84.1981
| 36> H 	 42.09 	 12.5375 	 83.2316
| 37> H 	 42.8375 	 11.1093 	 83.9763
| 38> H 	 43.3789 	 12.5672 	 84.4241
| 39> H 	 34.0196 	 10.0719 	 82.8966
| 40> H 	 38.4966 	 11.5037 	 89.5832
| 41> *
| 42>
| 43>                          ****END OF INPUT****

CARTESIAN COORDINATES (ANGSTROEM)
---------------------------------
  S     35.217100   11.010700   84.987500
  C     34.944800   10.094500   83.467200
  C     35.993700    9.279780   83.134900
  C     37.150300    9.692480   83.938300
  C     36.883100   10.536300   85.025800
  H     38.076700    9.059950   84.030300
  C     36.014900    8.258710   82.040800
  H     37.032500    7.824750   81.985500
  H     35.838000    8.709900   81.090900
  C     35.048700    7.101130   82.289200
  H     35.456300    6.602600   83.121100
  H     34.053600    7.402880   82.610600
  C     34.794400    6.056790   81.105900
  H     34.255200    5.107080   81.293600
  H     34.206900    6.641900   80.363200
  H     35.765600    5.844040   80.649200
  S     36.898100   10.873200   87.760100
  C     38.338800   11.302800   88.505100
  C     39.427200   11.456000   87.666900
  C     39.105900   11.114300   86.307700
  C     37.735600   10.838600   86.219500
  H     40.382900   11.718800   88.116800
  C     40.158600   11.106900   85.123700
  H     39.705200   11.382800   84.187700
  H     40.403200   10.079700   84.851600
  C     41.345900   12.110800   85.299500
  H     41.839500   11.745400   86.260500
  H     40.931300   13.076100   85.538800
  C     42.421400   12.132800   84.198100
  H     42.090000   12.537500   83.231600
  H     42.837500   11.109300   83.976300
  H     43.378900   12.567200   84.424100
  H     34.019600   10.071900   82.896600
  H     38.496600   11.503700   89.583200

 Total Charge           Charge          ....    0
 Multiplicity           Mult            ....    1
 Number of Electrons    NEL             ....  134
 Basis Dimension        Dim             ....  322

ORBITAL ENERGIES
----------------

  NO   OCC          E(Eh)            E(eV)
   0   2.0000     -88.972396     -2421.0620
   1   2.0000     -88.967322     -2420.9239
   2   2.0000     -10.334424      -281.2140
   3   2.0000     -10.332050      -281.1494
   4   2.0000     -10.314800      -280.6800
   5   2.0000     -10.314058      -280.6598
   6   2.0000     -10.313321      -280.6397
   7   2.0000     -10.305259      -280.4204
   8   2.0000     -10.298835      -280.2456
   9   2.0000     -10.298753      -280.2433
  10   2.0000     -10.297508      -280.2094
  11   2.0000     -10.295707      -280.1604
  12   2.0000     -10.294761      -280.1347
  13   2.0000     -10.287804      -279.9454
  14   2.0000     -10.285884      -279.8931
  15   2.0000     -10.285402      -279.8800
  16   2.0000      -8.088194      -220.0909
  17   2.0000      -8.081582      -219.9110
  18   2.0000      -6.046552      -164.5350
  19   2.0000      -6.042629      -164.4283
  20   2.0000      -6.040227      -164.3629
  21   2.0000      -6.038974      -164.3288
  22   2.0000      -6.036232      -164.2542
  23   2.0000      -6.032150      -164.1431
  24   2.0000      -1.008449       -27.4413
  25   2.0000      -0.983877       -26.7727
  26   2.0000      -0.913210       -24.8497
  27   2.0000      -0.902109       -24.5476
  28   2.0000      -0.862986       -23.4830
  29   2.0000      -0.853201       -23.2168
  30   2.0000      -0.838071       -22.8051
  31   2.0000      -0.808931       -22.0121
  32   2.0000      -0.787235       -21.4217
  33   2.0000      -0.776726       -21.1358
  34   2.0000      -0.707390       -19.2491
  35   2.0000      -0.704992       -19.1838
  36   2.0000      -0.693177       -18.8623
  37   2.0000      -0.653301       -17.7772
  38   2.0000      -0.633342       -17.2341
  39   2.0000      -0.614369       -16.7178
  40   2.0000      -0.597438       -16.2571
  41   2.0000      -0.571410       -15.5489
  42   2.0000      -0.559716       -15.2307
  43   2.0000      -0.558230       -15.1902
  44   2.0000      -0.521762       -14.1979
  45   2.0000      -0.518958       -14.1216
  46   2.0000      -0.513896       -13.9838
  47   2.0000      -0.509287       -13.8584
  48   2.0000      -0.501478       -13.6459
  49   2.0000      -0.495820       -13.4919
  50   2.0000      -0.493242       -13.4218
  51   2.0000      -0.479665       -13.0524
  52   2.0000      -0.472816       -12.8660
  53   2.0000      -0.461955       -12.5704
  54   2.0000      -0.460534       -12.5318
  55   2.0000      -0.455372       -12.3913
  56   2.0000      -0.448302       -12.1989
  57   2.0000      -0.436458       -11.8766
  58   2.0000      -0.431683       -11.7467
  59   2.0000      -0.426953       -11.6180
  60   2.0000      -0.421892       -11.4803
  61   2.0000      -0.418380       -11.3847
  62   2.0000      -0.408258       -11.1093
  63   2.0000      -0.352481        -9.5915
  64   2.0000      -0.337703        -9.1894
  65   2.0000      -0.330039        -8.9808
  66   2.0000      -0.285841        -7.7781
  67   0.0000       0.027743         0.7549
  68   0.0000       0.069838         1.9004
  69   0.0000       0.106158         2.8887
  70   0.0000       0.120519         3.2795
  71   0.0000       0.129149         3.5143

MULLIKEN ATOMIC CHARGES
-----------------------
   0 S :    0.096203
   1 C :   -0.117979
   2 C :   -0.112764
   3 C :   -0.000388
   4 C :   -0.132270
   5 H :    0.031415
   6 C :    0.099963
   7 H :    0.023215
   8 H :    0.030153
   9 C :   -0.091209
  10 H :    0.020430
  11 H :    0.028451
  12 C :   -0.070035
  13 H :    0.054883
  14 H :    0.032817
  15 H :    0.028759
  16 S :    0.135415
  17 C :   -0.091767
  18 C :   -0.069328
  19 C :   -0.022164
  20 C :   -0.163636
  21 H :    0.021454
  22 C :    0.073517
  23 H :    0.018325
  24 H :    0.032913
  25 C :   -0.091523
  26 H :    0.036849
  27 H :    0.040983
  28 C :   -0.041362
  29 H :    0.039301
  30 H :    0.022072
  31 H :    0.029304
  32 H :    0.047034
  33 H :    0.060970
Sum of atomic charges:    0.0000000

LOEWDIN ATOMIC CHARGES
----------------------
   0 S :    0.389751
   1 C :   -0.183081
   2 C :   -0.057073
   3 C :   -0.086840
   4 C :   -0.192274
   5 H :    0.034382
   6 C :   -0.027805
   7 H :    0.035929
   8 H :    0.028135
   9 C :   -0.037335
  10 H :    0.017903
  11 H :    0.020242
  12 C :   -0.071867
  13 H :    0.032916
  14 H :    0.026650
  15 H :    0.021868
  16 S :    0.439300
  17 C :   -0.215385
  18 C :   -0.078514
  19 C :   -0.046554
  20 C :   -0.198320
  21 H :    0.032574
  22 C :   -0.031345
  23 H :    0.027832
  24 H :    0.030976
  25 C :   -0.041638
  26 H :    0.028499
  27 H :    0.025665
  28 C :   -0.075058
  29 H :    0.026355
  30 H :    0.032291
  31 H :    0.027237
  32 H :    0.027952
  33 H :    0.036633

  Mayer bond orders larger than 0.100000
B(  0-S ,  1-C ) :   1.1175 B(  0-S ,  4-C ) :   1.1508 B(  1-C ,  2-C ) :   1.6398
B(  1-C , 32-H ) :   0.9656 B(  2-C ,  3-C ) :   1.2384 B(  2-C ,  6-C ) :   1.0260
B(  3-C ,  4-C ) :   1.5849 B(  3-C ,  5-H ) :   0.9682 B(  4-C , 20-C ) :   1.0395
B(  6-C ,  7-H ) :   0.9369 B(  6-C ,  8-H ) :   0.9415 B(  6-C ,  9-C ) :   1.0446
B(  9-C , 10-H ) :   0.9575 B(  9-C , 11-H ) :   0.9680 B(  9-C , 12-C ) :   1.0625
B( 12-C , 13-H ) :   0.9782 B( 12-C , 14-H ) :   0.9785 B( 12-C , 15-H ) :   0.9768
B( 16-S , 17-C ) :   1.1689 B( 16-S , 20-C ) :   1.1523 B( 17-C , 18-C ) :   1.6214
B( 17-C , 33-H ) :   0.9557 B( 18-C , 19-C ) :   1.2423 B( 18-C , 21-H ) :   0.9879
B( 19-C , 20-C ) :   1.5984 B( 19-C , 22-C ) :   1.0194 B( 22-C , 23-H ) :   0.9340
B( 22-C , 24-H ) :   0.9363 B( 22-C , 25-C ) :   1.0520 B( 25-C , 26-H ) :   0.9507
B( 25-C , 27-H ) :   0.9624 B( 25-C , 28-C ) :   1.0775 B( 28-C , 29-H ) :   0.9763
B( 28-C , 30-H ) :   0.9698 B( 28-C , 31-H ) :   0.9739

Dispersion correction           -0.013167217
FINAL SINGLE POINT ENERGY     -1339.864505915019

DIPOLE MOMENT
-------------
                                X             Y             Z
Electronic contribution:    -14.33135      10.77393      20.14673
Nuclear contribution   :     14.76246     -11.09252     -20.38207
                        -----------------------------------------
Total Dipole Moment    :      0.43111      -0.31859      -0.23534
                        -----------------------------------------
Magnitude (a.u.)       :      0.58544
Magnitude (Debye)      :      1.48807

Rotational constants in cm-1:     0.018443     0.007208     0.005710
Rotational constants in MHz :   552.904938   216.090680   171.191939

                             ****ORCA TERMINATED NORMALLY****
TOTAL RUN TIME: 0 days 0 hours 0 minutes 28 seconds 510 msec
