                         Program Version 4.2.1 -  RELEASE  -
|  1> ! wB97X-D3 SP def2-SVP
|  2> %pal
|  3> nprocs 16
|  4> end
|  5>
|  6> * xyz 0 1
|  7> S 	 50.1503 	 12.4269 	 83.4041
|  8> C 	 49.7371 	 13.9722 	 82.714
|  9> C 	 49.8738 	 13.9879 	 81.3429
| 10> C 	 50.2929 	 12.7038 	 80.8244
| 11> C 	 50.3895 	 11.7102 	 81.7376
| 12> H 	 50.5121 	 12.3982 	 79.8531
| 13> C 	 49.5001 	 15.185 	 80.4505
| 14> H 	 49.4639 	 16.0183 	 81.1609
| 15> H 	 48.4536 	 15.0234 	 80.0235
| 16> C 	 50.5109 	 15.4633 	 79.3209
| 17> H 	 51.5114 	 15.4713 	 79.7259
| 18> H 	 50.3421 	 14.634 	 78.6001
| 19> C 	 50.2349 	 16.6922 	 78.5148
| 20> H 	 50.3664 	 17.6278 	 79.1365
| 21> H 	 50.8704 	 16.7267 	 77.6769
| 22> H 	 49.1858 	 16.7038 	 78.2155
| 23> S 	 51.797 	 10.1102 	 80.0698
| 24> C 	 52.0435 	 8.46184 	 80.5366
| 25> C 	 51.3284 	 8.12548 	 81.6389
| 26> C 	 50.5639 	 9.19886 	 82.1697
| 27> C 	 50.779 	 10.3418 	 81.4472
| 28> H 	 51.3383 	 7.1575 	 82.1667
| 29> C 	 49.5813 	 9.11905 	 83.3159
| 30> H 	 48.8403 	 8.34537 	 83.0857
| 31> H 	 48.9914 	 10.02 	 83.4039
| 32> C 	 50.1133 	 8.70983 	 84.7259
| 33> H 	 50.7199 	 7.7707 	 84.6311
| 34> H 	 49.3729 	 8.63576 	 85.436
| 35> C 	 51.1966 	 9.77182 	 85.2413
| 36> H 	 51.6884 	 9.32909 	 86.0814
| 37> H 	 50.7681 	 10.6613 	 85.5868
| 38> H 	 51.9615 	 10.0781 	 84.5344
| 39> H 	 49.5329 	 14.8499 	 83.2949
| 40> H 	 52.3886 	 7.64376 	 79.8915
| 41> *
| 42>
| 43>                          ****END OF INPUT****

CARTESIAN COORDINATES (ANGSTROEM)
---------------------------------
  S     50.150300   12.426900   83.404100
  C     49.737100   13.972200   82.714000
  C     49.873800   13.987900   81.342900
  C     50.292900   12.703800   80.824400
  C     50.389500   11.710200   81.737600
  H     50.512100   12.398200   79.853100
  C     49.500100   15.185000   80.450500
  H     49.463900   16.018300   81.160900
  H     48.453600   15.023400   80.023500
  C     50.510900   15.463300   79.320900
  H     51.511400   15.471300   79.725900
  H     50.342100   14.634000   78.600100
  C     50.234900   16.692200   78.514800
  H     50.366400   17.627800   79.136500
  H     50.870400   16.726700   77.676900
  H     49.185800   16.703800   78.215500
  S     51.797000   10.110200   80.069800
  C     52.043500    8.461840   80.536600
  C     51.328400    8.125480   81.638900
  C     50.563900    9.198860   82.169700
  C     50.779000   10.341800   81.447200
  H     51.338300    7.157500   82.166700
  C     49.581300    9.119050   83.315900
  H     48.840300    8.345370   83.085700
  H     48.991400   10.020000   83.403900
  C     50.113300    8.709830   84.725900
  H     50.719900    7.770700   84.631100
  H     49.372900    8.635760   85.436000
  C     51.196600    9.771820   85.241300
  H     51.688400    9.329090   86.081400
  H     50.768100   10.661300   85.586800
  H     51.961500   10.078100   84.534400
  H     49.532900   14.849900   83.294900
  H     52.388600    7.643760   79.891500

 Total Charge           Charge          ....    0
 Multiplicity           Mult            ....    1
 Number of Electrons    NEL             ....  134
 Basis Dimension        Dim             ....  322

ORBITAL ENERGIES
----------------

  NO   OCC          E(Eh)            E(eV)
   0   2.0000     -88.968141     -2420.9462
   1   2.0000     -88.965065     -2420.8625
   2   2.0000     -10.329978      -281.0930
   3   2.0000     -10.322733      -280.8958
   4   2.0000     -10.315368      -280.6954
   5   2.0000     -10.312585      -280.6197
   6   2.0000     -10.303478      -280.3719
   7   2.0000     -10.299221      -280.2561
   8   2.0000     -10.298857      -280.2462
   9   2.0000     -10.294022      -280.1146
  10   2.0000     -10.289667      -279.9961
  11   2.0000     -10.288645      -279.9683
  12   2.0000     -10.287650      -279.9412
  13   2.0000     -10.285512      -279.8830
  14   2.0000     -10.276373      -279.6343
  15   2.0000     -10.263443      -279.2825
  16   2.0000      -8.083642      -219.9671
  17   2.0000      -8.078045      -219.8148
  18   2.0000      -6.042154      -164.4154
  19   2.0000      -6.038204      -164.3079
  20   2.0000      -6.036783      -164.2692
  21   2.0000      -6.034199      -164.1989
  22   2.0000      -6.032867      -164.1627
  23   2.0000      -6.028578      -164.0460
  24   2.0000      -1.013159       -27.5695
  25   2.0000      -0.983515       -26.7628
  26   2.0000      -0.910825       -24.7848
  27   2.0000      -0.903402       -24.5828
  28   2.0000      -0.878606       -23.9081
  29   2.0000      -0.849638       -23.1198
  30   2.0000      -0.844124       -22.9698
  31   2.0000      -0.818889       -22.2831
  32   2.0000      -0.783365       -21.3164
  33   2.0000      -0.768240       -20.9049
  34   2.0000      -0.710730       -19.3399
  35   2.0000      -0.700364       -19.0579
  36   2.0000      -0.684695       -18.6315
  37   2.0000      -0.671470       -18.2716
  38   2.0000      -0.636592       -17.3225
  39   2.0000      -0.614896       -16.7322
  40   2.0000      -0.598981       -16.2991
  41   2.0000      -0.577082       -15.7032
  42   2.0000      -0.559840       -15.2340
  43   2.0000      -0.549040       -14.9401
  44   2.0000      -0.541680       -14.7399
  45   2.0000      -0.528105       -14.3705
  46   2.0000      -0.515738       -14.0339
  47   2.0000      -0.511621       -13.9219
  48   2.0000      -0.500977       -13.6323
  49   2.0000      -0.496996       -13.5239
  50   2.0000      -0.493535       -13.4298
  51   2.0000      -0.478402       -13.0180
  52   2.0000      -0.472715       -12.8632
  53   2.0000      -0.466059       -12.6821
  54   2.0000      -0.462499       -12.5852
  55   2.0000      -0.451844       -12.2953
  56   2.0000      -0.447564       -12.1788
  57   2.0000      -0.434344       -11.8191
  58   2.0000      -0.431019       -11.7286
  59   2.0000      -0.427694       -11.6381
  60   2.0000      -0.417292       -11.3551
  61   2.0000      -0.414291       -11.2734
  62   2.0000      -0.405477       -11.0336
  63   2.0000      -0.362097        -9.8532
  64   2.0000      -0.334433        -9.1004
  65   2.0000      -0.327569        -8.9136
  66   2.0000      -0.286753        -7.8029
  67   0.0000       0.023814         0.6480
  68   0.0000       0.083603         2.2750
  69   0.0000       0.103451         2.8150
  70   0.0000       0.108709         2.9581
  71   0.0000       0.132137         3.5956

MULLIKEN ATOMIC CHARGES
-----------------------
   0 S :    0.078395
   1 C :   -0.107537
   2 C :   -0.066234
   3 C :   -0.003864
   4 C :   -0.085390
   5 H :   -0.011484
   6 C :    0.052758
   7 H :    0.010584
   8 H :    0.054665
   9 C :   -0.107151
  10 H :    0.038090
  11 H :    0.036989
  12 C :   -0.016746
  13 H :    0.030198
  14 H :    0.031656
  15 H :    0.022581
  16 S :    0.098811
  17 C :   -0.069882
  18 C :   -0.047696
  19 C :   -0.059623
  20 C :   -0.151162
  21 H :    0.025773
  22 C :    0.049672
  23 H :    0.032643
  24 H :    0.025989
  25 C :   -0.052861
  26 H :    0.034094
  27 H :    0.023078
  28 C :   -0.060281
  29 H :    0.021495
  30 H :    0.020642
  31 H :    0.040313
  32 H :    0.042977
  33 H :    0.068508
Sum of atomic charges:    0.0000000

LOEWDIN ATOMIC CHARGES
----------------------
   0 S :    0.389849
   1 C :   -0.194872
   2 C :   -0.061731
   3 C :   -0.065063
   4 C :   -0.154888
   5 H :    0.012378
   6 C :   -0.032270
   7 H :    0.023935
   8 H :    0.040364
   9 C :   -0.046183
  10 H :    0.025471
  11 H :    0.028785
  12 C :   -0.061362
  13 H :    0.028201
  14 H :    0.020964
  15 H :    0.025182
  16 S :    0.423873
  17 C :   -0.197934
  18 C :   -0.067197
  19 C :   -0.060692
  20 C :   -0.194800
  21 H :    0.036224
  22 C :   -0.038139
  23 H :    0.035287
  24 H :    0.019420
  25 C :   -0.022034
  26 H :    0.026294
  27 H :    0.013968
  28 C :   -0.070763
  29 H :    0.021143
  30 H :    0.007087
  31 H :    0.024344
  32 H :    0.026581
  33 H :    0.038577

  Mayer bond orders larger than 0.100000
B(  0-S ,  1-C ) :   1.1235 B(  0-S ,  4-C ) :   1.0955 B(  1-C ,  2-C ) :   1.6483
B(  1-C , 32-H ) :   0.9652 B(  2-C ,  3-C ) :   1.1828 B(  2-C ,  6-C ) :   1.0215
B(  3-C ,  4-C ) :   1.6201 B(  3-C ,  5-H ) :   1.0013 B(  4-C , 20-C ) :   1.0797
B(  6-C ,  7-H ) :   0.9410 B(  6-C ,  8-H ) :   0.9367 B(  6-C ,  9-C ) :   1.0644
B(  9-C , 10-H ) :   0.9602 B(  9-C , 11-H ) :   0.9461 B(  9-C , 12-C ) :   1.1006
B( 12-C , 13-H ) :   0.9721 B( 12-C , 14-H ) :   0.9726 B( 12-C , 15-H ) :   0.9687
B( 16-S , 17-C ) :   1.1400 B( 16-S , 20-C ) :   1.1430 B( 17-C , 18-C ) :   1.6241
B( 17-C , 33-H ) :   0.9558 B( 18-C , 19-C ) :   1.2519 B( 18-C , 21-H ) :   0.9815
B( 19-C , 20-C ) :   1.5785 B( 19-C , 22-C ) :   1.0410 B( 22-C , 23-H ) :   0.9308
B( 22-C , 24-H ) :   0.9329 B( 22-C , 25-C ) :   1.0702 B( 25-C , 26-H ) :   0.9626
B( 25-C , 27-H ) :   0.9577 B( 25-C , 28-C ) :   1.0654 B( 28-C , 29-H ) :   0.9754
B( 28-C , 30-H ) :   0.9741 B( 28-C , 31-H ) :   0.9774

Dispersion correction           -0.014561173
FINAL SINGLE POINT ENERGY     -1339.879255276095

DIPOLE MOMENT
-------------
                                X             Y             Z
Electronic contribution:      3.52216      -9.55092      -1.45541
Nuclear contribution   :     -3.72168       9.56643       1.35086
                        -----------------------------------------
Total Dipole Moment    :     -0.19952       0.01551      -0.10455
                        -----------------------------------------
Magnitude (a.u.)       :      0.22579
Magnitude (Debye)      :      0.57390

Rotational constants in cm-1:     0.023231     0.008242     0.006380
Rotational constants in MHz :   696.459587   247.083130   191.264633

                             ****ORCA TERMINATED NORMALLY****
TOTAL RUN TIME: 0 days 0 hours 0 minutes 30 seconds 504 msec
