                         Program Version 4.2.1 -  RELEASE  -
|  1> ! wB97X-D3 SP def2-SVP
|  2> %pal
|  3> nprocs 16
|  4> end
|  5>
|  6> * xyz 0 1
|  7> S 	 9.80344 	 20.1369 	 60.6279
|  8> C 	 10.2036 	 21.2117 	 59.3413
|  9> C 	 9.16831 	 21.2045 	 58.3979
| 10> C 	 7.9755 	 20.5754 	 58.9252
| 11> C 	 8.09498 	 20.1113 	 60.2232
| 12> H 	 6.95804 	 20.711 	 58.5786
| 13> C 	 9.10313 	 22.0599 	 57.1952
| 14> H 	 9.14765 	 23.0526 	 57.5931
| 15> H 	 8.07626 	 21.967 	 56.7863
| 16> C 	 10.1267 	 21.6971 	 56.1729
| 17> H 	 10.2913 	 22.5521 	 55.5096
| 18> H 	 11.1438 	 21.6199 	 56.6349
| 19> C 	 9.77764 	 20.5775 	 55.1857
| 20> H 	 8.87813 	 20.925 	 54.6278
| 21> H 	 10.5331 	 20.1843 	 54.5088
| 22> H 	 9.42935 	 19.686 	 55.801
| 23> S 	 7.7116 	 18.5314 	 62.5438
| 24> C 	 6.14073 	 18.65 	 63.3275
| 25> C 	 5.28731 	 19.4263 	 62.633
| 26> C 	 5.82145 	 20.0534 	 61.4607
| 27> C 	 7.14707 	 19.7658 	 61.278
| 28> H 	 4.31883 	 19.6175 	 63.074
| 29> C 	 4.91769 	 20.8994 	 60.6157
| 30> H 	 5.59732 	 21.5742 	 60.2067
| 31> H 	 4.55086 	 21.5793 	 61.3525
| 32> C 	 3.8158 	 20.3949 	 59.7202
| 33> H 	 3.21911 	 21.305 	 59.4508
| 34> H 	 3.09831 	 19.6879 	 60.2516
| 35> C 	 4.33167 	 19.6795 	 58.5317
| 36> H 	 5.1112 	 18.9828 	 58.8623
| 37> H 	 4.84167 	 20.4263 	 57.8693
| 38> H 	 3.41416 	 19.2494 	 58.008
| 39> H 	 11.0844 	 21.8397 	 59.1895
| 40> H 	 5.84506 	 18.1974 	 64.2518
| 41> *
| 42>
| 43>                          ****END OF INPUT****

CARTESIAN COORDINATES (ANGSTROEM)
---------------------------------
  S      9.803440   20.136900   60.627900
  C     10.203600   21.211700   59.341300
  C      9.168310   21.204500   58.397900
  C      7.975500   20.575400   58.925200
  C      8.094980   20.111300   60.223200
  H      6.958040   20.711000   58.578600
  C      9.103130   22.059900   57.195200
  H      9.147650   23.052600   57.593100
  H      8.076260   21.967000   56.786300
  C     10.126700   21.697100   56.172900
  H     10.291300   22.552100   55.509600
  H     11.143800   21.619900   56.634900
  C      9.777640   20.577500   55.185700
  H      8.878130   20.925000   54.627800
  H     10.533100   20.184300   54.508800
  H      9.429350   19.686000   55.801000
  S      7.711600   18.531400   62.543800
  C      6.140730   18.650000   63.327500
  C      5.287310   19.426300   62.633000
  C      5.821450   20.053400   61.460700
  C      7.147070   19.765800   61.278000
  H      4.318830   19.617500   63.074000
  C      4.917690   20.899400   60.615700
  H      5.597320   21.574200   60.206700
  H      4.550860   21.579300   61.352500
  C      3.815800   20.394900   59.720200
  H      3.219110   21.305000   59.450800
  H      3.098310   19.687900   60.251600
  C      4.331670   19.679500   58.531700
  H      5.111200   18.982800   58.862300
  H      4.841670   20.426300   57.869300
  H      3.414160   19.249400   58.008000
  H     11.084400   21.839700   59.189500
  H      5.845060   18.197400   64.251800

 Total Charge           Charge          ....    0
 Multiplicity           Mult            ....    1
 Number of Electrons    NEL             ....  134
 Basis Dimension        Dim             ....  322

ORBITAL ENERGIES
----------------

  NO   OCC          E(Eh)            E(eV)
   0   2.0000     -88.963563     -2420.8216
   1   2.0000     -88.961699     -2420.7709
   2   2.0000     -10.336453      -281.2692
   3   2.0000     -10.330816      -281.1158
   4   2.0000     -10.315096      -280.6880
   5   2.0000     -10.314972      -280.6847
   6   2.0000     -10.304023      -280.3867
   7   2.0000     -10.301098      -280.3071
   8   2.0000     -10.295772      -280.1622
   9   2.0000     -10.295632      -280.1584
  10   2.0000     -10.289287      -279.9857
  11   2.0000     -10.287795      -279.9451
  12   2.0000     -10.287278      -279.9311
  13   2.0000     -10.285162      -279.8735
  14   2.0000     -10.284681      -279.8604
  15   2.0000     -10.283029      -279.8155
  16   2.0000      -8.077055      -219.7878
  17   2.0000      -8.076983      -219.7859
  18   2.0000      -6.035780      -164.2419
  19   2.0000      -6.035663      -164.2387
  20   2.0000      -6.031988      -164.1387
  21   2.0000      -6.031484      -164.1250
  22   2.0000      -6.027631      -164.0202
  23   2.0000      -6.027214      -164.0088
  24   2.0000      -1.005597       -27.3637
  25   2.0000      -0.983659       -26.7667
  26   2.0000      -0.921449       -25.0739
  27   2.0000      -0.919669       -25.0255
  28   2.0000      -0.870226       -23.6801
  29   2.0000      -0.856955       -23.3189
  30   2.0000      -0.845017       -22.9941
  31   2.0000      -0.817577       -22.2474
  32   2.0000      -0.788204       -21.4481
  33   2.0000      -0.774440       -21.0736
  34   2.0000      -0.708485       -19.2789
  35   2.0000      -0.704809       -19.1788
  36   2.0000      -0.694457       -18.8971
  37   2.0000      -0.660002       -17.9596
  38   2.0000      -0.638287       -17.3687
  39   2.0000      -0.612991       -16.6803
  40   2.0000      -0.595700       -16.2098
  41   2.0000      -0.574851       -15.6425
  42   2.0000      -0.566969       -15.4280
  43   2.0000      -0.563681       -15.3385
  44   2.0000      -0.546496       -14.8709
  45   2.0000      -0.535601       -14.5745
  46   2.0000      -0.521892       -14.2014
  47   2.0000      -0.510969       -13.9042
  48   2.0000      -0.509540       -13.8653
  49   2.0000      -0.500781       -13.6269
  50   2.0000      -0.487640       -13.2693
  51   2.0000      -0.476511       -12.9665
  52   2.0000      -0.472941       -12.8694
  53   2.0000      -0.464698       -12.6451
  54   2.0000      -0.457797       -12.4573
  55   2.0000      -0.455399       -12.3920
  56   2.0000      -0.445809       -12.1311
  57   2.0000      -0.438456       -11.9310
  58   2.0000      -0.431313       -11.7366
  59   2.0000      -0.423716       -11.5299
  60   2.0000      -0.412245       -11.2177
  61   2.0000      -0.407601       -11.0914
  62   2.0000      -0.402394       -10.9497
  63   2.0000      -0.359432        -9.7806
  64   2.0000      -0.332873        -9.0579
  65   2.0000      -0.325725        -8.8634
  66   2.0000      -0.282743        -7.6938
  67   0.0000       0.017158         0.4669
  68   0.0000       0.068092         1.8529
  69   0.0000       0.094495         2.5713
  70   0.0000       0.119286         3.2459
  71   0.0000       0.127970         3.4823

MULLIKEN ATOMIC CHARGES
-----------------------
   0 S :    0.100483
   1 C :   -0.106380
   2 C :   -0.123984
   3 C :    0.050711
   4 C :   -0.160516
   5 H :   -0.029350
   6 C :    0.072201
   7 H :    0.039293
   8 H :    0.018079
   9 C :   -0.070082
  10 H :    0.018267
  11 H :    0.026816
  12 C :   -0.067002
  13 H :    0.033505
  14 H :    0.049113
  15 H :    0.036043
  16 S :    0.072945
  17 C :   -0.060837
  18 C :   -0.031596
  19 C :   -0.107568
  20 C :   -0.086945
  21 H :    0.012767
  22 C :    0.094304
  23 H :   -0.009506
  24 H :    0.008949
  25 C :   -0.039560
  26 H :    0.038012
  27 H :    0.036850
  28 C :   -0.072657
  29 H :    0.056281
  30 H :    0.042934
  31 H :    0.053980
  32 H :    0.056432
  33 H :    0.048019
Sum of atomic charges:   -0.0000000

LOEWDIN ATOMIC CHARGES
----------------------
   0 S :    0.406199
   1 C :   -0.203416
   2 C :   -0.062879
   3 C :   -0.071947
   4 C :   -0.183176
   5 H :    0.023780
   6 C :   -0.035483
   7 H :    0.038190
   8 H :    0.033018
   9 C :   -0.051323
  10 H :    0.022017
  11 H :    0.025413
  12 C :   -0.070172
  13 H :    0.028585
  14 H :    0.028785
  15 H :    0.030394
  16 S :    0.343218
  17 C :   -0.166861
  18 C :   -0.073581
  19 C :   -0.057824
  20 C :   -0.159010
  21 H :    0.031113
  22 C :   -0.042849
  23 H :    0.024645
  24 H :    0.036488
  25 C :   -0.044365
  26 H :    0.033009
  27 H :    0.030677
  28 C :   -0.072656
  29 H :    0.032309
  30 H :    0.024805
  31 H :    0.038718
  32 H :    0.034531
  33 H :    0.029649

  Mayer bond orders larger than 0.100000
B(  0-S ,  1-C ) :   1.1455 B(  0-S ,  4-C ) :   1.1394 B(  1-C ,  2-C ) :   1.6051
B(  1-C , 32-H ) :   0.9674 B(  2-C ,  3-C ) :   1.2187 B(  2-C ,  6-C ) :   1.0226
B(  3-C ,  4-C ) :   1.5892 B(  3-C ,  5-H ) :   0.9823 B(  4-C , 20-C ) :   1.0541
B(  6-C ,  7-H ) :   0.9358 B(  6-C ,  8-H ) :   0.9431 B(  6-C ,  9-C ) :   1.0669
B(  9-C , 10-H ) :   0.9524 B(  9-C , 11-H ) :   0.9562 B(  9-C , 12-C ) :   1.0684
B( 12-C , 13-H ) :   0.9722 B( 12-C , 14-H ) :   0.9756 B( 12-C , 15-H ) :   0.9775
B( 16-S , 17-C ) :   1.1180 B( 16-S , 20-C ) :   1.0895 B( 17-C , 18-C ) :   1.6791
B( 17-C , 33-H ) :   0.9631 B( 18-C , 19-C ) :   1.1890 B( 18-C , 21-H ) :   0.9879
B( 19-C , 20-C ) :   1.6563 B( 19-C , 22-C ) :   1.0276 B( 22-C , 23-H ) :   0.9148
B( 22-C , 24-H ) :   0.9097 B( 22-C , 25-C ) :   1.0654 B( 25-C , 26-H ) :   0.9440
B( 25-C , 27-H ) :   0.9530 B( 25-C , 28-C ) :   1.0854 B( 28-C , 29-H ) :   0.9726
B( 28-C , 30-H ) :   0.9588 B( 28-C , 31-H ) :   0.9681

Dispersion correction           -0.014658877
FINAL SINGLE POINT ENERGY     -1339.850222008605

DIPOLE MOMENT
-------------
                                X             Y             Z
Electronic contribution:     10.63821      -8.65687      24.83931
Nuclear contribution   :    -11.23428       9.26972     -25.16943
                        -----------------------------------------
Total Dipole Moment    :     -0.59607       0.61284      -0.33012
                        -----------------------------------------
Magnitude (a.u.)       :      0.91644
Magnitude (Debye)      :      2.32940

Rotational constants in cm-1:     0.020376     0.008782     0.006627
Rotational constants in MHz :   610.843202   263.280425   198.685734

                             ****ORCA TERMINATED NORMALLY****
TOTAL RUN TIME: 0 days 0 hours 0 minutes 35 seconds 746 msec
