                         Program Version 4.2.1 -  RELEASE  -
|  1> ! wB97X-D3 SP def2-SVP
|  2> %pal
|  3> nprocs 16
|  4> end
|  5>
|  6> * xyz 0 1
|  7> S 	 -31.8513 	 28.0651 	 41.1269
|  8> C 	 -33.4113 	 27.7895 	 40.3983
|  9> C 	 -34.3148 	 28.5806 	 41.1161
| 10> C 	 -33.7518 	 29.2294 	 42.2513
| 11> C 	 -32.4136 	 29.2564 	 42.2926
| 12> H 	 -34.2147 	 29.8793 	 43.0057
| 13> C 	 -35.8143 	 28.5372 	 40.8043
| 14> H 	 -36.106 	 27.6016 	 40.3351
| 15> H 	 -35.9614 	 29.3265 	 40.1094
| 16> C 	 -36.7925 	 28.7125 	 41.8986
| 17> H 	 -36.4961 	 29.5949 	 42.4873
| 18> H 	 -37.7422 	 28.9412 	 41.4649
| 19> C 	 -36.9513 	 27.6528 	 42.9976
| 20> H 	 -37.9324 	 27.8778 	 43.4886
| 21> H 	 -37.0588 	 26.6731 	 42.4767
| 22> H 	 -36.1179 	 27.6785 	 43.7052
| 23> S 	 -30.7437 	 28.9236 	 44.3959
| 24> C 	 -29.8593 	 30.2787 	 45.1444
| 25> C 	 -30.3628 	 31.4541 	 44.6422
| 26> C 	 -31.341 	 31.2493 	 43.5943
| 27> C 	 -31.4943 	 29.9323 	 43.2048
| 28> H 	 -29.96 	 32.3102 	 45.1342
| 29> C 	 -32.078 	 32.4473 	 43.1179
| 30> H 	 -32.3768 	 32.1573 	 42.0778
| 31> H 	 -31.419 	 33.3357 	 42.9169
| 32> C 	 -33.2855 	 32.8175 	 43.9689
| 33> H 	 -33.7668 	 31.8907 	 44.3723
| 34> H 	 -34.0582 	 33.4001 	 43.4649
| 35> C 	 -32.9048 	 33.5195 	 45.2649
| 36> H 	 -32.7924 	 32.7921 	 46.0388
| 37> H 	 -33.6618 	 34.1966 	 45.5883
| 38> H 	 -32.1525 	 34.258 	 45.2444
| 39> H 	 -33.699 	 27.0997 	 39.6686
| 40> H 	 -29.1536 	 30.0646 	 45.9647
| 41> *
| 42>
| 43>                          ****END OF INPUT****

CARTESIAN COORDINATES (ANGSTROEM)
---------------------------------
  S    -31.851300   28.065100   41.126900
  C    -33.411300   27.789500   40.398300
  C    -34.314800   28.580600   41.116100
  C    -33.751800   29.229400   42.251300
  C    -32.413600   29.256400   42.292600
  H    -34.214700   29.879300   43.005700
  C    -35.814300   28.537200   40.804300
  H    -36.106000   27.601600   40.335100
  H    -35.961400   29.326500   40.109400
  C    -36.792500   28.712500   41.898600
  H    -36.496100   29.594900   42.487300
  H    -37.742200   28.941200   41.464900
  C    -36.951300   27.652800   42.997600
  H    -37.932400   27.877800   43.488600
  H    -37.058800   26.673100   42.476700
  H    -36.117900   27.678500   43.705200
  S    -30.743700   28.923600   44.395900
  C    -29.859300   30.278700   45.144400
  C    -30.362800   31.454100   44.642200
  C    -31.341000   31.249300   43.594300
  C    -31.494300   29.932300   43.204800
  H    -29.960000   32.310200   45.134200
  C    -32.078000   32.447300   43.117900
  H    -32.376800   32.157300   42.077800
  H    -31.419000   33.335700   42.916900
  C    -33.285500   32.817500   43.968900
  H    -33.766800   31.890700   44.372300
  H    -34.058200   33.400100   43.464900
  C    -32.904800   33.519500   45.264900
  H    -32.792400   32.792100   46.038800
  H    -33.661800   34.196600   45.588300
  H    -32.152500   34.258000   45.244400
  H    -33.699000   27.099700   39.668600
  H    -29.153600   30.064600   45.964700

 Total Charge           Charge          ....    0
 Multiplicity           Mult            ....    1
 Number of Electrons    NEL             ....  134
 Basis Dimension        Dim             ....  322

ORBITAL ENERGIES
----------------

  NO   OCC          E(Eh)            E(eV)
   0   2.0000     -88.960843     -2420.7476
   1   2.0000     -88.959107     -2420.7004
   2   2.0000     -10.328782      -281.0605
   3   2.0000     -10.327723      -281.0316
   4   2.0000     -10.322777      -280.8971
   5   2.0000     -10.313828      -280.6535
   6   2.0000     -10.308262      -280.5021
   7   2.0000     -10.303072      -280.3608
   8   2.0000     -10.295211      -280.1469
   9   2.0000     -10.293530      -280.1012
  10   2.0000     -10.292997      -280.0867
  11   2.0000     -10.290762      -280.0259
  12   2.0000     -10.284254      -279.8488
  13   2.0000     -10.281510      -279.7741
  14   2.0000     -10.278272      -279.6860
  15   2.0000     -10.266953      -279.3780
  16   2.0000      -8.075667      -219.7501
  17   2.0000      -8.074266      -219.7120
  18   2.0000      -6.034155      -164.1977
  19   2.0000      -6.032805      -164.1610
  20   2.0000      -6.030028      -164.0854
  21   2.0000      -6.028738      -164.0503
  22   2.0000      -6.026520      -163.9900
  23   2.0000      -6.024917      -163.9463
  24   2.0000      -1.011243       -27.5173
  25   2.0000      -0.987938       -26.8831
  26   2.0000      -0.916722       -24.9453
  27   2.0000      -0.912644       -24.8343
  28   2.0000      -0.876298       -23.8453
  29   2.0000      -0.849670       -23.1207
  30   2.0000      -0.840706       -22.8768
  31   2.0000      -0.826306       -22.4849
  32   2.0000      -0.785269       -21.3683
  33   2.0000      -0.775456       -21.1012
  34   2.0000      -0.712401       -19.3854
  35   2.0000      -0.696487       -18.9524
  36   2.0000      -0.687528       -18.7086
  37   2.0000      -0.662809       -18.0360
  38   2.0000      -0.647308       -17.6141
  39   2.0000      -0.621819       -16.9205
  40   2.0000      -0.599412       -16.3108
  41   2.0000      -0.576146       -15.6777
  42   2.0000      -0.559108       -15.2141
  43   2.0000      -0.554353       -15.0847
  44   2.0000      -0.546792       -14.8790
  45   2.0000      -0.542287       -14.7564
  46   2.0000      -0.525509       -14.2998
  47   2.0000      -0.518430       -14.1072
  48   2.0000      -0.513999       -13.9866
  49   2.0000      -0.505293       -13.7497
  50   2.0000      -0.487320       -13.2607
  51   2.0000      -0.481929       -13.1140
  52   2.0000      -0.472884       -12.8678
  53   2.0000      -0.467106       -12.7106
  54   2.0000      -0.463246       -12.6056
  55   2.0000      -0.441362       -12.0101
  56   2.0000      -0.433707       -11.8018
  57   2.0000      -0.432763       -11.7761
  58   2.0000      -0.431012       -11.7284
  59   2.0000      -0.417141       -11.3510
  60   2.0000      -0.413833       -11.2610
  61   2.0000      -0.407694       -11.0939
  62   2.0000      -0.405256       -11.0276
  63   2.0000      -0.345718        -9.4075
  64   2.0000      -0.327309        -8.9065
  65   2.0000      -0.323162        -8.7937
  66   2.0000      -0.305086        -8.3018
  67   0.0000       0.030816         0.8385
  68   0.0000       0.064398         1.7523
  69   0.0000       0.112471         3.0605
  70   0.0000       0.127212         3.4616
  71   0.0000       0.130625         3.5545

MULLIKEN ATOMIC CHARGES
-----------------------
   0 S :    0.101562
   1 C :   -0.084950
   2 C :   -0.107882
   3 C :    0.041556
   4 C :   -0.177653
   5 H :    0.010779
   6 C :    0.109090
   7 H :    0.013352
   8 H :    0.030966
   9 C :   -0.102199
  10 H :    0.015174
  11 H :    0.019411
  12 C :   -0.051462
  13 H :    0.041429
  14 H :    0.027706
  15 H :    0.047033
  16 S :    0.083176
  17 C :   -0.114300
  18 C :   -0.012487
  19 C :   -0.048365
  20 C :   -0.118314
  21 H :    0.018064
  22 C :    0.040878
  23 H :    0.030019
  24 H :    0.039474
  25 C :   -0.069255
  26 H :    0.038341
  27 H :    0.038292
  28 C :   -0.021716
  29 H :    0.035794
  30 H :    0.010275
  31 H :    0.008686
  32 H :    0.032565
  33 H :    0.074959
Sum of atomic charges:   -0.0000000

LOEWDIN ATOMIC CHARGES
----------------------
   0 S :    0.405949
   1 C :   -0.186349
   2 C :   -0.062399
   3 C :   -0.072086
   4 C :   -0.194132
   5 H :    0.034481
   6 C :   -0.031882
   7 H :    0.026556
   8 H :    0.033564
   9 C :   -0.051122
  10 H :    0.021334
  11 H :    0.022682
  12 C :   -0.064638
  13 H :    0.033962
  14 H :    0.023851
  15 H :    0.026211
  16 S :    0.394570
  17 C :   -0.169339
  18 C :   -0.069718
  19 C :   -0.052986
  20 C :   -0.205701
  21 H :    0.032861
  22 C :   -0.043537
  23 H :    0.035376
  24 H :    0.035698
  25 C :   -0.039184
  26 H :    0.031332
  27 H :    0.026054
  28 C :   -0.068597
  29 H :    0.024890
  30 H :    0.027088
  31 H :    0.016965
  32 H :    0.023017
  33 H :    0.035230

  Mayer bond orders larger than 0.100000
B(  0-S ,  1-C ) :   1.1462 B(  0-S ,  4-C ) :   1.1479 B(  1-C ,  2-C ) :   1.5848
B(  1-C ,  4-C ) :   0.1052 B(  1-C , 32-H ) :   0.9853 B(  2-C ,  3-C ) :   1.2363
B(  2-C ,  6-C ) :   1.0051 B(  3-C ,  4-C ) :   1.6061 B(  3-C ,  5-H ) :   0.9855
B(  4-C , 20-C ) :   0.9955 B(  6-C ,  7-H ) :   0.9445 B(  6-C ,  8-H ) :   0.9227
B(  6-C ,  9-C ) :   1.1064 B(  9-C , 10-H ) :   0.9418 B(  9-C , 11-H ) :   0.9501
B(  9-C , 12-C ) :   1.0769 B( 12-C , 13-H ) :   0.9735 B( 12-C , 14-H ) :   0.9750
B( 12-C , 15-H ) :   0.9762 B( 16-S , 17-C ) :   1.1511 B( 16-S , 20-C ) :   1.1543
B( 17-C , 18-C ) :   1.6050 B( 17-C , 20-C ) :   0.1003 B( 17-C , 33-H ) :   0.9672
B( 18-C , 19-C ) :   1.2059 B( 18-C , 21-H ) :   1.0015 B( 19-C , 20-C ) :   1.6057
B( 19-C , 22-C ) :   1.0601 B( 22-C , 23-H ) :   0.9263 B( 22-C , 24-H ) :   0.9449
B( 22-C , 25-C ) :   1.0571 B( 25-C , 26-H ) :   0.9533 B( 25-C , 27-H ) :   0.9628
B( 25-C , 28-C ) :   1.0755 B( 28-C , 29-H ) :   0.9786 B( 28-C , 30-H ) :   0.9643
B( 28-C , 31-H ) :   0.9702

Dispersion correction           -0.014854505
FINAL SINGLE POINT ENERGY     -1339.853050166337

DIPOLE MOMENT
-------------
                                X             Y             Z
Electronic contribution:     22.61520     -12.75674      -4.94596
Nuclear contribution   :    -23.18624      13.30082       5.17905
                        -----------------------------------------
Total Dipole Moment    :     -0.57105       0.54408       0.23309
                        -----------------------------------------
Magnitude (a.u.)       :      0.82247
Magnitude (Debye)      :      2.09055

Rotational constants in cm-1:     0.018509     0.009168     0.007283
Rotational constants in MHz :   554.879359   274.854470   218.329069

                             ****ORCA TERMINATED NORMALLY****
TOTAL RUN TIME: 0 days 0 hours 0 minutes 35 seconds 646 msec
