                         Program Version 4.2.1 -  RELEASE  -
|  1> ! wB97X-D3 SP def2-SVP
|  2> %pal
|  3> nprocs 16
|  4> end
|  5>
|  6> * xyz 0 1
|  7> S 	 -12.599 	 66.533 	 52.0013
|  8> C 	 -12.9054 	 64.855 	 51.8243
|  9> C 	 -11.8504 	 64.0105 	 52.185
| 10> C 	 -10.6441 	 64.7396 	 52.3356
| 11> C 	 -10.8986 	 66.0986 	 52.0689
| 12> H 	 -9.67419 	 64.4178 	 52.65
| 13> C 	 -11.9258 	 62.4628 	 52.2427
| 14> H 	 -11.3129 	 62.1198 	 53.1285
| 15> H 	 -11.5638 	 62.0796 	 51.2665
| 16> C 	 -13.2855 	 61.8921 	 52.4943
| 17> H 	 -13.8412 	 62.3674 	 53.414
| 18> H 	 -13.9429 	 62.1181 	 51.6299
| 19> C 	 -13.4451 	 60.3969 	 52.7815
| 20> H 	 -14.4572 	 60.0653 	 52.8578
| 21> H 	 -13.0246 	 59.8331 	 51.934
| 22> H 	 -12.8424 	 60.1746 	 53.63
| 23> S 	 -9.88135 	 67.9477 	 53.8646
| 24> C 	 -8.49163 	 68.8815 	 53.3974
| 25> C 	 -8.16492 	 68.816 	 52.0708
| 26> C 	 -8.93973 	 67.7907 	 51.4139
| 27> C 	 -9.88891 	 67.195 	 52.2613
| 28> H 	 -7.33616 	 69.3866 	 51.6982
| 29> C 	 -8.77165 	 67.3468 	 49.9774
| 30> H 	 -9.11562 	 66.3247 	 49.9491
| 31> H 	 -7.76141 	 67.2192 	 49.7643
| 32> C 	 -9.45781 	 68.132 	 48.8509
| 33> H 	 -8.88232 	 69.0764 	 48.7472
| 34> H 	 -10.3704 	 68.4243 	 49.1707
| 35> C 	 -9.44472 	 67.3465 	 47.5532
| 36> H 	 -10.083 	 67.8948 	 46.8719
| 37> H 	 -9.85027 	 66.347 	 47.6536
| 38> H 	 -8.48633 	 67.379 	 47.0768
| 39> H 	 -13.8793 	 64.4443 	 51.7861
| 40> H 	 -8.08513 	 69.6195 	 54.1837
| 41> *
| 42>
| 43>                          ****END OF INPUT****

CARTESIAN COORDINATES (ANGSTROEM)
---------------------------------
  S    -12.599000   66.533000   52.001300
  C    -12.905400   64.855000   51.824300
  C    -11.850400   64.010500   52.185000
  C    -10.644100   64.739600   52.335600
  C    -10.898600   66.098600   52.068900
  H     -9.674190   64.417800   52.650000
  C    -11.925800   62.462800   52.242700
  H    -11.312900   62.119800   53.128500
  H    -11.563800   62.079600   51.266500
  C    -13.285500   61.892100   52.494300
  H    -13.841200   62.367400   53.414000
  H    -13.942900   62.118100   51.629900
  C    -13.445100   60.396900   52.781500
  H    -14.457200   60.065300   52.857800
  H    -13.024600   59.833100   51.934000
  H    -12.842400   60.174600   53.630000
  S     -9.881350   67.947700   53.864600
  C     -8.491630   68.881500   53.397400
  C     -8.164920   68.816000   52.070800
  C     -8.939730   67.790700   51.413900
  C     -9.888910   67.195000   52.261300
  H     -7.336160   69.386600   51.698200
  C     -8.771650   67.346800   49.977400
  H     -9.115620   66.324700   49.949100
  H     -7.761410   67.219200   49.764300
  C     -9.457810   68.132000   48.850900
  H     -8.882320   69.076400   48.747200
  H    -10.370400   68.424300   49.170700
  C     -9.444720   67.346500   47.553200
  H    -10.083000   67.894800   46.871900
  H     -9.850270   66.347000   47.653600
  H     -8.486330   67.379000   47.076800
  H    -13.879300   64.444300   51.786100
  H     -8.085130   69.619500   54.183700

 Total Charge           Charge          ....    0
 Multiplicity           Mult            ....    1
 Number of Electrons    NEL             ....  134
 Basis Dimension        Dim             ....  322

ORBITAL ENERGIES
----------------

  NO   OCC          E(Eh)            E(eV)
   0   2.0000     -88.971761     -2421.0447
   1   2.0000     -88.960195     -2420.7300
   2   2.0000     -10.330531      -281.1080
   3   2.0000     -10.323661      -280.9211
   4   2.0000     -10.318624      -280.7840
   5   2.0000     -10.306541      -280.4552
   6   2.0000     -10.304081      -280.3883
   7   2.0000     -10.303948      -280.3847
   8   2.0000     -10.303144      -280.3628
   9   2.0000     -10.297320      -280.2043
  10   2.0000     -10.292675      -280.0779
  11   2.0000     -10.292555      -280.0747
  12   2.0000     -10.276261      -279.6313
  13   2.0000     -10.274918      -279.5947
  14   2.0000     -10.273597      -279.5588
  15   2.0000     -10.270891      -279.4852
  16   2.0000      -8.086781      -220.0525
  17   2.0000      -8.075281      -219.7396
  18   2.0000      -6.044928      -164.4908
  19   2.0000      -6.041659      -164.4019
  20   2.0000      -6.037490      -164.2884
  21   2.0000      -6.033596      -164.1825
  22   2.0000      -6.029881      -164.0814
  23   2.0000      -6.026096      -163.9784
  24   2.0000      -1.003268       -27.3003
  25   2.0000      -0.981662       -26.7124
  26   2.0000      -0.912250       -24.8236
  27   2.0000      -0.907994       -24.7078
  28   2.0000      -0.860660       -23.4197
  29   2.0000      -0.856246       -23.2996
  30   2.0000      -0.848873       -23.0990
  31   2.0000      -0.812283       -22.1033
  32   2.0000      -0.784248       -21.3405
  33   2.0000      -0.765914       -20.8416
  34   2.0000      -0.705414       -19.1953
  35   2.0000      -0.698929       -19.0188
  36   2.0000      -0.680249       -18.5105
  37   2.0000      -0.653519       -17.7832
  38   2.0000      -0.642900       -17.4942
  39   2.0000      -0.611218       -16.6321
  40   2.0000      -0.594449       -16.1758
  41   2.0000      -0.576764       -15.6945
  42   2.0000      -0.569577       -15.4990
  43   2.0000      -0.557511       -15.1706
  44   2.0000      -0.525039       -14.2870
  45   2.0000      -0.519524       -14.1370
  46   2.0000      -0.512461       -13.9448
  47   2.0000      -0.508943       -13.8490
  48   2.0000      -0.502830       -13.6827
  49   2.0000      -0.497301       -13.5323
  50   2.0000      -0.485731       -13.2174
  51   2.0000      -0.481206       -13.0943
  52   2.0000      -0.474110       -12.9012
  53   2.0000      -0.463389       -12.6095
  54   2.0000      -0.456219       -12.4143
  55   2.0000      -0.451767       -12.2932
  56   2.0000      -0.449462       -12.2305
  57   2.0000      -0.442666       -12.0456
  58   2.0000      -0.435418       -11.8483
  59   2.0000      -0.419713       -11.4210
  60   2.0000      -0.416108       -11.3229
  61   2.0000      -0.413482       -11.2514
  62   2.0000      -0.409746       -11.1498
  63   2.0000      -0.340235        -9.2583
  64   2.0000      -0.328575        -8.9410
  65   2.0000      -0.318231        -8.6595
  66   2.0000      -0.301332        -8.1997
  67   0.0000       0.040552         1.1035
  68   0.0000       0.053206         1.4478
  69   0.0000       0.106212         2.8902
  70   0.0000       0.122307         3.3281
  71   0.0000       0.131037         3.5657

MULLIKEN ATOMIC CHARGES
-----------------------
   0 S :    0.134575
   1 C :   -0.085308
   2 C :   -0.100187
   3 C :    0.052153
   4 C :   -0.173115
   5 H :    0.014557
   6 C :    0.086380
   7 H :    0.038786
   8 H :    0.054224
   9 C :   -0.193637
  10 H :    0.043128
  11 H :    0.033775
  12 C :    0.003445
  13 H :    0.036130
  14 H :    0.018251
  15 H :    0.023721
  16 S :    0.100124
  17 C :   -0.128307
  18 C :   -0.011736
  19 C :   -0.035489
  20 C :   -0.192134
  21 H :    0.016959
  22 C :    0.080502
  23 H :    0.005571
  24 H :   -0.002204
  25 C :   -0.014835
  26 H :    0.019334
  27 H :   -0.002343
  28 C :   -0.027303
  29 H :    0.023549
  30 H :    0.038977
  31 H :    0.028274
  32 H :    0.031709
  33 H :    0.082476
Sum of atomic charges:    0.0000000

LOEWDIN ATOMIC CHARGES
----------------------
   0 S :    0.428296
   1 C :   -0.207178
   2 C :   -0.059188
   3 C :   -0.046312
   4 C :   -0.195513
   5 H :    0.033027
   6 C :   -0.034453
   7 H :    0.038748
   8 H :    0.040896
   9 C :   -0.062448
  10 H :    0.032022
  11 H :    0.020281
  12 C :   -0.058600
  13 H :    0.026598
  14 H :    0.023589
  15 H :    0.019646
  16 S :    0.391517
  17 C :   -0.193096
  18 C :   -0.075997
  19 C :   -0.048766
  20 C :   -0.204223
  21 H :    0.032895
  22 C :   -0.032344
  23 H :    0.027747
  24 H :    0.018834
  25 C :   -0.025359
  26 H :    0.026962
  27 H :    0.006792
  28 C :   -0.058190
  29 H :    0.027697
  30 H :    0.026816
  31 H :    0.024498
  32 H :    0.014586
  33 H :    0.040221

  Mayer bond orders larger than 0.100000
B(  0-S ,  1-C ) :   1.1492 B(  0-S ,  4-C ) :   1.1732 B(  1-C ,  2-C ) :   1.6128
B(  1-C , 32-H ) :   0.9598 B(  2-C ,  3-C ) :   1.2468 B(  2-C ,  6-C ) :   1.0101
B(  3-C ,  4-C ) :   1.5647 B(  3-C ,  5-H ) :   1.0037 B(  4-C , 20-C ) :   0.9945
B(  6-C ,  7-H ) :   0.9447 B(  6-C ,  8-H ) :   0.9329 B(  6-C ,  9-C ) :   1.0682
B(  9-C , 10-H ) :   0.9601 B(  9-C , 11-H ) :   0.9434 B(  9-C , 12-C ) :   1.0881
B( 12-C , 13-H ) :   0.9729 B( 12-C , 14-H ) :   0.9703 B( 12-C , 15-H ) :   0.9738
B( 16-S , 17-C ) :   1.1621 B( 16-S , 20-C ) :   1.1420 B( 17-C , 18-C ) :   1.6195
B( 17-C , 33-H ) :   0.9530 B( 18-C , 19-C ) :   1.2142 B( 18-C , 21-H ) :   0.9995
B( 19-C , 20-C ) :   1.6274 B( 19-C , 22-C ) :   1.0474 B( 22-C , 23-H ) :   0.9279
B( 22-C , 24-H ) :   0.9274 B( 22-C , 25-C ) :   1.0618 B( 25-C , 26-H ) :   0.9490
B( 25-C , 27-H ) :   0.9546 B( 25-C , 28-C ) :   1.0914 B( 28-C , 29-H ) :   0.9714
B( 28-C , 30-H ) :   0.9751 B( 28-C , 31-H ) :   0.9735

Dispersion correction           -0.013601895
FINAL SINGLE POINT ENERGY     -1339.861933235074

DIPOLE MOMENT
-------------
                                X             Y             Z
Electronic contribution:      0.79835      18.09670      14.78778
Nuclear contribution   :     -0.66351     -18.44336     -14.97230
                        -----------------------------------------
Total Dipole Moment    :      0.13484      -0.34667      -0.18452
                        -----------------------------------------
Magnitude (a.u.)       :      0.41522
Magnitude (Debye)      :      1.05540

Rotational constants in cm-1:     0.020376     0.007319     0.006158
Rotational constants in MHz :   610.861540   219.404617   184.616443

                             ****ORCA TERMINATED NORMALLY****
TOTAL RUN TIME: 0 days 0 hours 0 minutes 34 seconds 76 msec
