                         Program Version 4.2.1 -  RELEASE  -
|  1> ! wB97X-D3 SP def2-SVP
|  2> %pal
|  3> nprocs 16
|  4> end
|  5>
|  6> * xyz 0 1
|  7> S 	 -5.57501 	 59.143 	 46.7515
|  8> C 	 -6.34883 	 58.7468 	 48.2541
|  9> C 	 -6.45258 	 57.3823 	 48.431
| 10> C 	 -5.77031 	 56.6835 	 47.3989
| 11> C 	 -5.26219 	 57.4849 	 46.3824
| 12> H 	 -5.69132 	 55.6559 	 47.2857
| 13> C 	 -7.18633 	 56.7426 	 49.6138
| 14> H 	 -8.25008 	 56.8355 	 49.4693
| 15> H 	 -7.0876 	 57.3416 	 50.508
| 16> C 	 -6.95739 	 55.2959 	 49.9546
| 17> H 	 -7.01952 	 54.5315 	 49.1729
| 18> H 	 -5.89078 	 55.236 	 50.3244
| 19> C 	 -7.92986 	 54.8941 	 51.0396
| 20> H 	 -7.81957 	 53.8541 	 51.3012
| 21> H 	 -7.8654 	 55.4694 	 51.9288
| 22> H 	 -9.01889 	 55.0979 	 50.8488
| 23> S 	 -5.61051 	 56.9295 	 43.7226
| 24> C 	 -4.19216 	 56.4727 	 42.7879
| 25> C 	 -3.12006 	 56.2799 	 43.5513
| 26> C 	 -3.35041 	 56.6999 	 44.9183
| 27> C 	 -4.62886 	 57.1456 	 45.1129
| 28> H 	 -2.39508 	 55.8139 	 43.0004
| 29> C 	 -2.32629 	 56.472 	 46.043
| 30> H 	 -1.60144 	 55.8207 	 45.6709
| 31> H 	 -2.76275 	 55.8645 	 46.8282
| 32> C 	 -1.50609 	 57.6901 	 46.4142
| 33> H 	 -2.18489 	 58.4248 	 46.7082
| 34> H 	 -0.972218 	 58.0074 	 45.5477
| 35> C 	 -0.436862 	 57.3638 	 47.5091
| 36> H 	 -0.805226 	 56.5946 	 48.2476
| 37> H 	 -0.164828 	 58.2667 	 48.1062
| 38> H 	 0.445644 	 56.9336 	 47.0989
| 39> H 	 -6.98073 	 59.2696 	 48.938
| 40> H 	 -4.20576 	 56.1068 	 41.7685
| 41> *
| 42>
| 43>                          ****END OF INPUT****

CARTESIAN COORDINATES (ANGSTROEM)
---------------------------------
  S     -5.575010   59.143000   46.751500
  C     -6.348830   58.746800   48.254100
  C     -6.452580   57.382300   48.431000
  C     -5.770310   56.683500   47.398900
  C     -5.262190   57.484900   46.382400
  H     -5.691320   55.655900   47.285700
  C     -7.186330   56.742600   49.613800
  H     -8.250080   56.835500   49.469300
  H     -7.087600   57.341600   50.508000
  C     -6.957390   55.295900   49.954600
  H     -7.019520   54.531500   49.172900
  H     -5.890780   55.236000   50.324400
  C     -7.929860   54.894100   51.039600
  H     -7.819570   53.854100   51.301200
  H     -7.865400   55.469400   51.928800
  H     -9.018890   55.097900   50.848800
  S     -5.610510   56.929500   43.722600
  C     -4.192160   56.472700   42.787900
  C     -3.120060   56.279900   43.551300
  C     -3.350410   56.699900   44.918300
  C     -4.628860   57.145600   45.112900
  H     -2.395080   55.813900   43.000400
  C     -2.326290   56.472000   46.043000
  H     -1.601440   55.820700   45.670900
  H     -2.762750   55.864500   46.828200
  C     -1.506090   57.690100   46.414200
  H     -2.184890   58.424800   46.708200
  H     -0.972218   58.007400   45.547700
  C     -0.436862   57.363800   47.509100
  H     -0.805226   56.594600   48.247600
  H     -0.164828   58.266700   48.106200
  H      0.445644   56.933600   47.098900
  H     -6.980730   59.269600   48.938000
  H     -4.205760   56.106800   41.768500

 Total Charge           Charge          ....    0
 Multiplicity           Mult            ....    1
 Number of Electrons    NEL             ....  134
 Basis Dimension        Dim             ....  322

ORBITAL ENERGIES
----------------

  NO   OCC          E(Eh)            E(eV)
   0   2.0000     -88.967358     -2420.9249
   1   2.0000     -88.962484     -2420.7923
   2   2.0000     -10.325931      -280.9829
   3   2.0000     -10.320502      -280.8351
   4   2.0000     -10.309983      -280.5489
   5   2.0000     -10.306312      -280.4490
   6   2.0000     -10.304336      -280.3952
   7   2.0000     -10.299107      -280.2529
   8   2.0000     -10.291923      -280.0575
   9   2.0000     -10.291300      -280.0405
  10   2.0000     -10.289180      -279.9828
  11   2.0000     -10.284303      -279.8501
  12   2.0000     -10.280097      -279.7356
  13   2.0000     -10.278511      -279.6925
  14   2.0000     -10.277482      -279.6645
  15   2.0000     -10.274696      -279.5887
  16   2.0000      -8.082082      -219.9246
  17   2.0000      -8.078045      -219.8148
  18   2.0000      -6.040550      -164.3717
  19   2.0000      -6.036562      -164.2632
  20   2.0000      -6.036391      -164.2585
  21   2.0000      -6.033075      -164.1683
  22   2.0000      -6.032595      -164.1552
  23   2.0000      -6.028581      -164.0460
  24   2.0000      -1.012366       -27.5479
  25   2.0000      -0.989671       -26.9303
  26   2.0000      -0.919535       -25.0218
  27   2.0000      -0.907503       -24.6944
  28   2.0000      -0.878596       -23.9078
  29   2.0000      -0.849479       -23.1155
  30   2.0000      -0.844171       -22.9711
  31   2.0000      -0.822446       -22.3799
  32   2.0000      -0.785046       -21.3622
  33   2.0000      -0.771372       -20.9901
  34   2.0000      -0.718071       -19.5397
  35   2.0000      -0.700965       -19.0742
  36   2.0000      -0.692301       -18.8385
  37   2.0000      -0.659790       -17.9538
  38   2.0000      -0.645531       -17.5658
  39   2.0000      -0.623856       -16.9760
  40   2.0000      -0.593532       -16.1508
  41   2.0000      -0.583082       -15.8665
  42   2.0000      -0.567923       -15.4540
  43   2.0000      -0.565729       -15.3943
  44   2.0000      -0.533133       -14.5073
  45   2.0000      -0.518449       -14.1077
  46   2.0000      -0.514463       -13.9993
  47   2.0000      -0.506575       -13.7846
  48   2.0000      -0.502193       -13.6654
  49   2.0000      -0.498427       -13.5629
  50   2.0000      -0.488868       -13.3028
  51   2.0000      -0.481986       -13.1155
  52   2.0000      -0.474399       -12.9091
  53   2.0000      -0.467920       -12.7327
  54   2.0000      -0.455808       -12.4032
  55   2.0000      -0.451825       -12.2948
  56   2.0000      -0.445926       -12.1343
  57   2.0000      -0.444548       -12.0968
  58   2.0000      -0.433511       -11.7964
  59   2.0000      -0.424466       -11.5503
  60   2.0000      -0.420606       -11.4453
  61   2.0000      -0.412761       -11.2318
  62   2.0000      -0.411917       -11.2088
  63   2.0000      -0.340117        -9.2551
  64   2.0000      -0.330131        -8.9833
  65   2.0000      -0.320470        -8.7204
  66   2.0000      -0.312554        -8.5050
  67   0.0000       0.046483         1.2649
  68   0.0000       0.058139         1.5820
  69   0.0000       0.112843         3.0706
  70   0.0000       0.130714         3.5569
  71   0.0000       0.135118         3.6767

MULLIKEN ATOMIC CHARGES
-----------------------
   0 S :    0.132337
   1 C :   -0.082495
   2 C :   -0.088147
   3 C :    0.077029
   4 C :   -0.193991
   5 H :   -0.023389
   6 C :    0.048319
   7 H :    0.022261
   8 H :    0.020654
   9 C :   -0.072447
  10 H :    0.039467
  11 H :    0.038295
  12 C :   -0.044443
  13 H :    0.033411
  14 H :    0.011543
  15 H :    0.026389
  16 S :    0.115357
  17 C :   -0.096093
  18 C :   -0.005031
  19 C :   -0.023678
  20 C :   -0.168484
  21 H :   -0.016512
  22 C :    0.110374
  23 H :   -0.016268
  24 H :    0.023378
  25 C :   -0.023632
  26 H :    0.017438
  27 H :    0.022555
  28 C :   -0.063696
  29 H :    0.030941
  30 H :    0.043807
  31 H :    0.026237
  32 H :    0.027267
  33 H :    0.051248
Sum of atomic charges:   -0.0000000

LOEWDIN ATOMIC CHARGES
----------------------
   0 S :    0.435336
   1 C :   -0.210052
   2 C :   -0.059647
   3 C :   -0.055873
   4 C :   -0.201931
   5 H :    0.017840
   6 C :   -0.037825
   7 H :    0.030673
   8 H :    0.032841
   9 C :   -0.044772
  10 H :    0.025762
  11 H :    0.032385
  12 C :   -0.067785
  13 H :    0.025762
  14 H :    0.018927
  15 H :    0.030826
  16 S :    0.410692
  17 C :   -0.174719
  18 C :   -0.066059
  19 C :   -0.042950
  20 C :   -0.221368
  21 H :    0.022951
  22 C :   -0.029415
  23 H :    0.019995
  24 H :    0.029322
  25 C :   -0.026113
  26 H :    0.012692
  27 H :    0.024241
  28 C :   -0.068434
  29 H :    0.028580
  30 H :    0.032229
  31 H :    0.018035
  32 H :    0.027685
  33 H :    0.030173

  Mayer bond orders larger than 0.100000
B(  0-S ,  1-C ) :   1.1463 B(  0-S ,  4-C ) :   1.1697 B(  1-C ,  2-C ) :   1.6223
B(  1-C ,  4-C ) :   0.1042 B(  1-C , 32-H ) :   0.9642 B(  2-C ,  3-C ) :   1.2580
B(  2-C ,  6-C ) :   0.9963 B(  3-C ,  4-C ) :   1.5731 B(  3-C ,  5-H ) :   1.0071
B(  4-C , 20-C ) :   1.0000 B(  6-C ,  7-H ) :   0.9334 B(  6-C ,  8-H ) :   0.9416
B(  6-C ,  9-C ) :   1.0758 B(  9-C , 10-H ) :   0.9508 B(  9-C , 11-H ) :   0.9507
B(  9-C , 12-C ) :   1.0840 B( 12-C , 13-H ) :   0.9721 B( 12-C , 14-H ) :   0.9706
B( 12-C , 15-H ) :   0.9710 B( 16-S , 17-C ) :   1.1358 B( 16-S , 20-C ) :   1.1517
B( 17-C , 18-C ) :   1.6794 B( 17-C , 33-H ) :   0.9598 B( 18-C , 19-C ) :   1.1848
B( 18-C , 21-H ) :   1.0059 B( 19-C , 20-C ) :   1.6278 B( 19-C , 22-C ) :   1.0391
B( 22-C , 23-H ) :   0.9249 B( 22-C , 24-H ) :   0.9297 B( 22-C , 25-C ) :   1.0637
B( 25-C , 26-H ) :   0.9626 B( 25-C , 27-H ) :   0.9532 B( 25-C , 28-C ) :   1.0726
B( 28-C , 29-H ) :   0.9766 B( 28-C , 30-H ) :   0.9763 B( 28-C , 31-H ) :   0.9774

Dispersion correction           -0.013923592
FINAL SINGLE POINT ENERGY     -1339.857376945028

DIPOLE MOMENT
-------------
                                X             Y             Z
Electronic contribution:     -7.32014      11.26528     -22.44955
Nuclear contribution   :      7.39953     -11.85602      22.75727
                        -----------------------------------------
Total Dipole Moment    :      0.07939      -0.59073       0.30772
                        -----------------------------------------
Magnitude (a.u.)       :      0.67079
Magnitude (Debye)      :      1.70501

Rotational constants in cm-1:     0.017470     0.008098     0.007054
Rotational constants in MHz :   523.751183   242.764957   211.469916

                             ****ORCA TERMINATED NORMALLY****
TOTAL RUN TIME: 0 days 0 hours 0 minutes 33 seconds 418 msec
