                         Program Version 4.2.1 -  RELEASE  -
|  1> ! wB97X-D3 SP def2-SVP
|  2> %pal
|  3> nprocs 16
|  4> end
|  5>
|  6> * xyz 0 1
|  7> S 	 -13.327 	 30.9525 	 32.8088
|  8> C 	 -11.9278 	 31.5723 	 32.0377
|  9> C 	 -11.9586 	 32.9197 	 31.9641
| 10> C 	 -13.1289 	 33.4908 	 32.5873
| 11> C 	 -13.9481 	 32.5413 	 33.1412
| 12> H 	 -13.2709 	 34.5391 	 32.6856
| 13> C 	 -10.8693 	 33.8663 	 31.4439
| 14> H 	 -10.1171 	 33.2449 	 30.9508
| 15> H 	 -10.4713 	 34.4053 	 32.288
| 16> C 	 -11.3226 	 34.8392 	 30.2903
| 17> H 	 -11.8905 	 34.1771 	 29.618
| 18> H 	 -12.0549 	 35.516 	 30.757
| 19> C 	 -10.1501 	 35.6589 	 29.6559
| 20> H 	 -10.5135 	 36.1735 	 28.7928
| 21> H 	 -9.73558 	 36.4589 	 30.3859
| 22> H 	 -9.35209 	 34.9349 	 29.2913
| 23> S 	 -15.4584 	 34.4122 	 34.5787
| 24> C 	 -17.0684 	 34.0001 	 35.0367
| 25> C 	 -17.2441 	 32.6349 	 35.0657
| 26> C 	 -16.2001 	 31.9386 	 34.4037
| 27> C 	 -15.2009 	 32.7806 	 33.8894
| 28> H 	 -18.1938 	 32.2692 	 35.3947
| 29> C 	 -16.2788 	 30.4727 	 34.09
| 30> H 	 -16.9623 	 30.0471 	 34.8388
| 31> H 	 -15.2672 	 30.0425 	 34.3489
| 32> C 	 -16.9038 	 30.1101 	 32.7466
| 33> H 	 -16.8427 	 28.9858 	 32.5445
| 34> H 	 -16.4203 	 30.589 	 31.8679
| 35> C 	 -18.4177 	 30.4162 	 32.6728
| 36> H 	 -19.0379 	 30.06 	 33.4458
| 37> H 	 -18.7351 	 30.0513 	 31.7231
| 38> H 	 -18.5442 	 31.5055 	 32.6627
| 39> H 	 -11.0969 	 30.9911 	 31.8863
| 40> H 	 -17.8684 	 34.6084 	 35.3382
| 41> *
| 42>
| 43>                          ****END OF INPUT****

CARTESIAN COORDINATES (ANGSTROEM)
---------------------------------
  S    -13.327000   30.952500   32.808800
  C    -11.927800   31.572300   32.037700
  C    -11.958600   32.919700   31.964100
  C    -13.128900   33.490800   32.587300
  C    -13.948100   32.541300   33.141200
  H    -13.270900   34.539100   32.685600
  C    -10.869300   33.866300   31.443900
  H    -10.117100   33.244900   30.950800
  H    -10.471300   34.405300   32.288000
  C    -11.322600   34.839200   30.290300
  H    -11.890500   34.177100   29.618000
  H    -12.054900   35.516000   30.757000
  C    -10.150100   35.658900   29.655900
  H    -10.513500   36.173500   28.792800
  H     -9.735580   36.458900   30.385900
  H     -9.352090   34.934900   29.291300
  S    -15.458400   34.412200   34.578700
  C    -17.068400   34.000100   35.036700
  C    -17.244100   32.634900   35.065700
  C    -16.200100   31.938600   34.403700
  C    -15.200900   32.780600   33.889400
  H    -18.193800   32.269200   35.394700
  C    -16.278800   30.472700   34.090000
  H    -16.962300   30.047100   34.838800
  H    -15.267200   30.042500   34.348900
  C    -16.903800   30.110100   32.746600
  H    -16.842700   28.985800   32.544500
  H    -16.420300   30.589000   31.867900
  C    -18.417700   30.416200   32.672800
  H    -19.037900   30.060000   33.445800
  H    -18.735100   30.051300   31.723100
  H    -18.544200   31.505500   32.662700
  H    -11.096900   30.991100   31.886300
  H    -17.868400   34.608400   35.338200

 Total Charge           Charge          ....    0
 Multiplicity           Mult            ....    1
 Number of Electrons    NEL             ....  134
 Basis Dimension        Dim             ....  322

ORBITAL ENERGIES
----------------

  NO   OCC          E(Eh)            E(eV)
   0   2.0000     -88.965716     -2420.8802
   1   2.0000     -88.964840     -2420.8564
   2   2.0000     -10.333064      -281.1770
   3   2.0000     -10.332104      -281.1508
   4   2.0000     -10.312311      -280.6122
   5   2.0000     -10.303351      -280.3684
   6   2.0000     -10.303071      -280.3608
   7   2.0000     -10.298365      -280.2328
   8   2.0000     -10.293430      -280.0985
   9   2.0000     -10.293021      -280.0874
  10   2.0000     -10.292932      -280.0849
  11   2.0000     -10.292096      -280.0622
  12   2.0000     -10.291582      -280.0482
  13   2.0000     -10.290920      -280.0302
  14   2.0000     -10.289649      -279.9956
  15   2.0000     -10.269394      -279.4444
  16   2.0000      -8.080147      -219.8720
  17   2.0000      -8.080124      -219.8713
  18   2.0000      -6.038730      -164.3222
  19   2.0000      -6.038686      -164.3210
  20   2.0000      -6.034832      -164.2161
  21   2.0000      -6.034505      -164.2072
  22   2.0000      -6.030856      -164.1079
  23   2.0000      -6.030714      -164.1041
  24   2.0000      -1.010589       -27.4995
  25   2.0000      -0.989648       -26.9297
  26   2.0000      -0.909267       -24.7424
  27   2.0000      -0.903421       -24.5833
  28   2.0000      -0.871941       -23.7267
  29   2.0000      -0.850394       -23.1404
  30   2.0000      -0.842803       -22.9338
  31   2.0000      -0.817323       -22.2405
  32   2.0000      -0.781386       -21.2626
  33   2.0000      -0.773036       -21.0354
  34   2.0000      -0.711011       -19.3476
  35   2.0000      -0.694224       -18.8908
  36   2.0000      -0.687918       -18.7192
  37   2.0000      -0.669659       -18.2224
  38   2.0000      -0.643418       -17.5083
  39   2.0000      -0.618174       -16.8214
  40   2.0000      -0.589809       -16.0495
  41   2.0000      -0.572563       -15.5802
  42   2.0000      -0.565724       -15.3941
  43   2.0000      -0.554510       -15.0890
  44   2.0000      -0.542317       -14.7572
  45   2.0000      -0.521754       -14.1976
  46   2.0000      -0.518574       -14.1111
  47   2.0000      -0.511612       -13.9217
  48   2.0000      -0.506718       -13.7885
  49   2.0000      -0.497306       -13.5324
  50   2.0000      -0.486573       -13.2403
  51   2.0000      -0.482659       -13.1338
  52   2.0000      -0.471501       -12.8302
  53   2.0000      -0.468055       -12.7364
  54   2.0000      -0.463076       -12.6009
  55   2.0000      -0.452282       -12.3072
  56   2.0000      -0.442607       -12.0439
  57   2.0000      -0.435690       -11.8557
  58   2.0000      -0.430689       -11.7196
  59   2.0000      -0.425907       -11.5895
  60   2.0000      -0.416711       -11.3393
  61   2.0000      -0.408910       -11.1270
  62   2.0000      -0.405400       -11.0315
  63   2.0000      -0.363682        -9.8963
  64   2.0000      -0.331414        -9.0182
  65   2.0000      -0.329999        -8.9797
  66   2.0000      -0.283234        -7.7072
  67   0.0000       0.017926         0.4878
  68   0.0000       0.086935         2.3656
  69   0.0000       0.106699         2.9034
  70   0.0000       0.125157         3.4057
  71   0.0000       0.127823         3.4782

MULLIKEN ATOMIC CHARGES
-----------------------
   0 S :    0.087411
   1 C :   -0.084978
   2 C :   -0.076183
   3 C :   -0.016349
   4 C :   -0.090632
   5 H :    0.005632
   6 C :    0.067421
   7 H :    0.009843
   8 H :    0.040266
   9 C :   -0.113732
  10 H :    0.040166
  11 H :    0.031937
  12 C :   -0.063894
  13 H :    0.038162
  14 H :    0.053945
  15 H :    0.044068
  16 S :    0.091984
  17 C :   -0.059163
  18 C :   -0.035002
  19 C :   -0.076657
  20 C :   -0.111057
  21 H :    0.008988
  22 C :    0.041919
  23 H :    0.016235
  24 H :    0.052086
  25 C :   -0.076648
  26 H :    0.039698
  27 H :    0.039824
  28 C :   -0.039609
  29 H :    0.020924
  30 H :    0.025760
  31 H :    0.034945
  32 H :    0.017290
  33 H :    0.035397
Sum of atomic charges:    0.0000000

LOEWDIN ATOMIC CHARGES
----------------------
   0 S :    0.430848
   1 C :   -0.196051
   2 C :   -0.058753
   3 C :   -0.069684
   4 C :   -0.184315
   5 H :    0.021091
   6 C :   -0.029077
   7 H :    0.024530
   8 H :    0.028456
   9 C :   -0.043860
  10 H :    0.027579
  11 H :    0.020335
  12 C :   -0.072868
  13 H :    0.023190
  14 H :    0.039272
  15 H :    0.032370
  16 S :    0.398167
  17 C :   -0.179653
  18 C :   -0.069439
  19 C :   -0.062078
  20 C :   -0.175863
  21 H :    0.028185
  22 C :   -0.050957
  23 H :    0.033063
  24 H :    0.028356
  25 C :   -0.041776
  26 H :    0.031238
  27 H :    0.026229
  28 C :   -0.061072
  29 H :    0.015069
  30 H :    0.024429
  31 H :    0.026617
  32 H :    0.013340
  33 H :    0.023083

  Mayer bond orders larger than 0.100000
B(  0-S ,  1-C ) :   1.1253 B(  0-S ,  4-C ) :   1.1472 B(  1-C ,  2-C ) :   1.6360
B(  1-C , 32-H ) :   0.9754 B(  2-C ,  3-C ) :   1.2289 B(  2-C ,  6-C ) :   1.0249
B(  3-C ,  4-C ) :   1.5550 B(  3-C ,  5-H ) :   0.9976 B(  4-C , 20-C ) :   1.0830
B(  6-C ,  7-H ) :   0.9436 B(  6-C ,  8-H ) :   0.9428 B(  6-C ,  9-C ) :   1.0481
B(  9-C , 10-H ) :   0.9602 B(  9-C , 11-H ) :   0.9561 B(  9-C , 12-C ) :   1.0767
B( 12-C , 13-H ) :   0.9753 B( 12-C , 14-H ) :   0.9729 B( 12-C , 15-H ) :   0.9741
B( 16-S , 17-C ) :   1.1535 B( 16-S , 20-C ) :   1.1296 B( 17-C , 18-C ) :   1.6187
B( 17-C , 33-H ) :   0.9693 B( 18-C , 19-C ) :   1.2397 B( 18-C , 21-H ) :   0.9925
B( 19-C , 20-C ) :   1.5596 B( 19-C , 22-C ) :   1.0502 B( 22-C , 23-H ) :   0.9283
B( 22-C , 24-H ) :   0.9262 B( 22-C , 25-C ) :   1.0593 B( 25-C , 26-H ) :   0.9574
B( 25-C , 27-H ) :   0.9562 B( 25-C , 28-C ) :   1.0758 B( 28-C , 29-H ) :   0.9762
B( 28-C , 30-H ) :   0.9723 B( 28-C , 31-H ) :   0.9732

Dispersion correction           -0.014325779
FINAL SINGLE POINT ENERGY     -1339.876577601905

DIPOLE MOMENT
-------------
                                X             Y             Z
Electronic contribution:     -1.68657      -0.48147      13.70180
Nuclear contribution   :      1.63569       0.52739     -13.84141
                        -----------------------------------------
Total Dipole Moment    :     -0.05089       0.04591      -0.13962
                        -----------------------------------------
Magnitude (a.u.)       :      0.15553
Magnitude (Debye)      :      0.39534

Rotational constants in cm-1:     0.022893     0.007590     0.006384
Rotational constants in MHz :   686.305499   227.535055   191.388856

                             ****ORCA TERMINATED NORMALLY****
TOTAL RUN TIME: 0 days 0 hours 0 minutes 32 seconds 983 msec
