                         Program Version 4.2.1 -  RELEASE  -
|  1> ! wB97X-D3 SP def2-SVP
|  2> %pal
|  3> nprocs 16
|  4> end
|  5>
|  6> * xyz 0 1
|  7> S 	 -2.06857 	 79.5777 	 49.2842
|  8> C 	 -1.32438 	 78.937 	 50.7311
|  9> C 	 -0.0224471 	 78.5288 	 50.5056
| 10> C 	 0.397601 	 78.7059 	 49.1701
| 11> C 	 -0.558133 	 79.2717 	 48.3411
| 12> H 	 1.41653 	 78.5239 	 48.8267
| 13> C 	 0.987884 	 77.9021 	 51.5186
| 14> H 	 1.0384 	 76.8447 	 51.3055
| 15> H 	 0.517721 	 77.8952 	 52.4731
| 16> C 	 2.39474 	 78.6352 	 51.6398
| 17> H 	 3.17282 	 78.0727 	 52.1868
| 18> H 	 2.77274 	 78.7709 	 50.6421
| 19> C 	 2.41361 	 80.0192 	 52.2444
| 20> H 	 3.37727 	 80.433 	 52.1698
| 21> H 	 1.85284 	 80.7565 	 51.7012
| 22> H 	 2.23262 	 79.9278 	 53.3195
| 23> S 	 -0.997715 	 78.2405 	 45.7732
| 24> C 	 -0.768406 	 79.2934 	 44.3784
| 25> C 	 -0.358461 	 80.5589 	 44.7301
| 26> C 	 -0.261352 	 80.6437 	 46.1635
| 27> C 	 -0.579255 	 79.5363 	 46.9184
| 28> H 	 -0.0257859 	 81.2865 	 44.0973
| 29> C 	 0.315129 	 81.9051 	 46.7947
| 30> H 	 0.0332948 	 81.9941 	 47.8415
| 31> H 	 -0.190167 	 82.7434 	 46.2249
| 32> C 	 1.86137 	 82.1173 	 46.6325
| 33> H 	 2.00703 	 83.1892 	 46.79
| 34> H 	 2.11026 	 81.9998 	 45.5856
| 35> C 	 2.91151 	 81.3625 	 47.4578
| 36> H 	 2.76564 	 80.2813 	 47.3698
| 37> H 	 2.89228 	 81.6357 	 48.5581
| 38> H 	 3.88268 	 81.5809 	 47.0527
| 39> H 	 -1.8955 	 78.9091 	 51.6485
| 40> H 	 -0.889712 	 78.9722 	 43.349
| 41> *
| 42>
| 43>                          ****END OF INPUT****

CARTESIAN COORDINATES (ANGSTROEM)
---------------------------------
  S     -2.068570   79.577700   49.284200
  C     -1.324380   78.937000   50.731100
  C     -0.022447   78.528800   50.505600
  C      0.397601   78.705900   49.170100
  C     -0.558133   79.271700   48.341100
  H      1.416530   78.523900   48.826700
  C      0.987884   77.902100   51.518600
  H      1.038400   76.844700   51.305500
  H      0.517721   77.895200   52.473100
  C      2.394740   78.635200   51.639800
  H      3.172820   78.072700   52.186800
  H      2.772740   78.770900   50.642100
  C      2.413610   80.019200   52.244400
  H      3.377270   80.433000   52.169800
  H      1.852840   80.756500   51.701200
  H      2.232620   79.927800   53.319500
  S     -0.997715   78.240500   45.773200
  C     -0.768406   79.293400   44.378400
  C     -0.358461   80.558900   44.730100
  C     -0.261352   80.643700   46.163500
  C     -0.579255   79.536300   46.918400
  H     -0.025786   81.286500   44.097300
  C      0.315129   81.905100   46.794700
  H      0.033295   81.994100   47.841500
  H     -0.190167   82.743400   46.224900
  C      1.861370   82.117300   46.632500
  H      2.007030   83.189200   46.790000
  H      2.110260   81.999800   45.585600
  C      2.911510   81.362500   47.457800
  H      2.765640   80.281300   47.369800
  H      2.892280   81.635700   48.558100
  H      3.882680   81.580900   47.052700
  H     -1.895500   78.909100   51.648500
  H     -0.889712   78.972200   43.349000

 Total Charge           Charge          ....    0
 Multiplicity           Mult            ....    1
 Number of Electrons    NEL             ....  134
 Basis Dimension        Dim             ....  322

ORBITAL ENERGIES
----------------

  NO   OCC          E(Eh)            E(eV)
   0   2.0000     -88.964232     -2420.8398
   1   2.0000     -88.961979     -2420.7785
   2   2.0000     -10.333579      -281.1910
   3   2.0000     -10.323893      -280.9274
   4   2.0000     -10.322286      -280.8837
   5   2.0000     -10.318084      -280.7693
   6   2.0000     -10.303554      -280.3739
   7   2.0000     -10.301143      -280.3083
   8   2.0000     -10.297301      -280.2038
   9   2.0000     -10.295736      -280.1612
  10   2.0000     -10.292544      -280.0744
  11   2.0000     -10.290648      -280.0228
  12   2.0000     -10.289795      -279.9996
  13   2.0000     -10.286498      -279.9098
  14   2.0000     -10.281607      -279.7767
  15   2.0000     -10.270110      -279.4639
  16   2.0000      -8.078381      -219.8239
  17   2.0000      -8.076312      -219.7676
  18   2.0000      -6.036812      -164.2700
  19   2.0000      -6.034968      -164.2198
  20   2.0000      -6.032973      -164.1655
  21   2.0000      -6.030827      -164.1071
  22   2.0000      -6.029250      -164.0642
  23   2.0000      -6.026965      -164.0021
  24   2.0000      -1.000862       -27.2348
  25   2.0000      -0.980536       -26.6817
  26   2.0000      -0.903773       -24.5929
  27   2.0000      -0.898602       -24.4522
  28   2.0000      -0.871334       -23.7102
  29   2.0000      -0.849357       -23.1122
  30   2.0000      -0.845376       -23.0038
  31   2.0000      -0.817627       -22.2487
  32   2.0000      -0.784323       -21.3425
  33   2.0000      -0.770264       -20.9599
  34   2.0000      -0.709282       -19.3005
  35   2.0000      -0.695219       -18.9179
  36   2.0000      -0.690325       -18.7847
  37   2.0000      -0.665934       -18.1210
  38   2.0000      -0.644024       -17.5248
  39   2.0000      -0.623899       -16.9772
  40   2.0000      -0.593167       -16.1409
  41   2.0000      -0.569854       -15.5065
  42   2.0000      -0.551229       -14.9997
  43   2.0000      -0.548167       -14.9164
  44   2.0000      -0.541819       -14.7436
  45   2.0000      -0.535922       -14.5832
  46   2.0000      -0.517815       -14.0905
  47   2.0000      -0.514604       -14.0031
  48   2.0000      -0.501152       -13.6370
  49   2.0000      -0.493263       -13.4224
  50   2.0000      -0.490785       -13.3550
  51   2.0000      -0.473735       -12.8910
  52   2.0000      -0.469414       -12.7734
  53   2.0000      -0.466825       -12.7030
  54   2.0000      -0.460359       -12.5270
  55   2.0000      -0.446560       -12.1515
  56   2.0000      -0.444273       -12.0893
  57   2.0000      -0.439554       -11.9609
  58   2.0000      -0.436376       -11.8744
  59   2.0000      -0.421978       -11.4826
  60   2.0000      -0.418798       -11.3961
  61   2.0000      -0.414772       -11.2865
  62   2.0000      -0.403274       -10.9737
  63   2.0000      -0.338327        -9.2063
  64   2.0000      -0.329594        -8.9687
  65   2.0000      -0.318208        -8.6589
  66   2.0000      -0.312395        -8.5007
  67   0.0000       0.042877         1.1667
  68   0.0000       0.049830         1.3559
  69   0.0000       0.111560         3.0357
  70   0.0000       0.120468         3.2781
  71   0.0000       0.126812         3.4507

MULLIKEN ATOMIC CHARGES
-----------------------
   0 S :    0.104122
   1 C :   -0.132485
   2 C :   -0.091300
   3 C :    0.048977
   4 C :   -0.191214
   5 H :    0.022123
   6 C :    0.112194
   7 H :    0.040395
   8 H :   -0.001474
   9 C :   -0.092073
  10 H :    0.034369
  11 H :    0.018449
  12 C :   -0.025749
  13 H :    0.013068
  14 H :    0.034505
  15 H :    0.031605
  16 S :    0.100425
  17 C :   -0.082502
  18 C :    0.019711
  19 C :   -0.044372
  20 C :   -0.155330
  21 H :   -0.012575
  22 C :    0.053833
  23 H :    0.028287
  24 H :    0.029041
  25 C :   -0.075217
  26 H :    0.025076
  27 H :    0.012205
  28 C :   -0.040584
  29 H :    0.031589
  30 H :    0.041649
  31 H :    0.030564
  32 H :    0.052127
  33 H :    0.060561
Sum of atomic charges:   -0.0000000

LOEWDIN ATOMIC CHARGES
----------------------
   0 S :    0.387680
   1 C :   -0.187817
   2 C :   -0.068953
   3 C :   -0.052263
   4 C :   -0.179295
   5 H :    0.034457
   6 C :   -0.025390
   7 H :    0.034369
   8 H :    0.021352
   9 C :   -0.039843
  10 H :    0.029690
  11 H :    0.017129
  12 C :   -0.062775
  13 H :    0.022401
  14 H :    0.025059
  15 H :    0.026551
  16 S :    0.387596
  17 C :   -0.164070
  18 C :   -0.064256
  19 C :   -0.051044
  20 C :   -0.211564
  21 H :    0.017609
  22 C :   -0.032724
  23 H :    0.026693
  24 H :    0.037775
  25 C :   -0.043814
  26 H :    0.025093
  27 H :    0.019381
  28 C :   -0.066583
  29 H :    0.023008
  30 H :    0.030523
  31 H :    0.026160
  32 H :    0.027388
  33 H :    0.030479

  Mayer bond orders larger than 0.100000
B(  0-S ,  1-C ) :   1.1526 B(  0-S ,  4-C ) :   1.1408 B(  1-C ,  2-C ) :   1.6063
B(  1-C ,  4-C ) :   0.1059 B(  1-C , 32-H ) :   0.9695 B(  2-C ,  3-C ) :   1.2401
B(  2-C ,  6-C ) :   1.0092 B(  3-C ,  4-C ) :   1.5987 B(  3-C ,  5-H ) :   0.9908
B(  4-C , 20-C ) :   1.0262 B(  6-C ,  7-H ) :   0.9426 B(  6-C ,  8-H ) :   0.9417
B(  6-C ,  9-C ) :   1.0476 B(  9-C , 10-H ) :   0.9578 B(  9-C , 11-H ) :   0.9603
B(  9-C , 12-C ) :   1.0933 B( 12-C , 13-H ) :   0.9670 B( 12-C , 14-H ) :   0.9722
B( 12-C , 15-H ) :   0.9740 B( 16-S , 17-C ) :   1.1691 B( 16-S , 20-C ) :   1.1055
B( 17-C , 18-C ) :   1.5941 B( 17-C , 33-H ) :   0.9648 B( 18-C , 19-C ) :   1.2340
B( 18-C , 21-H ) :   1.0049 B( 19-C , 20-C ) :   1.6256 B( 19-C , 22-C ) :   1.0525
B( 22-C , 23-H ) :   0.9361 B( 22-C , 24-H ) :   0.9316 B( 22-C , 25-C ) :   1.0661
B( 25-C , 26-H ) :   0.9545 B( 25-C , 27-H ) :   0.9552 B( 25-C , 28-C ) :   1.0799
B( 28-C , 29-H ) :   0.9744 B( 28-C , 30-H ) :   0.9745 B( 28-C , 31-H ) :   0.9691

Dispersion correction           -0.015435147
FINAL SINGLE POINT ENERGY     -1339.882703246202

DIPOLE MOMENT
-------------
                                X             Y             Z
Electronic contribution:    -23.64286      -9.93981     -12.64889
Nuclear contribution   :     24.27797      10.17130      12.76078
                        -----------------------------------------
Total Dipole Moment    :      0.63511       0.23149       0.11188
                        -----------------------------------------
Magnitude (a.u.)       :      0.68518
Magnitude (Debye)      :      1.74159

Rotational constants in cm-1:     0.018979     0.009409     0.007496
Rotational constants in MHz :   568.979795   282.069913   224.722440

                             ****ORCA TERMINATED NORMALLY****
TOTAL RUN TIME: 0 days 0 hours 0 minutes 35 seconds 434 msec
