                         Program Version 4.2.1 -  RELEASE  -
|  1> ! wB97X-D3 SP def2-SVP
|  2> %pal
|  3> nprocs 16
|  4> end
|  5>
|  6> * xyz 0 1
|  7> S 	 5.52317 	 22.2446 	 55.5049
|  8> C 	 6.17081 	 20.9729 	 54.512
|  9> C 	 6.83478 	 19.9612 	 55.2326
| 10> C 	 6.60959 	 20.2264 	 56.6227
| 11> C 	 5.99851 	 21.4247 	 56.9295
| 12> H 	 6.99767 	 19.6335 	 57.4194
| 13> C 	 7.4208 	 18.7516 	 54.553
| 14> H 	 6.69871 	 18.2951 	 53.8897
| 15> H 	 7.49464 	 17.9717 	 55.2615
| 16> C 	 8.77126 	 19.121 	 53.9171
| 17> H 	 9.05102 	 18.3214 	 53.2239
| 18> H 	 8.64749 	 20.0118 	 53.3058
| 19> C 	 10.0077 	 19.1299 	 54.9666
| 20> H 	 10.9479 	 19.0966 	 54.4839
| 21> H 	 10.1249 	 20.0294 	 55.608
| 22> H 	 9.9607 	 18.2587 	 55.6373
| 23> S 	 6.54382 	 21.6146 	 59.6729
| 24> C 	 5.20076 	 22.1562 	 60.676
| 25> C 	 3.99692 	 22.1138 	 60.0459
| 26> C 	 4.0894 	 21.9741 	 58.6304
| 27> C 	 5.42716 	 21.7055 	 58.2639
| 28> H 	 3.06271 	 22.3404 	 60.4846
| 29> C 	 2.80098 	 21.8947 	 57.7943
| 30> H 	 3.10107 	 21.899 	 56.7569
| 31> H 	 2.20768 	 22.785 	 57.8596
| 32> C 	 2.00194 	 20.5897 	 57.9624
| 33> H 	 1.0677 	 20.6996 	 57.4531
| 34> H 	 1.76239 	 20.471 	 58.9746
| 35> C 	 2.60388 	 19.3435 	 57.2908
| 36> H 	 3.0121 	 19.5102 	 56.331
| 37> H 	 1.9114 	 18.5005 	 57.2297
| 38> H 	 3.39636 	 18.927 	 57.8281
| 39> H 	 6.06806 	 20.9453 	 53.477
| 40> H 	 5.26564 	 22.1673 	 61.7095
| 41> *
| 42>
| 43>                          ****END OF INPUT****

CARTESIAN COORDINATES (ANGSTROEM)
---------------------------------
  S      5.523170   22.244600   55.504900
  C      6.170810   20.972900   54.512000
  C      6.834780   19.961200   55.232600
  C      6.609590   20.226400   56.622700
  C      5.998510   21.424700   56.929500
  H      6.997670   19.633500   57.419400
  C      7.420800   18.751600   54.553000
  H      6.698710   18.295100   53.889700
  H      7.494640   17.971700   55.261500
  C      8.771260   19.121000   53.917100
  H      9.051020   18.321400   53.223900
  H      8.647490   20.011800   53.305800
  C     10.007700   19.129900   54.966600
  H     10.947900   19.096600   54.483900
  H     10.124900   20.029400   55.608000
  H      9.960700   18.258700   55.637300
  S      6.543820   21.614600   59.672900
  C      5.200760   22.156200   60.676000
  C      3.996920   22.113800   60.045900
  C      4.089400   21.974100   58.630400
  C      5.427160   21.705500   58.263900
  H      3.062710   22.340400   60.484600
  C      2.800980   21.894700   57.794300
  H      3.101070   21.899000   56.756900
  H      2.207680   22.785000   57.859600
  C      2.001940   20.589700   57.962400
  H      1.067700   20.699600   57.453100
  H      1.762390   20.471000   58.974600
  C      2.603880   19.343500   57.290800
  H      3.012100   19.510200   56.331000
  H      1.911400   18.500500   57.229700
  H      3.396360   18.927000   57.828100
  H      6.068060   20.945300   53.477000
  H      5.265640   22.167300   61.709500

 Total Charge           Charge          ....    0
 Multiplicity           Mult            ....    1
 Number of Electrons    NEL             ....  134
 Basis Dimension        Dim             ....  322

ORBITAL ENERGIES
----------------

  NO   OCC          E(Eh)            E(eV)
   0   2.0000     -88.969689     -2420.9883
   1   2.0000     -88.966446     -2420.9001
   2   2.0000     -10.333256      -281.1822
   3   2.0000     -10.322407      -280.8870
   4   2.0000     -10.308898      -280.5194
   5   2.0000     -10.308600      -280.5113
   6   2.0000     -10.303074      -280.3609
   7   2.0000     -10.302322      -280.3404
   8   2.0000     -10.295919      -280.1662
   9   2.0000     -10.290985      -280.0319
  10   2.0000     -10.289954      -280.0039
  11   2.0000     -10.287518      -279.9376
  12   2.0000     -10.286519      -279.9104
  13   2.0000     -10.282749      -279.8078
  14   2.0000     -10.279065      -279.7076
  15   2.0000     -10.263548      -279.2853
  16   2.0000      -8.084529      -219.9912
  17   2.0000      -8.080255      -219.8749
  18   2.0000      -6.042886      -164.4353
  19   2.0000      -6.038908      -164.3270
  20   2.0000      -6.038811      -164.3244
  21   2.0000      -6.035561      -164.2360
  22   2.0000      -6.035177      -164.2255
  23   2.0000      -6.030766      -164.1055
  24   2.0000      -1.004916       -27.3451
  25   2.0000      -0.980789       -26.6886
  26   2.0000      -0.910713       -24.7818
  27   2.0000      -0.905529       -24.6407
  28   2.0000      -0.862593       -23.4724
  29   2.0000      -0.848643       -23.0927
  30   2.0000      -0.841852       -22.9079
  31   2.0000      -0.810671       -22.0595
  32   2.0000      -0.787969       -21.4417
  33   2.0000      -0.774838       -21.0844
  34   2.0000      -0.711544       -19.3621
  35   2.0000      -0.707855       -19.2617
  36   2.0000      -0.694367       -18.8947
  37   2.0000      -0.664854       -18.0916
  38   2.0000      -0.642174       -17.4744
  39   2.0000      -0.612806       -16.6753
  40   2.0000      -0.600750       -16.3473
  41   2.0000      -0.574105       -15.6222
  42   2.0000      -0.550426       -14.9779
  43   2.0000      -0.547052       -14.8860
  44   2.0000      -0.543617       -14.7926
  45   2.0000      -0.535491       -14.5715
  46   2.0000      -0.509141       -13.8544
  47   2.0000      -0.507129       -13.7997
  48   2.0000      -0.497056       -13.5256
  49   2.0000      -0.493530       -13.4296
  50   2.0000      -0.484618       -13.1871
  51   2.0000      -0.470922       -12.8144
  52   2.0000      -0.467968       -12.7341
  53   2.0000      -0.465414       -12.6646
  54   2.0000      -0.461542       -12.5592
  55   2.0000      -0.449053       -12.2193
  56   2.0000      -0.447832       -12.1861
  57   2.0000      -0.440895       -11.9974
  58   2.0000      -0.438195       -11.9239
  59   2.0000      -0.429462       -11.6863
  60   2.0000      -0.419841       -11.4245
  61   2.0000      -0.418312       -11.3828
  62   2.0000      -0.413912       -11.2631
  63   2.0000      -0.345123        -9.3913
  64   2.0000      -0.333473        -9.0743
  65   2.0000      -0.329885        -8.9766
  66   2.0000      -0.286539        -7.7971
  67   0.0000       0.029180         0.7940
  68   0.0000       0.071097         1.9346
  69   0.0000       0.100094         2.7237
  70   0.0000       0.122201         3.3252
  71   0.0000       0.129261         3.5174

MULLIKEN ATOMIC CHARGES
-----------------------
   0 S :    0.127843
   1 C :   -0.122055
   2 C :   -0.079767
   3 C :    0.014084
   4 C :   -0.121006
   5 H :    0.000028
   6 C :    0.093768
   7 H :    0.032937
   8 H :   -0.000196
   9 C :   -0.063687
  10 H :    0.028759
  11 H :    0.036576
  12 C :   -0.062212
  13 H :    0.026108
  14 H :    0.043558
  15 H :    0.031350
  16 S :    0.093446
  17 C :   -0.046359
  18 C :   -0.015990
  19 C :   -0.061854
  20 C :   -0.171305
  21 H :    0.005499
  22 C :    0.087490
  23 H :   -0.001284
  24 H :    0.027094
  25 C :   -0.030122
  26 H :    0.020986
  27 H :    0.011772
  28 C :   -0.020810
  29 H :    0.019930
  30 H :    0.024435
  31 H :    0.015689
  32 H :    0.022722
  33 H :    0.032574
Sum of atomic charges:    0.0000000

LOEWDIN ATOMIC CHARGES
----------------------
   0 S :    0.445624
   1 C :   -0.192988
   2 C :   -0.054438
   3 C :   -0.060676
   4 C :   -0.217406
   5 H :    0.021297
   6 C :   -0.031821
   7 H :    0.035076
   8 H :    0.023849
   9 C :   -0.030875
  10 H :    0.024402
  11 H :    0.024180
  12 C :   -0.067563
  13 H :    0.019982
  14 H :    0.030035
  15 H :    0.026611
  16 S :    0.378542
  17 C :   -0.169373
  18 C :   -0.059247
  19 C :   -0.055642
  20 C :   -0.173556
  21 H :    0.025017
  22 C :   -0.031359
  23 H :    0.016490
  24 H :    0.029597
  25 C :   -0.027706
  26 H :    0.024928
  27 H :    0.013841
  28 C :   -0.057652
  29 H :    0.022081
  30 H :    0.027976
  31 H :    0.018084
  32 H :    0.010057
  33 H :    0.012633

  Mayer bond orders larger than 0.100000
B(  0-S ,  1-C ) :   1.1727 B(  0-S ,  4-C ) :   1.1599 B(  1-C ,  2-C ) :   1.5637
B(  1-C , 32-H ) :   0.9719 B(  2-C ,  3-C ) :   1.2812 B(  2-C ,  6-C ) :   1.0178
B(  3-C ,  4-C ) :   1.5526 B(  3-C ,  5-H ) :   0.9877 B(  4-C , 20-C ) :   1.0162
B(  6-C ,  7-H ) :   0.9436 B(  6-C ,  8-H ) :   0.9376 B(  6-C ,  9-C ) :   1.0618
B(  9-C , 10-H ) :   0.9569 B(  9-C , 11-H ) :   0.9644 B(  9-C , 12-C ) :   1.0543
B( 12-C , 13-H ) :   0.9800 B( 12-C , 14-H ) :   0.9790 B( 12-C , 15-H ) :   0.9777
B( 16-S , 17-C ) :   1.1318 B( 16-S , 20-C ) :   1.1376 B( 17-C , 18-C ) :   1.6385
B( 17-C , 33-H ) :   0.9692 B( 18-C , 19-C ) :   1.2336 B( 18-C , 21-H ) :   0.9864
B( 19-C , 20-C ) :   1.6028 B( 19-C , 22-C ) :   1.0412 B( 22-C , 23-H ) :   0.9242
B( 22-C , 24-H ) :   0.9323 B( 22-C , 25-C ) :   1.0775 B( 25-C , 26-H ) :   0.9520
B( 25-C , 27-H ) :   0.9579 B( 25-C , 28-C ) :   1.0744 B( 28-C , 29-H ) :   0.9723
B( 28-C , 30-H ) :   0.9743 B( 28-C , 31-H ) :   0.9743

Dispersion correction           -0.015469566
FINAL SINGLE POINT ENERGY     -1339.864403780199

DIPOLE MOMENT
-------------
                                X             Y             Z
Electronic contribution:      1.28961      15.57313       9.74425
Nuclear contribution   :     -1.53637     -16.10506      -9.97689
                        -----------------------------------------
Total Dipole Moment    :     -0.24676      -0.53193      -0.23264
                        -----------------------------------------
Magnitude (a.u.)       :      0.63084
Magnitude (Debye)      :      1.60347

Rotational constants in cm-1:     0.021178     0.008595     0.007286
Rotational constants in MHz :   634.896250   257.672211   218.415588

                             ****ORCA TERMINATED NORMALLY****
TOTAL RUN TIME: 0 days 0 hours 0 minutes 36 seconds 884 msec
