                         Program Version 4.2.1 -  RELEASE  -
|  1> ! wB97X-D3 SP def2-SVP
|  2> %pal
|  3> nprocs 16
|  4> end
|  5>
|  6> * xyz 0 1
|  7> S 	 -26.9508 	 54.6439 	 108.721
|  8> C 	 -28.2082 	 53.8943 	 109.585
|  9> C 	 -28.7973 	 54.7041 	 110.545
| 10> C 	 -27.9143 	 55.8239 	 110.795
| 11> C 	 -26.7729 	 55.8488 	 110.006
| 12> H 	 -28.0359 	 56.5707 	 111.609
| 13> C 	 -29.9645 	 54.4232 	 111.484
| 14> H 	 -30.5083 	 53.6751 	 111.018
| 15> H 	 -30.6361 	 55.3058 	 111.4
| 16> C 	 -29.7319 	 54.0275 	 112.956
| 17> H 	 -30.5555 	 54.1725 	 113.563
| 18> H 	 -29.4881 	 52.9941 	 113.101
| 19> C 	 -28.6615 	 54.9324 	 113.699
| 20> H 	 -27.6919 	 54.8299 	 113.172
| 21> H 	 -29.0169 	 55.9989 	 113.585
| 22> H 	 -28.6141 	 54.6599 	 114.692
| 23> S 	 -25.6092 	 58.1232 	 108.844
| 24> C 	 -24.2682 	 58.8954 	 109.617
| 25> C 	 -24.0238 	 58.3155 	 110.848
| 26> C 	 -24.8662 	 57.1936 	 111.174
| 27> C 	 -25.7407 	 56.8944 	 110.107
| 28> H 	 -23.3425 	 58.7616 	 111.523
| 29> C 	 -24.6842 	 56.5238 	 112.517
| 30> H 	 -25.6565 	 56.4347 	 112.993
| 31> H 	 -24.1003 	 57.2498 	 113.124
| 32> C 	 -24.1486 	 55.111 	 112.453
| 33> H 	 -24.917 	 54.5232 	 111.92
| 34> H 	 -24.1062 	 54.7572 	 113.476
| 35> C 	 -22.7858 	 54.9629 	 111.855
| 36> H 	 -22.2083 	 55.6429 	 112.487
| 37> H 	 -22.8114 	 55.3674 	 110.862
| 38> H 	 -22.4671 	 53.9133 	 111.985
| 39> H 	 -28.7352 	 53.028 	 109.253
| 40> H 	 -23.7421 	 59.8046 	 109.234
| 41> *
| 42>
| 43>                          ****END OF INPUT****

CARTESIAN COORDINATES (ANGSTROEM)
---------------------------------
  S    -26.950800   54.643900  108.721000
  C    -28.208200   53.894300  109.585000
  C    -28.797300   54.704100  110.545000
  C    -27.914300   55.823900  110.795000
  C    -26.772900   55.848800  110.006000
  H    -28.035900   56.570700  111.609000
  C    -29.964500   54.423200  111.484000
  H    -30.508300   53.675100  111.018000
  H    -30.636100   55.305800  111.400000
  C    -29.731900   54.027500  112.956000
  H    -30.555500   54.172500  113.563000
  H    -29.488100   52.994100  113.101000
  C    -28.661500   54.932400  113.699000
  H    -27.691900   54.829900  113.172000
  H    -29.016900   55.998900  113.585000
  H    -28.614100   54.659900  114.692000
  S    -25.609200   58.123200  108.844000
  C    -24.268200   58.895400  109.617000
  C    -24.023800   58.315500  110.848000
  C    -24.866200   57.193600  111.174000
  C    -25.740700   56.894400  110.107000
  H    -23.342500   58.761600  111.523000
  C    -24.684200   56.523800  112.517000
  H    -25.656500   56.434700  112.993000
  H    -24.100300   57.249800  113.124000
  C    -24.148600   55.111000  112.453000
  H    -24.917000   54.523200  111.920000
  H    -24.106200   54.757200  113.476000
  C    -22.785800   54.962900  111.855000
  H    -22.208300   55.642900  112.487000
  H    -22.811400   55.367400  110.862000
  H    -22.467100   53.913300  111.985000
  H    -28.735200   53.028000  109.253000
  H    -23.742100   59.804600  109.234000

 Total Charge           Charge          ....    0
 Multiplicity           Mult            ....    1
 Number of Electrons    NEL             ....  134
 Basis Dimension        Dim             ....  322

ORBITAL ENERGIES
----------------

  NO   OCC          E(Eh)            E(eV)
   0   2.0000     -88.968267     -2420.9496
   1   2.0000     -88.964758     -2420.8541
   2   2.0000     -10.329406      -281.0774
   3   2.0000     -10.329263      -281.0735
   4   2.0000     -10.318619      -280.7839
   5   2.0000     -10.312464      -280.6164
   6   2.0000     -10.303818      -280.3811
   7   2.0000     -10.303192      -280.3641
   8   2.0000     -10.296884      -280.1925
   9   2.0000     -10.293797      -280.1084
  10   2.0000     -10.289121      -279.9812
  11   2.0000     -10.289087      -279.9803
  12   2.0000     -10.284803      -279.8637
  13   2.0000     -10.279932      -279.7312
  14   2.0000     -10.276032      -279.6250
  15   2.0000     -10.268071      -279.4084
  16   2.0000      -8.083494      -219.9631
  17   2.0000      -8.079493      -219.8542
  18   2.0000      -6.041903      -164.4085
  19   2.0000      -6.038128      -164.3058
  20   2.0000      -6.037986      -164.3020
  21   2.0000      -6.034124      -164.1968
  22   2.0000      -6.033887      -164.1904
  23   2.0000      -6.030396      -164.0954
  24   2.0000      -1.004703       -27.3393
  25   2.0000      -0.984575       -26.7916
  26   2.0000      -0.914472       -24.8841
  27   2.0000      -0.909308       -24.7435
  28   2.0000      -0.868004       -23.6196
  29   2.0000      -0.849142       -23.1063
  30   2.0000      -0.845297       -23.0017
  31   2.0000      -0.812580       -22.1114
  32   2.0000      -0.786922       -21.4132
  33   2.0000      -0.773274       -21.0419
  34   2.0000      -0.707480       -19.2515
  35   2.0000      -0.704426       -19.1684
  36   2.0000      -0.679898       -18.5010
  37   2.0000      -0.658882       -17.9291
  38   2.0000      -0.640500       -17.4289
  39   2.0000      -0.612781       -16.6746
  40   2.0000      -0.588053       -16.0017
  41   2.0000      -0.569939       -15.5088
  42   2.0000      -0.558685       -15.2026
  43   2.0000      -0.555207       -15.1080
  44   2.0000      -0.551691       -15.0123
  45   2.0000      -0.546554       -14.8725
  46   2.0000      -0.510023       -13.8784
  47   2.0000      -0.509483       -13.8637
  48   2.0000      -0.500007       -13.6059
  49   2.0000      -0.494293       -13.4504
  50   2.0000      -0.486238       -13.2312
  51   2.0000      -0.481837       -13.1115
  52   2.0000      -0.468429       -12.7466
  53   2.0000      -0.466570       -12.6960
  54   2.0000      -0.459679       -12.5085
  55   2.0000      -0.453296       -12.3348
  56   2.0000      -0.442675       -12.0458
  57   2.0000      -0.437287       -11.8992
  58   2.0000      -0.433144       -11.7864
  59   2.0000      -0.422598       -11.4995
  60   2.0000      -0.418730       -11.3942
  61   2.0000      -0.413804       -11.2602
  62   2.0000      -0.412046       -11.2123
  63   2.0000      -0.340502        -9.2655
  64   2.0000      -0.328376        -8.9356
  65   2.0000      -0.326605        -8.8874
  66   2.0000      -0.297315        -8.0903
  67   0.0000       0.034679         0.9437
  68   0.0000       0.057258         1.5581
  69   0.0000       0.109880         2.9900
  70   0.0000       0.117974         3.2102
  71   0.0000       0.135672         3.6918

MULLIKEN ATOMIC CHARGES
-----------------------
   0 S :    0.127193
   1 C :   -0.092615
   2 C :   -0.113593
   3 C :    0.010572
   4 C :   -0.172937
   5 H :    0.027788
   6 C :    0.097714
   7 H :   -0.003644
   8 H :    0.037330
   9 C :   -0.021729
  10 H :    0.010860
  11 H :    0.024469
  12 C :   -0.096729
  13 H :    0.064003
  14 H :    0.037562
  15 H :    0.025302
  16 S :    0.111250
  17 C :   -0.107970
  18 C :   -0.034089
  19 C :   -0.055900
  20 C :   -0.175036
  21 H :    0.004842
  22 C :    0.084940
  23 H :    0.020084
  24 H :    0.018674
  25 C :   -0.090536
  26 H :    0.042547
  27 H :    0.021115
  28 C :   -0.018339
  29 H :    0.013946
  30 H :    0.044559
  31 H :    0.045769
  32 H :    0.036713
  33 H :    0.075885
Sum of atomic charges:    0.0000000

LOEWDIN ATOMIC CHARGES
----------------------
   0 S :    0.417427
   1 C :   -0.200821
   2 C :   -0.067072
   3 C :   -0.052395
   4 C :   -0.204116
   5 H :    0.035580
   6 C :   -0.030783
   7 H :    0.020316
   8 H :    0.040907
   9 C :   -0.027003
  10 H :    0.017019
  11 H :    0.021498
  12 C :   -0.060131
  13 H :    0.027284
  14 H :    0.027570
  15 H :    0.012815
  16 S :    0.409734
  17 C :   -0.199858
  18 C :   -0.076435
  19 C :   -0.052313
  20 C :   -0.201642
  21 H :    0.022961
  22 C :   -0.032789
  23 H :    0.032259
  24 H :    0.030047
  25 C :   -0.042536
  26 H :    0.025508
  27 H :    0.021390
  28 C :   -0.060674
  29 H :    0.023872
  30 H :    0.025431
  31 H :    0.032392
  32 H :    0.022718
  33 H :    0.041837

  Mayer bond orders larger than 0.100000
B(  0-S ,  1-C ) :   1.1632 B(  0-S ,  4-C ) :   1.1246 B(  1-C ,  2-C ) :   1.6131
B(  1-C , 32-H ) :   0.9631 B(  2-C ,  3-C ) :   1.2195 B(  2-C ,  6-C ) :   1.0329
B(  3-C ,  4-C ) :   1.5930 B(  3-C ,  5-H ) :   0.9859 B(  4-C , 20-C ) :   1.0426
B(  6-C ,  7-H ) :   0.9317 B(  6-C ,  8-H ) :   0.9355 B(  6-C ,  9-C ) :   1.0694
B(  9-C , 10-H ) :   0.9518 B(  9-C , 11-H ) :   0.9581 B(  9-C , 12-C ) :   1.0831
B( 12-C , 13-H ) :   0.9676 B( 12-C , 14-H ) :   0.9743 B( 12-C , 15-H ) :   0.9718
B( 16-S , 17-C ) :   1.1645 B( 16-S , 20-C ) :   1.1526 B( 17-C , 18-C ) :   1.5928
B( 17-C , 33-H ) :   0.9612 B( 18-C , 19-C ) :   1.2569 B( 18-C , 21-H ) :   0.9918
B( 19-C , 20-C ) :   1.5735 B( 19-C , 22-C ) :   1.0372 B( 22-C , 23-H ) :   0.9217
B( 22-C , 24-H ) :   0.9325 B( 22-C , 25-C ) :   1.0856 B( 25-C , 26-H ) :   0.9482
B( 25-C , 27-H ) :   0.9526 B( 25-C , 28-C ) :   1.0753 B( 28-C , 29-H ) :   0.9731
B( 28-C , 30-H ) :   0.9734 B( 28-C , 31-H ) :   0.9717

Dispersion correction           -0.016090102
FINAL SINGLE POINT ENERGY     -1339.869196856220

DIPOLE MOMENT
-------------
                                X             Y             Z
Electronic contribution:      0.69147       8.60251     -24.33158
Nuclear contribution   :     -0.99028      -8.67253      25.02147
                        -----------------------------------------
Total Dipole Moment    :     -0.29881      -0.07002       0.68989
                        -----------------------------------------
Magnitude (a.u.)       :      0.75507
Magnitude (Debye)      :      1.91924

Rotational constants in cm-1:     0.018551     0.009756     0.008126
Rotational constants in MHz :   556.139257   292.490671   243.601486

                             ****ORCA TERMINATED NORMALLY****
TOTAL RUN TIME: 0 days 0 hours 0 minutes 32 seconds 587 msec
