                         Program Version 4.2.1 -  RELEASE  -
|  1> ! wB97X-D3 SP def2-SVP
|  2> %pal
|  3> nprocs 16
|  4> end
|  5>
|  6> * xyz 0 1
|  7> S 	 -33.3511 	 60.7802 	 108.697
|  8> C 	 -34.3077 	 59.7688 	 109.708
|  9> C 	 -35.2043 	 58.9852 	 108.99
| 10> C 	 -35.1129 	 59.1994 	 107.564
| 11> C 	 -34.2439 	 60.2486 	 107.234
| 12> H 	 -35.6 	 58.5744 	 106.813
| 13> C 	 -36.1717 	 57.9193 	 109.526
| 14> H 	 -36.8988 	 57.681 	 108.716
| 15> H 	 -36.7233 	 58.544 	 110.349
| 16> C 	 -35.5051 	 56.5693 	 109.946
| 17> H 	 -34.8732 	 56.7822 	 110.822
| 18> H 	 -36.2294 	 55.8631 	 110.342
| 19> C 	 -34.6817 	 55.951 	 108.848
| 20> H 	 -34.0739 	 55.0368 	 109.188
| 21> H 	 -35.243 	 55.5146 	 108.078
| 22> H 	 -33.9976 	 56.5746 	 108.344
| 23> S 	 -31.9936 	 60.8416 	 105.804
| 24> C 	 -32.1342 	 61.1448 	 104.07
| 25> C 	 -33.4091 	 61.0778 	 103.61
| 26> C 	 -34.3777 	 60.7356 	 104.647
| 27> C 	 -33.7923 	 60.6021 	 105.907
| 28> H 	 -33.629 	 61.2354 	 102.547
| 29> C 	 -35.8638 	 60.4446 	 104.377
| 30> H 	 -36.4491 	 61.1839 	 104.859
| 31> H 	 -36.0935 	 59.5479 	 104.941
| 32> C 	 -36.2679 	 60.3054 	 102.956
| 33> H 	 -35.4969 	 59.6617 	 102.504
| 34> H 	 -36.1578 	 61.212 	 102.432
| 35> C 	 -37.8093 	 59.8132 	 102.791
| 36> H 	 -38.3932 	 60.5761 	 103.237
| 37> H 	 -38.0173 	 58.8418 	 103.257
| 38> H 	 -38.107 	 59.9328 	 101.76
| 39> H 	 -34.1757 	 59.7641 	 110.769
| 40> H 	 -31.4337 	 61.6058 	 103.442
| 41> *
| 42>
| 43>                          ****END OF INPUT****

CARTESIAN COORDINATES (ANGSTROEM)
---------------------------------
  S    -33.351100   60.780200  108.697000
  C    -34.307700   59.768800  109.708000
  C    -35.204300   58.985200  108.990000
  C    -35.112900   59.199400  107.564000
  C    -34.243900   60.248600  107.234000
  H    -35.600000   58.574400  106.813000
  C    -36.171700   57.919300  109.526000
  H    -36.898800   57.681000  108.716000
  H    -36.723300   58.544000  110.349000
  C    -35.505100   56.569300  109.946000
  H    -34.873200   56.782200  110.822000
  H    -36.229400   55.863100  110.342000
  C    -34.681700   55.951000  108.848000
  H    -34.073900   55.036800  109.188000
  H    -35.243000   55.514600  108.078000
  H    -33.997600   56.574600  108.344000
  S    -31.993600   60.841600  105.804000
  C    -32.134200   61.144800  104.070000
  C    -33.409100   61.077800  103.610000
  C    -34.377700   60.735600  104.647000
  C    -33.792300   60.602100  105.907000
  H    -33.629000   61.235400  102.547000
  C    -35.863800   60.444600  104.377000
  H    -36.449100   61.183900  104.859000
  H    -36.093500   59.547900  104.941000
  C    -36.267900   60.305400  102.956000
  H    -35.496900   59.661700  102.504000
  H    -36.157800   61.212000  102.432000
  C    -37.809300   59.813200  102.791000
  H    -38.393200   60.576100  103.237000
  H    -38.017300   58.841800  103.257000
  H    -38.107000   59.932800  101.760000
  H    -34.175700   59.764100  110.769000
  H    -31.433700   61.605800  103.442000

 Total Charge           Charge          ....    0
 Multiplicity           Mult            ....    1
 Number of Electrons    NEL             ....  134
 Basis Dimension        Dim             ....  322

ORBITAL ENERGIES
----------------

  NO   OCC          E(Eh)            E(eV)
   0   2.0000     -88.969227     -2420.9758
   1   2.0000     -88.962412     -2420.7903
   2   2.0000     -10.334645      -281.2200
   3   2.0000     -10.330666      -281.1117
   4   2.0000     -10.315703      -280.7046
   5   2.0000     -10.310261      -280.5565
   6   2.0000     -10.308889      -280.5191
   7   2.0000     -10.306078      -280.4426
   8   2.0000     -10.305329      -280.4223
   9   2.0000     -10.300332      -280.2863
  10   2.0000     -10.295501      -280.1548
  11   2.0000     -10.291330      -280.0413
  12   2.0000     -10.287516      -279.9375
  13   2.0000     -10.285828      -279.8916
  14   2.0000     -10.284713      -279.8613
  15   2.0000     -10.272704      -279.5345
  16   2.0000      -8.083719      -219.9692
  17   2.0000      -8.076101      -219.7619
  18   2.0000      -6.042319      -164.4199
  19   2.0000      -6.038225      -164.3085
  20   2.0000      -6.034873      -164.2172
  21   2.0000      -6.034427      -164.2051
  22   2.0000      -6.030892      -164.1089
  23   2.0000      -6.026501      -163.9894
  24   2.0000      -1.000785       -27.2328
  25   2.0000      -0.976795       -26.5799
  26   2.0000      -0.910673       -24.7807
  27   2.0000      -0.907177       -24.6855
  28   2.0000      -0.871602       -23.7175
  29   2.0000      -0.850664       -23.1477
  30   2.0000      -0.838769       -22.8241
  31   2.0000      -0.813829       -22.1454
  32   2.0000      -0.782839       -21.3021
  33   2.0000      -0.772472       -21.0200
  34   2.0000      -0.713733       -19.4217
  35   2.0000      -0.707352       -19.2480
  36   2.0000      -0.701915       -19.1001
  37   2.0000      -0.654129       -17.7997
  38   2.0000      -0.639363       -17.3979
  39   2.0000      -0.611248       -16.6329
  40   2.0000      -0.593909       -16.1611
  41   2.0000      -0.572855       -15.5882
  42   2.0000      -0.568131       -15.4596
  43   2.0000      -0.548404       -14.9228
  44   2.0000      -0.541821       -14.7437
  45   2.0000      -0.523568       -14.2470
  46   2.0000      -0.512972       -13.9587
  47   2.0000      -0.506814       -13.7911
  48   2.0000      -0.503044       -13.6885
  49   2.0000      -0.500425       -13.6173
  50   2.0000      -0.487398       -13.2628
  51   2.0000      -0.480963       -13.0877
  52   2.0000      -0.473401       -12.8819
  53   2.0000      -0.470700       -12.8084
  54   2.0000      -0.456402       -12.4193
  55   2.0000      -0.452579       -12.3153
  56   2.0000      -0.446515       -12.1503
  57   2.0000      -0.439026       -11.9465
  58   2.0000      -0.432638       -11.7727
  59   2.0000      -0.425402       -11.5758
  60   2.0000      -0.420932       -11.4542
  61   2.0000      -0.414979       -11.2922
  62   2.0000      -0.410453       -11.1690
  63   2.0000      -0.356087        -9.6896
  64   2.0000      -0.331808        -9.0290
  65   2.0000      -0.326877        -8.8948
  66   2.0000      -0.283981        -7.7275
  67   0.0000       0.018657         0.5077
  68   0.0000       0.070489         1.9181
  69   0.0000       0.098944         2.6924
  70   0.0000       0.120437         3.2773
  71   0.0000       0.135618         3.6904

MULLIKEN ATOMIC CHARGES
-----------------------
   0 S :    0.107200
   1 C :   -0.114331
   2 C :   -0.092607
   3 C :   -0.006884
   4 C :   -0.128069
   5 H :    0.034254
   6 C :    0.006659
   7 H :    0.029839
   8 H :    0.058491
   9 C :   -0.025365
  10 H :    0.025898
  11 H :    0.033168
  12 C :   -0.055191
  13 H :    0.036165
  14 H :    0.009092
  15 H :    0.039398
  16 S :    0.075567
  17 C :   -0.040923
  18 C :   -0.072326
  19 C :   -0.060575
  20 C :   -0.141228
  21 H :    0.030437
  22 C :    0.111128
  23 H :    0.021477
  24 H :    0.007719
  25 C :   -0.104026
  26 H :    0.030727
  27 H :    0.021262
  28 C :   -0.017761
  29 H :    0.018623
  30 H :    0.049326
  31 H :    0.030733
  32 H :    0.045127
  33 H :    0.036998
Sum of atomic charges:   -0.0000000

LOEWDIN ATOMIC CHARGES
----------------------
   0 S :    0.403995
   1 C :   -0.200305
   2 C :   -0.067263
   3 C :   -0.059160
   4 C :   -0.185437
   5 H :    0.032419
   6 C :   -0.040730
   7 H :    0.029226
   8 H :    0.046821
   9 C :   -0.040720
  10 H :    0.024684
  11 H :    0.026335
  12 C :   -0.068431
  13 H :    0.038786
  14 H :    0.016348
  15 H :    0.022633
  16 S :    0.361350
  17 C :   -0.175188
  18 C :   -0.075030
  19 C :   -0.050600
  20 C :   -0.171117
  21 H :    0.036068
  22 C :   -0.033040
  23 H :    0.028769
  24 H :    0.028044
  25 C :   -0.038851
  26 H :    0.024275
  27 H :    0.016704
  28 C :   -0.056094
  29 H :    0.021897
  30 H :    0.029055
  31 H :    0.027709
  32 H :    0.024672
  33 H :    0.022174

  Mayer bond orders larger than 0.100000
B(  0-S ,  1-C ) :   1.1456 B(  0-S ,  4-C ) :   1.1438 B(  1-C ,  2-C ) :   1.5939
B(  1-C , 32-H ) :   0.9737 B(  2-C ,  3-C ) :   1.2570 B(  2-C ,  6-C ) :   1.0041
B(  3-C ,  4-C ) :   1.5485 B(  3-C ,  5-H ) :   0.9793 B(  4-C , 20-C ) :   1.0861
B(  6-C ,  7-H ) :   0.9483 B(  6-C ,  8-H ) :   0.9456 B(  6-C ,  9-C ) :   1.0572
B(  9-C , 10-H ) :   0.9572 B(  9-C , 11-H ) :   0.9573 B(  9-C , 12-C ) :   1.0737
B( 12-C , 13-H ) :   0.9700 B( 12-C , 14-H ) :   0.9728 B( 12-C , 15-H ) :   0.9747
B( 16-S , 17-C ) :   1.1281 B( 16-S , 20-C ) :   1.1059 B( 17-C , 18-C ) :   1.6644
B( 17-C , 33-H ) :   0.9565 B( 18-C , 19-C ) :   1.2119 B( 18-C , 21-H ) :   0.9803
B( 19-C , 20-C ) :   1.6373 B( 19-C , 22-C ) :   1.0184 B( 22-C , 23-H ) :   0.9140
B( 22-C , 24-H ) :   0.9343 B( 22-C , 25-C ) :   1.0926 B( 25-C , 26-H ) :   0.9549
B( 25-C , 27-H ) :   0.9457 B( 25-C , 28-C ) :   1.0708 B( 28-C , 29-H ) :   0.9726
B( 28-C , 30-H ) :   0.9790 B( 28-C , 31-H ) :   0.9747

Dispersion correction           -0.013970408
FINAL SINGLE POINT ENERGY     -1339.866437611216

DIPOLE MOMENT
-------------
                                X             Y             Z
Electronic contribution:     20.58861      16.39069       6.42269
Nuclear contribution   :    -21.15819     -16.73575      -6.61474
                        -----------------------------------------
Total Dipole Moment    :     -0.56958      -0.34506      -0.19204
                        -----------------------------------------
Magnitude (a.u.)       :      0.69309
Magnitude (Debye)      :      1.76169

Rotational constants in cm-1:     0.016885     0.008829     0.006624
Rotational constants in MHz :   506.184668   264.690686   198.575170

                             ****ORCA TERMINATED NORMALLY****
TOTAL RUN TIME: 0 days 0 hours 0 minutes 29 seconds 720 msec
