                         Program Version 4.2.1 -  RELEASE  -
|  1> ! wB97X-D3 SP def2-SVP
|  2> %pal
|  3> nprocs 16
|  4> end
|  5>
|  6> * xyz 0 1
|  7> S 	 28.5736 	 33.1295 	 55.3046
|  8> C 	 28.9334 	 32.2822 	 53.7917
|  9> C 	 29.8173 	 31.2506 	 54.0356
| 10> C 	 30.0937 	 31.0042 	 55.4149
| 11> C 	 29.5803 	 32.0459 	 56.2152
| 12> H 	 30.6545 	 30.2244 	 55.7791
| 13> C 	 30.5719 	 30.37 	 52.9919
| 14> H 	 29.9562 	 30.4289 	 52.164
| 15> H 	 30.4968 	 29.3253 	 53.2147
| 16> C 	 32.1271 	 30.6664 	 52.6969
| 17> H 	 32.1694 	 31.7485 	 52.4406
| 18> H 	 32.7805 	 30.5361 	 53.5918
| 19> C 	 32.7168 	 29.9043 	 51.542
| 20> H 	 31.95 	 29.5905 	 50.8374
| 21> H 	 33.4463 	 30.4701 	 50.9742
| 22> H 	 33.1611 	 28.9277 	 51.8197
| 23> S 	 28.3736 	 32.0373 	 58.6465
| 24> C 	 29.3449 	 32.3652 	 60.143
| 25> C 	 30.6554 	 32.3724 	 59.8665
| 26> C 	 30.903 	 32.2529 	 58.4008
| 27> C 	 29.7675 	 32.1085 	 57.5997
| 28> H 	 31.3858 	 32.5078 	 60.6566
| 29> C 	 32.283 	 32.4163 	 57.808
| 30> H 	 32.3123 	 31.5182 	 57.1085
| 31> H 	 33.0715 	 32.2815 	 58.516
| 32> C 	 32.4672 	 33.6438 	 56.9201
| 33> H 	 32.259 	 34.5677 	 57.4511
| 34> H 	 31.6697 	 33.6037 	 56.238
| 35> C 	 33.7727 	 33.6014 	 56.2054
| 36> H 	 33.7986 	 34.4318 	 55.4075
| 37> H 	 33.9378 	 32.7141 	 55.5623
| 38> H 	 34.6956 	 33.6022 	 56.8763
| 39> H 	 28.4458 	 32.608 	 52.8704
| 40> H 	 28.9676 	 32.2416 	 61.1632
| 41> *
| 42>
| 43>                          ****END OF INPUT****

CARTESIAN COORDINATES (ANGSTROEM)
---------------------------------
  S     28.573600   33.129500   55.304600
  C     28.933400   32.282200   53.791700
  C     29.817300   31.250600   54.035600
  C     30.093700   31.004200   55.414900
  C     29.580300   32.045900   56.215200
  H     30.654500   30.224400   55.779100
  C     30.571900   30.370000   52.991900
  H     29.956200   30.428900   52.164000
  H     30.496800   29.325300   53.214700
  C     32.127100   30.666400   52.696900
  H     32.169400   31.748500   52.440600
  H     32.780500   30.536100   53.591800
  C     32.716800   29.904300   51.542000
  H     31.950000   29.590500   50.837400
  H     33.446300   30.470100   50.974200
  H     33.161100   28.927700   51.819700
  S     28.373600   32.037300   58.646500
  C     29.344900   32.365200   60.143000
  C     30.655400   32.372400   59.866500
  C     30.903000   32.252900   58.400800
  C     29.767500   32.108500   57.599700
  H     31.385800   32.507800   60.656600
  C     32.283000   32.416300   57.808000
  H     32.312300   31.518200   57.108500
  H     33.071500   32.281500   58.516000
  C     32.467200   33.643800   56.920100
  H     32.259000   34.567700   57.451100
  H     31.669700   33.603700   56.238000
  C     33.772700   33.601400   56.205400
  H     33.798600   34.431800   55.407500
  H     33.937800   32.714100   55.562300
  H     34.695600   33.602200   56.876300
  H     28.445800   32.608000   52.870400
  H     28.967600   32.241600   61.163200

 Total Charge           Charge          ....    0
 Multiplicity           Mult            ....    1
 Number of Electrons    NEL             ....  134
 Basis Dimension        Dim             ....  322

ORBITAL ENERGIES
----------------

  NO   OCC          E(Eh)            E(eV)
   0   2.0000     -88.971084     -2421.0263
   1   2.0000     -88.958554     -2420.6853
   2   2.0000     -10.330304      -281.1019
   3   2.0000     -10.322312      -280.8844
   4   2.0000     -10.321706      -280.8679
   5   2.0000     -10.318639      -280.7844
   6   2.0000     -10.308141      -280.4988
   7   2.0000     -10.307548      -280.4826
   8   2.0000     -10.297589      -280.2116
   9   2.0000     -10.297481      -280.2087
  10   2.0000     -10.292636      -280.0769
  11   2.0000     -10.292306      -280.0679
  12   2.0000     -10.286433      -279.9081
  13   2.0000     -10.284820      -279.8642
  14   2.0000     -10.279564      -279.7211
  15   2.0000     -10.273580      -279.5583
  16   2.0000      -8.085471      -220.0169
  17   2.0000      -8.072875      -219.6741
  18   2.0000      -6.043942      -164.4640
  19   2.0000      -6.039955      -164.3555
  20   2.0000      -6.036344      -164.2573
  21   2.0000      -6.031688      -164.1306
  22   2.0000      -6.027419      -164.0144
  23   2.0000      -6.023337      -163.9033
  24   2.0000      -1.007748       -27.4222
  25   2.0000      -0.978641       -26.6302
  26   2.0000      -0.909457       -24.7476
  27   2.0000      -0.904675       -24.6175
  28   2.0000      -0.878509       -23.9054
  29   2.0000      -0.854174       -23.2433
  30   2.0000      -0.840079       -22.8597
  31   2.0000      -0.818909       -22.2836
  32   2.0000      -0.783029       -21.3073
  33   2.0000      -0.760906       -20.7053
  34   2.0000      -0.713485       -19.4149
  35   2.0000      -0.701790       -19.0967
  36   2.0000      -0.692557       -18.8454
  37   2.0000      -0.662767       -18.0348
  38   2.0000      -0.649637       -17.6775
  39   2.0000      -0.619824       -16.8663
  40   2.0000      -0.587899       -15.9976
  41   2.0000      -0.570705       -15.5297
  42   2.0000      -0.563532       -15.3345
  43   2.0000      -0.555413       -15.1136
  44   2.0000      -0.526331       -14.3222
  45   2.0000      -0.523029       -14.2323
  46   2.0000      -0.518212       -14.1013
  47   2.0000      -0.516171       -14.0457
  48   2.0000      -0.509564       -13.8659
  49   2.0000      -0.499894       -13.6028
  50   2.0000      -0.492906       -13.4127
  51   2.0000      -0.487907       -13.2766
  52   2.0000      -0.478393       -13.0177
  53   2.0000      -0.465463       -12.6659
  54   2.0000      -0.460570       -12.5327
  55   2.0000      -0.447011       -12.1638
  56   2.0000      -0.437312       -11.8999
  57   2.0000      -0.433780       -11.8038
  58   2.0000      -0.426607       -11.6086
  59   2.0000      -0.422598       -11.4995
  60   2.0000      -0.416060       -11.3216
  61   2.0000      -0.411636       -11.2012
  62   2.0000      -0.407630       -11.0922
  63   2.0000      -0.346200        -9.4206
  64   2.0000      -0.332918        -9.0592
  65   2.0000      -0.323385        -8.7998
  66   2.0000      -0.295287        -8.0352
  67   0.0000       0.026613         0.7242
  68   0.0000       0.065979         1.7954
  69   0.0000       0.111469         3.0332
  70   0.0000       0.114146         3.1061
  71   0.0000       0.125000         3.4014

MULLIKEN ATOMIC CHARGES
-----------------------
   0 S :    0.125943
   1 C :   -0.150975
   2 C :   -0.072000
   3 C :    0.073684
   4 C :   -0.183219
   5 H :   -0.006454
   6 C :    0.099602
   7 H :   -0.007928
   8 H :    0.017151
   9 C :   -0.083430
  10 H :    0.036773
  11 H :    0.042789
  12 C :   -0.049874
  13 H :    0.022245
  14 H :    0.039099
  15 H :    0.033300
  16 S :    0.080332
  17 C :   -0.089582
  18 C :   -0.019886
  19 C :   -0.049533
  20 C :   -0.150650
  21 H :    0.026303
  22 C :    0.046569
  23 H :    0.018509
  24 H :    0.007936
  25 C :    0.002049
  26 H :    0.026599
  27 H :    0.014154
  28 C :   -0.084306
  29 H :    0.041460
  30 H :    0.025660
  31 H :    0.040263
  32 H :    0.061244
  33 H :    0.066174
Sum of atomic charges:   -0.0000000

LOEWDIN ATOMIC CHARGES
----------------------
   0 S :    0.413485
   1 C :   -0.194568
   2 C :   -0.057257
   3 C :   -0.039552
   4 C :   -0.202223
   5 H :    0.019047
   6 C :   -0.026653
   7 H :    0.016807
   8 H :    0.026227
   9 C :   -0.042694
  10 H :    0.028899
  11 H :    0.027912
  12 C :   -0.072515
  13 H :    0.025463
  14 H :    0.029094
  15 H :    0.027987
  16 S :    0.371314
  17 C :   -0.165652
  18 C :   -0.070587
  19 C :   -0.047621
  20 C :   -0.208646
  21 H :    0.035747
  22 C :   -0.036393
  23 H :    0.036638
  24 H :    0.019364
  25 C :   -0.041039
  26 H :    0.026149
  27 H :    0.020318
  28 C :   -0.076729
  29 H :    0.035341
  30 H :    0.024673
  31 H :    0.029775
  32 H :    0.032375
  33 H :    0.035516

  Mayer bond orders larger than 0.100000
B(  0-S ,  1-C ) :   1.1306 B(  0-S ,  4-C ) :   1.1559 B(  1-C ,  2-C ) :   1.5968
B(  1-C , 32-H ) :   0.9736 B(  2-C ,  3-C ) :   1.2453 B(  2-C ,  6-C ) :   1.0229
B(  3-C ,  4-C ) :   1.5341 B(  3-C ,  5-H ) :   1.0038 B(  4-C , 20-C ) :   1.0814
B(  6-C ,  7-H ) :   0.9345 B(  6-C ,  8-H ) :   0.9415 B(  6-C ,  9-C ) :   1.0481
B(  9-C , 10-H ) :   0.9610 B(  9-C , 11-H ) :   0.9582 B(  9-C , 12-C ) :   1.0758
B( 12-C , 13-H ) :   0.9743 B( 12-C , 14-H ) :   0.9758 B( 12-C , 15-H ) :   0.9742
B( 16-S , 17-C ) :   1.1233 B( 16-S , 20-C ) :   1.1160 B( 17-C , 18-C ) :   1.6652
B( 17-C , 33-H ) :   0.9588 B( 18-C , 19-C ) :   1.1992 B( 18-C , 21-H ) :   0.9895
B( 19-C , 20-C ) :   1.6085 B( 19-C , 22-C ) :   1.0488 B( 22-C , 23-H ) :   0.9286
B( 22-C , 24-H ) :   0.9382 B( 22-C , 25-C ) :   1.0640 B( 25-C , 26-H ) :   0.9484
B( 25-C , 27-H ) :   0.9427 B( 25-C , 28-C ) :   1.0901 B( 28-C , 29-H ) :   0.9706
B( 28-C , 30-H ) :   0.9709 B( 28-C , 31-H ) :   0.9725

Dispersion correction           -0.015064738
FINAL SINGLE POINT ENERGY     -1339.861137549947

DIPOLE MOMENT
-------------
                                X             Y             Z
Electronic contribution:    -26.17345       4.96403      17.03312
Nuclear contribution   :     26.74789      -5.22926     -17.30554
                        -----------------------------------------
Total Dipole Moment    :      0.57444      -0.26523      -0.27242
                        -----------------------------------------
Magnitude (a.u.)       :      0.68887
Magnitude (Debye)      :      1.75097

Rotational constants in cm-1:     0.019961     0.008874     0.007155
Rotational constants in MHz :   598.425821   266.032627   214.493914

                             ****ORCA TERMINATED NORMALLY****
TOTAL RUN TIME: 0 days 0 hours 0 minutes 34 seconds 238 msec
