                         Program Version 4.2.1 -  RELEASE  -
|  1> ! wB97X-D3 SP def2-SVP
|  2> %pal
|  3> nprocs 16
|  4> end
|  5>
|  6> * xyz 0 1
|  7> S 	 29.127 	 16.1461 	 70.5468
|  8> C 	 28.9027 	 14.4072 	 70.8549
|  9> C 	 30.0389 	 13.6934 	 70.4984
| 10> C 	 31.023 	 14.56 	 69.9157
| 11> C 	 30.6977 	 15.9165 	 69.9169
| 12> H 	 31.9978 	 14.2341 	 69.6697
| 13> C 	 30.4368 	 12.2625 	 70.819
| 14> H 	 31.4288 	 12.0541 	 70.3314
| 15> H 	 29.7571 	 11.5408 	 70.366
| 16> C 	 30.4378 	 11.9364 	 72.3533
| 17> H 	 31.219 	 12.5203 	 72.8467
| 18> H 	 29.5342 	 12.1967 	 72.8533
| 19> C 	 30.7611 	 10.4781 	 72.5726
| 20> H 	 31.3939 	 9.9497 	 71.8491
| 21> H 	 31.3854 	 10.4727 	 73.4602
| 22> H 	 29.9166 	 9.81819 	 72.7033
| 23> S 	 30.959 	 18.2298 	 68.4496
| 24> C 	 32.2992 	 19.3061 	 68.4913
| 25> C 	 33.2068 	 18.7771 	 69.3718
| 26> C 	 32.8521 	 17.4494 	 69.9449
| 27> C 	 31.5959 	 17.0246 	 69.5554
| 28> H 	 34.1314 	 19.338 	 69.5588
| 29> C 	 33.7565 	 16.8572 	 70.9635
| 30> H 	 33.2269 	 16.0244 	 71.4904
| 31> H 	 33.8485 	 17.538 	 71.8201
| 32> C 	 35.0873 	 16.3533 	 70.4613
| 33> H 	 35.7103 	 17.1858 	 70.1162
| 34> H 	 34.9778 	 15.7197 	 69.616
| 35> C 	 35.872 	 15.6504 	 71.5466
| 36> H 	 35.3459 	 14.6862 	 71.9206
| 37> H 	 35.9257 	 16.2896 	 72.4136
| 38> H 	 36.9289 	 15.3826 	 71.377
| 39> H 	 28.1135 	 13.8748 	 71.3595
| 40> H 	 32.3722 	 20.2396 	 68.051
| 41> *
| 42>
| 43>                          ****END OF INPUT****

CARTESIAN COORDINATES (ANGSTROEM)
---------------------------------
  S     29.127000   16.146100   70.546800
  C     28.902700   14.407200   70.854900
  C     30.038900   13.693400   70.498400
  C     31.023000   14.560000   69.915700
  C     30.697700   15.916500   69.916900
  H     31.997800   14.234100   69.669700
  C     30.436800   12.262500   70.819000
  H     31.428800   12.054100   70.331400
  H     29.757100   11.540800   70.366000
  C     30.437800   11.936400   72.353300
  H     31.219000   12.520300   72.846700
  H     29.534200   12.196700   72.853300
  C     30.761100   10.478100   72.572600
  H     31.393900    9.949700   71.849100
  H     31.385400   10.472700   73.460200
  H     29.916600    9.818190   72.703300
  S     30.959000   18.229800   68.449600
  C     32.299200   19.306100   68.491300
  C     33.206800   18.777100   69.371800
  C     32.852100   17.449400   69.944900
  C     31.595900   17.024600   69.555400
  H     34.131400   19.338000   69.558800
  C     33.756500   16.857200   70.963500
  H     33.226900   16.024400   71.490400
  H     33.848500   17.538000   71.820100
  C     35.087300   16.353300   70.461300
  H     35.710300   17.185800   70.116200
  H     34.977800   15.719700   69.616000
  C     35.872000   15.650400   71.546600
  H     35.345900   14.686200   71.920600
  H     35.925700   16.289600   72.413600
  H     36.928900   15.382600   71.377000
  H     28.113500   13.874800   71.359500
  H     32.372200   20.239600   68.051000

 Total Charge           Charge          ....    0
 Multiplicity           Mult            ....    1
 Number of Electrons    NEL             ....  134
 Basis Dimension        Dim             ....  322

ORBITAL ENERGIES
----------------

  NO   OCC          E(Eh)            E(eV)
   0   2.0000     -88.972197     -2421.0566
   1   2.0000     -88.957839     -2420.6659
   2   2.0000     -10.332163      -281.1524
   3   2.0000     -10.331667      -281.1390
   4   2.0000     -10.316674      -280.7310
   5   2.0000     -10.312847      -280.6268
   6   2.0000     -10.308457      -280.5074
   7   2.0000     -10.301639      -280.3218
   8   2.0000     -10.299950      -280.2759
   9   2.0000     -10.296939      -280.1939
  10   2.0000     -10.290819      -280.0274
  11   2.0000     -10.290527      -280.0195
  12   2.0000     -10.288828      -279.9733
  13   2.0000     -10.283614      -279.8314
  14   2.0000     -10.283288      -279.8225
  15   2.0000     -10.275978      -279.6236
  16   2.0000      -8.086600      -220.0476
  17   2.0000      -8.073477      -219.6905
  18   2.0000      -6.045204      -164.4984
  19   2.0000      -6.041049      -164.3853
  20   2.0000      -6.037352      -164.2847
  21   2.0000      -6.032075      -164.1411
  22   2.0000      -6.027629      -164.0201
  23   2.0000      -6.024286      -163.9292
  24   2.0000      -1.007852       -27.4250
  25   2.0000      -0.985545       -26.8181
  26   2.0000      -0.915937       -24.9239
  27   2.0000      -0.912860       -24.8402
  28   2.0000      -0.872965       -23.7546
  29   2.0000      -0.854194       -23.2438
  30   2.0000      -0.843738       -22.9593
  31   2.0000      -0.814855       -22.1733
  32   2.0000      -0.780201       -21.2303
  33   2.0000      -0.772070       -21.0091
  34   2.0000      -0.710949       -19.3459
  35   2.0000      -0.706241       -19.2178
  36   2.0000      -0.699676       -19.0392
  37   2.0000      -0.661669       -18.0049
  38   2.0000      -0.639417       -17.3994
  39   2.0000      -0.621586       -16.9142
  40   2.0000      -0.600714       -16.3463
  41   2.0000      -0.573869       -15.6158
  42   2.0000      -0.565667       -15.3926
  43   2.0000      -0.564201       -15.3527
  44   2.0000      -0.528535       -14.3822
  45   2.0000      -0.522781       -14.2256
  46   2.0000      -0.520008       -14.1501
  47   2.0000      -0.517823       -14.0907
  48   2.0000      -0.506139       -13.7727
  49   2.0000      -0.504544       -13.7293
  50   2.0000      -0.498594       -13.5674
  51   2.0000      -0.477613       -12.9965
  52   2.0000      -0.468691       -12.7537
  53   2.0000      -0.467017       -12.7082
  54   2.0000      -0.456150       -12.4125
  55   2.0000      -0.455258       -12.3882
  56   2.0000      -0.446036       -12.1373
  57   2.0000      -0.438312       -11.9271
  58   2.0000      -0.433316       -11.7911
  59   2.0000      -0.424983       -11.5644
  60   2.0000      -0.417899       -11.3716
  61   2.0000      -0.412701       -11.2302
  62   2.0000      -0.408375       -11.1125
  63   2.0000      -0.347240        -9.4489
  64   2.0000      -0.332014        -9.0346
  65   2.0000      -0.322084        -8.7643
  66   2.0000      -0.300405        -8.1744
  67   0.0000       0.032856         0.8941
  68   0.0000       0.070742         1.9250
  69   0.0000       0.110736         3.0133
  70   0.0000       0.120048         3.2667
  71   0.0000       0.130900         3.5620

MULLIKEN ATOMIC CHARGES
-----------------------
   0 S :    0.136726
   1 C :   -0.117476
   2 C :   -0.083710
   3 C :    0.045925
   4 C :   -0.145699
   5 H :   -0.010487
   6 C :    0.040994
   7 H :    0.033678
   8 H :    0.033144
   9 C :   -0.055313
  10 H :    0.031018
  11 H :    0.026272
  12 C :   -0.051608
  13 H :    0.025891
  14 H :    0.025304
  15 H :    0.035951
  16 S :    0.079855
  17 C :   -0.049760
  18 C :   -0.054042
  19 C :   -0.023465
  20 C :   -0.138957
  21 H :    0.028843
  22 C :    0.018970
  23 H :    0.017377
  24 H :    0.032804
  25 C :   -0.031263
  26 H :    0.025712
  27 H :    0.023851
  28 C :   -0.068497
  29 H :    0.034405
  30 H :    0.017040
  31 H :    0.038824
  32 H :    0.039926
  33 H :    0.037765
Sum of atomic charges:   -0.0000000

LOEWDIN ATOMIC CHARGES
----------------------
   0 S :    0.429169
   1 C :   -0.196412
   2 C :   -0.061750
   3 C :   -0.058575
   4 C :   -0.211809
   5 H :    0.020599
   6 C :   -0.031940
   7 H :    0.035744
   8 H :    0.030310
   9 C :   -0.033357
  10 H :    0.026014
  11 H :    0.021951
  12 C :   -0.071615
  13 H :    0.026492
  14 H :    0.029227
  15 H :    0.024197
  16 S :    0.405842
  17 C :   -0.181328
  18 C :   -0.074199
  19 C :   -0.056551
  20 C :   -0.193140
  21 H :    0.031518
  22 C :   -0.042088
  23 H :    0.032722
  24 H :    0.035459
  25 C :   -0.039621
  26 H :    0.025992
  27 H :    0.021079
  28 C :   -0.073198
  29 H :    0.030793
  30 H :    0.020186
  31 H :    0.027649
  32 H :    0.028866
  33 H :    0.021771

  Mayer bond orders larger than 0.100000
B(  0-S ,  1-C ) :   1.1327 B(  0-S ,  4-C ) :   1.1724 B(  1-C ,  2-C ) :   1.6054
B(  1-C , 32-H ) :   0.9683 B(  2-C ,  3-C ) :   1.2631 B(  2-C ,  6-C ) :   1.0192
B(  3-C ,  4-C ) :   1.5515 B(  3-C ,  5-H ) :   1.0002 B(  4-C , 20-C ) :   1.0174
B(  6-C ,  7-H ) :   0.9474 B(  6-C ,  8-H ) :   0.9377 B(  6-C ,  9-C ) :   1.0580
B(  9-C , 10-H ) :   0.9651 B(  9-C , 11-H ) :   0.9564 B(  9-C , 12-C ) :   1.0716
B( 12-C , 13-H ) :   0.9744 B( 12-C , 14-H ) :   0.9769 B( 12-C , 15-H ) :   0.9764
B( 16-S , 17-C ) :   1.1516 B( 16-S , 20-C ) :   1.1330 B( 17-C , 18-C ) :   1.6192
B( 17-C , 33-H ) :   0.9793 B( 18-C , 19-C ) :   1.2107 B( 18-C , 21-H ) :   0.9857
B( 19-C , 20-C ) :   1.6079 B( 19-C , 22-C ) :   1.0599 B( 22-C , 23-H ) :   0.9357
B( 22-C , 24-H ) :   0.9321 B( 22-C , 25-C ) :   1.0556 B( 25-C , 26-H ) :   0.9489
B( 25-C , 27-H ) :   0.9548 B( 25-C , 28-C ) :   1.0869 B( 28-C , 29-H ) :   0.9726
B( 28-C , 30-H ) :   0.9703 B( 28-C , 31-H ) :   0.9744

Dispersion correction           -0.013593180
FINAL SINGLE POINT ENERGY     -1339.877529260043

DIPOLE MOMENT
-------------
                                X             Y             Z
Electronic contribution:    -18.59309      22.47199     -14.81614
Nuclear contribution   :     19.14050     -22.84425      15.30462
                        -----------------------------------------
Total Dipole Moment    :      0.54741      -0.37226       0.48847
                        -----------------------------------------
Magnitude (a.u.)       :      0.82270
Magnitude (Debye)      :      2.09114

Rotational constants in cm-1:     0.017736     0.008611     0.006118
Rotational constants in MHz :   531.709758   258.159517   183.403253

                             ****ORCA TERMINATED NORMALLY****
TOTAL RUN TIME: 0 days 0 hours 0 minutes 29 seconds 23 msec
