                         Program Version 4.2.1 -  RELEASE  -
|  1> ! wB97X-D3 SP def2-SVP
|  2> %pal
|  3> nprocs 16
|  4> end
|  5>
|  6> * xyz 0 1
|  7> S 	 -6.36747 	 75.9346 	 53.3905
|  8> C 	 -4.82468 	 75.2589 	 52.8863
|  9> C 	 -4.97213 	 73.9563 	 52.3431
| 10> C 	 -6.28717 	 73.4154 	 52.6716
| 11> C 	 -7.11668 	 74.3561 	 53.273
| 12> H 	 -6.84412 	 72.5151 	 52.3361
| 13> C 	 -4.03868 	 73.3261 	 51.3781
| 14> H 	 -4.19763 	 72.2383 	 51.3973
| 15> H 	 -3.01175 	 73.4361 	 51.7198
| 16> C 	 -4.21794 	 73.7805 	 49.9876
| 17> H 	 -5.20358 	 73.5035 	 49.6674
| 18> H 	 -4.18949 	 74.8796 	 49.8364
| 19> C 	 -3.23689 	 73.1213 	 49.0146
| 20> H 	 -3.50741 	 73.5206 	 48.0051
| 21> H 	 -2.1908 	 73.2443 	 49.2308
| 22> H 	 -3.45339 	 71.9873 	 49.0208
| 23> S 	 -8.50149 	 74.762 	 55.5805
| 24> C 	 -9.98553 	 73.8682 	 55.8565
| 25> C 	 -10.381 	 73.1514 	 54.7424
| 26> C 	 -9.46969 	 73.2873 	 53.6555
| 27> C 	 -8.40625 	 74.1773 	 53.9183
| 28> H 	 -11.0691 	 72.3219 	 54.7528
| 29> C 	 -9.66886 	 72.562 	 52.3419
| 30> H 	 -9.03258 	 72.885 	 51.4931
| 31> H 	 -10.7276 	 72.5906 	 52.0511
| 32> C 	 -9.4637 	 71.0647 	 52.4389
| 33> H 	 -10.1597 	 70.5494 	 53.057
| 34> H 	 -8.59092 	 70.7956 	 53.099
| 35> C 	 -9.36819 	 70.3472 	 51.1034
| 36> H 	 -8.5504 	 70.7719 	 50.5003
| 37> H 	 -10.3209 	 70.387 	 50.5488
| 38> H 	 -9.07518 	 69.3093 	 51.2786
| 39> H 	 -4.08621 	 75.9458 	 52.6384
| 40> H 	 -10.3905 	 73.6915 	 56.8812
| 41> *
| 42>
| 43>                          ****END OF INPUT****

CARTESIAN COORDINATES (ANGSTROEM)
---------------------------------
  S     -6.367470   75.934600   53.390500
  C     -4.824680   75.258900   52.886300
  C     -4.972130   73.956300   52.343100
  C     -6.287170   73.415400   52.671600
  C     -7.116680   74.356100   53.273000
  H     -6.844120   72.515100   52.336100
  C     -4.038680   73.326100   51.378100
  H     -4.197630   72.238300   51.397300
  H     -3.011750   73.436100   51.719800
  C     -4.217940   73.780500   49.987600
  H     -5.203580   73.503500   49.667400
  H     -4.189490   74.879600   49.836400
  C     -3.236890   73.121300   49.014600
  H     -3.507410   73.520600   48.005100
  H     -2.190800   73.244300   49.230800
  H     -3.453390   71.987300   49.020800
  S     -8.501490   74.762000   55.580500
  C     -9.985530   73.868200   55.856500
  C    -10.381000   73.151400   54.742400
  C     -9.469690   73.287300   53.655500
  C     -8.406250   74.177300   53.918300
  H    -11.069100   72.321900   54.752800
  C     -9.668860   72.562000   52.341900
  H     -9.032580   72.885000   51.493100
  H    -10.727600   72.590600   52.051100
  C     -9.463700   71.064700   52.438900
  H    -10.159700   70.549400   53.057000
  H     -8.590920   70.795600   53.099000
  C     -9.368190   70.347200   51.103400
  H     -8.550400   70.771900   50.500300
  H    -10.320900   70.387000   50.548800
  H     -9.075180   69.309300   51.278600
  H     -4.086210   75.945800   52.638400
  H    -10.390500   73.691500   56.881200

 Total Charge           Charge          ....    0
 Multiplicity           Mult            ....    1
 Number of Electrons    NEL             ....  134
 Basis Dimension        Dim             ....  322

ORBITAL ENERGIES
----------------

  NO   OCC          E(Eh)            E(eV)
   0   2.0000     -88.967651     -2420.9329
   1   2.0000     -88.964187     -2420.8386
   2   2.0000     -10.330410      -281.1047
   3   2.0000     -10.328183      -281.0441
   4   2.0000     -10.324208      -280.9360
   5   2.0000     -10.311276      -280.5841
   6   2.0000     -10.310541      -280.5641
   7   2.0000     -10.307600      -280.4841
   8   2.0000     -10.299898      -280.2745
   9   2.0000     -10.296545      -280.1832
  10   2.0000     -10.296173      -280.1731
  11   2.0000     -10.288275      -279.9582
  12   2.0000     -10.286702      -279.9154
  13   2.0000     -10.285677      -279.8875
  14   2.0000     -10.284626      -279.8589
  15   2.0000     -10.283546      -279.8295
  16   2.0000      -8.082030      -219.9232
  17   2.0000      -8.079042      -219.8419
  18   2.0000      -6.040536      -164.3714
  19   2.0000      -6.037429      -164.2868
  20   2.0000      -6.036537      -164.2625
  21   2.0000      -6.033710      -164.1856
  22   2.0000      -6.032813      -164.1612
  23   2.0000      -6.029754      -164.0780
  24   2.0000      -1.004849       -27.3433
  25   2.0000      -0.980056       -26.6687
  26   2.0000      -0.922924       -25.1140
  27   2.0000      -0.916551       -24.9406
  28   2.0000      -0.869186       -23.6517
  29   2.0000      -0.854498       -23.2521
  30   2.0000      -0.845955       -23.0196
  31   2.0000      -0.814116       -22.1532
  32   2.0000      -0.783502       -21.3202
  33   2.0000      -0.769464       -20.9382
  34   2.0000      -0.704128       -19.1603
  35   2.0000      -0.700151       -19.0521
  36   2.0000      -0.694206       -18.8903
  37   2.0000      -0.665167       -18.1001
  38   2.0000      -0.647363       -17.6157
  39   2.0000      -0.615679       -16.7535
  40   2.0000      -0.603196       -16.4138
  41   2.0000      -0.574286       -15.6271
  42   2.0000      -0.568225       -15.4622
  43   2.0000      -0.556046       -15.1308
  44   2.0000      -0.531940       -14.4748
  45   2.0000      -0.526776       -14.3343
  46   2.0000      -0.520706       -14.1691
  47   2.0000      -0.508404       -13.8344
  48   2.0000      -0.506707       -13.7882
  49   2.0000      -0.498043       -13.5524
  50   2.0000      -0.490640       -13.3510
  51   2.0000      -0.482557       -13.1311
  52   2.0000      -0.471491       -12.8299
  53   2.0000      -0.466360       -12.6903
  54   2.0000      -0.459343       -12.4994
  55   2.0000      -0.450204       -12.2507
  56   2.0000      -0.445362       -12.1189
  57   2.0000      -0.439926       -11.9710
  58   2.0000      -0.437877       -11.9152
  59   2.0000      -0.427453       -11.6316
  60   2.0000      -0.425498       -11.5784
  61   2.0000      -0.414144       -11.2694
  62   2.0000      -0.407114       -11.0781
  63   2.0000      -0.351534        -9.5657
  64   2.0000      -0.331430        -9.0187
  65   2.0000      -0.326038        -8.8719
  66   2.0000      -0.285742        -7.7754
  67   0.0000       0.022847         0.6217
  68   0.0000       0.063015         1.7147
  69   0.0000       0.095884         2.6091
  70   0.0000       0.112861         3.0711
  71   0.0000       0.120378         3.2757

MULLIKEN ATOMIC CHARGES
-----------------------
   0 S :    0.094141
   1 C :   -0.089139
   2 C :   -0.095612
   3 C :    0.035411
   4 C :   -0.183250
   5 H :    0.016950
   6 C :    0.069859
   7 H :    0.018299
   8 H :    0.023831
   9 C :   -0.059347
  10 H :    0.013121
  11 H :    0.030139
  12 C :   -0.064571
  13 H :    0.042844
  14 H :    0.037281
  15 H :    0.034205
  16 S :    0.107181
  17 C :   -0.109772
  18 C :   -0.003782
  19 C :   -0.062463
  20 C :   -0.099861
  21 H :    0.022390
  22 C :    0.068224
  23 H :    0.032323
  24 H :    0.031797
  25 C :   -0.129477
  26 H :    0.010469
  27 H :    0.025575
  28 C :   -0.037179
  29 H :    0.028716
  30 H :    0.041325
  31 H :    0.036665
  32 H :    0.034093
  33 H :    0.079615
Sum of atomic charges:   -0.0000000

LOEWDIN ATOMIC CHARGES
----------------------
   0 S :    0.399264
   1 C :   -0.189830
   2 C :   -0.046014
   3 C :   -0.074551
   4 C :   -0.187987
   5 H :    0.038874
   6 C :   -0.040506
   7 H :    0.033022
   8 H :    0.031269
   9 C :   -0.042486
  10 H :    0.022406
  11 H :    0.025870
  12 C :   -0.066698
  13 H :    0.032274
  14 H :    0.019533
  15 H :    0.031291
  16 S :    0.409792
  17 C :   -0.186235
  18 C :   -0.072453
  19 C :   -0.050059
  20 C :   -0.202645
  21 H :    0.031430
  22 C :   -0.036140
  23 H :    0.032625
  24 H :    0.037774
  25 C :   -0.058177
  26 H :    0.015652
  27 H :    0.024948
  28 C :   -0.064132
  29 H :    0.023890
  30 H :    0.028290
  31 H :    0.030520
  32 H :    0.009238
  33 H :    0.039950

  Mayer bond orders larger than 0.100000
B(  0-S ,  1-C ) :   1.1379 B(  0-S ,  4-C ) :   1.1615 B(  1-C ,  2-C ) :   1.5922
B(  1-C , 32-H ) :   0.9753 B(  2-C ,  3-C ) :   1.2277 B(  2-C ,  6-C ) :   1.0429
B(  3-C ,  4-C ) :   1.5839 B(  3-C ,  5-H ) :   0.9757 B(  4-C , 20-C ) :   1.0250
B(  6-C ,  7-H ) :   0.9316 B(  6-C ,  8-H ) :   0.9345 B(  6-C ,  9-C ) :   1.0712
B(  9-C , 10-H ) :   0.9473 B(  9-C , 11-H ) :   0.9544 B(  9-C , 12-C ) :   1.0824
B( 12-C , 13-H ) :   0.9740 B( 12-C , 14-H ) :   0.9770 B( 12-C , 15-H ) :   0.9727
B( 16-S , 17-C ) :   1.1696 B( 16-S , 20-C ) :   1.1342 B( 17-C , 18-C ) :   1.5871
B( 17-C , 33-H ) :   0.9594 B( 18-C , 19-C ) :   1.2708 B( 18-C , 21-H ) :   0.9835
B( 19-C , 20-C ) :   1.5801 B( 19-C , 22-C ) :   1.0522 B( 22-C , 23-H ) :   0.9488
B( 22-C , 24-H ) :   0.9293 B( 22-C , 25-C ) :   1.0374 B( 25-C , 26-H ) :   0.9463
B( 25-C , 27-H ) :   0.9506 B( 25-C , 28-C ) :   1.0944 B( 28-C , 29-H ) :   0.9729
B( 28-C , 30-H ) :   0.9721 B( 28-C , 31-H ) :   0.9705

Dispersion correction           -0.014177367
FINAL SINGLE POINT ENERGY     -1339.869717645529

DIPOLE MOMENT
-------------
                                X             Y             Z
Electronic contribution:     -5.93114      20.74293      23.94438
Nuclear contribution   :      5.88956     -21.42553     -24.38458
                        -----------------------------------------
Total Dipole Moment    :     -0.04158      -0.68260      -0.44020
                        -----------------------------------------
Magnitude (a.u.)       :      0.81329
Magnitude (Debye)      :      2.06722

Rotational constants in cm-1:     0.018076     0.009109     0.006362
Rotational constants in MHz :   541.909722   273.079050   190.734124

                             ****ORCA TERMINATED NORMALLY****
TOTAL RUN TIME: 0 days 0 hours 0 minutes 34 seconds 204 msec
