                         Program Version 4.2.1 -  RELEASE  -
|  1> ! wB97X-D3 SP def2-SVP
|  2> %pal
|  3> nprocs 16
|  4> end
|  5>
|  6> * xyz 0 1
|  7> S 	 -17.1724 	 56.7577 	 65.2804
|  8> C 	 -15.9627 	 55.7571 	 64.4192
|  9> C 	 -15.3566 	 56.3622 	 63.3541
| 10> C 	 -15.9167 	 57.6669 	 63.2202
| 11> C 	 -16.7221 	 58.094 	 64.2498
| 12> H 	 -15.8245 	 58.4186 	 62.4969
| 13> C 	 -14.3904 	 55.8246 	 62.3992
| 14> H 	 -13.8301 	 55.1062 	 62.9532
| 15> H 	 -13.7565 	 56.6265 	 62.1719
| 16> C 	 -15.0932 	 55.3015 	 61.1728
| 17> H 	 -15.4367 	 54.3723 	 61.4491
| 18> H 	 -15.9096 	 55.8959 	 60.8393
| 19> C 	 -14.186 	 55.2278 	 59.9113
| 20> H 	 -13.3848 	 54.4231 	 59.9969
| 21> H 	 -14.846 	 55.0806 	 59.0479
| 22> H 	 -13.5225 	 56.1678 	 59.7087
| 23> S 	 -18.0976 	 60.1115 	 62.9158
| 24> C 	 -19.044 	 61.1996 	 63.7975
| 25> C 	 -18.7725 	 61.0364 	 65.1342
| 26> C 	 -17.8003 	 60.0713 	 65.5107
| 27> C 	 -17.3547 	 59.4081 	 64.4154
| 28> H 	 -19.3087 	 61.71 	 65.7817
| 29> C 	 -17.5266 	 59.6891 	 66.9009
| 30> H 	 -16.4714 	 59.8073 	 67.0034
| 31> H 	 -17.7155 	 58.67 	 66.9275
| 32> C 	 -18.2496 	 60.3245 	 68.0724
| 33> H 	 -19.3029 	 60.0672 	 68.1165
| 34> H 	 -18.2694 	 61.4029 	 67.8942
| 35> C 	 -17.684 	 60.0566 	 69.4849
| 36> H 	 -16.5951 	 60.1317 	 69.4868
| 37> H 	 -17.7933 	 59.0818 	 69.9604
| 38> H 	 -17.9586 	 60.8007 	 70.2464
| 39> H 	 -15.5622 	 54.7919 	 64.7693
| 40> H 	 -19.59 	 62.0278 	 63.3486
| 41> *
| 42>
| 43>                          ****END OF INPUT****

CARTESIAN COORDINATES (ANGSTROEM)
---------------------------------
  S    -17.172400   56.757700   65.280400
  C    -15.962700   55.757100   64.419200
  C    -15.356600   56.362200   63.354100
  C    -15.916700   57.666900   63.220200
  C    -16.722100   58.094000   64.249800
  H    -15.824500   58.418600   62.496900
  C    -14.390400   55.824600   62.399200
  H    -13.830100   55.106200   62.953200
  H    -13.756500   56.626500   62.171900
  C    -15.093200   55.301500   61.172800
  H    -15.436700   54.372300   61.449100
  H    -15.909600   55.895900   60.839300
  C    -14.186000   55.227800   59.911300
  H    -13.384800   54.423100   59.996900
  H    -14.846000   55.080600   59.047900
  H    -13.522500   56.167800   59.708700
  S    -18.097600   60.111500   62.915800
  C    -19.044000   61.199600   63.797500
  C    -18.772500   61.036400   65.134200
  C    -17.800300   60.071300   65.510700
  C    -17.354700   59.408100   64.415400
  H    -19.308700   61.710000   65.781700
  C    -17.526600   59.689100   66.900900
  H    -16.471400   59.807300   67.003400
  H    -17.715500   58.670000   66.927500
  C    -18.249600   60.324500   68.072400
  H    -19.302900   60.067200   68.116500
  H    -18.269400   61.402900   67.894200
  C    -17.684000   60.056600   69.484900
  H    -16.595100   60.131700   69.486800
  H    -17.793300   59.081800   69.960400
  H    -17.958600   60.800700   70.246400
  H    -15.562200   54.791900   64.769300
  H    -19.590000   62.027800   63.348600

 Total Charge           Charge          ....    0
 Multiplicity           Mult            ....    1
 Number of Electrons    NEL             ....  134
 Basis Dimension        Dim             ....  322

ORBITAL ENERGIES
----------------

  NO   OCC          E(Eh)            E(eV)
   0   2.0000     -88.965685     -2420.8794
   1   2.0000     -88.959751     -2420.7179
   2   2.0000     -10.325865      -280.9811
   3   2.0000     -10.324734      -280.9503
   4   2.0000     -10.314479      -280.6712
   5   2.0000     -10.312946      -280.6295
   6   2.0000     -10.301120      -280.3077
   7   2.0000     -10.296950      -280.1943
   8   2.0000     -10.291631      -280.0495
   9   2.0000     -10.289738      -279.9980
  10   2.0000     -10.288537      -279.9653
  11   2.0000     -10.284609      -279.8584
  12   2.0000     -10.281961      -279.7864
  13   2.0000     -10.280599      -279.7493
  14   2.0000     -10.280318      -279.7417
  15   2.0000     -10.279865      -279.7293
  16   2.0000      -8.079566      -219.8562
  17   2.0000      -8.075055      -219.7334
  18   2.0000      -6.038249      -164.3091
  19   2.0000      -6.034397      -164.2043
  20   2.0000      -6.033563      -164.1816
  21   2.0000      -6.030007      -164.0848
  22   2.0000      -6.029386      -164.0679
  23   2.0000      -6.025877      -163.9724
  24   2.0000      -1.009746       -27.4766
  25   2.0000      -0.987708       -26.8769
  26   2.0000      -0.924491       -25.1567
  27   2.0000      -0.917745       -24.9731
  28   2.0000      -0.870640       -23.6913
  29   2.0000      -0.853376       -23.2215
  30   2.0000      -0.846663       -23.0389
  31   2.0000      -0.810836       -22.0640
  32   2.0000      -0.790207       -21.5026
  33   2.0000      -0.777344       -21.1526
  34   2.0000      -0.715781       -19.4774
  35   2.0000      -0.708167       -19.2702
  36   2.0000      -0.698695       -19.0125
  37   2.0000      -0.661528       -18.0011
  38   2.0000      -0.633323       -17.2336
  39   2.0000      -0.619744       -16.8641
  40   2.0000      -0.603147       -16.4125
  41   2.0000      -0.578705       -15.7474
  42   2.0000      -0.569979       -15.5099
  43   2.0000      -0.564037       -15.3482
  44   2.0000      -0.535304       -14.5664
  45   2.0000      -0.532665       -14.4946
  46   2.0000      -0.517901       -14.0928
  47   2.0000      -0.511960       -13.9311
  48   2.0000      -0.506299       -13.7771
  49   2.0000      -0.494219       -13.4484
  50   2.0000      -0.485916       -13.2224
  51   2.0000      -0.482728       -13.1357
  52   2.0000      -0.478461       -13.0196
  53   2.0000      -0.459508       -12.5038
  54   2.0000      -0.458233       -12.4692
  55   2.0000      -0.451881       -12.2963
  56   2.0000      -0.447448       -12.1757
  57   2.0000      -0.443677       -12.0731
  58   2.0000      -0.434843       -11.8327
  59   2.0000      -0.425095       -11.5674
  60   2.0000      -0.420963       -11.4550
  61   2.0000      -0.416032       -11.3208
  62   2.0000      -0.413900       -11.2628
  63   2.0000      -0.346453        -9.4275
  64   2.0000      -0.332606        -9.0507
  65   2.0000      -0.326789        -8.8924
  66   2.0000      -0.288311        -7.8454
  67   0.0000       0.024796         0.6747
  68   0.0000       0.079229         2.1559
  69   0.0000       0.105785         2.8786
  70   0.0000       0.112220         3.0537
  71   0.0000       0.138259         3.7622

MULLIKEN ATOMIC CHARGES
-----------------------
   0 S :    0.092329
   1 C :   -0.122410
   2 C :   -0.104656
   3 C :    0.017294
   4 C :   -0.145701
   5 H :   -0.019280
   6 C :    0.156672
   7 H :    0.012663
   8 H :    0.005548
   9 C :   -0.015436
  10 H :    0.009073
  11 H :    0.031469
  12 C :   -0.103761
  13 H :    0.037979
  14 H :    0.044885
  15 H :    0.042933
  16 S :    0.079854
  17 C :   -0.075591
  18 C :   -0.075380
  19 C :   -0.048546
  20 C :   -0.137991
  21 H :    0.009799
  22 C :    0.135444
  23 H :    0.029272
  24 H :    0.013740
  25 C :   -0.070012
  26 H :    0.030963
  27 H :    0.028958
  28 C :   -0.053920
  29 H :    0.014470
  30 H :    0.035438
  31 H :    0.035345
  32 H :    0.041892
  33 H :    0.066661
Sum of atomic charges:   -0.0000000

LOEWDIN ATOMIC CHARGES
----------------------
   0 S :    0.390916
   1 C :   -0.191500
   2 C :   -0.054547
   3 C :   -0.061528
   4 C :   -0.184615
   5 H :    0.015719
   6 C :   -0.021213
   7 H :    0.029936
   8 H :    0.025580
   9 C :   -0.024525
  10 H :    0.018117
  11 H :    0.026721
  12 C :   -0.077274
  13 H :    0.027222
  14 H :    0.026875
  15 H :    0.032886
  16 S :    0.398809
  17 C :   -0.197853
  18 C :   -0.080123
  19 C :   -0.052578
  20 C :   -0.179907
  21 H :    0.025237
  22 C :   -0.032372
  23 H :    0.038840
  24 H :    0.015592
  25 C :   -0.038936
  26 H :    0.026302
  27 H :    0.024985
  28 C :   -0.072877
  29 H :    0.023792
  30 H :    0.026472
  31 H :    0.031741
  32 H :    0.028009
  33 H :    0.036095

  Mayer bond orders larger than 0.100000
B(  0-S ,  1-C ) :   1.1146 B(  0-S ,  4-C ) :   1.1221 B(  1-C ,  2-C ) :   1.6583
B(  1-C , 32-H ) :   0.9544 B(  2-C ,  3-C ) :   1.1824 B(  2-C ,  6-C ) :   1.0314
B(  3-C ,  4-C ) :   1.6188 B(  3-C ,  5-H ) :   1.0016 B(  4-C , 20-C ) :   1.0591
B(  6-C ,  7-H ) :   0.9252 B(  6-C ,  8-H ) :   0.9273 B(  6-C ,  9-C ) :   1.0560
B(  9-C , 10-H ) :   0.9487 B(  9-C , 11-H ) :   0.9642 B(  9-C , 12-C ) :   1.0700
B( 12-C , 13-H ) :   0.9745 B( 12-C , 14-H ) :   0.9771 B( 12-C , 15-H ) :   0.9767
B( 16-S , 17-C ) :   1.1702 B( 16-S , 20-C ) :   1.1230 B( 17-C , 18-C ) :   1.5971
B( 17-C , 33-H ) :   0.9617 B( 18-C , 19-C ) :   1.2376 B( 18-C , 21-H ) :   0.9898
B( 19-C , 20-C ) :   1.5895 B( 19-C , 22-C ) :   1.0296 B( 22-C , 23-H ) :   0.9108
B( 22-C , 24-H ) :   0.9119 B( 22-C , 25-C ) :   1.0929 B( 25-C , 26-H ) :   0.9487
B( 25-C , 27-H ) :   0.9495 B( 25-C , 28-C ) :   1.0779 B( 28-C , 29-H ) :   0.9725
B( 28-C , 30-H ) :   0.9767 B( 28-C , 31-H ) :   0.9745

Dispersion correction           -0.013409328
FINAL SINGLE POINT ENERGY     -1339.852745330562

DIPOLE MOMENT
-------------
                                X             Y             Z
Electronic contribution:     -8.93505       4.67250      -3.47658
Nuclear contribution   :      9.09930      -4.63576       3.57132
                        -----------------------------------------
Total Dipole Moment    :      0.16426       0.03674       0.09474
                        -----------------------------------------
Magnitude (a.u.)       :      0.19315
Magnitude (Debye)      :      0.49094

Rotational constants in cm-1:     0.023657     0.007273     0.005833
Rotational constants in MHz :   709.213450   218.027926   174.867983

                             ****ORCA TERMINATED NORMALLY****
TOTAL RUN TIME: 0 days 0 hours 0 minutes 32 seconds 165 msec
