                         Program Version 4.2.1 -  RELEASE  -
|  1> ! wB97X-D3 SP def2-SVP
|  2> %pal
|  3> nprocs 16
|  4> end
|  5>
|  6> * xyz 0 1
|  7> S 	 -69.344 	 40.6046 	 125.878
|  8> C 	 -69.8664 	 42.2377 	 125.859
|  9> C 	 -68.9046 	 43.0834 	 125.427
| 10> C 	 -67.7233 	 42.3996 	 124.954
| 11> C 	 -67.8476 	 40.9832 	 125.107
| 12> H 	 -66.8537 	 42.8866 	 124.483
| 13> C 	 -69.0565 	 44.5347 	 125.28
| 14> H 	 -68.1692 	 45.0787 	 125.481
| 15> H 	 -69.7505 	 44.8264 	 126.118
| 16> C 	 -69.6469 	 44.9358 	 123.943
| 17> H 	 -70.6904 	 44.5158 	 123.872
| 18> H 	 -69.5017 	 45.9952 	 124.022
| 19> C 	 -68.8335 	 44.6109 	 122.719
| 20> H 	 -69.0759 	 45.368 	 121.962
| 21> H 	 -67.7602 	 44.7245 	 123.017
| 22> H 	 -69.0012 	 43.5902 	 122.372
| 23> S 	 -67.7709 	 38.4224 	 124.398
| 24> C 	 -66.32 	 37.7748 	 123.657
| 25> C 	 -65.2518 	 38.6508 	 123.622
| 26> C 	 -65.5969 	 39.8919 	 124.235
| 27> C 	 -66.993 	 39.9269 	 124.627
| 28> H 	 -64.3156 	 38.3186 	 123.119
| 29> C 	 -64.6336 	 41.0137 	 124.584
| 30> H 	 -63.7705 	 40.6586 	 125.261
| 31> H 	 -64.9491 	 41.8254 	 125.216
| 32> C 	 -64.0219 	 41.6451 	 123.302
| 33> H 	 -63.6054 	 40.829 	 122.693
| 34> H 	 -63.1822 	 42.1988 	 123.69
| 35> C 	 -64.9154 	 42.6706 	 122.597
| 36> H 	 -64.5706 	 42.9849 	 121.621
| 37> H 	 -65.071 	 43.6117 	 123.149
| 38> H 	 -65.8979 	 42.2156 	 122.447
| 39> H 	 -70.8755 	 42.5485 	 126.082
| 40> H 	 -66.2617 	 36.736 	 123.325
| 41> *
| 42>
| 43>                          ****END OF INPUT****

CARTESIAN COORDINATES (ANGSTROEM)
---------------------------------
  S    -69.344000   40.604600  125.878000
  C    -69.866400   42.237700  125.859000
  C    -68.904600   43.083400  125.427000
  C    -67.723300   42.399600  124.954000
  C    -67.847600   40.983200  125.107000
  H    -66.853700   42.886600  124.483000
  C    -69.056500   44.534700  125.280000
  H    -68.169200   45.078700  125.481000
  H    -69.750500   44.826400  126.118000
  C    -69.646900   44.935800  123.943000
  H    -70.690400   44.515800  123.872000
  H    -69.501700   45.995200  124.022000
  C    -68.833500   44.610900  122.719000
  H    -69.075900   45.368000  121.962000
  H    -67.760200   44.724500  123.017000
  H    -69.001200   43.590200  122.372000
  S    -67.770900   38.422400  124.398000
  C    -66.320000   37.774800  123.657000
  C    -65.251800   38.650800  123.622000
  C    -65.596900   39.891900  124.235000
  C    -66.993000   39.926900  124.627000
  H    -64.315600   38.318600  123.119000
  C    -64.633600   41.013700  124.584000
  H    -63.770500   40.658600  125.261000
  H    -64.949100   41.825400  125.216000
  C    -64.021900   41.645100  123.302000
  H    -63.605400   40.829000  122.693000
  H    -63.182200   42.198800  123.690000
  C    -64.915400   42.670600  122.597000
  H    -64.570600   42.984900  121.621000
  H    -65.071000   43.611700  123.149000
  H    -65.897900   42.215600  122.447000
  H    -70.875500   42.548500  126.082000
  H    -66.261700   36.736000  123.325000

 Total Charge           Charge          ....    0
 Multiplicity           Mult            ....    1
 Number of Electrons    NEL             ....  134
 Basis Dimension        Dim             ....  322

ORBITAL ENERGIES
----------------

  NO   OCC          E(Eh)            E(eV)
   0   2.0000     -88.968188     -2420.9475
   1   2.0000     -88.964274     -2420.8410
   2   2.0000     -10.330376      -281.1038
   3   2.0000     -10.328074      -281.0412
   4   2.0000     -10.318203      -280.7726
   5   2.0000     -10.312331      -280.6128
   6   2.0000     -10.303981      -280.3856
   7   2.0000     -10.302686      -280.3504
   8   2.0000     -10.296591      -280.1845
   9   2.0000     -10.295782      -280.1625
  10   2.0000     -10.291503      -280.0460
  11   2.0000     -10.286665      -279.9144
  12   2.0000     -10.283862      -279.8381
  13   2.0000     -10.283067      -279.8165
  14   2.0000     -10.279372      -279.7159
  15   2.0000     -10.277668      -279.6696
  16   2.0000      -8.083709      -219.9689
  17   2.0000      -8.080172      -219.8726
  18   2.0000      -6.042020      -164.4117
  19   2.0000      -6.038687      -164.3210
  20   2.0000      -6.038139      -164.3061
  21   2.0000      -6.034589      -164.2095
  22   2.0000      -6.034506      -164.2073
  23   2.0000      -6.030896      -164.1090
  24   2.0000      -1.011430       -27.5224
  25   2.0000      -0.986323       -26.8392
  26   2.0000      -0.922993       -25.1159
  27   2.0000      -0.907792       -24.7023
  28   2.0000      -0.874591       -23.7988
  29   2.0000      -0.847595       -23.0642
  30   2.0000      -0.845138       -22.9974
  31   2.0000      -0.813837       -22.1456
  32   2.0000      -0.784754       -21.3542
  33   2.0000      -0.772069       -21.0091
  34   2.0000      -0.707726       -19.2582
  35   2.0000      -0.696004       -18.9392
  36   2.0000      -0.690110       -18.7788
  37   2.0000      -0.656172       -17.8553
  38   2.0000      -0.633768       -17.2457
  39   2.0000      -0.618491       -16.8300
  40   2.0000      -0.602771       -16.4022
  41   2.0000      -0.586557       -15.9610
  42   2.0000      -0.549694       -14.9579
  43   2.0000      -0.545763       -14.8510
  44   2.0000      -0.544994       -14.8300
  45   2.0000      -0.535223       -14.5642
  46   2.0000      -0.513518       -13.9735
  47   2.0000      -0.512434       -13.9440
  48   2.0000      -0.503774       -13.7084
  49   2.0000      -0.499650       -13.5962
  50   2.0000      -0.485624       -13.2145
  51   2.0000      -0.480461       -13.0740
  52   2.0000      -0.476678       -12.9711
  53   2.0000      -0.465554       -12.6684
  54   2.0000      -0.463432       -12.6106
  55   2.0000      -0.455870       -12.4049
  56   2.0000      -0.440875       -11.9968
  57   2.0000      -0.439205       -11.9514
  58   2.0000      -0.433343       -11.7919
  59   2.0000      -0.428719       -11.6660
  60   2.0000      -0.421531       -11.4704
  61   2.0000      -0.405521       -11.0348
  62   2.0000      -0.402276       -10.9465
  63   2.0000      -0.358806        -9.7636
  64   2.0000      -0.335141        -9.1197
  65   2.0000      -0.324926        -8.8417
  66   2.0000      -0.274742        -7.4761
  67   0.0000       0.016604         0.4518
  68   0.0000       0.086659         2.3581
  69   0.0000       0.100749         2.7415
  70   0.0000       0.116378         3.1668
  71   0.0000       0.129010         3.5105

MULLIKEN ATOMIC CHARGES
-----------------------
   0 S :    0.102069
   1 C :   -0.123942
   2 C :   -0.071517
   3 C :    0.009679
   4 C :   -0.124006
   5 H :   -0.017331
   6 C :    0.046558
   7 H :    0.010679
   8 H :    0.026649
   9 C :   -0.056140
  10 H :    0.040494
  11 H :    0.022271
  12 C :   -0.057817
  13 H :    0.042419
  14 H :    0.020573
  15 H :    0.051447
  16 S :    0.106934
  17 C :   -0.101565
  18 C :   -0.042757
  19 C :   -0.008966
  20 C :   -0.128722
  21 H :    0.041531
  22 C :   -0.003923
  23 H :    0.046966
  24 H :    0.021026
  25 C :   -0.069868
  26 H :    0.034151
  27 H :    0.017114
  28 C :   -0.045199
  29 H :    0.031228
  30 H :    0.040469
  31 H :    0.039769
  32 H :    0.039758
  33 H :    0.059970
Sum of atomic charges:   -0.0000000

LOEWDIN ATOMIC CHARGES
----------------------
   0 S :    0.420733
   1 C :   -0.212471
   2 C :   -0.066326
   3 C :   -0.070003
   4 C :   -0.196471
   5 H :    0.028047
   6 C :   -0.039125
   7 H :    0.022849
   8 H :    0.037918
   9 C :   -0.041076
  10 H :    0.030879
  11 H :    0.025335
  12 C :   -0.066445
  13 H :    0.030462
  14 H :    0.025786
  15 H :    0.026957
  16 S :    0.424775
  17 C :   -0.187413
  18 C :   -0.072114
  19 C :   -0.055570
  20 C :   -0.209957
  21 H :    0.044015
  22 C :   -0.041032
  23 H :    0.043436
  24 H :    0.026546
  25 C :   -0.039625
  26 H :    0.023998
  27 H :    0.020237
  28 C :   -0.069332
  29 H :    0.026998
  30 H :    0.024969
  31 H :    0.026948
  32 H :    0.026987
  33 H :    0.029086

  Mayer bond orders larger than 0.100000
B(  0-S ,  1-C ) :   1.1278 B(  0-S ,  4-C ) :   1.1683 B(  1-C ,  2-C ) :   1.6090
B(  1-C , 32-H ) :   0.9666 B(  2-C ,  3-C ) :   1.2522 B(  2-C ,  6-C ) :   1.0378
B(  3-C ,  4-C ) :   1.5186 B(  3-C ,  5-H ) :   0.9803 B(  4-C , 20-C ) :   1.1048
B(  6-C ,  7-H ) :   0.9319 B(  6-C ,  8-H ) :   0.9342 B(  6-C ,  9-C ) :   1.0892
B(  9-C , 10-H ) :   0.9505 B(  9-C , 11-H ) :   0.9532 B(  9-C , 12-C ) :   1.0867
B( 12-C , 13-H ) :   0.9732 B( 12-C , 14-H ) :   0.9690 B( 12-C , 15-H ) :   0.9700
B( 16-S , 17-C ) :   1.1605 B( 16-S , 20-C ) :   1.1627 B( 17-C , 18-C ) :   1.6013
B( 17-C , 33-H ) :   0.9651 B( 18-C , 19-C ) :   1.2567 B( 18-C , 21-H ) :   0.9839
B( 19-C , 20-C ) :   1.5135 B( 19-C , 22-C ) :   1.0329 B( 22-C , 23-H ) :   0.9413
B( 22-C , 24-H ) :   0.9426 B( 22-C , 25-C ) :   1.0672 B( 25-C , 26-H ) :   0.9622
B( 25-C , 27-H ) :   0.9523 B( 25-C , 28-C ) :   1.0782 B( 28-C , 29-H ) :   0.9685
B( 28-C , 30-H ) :   0.9618 B( 28-C , 31-H ) :   0.9714

Dispersion correction           -0.015845019
FINAL SINGLE POINT ENERGY     -1339.873802912785

DIPOLE MOMENT
-------------
                                X             Y             Z
Electronic contribution:    -10.08230     -24.60152      11.40842
Nuclear contribution   :     10.45037      25.03711     -11.67095
                        -----------------------------------------
Total Dipole Moment    :      0.36807       0.43559      -0.26253
                        -----------------------------------------
Magnitude (a.u.)       :      0.62781
Magnitude (Debye)      :      1.59575

Rotational constants in cm-1:     0.018671     0.010643     0.007588
Rotational constants in MHz :   559.734397   319.081445   227.480240

                             ****ORCA TERMINATED NORMALLY****
TOTAL RUN TIME: 0 days 0 hours 0 minutes 37 seconds 233 msec
