                         Program Version 4.2.1 -  RELEASE  -
|  1> ! wB97X-D3 SP def2-SVP
|  2> %pal
|  3> nprocs 16
|  4> end
|  5>
|  6> * xyz 0 1
|  7> S 	 -56.1321 	 52.9826 	 138.134
|  8> C 	 -56.0384 	 54.6792 	 137.969
|  9> C 	 -57.2696 	 55.2517 	 137.871
| 10> C 	 -58.315 	 54.2907 	 138.266
| 11> C 	 -57.8795 	 53.0705 	 138.596
| 12> H 	 -59.3408 	 54.5398 	 138.328
| 13> C 	 -57.5423 	 56.7509 	 137.818
| 14> H 	 -57.687 	 57.1963 	 138.854
| 15> H 	 -58.5119 	 56.9117 	 137.32
| 16> C 	 -56.422 	 57.6136 	 137.135
| 17> H 	 -55.4959 	 57.4535 	 137.643
| 18> H 	 -56.4208 	 57.3304 	 136.053
| 19> C 	 -56.7202 	 59.0953 	 137.249
| 20> H 	 -56.7792 	 59.3143 	 138.345
| 21> H 	 -55.8271 	 59.6372 	 136.801
| 22> H 	 -57.5832 	 59.4295 	 136.647
| 23> S 	 -58.3057 	 51.0856 	 140.583
| 24> C 	 -59.681 	 50.0158 	 140.269
| 25> C 	 -60.3093 	 50.2532 	 139.061
| 26> C 	 -59.7735 	 51.3355 	 138.327
| 27> C 	 -58.6332 	 51.834 	 138.981
| 28> H 	 -61.1399 	 49.6706 	 138.751
| 29> C 	 -60.3645 	 51.7929 	 136.94
| 30> H 	 -60.6052 	 50.9703 	 136.32
| 31> H 	 -59.6056 	 52.2523 	 136.443
| 32> C 	 -61.5746 	 52.7079 	 136.953
| 33> H 	 -61.6752 	 53.1373 	 136.001
| 34> H 	 -61.4029 	 53.5153 	 137.657
| 35> C 	 -62.9696 	 52.1122 	 137.334
| 36> H 	 -63.2471 	 51.2742 	 136.717
| 37> H 	 -63.864 	 52.808 	 137.373
| 38> H 	 -62.9534 	 51.7205 	 138.347
| 39> H 	 -55.0825 	 55.2387 	 137.898
| 40> H 	 -59.924 	 49.1101 	 140.772
| 41> *
| 42>
| 43>                          ****END OF INPUT****

CARTESIAN COORDINATES (ANGSTROEM)
---------------------------------
  S    -56.132100   52.982600  138.134000
  C    -56.038400   54.679200  137.969000
  C    -57.269600   55.251700  137.871000
  C    -58.315000   54.290700  138.266000
  C    -57.879500   53.070500  138.596000
  H    -59.340800   54.539800  138.328000
  C    -57.542300   56.750900  137.818000
  H    -57.687000   57.196300  138.854000
  H    -58.511900   56.911700  137.320000
  C    -56.422000   57.613600  137.135000
  H    -55.495900   57.453500  137.643000
  H    -56.420800   57.330400  136.053000
  C    -56.720200   59.095300  137.249000
  H    -56.779200   59.314300  138.345000
  H    -55.827100   59.637200  136.801000
  H    -57.583200   59.429500  136.647000
  S    -58.305700   51.085600  140.583000
  C    -59.681000   50.015800  140.269000
  C    -60.309300   50.253200  139.061000
  C    -59.773500   51.335500  138.327000
  C    -58.633200   51.834000  138.981000
  H    -61.139900   49.670600  138.751000
  C    -60.364500   51.792900  136.940000
  H    -60.605200   50.970300  136.320000
  H    -59.605600   52.252300  136.443000
  C    -61.574600   52.707900  136.953000
  H    -61.675200   53.137300  136.001000
  H    -61.402900   53.515300  137.657000
  C    -62.969600   52.112200  137.334000
  H    -63.247100   51.274200  136.717000
  H    -63.864000   52.808000  137.373000
  H    -62.953400   51.720500  138.347000
  H    -55.082500   55.238700  137.898000
  H    -59.924000   49.110100  140.772000

 Total Charge           Charge          ....    0
 Multiplicity           Mult            ....    1
 Number of Electrons    NEL             ....  134
 Basis Dimension        Dim             ....  322

ORBITAL ENERGIES
----------------

  NO   OCC          E(Eh)            E(eV)
   0   2.0000     -88.973651     -2421.0961
   1   2.0000     -88.955038     -2420.5896
   2   2.0000     -10.334816      -281.2247
   3   2.0000     -10.327925      -281.0371
   4   2.0000     -10.317770      -280.7608
   5   2.0000     -10.310888      -280.5735
   6   2.0000     -10.310292      -280.5573
   7   2.0000     -10.299378      -280.2603
   8   2.0000     -10.298644      -280.2403
   9   2.0000     -10.291455      -280.0447
  10   2.0000     -10.291098      -280.0350
  11   2.0000     -10.289206      -279.9835
  12   2.0000     -10.288516      -279.9647
  13   2.0000     -10.287087      -279.9259
  14   2.0000     -10.286406      -279.9074
  15   2.0000     -10.282031      -279.7883
  16   2.0000      -8.086898      -220.0557
  17   2.0000      -8.070437      -219.6078
  18   2.0000      -6.045399      -164.5037
  19   2.0000      -6.041788      -164.4054
  20   2.0000      -6.037583      -164.2910
  21   2.0000      -6.029073      -164.0594
  22   2.0000      -6.025061      -163.9502
  23   2.0000      -6.020812      -163.8346
  24   2.0000      -1.000333       -27.2204
  25   2.0000      -0.981130       -26.6979
  26   2.0000      -0.909116       -24.7383
  27   2.0000      -0.906718       -24.6731
  28   2.0000      -0.866342       -23.5744
  29   2.0000      -0.849427       -23.1141
  30   2.0000      -0.844561       -22.9817
  31   2.0000      -0.815945       -22.2030
  32   2.0000      -0.789295       -21.4778
  33   2.0000      -0.764091       -20.7920
  34   2.0000      -0.708174       -19.2704
  35   2.0000      -0.699067       -19.0226
  36   2.0000      -0.687712       -18.7136
  37   2.0000      -0.660216       -17.9654
  38   2.0000      -0.640293       -17.4233
  39   2.0000      -0.613196       -16.6859
  40   2.0000      -0.598888       -16.2966
  41   2.0000      -0.576855       -15.6970
  42   2.0000      -0.564987       -15.3741
  43   2.0000      -0.553208       -15.0536
  44   2.0000      -0.547163       -14.8891
  45   2.0000      -0.518063       -14.0972
  46   2.0000      -0.515990       -14.0408
  47   2.0000      -0.503976       -13.7139
  48   2.0000      -0.498489       -13.5646
  49   2.0000      -0.496419       -13.5083
  50   2.0000      -0.488318       -13.2878
  51   2.0000      -0.479558       -13.0494
  52   2.0000      -0.475454       -12.9378
  53   2.0000      -0.460307       -12.5256
  54   2.0000      -0.459147       -12.4940
  55   2.0000      -0.449712       -12.2373
  56   2.0000      -0.446129       -12.1398
  57   2.0000      -0.443044       -12.0558
  58   2.0000      -0.430304       -11.7092
  59   2.0000      -0.426526       -11.6064
  60   2.0000      -0.420887       -11.4529
  61   2.0000      -0.418972       -11.4008
  62   2.0000      -0.410410       -11.1678
  63   2.0000      -0.343176        -9.3383
  64   2.0000      -0.335624        -9.1328
  65   2.0000      -0.321025        -8.7355
  66   2.0000      -0.302824        -8.2403
  67   0.0000       0.029668         0.8073
  68   0.0000       0.068923         1.8755
  69   0.0000       0.106636         2.9017
  70   0.0000       0.110176         2.9980
  71   0.0000       0.129094         3.5128

MULLIKEN ATOMIC CHARGES
-----------------------
   0 S :    0.082636
   1 C :   -0.135018
   2 C :   -0.054732
   3 C :    0.037207
   4 C :   -0.128692
   5 H :   -0.011900
   6 C :   -0.000453
   7 H :    0.044652
   8 H :    0.026403
   9 C :   -0.094370
  10 H :    0.031415
  11 H :    0.043628
  12 C :   -0.069844
  13 H :    0.039571
  14 H :    0.041490
  15 H :    0.042163
  16 S :    0.123183
  17 C :   -0.072434
  18 C :   -0.033325
  19 C :   -0.033468
  20 C :   -0.179476
  21 H :    0.008038
  22 C :    0.146894
  23 H :    0.012813
  24 H :    0.002536
  25 C :   -0.044936
  26 H :    0.023707
  27 H :    0.025221
  28 C :   -0.082200
  29 H :    0.023317
  30 H :    0.043905
  31 H :    0.027437
  32 H :    0.066571
  33 H :    0.048061
Sum of atomic charges:    0.0000000

LOEWDIN ATOMIC CHARGES
----------------------
   0 S :    0.374368
   1 C :   -0.201316
   2 C :   -0.075043
   3 C :   -0.051714
   4 C :   -0.173817
   5 H :    0.022757
   6 C :   -0.040509
   7 H :    0.036312
   8 H :    0.028799
   9 C :   -0.044648
  10 H :    0.018923
  11 H :    0.030568
  12 C :   -0.071319
  13 H :    0.028812
  14 H :    0.033216
  15 H :    0.026289
  16 S :    0.391823
  17 C :   -0.175474
  18 C :   -0.066024
  19 C :   -0.040291
  20 C :   -0.190333
  21 H :    0.026311
  22 C :   -0.012441
  23 H :    0.028532
  24 H :    0.021961
  25 C :   -0.030778
  26 H :    0.020844
  27 H :    0.022105
  28 C :   -0.075380
  29 H :    0.018171
  30 H :    0.035356
  31 H :    0.022713
  32 H :    0.035792
  33 H :    0.025435

  Mayer bond orders larger than 0.100000
B(  0-S ,  1-C ) :   1.1369 B(  0-S ,  4-C ) :   1.1104 B(  1-C ,  2-C ) :   1.6428
B(  1-C , 32-H ) :   0.9602 B(  2-C ,  3-C ) :   1.1852 B(  2-C ,  6-C ) :   1.0254
B(  3-C ,  4-C ) :   1.6513 B(  3-C ,  5-H ) :   1.0115 B(  4-C , 20-C ) :   0.9987
B(  6-C ,  7-H ) :   0.9415 B(  6-C ,  8-H ) :   0.9419 B(  6-C ,  9-C ) :   1.0675
B(  9-C , 10-H ) :   0.9491 B(  9-C , 11-H ) :   0.9576 B(  9-C , 12-C ) :   1.0922
B( 12-C , 13-H ) :   0.9721 B( 12-C , 14-H ) :   0.9728 B( 12-C , 15-H ) :   0.9751
B( 16-S , 17-C ) :   1.1424 B( 16-S , 20-C ) :   1.1410 B( 17-C , 18-C ) :   1.6293
B( 17-C , 20-C ) :   0.1034 B( 17-C , 33-H ) :   0.9626 B( 18-C , 19-C ) :   1.2433
B( 18-C , 21-H ) :   0.9880 B( 19-C , 20-C ) :   1.6059 B( 19-C , 22-C ) :   1.0246
B( 22-C , 23-H ) :   0.9379 B( 22-C , 24-H ) :   0.9183 B( 22-C , 25-C ) :   1.0797
B( 25-C , 26-H ) :   0.9539 B( 25-C , 27-H ) :   0.9518 B( 25-C , 28-C ) :   1.0724
B( 28-C , 29-H ) :   0.9767 B( 28-C , 30-H ) :   0.9749 B( 28-C , 31-H ) :   0.9743

Dispersion correction           -0.014159439
FINAL SINGLE POINT ENERGY     -1339.867653596673

DIPOLE MOMENT
-------------
                                X             Y             Z
Electronic contribution:     13.77189     -20.73353      12.95722
Nuclear contribution   :    -14.28106      21.05772     -13.28185
                        -----------------------------------------
Total Dipole Moment    :     -0.50916       0.32419      -0.32462
                        -----------------------------------------
Magnitude (a.u.)       :      0.68537
Magnitude (Debye)      :      1.74206

Rotational constants in cm-1:     0.020111     0.007533     0.005994
Rotational constants in MHz :   602.924802   225.831498   179.698567

                             ****ORCA TERMINATED NORMALLY****
TOTAL RUN TIME: 0 days 0 hours 0 minutes 34 seconds 304 msec
