                         Program Version 4.2.1 -  RELEASE  -
|  1> ! wB97X-D3 SP def2-SVP
|  2> %pal
|  3> nprocs 16
|  4> end
|  5>
|  6> * xyz 0 1
|  7> S 	 19.2523 	 3.07945 	 85.5426
|  8> C 	 20.6722 	 4.14369 	 85.2457
|  9> C 	 20.4039 	 5.10358 	 84.2754
| 10> C 	 19.1231 	 4.90656 	 83.682
| 11> C 	 18.4013 	 3.88983 	 84.3021
| 12> H 	 18.5826 	 5.49513 	 82.9447
| 13> C 	 21.3131 	 6.21248 	 83.8628
| 14> H 	 21.9985 	 5.91053 	 83.0769
| 15> H 	 22.0517 	 6.17561 	 84.7113
| 16> C 	 20.6655 	 7.56544 	 83.7049
| 17> H 	 20.0631 	 7.5023 	 82.8217
| 18> H 	 20.0058 	 7.79484 	 84.5453
| 19> C 	 21.6534 	 8.74641 	 83.716
| 20> H 	 22.3108 	 8.81705 	 82.8412
| 21> H 	 20.9763 	 9.62284 	 83.8833
| 22> H 	 22.3445 	 8.59562 	 84.5201
| 23> S 	 16.7963 	 1.70571 	 83.7706
| 24> C 	 15.0628 	 2.03451 	 83.7942
| 25> C 	 14.7069 	 3.34145 	 83.9799
| 26> C 	 15.869 	 4.16041 	 83.928
| 27> C 	 17.0442 	 3.43247 	 83.9777
| 28> H 	 13.6203 	 3.73049 	 84.06
| 29> C 	 15.8119 	 5.67715 	 84.1288
| 30> H 	 15.7934 	 6.1423 	 83.1578
| 31> H 	 16.6998 	 6.10044 	 84.5532
| 32> C 	 14.6646 	 6.20314 	 84.8576
| 33> H 	 14.5091 	 5.73026 	 85.8149
| 34> H 	 13.7147 	 5.96196 	 84.4085
| 35> C 	 14.7008 	 7.71218 	 85.1773
| 36> H 	 13.9361 	 7.97121 	 85.8921
| 37> H 	 14.5611 	 8.46687 	 84.4158
| 38> H 	 15.7329 	 7.88044 	 85.6321
| 39> H 	 21.6612 	 4.12391 	 85.694
| 40> H 	 14.3357 	 1.21195 	 83.8535
| 41> *
| 42>
| 43>                          ****END OF INPUT****

CARTESIAN COORDINATES (ANGSTROEM)
---------------------------------
  S     19.252300    3.079450   85.542600
  C     20.672200    4.143690   85.245700
  C     20.403900    5.103580   84.275400
  C     19.123100    4.906560   83.682000
  C     18.401300    3.889830   84.302100
  H     18.582600    5.495130   82.944700
  C     21.313100    6.212480   83.862800
  H     21.998500    5.910530   83.076900
  H     22.051700    6.175610   84.711300
  C     20.665500    7.565440   83.704900
  H     20.063100    7.502300   82.821700
  H     20.005800    7.794840   84.545300
  C     21.653400    8.746410   83.716000
  H     22.310800    8.817050   82.841200
  H     20.976300    9.622840   83.883300
  H     22.344500    8.595620   84.520100
  S     16.796300    1.705710   83.770600
  C     15.062800    2.034510   83.794200
  C     14.706900    3.341450   83.979900
  C     15.869000    4.160410   83.928000
  C     17.044200    3.432470   83.977700
  H     13.620300    3.730490   84.060000
  C     15.811900    5.677150   84.128800
  H     15.793400    6.142300   83.157800
  H     16.699800    6.100440   84.553200
  C     14.664600    6.203140   84.857600
  H     14.509100    5.730260   85.814900
  H     13.714700    5.961960   84.408500
  C     14.700800    7.712180   85.177300
  H     13.936100    7.971210   85.892100
  H     14.561100    8.466870   84.415800
  H     15.732900    7.880440   85.632100
  H     21.661200    4.123910   85.694000
  H     14.335700    1.211950   83.853500

 Total Charge           Charge          ....    0
 Multiplicity           Mult            ....    1
 Number of Electrons    NEL             ....  134
 Basis Dimension        Dim             ....  322

ORBITAL ENERGIES
----------------

  NO   OCC          E(Eh)            E(eV)
   0   2.0000     -88.969221     -2420.9756
   1   2.0000     -88.968189     -2420.9475
   2   2.0000     -10.324819      -280.9526
   3   2.0000     -10.323543      -280.9179
   4   2.0000     -10.318166      -280.7716
   5   2.0000     -10.313500      -280.6446
   6   2.0000     -10.303088      -280.3613
   7   2.0000     -10.301750      -280.3249
   8   2.0000     -10.299892      -280.2743
   9   2.0000     -10.290801      -280.0269
  10   2.0000     -10.290117      -280.0083
  11   2.0000     -10.286760      -279.9170
  12   2.0000     -10.283396      -279.8254
  13   2.0000     -10.282491      -279.8008
  14   2.0000     -10.281980      -279.7869
  15   2.0000     -10.279817      -279.7280
  16   2.0000      -8.083538      -219.9643
  17   2.0000      -8.082713      -219.9418
  18   2.0000      -6.042068      -164.4130
  19   2.0000      -6.041104      -164.3868
  20   2.0000      -6.038088      -164.3047
  21   2.0000      -6.037495      -164.2886
  22   2.0000      -6.034304      -164.2018
  23   2.0000      -6.033353      -164.1759
  24   2.0000      -1.007414       -27.4131
  25   2.0000      -0.982769       -26.7425
  26   2.0000      -0.919665       -25.0254
  27   2.0000      -0.916950       -24.9515
  28   2.0000      -0.868961       -23.6456
  29   2.0000      -0.851928       -23.1821
  30   2.0000      -0.845066       -22.9954
  31   2.0000      -0.812901       -22.1202
  32   2.0000      -0.786259       -21.3952
  33   2.0000      -0.772860       -21.0306
  34   2.0000      -0.711896       -19.3717
  35   2.0000      -0.705003       -19.1841
  36   2.0000      -0.689882       -18.7726
  37   2.0000      -0.650994       -17.7144
  38   2.0000      -0.639890       -17.4123
  39   2.0000      -0.616592       -16.7783
  40   2.0000      -0.604489       -16.4490
  41   2.0000      -0.573788       -15.6136
  42   2.0000      -0.568184       -15.4611
  43   2.0000      -0.557876       -15.1806
  44   2.0000      -0.538436       -14.6516
  45   2.0000      -0.525273       -14.2934
  46   2.0000      -0.514855       -14.0099
  47   2.0000      -0.507697       -13.8151
  48   2.0000      -0.499273       -13.5859
  49   2.0000      -0.496362       -13.5067
  50   2.0000      -0.485444       -13.2096
  51   2.0000      -0.476555       -12.9677
  52   2.0000      -0.469244       -12.7688
  53   2.0000      -0.463280       -12.6065
  54   2.0000      -0.460574       -12.5329
  55   2.0000      -0.457407       -12.4467
  56   2.0000      -0.448455       -12.2031
  57   2.0000      -0.441807       -12.0222
  58   2.0000      -0.437475       -11.9043
  59   2.0000      -0.425009       -11.5651
  60   2.0000      -0.422471       -11.4960
  61   2.0000      -0.415863       -11.3162
  62   2.0000      -0.410763       -11.1774
  63   2.0000      -0.342676        -9.3247
  64   2.0000      -0.335311        -9.1243
  65   2.0000      -0.329916        -8.9775
  66   2.0000      -0.289488        -7.8774
  67   0.0000       0.031113         0.8466
  68   0.0000       0.070398         1.9156
  69   0.0000       0.106399         2.8953
  70   0.0000       0.121199         3.2980
  71   0.0000       0.133878         3.6430

MULLIKEN ATOMIC CHARGES
-----------------------
   0 S :    0.123141
   1 C :   -0.121021
   2 C :   -0.098784
   3 C :    0.029211
   4 C :   -0.167659
   5 H :    0.014322
   6 C :    0.075293
   7 H :    0.040532
   8 H :   -0.000630
   9 C :   -0.085910
  10 H :    0.035019
  11 H :    0.034333
  12 C :   -0.035274
  13 H :    0.033629
  14 H :    0.047543
  15 H :    0.022301
  16 S :    0.115507
  17 C :   -0.091117
  18 C :   -0.064322
  19 C :   -0.020500
  20 C :   -0.179596
  21 H :    0.058536
  22 C :    0.115517
  23 H :    0.022523
  24 H :    0.015146
  25 C :   -0.088709
  26 H :    0.022207
  27 H :    0.013987
  28 C :   -0.056606
  29 H :    0.029002
  30 H :    0.030531
  31 H :    0.033139
  32 H :    0.039893
  33 H :    0.058817
Sum of atomic charges:    0.0000000

LOEWDIN ATOMIC CHARGES
----------------------
   0 S :    0.411319
   1 C :   -0.199540
   2 C :   -0.057020
   3 C :   -0.071752
   4 C :   -0.199737
   5 H :    0.031118
   6 C :   -0.042239
   7 H :    0.034586
   8 H :    0.030495
   9 C :   -0.040286
  10 H :    0.021258
  11 H :    0.030254
  12 C :   -0.060943
  13 H :    0.024631
  14 H :    0.036070
  15 H :    0.021444
  16 S :    0.395999
  17 C :   -0.180188
  18 C :   -0.079279
  19 C :   -0.049732
  20 C :   -0.201239
  21 H :    0.052730
  22 C :   -0.033933
  23 H :    0.033772
  24 H :    0.027211
  25 C :   -0.047541
  26 H :    0.025588
  27 H :    0.016837
  28 C :   -0.064493
  29 H :    0.026023
  30 H :    0.020220
  31 H :    0.031880
  32 H :    0.027993
  33 H :    0.028494

  Mayer bond orders larger than 0.100000
B(  0-S ,  1-C ) :   1.1142 B(  0-S ,  4-C ) :   1.1714 B(  1-C ,  2-C ) :   1.6341
B(  1-C , 32-H ) :   0.9611 B(  2-C ,  3-C ) :   1.2182 B(  2-C ,  6-C ) :   1.0235
B(  3-C ,  4-C ) :   1.5711 B(  3-C ,  5-H ) :   0.9922 B(  4-C , 20-C ) :   1.0308
B(  6-C ,  7-H ) :   0.9281 B(  6-C ,  8-H ) :   0.9305 B(  6-C ,  9-C ) :   1.0607
B(  9-C , 10-H ) :   0.9486 B(  9-C , 11-H ) :   0.9612 B(  9-C , 12-C ) :   1.0796
B( 12-C , 13-H ) :   0.9752 B( 12-C , 14-H ) :   0.9784 B( 12-C , 15-H ) :   0.9748
B( 16-S , 17-C ) :   1.1450 B( 16-S , 20-C ) :   1.1359 B( 17-C , 18-C ) :   1.6321
B( 17-C , 33-H ) :   0.9580 B( 18-C , 19-C ) :   1.2443 B( 18-C , 21-H ) :   0.9696
B( 19-C , 20-C ) :   1.6129 B( 19-C , 22-C ) :   1.0305 B( 22-C , 23-H ) :   0.9106
B( 22-C , 24-H ) :   0.9323 B( 22-C , 25-C ) :   1.0923 B( 25-C , 26-H ) :   0.9504
B( 25-C , 27-H ) :   0.9347 B( 25-C , 28-C ) :   1.0836 B( 28-C , 29-H ) :   0.9732
B( 28-C , 30-H ) :   0.9773 B( 28-C , 31-H ) :   0.9737

Dispersion correction           -0.013776635
FINAL SINGLE POINT ENERGY     -1339.869716482409

DIPOLE MOMENT
-------------
                                X             Y             Z
Electronic contribution:     -0.61128     -31.91658       0.77249
Nuclear contribution   :      0.47388      32.56600      -0.79122
                        -----------------------------------------
Total Dipole Moment    :     -0.13740       0.64942      -0.01872
                        -----------------------------------------
Magnitude (a.u.)       :      0.66406
Magnitude (Debye)      :      1.68791

Rotational constants in cm-1:     0.016901     0.009171     0.006511
Rotational constants in MHz :   506.670954   274.929754   195.191280

                             ****ORCA TERMINATED NORMALLY****
TOTAL RUN TIME: 0 days 0 hours 0 minutes 37 seconds 234 msec
