                         Program Version 4.2.1 -  RELEASE  -
|  1> ! wB97X-D3 SP def2-SVP
|  2> %pal
|  3> nprocs 16
|  4> end
|  5>
|  6> * xyz 0 1
|  7> S 	 -3.45449 	 -15.6096 	 83.448
|  8> C 	 -2.69963 	 -16.1468 	 84.8741
|  9> C 	 -3.50834 	 -15.9355 	 85.9719
| 10> C 	 -4.72977 	 -15.2636 	 85.6163
| 11> C 	 -4.92881 	 -15.0804 	 84.2423
| 12> H 	 -5.55507 	 -14.9852 	 86.2875
| 13> C 	 -3.27082 	 -16.4445 	 87.3982
| 14> H 	 -3.41404 	 -15.5547 	 87.971
| 15> H 	 -2.26142 	 -16.7363 	 87.6816
| 16> C 	 -4.24516 	 -17.5458 	 87.9024
| 17> H 	 -5.27306 	 -17.1305 	 87.798
| 18> H 	 -4.07526 	 -18.4089 	 87.236
| 19> C 	 -4.0964 	 -18.1156 	 89.3041
| 20> H 	 -4.60924 	 -19.056 	 89.3993
| 21> H 	 -3.0474 	 -18.2593 	 89.5474
| 22> H 	 -4.47592 	 -17.3782 	 90.0174
| 23> S 	 -6.00824 	 -13.4062 	 82.4462
| 24> C 	 -7.6643 	 -13.136 	 82.4688
| 25> C 	 -8.41145 	 -13.9984 	 83.2684
| 26> C 	 -7.5021 	 -14.8872 	 83.9658
| 27> C 	 -6.1507 	 -14.6244 	 83.6123
| 28> H 	 -9.44644 	 -13.8946 	 83.4505
| 29> C 	 -8.04043 	 -15.9105 	 84.9405
| 30> H 	 -9.09941 	 -15.7975 	 84.8658
| 31> H 	 -7.71641 	 -15.7442 	 86.0028
| 32> C 	 -7.65113 	 -17.2849 	 84.6122
| 33> H 	 -6.57583 	 -17.3617 	 84.6889
| 34> H 	 -7.77354 	 -17.6045 	 83.5682
| 35> C 	 -8.30562 	 -18.3544 	 85.5165
| 36> H 	 -9.35792 	 -18.4615 	 85.2025
| 37> H 	 -8.25105 	 -18.1835 	 86.5918
| 38> H 	 -7.78466 	 -19.272 	 85.2099
| 39> H 	 -1.7167 	 -16.6195 	 84.8409
| 40> H 	 -8.14354 	 -12.4183 	 81.8117
| 41> *
| 42>
| 43>                          ****END OF INPUT****

CARTESIAN COORDINATES (ANGSTROEM)
---------------------------------
  S     -3.454490  -15.609600   83.448000
  C     -2.699630  -16.146800   84.874100
  C     -3.508340  -15.935500   85.971900
  C     -4.729770  -15.263600   85.616300
  C     -4.928810  -15.080400   84.242300
  H     -5.555070  -14.985200   86.287500
  C     -3.270820  -16.444500   87.398200
  H     -3.414040  -15.554700   87.971000
  H     -2.261420  -16.736300   87.681600
  C     -4.245160  -17.545800   87.902400
  H     -5.273060  -17.130500   87.798000
  H     -4.075260  -18.408900   87.236000
  C     -4.096400  -18.115600   89.304100
  H     -4.609240  -19.056000   89.399300
  H     -3.047400  -18.259300   89.547400
  H     -4.475920  -17.378200   90.017400
  S     -6.008240  -13.406200   82.446200
  C     -7.664300  -13.136000   82.468800
  C     -8.411450  -13.998400   83.268400
  C     -7.502100  -14.887200   83.965800
  C     -6.150700  -14.624400   83.612300
  H     -9.446440  -13.894600   83.450500
  C     -8.040430  -15.910500   84.940500
  H     -9.099410  -15.797500   84.865800
  H     -7.716410  -15.744200   86.002800
  C     -7.651130  -17.284900   84.612200
  H     -6.575830  -17.361700   84.688900
  H     -7.773540  -17.604500   83.568200
  C     -8.305620  -18.354400   85.516500
  H     -9.357920  -18.461500   85.202500
  H     -8.251050  -18.183500   86.591800
  H     -7.784660  -19.272000   85.209900
  H     -1.716700  -16.619500   84.840900
  H     -8.143540  -12.418300   81.811700

 Total Charge           Charge          ....    0
 Multiplicity           Mult            ....    1
 Number of Electrons    NEL             ....  134
 Basis Dimension        Dim             ....  322

ORBITAL ENERGIES
----------------

  NO   OCC          E(Eh)            E(eV)
   0   2.0000     -88.969552     -2420.9846
   1   2.0000     -88.962996     -2420.8062
   2   2.0000     -10.329128      -281.0699
   3   2.0000     -10.323596      -280.9193
   4   2.0000     -10.313916      -280.6559
   5   2.0000     -10.312438      -280.6157
   6   2.0000     -10.307822      -280.4901
   7   2.0000     -10.304330      -280.3951
   8   2.0000     -10.295264      -280.1484
   9   2.0000     -10.294998      -280.1411
  10   2.0000     -10.290948      -280.0309
  11   2.0000     -10.289042      -279.9791
  12   2.0000     -10.288277      -279.9583
  13   2.0000     -10.277713      -279.6708
  14   2.0000     -10.277111      -279.6544
  15   2.0000     -10.274454      -279.5821
  16   2.0000      -8.086687      -220.0499
  17   2.0000      -8.078645      -219.8311
  18   2.0000      -6.044796      -164.4873
  19   2.0000      -6.040759      -164.3774
  20   2.0000      -6.037826      -164.2976
  21   2.0000      -6.037086      -164.2775
  22   2.0000      -6.032862      -164.1625
  23   2.0000      -6.029594      -164.0736
  24   2.0000      -1.014756       -27.6129
  25   2.0000      -0.990856       -26.9625
  26   2.0000      -0.918882       -25.0040
  27   2.0000      -0.907373       -24.6909
  28   2.0000      -0.873306       -23.7639
  29   2.0000      -0.854643       -23.2560
  30   2.0000      -0.848179       -23.0801
  31   2.0000      -0.812642       -22.1131
  32   2.0000      -0.784319       -21.3424
  33   2.0000      -0.772088       -21.0096
  34   2.0000      -0.704808       -19.1788
  35   2.0000      -0.694536       -18.8993
  36   2.0000      -0.685678       -18.6582
  37   2.0000      -0.669904       -18.2290
  38   2.0000      -0.642264       -17.4769
  39   2.0000      -0.620927       -16.8963
  40   2.0000      -0.601648       -16.3717
  41   2.0000      -0.569288       -15.4911
  42   2.0000      -0.566108       -15.4046
  43   2.0000      -0.561115       -15.2687
  44   2.0000      -0.527339       -14.3496
  45   2.0000      -0.525726       -14.3057
  46   2.0000      -0.516492       -14.0545
  47   2.0000      -0.509058       -13.8522
  48   2.0000      -0.504031       -13.7154
  49   2.0000      -0.500878       -13.6296
  50   2.0000      -0.495983       -13.4964
  51   2.0000      -0.491692       -13.3796
  52   2.0000      -0.474474       -12.9111
  53   2.0000      -0.470269       -12.7967
  54   2.0000      -0.462015       -12.5721
  55   2.0000      -0.454256       -12.3609
  56   2.0000      -0.446507       -12.1501
  57   2.0000      -0.442874       -12.0512
  58   2.0000      -0.426080       -11.5942
  59   2.0000      -0.422313       -11.4917
  60   2.0000      -0.418997       -11.4015
  61   2.0000      -0.410994       -11.1837
  62   2.0000      -0.405846       -11.0436
  63   2.0000      -0.350347        -9.5334
  64   2.0000      -0.333503        -9.0751
  65   2.0000      -0.326631        -8.8881
  66   2.0000      -0.288034        -7.8378
  67   0.0000       0.029948         0.8149
  68   0.0000       0.076233         2.0744
  69   0.0000       0.114740         3.1222
  70   0.0000       0.119160         3.2425
  71   0.0000       0.128872         3.5068

MULLIKEN ATOMIC CHARGES
-----------------------
   0 S :    0.105344
   1 C :   -0.130370
   2 C :   -0.068804
   3 C :   -0.001378
   4 C :   -0.149727
   5 H :    0.017370
   6 C :    0.089922
   7 H :    0.015992
   8 H :    0.008385
   9 C :   -0.111868
  10 H :    0.031006
  11 H :    0.033805
  12 C :   -0.025458
  13 H :    0.040826
  14 H :    0.022893
  15 H :    0.029559
  16 S :    0.146656
  17 C :   -0.087890
  18 C :   -0.028608
  19 C :   -0.061677
  20 C :   -0.156538
  21 H :    0.012109
  22 C :    0.118218
  23 H :   -0.001492
  24 H :    0.032819
  25 C :   -0.112060
  26 H :    0.032869
  27 H :    0.023997
  28 C :   -0.039171
  29 H :    0.031297
  30 H :    0.035111
  31 H :    0.034352
  32 H :    0.058260
  33 H :    0.054253
Sum of atomic charges:    0.0000000

LOEWDIN ATOMIC CHARGES
----------------------
   0 S :    0.416270
   1 C :   -0.212140
   2 C :   -0.065384
   3 C :   -0.067341
   4 C :   -0.200893
   5 H :    0.031826
   6 C :   -0.033088
   7 H :    0.026725
   8 H :    0.024761
   9 C :   -0.044739
  10 H :    0.023690
  11 H :    0.026042
  12 C :   -0.062872
  13 H :    0.028764
  14 H :    0.022993
  15 H :    0.025248
  16 S :    0.474888
  17 C :   -0.204539
  18 C :   -0.068383
  19 C :   -0.040824
  20 C :   -0.229800
  21 H :    0.027355
  22 C :   -0.034011
  23 H :    0.024001
  24 H :    0.035256
  25 C :   -0.048680
  26 H :    0.023225
  27 H :    0.026991
  28 C :   -0.063449
  29 H :    0.025068
  30 H :    0.021799
  31 H :    0.031087
  32 H :    0.033853
  33 H :    0.026305

  Mayer bond orders larger than 0.100000
B(  0-S ,  1-C ) :   1.1561 B(  0-S ,  4-C ) :   1.1556 B(  1-C ,  2-C ) :   1.5851
B(  1-C , 32-H ) :   0.9721 B(  2-C ,  3-C ) :   1.2516 B(  2-C ,  6-C ) :   1.0207
B(  3-C ,  4-C ) :   1.5560 B(  3-C ,  5-H ) :   0.9910 B(  4-C , 20-C ) :   1.0484
B(  6-C ,  7-H ) :   0.9334 B(  6-C ,  8-H ) :   0.9450 B(  6-C ,  9-C ) :   1.0584
B(  9-C , 10-H ) :   0.9549 B(  9-C , 11-H ) :   0.9586 B(  9-C , 12-C ) :   1.0891
B( 12-C , 13-H ) :   0.9741 B( 12-C , 14-H ) :   0.9725 B( 12-C , 15-H ) :   0.9746
B( 16-S , 17-C ) :   1.2065 B( 16-S , 20-C ) :   1.1725 B( 17-C , 18-C ) :   1.5606
B( 17-C , 33-H ) :   0.9638 B( 18-C , 19-C ) :   1.2867 B( 18-C , 21-H ) :   0.9966
B( 19-C , 20-C ) :   1.5331 B( 19-C , 22-C ) :   1.0439 B( 22-C , 23-H ) :   0.9256
B( 22-C , 24-H ) :   0.9226 B( 22-C , 25-C ) :   1.0741 B( 25-C , 26-H ) :   0.9501
B( 25-C , 27-H ) :   0.9506 B( 25-C , 28-C ) :   1.0850 B( 28-C , 29-H ) :   0.9757
B( 28-C , 30-H ) :   0.9739 B( 28-C , 31-H ) :   0.9741

Dispersion correction           -0.014993723
FINAL SINGLE POINT ENERGY     -1339.885924834125

DIPOLE MOMENT
-------------
                                X             Y             Z
Electronic contribution:      7.99265      20.25300     -24.81856
Nuclear contribution   :     -8.29876     -20.48307      25.28210
                        -----------------------------------------
Total Dipole Moment    :     -0.30611      -0.23008       0.46354
                        -----------------------------------------
Magnitude (a.u.)       :      0.60126
Magnitude (Debye)      :      1.52827

Rotational constants in cm-1:     0.018629     0.009529     0.007062
Rotational constants in MHz :   558.493043   285.670145   211.714851

                             ****ORCA TERMINATED NORMALLY****
TOTAL RUN TIME: 0 days 0 hours 0 minutes 35 seconds 107 msec
