                         Program Version 4.2.1 -  RELEASE  -
|  1> ! wB97X-D3 SP def2-SVP
|  2> %pal
|  3> nprocs 16
|  4> end
|  5>
|  6> * xyz 0 1
|  7> S 	 -79.4314 	 42.6725 	 127.072
|  8> C 	 -80.9144 	 43.5753 	 126.65
|  9> C 	 -81.0132 	 44.7101 	 127.421
| 10> C 	 -79.9247 	 44.8383 	 128.379
| 11> C 	 -78.9916 	 43.8451 	 128.264
| 12> H 	 -79.663 	 45.6507 	 129.013
| 13> C 	 -82.1551 	 45.7765 	 127.38
| 14> H 	 -82.2316 	 46.1454 	 126.335
| 15> H 	 -81.9181 	 46.7225 	 127.865
| 16> C 	 -83.4834 	 45.3743 	 128.023
| 17> H 	 -83.2558 	 45.1711 	 129.115
| 18> H 	 -84.0797 	 46.246 	 127.996
| 19> C 	 -84.2444 	 44.1462 	 127.474
| 20> H 	 -84.2531 	 44.0118 	 126.381
| 21> H 	 -83.7547 	 43.2722 	 127.953
| 22> H 	 -85.2204 	 44.2148 	 127.834
| 23> S 	 -76.8025 	 45.0058 	 129.347
| 24> C 	 -75.7387 	 44.168 	 130.434
| 25> C 	 -76.0398 	 42.8228 	 130.387
| 26> C 	 -77.2509 	 42.4803 	 129.694
| 27> C 	 -77.8909 	 43.6143 	 129.171
| 28> H 	 -75.3884 	 42.1537 	 130.877
| 29> C 	 -77.6518 	 41.0287 	 129.664
| 30> H 	 -78.7186 	 41.0685 	 129.389
| 31> H 	 -77.5847 	 40.715 	 130.697
| 32> C 	 -76.8459 	 40.0016 	 128.842
| 33> H 	 -75.9095 	 39.8868 	 129.418
| 34> H 	 -76.6122 	 40.5207 	 127.912
| 35> C 	 -77.6621 	 38.6979 	 128.556
| 36> H 	 -77.8784 	 38.1107 	 129.481
| 37> H 	 -77.1144 	 37.9225 	 127.946
| 38> H 	 -78.5929 	 38.9519 	 128.004
| 39> H 	 -81.6966 	 43.164 	 125.986
| 40> H 	 -74.8935 	 44.6055 	 130.851
| 41> *
| 42>
| 43>                          ****END OF INPUT****

CARTESIAN COORDINATES (ANGSTROEM)
---------------------------------
  S    -79.431400   42.672500  127.072000
  C    -80.914400   43.575300  126.650000
  C    -81.013200   44.710100  127.421000
  C    -79.924700   44.838300  128.379000
  C    -78.991600   43.845100  128.264000
  H    -79.663000   45.650700  129.013000
  C    -82.155100   45.776500  127.380000
  H    -82.231600   46.145400  126.335000
  H    -81.918100   46.722500  127.865000
  C    -83.483400   45.374300  128.023000
  H    -83.255800   45.171100  129.115000
  H    -84.079700   46.246000  127.996000
  C    -84.244400   44.146200  127.474000
  H    -84.253100   44.011800  126.381000
  H    -83.754700   43.272200  127.953000
  H    -85.220400   44.214800  127.834000
  S    -76.802500   45.005800  129.347000
  C    -75.738700   44.168000  130.434000
  C    -76.039800   42.822800  130.387000
  C    -77.250900   42.480300  129.694000
  C    -77.890900   43.614300  129.171000
  H    -75.388400   42.153700  130.877000
  C    -77.651800   41.028700  129.664000
  H    -78.718600   41.068500  129.389000
  H    -77.584700   40.715000  130.697000
  C    -76.845900   40.001600  128.842000
  H    -75.909500   39.886800  129.418000
  H    -76.612200   40.520700  127.912000
  C    -77.662100   38.697900  128.556000
  H    -77.878400   38.110700  129.481000
  H    -77.114400   37.922500  127.946000
  H    -78.592900   38.951900  128.004000
  H    -81.696600   43.164000  125.986000
  H    -74.893500   44.605500  130.851000

 Total Charge           Charge          ....    0
 Multiplicity           Mult            ....    1
 Number of Electrons    NEL             ....  134
 Basis Dimension        Dim             ....  322

ORBITAL ENERGIES
----------------

  NO   OCC          E(Eh)            E(eV)
   0   2.0000     -88.967028     -2420.9159
   1   2.0000     -88.961293     -2420.7599
   2   2.0000     -10.330200      -281.0990
   3   2.0000     -10.326865      -281.0083
   4   2.0000     -10.320908      -280.8462
   5   2.0000     -10.313082      -280.6332
   6   2.0000     -10.309300      -280.5303
   7   2.0000     -10.306231      -280.4468
   8   2.0000     -10.296080      -280.1706
   9   2.0000     -10.292282      -280.0672
  10   2.0000     -10.292060      -280.0612
  11   2.0000     -10.290353      -280.0148
  12   2.0000     -10.290014      -280.0055
  13   2.0000     -10.287892      -279.9478
  14   2.0000     -10.287077      -279.9256
  15   2.0000     -10.276328      -279.6331
  16   2.0000      -8.081455      -219.9076
  17   2.0000      -8.076151      -219.7632
  18   2.0000      -6.040049      -164.3581
  19   2.0000      -6.035976      -164.2473
  20   2.0000      -6.034722      -164.2131
  21   2.0000      -6.032181      -164.1440
  22   2.0000      -6.030620      -164.1015
  23   2.0000      -6.026857      -163.9991
  24   2.0000      -1.007182       -27.4068
  25   2.0000      -0.982337       -26.7307
  26   2.0000      -0.907484       -24.6939
  27   2.0000      -0.905752       -24.6468
  28   2.0000      -0.871321       -23.7098
  29   2.0000      -0.848530       -23.0897
  30   2.0000      -0.841773       -22.9058
  31   2.0000      -0.812010       -22.0959
  32   2.0000      -0.788220       -21.4485
  33   2.0000      -0.773063       -21.0361
  34   2.0000      -0.707308       -19.2468
  35   2.0000      -0.698397       -19.0043
  36   2.0000      -0.691867       -18.8267
  37   2.0000      -0.667412       -18.1612
  38   2.0000      -0.640351       -17.4248
  39   2.0000      -0.611265       -16.6334
  40   2.0000      -0.593947       -16.1621
  41   2.0000      -0.573108       -15.5951
  42   2.0000      -0.567821       -15.4512
  43   2.0000      -0.545167       -14.8347
  44   2.0000      -0.538229       -14.6459
  45   2.0000      -0.524868       -14.2824
  46   2.0000      -0.516432       -14.0528
  47   2.0000      -0.513191       -13.9646
  48   2.0000      -0.508410       -13.8345
  49   2.0000      -0.497344       -13.5334
  50   2.0000      -0.489483       -13.3195
  51   2.0000      -0.480588       -13.0775
  52   2.0000      -0.474591       -12.9143
  53   2.0000      -0.463410       -12.6100
  54   2.0000      -0.461485       -12.5576
  55   2.0000      -0.446870       -12.1600
  56   2.0000      -0.443397       -12.0654
  57   2.0000      -0.433910       -11.8073
  58   2.0000      -0.426021       -11.5926
  59   2.0000      -0.421171       -11.4606
  60   2.0000      -0.418014       -11.3747
  61   2.0000      -0.416204       -11.3255
  62   2.0000      -0.410641       -11.1741
  63   2.0000      -0.350907        -9.5487
  64   2.0000      -0.332146        -9.0382
  65   2.0000      -0.324958        -8.8425
  66   2.0000      -0.293545        -7.9878
  67   0.0000       0.023879         0.6498
  68   0.0000       0.076674         2.0864
  69   0.0000       0.105152         2.8613
  70   0.0000       0.113035         3.0758
  71   0.0000       0.123012         3.3473

MULLIKEN ATOMIC CHARGES
-----------------------
   0 S :    0.098187
   1 C :   -0.147065
   2 C :   -0.058997
   3 C :    0.019386
   4 C :   -0.122565
   5 H :    0.009403
   6 C :    0.052041
   7 H :    0.035236
   8 H :    0.017161
   9 C :   -0.087146
  10 H :    0.038216
  11 H :    0.022707
  12 C :   -0.039272
  13 H :    0.035158
  14 H :    0.043011
  15 H :    0.025726
  16 S :    0.079681
  17 C :   -0.057771
  18 C :   -0.031306
  19 C :   -0.048826
  20 C :   -0.137379
  21 H :    0.002629
  22 C :    0.029798
  23 H :    0.021155
  24 H :    0.026591
  25 C :   -0.040701
  26 H :    0.031398
  27 H :    0.031959
  28 C :   -0.084533
  29 H :    0.038646
  30 H :    0.042971
  31 H :    0.049886
  32 H :    0.066366
  33 H :    0.038248
Sum of atomic charges:    0.0000000

LOEWDIN ATOMIC CHARGES
----------------------
   0 S :    0.401491
   1 C :   -0.190974
   2 C :   -0.056794
   3 C :   -0.061890
   4 C :   -0.201068
   5 H :    0.025927
   6 C :   -0.036902
   7 H :    0.033095
   8 H :    0.031785
   9 C :   -0.040255
  10 H :    0.034321
  11 H :    0.016359
  12 C :   -0.066872
  13 H :    0.023837
  14 H :    0.032694
  15 H :    0.020298
  16 S :    0.401505
  17 C :   -0.174288
  18 C :   -0.065155
  19 C :   -0.058613
  20 C :   -0.186028
  21 H :    0.022158
  22 C :   -0.042024
  23 H :    0.023287
  24 H :    0.030277
  25 C :   -0.038006
  26 H :    0.025556
  27 H :    0.024119
  28 C :   -0.074181
  29 H :    0.028877
  30 H :    0.031618
  31 H :    0.032338
  32 H :    0.036112
  33 H :    0.017392

  Mayer bond orders larger than 0.100000
B(  0-S ,  1-C ) :   1.1217 B(  0-S ,  4-C ) :   1.1395 B(  1-C ,  2-C ) :   1.6342
B(  1-C , 32-H ) :   0.9660 B(  2-C ,  3-C ) :   1.2186 B(  2-C ,  6-C ) :   1.0046
B(  3-C ,  4-C ) :   1.5759 B(  3-C ,  5-H ) :   0.9970 B(  4-C , 20-C ) :   1.0419
B(  6-C ,  7-H ) :   0.9436 B(  6-C ,  8-H ) :   0.9441 B(  6-C ,  9-C ) :   1.0800
B(  9-C , 10-H ) :   0.9543 B(  9-C , 11-H ) :   0.9587 B(  9-C , 12-C ) :   1.0738
B( 12-C , 13-H ) :   0.9774 B( 12-C , 14-H ) :   0.9741 B( 12-C , 15-H ) :   0.9721
B( 16-S , 17-C ) :   1.1538 B( 16-S , 20-C ) :   1.1417 B( 17-C , 18-C ) :   1.5949
B( 17-C , 20-C ) :   0.1004 B( 17-C , 33-H ) :   0.9785 B( 18-C , 19-C ) :   1.2333
B( 18-C , 21-H ) :   0.9985 B( 19-C , 20-C ) :   1.5699 B( 19-C , 22-C ) :   1.0465
B( 22-C , 23-H ) :   0.9356 B( 22-C , 24-H ) :   0.9336 B( 22-C , 25-C ) :   1.0476
B( 25-C , 26-H ) :   0.9532 B( 25-C , 27-H ) :   0.9593 B( 25-C , 28-C ) :   1.0742
B( 28-C , 29-H ) :   0.9756 B( 28-C , 30-H ) :   0.9759 B( 28-C , 31-H ) :   0.9745

Dispersion correction           -0.014238196
FINAL SINGLE POINT ENERGY     -1339.875741242944

DIPOLE MOMENT
-------------
                                X             Y             Z
Electronic contribution:     15.15521      10.80195      -0.09216
Nuclear contribution   :    -15.37677     -10.90827       0.23393
                        -----------------------------------------
Total Dipole Moment    :     -0.22156      -0.10632       0.14177
                        -----------------------------------------
Magnitude (a.u.)       :      0.28371
Magnitude (Debye)      :      0.72114

Rotational constants in cm-1:     0.020127     0.008087     0.006272
Rotational constants in MHz :   603.399465   242.427391   188.014896

                             ****ORCA TERMINATED NORMALLY****
TOTAL RUN TIME: 0 days 0 hours 0 minutes 32 seconds 658 msec
