                         Program Version 4.2.1 -  RELEASE  -
|  1> ! wB97X-D3 SP def2-SVP
|  2> %pal
|  3> nprocs 16
|  4> end
|  5>
|  6> * xyz 0 1
|  7> S 	 -42.9017 	 26.4364 	 87.6026
|  8> C 	 -42.9481 	 28.0358 	 88.2102
|  9> C 	 -42.973 	 28.989 	 87.1402
| 10> C 	 -42.7042 	 28.39 	 85.8714
| 11> C 	 -42.584 	 26.9844 	 85.9333
| 12> H 	 -42.6445 	 28.8851 	 84.9416
| 13> C 	 -43.3648 	 30.4302 	 87.3158
| 14> H 	 -44.4606 	 30.1827 	 87.4882
| 15> H 	 -43.2677 	 31.026 	 86.4164
| 16> C 	 -42.6937 	 31.111 	 88.4771
| 17> H 	 -42.6627 	 30.4254 	 89.3038
| 18> H 	 -41.7797 	 31.4528 	 88.2179
| 19> C 	 -43.5376 	 32.2372 	 89.0224
| 20> H 	 -42.9599 	 33.0197 	 89.5724
| 21> H 	 -43.9526 	 32.8331 	 88.151
| 22> H 	 -44.3831 	 31.8151 	 89.5139
| 23> S 	 -43.8307 	 26.5512 	 83.4974
| 24> C 	 -43.6651 	 25.0485 	 82.7371
| 25> C 	 -42.8687 	 24.16 	 83.4463
| 26> C 	 -42.249 	 24.7442 	 84.5999
| 27> C 	 -42.7278 	 26.0483 	 84.8309
| 28> H 	 -42.7332 	 23.1922 	 83.1006
| 29> C 	 -41.2619 	 24.0377 	 85.5295
| 30> H 	 -41.5351 	 23.0328 	 85.8348
| 31> H 	 -41.0291 	 24.5804 	 86.415
| 32> C 	 -39.8222 	 23.9684 	 84.8829
| 33> H 	 -39.3134 	 23.5499 	 85.7253
| 34> H 	 -39.51 	 24.9487 	 84.6228
| 35> C 	 -39.7732 	 22.9649 	 83.6496
| 36> H 	 -38.7064 	 22.8406 	 83.4198
| 37> H 	 -40.3629 	 23.2907 	 82.7565
| 38> H 	 -40.1645 	 22.0039 	 84.0213
| 39> H 	 -43.3271 	 28.3704 	 89.2139
| 40> H 	 -44.0855 	 24.8623 	 81.7924
| 41> *
| 42>
| 43>                          ****END OF INPUT****

CARTESIAN COORDINATES (ANGSTROEM)
---------------------------------
  S    -42.901700   26.436400   87.602600
  C    -42.948100   28.035800   88.210200
  C    -42.973000   28.989000   87.140200
  C    -42.704200   28.390000   85.871400
  C    -42.584000   26.984400   85.933300
  H    -42.644500   28.885100   84.941600
  C    -43.364800   30.430200   87.315800
  H    -44.460600   30.182700   87.488200
  H    -43.267700   31.026000   86.416400
  C    -42.693700   31.111000   88.477100
  H    -42.662700   30.425400   89.303800
  H    -41.779700   31.452800   88.217900
  C    -43.537600   32.237200   89.022400
  H    -42.959900   33.019700   89.572400
  H    -43.952600   32.833100   88.151000
  H    -44.383100   31.815100   89.513900
  S    -43.830700   26.551200   83.497400
  C    -43.665100   25.048500   82.737100
  C    -42.868700   24.160000   83.446300
  C    -42.249000   24.744200   84.599900
  C    -42.727800   26.048300   84.830900
  H    -42.733200   23.192200   83.100600
  C    -41.261900   24.037700   85.529500
  H    -41.535100   23.032800   85.834800
  H    -41.029100   24.580400   86.415000
  C    -39.822200   23.968400   84.882900
  H    -39.313400   23.549900   85.725300
  H    -39.510000   24.948700   84.622800
  C    -39.773200   22.964900   83.649600
  H    -38.706400   22.840600   83.419800
  H    -40.362900   23.290700   82.756500
  H    -40.164500   22.003900   84.021300
  H    -43.327100   28.370400   89.213900
  H    -44.085500   24.862300   81.792400

 Total Charge           Charge          ....    0
 Multiplicity           Mult            ....    1
 Number of Electrons    NEL             ....  134
 Basis Dimension        Dim             ....  322

ORBITAL ENERGIES
----------------

  NO   OCC          E(Eh)            E(eV)
   0   2.0000     -88.969143     -2420.9735
   1   2.0000     -88.964776     -2420.8546
   2   2.0000     -10.332426      -281.1596
   3   2.0000     -10.329020      -281.0669
   4   2.0000     -10.315051      -280.6868
   5   2.0000     -10.311637      -280.5939
   6   2.0000     -10.307953      -280.4937
   7   2.0000     -10.305104      -280.4161
   8   2.0000     -10.294141      -280.1178
   9   2.0000     -10.293882      -280.1108
  10   2.0000     -10.290235      -280.0115
  11   2.0000     -10.288445      -279.9628
  12   2.0000     -10.283522      -279.8288
  13   2.0000     -10.282462      -279.8000
  14   2.0000     -10.279318      -279.7145
  15   2.0000     -10.274006      -279.5699
  16   2.0000      -8.083082      -219.9519
  17   2.0000      -8.079818      -219.8630
  18   2.0000      -6.041525      -164.3983
  19   2.0000      -6.038152      -164.3065
  20   2.0000      -6.037652      -164.2929
  21   2.0000      -6.034306      -164.2018
  22   2.0000      -6.033999      -164.1934
  23   2.0000      -6.030728      -164.1045
  24   2.0000      -1.001676       -27.2570
  25   2.0000      -0.980887       -26.6913
  26   2.0000      -0.921901       -25.0862
  27   2.0000      -0.903952       -24.5978
  28   2.0000      -0.867371       -23.6024
  29   2.0000      -0.854264       -23.2457
  30   2.0000      -0.842117       -22.9152
  31   2.0000      -0.809886       -22.0381
  32   2.0000      -0.782686       -21.2980
  33   2.0000      -0.765045       -20.8179
  34   2.0000      -0.707617       -19.2552
  35   2.0000      -0.702080       -19.1046
  36   2.0000      -0.687899       -18.7187
  37   2.0000      -0.664812       -18.0905
  38   2.0000      -0.636626       -17.3235
  39   2.0000      -0.612353       -16.6630
  40   2.0000      -0.600897       -16.3513
  41   2.0000      -0.591810       -16.1040
  42   2.0000      -0.561699       -15.2846
  43   2.0000      -0.552901       -15.0452
  44   2.0000      -0.534388       -14.5414
  45   2.0000      -0.523759       -14.2522
  46   2.0000      -0.515833       -14.0365
  47   2.0000      -0.511858       -13.9284
  48   2.0000      -0.505746       -13.7621
  49   2.0000      -0.494929       -13.4677
  50   2.0000      -0.487026       -13.2527
  51   2.0000      -0.481999       -13.1159
  52   2.0000      -0.476033       -12.9535
  53   2.0000      -0.472012       -12.8441
  54   2.0000      -0.460806       -12.5392
  55   2.0000      -0.447804       -12.1854
  56   2.0000      -0.443863       -12.0781
  57   2.0000      -0.437177       -11.8962
  58   2.0000      -0.431883       -11.7521
  59   2.0000      -0.423069       -11.5123
  60   2.0000      -0.420107       -11.4317
  61   2.0000      -0.415486       -11.3060
  62   2.0000      -0.407695       -11.0940
  63   2.0000      -0.346665        -9.4332
  64   2.0000      -0.331000        -9.0070
  65   2.0000      -0.327273        -8.9055
  66   2.0000      -0.278621        -7.5817
  67   0.0000       0.019699         0.5360
  68   0.0000       0.069308         1.8860
  69   0.0000       0.102429         2.7872
  70   0.0000       0.119402         3.2491
  71   0.0000       0.127345         3.4652

MULLIKEN ATOMIC CHARGES
-----------------------
   0 S :    0.121498
   1 C :   -0.127334
   2 C :   -0.135203
   3 C :    0.018175
   4 C :   -0.127095
   5 H :    0.002112
   6 C :    0.025110
   7 H :    0.057032
   8 H :    0.026431
   9 C :    0.010187
  10 H :    0.015741
  11 H :    0.009389
  12 C :   -0.077217
  13 H :    0.043015
  14 H :    0.023050
  15 H :    0.029720
  16 S :    0.104783
  17 C :   -0.072103
  18 C :   -0.010971
  19 C :   -0.024107
  20 C :   -0.158760
  21 H :   -0.007203
  22 C :    0.062072
  23 H :    0.027267
  24 H :    0.012301
  25 C :   -0.069792
  26 H :    0.028736
  27 H :    0.033970
  28 C :   -0.077545
  29 H :    0.042147
  30 H :    0.056626
  31 H :    0.023723
  32 H :    0.071542
  33 H :    0.042707
Sum of atomic charges:    0.0000000

LOEWDIN ATOMIC CHARGES
----------------------
   0 S :    0.429433
   1 C :   -0.242253
   2 C :   -0.056135
   3 C :   -0.066220
   4 C :   -0.186443
   5 H :    0.022624
   6 C :   -0.033963
   7 H :    0.049771
   8 H :    0.028722
   9 C :   -0.028887
  10 H :    0.022178
  11 H :    0.012980
  12 C :   -0.065630
  13 H :    0.030532
  14 H :    0.025666
  15 H :    0.019966
  16 S :    0.413029
  17 C :   -0.190000
  18 C :   -0.065772
  19 C :   -0.047729
  20 C :   -0.190737
  21 H :    0.018276
  22 C :   -0.029369
  23 H :    0.027158
  24 H :    0.019048
  25 C :   -0.021560
  26 H :    0.022227
  27 H :    0.018992
  28 C :   -0.073141
  29 H :    0.027415
  30 H :    0.030211
  31 H :    0.022299
  32 H :    0.037594
  33 H :    0.019716

  Mayer bond orders larger than 0.100000
B(  0-S ,  1-C ) :   1.1589 B(  0-S ,  4-C ) :   1.1638 B(  1-C ,  2-C ) :   1.5536
B(  1-C ,  4-C ) :   0.1060 B(  1-C , 32-H ) :   0.9533 B(  2-C ,  3-C ) :   1.2886
B(  2-C ,  6-C ) :   0.9993 B(  3-C ,  4-C ) :   1.4997 B(  3-C ,  5-H ) :   1.0046
B(  4-C , 20-C ) :   1.0867 B(  6-C ,  7-H ) :   0.9407 B(  6-C ,  8-H ) :   0.9449
B(  6-C ,  9-C ) :   1.0661 B(  9-C , 10-H ) :   0.9582 B(  9-C , 11-H ) :   0.9542
B(  9-C , 12-C ) :   1.0748 B( 12-C , 13-H ) :   0.9733 B( 12-C , 14-H ) :   0.9725
B( 12-C , 15-H ) :   0.9797 B( 16-S , 17-C ) :   1.1783 B( 16-S , 20-C ) :   1.1282
B( 17-C , 18-C ) :   1.5744 B( 17-C , 33-H ) :   0.9725 B( 18-C , 19-C ) :   1.2491
B( 18-C , 21-H ) :   1.0010 B( 19-C , 20-C ) :   1.5577 B( 19-C , 22-C ) :   1.0496
B( 22-C , 23-H ) :   0.9426 B( 22-C , 24-H ) :   0.9323 B( 22-C , 25-C ) :   1.0629
B( 25-C , 26-H ) :   0.9609 B( 25-C , 27-H ) :   0.9581 B( 25-C , 28-C ) :   1.0748
B( 28-C , 29-H ) :   0.9757 B( 28-C , 30-H ) :   0.9706 B( 28-C , 31-H ) :   0.9750

Dispersion correction           -0.013890678
FINAL SINGLE POINT ENERGY     -1339.857057491966

DIPOLE MOMENT
-------------
                                X             Y             Z
Electronic contribution:     -9.39058      -6.51671      -6.07107
Nuclear contribution   :      9.37791       6.65019       6.04754
                        -----------------------------------------
Total Dipole Moment    :     -0.01267       0.13347      -0.02353
                        -----------------------------------------
Magnitude (a.u.)       :      0.13612
Magnitude (Debye)      :      0.34600

Rotational constants in cm-1:     0.027755     0.006627     0.005846
Rotational constants in MHz :   832.067298   198.663719   175.260955

                             ****ORCA TERMINATED NORMALLY****
TOTAL RUN TIME: 0 days 0 hours 0 minutes 27 seconds 324 msec
