                         Program Version 4.2.1 -  RELEASE  -
|  1> ! wB97X-D3 SP def2-SVP
|  2> %pal
|  3> nprocs 16
|  4> end
|  5>
|  6> * xyz 0 1
|  7> S 	 8.77027 	 -9.75714 	 63.3136
|  8> C 	 8.34861 	 -8.93906 	 61.8371
|  9> C 	 7.16027 	 -8.32801 	 61.9718
| 10> C 	 6.55148 	 -8.58127 	 63.2564
| 11> C 	 7.34304 	 -9.34813 	 64.0869
| 12> H 	 5.54339 	 -8.39652 	 63.6275
| 13> C 	 6.52921 	 -7.46367 	 60.94
| 14> H 	 5.5059 	 -7.13586 	 61.2064
| 15> H 	 6.40762 	 -8.04054 	 60.0116
| 16> C 	 7.43336 	 -6.201 	 60.5478
| 17> H 	 8.43947 	 -6.47351 	 60.1496
| 18> H 	 6.94353 	 -5.65254 	 59.7469
| 19> C 	 7.49331 	 -5.24118 	 61.745
| 20> H 	 6.54699 	 -5.10267 	 62.2362
| 21> H 	 8.30054 	 -5.49635 	 62.5188
| 22> H 	 7.87412 	 -4.31426 	 61.2723
| 23> S 	 8.12133 	 -8.82163 	 66.7005
| 24> C 	 7.20435 	 -9.63362 	 67.9843
| 25> C 	 6.04467 	 -10.175 	 67.5096
| 26> C 	 6.00474 	 -10.3044 	 66.0814
| 27> C 	 7.12655 	 -9.63445 	 65.5123
| 28> H 	 5.34398 	 -10.5827 	 68.1993
| 29> C 	 4.93203 	 -10.9709 	 65.2974
| 30> H 	 4.53396 	 -10.24 	 64.6115
| 31> H 	 4.09152 	 -11.1539 	 65.9136
| 32> C 	 5.33798 	 -12.2994 	 64.7555
| 33> H 	 5.75908 	 -13.0011 	 65.5016
| 34> H 	 6.16423 	 -12.1423 	 64.0959
| 35> C 	 4.21185 	 -12.9582 	 63.8831
| 36> H 	 3.46171 	 -13.5379 	 64.4846
| 37> H 	 4.68295 	 -13.7806 	 63.2638
| 38> H 	 3.65593 	 -12.3551 	 63.1691
| 39> H 	 9.01434 	 -8.7724 	 60.9974
| 40> H 	 7.43433 	 -9.47175 	 69.0109
| 41> *
| 42>
| 43>                          ****END OF INPUT****

CARTESIAN COORDINATES (ANGSTROEM)
---------------------------------
  S      8.770270   -9.757140   63.313600
  C      8.348610   -8.939060   61.837100
  C      7.160270   -8.328010   61.971800
  C      6.551480   -8.581270   63.256400
  C      7.343040   -9.348130   64.086900
  H      5.543390   -8.396520   63.627500
  C      6.529210   -7.463670   60.940000
  H      5.505900   -7.135860   61.206400
  H      6.407620   -8.040540   60.011600
  C      7.433360   -6.201000   60.547800
  H      8.439470   -6.473510   60.149600
  H      6.943530   -5.652540   59.746900
  C      7.493310   -5.241180   61.745000
  H      6.546990   -5.102670   62.236200
  H      8.300540   -5.496350   62.518800
  H      7.874120   -4.314260   61.272300
  S      8.121330   -8.821630   66.700500
  C      7.204350   -9.633620   67.984300
  C      6.044670  -10.175000   67.509600
  C      6.004740  -10.304400   66.081400
  C      7.126550   -9.634450   65.512300
  H      5.343980  -10.582700   68.199300
  C      4.932030  -10.970900   65.297400
  H      4.533960  -10.240000   64.611500
  H      4.091520  -11.153900   65.913600
  C      5.337980  -12.299400   64.755500
  H      5.759080  -13.001100   65.501600
  H      6.164230  -12.142300   64.095900
  C      4.211850  -12.958200   63.883100
  H      3.461710  -13.537900   64.484600
  H      4.682950  -13.780600   63.263800
  H      3.655930  -12.355100   63.169100
  H      9.014340   -8.772400   60.997400
  H      7.434330   -9.471750   69.010900

 Total Charge           Charge          ....    0
 Multiplicity           Mult            ....    1
 Number of Electrons    NEL             ....  134
 Basis Dimension        Dim             ....  322

ORBITAL ENERGIES
----------------

  NO   OCC          E(Eh)            E(eV)
   0   2.0000     -88.966585     -2420.9039
   1   2.0000     -88.961673     -2420.7702
   2   2.0000     -10.327178      -281.0168
   3   2.0000     -10.320260      -280.8286
   4   2.0000     -10.314474      -280.6711
   5   2.0000     -10.306098      -280.4432
   6   2.0000     -10.304038      -280.3871
   7   2.0000     -10.296420      -280.1798
   8   2.0000     -10.294006      -280.1141
   9   2.0000     -10.293572      -280.1023
  10   2.0000     -10.292167      -280.0641
  11   2.0000     -10.291094      -280.0349
  12   2.0000     -10.284431      -279.8536
  13   2.0000     -10.283862      -279.8381
  14   2.0000     -10.282487      -279.8007
  15   2.0000     -10.279232      -279.7121
  16   2.0000      -8.080947      -219.8937
  17   2.0000      -8.078077      -219.8156
  18   2.0000      -6.039454      -164.3419
  19   2.0000      -6.036483      -164.2610
  20   2.0000      -6.035630      -164.2379
  21   2.0000      -6.032117      -164.1423
  22   2.0000      -6.031627      -164.1289
  23   2.0000      -6.029072      -164.0594
  24   2.0000      -1.012863       -27.5614
  25   2.0000      -0.985733       -26.8232
  26   2.0000      -0.913621       -24.8609
  27   2.0000      -0.909330       -24.7441
  28   2.0000      -0.867494       -23.6057
  29   2.0000      -0.845955       -23.0196
  30   2.0000      -0.843779       -22.9604
  31   2.0000      -0.814447       -22.1622
  32   2.0000      -0.780937       -21.2504
  33   2.0000      -0.769532       -20.9400
  34   2.0000      -0.707971       -19.2649
  35   2.0000      -0.700234       -19.0543
  36   2.0000      -0.691833       -18.8257
  37   2.0000      -0.661731       -18.0066
  38   2.0000      -0.642566       -17.4851
  39   2.0000      -0.608637       -16.5618
  40   2.0000      -0.596754       -16.2385
  41   2.0000      -0.576477       -15.6867
  42   2.0000      -0.562694       -15.3117
  43   2.0000      -0.546413       -14.8687
  44   2.0000      -0.536360       -14.5951
  45   2.0000      -0.525761       -14.3067
  46   2.0000      -0.515554       -14.0289
  47   2.0000      -0.513873       -13.9832
  48   2.0000      -0.503929       -13.7126
  49   2.0000      -0.496479       -13.5099
  50   2.0000      -0.488583       -13.2950
  51   2.0000      -0.477696       -12.9988
  52   2.0000      -0.475175       -12.9302
  53   2.0000      -0.463614       -12.6156
  54   2.0000      -0.456804       -12.4303
  55   2.0000      -0.448808       -12.2127
  56   2.0000      -0.442220       -12.0334
  57   2.0000      -0.437608       -11.9079
  58   2.0000      -0.429988       -11.7006
  59   2.0000      -0.424708       -11.5569
  60   2.0000      -0.422123       -11.4865
  61   2.0000      -0.413996       -11.2654
  62   2.0000      -0.405474       -11.0335
  63   2.0000      -0.339915        -9.2495
  64   2.0000      -0.328558        -8.9405
  65   2.0000      -0.325006        -8.8439
  66   2.0000      -0.299049        -8.1375
  67   0.0000       0.034661         0.9432
  68   0.0000       0.068367         1.8603
  69   0.0000       0.107538         2.9263
  70   0.0000       0.125175         3.4062
  71   0.0000       0.132985         3.6187

MULLIKEN ATOMIC CHARGES
-----------------------
   0 S :    0.118303
   1 C :   -0.127970
   2 C :   -0.056965
   3 C :    0.041996
   4 C :   -0.197237
   5 H :    0.009518
   6 C :    0.042471
   7 H :    0.025938
   8 H :    0.036532
   9 C :   -0.093948
  10 H :    0.035907
  11 H :    0.029059
  12 C :   -0.067882
  13 H :    0.036206
  14 H :    0.053685
  15 H :    0.031639
  16 S :    0.113479
  17 C :   -0.083981
  18 C :   -0.016087
  19 C :   -0.063887
  20 C :   -0.151625
  21 H :    0.010643
  22 C :    0.145154
  23 H :    0.013081
  24 H :   -0.006769
  25 C :   -0.060951
  26 H :    0.037767
  27 H :    0.025732
  28 C :   -0.077971
  29 H :    0.033853
  30 H :    0.034713
  31 H :    0.036904
  32 H :    0.045267
  33 H :    0.047428
Sum of atomic charges:   -0.0000000

LOEWDIN ATOMIC CHARGES
----------------------
   0 S :    0.443448
   1 C :   -0.202575
   2 C :   -0.067263
   3 C :   -0.068662
   4 C :   -0.225235
   5 H :    0.029828
   6 C :   -0.035504
   7 H :    0.030094
   8 H :    0.033033
   9 C :   -0.038234
  10 H :    0.025142
  11 H :    0.021582
  12 C :   -0.072541
  13 H :    0.021722
  14 H :    0.035916
  15 H :    0.028130
  16 S :    0.400024
  17 C :   -0.171284
  18 C :   -0.063883
  19 C :   -0.047257
  20 C :   -0.203404
  21 H :    0.028089
  22 C :   -0.035172
  23 H :    0.031117
  24 H :    0.025155
  25 C :   -0.035375
  26 H :    0.034157
  27 H :    0.021292
  28 C :   -0.076191
  29 H :    0.025764
  30 H :    0.032598
  31 H :    0.023887
  32 H :    0.029852
  33 H :    0.021747

  Mayer bond orders larger than 0.100000
B(  0-S ,  1-C ) :   1.1359 B(  0-S ,  4-C ) :   1.1842 B(  1-C ,  2-C ) :   1.6125
B(  1-C , 32-H ) :   0.9717 B(  2-C ,  3-C ) :   1.2305 B(  2-C ,  6-C ) :   1.0248
B(  3-C ,  4-C ) :   1.5717 B(  3-C ,  5-H ) :   0.9924 B(  4-C , 20-C ) :   1.0065
B(  6-C ,  7-H ) :   0.9492 B(  6-C ,  8-H ) :   0.9379 B(  6-C ,  9-C ) :   1.0700
B(  9-C , 10-H ) :   0.9569 B(  9-C , 11-H ) :   0.9613 B(  9-C , 12-C ) :   1.0630
B( 12-C , 13-H ) :   0.9778 B( 12-C , 14-H ) :   0.9747 B( 12-C , 15-H ) :   0.9760
B( 16-S , 17-C ) :   1.1425 B( 16-S , 20-C ) :   1.1644 B( 17-C , 18-C ) :   1.6172
B( 17-C , 33-H ) :   0.9709 B( 18-C , 19-C ) :   1.2480 B( 18-C , 21-H ) :   0.9900
B( 19-C , 20-C ) :   1.5660 B( 19-C , 22-C ) :   1.0510 B( 22-C , 23-H ) :   0.9178
B( 22-C , 24-H ) :   0.9186 B( 22-C , 25-C ) :   1.0635 B( 25-C , 26-H ) :   0.9511
B( 25-C , 27-H ) :   0.9588 B( 25-C , 28-C ) :   1.0712 B( 28-C , 29-H ) :   0.9769
B( 28-C , 30-H ) :   0.9761 B( 28-C , 31-H ) :   0.9768

Dispersion correction           -0.014776412
FINAL SINGLE POINT ENERGY     -1339.877191397966

DIPOLE MOMENT
-------------
                                X             Y             Z
Electronic contribution:     14.92117      -1.24093      14.15524
Nuclear contribution   :    -15.43083       1.37866     -14.35089
                        -----------------------------------------
Total Dipole Moment    :     -0.50967       0.13773      -0.19565
                        -----------------------------------------
Magnitude (a.u.)       :      0.56303
Magnitude (Debye)      :      1.43112

Rotational constants in cm-1:     0.018807     0.008895     0.007245
Rotational constants in MHz :   563.825750   266.672635   217.194974

                             ****ORCA TERMINATED NORMALLY****
TOTAL RUN TIME: 0 days 0 hours 0 minutes 30 seconds 403 msec
