                         Program Version 4.2.1 -  RELEASE  -
|  1> ! wB97X-D3 SP def2-SVP
|  2> %pal
|  3> nprocs 16
|  4> end
|  5>
|  6> * xyz 0 1
|  7> S 	 -98.6999 	 38.0799 	 125.403
|  8> C 	 -97.7606 	 37.2513 	 126.567
|  9> C 	 -96.5719 	 37.9522 	 126.876
| 10> C 	 -96.3256 	 38.9172 	 125.833
| 11> C 	 -97.3128 	 38.9895 	 124.826
| 12> H 	 -95.3943 	 39.4595 	 125.657
| 13> C 	 -95.4299 	 37.5893 	 127.832
| 14> H 	 -94.8666 	 36.8983 	 127.271
| 15> H 	 -95.8987 	 37.1774 	 128.708
| 16> C 	 -94.5119 	 38.7496 	 128.294
| 17> H 	 -93.9975 	 39.0905 	 127.365
| 18> H 	 -95.1636 	 39.6528 	 128.599
| 19> C 	 -93.6152 	 38.3969 	 129.444
| 20> H 	 -93.1763 	 37.4714 	 129.191
| 21> H 	 -92.794 	 39.0857 	 129.582
| 22> H 	 -94.1082 	 38.2722 	 130.35
| 23> S 	 -97.898 	 38.6763 	 122.147
| 24> C 	 -97.692 	 40.1028 	 121.074
| 25> C 	 -97.0812 	 41.1141 	 121.794
| 26> C 	 -96.9171 	 40.9038 	 123.181
| 27> C 	 -97.3102 	 39.6204 	 123.533
| 28> H 	 -96.938 	 42.033 	 121.234
| 29> C 	 -96.4694 	 41.9717 	 124.132
| 30> H 	 -95.4338 	 41.8877 	 124.259
| 31> H 	 -96.9849 	 41.8348 	 125.121
| 32> C 	 -96.6282 	 43.4269 	 123.663
| 33> H 	 -96.1411 	 43.5409 	 122.731
| 34> H 	 -96.0432 	 44.0759 	 124.306
| 35> C 	 -98.1191 	 43.8564 	 123.763
| 36> H 	 -98.6538 	 43.8575 	 124.722
| 37> H 	 -98.7523 	 43.3863 	 123.067
| 38> H 	 -98.1337 	 44.9153 	 123.479
| 39> H 	 -98.0879 	 36.4074 	 127.138
| 40> H 	 -97.8891 	 40.2605 	 119.97
| 41> *
| 42>
| 43>                          ****END OF INPUT****

CARTESIAN COORDINATES (ANGSTROEM)
---------------------------------
  S    -98.699900   38.079900  125.403000
  C    -97.760600   37.251300  126.567000
  C    -96.571900   37.952200  126.876000
  C    -96.325600   38.917200  125.833000
  C    -97.312800   38.989500  124.826000
  H    -95.394300   39.459500  125.657000
  C    -95.429900   37.589300  127.832000
  H    -94.866600   36.898300  127.271000
  H    -95.898700   37.177400  128.708000
  C    -94.511900   38.749600  128.294000
  H    -93.997500   39.090500  127.365000
  H    -95.163600   39.652800  128.599000
  C    -93.615200   38.396900  129.444000
  H    -93.176300   37.471400  129.191000
  H    -92.794000   39.085700  129.582000
  H    -94.108200   38.272200  130.350000
  S    -97.898000   38.676300  122.147000
  C    -97.692000   40.102800  121.074000
  C    -97.081200   41.114100  121.794000
  C    -96.917100   40.903800  123.181000
  C    -97.310200   39.620400  123.533000
  H    -96.938000   42.033000  121.234000
  C    -96.469400   41.971700  124.132000
  H    -95.433800   41.887700  124.259000
  H    -96.984900   41.834800  125.121000
  C    -96.628200   43.426900  123.663000
  H    -96.141100   43.540900  122.731000
  H    -96.043200   44.075900  124.306000
  C    -98.119100   43.856400  123.763000
  H    -98.653800   43.857500  124.722000
  H    -98.752300   43.386300  123.067000
  H    -98.133700   44.915300  123.479000
  H    -98.087900   36.407400  127.138000
  H    -97.889100   40.260500  119.970000

 Total Charge           Charge          ....    0
 Multiplicity           Mult            ....    1
 Number of Electrons    NEL             ....  134
 Basis Dimension        Dim             ....  322

ORBITAL ENERGIES
----------------

  NO   OCC          E(Eh)            E(eV)
   0   2.0000     -88.967459     -2420.9276
   1   2.0000     -88.962624     -2420.7961
   2   2.0000     -10.326418      -280.9961
   3   2.0000     -10.326012      -280.9851
   4   2.0000     -10.323862      -280.9266
   5   2.0000     -10.311320      -280.5853
   6   2.0000     -10.304886      -280.4102
   7   2.0000     -10.301554      -280.3195
   8   2.0000     -10.295657      -280.1591
   9   2.0000     -10.294822      -280.1363
  10   2.0000     -10.291179      -280.0372
  11   2.0000     -10.290202      -280.0106
  12   2.0000     -10.286749      -279.9167
  13   2.0000     -10.286571      -279.9118
  14   2.0000     -10.273031      -279.5434
  15   2.0000     -10.270190      -279.4661
  16   2.0000      -8.080636      -219.8853
  17   2.0000      -8.077918      -219.8113
  18   2.0000      -6.039332      -164.3386
  19   2.0000      -6.036307      -164.2563
  20   2.0000      -6.035372      -164.2308
  21   2.0000      -6.032399      -164.1499
  22   2.0000      -6.031250      -164.1186
  23   2.0000      -6.028721      -164.0499
  24   2.0000      -1.002974       -27.2923
  25   2.0000      -0.979967       -26.6663
  26   2.0000      -0.913578       -24.8597
  27   2.0000      -0.909217       -24.7410
  28   2.0000      -0.869720       -23.6663
  29   2.0000      -0.850663       -23.1477
  30   2.0000      -0.842641       -22.9294
  31   2.0000      -0.811638       -22.0858
  32   2.0000      -0.785117       -21.3641
  33   2.0000      -0.774185       -21.0666
  34   2.0000      -0.713771       -19.4227
  35   2.0000      -0.702108       -19.1053
  36   2.0000      -0.691194       -18.8083
  37   2.0000      -0.651260       -17.7217
  38   2.0000      -0.638199       -17.3663
  39   2.0000      -0.615687       -16.7537
  40   2.0000      -0.592763       -16.1299
  41   2.0000      -0.576761       -15.6945
  42   2.0000      -0.562817       -15.3150
  43   2.0000      -0.557424       -15.1683
  44   2.0000      -0.535491       -14.5714
  45   2.0000      -0.524573       -14.2744
  46   2.0000      -0.521020       -14.1777
  47   2.0000      -0.512041       -13.9333
  48   2.0000      -0.501626       -13.6499
  49   2.0000      -0.498726       -13.5710
  50   2.0000      -0.491569       -13.3763
  51   2.0000      -0.479299       -13.0424
  52   2.0000      -0.477647       -12.9974
  53   2.0000      -0.467378       -12.7180
  54   2.0000      -0.461750       -12.5649
  55   2.0000      -0.447379       -12.1738
  56   2.0000      -0.444512       -12.0958
  57   2.0000      -0.440710       -11.9923
  58   2.0000      -0.424733       -11.5576
  59   2.0000      -0.421525       -11.4703
  60   2.0000      -0.419134       -11.4052
  61   2.0000      -0.417092       -11.3496
  62   2.0000      -0.410095       -11.1593
  63   2.0000      -0.344327        -9.3696
  64   2.0000      -0.330421        -8.9912
  65   2.0000      -0.323462        -8.8018
  66   2.0000      -0.284786        -7.7494
  67   0.0000       0.018958         0.5159
  68   0.0000       0.074765         2.0345
  69   0.0000       0.107319         2.9203
  70   0.0000       0.115827         3.1518
  71   0.0000       0.137341         3.7372

MULLIKEN ATOMIC CHARGES
-----------------------
   0 S :    0.122676
   1 C :   -0.121945
   2 C :   -0.083310
   3 C :    0.008633
   4 C :   -0.183999
   5 H :    0.015851
   6 C :    0.078491
   7 H :    0.043443
   8 H :    0.021319
   9 C :   -0.157696
  10 H :    0.038937
  11 H :    0.040609
  12 C :    0.036055
  13 H :    0.008881
  14 H :    0.030555
  15 H :    0.022934
  16 S :    0.113251
  17 C :   -0.118111
  18 C :   -0.056661
  19 C :   -0.006982
  20 C :   -0.161538
  21 H :    0.019283
  22 C :    0.074030
  23 H :    0.022623
  24 H :    0.045340
  25 C :   -0.056053
  26 H :    0.020037
  27 H :    0.020727
  28 C :   -0.044361
  29 H :    0.039507
  30 H :    0.026278
  31 H :    0.022229
  32 H :    0.040893
  33 H :    0.078071
Sum of atomic charges:    0.0000000

LOEWDIN ATOMIC CHARGES
----------------------
   0 S :    0.417259
   1 C :   -0.207195
   2 C :   -0.060659
   3 C :   -0.063689
   4 C :   -0.197398
   5 H :    0.028554
   6 C :   -0.026530
   7 H :    0.031538
   8 H :    0.026554
   9 C :   -0.047904
  10 H :    0.023966
  11 H :    0.030544
  12 C :   -0.054791
  13 H :    0.021296
  14 H :    0.030162
  15 H :    0.019899
  16 S :    0.383901
  17 C :   -0.187906
  18 C :   -0.077748
  19 C :   -0.053483
  20 C :   -0.194501
  21 H :    0.030221
  22 C :   -0.031126
  23 H :    0.025208
  24 H :    0.040714
  25 C :   -0.032232
  26 H :    0.018517
  27 H :    0.026222
  28 C :   -0.067473
  29 H :    0.031775
  30 H :    0.017936
  31 H :    0.026778
  32 H :    0.022717
  33 H :    0.048875

  Mayer bond orders larger than 0.100000
B(  0-S ,  1-C ) :   1.1607 B(  0-S ,  4-C ) :   1.1493 B(  1-C ,  2-C ) :   1.5753
B(  1-C ,  4-C ) :   0.1000 B(  1-C , 32-H ) :   0.9754 B(  2-C ,  3-C ) :   1.2426
B(  2-C ,  6-C ) :   1.0185 B(  3-C ,  4-C ) :   1.5531 B(  3-C ,  5-H ) :   0.9894
B(  4-C , 20-C ) :   1.0917 B(  6-C ,  7-H ) :   0.9381 B(  6-C ,  8-H ) :   0.9424
B(  6-C ,  9-C ) :   1.0660 B(  9-C , 10-H ) :   0.9470 B(  9-C , 11-H ) :   0.9618
B(  9-C , 12-C ) :   1.0872 B( 12-C , 13-H ) :   0.9670 B( 12-C , 14-H ) :   0.9697
B( 12-C , 15-H ) :   0.9719 B( 16-S , 17-C ) :   1.1316 B( 16-S , 20-C ) :   1.1303
B( 17-C , 18-C ) :   1.6374 B( 17-C , 20-C ) :   0.1017 B( 17-C , 33-H ) :   0.9554
B( 18-C , 19-C ) :   1.2365 B( 18-C , 21-H ) :   0.9764 B( 19-C , 20-C ) :   1.5778
B( 19-C , 22-C ) :   1.0420 B( 22-C , 23-H ) :   0.9158 B( 22-C , 24-H ) :   0.9327
B( 22-C , 25-C ) :   1.0989 B( 25-C , 26-H ) :   0.9449 B( 25-C , 27-H ) :   0.9514
B( 25-C , 28-C ) :   1.0728 B( 28-C , 29-H ) :   0.9753 B( 28-C , 30-H ) :   0.9781
B( 28-C , 31-H ) :   0.9736

Dispersion correction           -0.013875235
FINAL SINGLE POINT ENERGY     -1339.858037922825

DIPOLE MOMENT
-------------
                                X             Y             Z
Electronic contribution:    -15.32664     -15.70514     -15.54533
Nuclear contribution   :     15.89369      16.11881      15.79225
                        -----------------------------------------
Total Dipole Moment    :      0.56705       0.41367       0.24692
                        -----------------------------------------
Magnitude (a.u.)       :      0.74407
Magnitude (Debye)      :      1.89127

Rotational constants in cm-1:     0.018613     0.008088     0.006446
Rotational constants in MHz :   557.999790   242.467803   193.244183

                             ****ORCA TERMINATED NORMALLY****
TOTAL RUN TIME: 0 days 0 hours 0 minutes 31 seconds 373 msec
