                         Program Version 4.2.1 -  RELEASE  -
|  1> ! wB97X-D3 SP def2-SVP
|  2> %pal
|  3> nprocs 16
|  4> end
|  5>
|  6> * xyz 0 1
|  7> S 	 4.13113 	 15.5281 	 87.0527
|  8> C 	 4.03275 	 15.7074 	 85.3137
|  9> C 	 5.17605 	 15.1656 	 84.6976
| 10> C 	 6.06291 	 14.6286 	 85.6325
| 11> C 	 5.67759 	 14.7839 	 86.9499
| 12> H 	 7.00469 	 14.2165 	 85.3996
| 13> C 	 5.60274 	 15.2552 	 83.2606
| 14> H 	 4.83907 	 14.8223 	 82.734
| 15> H 	 6.5493 	 14.5789 	 83.2029
| 16> C 	 6.02665 	 16.6846 	 82.8583
| 17> H 	 5.17406 	 17.3978 	 83.1109
| 18> H 	 6.85172 	 17.0405 	 83.4844
| 19> C 	 6.62184 	 16.8738 	 81.4397
| 20> H 	 7.39091 	 16.1481 	 81.2222
| 21> H 	 5.8474 	 16.7433 	 80.6625
| 22> H 	 7.06352 	 17.8706 	 81.3905
| 23> S 	 5.79575 	 12.9864 	 89.169
| 24> C 	 7.28892 	 13.0214 	 90.1375
| 25> C 	 8.01583 	 14.1886 	 89.8909
| 26> C 	 7.63312 	 14.7818 	 88.6493
| 27> C 	 6.413 	 14.3032 	 88.1463
| 28> H 	 8.88125 	 14.4651 	 90.5206
| 29> C 	 8.48724 	 15.9215 	 88.0028
| 30> H 	 8.83278 	 15.7209 	 86.9768
| 31> H 	 9.35695 	 15.8226 	 88.6709
| 32> C 	 7.8893 	 17.3259 	 88.1854
| 33> H 	 8.66981 	 17.9578 	 88.7284
| 34> H 	 7.04867 	 17.2786 	 88.906
| 35> C 	 7.55271 	 17.9929 	 86.8895
| 36> H 	 8.32401 	 17.7483 	 86.1616
| 37> H 	 7.43069 	 19.0339 	 87.071
| 38> H 	 6.64088 	 17.5615 	 86.4459
| 39> H 	 3.29755 	 16.332 	 84.7949
| 40> H 	 7.47808 	 12.3834 	 91.0489
| 41> *
| 42>
| 43>                          ****END OF INPUT****

CARTESIAN COORDINATES (ANGSTROEM)
---------------------------------
  S      4.131130   15.528100   87.052700
  C      4.032750   15.707400   85.313700
  C      5.176050   15.165600   84.697600
  C      6.062910   14.628600   85.632500
  C      5.677590   14.783900   86.949900
  H      7.004690   14.216500   85.399600
  C      5.602740   15.255200   83.260600
  H      4.839070   14.822300   82.734000
  H      6.549300   14.578900   83.202900
  C      6.026650   16.684600   82.858300
  H      5.174060   17.397800   83.110900
  H      6.851720   17.040500   83.484400
  C      6.621840   16.873800   81.439700
  H      7.390910   16.148100   81.222200
  H      5.847400   16.743300   80.662500
  H      7.063520   17.870600   81.390500
  S      5.795750   12.986400   89.169000
  C      7.288920   13.021400   90.137500
  C      8.015830   14.188600   89.890900
  C      7.633120   14.781800   88.649300
  C      6.413000   14.303200   88.146300
  H      8.881250   14.465100   90.520600
  C      8.487240   15.921500   88.002800
  H      8.832780   15.720900   86.976800
  H      9.356950   15.822600   88.670900
  C      7.889300   17.325900   88.185400
  H      8.669810   17.957800   88.728400
  H      7.048670   17.278600   88.906000
  C      7.552710   17.992900   86.889500
  H      8.324010   17.748300   86.161600
  H      7.430690   19.033900   87.071000
  H      6.640880   17.561500   86.445900
  H      3.297550   16.332000   84.794900
  H      7.478080   12.383400   91.048900

 Total Charge           Charge          ....    0
 Multiplicity           Mult            ....    1
 Number of Electrons    NEL             ....  134
 Basis Dimension        Dim             ....  322

ORBITAL ENERGIES
----------------

  NO   OCC          E(Eh)            E(eV)
   0   2.0000     -88.970727     -2421.0166
   1   2.0000     -88.968112     -2420.9454
   2   2.0000     -10.329118      -281.0696
   3   2.0000     -10.327780      -281.0332
   4   2.0000     -10.325739      -280.9776
   5   2.0000     -10.317128      -280.7433
   6   2.0000     -10.306712      -280.4599
   7   2.0000     -10.300260      -280.2843
   8   2.0000     -10.298706      -280.2420
   9   2.0000     -10.295357      -280.1509
  10   2.0000     -10.293796      -280.1084
  11   2.0000     -10.293457      -280.0992
  12   2.0000     -10.285604      -279.8855
  13   2.0000     -10.284684      -279.8605
  14   2.0000     -10.281955      -279.7862
  15   2.0000     -10.267997      -279.4064
  16   2.0000      -8.085410      -220.0152
  17   2.0000      -8.081666      -219.9133
  18   2.0000      -6.043781      -164.4596
  19   2.0000      -6.040239      -164.3633
  20   2.0000      -6.039783      -164.3508
  21   2.0000      -6.036465      -164.2606
  22   2.0000      -6.036406      -164.2590
  23   2.0000      -6.032356      -164.1487
  24   2.0000      -1.005513       -27.3614
  25   2.0000      -0.980882       -26.6912
  26   2.0000      -0.911581       -24.8054
  27   2.0000      -0.904559       -24.6143
  28   2.0000      -0.862406       -23.4673
  29   2.0000      -0.852869       -23.2077
  30   2.0000      -0.846907       -23.0455
  31   2.0000      -0.811436       -22.0803
  32   2.0000      -0.782799       -21.3010
  33   2.0000      -0.767859       -20.8945
  34   2.0000      -0.702370       -19.1125
  35   2.0000      -0.698255       -19.0005
  36   2.0000      -0.683524       -18.5996
  37   2.0000      -0.656845       -17.8736
  38   2.0000      -0.643088       -17.4993
  39   2.0000      -0.620458       -16.8835
  40   2.0000      -0.592613       -16.1258
  41   2.0000      -0.565846       -15.3975
  42   2.0000      -0.556581       -15.1453
  43   2.0000      -0.552756       -15.0413
  44   2.0000      -0.532992       -14.5035
  45   2.0000      -0.524394       -14.2695
  46   2.0000      -0.518344       -14.1049
  47   2.0000      -0.507043       -13.7974
  48   2.0000      -0.504850       -13.7377
  49   2.0000      -0.496738       -13.5169
  50   2.0000      -0.492788       -13.4095
  51   2.0000      -0.477395       -12.9906
  52   2.0000      -0.470814       -12.8115
  53   2.0000      -0.464965       -12.6523
  54   2.0000      -0.459381       -12.5004
  55   2.0000      -0.448648       -12.2083
  56   2.0000      -0.444247       -12.0886
  57   2.0000      -0.439374       -11.9560
  58   2.0000      -0.432617       -11.7721
  59   2.0000      -0.427178       -11.6241
  60   2.0000      -0.422487       -11.4964
  61   2.0000      -0.412249       -11.2179
  62   2.0000      -0.395451       -10.7608
  63   2.0000      -0.340364        -9.2618
  64   2.0000      -0.332721        -9.0538
  65   2.0000      -0.327709        -8.9174
  66   2.0000      -0.295679        -8.0458
  67   0.0000       0.035425         0.9640
  68   0.0000       0.052783         1.4363
  69   0.0000       0.110775         3.0143
  70   0.0000       0.121404         3.3036
  71   0.0000       0.126097         3.4313

MULLIKEN ATOMIC CHARGES
-----------------------
   0 S :    0.129122
   1 C :   -0.144807
   2 C :   -0.096132
   3 C :    0.052549
   4 C :   -0.180276
   5 H :   -0.009856
   6 C :    0.096688
   7 H :    0.018372
   8 H :    0.031177
   9 C :   -0.109603
  10 H :    0.035671
  11 H :    0.029295
  12 C :   -0.032949
  13 H :    0.027704
  14 H :    0.033569
  15 H :    0.040427
  16 S :    0.110725
  17 C :   -0.124606
  18 C :   -0.036846
  19 C :   -0.081734
  20 C :   -0.146012
  21 H :    0.040543
  22 C :    0.081916
  23 H :    0.035736
  24 H :    0.011162
  25 C :   -0.088316
  26 H :    0.028888
  27 H :    0.038072
  28 C :   -0.020727
  29 H :    0.021955
  30 H :    0.030963
  31 H :    0.039956
  32 H :    0.056984
  33 H :    0.080389
Sum of atomic charges:    0.0000000

LOEWDIN ATOMIC CHARGES
----------------------
   0 S :    0.432511
   1 C :   -0.210865
   2 C :   -0.061162
   3 C :   -0.060527
   4 C :   -0.204590
   5 H :    0.023598
   6 C :   -0.026349
   7 H :    0.018506
   8 H :    0.040217
   9 C :   -0.046470
  10 H :    0.028372
  11 H :    0.027024
  12 C :   -0.065189
  13 H :    0.023156
  14 H :    0.024799
  15 H :    0.029818
  16 S :    0.386324
  17 C :   -0.187043
  18 C :   -0.077107
  19 C :   -0.053268
  20 C :   -0.201195
  21 H :    0.038478
  22 C :   -0.031409
  23 H :    0.030141
  24 H :    0.031544
  25 C :   -0.047712
  26 H :    0.027712
  27 H :    0.027185
  28 C :   -0.061998
  29 H :    0.022014
  30 H :    0.022792
  31 H :    0.028870
  32 H :    0.030590
  33 H :    0.041233

  Mayer bond orders larger than 0.100000
B(  0-S ,  1-C ) :   1.1530 B(  0-S ,  4-C ) :   1.1783 B(  1-C ,  2-C ) :   1.5587
B(  1-C ,  4-C ) :   0.1087 B(  1-C , 32-H ) :   0.9692 B(  2-C ,  3-C ) :   1.2931
B(  2-C ,  6-C ) :   1.0123 B(  3-C ,  4-C ) :   1.5496 B(  3-C ,  5-H ) :   1.0003
B(  4-C , 20-C ) :   1.0154 B(  6-C ,  7-H ) :   0.9309 B(  6-C ,  8-H ) :   0.9431
B(  6-C ,  9-C ) :   1.0601 B(  9-C , 10-H ) :   0.9562 B(  9-C , 11-H ) :   0.9554
B(  9-C , 12-C ) :   1.0781 B( 12-C , 13-H ) :   0.9732 B( 12-C , 14-H ) :   0.9761
B( 12-C , 15-H ) :   0.9762 B( 16-S , 17-C ) :   1.1568 B( 16-S , 20-C ) :   1.1315
B( 17-C , 18-C ) :   1.6150 B( 17-C , 20-C ) :   0.1055 B( 17-C , 33-H ) :   0.9568
B( 18-C , 19-C ) :   1.2598 B( 18-C , 21-H ) :   0.9728 B( 19-C , 20-C ) :   1.5954
B( 19-C , 22-C ) :   1.0308 B( 22-C , 23-H ) :   0.9461 B( 22-C , 24-H ) :   0.9313
B( 22-C , 25-C ) :   1.0414 B( 25-C , 26-H ) :   0.9578 B( 25-C , 27-H ) :   0.9599
B( 25-C , 28-C ) :   1.0831 B( 28-C , 29-H ) :   0.9758 B( 28-C , 30-H ) :   0.9692
B( 28-C , 31-H ) :   0.9727

Dispersion correction           -0.016030495
FINAL SINGLE POINT ENERGY     -1339.870827186138

DIPOLE MOMENT
-------------
                                X             Y             Z
Electronic contribution:    -13.44099     -17.65494      20.33092
Nuclear contribution   :     13.94205      18.01464     -20.60539
                        -----------------------------------------
Total Dipole Moment    :      0.50107       0.35970      -0.27447
                        -----------------------------------------
Magnitude (a.u.)       :      0.67512
Magnitude (Debye)      :      1.71602

Rotational constants in cm-1:     0.021983     0.008545     0.007297
Rotational constants in MHz :   659.045938   256.173971   218.771916

                             ****ORCA TERMINATED NORMALLY****
TOTAL RUN TIME: 0 days 0 hours 0 minutes 34 seconds 969 msec
