                         Program Version 4.2.1 -  RELEASE  -
|  1> ! wB97X-D3 SP def2-SVP
|  2> %pal
|  3> nprocs 16
|  4> end
|  5>
|  6> * xyz 0 1
|  7> S 	 -46.3305 	 27.5085 	 84.0161
|  8> C 	 -46.1048 	 25.6675 	 83.9292
|  9> C 	 -46.0003 	 25.2619 	 82.5877
| 10> C 	 -45.9308 	 26.3817 	 81.7015
| 11> C 	 -46.1133 	 27.6394 	 82.2896
| 12> H 	 -45.7737 	 26.3507 	 80.652
| 13> C 	 -45.946 	 23.7736 	 82.1501
| 14> H 	 -46.214 	 23.6954 	 81.1157
| 15> H 	 -46.7884 	 23.2392 	 82.6383
| 16> C 	 -44.5983 	 22.9843 	 82.3347
| 17> H 	 -44.7771 	 21.9338 	 82.0508
| 18> H 	 -43.8089 	 23.3484 	 81.6145
| 19> C 	 -44.1135 	 22.9641 	 83.8252
| 20> H 	 -43.2936 	 22.202 	 83.9492
| 21> H 	 -43.8701 	 23.9005 	 84.292
| 22> H 	 -44.9989 	 22.6272 	 84.3953
| 23> S 	 -47.6008 	 29.8501 	 81.6494
| 24> C 	 -46.87 	 30.9585 	 80.5377
| 25> C 	 -45.5445 	 30.6816 	 80.2265
| 26> C 	 -45.1505 	 29.446 	 80.7116
| 27> C 	 -46.1303 	 28.851 	 81.5788
| 28> H 	 -44.9443 	 31.404 	 79.7406
| 29> C 	 -43.7269 	 28.8758 	 80.4781
| 30> H 	 -43.5138 	 28.2482 	 81.3503
| 31> H 	 -42.9424 	 29.6252 	 80.461
| 32> C 	 -43.5175 	 27.9458 	 79.2326
| 33> H 	 -44.1889 	 27.0064 	 79.2451
| 34> H 	 -42.4275 	 27.6946 	 79.1605
| 35> C 	 -43.6465 	 28.6176 	 77.8488
| 36> H 	 -44.611 	 28.9897 	 77.6617
| 37> H 	 -43.4077 	 27.909 	 77.0552
| 38> H 	 -42.9276 	 29.4288 	 77.6602
| 39> H 	 -46.0173 	 24.9592 	 84.7729
| 40> H 	 -47.2811 	 31.9493 	 80.4102
| 41> *
| 42>
| 43>                          ****END OF INPUT****

CARTESIAN COORDINATES (ANGSTROEM)
---------------------------------
  S    -46.330500   27.508500   84.016100
  C    -46.104800   25.667500   83.929200
  C    -46.000300   25.261900   82.587700
  C    -45.930800   26.381700   81.701500
  C    -46.113300   27.639400   82.289600
  H    -45.773700   26.350700   80.652000
  C    -45.946000   23.773600   82.150100
  H    -46.214000   23.695400   81.115700
  H    -46.788400   23.239200   82.638300
  C    -44.598300   22.984300   82.334700
  H    -44.777100   21.933800   82.050800
  H    -43.808900   23.348400   81.614500
  C    -44.113500   22.964100   83.825200
  H    -43.293600   22.202000   83.949200
  H    -43.870100   23.900500   84.292000
  H    -44.998900   22.627200   84.395300
  S    -47.600800   29.850100   81.649400
  C    -46.870000   30.958500   80.537700
  C    -45.544500   30.681600   80.226500
  C    -45.150500   29.446000   80.711600
  C    -46.130300   28.851000   81.578800
  H    -44.944300   31.404000   79.740600
  C    -43.726900   28.875800   80.478100
  H    -43.513800   28.248200   81.350300
  H    -42.942400   29.625200   80.461000
  C    -43.517500   27.945800   79.232600
  H    -44.188900   27.006400   79.245100
  H    -42.427500   27.694600   79.160500
  C    -43.646500   28.617600   77.848800
  H    -44.611000   28.989700   77.661700
  H    -43.407700   27.909000   77.055200
  H    -42.927600   29.428800   77.660200
  H    -46.017300   24.959200   84.772900
  H    -47.281100   31.949300   80.410200

 Total Charge           Charge          ....    0
 Multiplicity           Mult            ....    1
 Number of Electrons    NEL             ....  134
 Basis Dimension        Dim             ....  322

ORBITAL ENERGIES
----------------

  NO   OCC          E(Eh)            E(eV)
   0   2.0000     -88.970255     -2421.0037
   1   2.0000     -88.970074     -2420.9988
   2   2.0000     -10.328287      -281.0470
   3   2.0000     -10.327163      -281.0164
   4   2.0000     -10.326899      -281.0092
   5   2.0000     -10.314163      -280.6626
   6   2.0000     -10.310462      -280.5619
   7   2.0000     -10.308513      -280.5089
   8   2.0000     -10.300501      -280.2909
   9   2.0000     -10.300179      -280.2821
  10   2.0000     -10.298912      -280.2476
  11   2.0000     -10.296097      -280.1710
  12   2.0000     -10.293879      -280.1107
  13   2.0000     -10.290048      -280.0064
  14   2.0000     -10.284869      -279.8655
  15   2.0000     -10.271757      -279.5087
  16   2.0000      -8.084768      -219.9977
  17   2.0000      -8.083124      -219.9530
  18   2.0000      -6.043046      -164.4396
  19   2.0000      -6.041787      -164.4054
  20   2.0000      -6.039315      -164.3381
  21   2.0000      -6.037936      -164.3006
  22   2.0000      -6.035784      -164.2420
  23   2.0000      -6.033734      -164.1862
  24   2.0000      -1.003280       -27.3006
  25   2.0000      -0.975246       -26.5378
  26   2.0000      -0.904657       -24.6170
  27   2.0000      -0.900021       -24.4908
  28   2.0000      -0.867119       -23.5955
  29   2.0000      -0.851730       -23.1768
  30   2.0000      -0.841322       -22.8935
  31   2.0000      -0.807004       -21.9597
  32   2.0000      -0.786977       -21.4147
  33   2.0000      -0.774168       -21.0662
  34   2.0000      -0.709910       -19.3176
  35   2.0000      -0.697062       -18.9680
  36   2.0000      -0.685382       -18.6502
  37   2.0000      -0.661806       -18.0087
  38   2.0000      -0.638279       -17.3685
  39   2.0000      -0.612804       -16.6752
  40   2.0000      -0.593329       -16.1453
  41   2.0000      -0.566107       -15.4045
  42   2.0000      -0.554182       -15.0801
  43   2.0000      -0.546396       -14.8682
  44   2.0000      -0.544373       -14.8131
  45   2.0000      -0.533414       -14.5149
  46   2.0000      -0.518383       -14.1059
  47   2.0000      -0.506567       -13.7844
  48   2.0000      -0.498074       -13.5533
  49   2.0000      -0.494524       -13.4567
  50   2.0000      -0.486182       -13.2297
  51   2.0000      -0.475175       -12.9302
  52   2.0000      -0.468183       -12.7399
  53   2.0000      -0.466833       -12.7032
  54   2.0000      -0.459557       -12.5052
  55   2.0000      -0.453093       -12.3293
  56   2.0000      -0.442810       -12.0495
  57   2.0000      -0.435094       -11.8395
  58   2.0000      -0.429637       -11.6910
  59   2.0000      -0.425414       -11.5761
  60   2.0000      -0.420785       -11.4501
  61   2.0000      -0.420115       -11.4319
  62   2.0000      -0.409599       -11.1458
  63   2.0000      -0.342441        -9.3183
  64   2.0000      -0.336480        -9.1561
  65   2.0000      -0.330802        -9.0016
  66   2.0000      -0.286978        -7.8091
  67   0.0000       0.021997         0.5986
  68   0.0000       0.057659         1.5690
  69   0.0000       0.101121         2.7517
  70   0.0000       0.117984         3.2105
  71   0.0000       0.122543         3.3346

MULLIKEN ATOMIC CHARGES
-----------------------
   0 S :    0.107398
   1 C :   -0.144332
   2 C :   -0.064763
   3 C :    0.047222
   4 C :   -0.156416
   5 H :   -0.011907
   6 C :    0.046665
   7 H :    0.017079
   8 H :    0.041100
   9 C :   -0.076746
  10 H :    0.036225
  11 H :    0.044390
  12 C :   -0.082305
  13 H :    0.048386
  14 H :    0.046577
  15 H :    0.023454
  16 S :    0.123013
  17 C :   -0.089784
  18 C :   -0.034333
  19 C :    0.004293
  20 C :   -0.186951
  21 H :    0.009674
  22 C :    0.073409
  23 H :    0.038618
  24 H :    0.022879
  25 C :   -0.111810
  26 H :    0.047852
  27 H :    0.038951
  28 C :   -0.053170
  29 H :    0.026211
  30 H :    0.029100
  31 H :    0.022639
  32 H :    0.060735
  33 H :    0.056644
Sum of atomic charges:    0.0000000

LOEWDIN ATOMIC CHARGES
----------------------
   0 S :    0.373601
   1 C :   -0.175349
   2 C :   -0.056461
   3 C :   -0.055654
   4 C :   -0.203052
   5 H :    0.022304
   6 C :   -0.034574
   7 H :    0.027678
   8 H :    0.036640
   9 C :   -0.039396
  10 H :    0.027791
  11 H :    0.028178
  12 C :   -0.074290
  13 H :    0.033632
  14 H :    0.020574
  15 H :    0.023949
  16 S :    0.416051
  17 C :   -0.192218
  18 C :   -0.065978
  19 C :   -0.047485
  20 C :   -0.197586
  21 H :    0.029438
  22 C :   -0.031087
  23 H :    0.035840
  24 H :    0.029621
  25 C :   -0.045573
  26 H :    0.029969
  27 H :    0.032547
  28 C :   -0.071512
  29 H :    0.013424
  30 H :    0.027460
  31 H :    0.023558
  32 H :    0.033557
  33 H :    0.024404

  Mayer bond orders larger than 0.100000
B(  0-S ,  1-C ) :   1.1159 B(  0-S ,  4-C ) :   1.1363 B(  1-C ,  2-C ) :   1.6094
B(  1-C ,  4-C ) :   0.1028 B(  1-C , 32-H ) :   0.9640 B(  2-C ,  3-C ) :   1.2393
B(  2-C ,  6-C ) :   1.0093 B(  3-C ,  4-C ) :   1.5594 B(  3-C ,  5-H ) :   0.9973
B(  4-C , 20-C ) :   1.0892 B(  6-C ,  7-H ) :   0.9408 B(  6-C ,  8-H ) :   0.9454
B(  6-C ,  9-C ) :   1.0733 B(  9-C , 10-H ) :   0.9544 B(  9-C , 11-H ) :   0.9581
B(  9-C , 12-C ) :   1.0670 B( 12-C , 13-H ) :   0.9738 B( 12-C , 14-H ) :   0.9744
B( 12-C , 15-H ) :   0.9730 B( 16-S , 17-C ) :   1.1739 B( 16-S , 20-C ) :   1.1547
B( 17-C , 18-C ) :   1.5756 B( 17-C , 20-C ) :   0.1205 B( 17-C , 33-H ) :   0.9610
B( 18-C , 19-C ) :   1.2813 B( 18-C , 21-H ) :   0.9970 B( 19-C , 20-C ) :   1.5324
B( 19-C , 22-C ) :   1.0295 B( 22-C , 23-H ) :   0.9311 B( 22-C , 24-H ) :   0.9443
B( 22-C , 25-C ) :   1.0732 B( 25-C , 26-H ) :   0.9508 B( 25-C , 27-H ) :   0.9554
B( 25-C , 28-C ) :   1.0731 B( 28-C , 29-H ) :   0.9758 B( 28-C , 30-H ) :   0.9731
B( 28-C , 31-H ) :   0.9746

Dispersion correction           -0.014785984
FINAL SINGLE POINT ENERGY     -1339.869068861340

DIPOLE MOMENT
-------------
                                X             Y             Z
Electronic contribution:    -18.03575      18.67136      11.85144
Nuclear contribution   :     18.47259     -18.98729     -12.19223
                        -----------------------------------------
Total Dipole Moment    :      0.43684      -0.31593      -0.34079
                        -----------------------------------------
Magnitude (a.u.)       :      0.63779
Magnitude (Debye)      :      1.62113

Rotational constants in cm-1:     0.019387     0.008732     0.006605
Rotational constants in MHz :   581.210870   261.785037   198.015522

                             ****ORCA TERMINATED NORMALLY****
TOTAL RUN TIME: 0 days 0 hours 0 minutes 30 seconds 189 msec
