                         Program Version 4.2.1 -  RELEASE  -
|  1> ! wB97X-D3 SP def2-SVP
|  2> %pal
|  3> nprocs 16
|  4> end
|  5>
|  6> * xyz 0 1
|  7> S 	 -48.2969 	 32.3201 	 92.9633
|  8> C 	 -48.4671 	 32.2081 	 91.2466
|  9> C 	 -49.4599 	 33.1108 	 90.8691
| 10> C 	 -50.0019 	 33.9062 	 91.9482
| 11> C 	 -49.4781 	 33.5771 	 93.1496
| 12> H 	 -50.7889 	 34.661 	 91.9216
| 13> C 	 -49.89 	 33.2242 	 89.4796
| 14> H 	 -49.0006 	 33.2964 	 88.8167
| 15> H 	 -50.411 	 34.0795 	 89.2503
| 16> C 	 -50.746 	 32.0117 	 88.988
| 17> H 	 -50.9392 	 32.1498 	 87.9293
| 18> H 	 -50.1128 	 31.1544 	 89.1224
| 19> C 	 -52.0586 	 31.8603 	 89.8258
| 20> H 	 -51.8027 	 31.5327 	 90.8035
| 21> H 	 -52.5805 	 32.8923 	 89.9077
| 22> H 	 -52.6132 	 31.002 	 89.4578
| 23> S 	 -48.2807 	 35.3893 	 94.706
| 24> C 	 -49.2048 	 36.2787 	 95.9287
| 25> C 	 -50.4891 	 35.7089 	 96.1153
| 26> C 	 -50.7465 	 34.6269 	 95.2305
| 27> C 	 -49.718 	 34.3492 	 94.3876
| 28> H 	 -51.0852 	 35.93 	 97.0017
| 29> C 	 -52.0646 	 33.825 	 95.2537
| 30> H 	 -51.9853 	 33.3268 	 96.1556
| 31> H 	 -52.1101 	 33.0768 	 94.4177
| 32> C 	 -53.3872 	 34.564 	 95.1328
| 33> H 	 -53.5065 	 35.3159 	 95.8559
| 34> H 	 -54.2307 	 33.8526 	 95.3132
| 35> C 	 -53.5801 	 34.99 	 93.65
| 36> H 	 -52.8944 	 35.814 	 93.4196
| 37> H 	 -54.5034 	 35.5321 	 93.5682
| 38> H 	 -53.4779 	 34.1747 	 92.9668
| 39> H 	 -47.9451 	 31.5017 	 90.5927
| 40> H 	 -48.7905 	 37.0576 	 96.4668
| 41> *
| 42>
| 43>                          ****END OF INPUT****

CARTESIAN COORDINATES (ANGSTROEM)
---------------------------------
  S    -48.296900   32.320100   92.963300
  C    -48.467100   32.208100   91.246600
  C    -49.459900   33.110800   90.869100
  C    -50.001900   33.906200   91.948200
  C    -49.478100   33.577100   93.149600
  H    -50.788900   34.661000   91.921600
  C    -49.890000   33.224200   89.479600
  H    -49.000600   33.296400   88.816700
  H    -50.411000   34.079500   89.250300
  C    -50.746000   32.011700   88.988000
  H    -50.939200   32.149800   87.929300
  H    -50.112800   31.154400   89.122400
  C    -52.058600   31.860300   89.825800
  H    -51.802700   31.532700   90.803500
  H    -52.580500   32.892300   89.907700
  H    -52.613200   31.002000   89.457800
  S    -48.280700   35.389300   94.706000
  C    -49.204800   36.278700   95.928700
  C    -50.489100   35.708900   96.115300
  C    -50.746500   34.626900   95.230500
  C    -49.718000   34.349200   94.387600
  H    -51.085200   35.930000   97.001700
  C    -52.064600   33.825000   95.253700
  H    -51.985300   33.326800   96.155600
  H    -52.110100   33.076800   94.417700
  C    -53.387200   34.564000   95.132800
  H    -53.506500   35.315900   95.855900
  H    -54.230700   33.852600   95.313200
  C    -53.580100   34.990000   93.650000
  H    -52.894400   35.814000   93.419600
  H    -54.503400   35.532100   93.568200
  H    -53.477900   34.174700   92.966800
  H    -47.945100   31.501700   90.592700
  H    -48.790500   37.057600   96.466800

 Total Charge           Charge          ....    0
 Multiplicity           Mult            ....    1
 Number of Electrons    NEL             ....  134
 Basis Dimension        Dim             ....  322

ORBITAL ENERGIES
----------------

  NO   OCC          E(Eh)            E(eV)
   0   2.0000     -88.963289     -2420.8142
   1   2.0000     -88.962820     -2420.8014
   2   2.0000     -10.327975      -281.0385
   3   2.0000     -10.325496      -280.9710
   4   2.0000     -10.321112      -280.8517
   5   2.0000     -10.314339      -280.6674
   6   2.0000     -10.306112      -280.4436
   7   2.0000     -10.299797      -280.2717
   8   2.0000     -10.298550      -280.2378
   9   2.0000     -10.290855      -280.0284
  10   2.0000     -10.289559      -279.9931
  11   2.0000     -10.286684      -279.9149
  12   2.0000     -10.284778      -279.8630
  13   2.0000     -10.280835      -279.7557
  14   2.0000     -10.278852      -279.7018
  15   2.0000     -10.275250      -279.6038
  16   2.0000      -8.078556      -219.8287
  17   2.0000      -8.076779      -219.7803
  18   2.0000      -6.037045      -164.2763
  19   2.0000      -6.035274      -164.2282
  20   2.0000      -6.032808      -164.1611
  21   2.0000      -6.031398      -164.1227
  22   2.0000      -6.029480      -164.0705
  23   2.0000      -6.027573      -164.0186
  24   2.0000      -1.007399       -27.4127
  25   2.0000      -0.981944       -26.7201
  26   2.0000      -0.912669       -24.8350
  27   2.0000      -0.909389       -24.7457
  28   2.0000      -0.866515       -23.5791
  29   2.0000      -0.849026       -23.1032
  30   2.0000      -0.841706       -22.9040
  31   2.0000      -0.813832       -22.1455
  32   2.0000      -0.783554       -21.3216
  33   2.0000      -0.772448       -21.0194
  34   2.0000      -0.705777       -19.2052
  35   2.0000      -0.703029       -19.1304
  36   2.0000      -0.695012       -18.9122
  37   2.0000      -0.665763       -18.1163
  38   2.0000      -0.645919       -17.5763
  39   2.0000      -0.608787       -16.5659
  40   2.0000      -0.599583       -16.3155
  41   2.0000      -0.578996       -15.7553
  42   2.0000      -0.562606       -15.3093
  43   2.0000      -0.546977       -14.8840
  44   2.0000      -0.544798       -14.8247
  45   2.0000      -0.537095       -14.6151
  46   2.0000      -0.522091       -14.2068
  47   2.0000      -0.516435       -14.0529
  48   2.0000      -0.501693       -13.6518
  49   2.0000      -0.495747       -13.4900
  50   2.0000      -0.487387       -13.2625
  51   2.0000      -0.478406       -13.0181
  52   2.0000      -0.470311       -12.7978
  53   2.0000      -0.463966       -12.6252
  54   2.0000      -0.460620       -12.5341
  55   2.0000      -0.439544       -11.9606
  56   2.0000      -0.438265       -11.9258
  57   2.0000      -0.436286       -11.8719
  58   2.0000      -0.432269       -11.7626
  59   2.0000      -0.429006       -11.6738
  60   2.0000      -0.421562       -11.4713
  61   2.0000      -0.416336       -11.3291
  62   2.0000      -0.409182       -11.1344
  63   2.0000      -0.341688        -9.2978
  64   2.0000      -0.330976        -9.0063
  65   2.0000      -0.320363        -8.7175
  66   2.0000      -0.302432        -8.2296
  67   0.0000       0.040530         1.1029
  68   0.0000       0.055911         1.5214
  69   0.0000       0.113690         3.0937
  70   0.0000       0.122944         3.3455
  71   0.0000       0.128842         3.5060

MULLIKEN ATOMIC CHARGES
-----------------------
   0 S :    0.110227
   1 C :   -0.130980
   2 C :   -0.093894
   3 C :    0.057843
   4 C :   -0.157413
   5 H :    0.010630
   6 C :    0.072427
   7 H :    0.030222
   8 H :   -0.007148
   9 C :   -0.068176
  10 H :    0.031841
  11 H :    0.015813
  12 C :   -0.060165
  13 H :    0.030472
  14 H :    0.048850
  15 H :    0.036859
  16 S :    0.092256
  17 C :   -0.071508
  18 C :   -0.040793
  19 C :   -0.024194
  20 C :   -0.175171
  21 H :    0.030991
  22 C :    0.078413
  23 H :    0.020138
  24 H :    0.031097
  25 C :   -0.068688
  26 H :    0.016219
  27 H :    0.033355
  28 C :   -0.048186
  29 H :    0.035831
  30 H :    0.024139
  31 H :    0.037979
  32 H :    0.063060
  33 H :    0.037653
Sum of atomic charges:    0.0000000

LOEWDIN ATOMIC CHARGES
----------------------
   0 S :    0.418017
   1 C :   -0.208065
   2 C :   -0.063525
   3 C :   -0.061952
   4 C :   -0.210739
   5 H :    0.035058
   6 C :   -0.036125
   7 H :    0.036692
   8 H :    0.013653
   9 C :   -0.029503
  10 H :    0.020343
  11 H :    0.015776
  12 C :   -0.070514
  13 H :    0.020665
  14 H :    0.035868
  15 H :    0.027751
  16 S :    0.381456
  17 C :   -0.155685
  18 C :   -0.075914
  19 C :   -0.055158
  20 C :   -0.175923
  21 H :    0.034416
  22 C :   -0.023401
  23 H :    0.023209
  24 H :    0.036684
  25 C :   -0.035998
  26 H :    0.012800
  27 H :    0.031102
  28 C :   -0.062781
  29 H :    0.026969
  30 H :    0.024407
  31 H :    0.022287
  32 H :    0.036253
  33 H :    0.011876

  Mayer bond orders larger than 0.100000
B(  0-S ,  1-C ) :   1.1401 B(  0-S ,  4-C ) :   1.1637 B(  1-C ,  2-C ) :   1.5763
B(  1-C , 32-H ) :   0.9724 B(  2-C ,  3-C ) :   1.2307 B(  2-C ,  6-C ) :   1.0467
B(  3-C ,  4-C ) :   1.5819 B(  3-C ,  5-H ) :   0.9977 B(  4-C , 20-C ) :   0.9780
B(  6-C ,  7-H ) :   0.9361 B(  6-C ,  8-H ) :   0.9389 B(  6-C ,  9-C ) :   1.0682
B(  9-C , 10-H ) :   0.9596 B(  9-C , 11-H ) :   0.9578 B(  9-C , 12-C ) :   1.0694
B( 12-C , 13-H ) :   0.9713 B( 12-C , 14-H ) :   0.9757 B( 12-C , 15-H ) :   0.9724
B( 16-S , 17-C ) :   1.1675 B( 16-S , 20-C ) :   1.1233 B( 17-C , 18-C ) :   1.5987
B( 17-C , 20-C ) :   0.1051 B( 17-C , 33-H ) :   0.9794 B( 18-C , 19-C ) :   1.2218
B( 18-C , 21-H ) :   0.9842 B( 19-C , 20-C ) :   1.6684 B( 19-C , 22-C ) :   1.0140
B( 22-C , 23-H ) :   0.9296 B( 22-C , 24-H ) :   0.9448 B( 22-C , 25-C ) :   1.0805
B( 25-C , 26-H ) :   0.9559 B( 25-C , 27-H ) :   0.9539 B( 25-C , 28-C ) :   1.0740
B( 28-C , 29-H ) :   0.9739 B( 28-C , 30-H ) :   0.9702 B( 28-C , 31-H ) :   0.9738

Dispersion correction           -0.015447656
FINAL SINGLE POINT ENERGY     -1339.866618927979

DIPOLE MOMENT
-------------
                                X             Y             Z
Electronic contribution:     24.47235       2.92798      12.50286
Nuclear contribution   :    -25.02189      -2.86338     -12.60672
                        -----------------------------------------
Total Dipole Moment    :     -0.54954       0.06460      -0.10386
                        -----------------------------------------
Magnitude (a.u.)       :      0.56298
Magnitude (Debye)      :      1.43099

Rotational constants in cm-1:     0.018952     0.009758     0.007256
Rotational constants in MHz :   568.158782   292.551627   217.522449

                             ****ORCA TERMINATED NORMALLY****
TOTAL RUN TIME: 0 days 0 hours 0 minutes 29 seconds 862 msec
