                         Program Version 4.2.1 -  RELEASE  -
|  1> ! wB97X-D3 SP def2-SVP
|  2> %pal
|  3> nprocs 16
|  4> end
|  5>
|  6> * xyz 0 1
|  7> S 	 -36.0468 	 39.4787 	 96.33
|  8> C 	 -35.8101 	 37.8473 	 96.8145
|  9> C 	 -36.1436 	 37.5881 	 98.1151
| 10> C 	 -36.7527 	 38.7513 	 98.7159
| 11> C 	 -36.78 	 39.8366 	 97.8825
| 12> H 	 -37.151 	 38.8319 	 99.7295
| 13> C 	 -36.0701 	 36.2797 	 98.9048
| 14> H 	 -35.1277 	 35.7127 	 98.5622
| 15> H 	 -36.9525 	 35.6758 	 98.6865
| 16> C 	 -36.0674 	 36.3694 	 100.439
| 17> H 	 -35.3163 	 37.097 	 100.888
| 18> H 	 -37.0019 	 36.6542 	 100.867
| 19> C 	 -35.6564 	 34.9209 	 101
| 20> H 	 -34.7189 	 34.594 	 100.644
| 21> H 	 -35.6756 	 34.8951 	 102.156
| 22> H 	 -36.3096 	 34.0602 	 100.705
| 23> S 	 -37.8537 	 42.1307 	 96.7974
| 24> C 	 -38.5493 	 43.2488 	 97.8405
| 25> C 	 -38.1669 	 43.0716 	 99.1495
| 26> C 	 -37.4616 	 41.8517 	 99.2942
| 27> C 	 -37.2699 	 41.1843 	 98.0982
| 28> H 	 -38.2869 	 43.8158 	 99.9
| 29> C 	 -36.7912 	 41.5746 	 100.608
| 30> H 	 -36.2056 	 42.3698 	 101.044
| 31> H 	 -36.0047 	 40.8509 	 100.41
| 32> C 	 -37.7316 	 41.1966 	 101.708
| 33> H 	 -38.2615 	 40.2777 	 101.424
| 34> H 	 -38.5024 	 41.953 	 101.874
| 35> C 	 -37.0326 	 40.812 	 103.021
| 36> H 	 -36.2457 	 40.051 	 102.916
| 37> H 	 -37.7271 	 40.5787 	 103.846
| 38> H 	 -36.4621 	 41.6311 	 103.473
| 39> H 	 -35.2621 	 37.1123 	 96.189
| 40> H 	 -39.009 	 44.229 	 97.4872
| 41> *
| 42>
| 43>                          ****END OF INPUT****

CARTESIAN COORDINATES (ANGSTROEM)
---------------------------------
  S    -36.046800   39.478700   96.330000
  C    -35.810100   37.847300   96.814500
  C    -36.143600   37.588100   98.115100
  C    -36.752700   38.751300   98.715900
  C    -36.780000   39.836600   97.882500
  H    -37.151000   38.831900   99.729500
  C    -36.070100   36.279700   98.904800
  H    -35.127700   35.712700   98.562200
  H    -36.952500   35.675800   98.686500
  C    -36.067400   36.369400  100.439000
  H    -35.316300   37.097000  100.888000
  H    -37.001900   36.654200  100.867000
  C    -35.656400   34.920900  101.000000
  H    -34.718900   34.594000  100.644000
  H    -35.675600   34.895100  102.156000
  H    -36.309600   34.060200  100.705000
  S    -37.853700   42.130700   96.797400
  C    -38.549300   43.248800   97.840500
  C    -38.166900   43.071600   99.149500
  C    -37.461600   41.851700   99.294200
  C    -37.269900   41.184300   98.098200
  H    -38.286900   43.815800   99.900000
  C    -36.791200   41.574600  100.608000
  H    -36.205600   42.369800  101.044000
  H    -36.004700   40.850900  100.410000
  C    -37.731600   41.196600  101.708000
  H    -38.261500   40.277700  101.424000
  H    -38.502400   41.953000  101.874000
  C    -37.032600   40.812000  103.021000
  H    -36.245700   40.051000  102.916000
  H    -37.727100   40.578700  103.846000
  H    -36.462100   41.631100  103.473000
  H    -35.262100   37.112300   96.189000
  H    -39.009000   44.229000   97.487200

 Total Charge           Charge          ....    0
 Multiplicity           Mult            ....    1
 Number of Electrons    NEL             ....  134
 Basis Dimension        Dim             ....  322

ORBITAL ENERGIES
----------------

  NO   OCC          E(Eh)            E(eV)
   0   2.0000     -88.967533     -2420.9297
   1   2.0000     -88.964473     -2420.8464
   2   2.0000     -10.327221      -281.0180
   3   2.0000     -10.321808      -280.8707
   4   2.0000     -10.316306      -280.7210
   5   2.0000     -10.311608      -280.5931
   6   2.0000     -10.303337      -280.3680
   7   2.0000     -10.301567      -280.3199
   8   2.0000     -10.299819      -280.2723
   9   2.0000     -10.296856      -280.1917
  10   2.0000     -10.292714      -280.0790
  11   2.0000     -10.289851      -280.0011
  12   2.0000     -10.288612      -279.9674
  13   2.0000     -10.286031      -279.8971
  14   2.0000     -10.284097      -279.8445
  15   2.0000     -10.280844      -279.7560
  16   2.0000      -8.084331      -219.9858
  17   2.0000      -8.080060      -219.8696
  18   2.0000      -6.042637      -164.4285
  19   2.0000      -6.038597      -164.3186
  20   2.0000      -6.038511      -164.3162
  21   2.0000      -6.035133      -164.2243
  22   2.0000      -6.034645      -164.2110
  23   2.0000      -6.030664      -164.1027
  24   2.0000      -1.019111       -27.7314
  25   2.0000      -0.992742       -27.0139
  26   2.0000      -0.917746       -24.9731
  27   2.0000      -0.907352       -24.6903
  28   2.0000      -0.871802       -23.7229
  29   2.0000      -0.856739       -23.3131
  30   2.0000      -0.843713       -22.9586
  31   2.0000      -0.813547       -22.1377
  32   2.0000      -0.782873       -21.3030
  33   2.0000      -0.770619       -20.9696
  34   2.0000      -0.712177       -19.3793
  35   2.0000      -0.701014       -19.0756
  36   2.0000      -0.689661       -18.7666
  37   2.0000      -0.667038       -18.1510
  38   2.0000      -0.636332       -17.3155
  39   2.0000      -0.623629       -16.9698
  40   2.0000      -0.605034       -16.4638
  41   2.0000      -0.569006       -15.4834
  42   2.0000      -0.565934       -15.3998
  43   2.0000      -0.560362       -15.2482
  44   2.0000      -0.531809       -14.4713
  45   2.0000      -0.521098       -14.1798
  46   2.0000      -0.514172       -13.9913
  47   2.0000      -0.504645       -13.7321
  48   2.0000      -0.500525       -13.6200
  49   2.0000      -0.498355       -13.5609
  50   2.0000      -0.486296       -13.2328
  51   2.0000      -0.483644       -13.1606
  52   2.0000      -0.471224       -12.8227
  53   2.0000      -0.463688       -12.6176
  54   2.0000      -0.462005       -12.5718
  55   2.0000      -0.456827       -12.4309
  56   2.0000      -0.448589       -12.2067
  57   2.0000      -0.440611       -11.9896
  58   2.0000      -0.433658       -11.8004
  59   2.0000      -0.427713       -11.6387
  60   2.0000      -0.425583       -11.5807
  61   2.0000      -0.418073       -11.3764
  62   2.0000      -0.409536       -11.1440
  63   2.0000      -0.361461        -9.8359
  64   2.0000      -0.335862        -9.1393
  65   2.0000      -0.328193        -8.9306
  66   2.0000      -0.283494        -7.7143
  67   0.0000       0.026304         0.7158
  68   0.0000       0.081374         2.2143
  69   0.0000       0.101925         2.7735
  70   0.0000       0.119302         3.2464
  71   0.0000       0.132393         3.6026

MULLIKEN ATOMIC CHARGES
-----------------------
   0 S :    0.098123
   1 C :   -0.130931
   2 C :   -0.053646
   3 C :   -0.018021
   4 C :   -0.110868
   5 H :    0.007660
   6 C :    0.028985
   7 H :    0.041929
   8 H :    0.052327
   9 C :   -0.098157
  10 H :    0.047254
  11 H :    0.036936
  12 C :   -0.077417
  13 H :    0.023062
  14 H :    0.045636
  15 H :    0.031474
  16 S :    0.128008
  17 C :   -0.107505
  18 C :   -0.019485
  19 C :   -0.039707
  20 C :   -0.119993
  21 H :    0.011110
  22 C :    0.040851
  23 H :    0.018669
  24 H :    0.017017
  25 C :   -0.071464
  26 H :    0.025459
  27 H :    0.031494
  28 C :   -0.052493
  29 H :    0.028996
  30 H :    0.038926
  31 H :    0.014705
  32 H :    0.052946
  33 H :    0.078118
Sum of atomic charges:   -0.0000000

LOEWDIN ATOMIC CHARGES
----------------------
   0 S :    0.404255
   1 C :   -0.210646
   2 C :   -0.065807
   3 C :   -0.068799
   4 C :   -0.178167
   5 H :    0.032756
   6 C :   -0.036780
   7 H :    0.039673
   8 H :    0.039250
   9 C :   -0.041855
  10 H :    0.031716
  11 H :    0.018626
  12 C :   -0.072276
  13 H :    0.014563
  14 H :    0.034119
  15 H :    0.027265
  16 S :    0.452518
  17 C :   -0.214729
  18 C :   -0.066528
  19 C :   -0.056489
  20 C :   -0.216659
  21 H :    0.028073
  22 C :   -0.037566
  23 H :    0.030529
  24 H :    0.028537
  25 C :   -0.041484
  26 H :    0.021777
  27 H :    0.025357
  28 C :   -0.073874
  29 H :    0.025687
  30 H :    0.030236
  31 H :    0.020980
  32 H :    0.033028
  33 H :    0.042716

  Mayer bond orders larger than 0.100000
B(  0-S ,  1-C ) :   1.1333 B(  0-S ,  4-C ) :   1.1411 B(  1-C ,  2-C ) :   1.6512
B(  1-C , 32-H ) :   0.9618 B(  2-C ,  3-C ) :   1.2192 B(  2-C ,  6-C ) :   1.0078
B(  3-C ,  4-C ) :   1.6072 B(  3-C ,  5-H ) :   0.9824 B(  4-C , 20-C ) :   1.0470
B(  6-C ,  7-H ) :   0.9504 B(  6-C ,  8-H ) :   0.9348 B(  6-C ,  9-C ) :   1.0676
B(  9-C , 10-H ) :   0.9613 B(  9-C , 11-H ) :   0.9465 B(  9-C , 12-C ) :   1.0655
B( 12-C , 13-H ) :   0.9786 B( 12-C , 14-H ) :   0.9763 B( 12-C , 15-H ) :   0.9755
B( 16-S , 17-C ) :   1.1900 B( 16-S , 20-C ) :   1.1473 B( 17-C , 18-C ) :   1.5671
B( 17-C , 33-H ) :   0.9553 B( 18-C , 19-C ) :   1.2735 B( 18-C , 21-H ) :   0.9970
B( 19-C , 20-C ) :   1.5683 B( 19-C , 22-C ) :   1.0402 B( 22-C , 23-H ) :   0.9416
B( 22-C , 24-H ) :   0.9382 B( 22-C , 25-C ) :   1.0522 B( 25-C , 26-H ) :   0.9498
B( 25-C , 27-H ) :   0.9548 B( 25-C , 28-C ) :   1.0850 B( 28-C , 29-H ) :   0.9731
B( 28-C , 30-H ) :   0.9735 B( 28-C , 31-H ) :   0.9696

Dispersion correction           -0.014076495
FINAL SINGLE POINT ENERGY     -1339.881273355787

DIPOLE MOMENT
-------------
                                X             Y             Z
Electronic contribution:     -3.33402      16.07448     -30.57434
Nuclear contribution   :      3.42769     -16.17019      31.19601
                        -----------------------------------------
Total Dipole Moment    :      0.09368      -0.09571       0.62167
                        -----------------------------------------
Magnitude (a.u.)       :      0.63593
Magnitude (Debye)      :      1.61641

Rotational constants in cm-1:     0.016931     0.009806     0.006420
Rotational constants in MHz :   507.580142   293.980905   192.463950

                             ****ORCA TERMINATED NORMALLY****
TOTAL RUN TIME: 0 days 0 hours 0 minutes 30 seconds 967 msec
