                         Program Version 4.2.1 -  RELEASE  -
|  1> ! wB97X-D3 SP def2-SVP
|  2> %pal
|  3> nprocs 16
|  4> end
|  5>
|  6> * xyz 0 1
|  7> S 	 -36.742 	 48.734 	 95.9097
|  8> C 	 -35.1395 	 48.7966 	 95.1557
|  9> C 	 -34.2331 	 49.6198 	 95.7898
| 10> C 	 -34.7985 	 50.2624 	 96.913
| 11> C 	 -36.1805 	 50.0317 	 96.9866
| 12> H 	 -34.3238 	 50.8889 	 97.6157
| 13> C 	 -32.7782 	 49.662 	 95.4014
| 14> H 	 -32.4348 	 50.5837 	 95.8119
| 15> H 	 -32.7046 	 49.5185 	 94.3223
| 16> C 	 -31.8398 	 48.6458 	 96.0294
| 17> H 	 -32.1956 	 47.6749 	 95.7283
| 18> H 	 -30.9114 	 48.6882 	 95.546
| 19> C 	 -31.6652 	 48.6809 	 97.5673
| 20> H 	 -31.6573 	 49.7001 	 98.0044
| 21> H 	 -32.6107 	 48.1233 	 97.8608
| 22> H 	 -30.7835 	 48.0171 	 97.8177
| 23> S 	 -38.7306 	 50.8696 	 97.4882
| 24> C 	 -39.1502 	 51.6357 	 99.0528
| 25> C 	 -37.9829 	 51.7164 	 99.8369
| 26> C 	 -36.8286 	 51.2042 	 99.2662
| 27> C 	 -37.0357 	 50.6258 	 98.0113
| 28> H 	 -37.9437 	 52.1039 	 100.889
| 29> C 	 -35.478 	 51.2342 	 100.068
| 30> H 	 -34.8496 	 50.483 	 99.643
| 31> H 	 -35.5452 	 51.0584 	 101.103
| 32> C 	 -34.7918 	 52.5793 	 99.7588
| 33> H 	 -35.4964 	 53.3859 	 100.008
| 34> H 	 -34.6183 	 52.6114 	 98.6963
| 35> C 	 -33.3872 	 52.8019 	 100.447
| 36> H 	 -33.1348 	 52.1954 	 101.277
| 37> H 	 -33.2308 	 53.7707 	 100.715
| 38> H 	 -32.6145 	 52.5737 	 99.7687
| 39> H 	 -34.9403 	 48.0538 	 94.441
| 40> H 	 -40.0605 	 52.0918 	 99.3674
| 41> *
| 42>
| 43>                          ****END OF INPUT****

CARTESIAN COORDINATES (ANGSTROEM)
---------------------------------
  S    -36.742000   48.734000   95.909700
  C    -35.139500   48.796600   95.155700
  C    -34.233100   49.619800   95.789800
  C    -34.798500   50.262400   96.913000
  C    -36.180500   50.031700   96.986600
  H    -34.323800   50.888900   97.615700
  C    -32.778200   49.662000   95.401400
  H    -32.434800   50.583700   95.811900
  H    -32.704600   49.518500   94.322300
  C    -31.839800   48.645800   96.029400
  H    -32.195600   47.674900   95.728300
  H    -30.911400   48.688200   95.546000
  C    -31.665200   48.680900   97.567300
  H    -31.657300   49.700100   98.004400
  H    -32.610700   48.123300   97.860800
  H    -30.783500   48.017100   97.817700
  S    -38.730600   50.869600   97.488200
  C    -39.150200   51.635700   99.052800
  C    -37.982900   51.716400   99.836900
  C    -36.828600   51.204200   99.266200
  C    -37.035700   50.625800   98.011300
  H    -37.943700   52.103900  100.889000
  C    -35.478000   51.234200  100.068000
  H    -34.849600   50.483000   99.643000
  H    -35.545200   51.058400  101.103000
  C    -34.791800   52.579300   99.758800
  H    -35.496400   53.385900  100.008000
  H    -34.618300   52.611400   98.696300
  C    -33.387200   52.801900  100.447000
  H    -33.134800   52.195400  101.277000
  H    -33.230800   53.770700  100.715000
  H    -32.614500   52.573700   99.768700
  H    -34.940300   48.053800   94.441000
  H    -40.060500   52.091800   99.367400

 Total Charge           Charge          ....    0
 Multiplicity           Mult            ....    1
 Number of Electrons    NEL             ....  134
 Basis Dimension        Dim             ....  322

ORBITAL ENERGIES
----------------

  NO   OCC          E(Eh)            E(eV)
   0   2.0000     -88.971976     -2421.0506
   1   2.0000     -88.968224     -2420.9485
   2   2.0000     -10.335815      -281.2518
   3   2.0000     -10.332395      -281.1588
   4   2.0000     -10.321093      -280.8512
   5   2.0000     -10.310896      -280.5737
   6   2.0000     -10.303636      -280.3762
   7   2.0000     -10.301706      -280.3237
   8   2.0000     -10.296320      -280.1771
   9   2.0000     -10.295175      -280.1459
  10   2.0000     -10.291809      -280.0544
  11   2.0000     -10.290977      -280.0317
  12   2.0000     -10.290395      -280.0159
  13   2.0000     -10.289585      -279.9938
  14   2.0000     -10.279684      -279.7244
  15   2.0000     -10.267209      -279.3850
  16   2.0000      -8.085839      -220.0269
  17   2.0000      -8.081337      -219.9044
  18   2.0000      -6.044222      -164.4716
  19   2.0000      -6.040786      -164.3781
  20   2.0000      -6.039934      -164.3550
  21   2.0000      -6.036475      -164.2608
  22   2.0000      -6.036047      -164.2492
  23   2.0000      -6.032129      -164.1426
  24   2.0000      -1.002773       -27.2868
  25   2.0000      -0.979370       -26.6500
  26   2.0000      -0.916696       -24.9446
  27   2.0000      -0.906171       -24.6582
  28   2.0000      -0.866224       -23.5712
  29   2.0000      -0.853838       -23.2341
  30   2.0000      -0.845875       -23.0174
  31   2.0000      -0.812104       -22.0985
  32   2.0000      -0.789448       -21.4820
  33   2.0000      -0.774706       -21.0808
  34   2.0000      -0.708423       -19.2772
  35   2.0000      -0.704310       -19.1653
  36   2.0000      -0.698836       -19.0163
  37   2.0000      -0.669689       -18.2232
  38   2.0000      -0.645200       -17.5568
  39   2.0000      -0.614525       -16.7221
  40   2.0000      -0.593675       -16.1547
  41   2.0000      -0.577424       -15.7125
  42   2.0000      -0.567269       -15.4362
  43   2.0000      -0.553123       -15.0512
  44   2.0000      -0.536293       -14.5933
  45   2.0000      -0.525890       -14.3102
  46   2.0000      -0.520356       -14.1596
  47   2.0000      -0.516154       -14.0453
  48   2.0000      -0.507117       -13.7994
  49   2.0000      -0.497658       -13.5420
  50   2.0000      -0.488087       -13.2815
  51   2.0000      -0.484909       -13.1950
  52   2.0000      -0.473987       -12.8978
  53   2.0000      -0.470430       -12.8011
  54   2.0000      -0.453381       -12.3371
  55   2.0000      -0.451347       -12.2818
  56   2.0000      -0.443869       -12.0783
  57   2.0000      -0.439426       -11.9574
  58   2.0000      -0.436700       -11.8832
  59   2.0000      -0.432753       -11.7758
  60   2.0000      -0.426037       -11.5930
  61   2.0000      -0.415939       -11.3183
  62   2.0000      -0.409308       -11.1378
  63   2.0000      -0.353662        -9.6236
  64   2.0000      -0.336168        -9.1476
  65   2.0000      -0.334830        -9.1112
  66   2.0000      -0.278761        -7.5855
  67   0.0000       0.015521         0.4224
  68   0.0000       0.069092         1.8801
  69   0.0000       0.096689         2.6310
  70   0.0000       0.115660         3.1473
  71   0.0000       0.117495         3.1972

MULLIKEN ATOMIC CHARGES
-----------------------
   0 S :    0.110475
   1 C :   -0.119265
   2 C :   -0.059992
   3 C :    0.006842
   4 C :   -0.096321
   5 H :   -0.034474
   6 C :    0.101646
   7 H :    0.005875
   8 H :    0.034714
   9 C :   -0.045858
  10 H :    0.003882
  11 H :    0.014378
  12 C :   -0.100454
  13 H :    0.045376
  14 H :    0.055910
  15 H :    0.054226
  16 S :    0.088175
  17 C :   -0.075034
  18 C :   -0.054240
  19 C :   -0.057772
  20 C :   -0.147749
  21 H :    0.033281
  22 C :    0.099255
  23 H :    0.012190
  24 H :    0.020354
  25 C :   -0.112727
  26 H :    0.031934
  27 H :    0.030939
  28 C :    0.039100
  29 H :    0.014696
  30 H :    0.011318
  31 H :    0.006510
  32 H :    0.032146
  33 H :    0.050664
Sum of atomic charges:    0.0000000

LOEWDIN ATOMIC CHARGES
----------------------
   0 S :    0.389041
   1 C :   -0.181251
   2 C :   -0.057746
   3 C :   -0.058153
   4 C :   -0.174964
   5 H :    0.020561
   6 C :   -0.024664
   7 H :    0.024179
   8 H :    0.038496
   9 C :   -0.039559
  10 H :    0.017886
  11 H :    0.013953
  12 C :   -0.077218
  13 H :    0.024164
  14 H :    0.038749
  15 H :    0.037613
  16 S :    0.379832
  17 C :   -0.178219
  18 C :   -0.074597
  19 C :   -0.060318
  20 C :   -0.177956
  21 H :    0.039474
  22 C :   -0.016294
  23 H :    0.022194
  24 H :    0.022219
  25 C :   -0.033979
  26 H :    0.024893
  27 H :    0.019553
  28 C :   -0.056798
  29 H :    0.021836
  30 H :    0.015978
  31 H :    0.021385
  32 H :    0.012647
  33 H :    0.027064

  Mayer bond orders larger than 0.100000
B(  0-S ,  1-C ) :   1.1259 B(  0-S ,  4-C ) :   1.1524 B(  1-C ,  2-C ) :   1.5984
B(  1-C , 32-H ) :   0.9745 B(  2-C ,  3-C ) :   1.2423 B(  2-C ,  6-C ) :   1.0311
B(  3-C ,  4-C ) :   1.5504 B(  3-C ,  5-H ) :   0.9979 B(  4-C , 20-C ) :   1.0637
B(  6-C ,  7-H ) :   0.9303 B(  6-C ,  8-H ) :   0.9349 B(  6-C ,  9-C ) :   1.0841
B(  9-C , 10-H ) :   0.9513 B(  9-C , 11-H ) :   0.9550 B(  9-C , 12-C ) :   1.0621
B( 12-C , 13-H ) :   0.9766 B( 12-C , 14-H ) :   0.9771 B( 12-C , 15-H ) :   0.9721
B( 16-S , 17-C ) :   1.1435 B( 16-S , 20-C ) :   1.1352 B( 17-C , 18-C ) :   1.5762
B( 17-C , 20-C ) :   0.1173 B( 17-C , 33-H ) :   0.9727 B( 18-C , 19-C ) :   1.2977
B( 18-C , 21-H ) :   0.9711 B( 19-C , 20-C ) :   1.5776 B( 19-C , 22-C ) :   1.0272
B( 22-C , 23-H ) :   0.9345 B( 22-C , 24-H ) :   0.9421 B( 22-C , 25-C ) :   1.0586
B( 25-C , 26-H ) :   0.9616 B( 25-C , 27-H ) :   0.9568 B( 25-C , 28-C ) :   1.0579
B( 28-C , 29-H ) :   0.9754 B( 28-C , 30-H ) :   0.9742 B( 28-C , 31-H ) :   0.9735

Dispersion correction           -0.014955614
FINAL SINGLE POINT ENERGY     -1339.855545258467

DIPOLE MOMENT
-------------
                                X             Y             Z
Electronic contribution:    -29.62838      -4.77827     -10.76503
Nuclear contribution   :     30.35035       4.84400      11.08425
                        -----------------------------------------
Total Dipole Moment    :      0.72197       0.06573       0.31922
                        -----------------------------------------
Magnitude (a.u.)       :      0.79212
Magnitude (Debye)      :      2.01342

Rotational constants in cm-1:     0.017115     0.010389     0.006854
Rotational constants in MHz :   513.083181   311.450829   205.484896

                             ****ORCA TERMINATED NORMALLY****
TOTAL RUN TIME: 0 days 0 hours 0 minutes 29 seconds 433 msec
