                         Program Version 4.2.1 -  RELEASE  -
|  1> ! wB97X-D3 SP def2-SVP
|  2> %pal
|  3> nprocs 16
|  4> end
|  5>
|  6> * xyz 0 1
|  7> S 	 -28.5762 	 56.4438 	 110.294
|  8> C 	 -28.6512 	 57.2251 	 108.749
|  9> C 	 -29.2953 	 56.4059 	 107.807
| 10> C 	 -29.7564 	 55.1787 	 108.384
| 11> C 	 -29.4804 	 55.0827 	 109.743
| 12> H 	 -30.3247 	 54.3542 	 107.924
| 13> C 	 -29.4575 	 56.7061 	 106.243
| 14> H 	 -30.4904 	 56.6793 	 105.963
| 15> H 	 -28.9965 	 55.8681 	 105.702
| 16> C 	 -29.0583 	 58.0874 	 105.755
| 17> H 	 -29.6395 	 58.8347 	 106.17
| 18> H 	 -27.9839 	 58.2825 	 106.048
| 19> C 	 -28.9419 	 57.9935 	 104.193
| 20> H 	 -28.4024 	 57.1538 	 103.823
| 21> H 	 -29.8908 	 57.827 	 103.653
| 22> H 	 -28.4243 	 58.9048 	 103.858
| 23> S 	 -29.9132 	 54.5145 	 112.428
| 24> C 	 -30.365 	 52.8806 	 112.906
| 25> C 	 -30.3704 	 51.9764 	 111.838
| 26> C 	 -30.1987 	 52.6802 	 110.581
| 27> C 	 -29.8796 	 54.053 	 110.688
| 28> H 	 -30.4981 	 50.928 	 112.064
| 29> C 	 -29.9475 	 51.8529 	 109.317
| 30> H 	 -29.2542 	 51.032 	 109.497
| 31> H 	 -29.3496 	 52.5232 	 108.755
| 32> C 	 -31.2157 	 51.6828 	 108.563
| 33> H 	 -31.7198 	 52.6263 	 108.189
| 34> H 	 -31.9021 	 51.0319 	 109.132
| 35> C 	 -31.0864 	 50.9226 	 107.181
| 36> H 	 -30.5794 	 49.9394 	 107.315
| 37> H 	 -30.3881 	 51.5284 	 106.579
| 38> H 	 -32.0086 	 50.8053 	 106.68
| 39> H 	 -28.0694 	 58.089 	 108.534
| 40> H 	 -30.5597 	 52.5715 	 113.942
| 41> *
| 42>
| 43>                          ****END OF INPUT****

CARTESIAN COORDINATES (ANGSTROEM)
---------------------------------
  S    -28.576200   56.443800  110.294000
  C    -28.651200   57.225100  108.749000
  C    -29.295300   56.405900  107.807000
  C    -29.756400   55.178700  108.384000
  C    -29.480400   55.082700  109.743000
  H    -30.324700   54.354200  107.924000
  C    -29.457500   56.706100  106.243000
  H    -30.490400   56.679300  105.963000
  H    -28.996500   55.868100  105.702000
  C    -29.058300   58.087400  105.755000
  H    -29.639500   58.834700  106.170000
  H    -27.983900   58.282500  106.048000
  C    -28.941900   57.993500  104.193000
  H    -28.402400   57.153800  103.823000
  H    -29.890800   57.827000  103.653000
  H    -28.424300   58.904800  103.858000
  S    -29.913200   54.514500  112.428000
  C    -30.365000   52.880600  112.906000
  C    -30.370400   51.976400  111.838000
  C    -30.198700   52.680200  110.581000
  C    -29.879600   54.053000  110.688000
  H    -30.498100   50.928000  112.064000
  C    -29.947500   51.852900  109.317000
  H    -29.254200   51.032000  109.497000
  H    -29.349600   52.523200  108.755000
  C    -31.215700   51.682800  108.563000
  H    -31.719800   52.626300  108.189000
  H    -31.902100   51.031900  109.132000
  C    -31.086400   50.922600  107.181000
  H    -30.579400   49.939400  107.315000
  H    -30.388100   51.528400  106.579000
  H    -32.008600   50.805300  106.680000
  H    -28.069400   58.089000  108.534000
  H    -30.559700   52.571500  113.942000

 Total Charge           Charge          ....    0
 Multiplicity           Mult            ....    1
 Number of Electrons    NEL             ....  134
 Basis Dimension        Dim             ....  322

ORBITAL ENERGIES
----------------

  NO   OCC          E(Eh)            E(eV)
   0   2.0000     -88.967634     -2420.9324
   1   2.0000     -88.967028     -2420.9159
   2   2.0000     -10.335803      -281.2515
   3   2.0000     -10.331947      -281.1466
   4   2.0000     -10.322684      -280.8945
   5   2.0000     -10.314385      -280.6687
   6   2.0000     -10.311826      -280.5990
   7   2.0000     -10.310151      -280.5535
   8   2.0000     -10.299321      -280.2588
   9   2.0000     -10.297903      -280.2202
  10   2.0000     -10.296637      -280.1857
  11   2.0000     -10.293301      -280.0950
  12   2.0000     -10.290433      -280.0169
  13   2.0000     -10.287311      -279.9320
  14   2.0000     -10.282530      -279.8019
  15   2.0000     -10.278833      -279.7013
  16   2.0000      -8.083111      -219.9526
  17   2.0000      -8.080760      -219.8887
  18   2.0000      -6.041559      -164.3992
  19   2.0000      -6.039402      -164.3405
  20   2.0000      -6.037511      -164.2890
  21   2.0000      -6.035435      -164.2325
  22   2.0000      -6.033887      -164.1904
  23   2.0000      -6.031415      -164.1231
  24   2.0000      -1.006632       -27.3918
  25   2.0000      -0.978160       -26.6171
  26   2.0000      -0.912507       -24.8306
  27   2.0000      -0.910082       -24.7646
  28   2.0000      -0.868692       -23.6383
  29   2.0000      -0.851659       -23.1748
  30   2.0000      -0.842204       -22.9175
  31   2.0000      -0.811510       -22.0823
  32   2.0000      -0.782425       -21.2909
  33   2.0000      -0.770933       -20.9782
  34   2.0000      -0.713442       -19.4137
  35   2.0000      -0.699520       -19.0349
  36   2.0000      -0.689818       -18.7709
  37   2.0000      -0.666393       -18.1335
  38   2.0000      -0.641743       -17.4627
  39   2.0000      -0.614859       -16.7312
  40   2.0000      -0.590463       -16.0673
  41   2.0000      -0.573392       -15.6028
  42   2.0000      -0.569443       -15.4953
  43   2.0000      -0.562733       -15.3128
  44   2.0000      -0.534520       -14.5450
  45   2.0000      -0.523081       -14.2337
  46   2.0000      -0.518626       -14.1125
  47   2.0000      -0.512503       -13.9459
  48   2.0000      -0.507606       -13.8127
  49   2.0000      -0.502947       -13.6859
  50   2.0000      -0.489098       -13.3090
  51   2.0000      -0.484805       -13.1922
  52   2.0000      -0.472944       -12.8695
  53   2.0000      -0.465142       -12.6571
  54   2.0000      -0.460165       -12.5217
  55   2.0000      -0.455496       -12.3947
  56   2.0000      -0.448301       -12.1989
  57   2.0000      -0.443257       -12.0616
  58   2.0000      -0.427054       -11.6207
  59   2.0000      -0.420175       -11.4336
  60   2.0000      -0.414503       -11.2792
  61   2.0000      -0.410827       -11.1792
  62   2.0000      -0.402845       -10.9620
  63   2.0000      -0.360579        -9.8118
  64   2.0000      -0.335006        -9.1160
  65   2.0000      -0.329841        -8.9754
  66   2.0000      -0.281368        -7.6564
  67   0.0000       0.018427         0.5014
  68   0.0000       0.075492         2.0543
  69   0.0000       0.103112         2.8058
  70   0.0000       0.120886         3.2895
  71   0.0000       0.129550         3.5252

MULLIKEN ATOMIC CHARGES
-----------------------
   0 S :    0.108932
   1 C :   -0.122596
   2 C :   -0.062075
   3 C :    0.000203
   4 C :   -0.122071
   5 H :    0.003740
   6 C :    0.038434
   7 H :    0.027542
   8 H :    0.037922
   9 C :   -0.068314
  10 H :    0.031994
  11 H :    0.032308
  12 C :   -0.050311
  13 H :    0.021286
  14 H :    0.028016
  15 H :    0.039972
  16 S :    0.088063
  17 C :   -0.099930
  18 C :   -0.026929
  19 C :   -0.060154
  20 C :   -0.112089
  21 H :    0.026723
  22 C :    0.081616
  23 H :    0.039234
  24 H :   -0.005625
  25 C :   -0.118122
  26 H :    0.057321
  27 H :    0.032379
  28 C :   -0.045144
  29 H :    0.029906
  30 H :    0.019236
  31 H :    0.037491
  32 H :    0.045632
  33 H :    0.065410
Sum of atomic charges:    0.0000000

LOEWDIN ATOMIC CHARGES
----------------------
   0 S :    0.424117
   1 C :   -0.207806
   2 C :   -0.053870
   3 C :   -0.076807
   4 C :   -0.195012
   5 H :    0.033626
   6 C :   -0.029813
   7 H :    0.029106
   8 H :    0.033198
   9 C :   -0.034510
  10 H :    0.016912
  11 H :    0.027488
  12 C :   -0.064041
  13 H :    0.021845
  14 H :    0.025119
  15 H :    0.028870
  16 S :    0.377189
  17 C :   -0.180117
  18 C :   -0.070553
  19 C :   -0.048315
  20 C :   -0.180818
  21 H :    0.035010
  22 C :   -0.035403
  23 H :    0.037259
  24 H :    0.022447
  25 C :   -0.044057
  26 H :    0.034341
  27 H :    0.023074
  28 C :   -0.066666
  29 H :    0.024212
  30 H :    0.020111
  31 H :    0.018996
  32 H :    0.022092
  33 H :    0.032777

  Mayer bond orders larger than 0.100000
B(  0-S ,  1-C ) :   1.1369 B(  0-S ,  4-C ) :   1.1629 B(  1-C ,  2-C ) :   1.6005
B(  1-C , 32-H ) :   0.9710 B(  2-C ,  3-C ) :   1.2638 B(  2-C ,  6-C ) :   0.9884
B(  3-C ,  4-C ) :   1.5467 B(  3-C ,  5-H ) :   0.9867 B(  4-C , 20-C ) :   1.0828
B(  6-C ,  7-H ) :   0.9458 B(  6-C ,  8-H ) :   0.9500 B(  6-C ,  9-C ) :   1.0728
B(  9-C , 10-H ) :   0.9605 B(  9-C , 11-H ) :   0.9539 B(  9-C , 12-C ) :   1.0662
B( 12-C , 13-H ) :   0.9759 B( 12-C , 14-H ) :   0.9751 B( 12-C , 15-H ) :   0.9768
B( 16-S , 17-C ) :   1.1539 B( 16-S , 20-C ) :   1.1180 B( 17-C , 18-C ) :   1.6149
B( 17-C , 33-H ) :   0.9635 B( 18-C , 19-C ) :   1.2262 B( 18-C , 21-H ) :   0.9941
B( 19-C , 20-C ) :   1.5852 B( 19-C , 22-C ) :   1.0328 B( 22-C , 23-H ) :   0.9473
B( 22-C , 24-H ) :   0.9316 B( 22-C , 25-C ) :   1.0504 B( 25-C , 26-H ) :   0.9515
B( 25-C , 27-H ) :   0.9590 B( 25-C , 28-C ) :   1.0735 B( 28-C , 29-H ) :   0.9745
B( 28-C , 30-H ) :   0.9763 B( 28-C , 31-H ) :   0.9777

Dispersion correction           -0.013568330
FINAL SINGLE POINT ENERGY     -1339.860217157811

DIPOLE MOMENT
-------------
                                X             Y             Z
Electronic contribution:      3.84921       5.46102      31.01802
Nuclear contribution   :     -3.82977      -5.81517     -31.56175
                        -----------------------------------------
Total Dipole Moment    :      0.01944      -0.35416      -0.54373
                        -----------------------------------------
Magnitude (a.u.)       :      0.64919
Magnitude (Debye)      :      1.65012

Rotational constants in cm-1:     0.019119     0.008096     0.005820
Rotational constants in MHz :   573.181998   242.716321   174.465306

                             ****ORCA TERMINATED NORMALLY****
TOTAL RUN TIME: 0 days 0 hours 0 minutes 29 seconds 311 msec
