                         Program Version 4.2.1 -  RELEASE  -
|  1> ! wB97X-D3 SP def2-SVP
|  2> %pal
|  3> nprocs 16
|  4> end
|  5>
|  6> * xyz 0 1
|  7> S 	 -47.7181 	 61.629 	 128.94
|  8> C 	 -47.7828 	 60.2787 	 127.82
|  9> C 	 -47.0782 	 59.1637 	 128.363
| 10> C 	 -46.347 	 59.5651 	 129.562
| 11> C 	 -46.6547 	 60.7897 	 130.094
| 12> H 	 -45.635 	 58.8689 	 129.973
| 13> C 	 -46.7289 	 57.9098 	 127.615
| 14> H 	 -45.7166 	 58.0221 	 127.545
| 15> H 	 -47.0893 	 57.9466 	 126.535
| 16> C 	 -47.114 	 56.543 	 128.259
| 17> H 	 -46.5012 	 55.7929 	 127.81
| 18> H 	 -46.8762 	 56.665 	 129.323
| 19> C 	 -48.5809 	 56.2117 	 128.074
| 20> H 	 -48.77 	 56.1689 	 127.033
| 21> H 	 -48.8411 	 55.2651 	 128.51
| 22> H 	 -49.2139 	 56.9623 	 128.534
| 23> S 	 -44.7786 	 62.6787 	 130.732
| 24> C 	 -44.3132 	 62.9189 	 132.372
| 25> C 	 -44.9988 	 62.0635 	 133.186
| 26> C 	 -45.9855 	 61.2888 	 132.551
| 27> C 	 -46.0161 	 61.5328 	 131.212
| 28> H 	 -44.7601 	 62.0982 	 134.198
| 29> C 	 -46.932 	 60.4865 	 133.3
| 30> H 	 -47.8714 	 60.7602 	 132.723
| 31> H 	 -47.1785 	 60.8168 	 134.333
| 32> C 	 -46.5993 	 58.9767 	 133.515
| 33> H 	 -45.8403 	 58.9181 	 134.258
| 34> H 	 -46.266 	 58.4513 	 132.655
| 35> C 	 -47.8091 	 58.2139 	 134.048
| 36> H 	 -48.069 	 58.658 	 135.002
| 37> H 	 -47.67 	 57.1936 	 134.087
| 38> H 	 -48.6142 	 58.3616 	 133.398
| 39> H 	 -48.3416 	 60.3744 	 126.931
| 40> H 	 -43.4852 	 63.5217 	 132.636
| 41> *
| 42>
| 43>                          ****END OF INPUT****

CARTESIAN COORDINATES (ANGSTROEM)
---------------------------------
  S    -47.718100   61.629000  128.940000
  C    -47.782800   60.278700  127.820000
  C    -47.078200   59.163700  128.363000
  C    -46.347000   59.565100  129.562000
  C    -46.654700   60.789700  130.094000
  H    -45.635000   58.868900  129.973000
  C    -46.728900   57.909800  127.615000
  H    -45.716600   58.022100  127.545000
  H    -47.089300   57.946600  126.535000
  C    -47.114000   56.543000  128.259000
  H    -46.501200   55.792900  127.810000
  H    -46.876200   56.665000  129.323000
  C    -48.580900   56.211700  128.074000
  H    -48.770000   56.168900  127.033000
  H    -48.841100   55.265100  128.510000
  H    -49.213900   56.962300  128.534000
  S    -44.778600   62.678700  130.732000
  C    -44.313200   62.918900  132.372000
  C    -44.998800   62.063500  133.186000
  C    -45.985500   61.288800  132.551000
  C    -46.016100   61.532800  131.212000
  H    -44.760100   62.098200  134.198000
  C    -46.932000   60.486500  133.300000
  H    -47.871400   60.760200  132.723000
  H    -47.178500   60.816800  134.333000
  C    -46.599300   58.976700  133.515000
  H    -45.840300   58.918100  134.258000
  H    -46.266000   58.451300  132.655000
  C    -47.809100   58.213900  134.048000
  H    -48.069000   58.658000  135.002000
  H    -47.670000   57.193600  134.087000
  H    -48.614200   58.361600  133.398000
  H    -48.341600   60.374400  126.931000
  H    -43.485200   63.521700  132.636000

 Total Charge           Charge          ....    0
 Multiplicity           Mult            ....    1
 Number of Electrons    NEL             ....  134
 Basis Dimension        Dim             ....  322

ORBITAL ENERGIES
----------------

  NO   OCC          E(Eh)            E(eV)
   0   2.0000     -88.961468     -2420.7646
   1   2.0000     -88.961017     -2420.7523
   2   2.0000     -10.332988      -281.1749
   3   2.0000     -10.323422      -280.9146
   4   2.0000     -10.318852      -280.7903
   5   2.0000     -10.310358      -280.5591
   6   2.0000     -10.307900      -280.4922
   7   2.0000     -10.297770      -280.2166
   8   2.0000     -10.296244      -280.1750
   9   2.0000     -10.292452      -280.0719
  10   2.0000     -10.289586      -279.9939
  11   2.0000     -10.286140      -279.9001
  12   2.0000     -10.282452      -279.7997
  13   2.0000     -10.280420      -279.7444
  14   2.0000     -10.269877      -279.4576
  15   2.0000     -10.263048      -279.2717
  16   2.0000      -8.077073      -219.7883
  17   2.0000      -8.075469      -219.7447
  18   2.0000      -6.035376      -164.2309
  19   2.0000      -6.034031      -164.1943
  20   2.0000      -6.031460      -164.1244
  21   2.0000      -6.029816      -164.0796
  22   2.0000      -6.027976      -164.0296
  23   2.0000      -6.026399      -163.9866
  24   2.0000      -1.009204       -27.4618
  25   2.0000      -0.982029       -26.7224
  26   2.0000      -0.913387       -24.8545
  27   2.0000      -0.912340       -24.8260
  28   2.0000      -0.868199       -23.6249
  29   2.0000      -0.860767       -23.4226
  30   2.0000      -0.846794       -23.0424
  31   2.0000      -0.817299       -22.2398
  32   2.0000      -0.782382       -21.2897
  33   2.0000      -0.772248       -21.0139
  34   2.0000      -0.709691       -19.3117
  35   2.0000      -0.703258       -19.1366
  36   2.0000      -0.693296       -18.8656
  37   2.0000      -0.666520       -18.1369
  38   2.0000      -0.643911       -17.5217
  39   2.0000      -0.624502       -16.9936
  40   2.0000      -0.602710       -16.4006
  41   2.0000      -0.574419       -15.6307
  42   2.0000      -0.567969       -15.4552
  43   2.0000      -0.553645       -15.0655
  44   2.0000      -0.544671       -14.8212
  45   2.0000      -0.532135       -14.4801
  46   2.0000      -0.519379       -14.1330
  47   2.0000      -0.515947       -14.0396
  48   2.0000      -0.509596       -13.8668
  49   2.0000      -0.495791       -13.4912
  50   2.0000      -0.490165       -13.3381
  51   2.0000      -0.479333       -13.0433
  52   2.0000      -0.469861       -12.7856
  53   2.0000      -0.467295       -12.7158
  54   2.0000      -0.463137       -12.6026
  55   2.0000      -0.444409       -12.0930
  56   2.0000      -0.439848       -11.9689
  57   2.0000      -0.438209       -11.9243
  58   2.0000      -0.437204       -11.8969
  59   2.0000      -0.425641       -11.5823
  60   2.0000      -0.423576       -11.5261
  61   2.0000      -0.413705       -11.2575
  62   2.0000      -0.412123       -11.2144
  63   2.0000      -0.340311        -9.2603
  64   2.0000      -0.327785        -8.9195
  65   2.0000      -0.321172        -8.7395
  66   2.0000      -0.305147        -8.3035
  67   0.0000       0.037146         1.0108
  68   0.0000       0.061141         1.6637
  69   0.0000       0.114439         3.1140
  70   0.0000       0.124656         3.3921
  71   0.0000       0.128369         3.4931

MULLIKEN ATOMIC CHARGES
-----------------------
   0 S :    0.086623
   1 C :   -0.118066
   2 C :   -0.087018
   3 C :    0.037144
   4 C :   -0.149815
   5 H :    0.017333
   6 C :    0.032541
   7 H :    0.017276
   8 H :    0.027258
   9 C :   -0.056547
  10 H :    0.026386
  11 H :    0.022593
  12 C :   -0.012503
  13 H :    0.014713
  14 H :    0.028492
  15 H :    0.033262
  16 S :    0.111107
  17 C :   -0.075948
  18 C :   -0.020743
  19 C :    0.039064
  20 C :   -0.164601
  21 H :   -0.010459
  22 C :   -0.012618
  23 H :    0.046163
  24 H :    0.021932
  25 C :   -0.039604
  26 H :    0.017885
  27 H :    0.015722
  28 C :    0.011556
  29 H :    0.017256
  30 H :    0.017654
  31 H :    0.013382
  32 H :    0.046986
  33 H :    0.045592
Sum of atomic charges:   -0.0000000

LOEWDIN ATOMIC CHARGES
----------------------
   0 S :    0.386568
   1 C :   -0.183267
   2 C :   -0.062337
   3 C :   -0.056059
   4 C :   -0.193108
   5 H :    0.027898
   6 C :   -0.033328
   7 H :    0.022615
   8 H :    0.035260
   9 C :   -0.033645
  10 H :    0.021221
  11 H :    0.022594
  12 C :   -0.056820
  13 H :    0.018805
  14 H :    0.023832
  15 H :    0.027553
  16 S :    0.419908
  17 C :   -0.179562
  18 C :   -0.065776
  19 C :   -0.059195
  20 C :   -0.202718
  21 H :    0.020807
  22 C :   -0.039935
  23 H :    0.045278
  24 H :    0.034057
  25 C :   -0.025563
  26 H :    0.019016
  27 H :    0.015061
  28 C :   -0.049170
  29 H :    0.023195
  30 H :    0.016097
  31 H :    0.019263
  32 H :    0.018951
  33 H :    0.022504

  Mayer bond orders larger than 0.100000
B(  0-S ,  1-C ) :   1.1580 B(  0-S ,  4-C ) :   1.1376 B(  1-C ,  2-C ) :   1.5685
B(  1-C , 32-H ) :   0.9790 B(  2-C ,  3-C ) :   1.2399 B(  2-C ,  6-C ) :   1.0216
B(  3-C ,  4-C ) :   1.6012 B(  3-C ,  5-H ) :   0.9873 B(  4-C , 20-C ) :   0.9850
B(  6-C ,  7-H ) :   0.9376 B(  6-C ,  8-H ) :   0.9489 B(  6-C ,  9-C ) :   1.0656
B(  9-C , 10-H ) :   0.9545 B(  9-C , 11-H ) :   0.9568 B(  9-C , 12-C ) :   1.0814
B( 12-C , 13-H ) :   0.9740 B( 12-C , 14-H ) :   0.9730 B( 12-C , 15-H ) :   0.9759
B( 16-S , 17-C ) :   1.1680 B( 16-S , 20-C ) :   1.1554 B( 17-C , 18-C ) :   1.5941
B( 17-C , 33-H ) :   0.9731 B( 18-C , 19-C ) :   1.2375 B( 18-C , 21-H ) :   1.0074
B( 19-C , 20-C ) :   1.6056 B( 19-C , 22-C ) :   1.0375 B( 22-C , 23-H ) :   0.9432
B( 22-C , 24-H ) :   0.9415 B( 22-C , 25-C ) :   1.0458 B( 25-C , 26-H ) :   0.9534
B( 25-C , 27-H ) :   0.9585 B( 25-C , 28-C ) :   1.0920 B( 28-C , 29-H ) :   0.9714
B( 28-C , 30-H ) :   0.9725 B( 28-C , 31-H ) :   0.9751

Dispersion correction           -0.014103727
FINAL SINGLE POINT ENERGY     -1339.865383921429

DIPOLE MOMENT
-------------
                                X             Y             Z
Electronic contribution:      8.22467      27.42815      -5.98313
Nuclear contribution   :     -8.01029     -28.02621       6.14545
                        -----------------------------------------
Total Dipole Moment    :      0.21438      -0.59806       0.16232
                        -----------------------------------------
Magnitude (a.u.)       :      0.65573
Magnitude (Debye)      :      1.66672

Rotational constants in cm-1:     0.017674     0.009196     0.006905
Rotational constants in MHz :   529.843164   275.681506   207.005962

                             ****ORCA TERMINATED NORMALLY****
TOTAL RUN TIME: 0 days 0 hours 0 minutes 35 seconds 624 msec
