                         Program Version 4.2.1 -  RELEASE  -
|  1> ! wB97X-D3 SP def2-SVP
|  2> %pal
|  3> nprocs 16
|  4> end
|  5>
|  6> * xyz 0 1
|  7> S 	 -9.73492 	 61.8702 	 62.905
|  8> C 	 -9.50472 	 60.132 	 63.1073
|  9> C 	 -10.2839 	 59.4352 	 62.2405
| 10> C 	 -11.1552 	 60.2007 	 61.4093
| 11> C 	 -11.1441 	 61.5483 	 61.8627
| 12> H 	 -12.044 	 59.8609 	 60.792
| 13> C 	 -10.2454 	 57.9404 	 61.9507
| 14> H 	 -9.60186 	 57.6897 	 61.0894
| 15> H 	 -11.207 	 57.6759 	 61.492
| 16> C 	 -10.0455 	 56.9836 	 63.0829
| 17> H 	 -10.092 	 55.9568 	 62.5715
| 18> H 	 -9.14232 	 57.2304 	 63.6014
| 19> C 	 -11.3152 	 56.9991 	 64.015
| 20> H 	 -11.4962 	 58.0507 	 64.3328
| 21> H 	 -12.2398 	 56.7365 	 63.5886
| 22> H 	 -11.1394 	 56.3804 	 64.9049
| 23> S 	 -13.0169 	 63.6123 	 62.4951
| 24> C 	 -13.6107 	 64.6087 	 61.1954
| 25> C 	 -13.1099 	 64.1264 	 60.0203
| 26> C 	 -12.2863 	 62.9467 	 60.0517
| 27> C 	 -12.033 	 62.5996 	 61.347
| 28> H 	 -13.369 	 64.7132 	 59.1307
| 29> C 	 -11.6804 	 62.2185 	 58.8287
| 30> H 	 -12.3698 	 61.419 	 58.5592
| 31> H 	 -10.7022 	 61.7751 	 59.1908
| 32> C 	 -11.3001 	 62.9967 	 57.6033
| 33> H 	 -12.0431 	 63.5798 	 57.0591
| 34> H 	 -10.9754 	 62.2731 	 56.9037
| 35> C 	 -9.99772 	 63.8158 	 57.6571
| 36> H 	 -9.97547 	 64.7133 	 58.3113
| 37> H 	 -9.76256 	 64.2215 	 56.6488
| 38> H 	 -9.16381 	 63.2289 	 57.915
| 39> H 	 -8.78357 	 59.7714 	 63.8643
| 40> H 	 -14.1598 	 65.5289 	 61.2567
| 41> *
| 42>
| 43>                          ****END OF INPUT****

CARTESIAN COORDINATES (ANGSTROEM)
---------------------------------
  S     -9.734920   61.870200   62.905000
  C     -9.504720   60.132000   63.107300
  C    -10.283900   59.435200   62.240500
  C    -11.155200   60.200700   61.409300
  C    -11.144100   61.548300   61.862700
  H    -12.044000   59.860900   60.792000
  C    -10.245400   57.940400   61.950700
  H     -9.601860   57.689700   61.089400
  H    -11.207000   57.675900   61.492000
  C    -10.045500   56.983600   63.082900
  H    -10.092000   55.956800   62.571500
  H     -9.142320   57.230400   63.601400
  C    -11.315200   56.999100   64.015000
  H    -11.496200   58.050700   64.332800
  H    -12.239800   56.736500   63.588600
  H    -11.139400   56.380400   64.904900
  S    -13.016900   63.612300   62.495100
  C    -13.610700   64.608700   61.195400
  C    -13.109900   64.126400   60.020300
  C    -12.286300   62.946700   60.051700
  C    -12.033000   62.599600   61.347000
  H    -13.369000   64.713200   59.130700
  C    -11.680400   62.218500   58.828700
  H    -12.369800   61.419000   58.559200
  H    -10.702200   61.775100   59.190800
  C    -11.300100   62.996700   57.603300
  H    -12.043100   63.579800   57.059100
  H    -10.975400   62.273100   56.903700
  C     -9.997720   63.815800   57.657100
  H     -9.975470   64.713300   58.311300
  H     -9.762560   64.221500   56.648800
  H     -9.163810   63.228900   57.915000
  H     -8.783570   59.771400   63.864300
  H    -14.159800   65.528900   61.256700

 Total Charge           Charge          ....    0
 Multiplicity           Mult            ....    1
 Number of Electrons    NEL             ....  134
 Basis Dimension        Dim             ....  322

ORBITAL ENERGIES
----------------

  NO   OCC          E(Eh)            E(eV)
   0   2.0000     -88.967407     -2420.9262
   1   2.0000     -88.961605     -2420.7683
   2   2.0000     -10.336328      -281.2658
   3   2.0000     -10.327803      -281.0338
   4   2.0000     -10.316991      -280.7396
   5   2.0000     -10.314637      -280.6755
   6   2.0000     -10.305588      -280.4293
   7   2.0000     -10.303537      -280.3735
   8   2.0000     -10.302534      -280.3462
   9   2.0000     -10.299749      -280.2704
  10   2.0000     -10.292020      -280.0601
  11   2.0000     -10.291477      -280.0453
  12   2.0000     -10.288090      -279.9532
  13   2.0000     -10.283405      -279.8257
  14   2.0000     -10.275036      -279.5979
  15   2.0000     -10.274411      -279.5809
  16   2.0000      -8.081528      -219.9095
  17   2.0000      -8.075611      -219.7485
  18   2.0000      -6.040012      -164.3571
  19   2.0000      -6.036308      -164.2563
  20   2.0000      -6.034240      -164.2000
  21   2.0000      -6.032151      -164.1432
  22   2.0000      -6.030264      -164.0918
  23   2.0000      -6.026214      -163.9816
  24   2.0000      -1.000849       -27.2345
  25   2.0000      -0.981495       -26.7078
  26   2.0000      -0.912162       -24.8212
  27   2.0000      -0.910746       -24.7827
  28   2.0000      -0.868401       -23.6304
  29   2.0000      -0.847691       -23.0668
  30   2.0000      -0.841649       -22.9024
  31   2.0000      -0.806818       -21.9546
  32   2.0000      -0.784755       -21.3543
  33   2.0000      -0.776338       -21.1252
  34   2.0000      -0.708377       -19.2759
  35   2.0000      -0.702207       -19.1080
  36   2.0000      -0.693247       -18.8642
  37   2.0000      -0.650753       -17.7079
  38   2.0000      -0.638070       -17.3628
  39   2.0000      -0.605656       -16.4807
  40   2.0000      -0.596121       -16.2213
  41   2.0000      -0.575729       -15.6664
  42   2.0000      -0.558932       -15.2093
  43   2.0000      -0.549357       -14.9488
  44   2.0000      -0.540814       -14.7163
  45   2.0000      -0.530538       -14.4367
  46   2.0000      -0.524588       -14.2748
  47   2.0000      -0.514413       -13.9979
  48   2.0000      -0.498857       -13.5746
  49   2.0000      -0.489648       -13.3240
  50   2.0000      -0.487096       -13.2546
  51   2.0000      -0.481211       -13.0944
  52   2.0000      -0.467858       -12.7311
  53   2.0000      -0.462980       -12.5983
  54   2.0000      -0.459009       -12.4903
  55   2.0000      -0.445161       -12.1134
  56   2.0000      -0.440096       -11.9756
  57   2.0000      -0.431139       -11.7319
  58   2.0000      -0.429212       -11.6794
  59   2.0000      -0.428599       -11.6628
  60   2.0000      -0.425560       -11.5801
  61   2.0000      -0.409310       -11.1379
  62   2.0000      -0.404170       -10.9980
  63   2.0000      -0.340716        -9.2714
  64   2.0000      -0.333779        -9.0826
  65   2.0000      -0.326058        -8.8725
  66   2.0000      -0.297257        -8.0888
  67   0.0000       0.023694         0.6447
  68   0.0000       0.069821         1.8999
  69   0.0000       0.106010         2.8847
  70   0.0000       0.124077         3.3763
  71   0.0000       0.127239         3.4624

MULLIKEN ATOMIC CHARGES
-----------------------
   0 S :    0.107838
   1 C :   -0.151152
   2 C :   -0.052952
   3 C :   -0.007798
   4 C :   -0.167893
   5 H :    0.058185
   6 C :    0.045693
   7 H :    0.041802
   8 H :    0.000336
   9 C :   -0.062148
  10 H :    0.042624
  11 H :    0.033849
  12 C :   -0.061120
  13 H :    0.035647
  14 H :    0.018194
  15 H :    0.038518
  16 S :    0.096187
  17 C :   -0.080873
  18 C :   -0.057171
  19 C :    0.001519
  20 C :   -0.190315
  21 H :    0.018111
  22 C :    0.057853
  23 H :    0.045293
  24 H :    0.048375
  25 C :   -0.047227
  26 H :    0.030183
  27 H :    0.017216
  28 C :   -0.066431
  29 H :    0.037926
  30 H :    0.027568
  31 H :    0.019492
  32 H :    0.067005
  33 H :    0.055665
Sum of atomic charges:   -0.0000000

LOEWDIN ATOMIC CHARGES
----------------------
   0 S :    0.388278
   1 C :   -0.199040
   2 C :   -0.066635
   3 C :   -0.068052
   4 C :   -0.175097
   5 H :    0.048973
   6 C :   -0.042387
   7 H :    0.035693
   8 H :    0.026181
   9 C :   -0.039732
  10 H :    0.038570
  11 H :    0.019422
  12 C :   -0.067503
  13 H :    0.029017
  14 H :    0.016735
  15 H :    0.026211
  16 S :    0.372533
  17 C :   -0.185574
  18 C :   -0.078430
  19 C :   -0.053071
  20 C :   -0.184514
  21 H :    0.030480
  22 C :   -0.030605
  23 H :    0.035519
  24 H :    0.045200
  25 C :   -0.047806
  26 H :    0.023324
  27 H :    0.029199
  28 C :   -0.065275
  29 H :    0.024672
  30 H :    0.029474
  31 H :    0.016005
  32 H :    0.034863
  33 H :    0.033374

  Mayer bond orders larger than 0.100000
B(  0-S ,  1-C ) :   1.1121 B(  0-S ,  4-C ) :   1.1639 B(  1-C ,  2-C ) :   1.6231
B(  1-C , 32-H ) :   0.9691 B(  2-C ,  3-C ) :   1.2301 B(  2-C ,  6-C ) :   1.0113
B(  3-C ,  4-C ) :   1.5652 B(  3-C ,  5-H ) :   0.9758 B(  4-C , 20-C ) :   1.0578
B(  6-C ,  7-H ) :   0.9329 B(  6-C ,  8-H ) :   0.9387 B(  6-C ,  9-C ) :   1.0792
B(  9-C , 10-H ) :   0.9520 B(  9-C , 11-H ) :   0.9554 B(  9-C , 12-C ) :   1.0722
B( 12-C , 13-H ) :   0.9762 B( 12-C , 14-H ) :   0.9750 B( 12-C , 15-H ) :   0.9775
B( 16-S , 17-C ) :   1.1341 B( 16-S , 20-C ) :   1.1206 B( 17-C , 18-C ) :   1.6493
B( 17-C , 33-H ) :   0.9662 B( 18-C , 19-C ) :   1.2101 B( 18-C , 21-H ) :   0.9841
B( 19-C , 20-C ) :   1.6210 B( 19-C , 22-C ) :   1.0216 B( 22-C , 23-H ) :   0.9309
B( 22-C , 24-H ) :   0.9306 B( 22-C , 25-C ) :   1.0878 B( 25-C , 26-H ) :   0.9512
B( 25-C , 27-H ) :   0.9424 B( 25-C , 28-C ) :   1.0812 B( 28-C , 29-H ) :   0.9773
B( 28-C , 30-H ) :   0.9740 B( 28-C , 31-H ) :   0.9728

Dispersion correction           -0.014260430
FINAL SINGLE POINT ENERGY     -1339.862352077267

DIPOLE MOMENT
-------------
                                X             Y             Z
Electronic contribution:     -4.38122      15.57423      13.01992
Nuclear contribution   :      4.40539     -15.92621     -13.63276
                        -----------------------------------------
Total Dipole Moment    :      0.02417      -0.35199      -0.61284
                        -----------------------------------------
Magnitude (a.u.)       :      0.70715
Magnitude (Debye)      :      1.79743

Rotational constants in cm-1:     0.020469     0.007809     0.006744
Rotational constants in MHz :   613.640280   234.122417   202.185585

                             ****ORCA TERMINATED NORMALLY****
TOTAL RUN TIME: 0 days 0 hours 0 minutes 32 seconds 988 msec
