                         Program Version 4.2.1 -  RELEASE  -
|  1> ! wB97X-D3 SP def2-SVP
|  2> %pal
|  3> nprocs 16
|  4> end
|  5>
|  6> * xyz 0 1
|  7> S 	 9.48705 	 -14.5324 	 101.757
|  8> C 	 10.6928 	 -14.8712 	 102.96
|  9> C 	 10.3193 	 -14.5986 	 104.242
| 10> C 	 8.95367 	 -14.1657 	 104.303
| 11> C 	 8.42605 	 -14.0097 	 103.029
| 12> H 	 8.40948 	 -13.8372 	 105.185
| 13> C 	 11.1016 	 -14.9369 	 105.462
| 14> H 	 11.3638 	 -14.1191 	 106.198
| 15> H 	 12.1132 	 -15.281 	 105.293
| 16> C 	 10.5455 	 -16.0951 	 106.325
| 17> H 	 11.0945 	 -16.1545 	 107.231
| 18> H 	 9.56639 	 -15.8735 	 106.824
| 19> C 	 10.4704 	 -17.4965 	 105.726
| 20> H 	 10.8969 	 -18.2417 	 106.356
| 21> H 	 9.41585 	 -17.8445 	 105.429
| 22> H 	 11.1151 	 -17.5562 	 104.823
| 23> S 	 6.85914 	 -12.4313 	 101.425
| 24> C 	 5.1477 	 -12.4715 	 101.64
| 25> C 	 4.76603 	 -13.2876 	 102.686
| 26> C 	 5.85385 	 -13.9542 	 103.339
| 27> C 	 7.04849 	 -13.6159 	 102.738
| 28> H 	 3.70349 	 -13.4261 	 102.994
| 29> C 	 5.56358 	 -15.0932 	 104.313
| 30> H 	 4.55958 	 -15.1862 	 104.516
| 31> H 	 6.03741 	 -14.714 	 105.225
| 32> C 	 6.11487 	 -16.4449 	 103.968
| 33> H 	 7.18062 	 -16.2845 	 103.675
| 34> H 	 5.67743 	 -16.8918 	 103.109
| 35> C 	 6.03108 	 -17.2075 	 105.334
| 36> H 	 6.35461 	 -18.2274 	 105.167
| 37> H 	 5.09293 	 -17.1469 	 105.972
| 38> H 	 6.74903 	 -16.737 	 106.04
| 39> H 	 11.6235 	 -15.0736 	 102.544
| 40> H 	 4.42311 	 -11.85 	 101.067
| 41> *
| 42>
| 43>                          ****END OF INPUT****

CARTESIAN COORDINATES (ANGSTROEM)
---------------------------------
  S      9.487050  -14.532400  101.757000
  C     10.692800  -14.871200  102.960000
  C     10.319300  -14.598600  104.242000
  C      8.953670  -14.165700  104.303000
  C      8.426050  -14.009700  103.029000
  H      8.409480  -13.837200  105.185000
  C     11.101600  -14.936900  105.462000
  H     11.363800  -14.119100  106.198000
  H     12.113200  -15.281000  105.293000
  C     10.545500  -16.095100  106.325000
  H     11.094500  -16.154500  107.231000
  H      9.566390  -15.873500  106.824000
  C     10.470400  -17.496500  105.726000
  H     10.896900  -18.241700  106.356000
  H      9.415850  -17.844500  105.429000
  H     11.115100  -17.556200  104.823000
  S      6.859140  -12.431300  101.425000
  C      5.147700  -12.471500  101.640000
  C      4.766030  -13.287600  102.686000
  C      5.853850  -13.954200  103.339000
  C      7.048490  -13.615900  102.738000
  H      3.703490  -13.426100  102.994000
  C      5.563580  -15.093200  104.313000
  H      4.559580  -15.186200  104.516000
  H      6.037410  -14.714000  105.225000
  C      6.114870  -16.444900  103.968000
  H      7.180620  -16.284500  103.675000
  H      5.677430  -16.891800  103.109000
  C      6.031080  -17.207500  105.334000
  H      6.354610  -18.227400  105.167000
  H      5.092930  -17.146900  105.972000
  H      6.749030  -16.737000  106.040000
  H     11.623500  -15.073600  102.544000
  H      4.423110  -11.850000  101.067000

 Total Charge           Charge          ....    0
 Multiplicity           Mult            ....    1
 Number of Electrons    NEL             ....  134
 Basis Dimension        Dim             ....  322

ORBITAL ENERGIES
----------------

  NO   OCC          E(Eh)            E(eV)
   0   2.0000     -88.966385     -2420.8984
   1   2.0000     -88.964808     -2420.8555
   2   2.0000     -10.327532      -281.0264
   3   2.0000     -10.323551      -280.9181
   4   2.0000     -10.316565      -280.7280
   5   2.0000     -10.308422      -280.5064
   6   2.0000     -10.303599      -280.3752
   7   2.0000     -10.299657      -280.2679
   8   2.0000     -10.297190      -280.2008
   9   2.0000     -10.295221      -280.1472
  10   2.0000     -10.293162      -280.0912
  11   2.0000     -10.286050      -279.8977
  12   2.0000     -10.285112      -279.8721
  13   2.0000     -10.283218      -279.8206
  14   2.0000     -10.283101      -279.8174
  15   2.0000     -10.279029      -279.7066
  16   2.0000      -8.082059      -219.9240
  17   2.0000      -8.079632      -219.8580
  18   2.0000      -6.040360      -164.3665
  19   2.0000      -6.038061      -164.3040
  20   2.0000      -6.036575      -164.2636
  21   2.0000      -6.034204      -164.1990
  22   2.0000      -6.032837      -164.1618
  23   2.0000      -6.030413      -164.0959
  24   2.0000      -1.009093       -27.4588
  25   2.0000      -0.985523       -26.8174
  26   2.0000      -0.914661       -24.8892
  27   2.0000      -0.911410       -24.8007
  28   2.0000      -0.866461       -23.5776
  29   2.0000      -0.853178       -23.2161
  30   2.0000      -0.845848       -23.0167
  31   2.0000      -0.809600       -22.0303
  32   2.0000      -0.782275       -21.2868
  33   2.0000      -0.771403       -20.9909
  34   2.0000      -0.710875       -19.3439
  35   2.0000      -0.701377       -19.0854
  36   2.0000      -0.689053       -18.7501
  37   2.0000      -0.662652       -18.0317
  38   2.0000      -0.646744       -17.5988
  39   2.0000      -0.625227       -17.0133
  40   2.0000      -0.597118       -16.2484
  41   2.0000      -0.567970       -15.4552
  42   2.0000      -0.560513       -15.2523
  43   2.0000      -0.546496       -14.8709
  44   2.0000      -0.534878       -14.5548
  45   2.0000      -0.522052       -14.2058
  46   2.0000      -0.515948       -14.0397
  47   2.0000      -0.508105       -13.8262
  48   2.0000      -0.500142       -13.6095
  49   2.0000      -0.497087       -13.5264
  50   2.0000      -0.487224       -13.2580
  51   2.0000      -0.479230       -13.0405
  52   2.0000      -0.472268       -12.8511
  53   2.0000      -0.464735       -12.6461
  54   2.0000      -0.458039       -12.4639
  55   2.0000      -0.453345       -12.3361
  56   2.0000      -0.448234       -12.1971
  57   2.0000      -0.439234       -11.9522
  58   2.0000      -0.437004       -11.8915
  59   2.0000      -0.423093       -11.5129
  60   2.0000      -0.419225       -11.4077
  61   2.0000      -0.407788       -11.0965
  62   2.0000      -0.404514       -11.0074
  63   2.0000      -0.346370        -9.4252
  64   2.0000      -0.335533        -9.1303
  65   2.0000      -0.330563        -8.9951
  66   2.0000      -0.289818        -7.8864
  67   0.0000       0.030018         0.8168
  68   0.0000       0.074716         2.0331
  69   0.0000       0.109019         2.9666
  70   0.0000       0.112819         3.0700
  71   0.0000       0.124902         3.3988

MULLIKEN ATOMIC CHARGES
-----------------------
   0 S :    0.108728
   1 C :   -0.115454
   2 C :    0.012247
   3 C :   -0.004222
   4 C :   -0.146132
   5 H :    0.023348
   6 C :    0.046526
   7 H :    0.037757
   8 H :    0.011178
   9 C :   -0.090482
  10 H :    0.010373
  11 H :    0.020601
  12 C :   -0.057953
  13 H :    0.026011
  14 H :    0.050593
  15 H :    0.023457
  16 S :    0.106156
  17 C :   -0.094402
  18 C :   -0.060290
  19 C :   -0.017225
  20 C :   -0.182226
  21 H :    0.028465
  22 C :    0.088986
  23 H :   -0.006486
  24 H :    0.015554
  25 C :   -0.044271
  26 H :    0.049066
  27 H :    0.031697
  28 C :   -0.073093
  29 H :    0.037296
  30 H :    0.040266
  31 H :    0.028011
  32 H :    0.028157
  33 H :    0.067764
Sum of atomic charges:   -0.0000000

LOEWDIN ATOMIC CHARGES
----------------------
   0 S :    0.412811
   1 C :   -0.181664
   2 C :   -0.060182
   3 C :   -0.058776
   4 C :   -0.195466
   5 H :    0.034979
   6 C :   -0.038300
   7 H :    0.041256
   8 H :    0.028510
   9 C :   -0.051298
  10 H :    0.020927
  11 H :    0.023386
  12 C :   -0.074644
  13 H :    0.022129
  14 H :    0.035852
  15 H :    0.027360
  16 S :    0.399957
  17 C :   -0.200060
  18 C :   -0.078220
  19 C :   -0.055581
  20 C :   -0.194241
  21 H :    0.035963
  22 C :   -0.023292
  23 H :    0.016480
  24 H :    0.032007
  25 C :   -0.032391
  26 H :    0.034772
  27 H :    0.020657
  28 C :   -0.070898
  29 H :    0.021289
  30 H :    0.032055
  31 H :    0.027373
  32 H :    0.010212
  33 H :    0.037037

  Mayer bond orders larger than 0.100000
B(  0-S ,  1-C ) :   1.1359 B(  0-S ,  4-C ) :   1.1614 B(  1-C ,  2-C ) :   1.6052
B(  1-C , 32-H ) :   0.9785 B(  2-C ,  3-C ) :   1.2079 B(  2-C ,  6-C ) :   1.0416
B(  3-C ,  4-C ) :   1.5837 B(  3-C ,  5-H ) :   1.0000 B(  4-C , 20-C ) :   1.0254
B(  6-C ,  7-H ) :   0.9345 B(  6-C ,  8-H ) :   0.9401 B(  6-C ,  9-C ) :   1.0813
B(  9-C , 10-H ) :   0.9534 B(  9-C , 11-H ) :   0.9516 B(  9-C , 12-C ) :   1.0599
B( 12-C , 13-H ) :   0.9762 B( 12-C , 14-H ) :   0.9751 B( 12-C , 15-H ) :   0.9761
B( 16-S , 17-C ) :   1.1498 B( 16-S , 20-C ) :   1.1371 B( 17-C , 18-C ) :   1.6164
B( 17-C , 33-H ) :   0.9614 B( 18-C , 19-C ) :   1.2446 B( 18-C , 21-H ) :   0.9801
B( 19-C , 20-C ) :   1.6077 B( 19-C , 22-C ) :   1.0197 B( 22-C , 23-H ) :   0.9359
B( 22-C , 24-H ) :   0.9281 B( 22-C , 25-C ) :   1.0680 B( 25-C , 26-H ) :   0.9504
B( 25-C , 27-H ) :   0.9588 B( 25-C , 28-C ) :   1.0603 B( 28-C , 29-H ) :   0.9717
B( 28-C , 30-H ) :   0.9728 B( 28-C , 31-H ) :   0.9735

Dispersion correction           -0.016080819
FINAL SINGLE POINT ENERGY     -1339.871101159260

DIPOLE MOMENT
-------------
                                X             Y             Z
Electronic contribution:     -1.24087      20.33564     -23.52894
Nuclear contribution   :      1.22162     -20.61726      24.08835
                        -----------------------------------------
Total Dipole Moment    :     -0.01925      -0.28162       0.55941
                        -----------------------------------------
Magnitude (a.u.)       :      0.62659
Magnitude (Debye)      :      1.59268

Rotational constants in cm-1:     0.020034     0.010179     0.007563
Rotational constants in MHz :   600.616122   305.158383   226.732036

                             ****ORCA TERMINATED NORMALLY****
TOTAL RUN TIME: 0 days 0 hours 0 minutes 36 seconds 827 msec
