                         Program Version 4.2.1 -  RELEASE  -
|  1> ! wB97X-D3 SP def2-SVP
|  2> %pal
|  3> nprocs 16
|  4> end
|  5>
|  6> * xyz 0 1
|  7> S 	 10.8037 	 -6.88516 	 99.458
|  8> C 	 9.62346 	 -8.16343 	 99.8555
|  9> C 	 8.82519 	 -8.35367 	 98.7263
| 10> C 	 9.09113 	 -7.4814 	 97.5926
| 11> C 	 10.2192 	 -6.74584 	 97.798
| 12> H 	 8.46664 	 -7.43921 	 96.6939
| 13> C 	 7.76174 	 -9.41795 	 98.6903
| 14> H 	 6.83598 	 -8.86814 	 98.7177
| 15> H 	 7.74509 	 -10.018 	 99.5827
| 16> C 	 7.77347 	 -10.4967 	 97.6523
| 17> H 	 7.03381 	 -11.2156 	 97.9051
| 18> H 	 7.42482 	 -10.0545 	 96.7265
| 19> C 	 9.03303 	 -11.2977 	 97.4197
| 20> H 	 8.87758 	 -11.9092 	 96.5589
| 21> H 	 9.96412 	 -10.7381 	 97.2509
| 22> H 	 9.34872 	 -11.94 	 98.1805
| 23> S 	 10.4972 	 -4.13299 	 96.9068
| 24> C 	 11.1547 	 -3.76769 	 95.3898
| 25> C 	 11.8049 	 -4.84071 	 94.8336
| 26> C 	 11.5416 	 -6.04211 	 95.5428
| 27> C 	 10.8584 	 -5.79849 	 96.8271
| 28> H 	 12.3962 	 -4.76544 	 93.9101
| 29> C 	 12.1536 	 -7.39568 	 94.9986
| 30> H 	 12.4392 	 -7.85056 	 95.8796
| 31> H 	 13.0724 	 -7.31703 	 94.4992
| 32> C 	 11.2553 	 -8.44592 	 94.4292
| 33> H 	 10.7652 	 -7.87364 	 93.5884
| 34> H 	 10.4461 	 -8.7129 	 95.0916
| 35> C 	 11.8812 	 -9.71327 	 93.919
| 36> H 	 12.5488 	 -10.0884 	 94.7457
| 37> H 	 12.5573 	 -9.60426 	 93.0731
| 38> H 	 11.0726 	 -10.4392 	 93.661
| 39> H 	 9.67638 	 -8.93627 	 100.65
| 40> H 	 11.3805 	 -2.68532 	 95.1273
| 41> *
| 42>
| 43>                          ****END OF INPUT****

CARTESIAN COORDINATES (ANGSTROEM)
---------------------------------
  S     10.803700   -6.885160   99.458000
  C      9.623460   -8.163430   99.855500
  C      8.825190   -8.353670   98.726300
  C      9.091130   -7.481400   97.592600
  C     10.219200   -6.745840   97.798000
  H      8.466640   -7.439210   96.693900
  C      7.761740   -9.417950   98.690300
  H      6.835980   -8.868140   98.717700
  H      7.745090  -10.018000   99.582700
  C      7.773470  -10.496700   97.652300
  H      7.033810  -11.215600   97.905100
  H      7.424820  -10.054500   96.726500
  C      9.033030  -11.297700   97.419700
  H      8.877580  -11.909200   96.558900
  H      9.964120  -10.738100   97.250900
  H      9.348720  -11.940000   98.180500
  S     10.497200   -4.132990   96.906800
  C     11.154700   -3.767690   95.389800
  C     11.804900   -4.840710   94.833600
  C     11.541600   -6.042110   95.542800
  C     10.858400   -5.798490   96.827100
  H     12.396200   -4.765440   93.910100
  C     12.153600   -7.395680   94.998600
  H     12.439200   -7.850560   95.879600
  H     13.072400   -7.317030   94.499200
  C     11.255300   -8.445920   94.429200
  H     10.765200   -7.873640   93.588400
  H     10.446100   -8.712900   95.091600
  C     11.881200   -9.713270   93.919000
  H     12.548800  -10.088400   94.745700
  H     12.557300   -9.604260   93.073100
  H     11.072600  -10.439200   93.661000
  H      9.676380   -8.936270  100.650000
  H     11.380500   -2.685320   95.127300

 Total Charge           Charge          ....    0
 Multiplicity           Mult            ....    1
 Number of Electrons    NEL             ....  134
 Basis Dimension        Dim             ....  322

ORBITAL ENERGIES
----------------

  NO   OCC          E(Eh)            E(eV)
   0   2.0000     -88.968910     -2420.9671
   1   2.0000     -88.965458     -2420.8732
   2   2.0000     -10.337320      -281.2928
   3   2.0000     -10.334581      -281.2182
   4   2.0000     -10.319757      -280.8149
   5   2.0000     -10.316958      -280.7387
   6   2.0000     -10.316522      -280.7268
   7   2.0000     -10.304804      -280.4080
   8   2.0000     -10.299853      -280.2732
   9   2.0000     -10.294898      -280.1384
  10   2.0000     -10.283700      -279.8337
  11   2.0000     -10.282707      -279.8067
  12   2.0000     -10.280987      -279.7599
  13   2.0000     -10.279329      -279.7148
  14   2.0000     -10.279144      -279.7097
  15   2.0000     -10.269406      -279.4448
  16   2.0000      -8.085102      -220.0068
  17   2.0000      -8.079412      -219.8520
  18   2.0000      -6.043299      -164.4465
  19   2.0000      -6.039102      -164.3323
  20   2.0000      -6.038141      -164.3062
  21   2.0000      -6.036405      -164.2589
  22   2.0000      -6.033993      -164.1933
  23   2.0000      -6.029991      -164.0844
  24   2.0000      -1.007253       -27.4087
  25   2.0000      -0.985087       -26.8056
  26   2.0000      -0.917712       -24.9722
  27   2.0000      -0.912816       -24.8390
  28   2.0000      -0.868459       -23.6320
  29   2.0000      -0.850419       -23.1411
  30   2.0000      -0.845325       -23.0025
  31   2.0000      -0.818194       -22.2642
  32   2.0000      -0.789095       -21.4724
  33   2.0000      -0.775103       -21.0916
  34   2.0000      -0.707066       -19.2402
  35   2.0000      -0.696272       -18.9465
  36   2.0000      -0.686382       -18.6774
  37   2.0000      -0.652888       -17.7660
  38   2.0000      -0.636279       -17.3140
  39   2.0000      -0.624057       -16.9815
  40   2.0000      -0.599380       -16.3100
  41   2.0000      -0.569447       -15.4954
  42   2.0000      -0.562696       -15.3117
  43   2.0000      -0.559229       -15.2174
  44   2.0000      -0.547493       -14.8980
  45   2.0000      -0.524658       -14.2767
  46   2.0000      -0.518057       -14.0970
  47   2.0000      -0.512966       -13.9585
  48   2.0000      -0.509182       -13.8555
  49   2.0000      -0.499306       -13.5868
  50   2.0000      -0.494061       -13.4441
  51   2.0000      -0.477966       -13.0061
  52   2.0000      -0.472570       -12.8593
  53   2.0000      -0.463880       -12.6228
  54   2.0000      -0.459071       -12.4920
  55   2.0000      -0.447967       -12.1898
  56   2.0000      -0.444738       -12.1019
  57   2.0000      -0.444329       -12.0908
  58   2.0000      -0.437881       -11.9154
  59   2.0000      -0.424658       -11.5555
  60   2.0000      -0.411778       -11.2051
  61   2.0000      -0.408892       -11.1265
  62   2.0000      -0.394673       -10.7396
  63   2.0000      -0.343635        -9.3508
  64   2.0000      -0.329017        -8.9530
  65   2.0000      -0.322691        -8.7809
  66   2.0000      -0.306738        -8.3468
  67   0.0000       0.038061         1.0357
  68   0.0000       0.051605         1.4042
  69   0.0000       0.116750         3.1769
  70   0.0000       0.120709         3.2847
  71   0.0000       0.125143         3.4053

MULLIKEN ATOMIC CHARGES
-----------------------
   0 S :    0.095300
   1 C :   -0.118257
   2 C :   -0.135142
   3 C :    0.062867
   4 C :   -0.155627
   5 H :    0.033770
   6 C :    0.074276
   7 H :    0.033960
   8 H :   -0.000141
   9 C :   -0.046116
  10 H :    0.020387
  11 H :    0.014478
  12 C :   -0.031506
  13 H :    0.025492
  14 H :    0.034577
  15 H :    0.010758
  16 S :    0.136166
  17 C :   -0.118339
  18 C :   -0.043439
  19 C :   -0.053359
  20 C :   -0.162469
  21 H :    0.034242
  22 C :    0.121996
  23 H :   -0.005877
  24 H :    0.006965
  25 C :   -0.086898
  26 H :    0.017512
  27 H :    0.024529
  28 C :   -0.053095
  29 H :    0.028957
  30 H :    0.030375
  31 H :    0.048933
  32 H :    0.070838
  33 H :    0.083888
Sum of atomic charges:   -0.0000000

LOEWDIN ATOMIC CHARGES
----------------------
   0 S :    0.382156
   1 C :   -0.204113
   2 C :   -0.056974
   3 C :   -0.060782
   4 C :   -0.185535
   5 H :    0.039657
   6 C :   -0.037740
   7 H :    0.035974
   8 H :    0.025888
   9 C :   -0.039443
  10 H :    0.026244
  11 H :    0.018711
  12 C :   -0.063420
  13 H :    0.027583
  14 H :    0.028849
  15 H :    0.016963
  16 S :    0.469128
  17 C :   -0.222268
  18 C :   -0.080633
  19 C :   -0.039172
  20 C :   -0.233653
  21 H :    0.038553
  22 C :   -0.031077
  23 H :    0.022845
  24 H :    0.024462
  25 C :   -0.049343
  26 H :    0.021818
  27 H :    0.021670
  28 C :   -0.067601
  29 H :    0.028771
  30 H :    0.022075
  31 H :    0.036009
  32 H :    0.041701
  33 H :    0.042701

  Mayer bond orders larger than 0.100000
B(  0-S ,  1-C ) :   1.1086 B(  0-S ,  4-C ) :   1.1549 B(  1-C ,  2-C ) :   1.6450
B(  1-C , 32-H ) :   0.9586 B(  2-C ,  3-C ) :   1.1964 B(  2-C ,  6-C ) :   1.0326
B(  3-C ,  4-C ) :   1.6088 B(  3-C ,  5-H ) :   0.9907 B(  4-C , 20-C ) :   0.9750
B(  6-C ,  7-H ) :   0.9311 B(  6-C ,  8-H ) :   0.9431 B(  6-C ,  9-C ) :   1.0823
B(  9-C , 10-H ) :   0.9503 B(  9-C , 11-H ) :   0.9512 B(  9-C , 12-C ) :   1.0817
B( 12-C , 13-H ) :   0.9713 B( 12-C , 14-H ) :   0.9702 B( 12-C , 15-H ) :   0.9720
B( 16-S , 17-C ) :   1.2105 B( 16-S , 20-C ) :   1.2011 B( 17-C , 18-C ) :   1.5334
B( 17-C , 20-C ) :   0.1136 B( 17-C , 33-H ) :   0.9526 B( 18-C , 19-C ) :   1.3221
B( 18-C , 21-H ) :   0.9891 B( 19-C , 20-C ) :   1.5122 B( 19-C , 22-C ) :   1.0201
B( 22-C , 23-H ) :   0.9184 B( 22-C , 24-H ) :   0.9488 B( 22-C , 25-C ) :   1.0586
B( 25-C , 26-H ) :   0.9513 B( 25-C , 27-H ) :   0.9515 B( 25-C , 28-C ) :   1.0883
B( 28-C , 29-H ) :   0.9711 B( 28-C , 30-H ) :   0.9732 B( 28-C , 31-H ) :   0.9718

Dispersion correction           -0.015097121
FINAL SINGLE POINT ENERGY     -1339.850443174685

DIPOLE MOMENT
-------------
                                X             Y             Z
Electronic contribution:      3.34940      27.94440      13.61251
Nuclear contribution   :     -3.45787     -28.46232     -13.99577
                        -----------------------------------------
Total Dipole Moment    :     -0.10847      -0.51792      -0.38325
                        -----------------------------------------
Magnitude (a.u.)       :      0.65337
Magnitude (Debye)      :      1.66073

Rotational constants in cm-1:     0.016837     0.010160     0.007234
Rotational constants in MHz :   504.767005   304.575763   216.880635

                             ****ORCA TERMINATED NORMALLY****
TOTAL RUN TIME: 0 days 0 hours 0 minutes 34 seconds 731 msec
