                         Program Version 4.2.1 -  RELEASE  -
|  1> ! wB97X-D3 SP def2-SVP
|  2> %pal
|  3> nprocs 16
|  4> end
|  5>
|  6> * xyz 0 1
|  7> S 	 -17.0186 	 31.625 	 39.6625
|  8> C 	 -17.1418 	 33.1684 	 40.4687
|  9> C 	 -17.8342 	 34.1287 	 39.6687
| 10> C 	 -18.3043 	 33.5439 	 38.4527
| 11> C 	 -17.9391 	 32.2249 	 38.2231
| 12> H 	 -18.9295 	 33.9278 	 37.7652
| 13> C 	 -18.128 	 35.5952 	 39.9558
| 14> H 	 -17.7112 	 36.2363 	 39.1961
| 15> H 	 -17.6546 	 35.8315 	 40.9649
| 16> C 	 -19.643 	 35.834 	 40.2595
| 17> H 	 -20.2509 	 35.5165 	 39.4009
| 18> H 	 -19.9524 	 35.1836 	 41.0213
| 19> C 	 -19.9549 	 37.287 	 40.6778
| 20> H 	 -21.0129 	 37.2282 	 40.983
| 21> H 	 -19.2788 	 37.6136 	 41.436
| 22> H 	 -19.9158 	 37.9613 	 39.8254
| 23> S 	 -19.1584 	 29.829 	 37.7012
| 24> C 	 -19.1303 	 29.2267 	 36.0038
| 25> C 	 -18.3659 	 30.1198 	 35.2464
| 26> C 	 -17.9893 	 31.3224 	 35.8762
| 27> C 	 -18.269 	 31.3374 	 37.1783
| 28> H 	 -18.1246 	 29.9314 	 34.1836
| 29> C 	 -17.2754 	 32.4333 	 35.1768
| 30> H 	 -16.4994 	 31.9579 	 34.5955
| 31> H 	 -16.7938 	 33.0482 	 35.8807
| 32> C 	 -18.1648 	 33.1962 	 34.1862
| 33> H 	 -18.5012 	 32.483 	 33.4936
| 34> H 	 -17.6373 	 33.971 	 33.6262
| 35> C 	 -19.3248 	 33.8963 	 34.8419
| 36> H 	 -19.0505 	 34.8478 	 35.3133
| 37> H 	 -19.8737 	 33.1965 	 35.5668
| 38> H 	 -20.0025 	 34.1786 	 34.0696
| 39> H 	 -16.5629 	 33.4599 	 41.3211
| 40> H 	 -19.4963 	 28.2189 	 35.7245
| 41> *
| 42>
| 43>                          ****END OF INPUT****

CARTESIAN COORDINATES (ANGSTROEM)
---------------------------------
  S    -17.018600   31.625000   39.662500
  C    -17.141800   33.168400   40.468700
  C    -17.834200   34.128700   39.668700
  C    -18.304300   33.543900   38.452700
  C    -17.939100   32.224900   38.223100
  H    -18.929500   33.927800   37.765200
  C    -18.128000   35.595200   39.955800
  H    -17.711200   36.236300   39.196100
  H    -17.654600   35.831500   40.964900
  C    -19.643000   35.834000   40.259500
  H    -20.250900   35.516500   39.400900
  H    -19.952400   35.183600   41.021300
  C    -19.954900   37.287000   40.677800
  H    -21.012900   37.228200   40.983000
  H    -19.278800   37.613600   41.436000
  H    -19.915800   37.961300   39.825400
  S    -19.158400   29.829000   37.701200
  C    -19.130300   29.226700   36.003800
  C    -18.365900   30.119800   35.246400
  C    -17.989300   31.322400   35.876200
  C    -18.269000   31.337400   37.178300
  H    -18.124600   29.931400   34.183600
  C    -17.275400   32.433300   35.176800
  H    -16.499400   31.957900   34.595500
  H    -16.793800   33.048200   35.880700
  C    -18.164800   33.196200   34.186200
  H    -18.501200   32.483000   33.493600
  H    -17.637300   33.971000   33.626200
  C    -19.324800   33.896300   34.841900
  H    -19.050500   34.847800   35.313300
  H    -19.873700   33.196500   35.566800
  H    -20.002500   34.178600   34.069600
  H    -16.562900   33.459900   41.321100
  H    -19.496300   28.218900   35.724500

 Total Charge           Charge          ....    0
 Multiplicity           Mult            ....    1
 Number of Electrons    NEL             ....  134
 Basis Dimension        Dim             ....  322

ORBITAL ENERGIES
----------------

  NO   OCC          E(Eh)            E(eV)
   0   2.0000     -88.965432     -2420.8725
   1   2.0000     -88.961381     -2420.7623
   2   2.0000     -10.329475      -281.0793
   3   2.0000     -10.328538      -281.0538
   4   2.0000     -10.323003      -280.9032
   5   2.0000     -10.318395      -280.7778
   6   2.0000     -10.306472      -280.4534
   7   2.0000     -10.299561      -280.2653
   8   2.0000     -10.298148      -280.2268
   9   2.0000     -10.296730      -280.1883
  10   2.0000     -10.286943      -279.9219
  11   2.0000     -10.284183      -279.8469
  12   2.0000     -10.283864      -279.8382
  13   2.0000     -10.282072      -279.7894
  14   2.0000     -10.278439      -279.6906
  15   2.0000     -10.277418      -279.6628
  16   2.0000      -8.079190      -219.8459
  17   2.0000      -8.074705      -219.7239
  18   2.0000      -6.037728      -164.2949
  19   2.0000      -6.033772      -164.1873
  20   2.0000      -6.033405      -164.1773
  21   2.0000      -6.030021      -164.0852
  22   2.0000      -6.029522      -164.0716
  23   2.0000      -6.025203      -163.9541
  24   2.0000      -1.003240       -27.2996
  25   2.0000      -0.975936       -26.5566
  26   2.0000      -0.914976       -24.8978
  27   2.0000      -0.906958       -24.6796
  28   2.0000      -0.871311       -23.7096
  29   2.0000      -0.851929       -23.1822
  30   2.0000      -0.846959       -23.0469
  31   2.0000      -0.811536       -22.0830
  32   2.0000      -0.785343       -21.3703
  33   2.0000      -0.768867       -20.9219
  34   2.0000      -0.708978       -19.2923
  35   2.0000      -0.699445       -19.0329
  36   2.0000      -0.697989       -18.9932
  37   2.0000      -0.664355       -18.0780
  38   2.0000      -0.650760       -17.7081
  39   2.0000      -0.617265       -16.7966
  40   2.0000      -0.599919       -16.3246
  41   2.0000      -0.567260       -15.4359
  42   2.0000      -0.561062       -15.2673
  43   2.0000      -0.555354       -15.1119
  44   2.0000      -0.548389       -14.9224
  45   2.0000      -0.528184       -14.3726
  46   2.0000      -0.521411       -14.1883
  47   2.0000      -0.514684       -14.0053
  48   2.0000      -0.502253       -13.6670
  49   2.0000      -0.499890       -13.6027
  50   2.0000      -0.489855       -13.3296
  51   2.0000      -0.477114       -12.9829
  52   2.0000      -0.473902       -12.8955
  53   2.0000      -0.467933       -12.7331
  54   2.0000      -0.455431       -12.3929
  55   2.0000      -0.444462       -12.0944
  56   2.0000      -0.438539       -11.9332
  57   2.0000      -0.434868       -11.8334
  58   2.0000      -0.433786       -11.8039
  59   2.0000      -0.428122       -11.6498
  60   2.0000      -0.420622       -11.4457
  61   2.0000      -0.418305       -11.3827
  62   2.0000      -0.412872       -11.2348
  63   2.0000      -0.345044        -9.3891
  64   2.0000      -0.333855        -9.0847
  65   2.0000      -0.324553        -8.8315
  66   2.0000      -0.292312        -7.9542
  67   0.0000       0.027877         0.7586
  68   0.0000       0.054504         1.4831
  69   0.0000       0.110526         3.0076
  70   0.0000       0.121884         3.3166
  71   0.0000       0.124520         3.3883

MULLIKEN ATOMIC CHARGES
-----------------------
   0 S :    0.105978
   1 C :   -0.103349
   2 C :   -0.093093
   3 C :    0.097059
   4 C :   -0.179837
   5 H :   -0.056504
   6 C :    0.054718
   7 H :    0.040863
   8 H :    0.020410
   9 C :   -0.099090
  10 H :    0.028894
  11 H :    0.021327
  12 C :   -0.020573
  13 H :    0.040009
  14 H :    0.030909
  15 H :    0.030035
  16 S :    0.079636
  17 C :   -0.103666
  18 C :   -0.039737
  19 C :   -0.035657
  20 C :   -0.173362
  21 H :    0.027017
  22 C :    0.129533
  23 H :    0.017525
  24 H :    0.015482
  25 C :   -0.049823
  26 H :    0.012335
  27 H :    0.029120
  28 C :   -0.074289
  29 H :    0.035596
  30 H :    0.061803
  31 H :    0.023934
  32 H :    0.048630
  33 H :    0.078166
Sum of atomic charges:   -0.0000000

LOEWDIN ATOMIC CHARGES
----------------------
   0 S :    0.387197
   1 C :   -0.198655
   2 C :   -0.059048
   3 C :   -0.044855
   4 C :   -0.173957
   5 H :    0.008985
   6 C :   -0.032989
   7 H :    0.028714
   8 H :    0.033644
   9 C :   -0.037134
  10 H :    0.021991
  11 H :    0.018712
  12 C :   -0.059619
  13 H :    0.033647
  14 H :    0.020749
  15 H :    0.023951
  16 S :    0.346912
  17 C :   -0.168062
  18 C :   -0.071450
  19 C :   -0.059184
  20 C :   -0.174428
  21 H :    0.033535
  22 C :   -0.018073
  23 H :    0.032464
  24 H :    0.023216
  25 C :   -0.034453
  26 H :    0.015999
  27 H :    0.027499
  28 C :   -0.071248
  29 H :    0.024044
  30 H :    0.034778
  31 H :    0.023332
  32 H :    0.025486
  33 H :    0.038300

  Mayer bond orders larger than 0.100000
B(  0-S ,  1-C ) :   1.1484 B(  0-S ,  4-C ) :   1.1251 B(  1-C ,  2-C ) :   1.5951
B(  1-C ,  4-C ) :   0.1060 B(  1-C , 32-H ) :   0.9647 B(  2-C ,  3-C ) :   1.2243
B(  2-C ,  6-C ) :   1.0340 B(  3-C ,  4-C ) :   1.5831 B(  3-C ,  5-H ) :   1.0051
B(  4-C , 20-C ) :   1.0719 B(  6-C ,  7-H ) :   0.9456 B(  6-C ,  8-H ) :   0.9398
B(  6-C ,  9-C ) :   1.0544 B(  9-C , 10-H ) :   0.9576 B(  9-C , 11-H ) :   0.9557
B(  9-C , 12-C ) :   1.0831 B( 12-C , 13-H ) :   0.9741 B( 12-C , 14-H ) :   0.9747
B( 12-C , 15-H ) :   0.9761 B( 16-S , 17-C ) :   1.1310 B( 16-S , 20-C ) :   1.1028
B( 17-C , 18-C ) :   1.6175 B( 17-C , 20-C ) :   0.1032 B( 17-C , 33-H ) :   0.9659
B( 18-C , 19-C ) :   1.2153 B( 18-C , 21-H ) :   0.9776 B( 19-C , 20-C ) :   1.6381
B( 19-C , 22-C ) :   1.0454 B( 22-C , 23-H ) :   0.9263 B( 22-C , 24-H ) :   0.9304
B( 22-C , 25-C ) :   1.0684 B( 25-C , 26-H ) :   0.9559 B( 25-C , 27-H ) :   0.9527
B( 25-C , 28-C ) :   1.0900 B( 28-C , 29-H ) :   0.9706 B( 28-C , 30-H ) :   0.9654
B( 28-C , 31-H ) :   0.9662

Dispersion correction           -0.014898752
FINAL SINGLE POINT ENERGY     -1339.872338748540

DIPOLE MOMENT
-------------
                                X             Y             Z
Electronic contribution:      6.73273     -26.41476       6.22396
Nuclear contribution   :     -6.73412      26.96359      -6.69306
                        -----------------------------------------
Total Dipole Moment    :     -0.00139       0.54883      -0.46910
                        -----------------------------------------
Magnitude (a.u.)       :      0.72199
Magnitude (Debye)      :      1.83516

Rotational constants in cm-1:     0.019410     0.008689     0.006988
Rotational constants in MHz :   581.892249   260.494312   209.488222

                             ****ORCA TERMINATED NORMALLY****
TOTAL RUN TIME: 0 days 0 hours 0 minutes 34 seconds 602 msec
