                         Program Version 4.2.1 -  RELEASE  -
|  1> ! wB97X-D3 SP def2-SVP
|  2> %pal
|  3> nprocs 16
|  4> end
|  5>
|  6> * xyz 0 1
|  7> S 	 39.1755 	 9.96956 	 84.0614
|  8> C 	 40.1217 	 8.8568 	 83.0812
|  9> C 	 40.7343 	 7.88135 	 83.7683
| 10> C 	 40.3972 	 7.92603 	 85.1659
| 11> C 	 39.5386 	 8.99351 	 85.4332
| 12> H 	 40.8643 	 7.29199 	 85.8738
| 13> C 	 41.5681 	 6.79121 	 83.1572
| 14> H 	 41.156 	 6.46076 	 82.2273
| 15> H 	 41.3954 	 6.00495 	 83.9405
| 16> C 	 43.1117 	 7.05758 	 83.0187
| 17> H 	 43.5101 	 7.17575 	 84.0474
| 18> H 	 43.5423 	 6.11721 	 82.7287
| 19> C 	 43.4563 	 8.29462 	 82.2638
| 20> H 	 42.8457 	 8.31427 	 81.3818
| 21> H 	 43.224 	 9.19436 	 82.801
| 22> H 	 44.5496 	 8.35877 	 81.9923
| 23> S 	 37.2779 	 9.69324 	 86.7224
| 24> C 	 37.2419 	 9.74517 	 88.4582
| 25> C 	 38.5533 	 9.72033 	 88.97
| 26> C 	 39.5828 	 9.38038 	 87.972
| 27> C 	 39.0329 	 9.25036 	 86.7336
| 28> H 	 38.6552 	 9.89518 	 90.0242
| 29> C 	 41.0595 	 9.35143 	 88.38
| 30> H 	 41.4363 	 9.76952 	 87.4983
| 31> H 	 41.3484 	 8.26021 	 88.4947
| 32> C 	 41.5562 	 10.2012 	 89.5992
| 33> H 	 41.1586 	 9.77523 	 90.5773
| 34> H 	 41.1322 	 11.1711 	 89.3801
| 35> C 	 43.099 	 10.402 	 89.7641
| 36> H 	 43.6012 	 10.8927 	 88.9023
| 37> H 	 43.6038 	 9.43247 	 89.9118
| 38> H 	 43.3651 	 10.9487 	 90.7306
| 39> H 	 40.3549 	 9.02033 	 82.028
| 40> H 	 36.3327 	 9.87595 	 89.045
| 41> *
| 42>
| 43>                          ****END OF INPUT****

CARTESIAN COORDINATES (ANGSTROEM)
---------------------------------
  S     39.175500    9.969560   84.061400
  C     40.121700    8.856800   83.081200
  C     40.734300    7.881350   83.768300
  C     40.397200    7.926030   85.165900
  C     39.538600    8.993510   85.433200
  H     40.864300    7.291990   85.873800
  C     41.568100    6.791210   83.157200
  H     41.156000    6.460760   82.227300
  H     41.395400    6.004950   83.940500
  C     43.111700    7.057580   83.018700
  H     43.510100    7.175750   84.047400
  H     43.542300    6.117210   82.728700
  C     43.456300    8.294620   82.263800
  H     42.845700    8.314270   81.381800
  H     43.224000    9.194360   82.801000
  H     44.549600    8.358770   81.992300
  S     37.277900    9.693240   86.722400
  C     37.241900    9.745170   88.458200
  C     38.553300    9.720330   88.970000
  C     39.582800    9.380380   87.972000
  C     39.032900    9.250360   86.733600
  H     38.655200    9.895180   90.024200
  C     41.059500    9.351430   88.380000
  H     41.436300    9.769520   87.498300
  H     41.348400    8.260210   88.494700
  C     41.556200   10.201200   89.599200
  H     41.158600    9.775230   90.577300
  H     41.132200   11.171100   89.380100
  C     43.099000   10.402000   89.764100
  H     43.601200   10.892700   88.902300
  H     43.603800    9.432470   89.911800
  H     43.365100   10.948700   90.730600
  H     40.354900    9.020330   82.028000
  H     36.332700    9.875950   89.045000

 Total Charge           Charge          ....    0
 Multiplicity           Mult            ....    1
 Number of Electrons    NEL             ....  134
 Basis Dimension        Dim             ....  322

ORBITAL ENERGIES
----------------

  NO   OCC          E(Eh)            E(eV)
   0   2.0000     -88.969701     -2420.9886
   1   2.0000     -88.958981     -2420.6969
   2   2.0000     -10.326062      -280.9864
   3   2.0000     -10.324098      -280.9330
   4   2.0000     -10.318533      -280.7816
   5   2.0000     -10.309095      -280.5247
   6   2.0000     -10.306263      -280.4477
   7   2.0000     -10.300486      -280.2905
   8   2.0000     -10.297315      -280.2042
   9   2.0000     -10.295767      -280.1621
  10   2.0000     -10.293417      -280.0981
  11   2.0000     -10.292798      -280.0813
  12   2.0000     -10.292325      -280.0684
  13   2.0000     -10.291000      -280.0323
  14   2.0000     -10.287554      -279.9386
  15   2.0000     -10.276791      -279.6457
  16   2.0000      -8.084720      -219.9964
  17   2.0000      -8.073663      -219.6955
  18   2.0000      -6.043246      -164.4451
  19   2.0000      -6.039357      -164.3393
  20   2.0000      -6.035274      -164.2282
  21   2.0000      -6.032279      -164.1467
  22   2.0000      -6.028337      -164.0394
  23   2.0000      -6.024160      -163.9257
  24   2.0000      -1.009014       -27.4567
  25   2.0000      -0.979290       -26.6478
  26   2.0000      -0.914336       -24.8803
  27   2.0000      -0.902346       -24.5541
  28   2.0000      -0.871567       -23.7165
  29   2.0000      -0.855778       -23.2869
  30   2.0000      -0.842105       -22.9148
  31   2.0000      -0.808377       -21.9971
  32   2.0000      -0.783873       -21.3303
  33   2.0000      -0.776055       -21.1175
  34   2.0000      -0.711117       -19.3505
  35   2.0000      -0.700056       -19.0495
  36   2.0000      -0.697516       -18.9804
  37   2.0000      -0.656234       -17.8570
  38   2.0000      -0.635676       -17.2976
  39   2.0000      -0.619746       -16.8642
  40   2.0000      -0.586029       -15.9467
  41   2.0000      -0.573250       -15.5989
  42   2.0000      -0.562486       -15.3060
  43   2.0000      -0.550199       -14.9717
  44   2.0000      -0.542878       -14.7725
  45   2.0000      -0.524588       -14.2748
  46   2.0000      -0.517048       -14.0696
  47   2.0000      -0.510229       -13.8840
  48   2.0000      -0.500188       -13.6108
  49   2.0000      -0.497479       -13.5371
  50   2.0000      -0.495563       -13.4850
  51   2.0000      -0.480109       -13.0644
  52   2.0000      -0.469093       -12.7647
  53   2.0000      -0.466650       -12.6982
  54   2.0000      -0.459990       -12.5170
  55   2.0000      -0.452349       -12.3090
  56   2.0000      -0.449510       -12.2318
  57   2.0000      -0.435670       -11.8552
  58   2.0000      -0.432057       -11.7569
  59   2.0000      -0.423739       -11.5305
  60   2.0000      -0.419778       -11.4227
  61   2.0000      -0.414831       -11.2881
  62   2.0000      -0.408088       -11.1046
  63   2.0000      -0.350616        -9.5408
  64   2.0000      -0.333281        -9.0690
  65   2.0000      -0.325439        -8.8556
  66   2.0000      -0.285762        -7.7760
  67   0.0000       0.030544         0.8312
  68   0.0000       0.065839         1.7916
  69   0.0000       0.106819         2.9067
  70   0.0000       0.123576         3.3627
  71   0.0000       0.131768         3.5856

MULLIKEN ATOMIC CHARGES
-----------------------
   0 S :    0.126678
   1 C :   -0.132877
   2 C :   -0.075674
   3 C :    0.020998
   4 C :   -0.138064
   5 H :   -0.001017
   6 C :    0.026647
   7 H :    0.031083
   8 H :    0.028967
   9 C :   -0.045884
  10 H :    0.017963
  11 H :    0.028059
  12 C :   -0.037838
  13 H :    0.016854
  14 H :    0.040592
  15 H :    0.045621
  16 S :    0.080811
  17 C :   -0.090333
  18 C :   -0.050805
  19 C :   -0.035588
  20 C :   -0.167240
  21 H :    0.016658
  22 C :    0.080536
  23 H :    0.020787
  24 H :    0.052339
  25 C :   -0.098602
  26 H :    0.048393
  27 H :    0.036768
  28 C :   -0.075562
  29 H :    0.045799
  30 H :    0.029794
  31 H :    0.048489
  32 H :    0.041429
  33 H :    0.064216
Sum of atomic charges:   -0.0000000

LOEWDIN ATOMIC CHARGES
----------------------
   0 S :    0.411555
   1 C :   -0.197867
   2 C :   -0.066270
   3 C :   -0.056873
   4 C :   -0.201634
   5 H :    0.024934
   6 C :   -0.029113
   7 H :    0.025758
   8 H :    0.038945
   9 C :   -0.040802
  10 H :    0.025035
  11 H :    0.021948
  12 C :   -0.066888
  13 H :    0.018291
  14 H :    0.027385
  15 H :    0.036363
  16 S :    0.373047
  17 C :   -0.186125
  18 C :   -0.073146
  19 C :   -0.051963
  20 C :   -0.177302
  21 H :    0.026228
  22 C :   -0.032722
  23 H :    0.026659
  24 H :    0.038329
  25 C :   -0.043582
  26 H :    0.031227
  27 H :    0.025617
  28 C :   -0.075750
  29 H :    0.028776
  30 H :    0.024102
  31 H :    0.037499
  32 H :    0.026554
  33 H :    0.031784

  Mayer bond orders larger than 0.100000
B(  0-S ,  1-C ) :   1.1068 B(  0-S ,  4-C ) :   1.1568 B(  1-C ,  2-C ) :   1.6527
B(  1-C , 32-H ) :   0.9602 B(  2-C ,  3-C ) :   1.2367 B(  2-C ,  6-C ) :   1.0038
B(  3-C ,  4-C ) :   1.5523 B(  3-C ,  5-H ) :   0.9994 B(  4-C , 20-C ) :   1.0768
B(  6-C ,  7-H ) :   0.9482 B(  6-C ,  8-H ) :   0.9415 B(  6-C ,  9-C ) :   1.0706
B(  9-C , 10-H ) :   0.9521 B(  9-C , 11-H ) :   0.9580 B(  9-C , 12-C ) :   1.0777
B( 12-C , 13-H ) :   0.9757 B( 12-C , 14-H ) :   0.9682 B( 12-C , 15-H ) :   0.9701
B( 16-S , 17-C ) :   1.1479 B( 16-S , 20-C ) :   1.1036 B( 17-C , 18-C ) :   1.6274
B( 17-C , 33-H ) :   0.9665 B( 18-C , 19-C ) :   1.1866 B( 18-C , 21-H ) :   0.9910
B( 19-C , 20-C ) :   1.6467 B( 19-C , 22-C ) :   1.0144 B( 22-C , 23-H ) :   0.9343
B( 22-C , 24-H ) :   0.9271 B( 22-C , 25-C ) :   1.0770 B( 25-C , 26-H ) :   0.9492
B( 25-C , 27-H ) :   0.9567 B( 25-C , 28-C ) :   1.0808 B( 28-C , 29-H ) :   0.9753
B( 28-C , 30-H ) :   0.9748 B( 28-C , 31-H ) :   0.9739

Dispersion correction           -0.014000669
FINAL SINGLE POINT ENERGY     -1339.867303002993

DIPOLE MOMENT
-------------
                                X             Y             Z
Electronic contribution:    -27.67979       5.25710      -4.09851
Nuclear contribution   :     28.35604      -5.41393       4.35118
                        -----------------------------------------
Total Dipole Moment    :      0.67624      -0.15683       0.25267
                        -----------------------------------------
Magnitude (a.u.)       :      0.73874
Magnitude (Debye)      :      1.87774

Rotational constants in cm-1:     0.017341     0.008706     0.006367
Rotational constants in MHz :   519.876942   260.989259   190.872983

                             ****ORCA TERMINATED NORMALLY****
TOTAL RUN TIME: 0 days 0 hours 0 minutes 29 seconds 690 msec
