                         Program Version 4.2.1 -  RELEASE  -
|  1> ! wB97X-D3 SP def2-SVP
|  2> %pal
|  3> nprocs 16
|  4> end
|  5>
|  6> * xyz 0 1
|  7> S 	 -69.2292 	 39.0727 	 123.471
|  8> C 	 -69.9988 	 40.6016 	 123.537
|  9> C 	 -68.9747 	 41.6093 	 123.66
| 10> C 	 -67.6444 	 41.1394 	 123.734
| 11> C 	 -67.625 	 39.7545 	 123.667
| 12> H 	 -66.7465 	 41.7679 	 123.794
| 13> C 	 -69.265 	 43.1161 	 123.744
| 14> H 	 -68.9499 	 43.4598 	 124.741
| 15> H 	 -70.3098 	 43.3851 	 123.734
| 16> C 	 -68.5479 	 43.9878 	 122.752
| 17> H 	 -67.4761 	 43.7987 	 122.812
| 18> H 	 -68.9851 	 43.796 	 121.838
| 19> C 	 -68.9034 	 45.4928 	 122.942
| 20> H 	 -68.5315 	 46.1768 	 122.228
| 21> H 	 -69.965 	 45.5899 	 122.858
| 22> H 	 -68.6099 	 45.9285 	 123.841
| 23> S 	 -66.3428 	 37.7938 	 122.284
| 24> C 	 -64.717 	 37.3673 	 122.805
| 25> C 	 -64.2254 	 38.1649 	 123.785
| 26> C 	 -65.2033 	 39.1752 	 124.145
| 27> C 	 -66.4662 	 38.9073 	 123.577
| 28> H 	 -63.2307 	 37.9966 	 124.234
| 29> C 	 -64.7899 	 40.1147 	 125.276
| 30> H 	 -64.4857 	 39.3 	 125.953
| 31> H 	 -65.6394 	 40.6226 	 125.774
| 32> C 	 -63.5579 	 41.0408 	 125.034
| 33> H 	 -62.7877 	 40.3864 	 124.68
| 34> H 	 -63.1932 	 41.4927 	 125.945
| 35> C 	 -63.7079 	 42.2745 	 124.202
| 36> H 	 -64.237 	 42.0125 	 123.217
| 37> H 	 -62.7242 	 42.699 	 123.904
| 38> H 	 -64.2357 	 43.069 	 124.727
| 39> H 	 -71.058 	 40.7796 	 123.395
| 40> H 	 -64.1094 	 36.5769 	 122.363
| 41> *
| 42>
| 43>                          ****END OF INPUT****

CARTESIAN COORDINATES (ANGSTROEM)
---------------------------------
  S    -69.229200   39.072700  123.471000
  C    -69.998800   40.601600  123.537000
  C    -68.974700   41.609300  123.660000
  C    -67.644400   41.139400  123.734000
  C    -67.625000   39.754500  123.667000
  H    -66.746500   41.767900  123.794000
  C    -69.265000   43.116100  123.744000
  H    -68.949900   43.459800  124.741000
  H    -70.309800   43.385100  123.734000
  C    -68.547900   43.987800  122.752000
  H    -67.476100   43.798700  122.812000
  H    -68.985100   43.796000  121.838000
  C    -68.903400   45.492800  122.942000
  H    -68.531500   46.176800  122.228000
  H    -69.965000   45.589900  122.858000
  H    -68.609900   45.928500  123.841000
  S    -66.342800   37.793800  122.284000
  C    -64.717000   37.367300  122.805000
  C    -64.225400   38.164900  123.785000
  C    -65.203300   39.175200  124.145000
  C    -66.466200   38.907300  123.577000
  H    -63.230700   37.996600  124.234000
  C    -64.789900   40.114700  125.276000
  H    -64.485700   39.300000  125.953000
  H    -65.639400   40.622600  125.774000
  C    -63.557900   41.040800  125.034000
  H    -62.787700   40.386400  124.680000
  H    -63.193200   41.492700  125.945000
  C    -63.707900   42.274500  124.202000
  H    -64.237000   42.012500  123.217000
  H    -62.724200   42.699000  123.904000
  H    -64.235700   43.069000  124.727000
  H    -71.058000   40.779600  123.395000
  H    -64.109400   36.576900  122.363000

 Total Charge           Charge          ....    0
 Multiplicity           Mult            ....    1
 Number of Electrons    NEL             ....  134
 Basis Dimension        Dim             ....  322

ORBITAL ENERGIES
----------------

  NO   OCC          E(Eh)            E(eV)
   0   2.0000     -88.967748     -2420.9355
   1   2.0000     -88.966265     -2420.8951
   2   2.0000     -10.327587      -281.0279
   3   2.0000     -10.322724      -280.8956
   4   2.0000     -10.315786      -280.7068
   5   2.0000     -10.315153      -280.6896
   6   2.0000     -10.307491      -280.4811
   7   2.0000     -10.305107      -280.4162
   8   2.0000     -10.297396      -280.2064
   9   2.0000     -10.295471      -280.1540
  10   2.0000     -10.294509      -280.1278
  11   2.0000     -10.286994      -279.9233
  12   2.0000     -10.285555      -279.8842
  13   2.0000     -10.285484      -279.8822
  14   2.0000     -10.278379      -279.6889
  15   2.0000     -10.267110      -279.3823
  16   2.0000      -8.082722      -219.9420
  17   2.0000      -8.081568      -219.9106
  18   2.0000      -6.041112      -164.3870
  19   2.0000      -6.040093      -164.3593
  20   2.0000      -6.037044      -164.2763
  21   2.0000      -6.036172      -164.2526
  22   2.0000      -6.033765      -164.1871
  23   2.0000      -6.032096      -164.1417
  24   2.0000      -1.010328       -27.4924
  25   2.0000      -0.984566       -26.7914
  26   2.0000      -0.914071       -24.8731
  27   2.0000      -0.910005       -24.7625
  28   2.0000      -0.872384       -23.7388
  29   2.0000      -0.857249       -23.3269
  30   2.0000      -0.848928       -23.1005
  31   2.0000      -0.814518       -22.1642
  32   2.0000      -0.783044       -21.3077
  33   2.0000      -0.768950       -20.9242
  34   2.0000      -0.710365       -19.3300
  35   2.0000      -0.697631       -18.9835
  36   2.0000      -0.690539       -18.7905
  37   2.0000      -0.658769       -17.9260
  38   2.0000      -0.638634       -17.3781
  39   2.0000      -0.626033       -17.0352
  40   2.0000      -0.595584       -16.2067
  41   2.0000      -0.573863       -15.6156
  42   2.0000      -0.563290       -15.3279
  43   2.0000      -0.556077       -15.1316
  44   2.0000      -0.543568       -14.7912
  45   2.0000      -0.521778       -14.1983
  46   2.0000      -0.514624       -14.0036
  47   2.0000      -0.508641       -13.8408
  48   2.0000      -0.506198       -13.7744
  49   2.0000      -0.499388       -13.5890
  50   2.0000      -0.495184       -13.4746
  51   2.0000      -0.481781       -13.1099
  52   2.0000      -0.470733       -12.8093
  53   2.0000      -0.463541       -12.6136
  54   2.0000      -0.460690       -12.5360
  55   2.0000      -0.456845       -12.4314
  56   2.0000      -0.444430       -12.0936
  57   2.0000      -0.441945       -12.0259
  58   2.0000      -0.432363       -11.7652
  59   2.0000      -0.426567       -11.6075
  60   2.0000      -0.422401       -11.4941
  61   2.0000      -0.412832       -11.2337
  62   2.0000      -0.411100       -11.1866
  63   2.0000      -0.356541        -9.7020
  64   2.0000      -0.332242        -9.0408
  65   2.0000      -0.323507        -8.8031
  66   2.0000      -0.282082        -7.6758
  67   0.0000       0.026027         0.7082
  68   0.0000       0.077403         2.1062
  69   0.0000       0.107740         2.9318
  70   0.0000       0.118133         3.2146
  71   0.0000       0.124702         3.3933

MULLIKEN ATOMIC CHARGES
-----------------------
   0 S :    0.115025
   1 C :   -0.111225
   2 C :   -0.085145
   3 C :    0.019150
   4 C :   -0.155152
   5 H :    0.018504
   6 C :    0.049351
   7 H :    0.022120
   8 H :    0.001176
   9 C :   -0.045278
  10 H :    0.035015
  11 H :    0.014882
  12 C :   -0.017673
  13 H :    0.019680
  14 H :    0.013407
  15 H :    0.008483
  16 S :    0.112038
  17 C :   -0.089233
  18 C :   -0.045582
  19 C :   -0.059478
  20 C :   -0.102879
  21 H :    0.039680
  22 C :    0.008553
  23 H :    0.044417
  24 H :    0.033956
  25 C :   -0.034174
  26 H :    0.015330
  27 H :    0.024238
  28 C :   -0.080187
  29 H :    0.046972
  30 H :    0.039836
  31 H :    0.035370
  32 H :    0.054924
  33 H :    0.053900
Sum of atomic charges:   -0.0000000

LOEWDIN ATOMIC CHARGES
----------------------
   0 S :    0.426872
   1 C :   -0.222548
   2 C :   -0.054522
   3 C :   -0.064351
   4 C :   -0.189399
   5 H :    0.037554
   6 C :   -0.035493
   7 H :    0.029239
   8 H :    0.022621
   9 C :   -0.028469
  10 H :    0.022469
  11 H :    0.017632
  12 C :   -0.056548
  13 H :    0.022660
  14 H :    0.022851
  15 H :    0.013336
  16 S :    0.414629
  17 C :   -0.180738
  18 C :   -0.074948
  19 C :   -0.053414
  20 C :   -0.220620
  21 H :    0.039618
  22 C :   -0.039631
  23 H :    0.044190
  24 H :    0.029488
  25 C :   -0.042305
  26 H :    0.019678
  27 H :    0.027720
  28 C :   -0.074066
  29 H :    0.029939
  30 H :    0.032844
  31 H :    0.022819
  32 H :    0.030843
  33 H :    0.030051

  Mayer bond orders larger than 0.100000
B(  0-S ,  1-C ) :   1.1491 B(  0-S ,  4-C ) :   1.1761 B(  1-C ,  2-C ) :   1.5504
B(  1-C ,  4-C ) :   0.1047 B(  1-C , 32-H ) :   0.9745 B(  2-C ,  3-C ) :   1.2821
B(  2-C ,  6-C ) :   1.0239 B(  3-C ,  4-C ) :   1.5270 B(  3-C ,  5-H ) :   0.9838
B(  4-C , 20-C ) :   1.0497 B(  6-C ,  7-H ) :   0.9406 B(  6-C ,  8-H ) :   0.9458
B(  6-C ,  9-C ) :   1.0676 B(  9-C , 10-H ) :   0.9558 B(  9-C , 11-H ) :   0.9547
B(  9-C , 12-C ) :   1.0818 B( 12-C , 13-H ) :   0.9739 B( 12-C , 14-H ) :   0.9726
B( 12-C , 15-H ) :   0.9758 B( 16-S , 17-C ) :   1.1419 B( 16-S , 20-C ) :   1.1390
B( 17-C , 18-C ) :   1.6460 B( 17-C , 33-H ) :   0.9636 B( 18-C , 19-C ) :   1.2090
B( 18-C , 21-H ) :   0.9814 B( 19-C , 20-C ) :   1.5929 B( 19-C , 22-C ) :   1.0173
B( 22-C , 23-H ) :   0.9393 B( 22-C , 24-H ) :   0.9474 B( 22-C , 25-C ) :   1.0687
B( 25-C , 26-H ) :   0.9531 B( 25-C , 27-H ) :   0.9519 B( 25-C , 28-C ) :   1.0888
B( 28-C , 29-H ) :   0.9685 B( 28-C , 30-H ) :   0.9682 B( 28-C , 31-H ) :   0.9726

Dispersion correction           -0.014245047
FINAL SINGLE POINT ENERGY     -1339.865770040491

DIPOLE MOMENT
-------------
                                X             Y             Z
Electronic contribution:     -8.78352     -29.83134      -5.54961
Nuclear contribution   :      9.23806      30.35934       5.72884
                        -----------------------------------------
Total Dipole Moment    :      0.45454       0.52800       0.17922
                        -----------------------------------------
Magnitude (a.u.)       :      0.71938
Magnitude (Debye)      :      1.82852

Rotational constants in cm-1:     0.017290     0.009541     0.006781
Rotational constants in MHz :   518.355029   286.022153   203.290042

                             ****ORCA TERMINATED NORMALLY****
TOTAL RUN TIME: 0 days 0 hours 0 minutes 32 seconds 481 msec
