                         Program Version 4.2.1 -  RELEASE  -
|  1> ! wB97X-D3 SP def2-SVP
|  2> %pal
|  3> nprocs 16
|  4> end
|  5>
|  6> * xyz 0 1
|  7> S 	 53.5406 	 0.203803 	 78.8882
|  8> C 	 52.1981 	 -0.0776344 	 79.9464
|  9> C 	 52.5339 	 0.189599 	 81.3026
| 10> C 	 53.9083 	 0.641348 	 81.4671
| 11> C 	 54.5786 	 0.780051 	 80.2469
| 12> H 	 54.5842 	 0.957802 	 82.335
| 13> C 	 51.5044 	 0.0295104 	 82.4522
| 14> H 	 51.8724 	 -0.600122 	 83.2351
| 15> H 	 50.6181 	 -0.474562 	 81.9981
| 16> C 	 51.1461 	 1.34309 	 83.0555
| 17> H 	 51.9931 	 1.59274 	 83.7282
| 18> H 	 51.1592 	 2.16808 	 82.2846
| 19> C 	 49.8293 	 1.43666 	 83.8953
| 20> H 	 49.8986 	 0.769777 	 84.7999
| 21> H 	 49.605 	 2.38884 	 84.3396
| 22> H 	 49.0483 	 0.968606 	 83.3507
| 23> S 	 56.1407 	 3.16545 	 80.2221
| 24> C 	 57.8713 	 3.04007 	 79.8807
| 25> C 	 58.2503 	 1.70828 	 79.7286
| 26> C 	 57.1699 	 0.792055 	 79.7839
| 27> C 	 55.9384 	 1.36517 	 80.1121
| 28> H 	 59.2692 	 1.52651 	 79.4509
| 29> C 	 57.4481 	 -0.662134 	 79.5073
| 30> H 	 58.413 	 -0.63471 	 79.0689
| 31> H 	 56.7287 	 -0.924092 	 78.7775
| 32> C 	 57.4142 	 -1.62003 	 80.6649
| 33> H 	 56.357 	 -1.68892 	 80.8877
| 34> H 	 58.0468 	 -1.18848 	 81.4501
| 35> C 	 57.8854 	 -3.11906 	 80.3049
| 36> H 	 58.8637 	 -3.06579 	 79.8864
| 37> H 	 57.1339 	 -3.69538 	 79.7807
| 38> H 	 58.0339 	 -3.6458 	 81.2551
| 39> H 	 51.2569 	 -0.455025 	 79.6746
| 40> H 	 58.6706 	 3.73751 	 79.9429
| 41> *
| 42>
| 43>                          ****END OF INPUT****

CARTESIAN COORDINATES (ANGSTROEM)
---------------------------------
  S     53.540600    0.203803   78.888200
  C     52.198100   -0.077634   79.946400
  C     52.533900    0.189599   81.302600
  C     53.908300    0.641348   81.467100
  C     54.578600    0.780051   80.246900
  H     54.584200    0.957802   82.335000
  C     51.504400    0.029510   82.452200
  H     51.872400   -0.600122   83.235100
  H     50.618100   -0.474562   81.998100
  C     51.146100    1.343090   83.055500
  H     51.993100    1.592740   83.728200
  H     51.159200    2.168080   82.284600
  C     49.829300    1.436660   83.895300
  H     49.898600    0.769777   84.799900
  H     49.605000    2.388840   84.339600
  H     49.048300    0.968606   83.350700
  S     56.140700    3.165450   80.222100
  C     57.871300    3.040070   79.880700
  C     58.250300    1.708280   79.728600
  C     57.169900    0.792055   79.783900
  C     55.938400    1.365170   80.112100
  H     59.269200    1.526510   79.450900
  C     57.448100   -0.662134   79.507300
  H     58.413000   -0.634710   79.068900
  H     56.728700   -0.924092   78.777500
  C     57.414200   -1.620030   80.664900
  H     56.357000   -1.688920   80.887700
  H     58.046800   -1.188480   81.450100
  C     57.885400   -3.119060   80.304900
  H     58.863700   -3.065790   79.886400
  H     57.133900   -3.695380   79.780700
  H     58.033900   -3.645800   81.255100
  H     51.256900   -0.455025   79.674600
  H     58.670600    3.737510   79.942900

 Total Charge           Charge          ....    0
 Multiplicity           Mult            ....    1
 Number of Electrons    NEL             ....  134
 Basis Dimension        Dim             ....  322

ORBITAL ENERGIES
----------------

  NO   OCC          E(Eh)            E(eV)
   0   2.0000     -88.971052     -2421.0254
   1   2.0000     -88.968844     -2420.9653
   2   2.0000     -10.336955      -281.2828
   3   2.0000     -10.332798      -281.1697
   4   2.0000     -10.319616      -280.8110
   5   2.0000     -10.319181      -280.7992
   6   2.0000     -10.314504      -280.6719
   7   2.0000     -10.308474      -280.5078
   8   2.0000     -10.303341      -280.3682
   9   2.0000     -10.294633      -280.1312
  10   2.0000     -10.291250      -280.0391
  11   2.0000     -10.288881      -279.9747
  12   2.0000     -10.284997      -279.8690
  13   2.0000     -10.279744      -279.7261
  14   2.0000     -10.278375      -279.6888
  15   2.0000     -10.277135      -279.6551
  16   2.0000      -8.084725      -219.9966
  17   2.0000      -8.081875      -219.9190
  18   2.0000      -6.043286      -164.4462
  19   2.0000      -6.040570      -164.3723
  20   2.0000      -6.039284      -164.3373
  21   2.0000      -6.036547      -164.2628
  22   2.0000      -6.035585      -164.2366
  23   2.0000      -6.032592      -164.1552
  24   2.0000      -0.995359       -27.0851
  25   2.0000      -0.976903       -26.5829
  26   2.0000      -0.909722       -24.7548
  27   2.0000      -0.907677       -24.6992
  28   2.0000      -0.866654       -23.5828
  29   2.0000      -0.844326       -22.9753
  30   2.0000      -0.842082       -22.9142
  31   2.0000      -0.814452       -22.1624
  32   2.0000      -0.783055       -21.3080
  33   2.0000      -0.771813       -21.0021
  34   2.0000      -0.711204       -19.3528
  35   2.0000      -0.693818       -18.8798
  36   2.0000      -0.687816       -18.7164
  37   2.0000      -0.664151       -18.0725
  38   2.0000      -0.642298       -17.4778
  39   2.0000      -0.608380       -16.5549
  40   2.0000      -0.586939       -15.9714
  41   2.0000      -0.573469       -15.6049
  42   2.0000      -0.572907       -15.5896
  43   2.0000      -0.560970       -15.2648
  44   2.0000      -0.526588       -14.3292
  45   2.0000      -0.520833       -14.1726
  46   2.0000      -0.508751       -13.8438
  47   2.0000      -0.507787       -13.8176
  48   2.0000      -0.504317       -13.7232
  49   2.0000      -0.497777       -13.5452
  50   2.0000      -0.491843       -13.3837
  51   2.0000      -0.483701       -13.1622
  52   2.0000      -0.477276       -12.9873
  53   2.0000      -0.466994       -12.7076
  54   2.0000      -0.456095       -12.4110
  55   2.0000      -0.447904       -12.1881
  56   2.0000      -0.440435       -11.9849
  57   2.0000      -0.433670       -11.8008
  58   2.0000      -0.428376       -11.6567
  59   2.0000      -0.427005       -11.6194
  60   2.0000      -0.420486       -11.4420
  61   2.0000      -0.408917       -11.1272
  62   2.0000      -0.407451       -11.0873
  63   2.0000      -0.338534        -9.2120
  64   2.0000      -0.332565        -9.0496
  65   2.0000      -0.323051        -8.7907
  66   2.0000      -0.305429        -8.3111
  67   0.0000       0.033501         0.9116
  68   0.0000       0.048610         1.3228
  69   0.0000       0.110432         3.0050
  70   0.0000       0.113495         3.0884
  71   0.0000       0.131839         3.5875

MULLIKEN ATOMIC CHARGES
-----------------------
   0 S :    0.120358
   1 C :   -0.090459
   2 C :   -0.109440
   3 C :    0.022841
   4 C :   -0.185781
   5 H :    0.055292
   6 C :    0.097532
   7 H :    0.031593
   8 H :    0.015206
   9 C :   -0.121900
  10 H :    0.031035
  11 H :    0.044379
  12 C :   -0.027008
  13 H :    0.017880
  14 H :    0.042022
  15 H :    0.023141
  16 S :    0.110137
  17 C :   -0.065874
  18 C :   -0.062643
  19 C :   -0.043811
  20 C :   -0.190950
  21 H :    0.017374
  22 C :    0.142434
  23 H :   -0.008067
  24 H :    0.012223
  25 C :   -0.083299
  26 H :    0.036870
  27 H :    0.032683
  28 C :   -0.042224
  29 H :    0.027022
  30 H :    0.043128
  31 H :    0.030044
  32 H :    0.034281
  33 H :    0.043979
Sum of atomic charges:    0.0000000

LOEWDIN ATOMIC CHARGES
----------------------
   0 S :    0.395780
   1 C :   -0.194365
   2 C :   -0.055646
   3 C :   -0.065619
   4 C :   -0.192102
   5 H :    0.053610
   6 C :   -0.030835
   7 H :    0.029235
   8 H :    0.028441
   9 C :   -0.051248
  10 H :    0.025837
  11 H :    0.028831
  12 C :   -0.065813
  13 H :    0.028272
  14 H :    0.027233
  15 H :    0.018570
  16 S :    0.383191
  17 C :   -0.174355
  18 C :   -0.075998
  19 C :   -0.046050
  20 C :   -0.193297
  21 H :    0.029309
  22 C :   -0.029663
  23 H :    0.020397
  24 H :    0.025920
  25 C :   -0.032039
  26 H :    0.026613
  27 H :    0.025515
  28 C :   -0.063102
  29 H :    0.019441
  30 H :    0.026797
  31 H :    0.029075
  32 H :    0.020041
  33 H :    0.028022

  Mayer bond orders larger than 0.100000
B(  0-S ,  1-C ) :   1.1497 B(  0-S ,  4-C ) :   1.1261 B(  1-C ,  2-C ) :   1.6064
B(  1-C , 32-H ) :   0.9714 B(  2-C ,  3-C ) :   1.2095 B(  2-C ,  6-C ) :   1.0319
B(  3-C ,  4-C ) :   1.5978 B(  3-C ,  5-H ) :   0.9763 B(  4-C , 20-C ) :   1.0504
B(  6-C ,  7-H ) :   0.9388 B(  6-C ,  8-H ) :   0.9418 B(  6-C ,  9-C ) :   1.0500
B(  9-C , 10-H ) :   0.9529 B(  9-C , 11-H ) :   0.9618 B(  9-C , 12-C ) :   1.0806
B( 12-C , 13-H ) :   0.9711 B( 12-C , 14-H ) :   0.9762 B( 12-C , 15-H ) :   0.9769
B( 16-S , 17-C ) :   1.1576 B( 16-S , 20-C ) :   1.1168 B( 17-C , 18-C ) :   1.6252
B( 17-C , 20-C ) :   0.1014 B( 17-C , 33-H ) :   0.9610 B( 18-C , 19-C ) :   1.2555
B( 18-C , 21-H ) :   0.9842 B( 19-C , 20-C ) :   1.5818 B( 19-C , 22-C ) :   1.0358
B( 22-C , 23-H ) :   0.9236 B( 22-C , 24-H ) :   0.9182 B( 22-C , 25-C ) :   1.0742
B( 25-C , 26-H ) :   0.9554 B( 25-C , 27-H ) :   0.9576 B( 25-C , 28-C ) :   1.0817
B( 28-C , 29-H ) :   0.9763 B( 28-C , 30-H ) :   0.9773 B( 28-C , 31-H ) :   0.9764

Dispersion correction           -0.014020053
FINAL SINGLE POINT ENERGY     -1339.862001692846

DIPOLE MOMENT
-------------
                                X             Y             Z
Electronic contribution:      4.89754      13.72809     -14.47532
Nuclear contribution   :     -4.78133     -14.04634      14.82052
                        -----------------------------------------
Total Dipole Moment    :      0.11621      -0.31824       0.34520
                        -----------------------------------------
Magnitude (a.u.)       :      0.48368
Magnitude (Debye)      :      1.22942

Rotational constants in cm-1:     0.018327     0.007682     0.006492
Rotational constants in MHz :   549.421718   230.288553   194.634336

                             ****ORCA TERMINATED NORMALLY****
TOTAL RUN TIME: 0 days 0 hours 0 minutes 29 seconds 338 msec
