                         Program Version 4.2.1 -  RELEASE  -
|  1> ! wB97X-D3 SP def2-SVP
|  2> %pal
|  3> nprocs 16
|  4> end
|  5>
|  6> * xyz 0 1
|  7> S 	 49.3711 	 4.84284 	 91.049
|  8> C 	 49.4803 	 6.61231 	 90.7714
|  9> C 	 49.5855 	 7.25888 	 92.0134
| 10> C 	 49.4945 	 6.31562 	 93.0899
| 11> C 	 49.5054 	 4.9854 	 92.7288
| 12> H 	 49.4378 	 6.472 	 94.1796
| 13> C 	 49.754 	 8.73011 	 92.2654
| 14> H 	 49.4546 	 9.03398 	 93.3216
| 15> H 	 48.9682 	 9.25616 	 91.6277
| 16> C 	 51.1399 	 9.17575 	 91.8931
| 17> H 	 51.9562 	 8.75219 	 92.4957
| 18> H 	 51.4963 	 9.02446 	 90.8563
| 19> C 	 51.3872 	 10.66 	 92.2073
| 20> H 	 52.4506 	 10.8615 	 92.4115
| 21> H 	 50.9906 	 11.3572 	 91.4708
| 22> H 	 50.8131 	 10.908 	 93.1146
| 23> S 	 47.7081 	 2.94916 	 93.2697
| 24> C 	 47.7417 	 2.17392 	 94.8174
| 25> C 	 48.8349 	 2.49171 	 95.5766
| 26> C 	 49.5564 	 3.51505 	 94.9485
| 27> C 	 49.0863 	 3.92092 	 93.6901
| 28> H 	 49.0451 	 2.03725 	 96.5593
| 29> C 	 50.7413 	 3.98739 	 95.629
| 30> H 	 50.5244 	 4.1878 	 96.6321
| 31> H 	 51.0108 	 4.97801 	 95.2283
| 32> C 	 51.9707 	 3.12541 	 95.428
| 33> H 	 51.8392 	 2.08185 	 95.6776
| 34> H 	 52.7433 	 3.43623 	 96.2012
| 35> C 	 52.5507 	 3.20795 	 94.0562
| 36> H 	 51.9106 	 2.72645 	 93.2752
| 37> H 	 53.4958 	 2.6605 	 94.0157
| 38> H 	 52.7749 	 4.27718 	 93.841
| 39> H 	 49.1924 	 7.12228 	 89.849
| 40> H 	 46.9594 	 1.46535 	 95.1705
| 41> *
| 42>
| 43>                          ****END OF INPUT****

CARTESIAN COORDINATES (ANGSTROEM)
---------------------------------
  S     49.371100    4.842840   91.049000
  C     49.480300    6.612310   90.771400
  C     49.585500    7.258880   92.013400
  C     49.494500    6.315620   93.089900
  C     49.505400    4.985400   92.728800
  H     49.437800    6.472000   94.179600
  C     49.754000    8.730110   92.265400
  H     49.454600    9.033980   93.321600
  H     48.968200    9.256160   91.627700
  C     51.139900    9.175750   91.893100
  H     51.956200    8.752190   92.495700
  H     51.496300    9.024460   90.856300
  C     51.387200   10.660000   92.207300
  H     52.450600   10.861500   92.411500
  H     50.990600   11.357200   91.470800
  H     50.813100   10.908000   93.114600
  S     47.708100    2.949160   93.269700
  C     47.741700    2.173920   94.817400
  C     48.834900    2.491710   95.576600
  C     49.556400    3.515050   94.948500
  C     49.086300    3.920920   93.690100
  H     49.045100    2.037250   96.559300
  C     50.741300    3.987390   95.629000
  H     50.524400    4.187800   96.632100
  H     51.010800    4.978010   95.228300
  C     51.970700    3.125410   95.428000
  H     51.839200    2.081850   95.677600
  H     52.743300    3.436230   96.201200
  C     52.550700    3.207950   94.056200
  H     51.910600    2.726450   93.275200
  H     53.495800    2.660500   94.015700
  H     52.774900    4.277180   93.841000
  H     49.192400    7.122280   89.849000
  H     46.959400    1.465350   95.170500

 Total Charge           Charge          ....    0
 Multiplicity           Mult            ....    1
 Number of Electrons    NEL             ....  134
 Basis Dimension        Dim             ....  322

ORBITAL ENERGIES
----------------

  NO   OCC          E(Eh)            E(eV)
   0   2.0000     -88.967896     -2420.9395
   1   2.0000     -88.965666     -2420.8789
   2   2.0000     -10.328450      -281.0514
   3   2.0000     -10.326579      -281.0005
   4   2.0000     -10.320397      -280.8323
   5   2.0000     -10.316477      -280.7256
   6   2.0000     -10.307466      -280.4804
   7   2.0000     -10.305038      -280.4143
   8   2.0000     -10.294611      -280.1306
   9   2.0000     -10.291984      -280.0591
  10   2.0000     -10.290670      -280.0234
  11   2.0000     -10.287481      -279.9366
  12   2.0000     -10.281759      -279.7809
  13   2.0000     -10.276986      -279.6510
  14   2.0000     -10.276563      -279.6395
  15   2.0000     -10.272663      -279.5334
  16   2.0000      -8.082715      -219.9419
  17   2.0000      -8.080951      -219.8939
  18   2.0000      -6.041238      -164.3905
  19   2.0000      -6.039322      -164.3383
  20   2.0000      -6.037118      -164.2783
  21   2.0000      -6.035415      -164.2320
  22   2.0000      -6.033532      -164.1808
  23   2.0000      -6.031786      -164.1332
  24   2.0000      -1.011301       -27.5189
  25   2.0000      -0.988906       -26.9095
  26   2.0000      -0.919408       -25.0184
  27   2.0000      -0.916398       -24.9365
  28   2.0000      -0.868748       -23.6398
  29   2.0000      -0.851955       -23.1829
  30   2.0000      -0.846725       -23.0406
  31   2.0000      -0.813337       -22.1320
  32   2.0000      -0.781031       -21.2529
  33   2.0000      -0.770747       -20.9731
  34   2.0000      -0.700136       -19.0517
  35   2.0000      -0.697409       -18.9775
  36   2.0000      -0.688304       -18.7297
  37   2.0000      -0.660312       -17.9680
  38   2.0000      -0.642479       -17.4827
  39   2.0000      -0.615466       -16.7477
  40   2.0000      -0.599650       -16.3173
  41   2.0000      -0.573213       -15.5979
  42   2.0000      -0.560692       -15.2572
  43   2.0000      -0.557016       -15.1572
  44   2.0000      -0.537476       -14.6255
  45   2.0000      -0.531814       -14.4714
  46   2.0000      -0.520011       -14.1502
  47   2.0000      -0.507007       -13.7964
  48   2.0000      -0.503587       -13.7033
  49   2.0000      -0.497867       -13.5477
  50   2.0000      -0.493573       -13.4308
  51   2.0000      -0.477397       -12.9906
  52   2.0000      -0.469078       -12.7643
  53   2.0000      -0.457210       -12.4413
  54   2.0000      -0.454083       -12.3562
  55   2.0000      -0.447444       -12.1756
  56   2.0000      -0.444646       -12.0994
  57   2.0000      -0.439141       -11.9496
  58   2.0000      -0.435032       -11.8378
  59   2.0000      -0.421886       -11.4801
  60   2.0000      -0.416258       -11.3270
  61   2.0000      -0.411161       -11.1883
  62   2.0000      -0.406977       -11.0744
  63   2.0000      -0.347082        -9.4446
  64   2.0000      -0.331132        -9.0106
  65   2.0000      -0.329667        -8.9707
  66   2.0000      -0.289608        -7.8806
  67   0.0000       0.029651         0.8069
  68   0.0000       0.069272         1.8850
  69   0.0000       0.111764         3.0412
  70   0.0000       0.121821         3.3149
  71   0.0000       0.132107         3.5948

MULLIKEN ATOMIC CHARGES
-----------------------
   0 S :    0.091086
   1 C :   -0.133111
   2 C :   -0.065321
   3 C :    0.002548
   4 C :   -0.113259
   5 H :    0.025895
   6 C :    0.041904
   7 H :    0.039389
   8 H :    0.040336
   9 C :   -0.078431
  10 H :    0.031169
  11 H :    0.039076
  12 C :   -0.059903
  13 H :    0.038951
  14 H :    0.030778
  15 H :    0.015700
  16 S :    0.112882
  17 C :   -0.108044
  18 C :   -0.028482
  19 C :   -0.079116
  20 C :   -0.146686
  21 H :    0.031654
  22 C :    0.110286
  23 H :    0.006572
  24 H :   -0.001819
  25 C :   -0.078951
  26 H :    0.016196
  27 H :    0.027843
  28 C :   -0.053808
  29 H :    0.050446
  30 H :    0.028914
  31 H :    0.034826
  32 H :    0.063934
  33 H :    0.066546
Sum of atomic charges:   -0.0000000

LOEWDIN ATOMIC CHARGES
----------------------
   0 S :    0.414905
   1 C :   -0.196393
   2 C :   -0.055834
   3 C :   -0.070607
   4 C :   -0.216580
   5 H :    0.033876
   6 C :   -0.039646
   7 H :    0.039201
   8 H :    0.039553
   9 C :   -0.049053
  10 H :    0.030717
  11 H :    0.030113
  12 C :   -0.069558
  13 H :    0.027620
  14 H :    0.020009
  15 H :    0.022366
  16 S :    0.419868
  17 C :   -0.190883
  18 C :   -0.073305
  19 C :   -0.063006
  20 C :   -0.202431
  21 H :    0.041091
  22 C :   -0.036155
  23 H :    0.023125
  24 H :    0.028591
  25 C :   -0.043369
  26 H :    0.017856
  27 H :    0.029199
  28 C :   -0.067956
  29 H :    0.032123
  30 H :    0.026492
  31 H :    0.028233
  32 H :    0.034461
  33 H :    0.035374

  Mayer bond orders larger than 0.100000
B(  0-S ,  1-C ) :   1.1366 B(  0-S ,  4-C ) :   1.1623 B(  1-C ,  2-C ) :   1.5769
B(  1-C , 32-H ) :   0.9687 B(  2-C ,  3-C ) :   1.2665 B(  2-C ,  6-C ) :   1.0230
B(  3-C ,  4-C ) :   1.5605 B(  3-C ,  5-H ) :   0.9839 B(  4-C , 20-C ) :   1.0140
B(  6-C ,  7-H ) :   0.9433 B(  6-C ,  8-H ) :   0.9363 B(  6-C ,  9-C ) :   1.0652
B(  9-C , 10-H ) :   0.9582 B(  9-C , 11-H ) :   0.9566 B(  9-C , 12-C ) :   1.0747
B( 12-C , 13-H ) :   0.9802 B( 12-C , 14-H ) :   0.9755 B( 12-C , 15-H ) :   0.9713
B( 16-S , 17-C ) :   1.1769 B( 16-S , 20-C ) :   1.1390 B( 17-C , 18-C ) :   1.5811
B( 17-C , 33-H ) :   0.9598 B( 18-C , 19-C ) :   1.2669 B( 18-C , 21-H ) :   0.9909
B( 19-C , 20-C ) :   1.5753 B( 19-C , 22-C ) :   1.0691 B( 22-C , 23-H ) :   0.9204
B( 22-C , 24-H ) :   0.9207 B( 22-C , 25-C ) :   1.0762 B( 25-C , 26-H ) :   0.9528
B( 25-C , 27-H ) :   0.9495 B( 25-C , 28-C ) :   1.0898 B( 28-C , 29-H ) :   0.9714
B( 28-C , 30-H ) :   0.9687 B( 28-C , 31-H ) :   0.9713

Dispersion correction           -0.014533928
FINAL SINGLE POINT ENERGY     -1339.872224711018

DIPOLE MOMENT
-------------
                                X             Y             Z
Electronic contribution:    -18.71044     -17.45128      -7.83605
Nuclear contribution   :     18.82027      17.81293       8.31017
                        -----------------------------------------
Total Dipole Moment    :      0.10983       0.36165       0.47412
                        -----------------------------------------
Magnitude (a.u.)       :      0.60634
Magnitude (Debye)      :      1.54120

Rotational constants in cm-1:     0.021303     0.008066     0.006863
Rotational constants in MHz :   638.643995   241.808206   205.741833

                             ****ORCA TERMINATED NORMALLY****
TOTAL RUN TIME: 0 days 0 hours 0 minutes 30 seconds 376 msec
