                         Program Version 4.2.1 -  RELEASE  -
|  1> ! wB97X-D3 SP def2-SVP
|  2> %pal
|  3> nprocs 16
|  4> end
|  5>
|  6> * xyz 0 1
|  7> S 	 13.7823 	 10.2491 	 85.1174
|  8> C 	 14.1036 	 8.53979 	 85.0329
|  9> C 	 13.0231 	 7.78207 	 85.5076
| 10> C 	 12.0764 	 8.60031 	 86.1415
| 11> C 	 12.342 	 9.93164 	 86.1016
| 12> H 	 11.3125 	 8.12964 	 86.7456
| 13> C 	 13.0009 	 6.26153 	 85.4374
| 14> H 	 13.4286 	 5.93202 	 84.4568
| 15> H 	 11.9774 	 5.90881 	 85.5485
| 16> C 	 13.9637 	 5.57849 	 86.4296
| 17> H 	 14.9981 	 5.90832 	 85.9946
| 18> H 	 13.7985 	 6.05838 	 87.4412
| 19> C 	 13.9081 	 4.08648 	 86.4666
| 20> H 	 14.6161 	 3.71902 	 87.1964
| 21> H 	 12.8298 	 3.95197 	 86.71
| 22> H 	 14.0727 	 3.70593 	 85.4626
| 23> S 	 10.5073 	 12.0064 	 85.6263
| 24> C 	 9.77954 	 12.7925 	 87.0425
| 25> C 	 10.209 	 12.2266 	 88.2031
| 26> C 	 11.1407 	 11.1358 	 88.0126
| 27> C 	 11.5371 	 10.9816 	 86.6886
| 28> H 	 9.80121 	 12.4576 	 89.1505
| 29> C 	 11.7285 	 10.3071 	 89.1257
| 30> H 	 12.052 	 9.32986 	 88.7382
| 31> H 	 10.9594 	 10.1452 	 89.9746
| 32> C 	 13.0112 	 10.8991 	 89.7672
| 33> H 	 13.415 	 10.2055 	 90.4987
| 34> H 	 12.6817 	 11.8274 	 90.341
| 35> C 	 14.1216 	 11.2753 	 88.7347
| 36> H 	 14.9094 	 11.5894 	 89.3878
| 37> H 	 13.756 	 12.1373 	 88.1357
| 38> H 	 14.6591 	 10.4075 	 88.2562
| 39> H 	 15.046 	 8.27008 	 84.4889
| 40> H 	 8.94115 	 13.4687 	 87.0598
| 41> *
| 42>
| 43>                          ****END OF INPUT****

CARTESIAN COORDINATES (ANGSTROEM)
---------------------------------
  S     13.782300   10.249100   85.117400
  C     14.103600    8.539790   85.032900
  C     13.023100    7.782070   85.507600
  C     12.076400    8.600310   86.141500
  C     12.342000    9.931640   86.101600
  H     11.312500    8.129640   86.745600
  C     13.000900    6.261530   85.437400
  H     13.428600    5.932020   84.456800
  H     11.977400    5.908810   85.548500
  C     13.963700    5.578490   86.429600
  H     14.998100    5.908320   85.994600
  H     13.798500    6.058380   87.441200
  C     13.908100    4.086480   86.466600
  H     14.616100    3.719020   87.196400
  H     12.829800    3.951970   86.710000
  H     14.072700    3.705930   85.462600
  S     10.507300   12.006400   85.626300
  C      9.779540   12.792500   87.042500
  C     10.209000   12.226600   88.203100
  C     11.140700   11.135800   88.012600
  C     11.537100   10.981600   86.688600
  H      9.801210   12.457600   89.150500
  C     11.728500   10.307100   89.125700
  H     12.052000    9.329860   88.738200
  H     10.959400   10.145200   89.974600
  C     13.011200   10.899100   89.767200
  H     13.415000   10.205500   90.498700
  H     12.681700   11.827400   90.341000
  C     14.121600   11.275300   88.734700
  H     14.909400   11.589400   89.387800
  H     13.756000   12.137300   88.135700
  H     14.659100   10.407500   88.256200
  H     15.046000    8.270080   84.488900
  H      8.941150   13.468700   87.059800

 Total Charge           Charge          ....    0
 Multiplicity           Mult            ....    1
 Number of Electrons    NEL             ....  134
 Basis Dimension        Dim             ....  322

ORBITAL ENERGIES
----------------

  NO   OCC          E(Eh)            E(eV)
   0   2.0000     -88.966169     -2420.8925
   1   2.0000     -88.963790     -2420.8278
   2   2.0000     -10.326970      -281.0111
   3   2.0000     -10.326368      -280.9947
   4   2.0000     -10.320009      -280.8217
   5   2.0000     -10.317648      -280.7575
   6   2.0000     -10.302998      -280.3588
   7   2.0000     -10.302842      -280.3546
   8   2.0000     -10.296629      -280.1855
   9   2.0000     -10.294950      -280.1398
  10   2.0000     -10.294337      -280.1232
  11   2.0000     -10.292554      -280.0746
  12   2.0000     -10.290952      -280.0311
  13   2.0000     -10.289015      -279.9783
  14   2.0000     -10.281298      -279.7683
  15   2.0000     -10.274016      -279.5702
  16   2.0000      -8.080755      -219.8885
  17   2.0000      -8.077424      -219.7979
  18   2.0000      -6.039085      -164.3319
  19   2.0000      -6.036134      -164.2516
  20   2.0000      -6.035306      -164.2290
  21   2.0000      -6.032159      -164.1434
  22   2.0000      -6.031686      -164.1305
  23   2.0000      -6.027940      -164.0286
  24   2.0000      -1.004780       -27.3415
  25   2.0000      -0.980315       -26.6757
  26   2.0000      -0.915154       -24.9026
  27   2.0000      -0.900124       -24.4936
  28   2.0000      -0.870240       -23.6804
  29   2.0000      -0.855709       -23.2850
  30   2.0000      -0.838266       -22.8104
  31   2.0000      -0.815706       -22.1965
  32   2.0000      -0.781779       -21.2733
  33   2.0000      -0.765844       -20.8397
  34   2.0000      -0.701443       -19.0872
  35   2.0000      -0.686963       -18.6932
  36   2.0000      -0.683032       -18.5862
  37   2.0000      -0.657318       -17.8865
  38   2.0000      -0.644128       -17.5276
  39   2.0000      -0.624466       -16.9926
  40   2.0000      -0.589657       -16.0454
  41   2.0000      -0.573847       -15.6152
  42   2.0000      -0.563086       -15.3223
  43   2.0000      -0.550130       -14.9698
  44   2.0000      -0.540941       -14.7197
  45   2.0000      -0.532851       -14.4996
  46   2.0000      -0.514089       -13.9891
  47   2.0000      -0.505013       -13.7421
  48   2.0000      -0.499755       -13.5990
  49   2.0000      -0.495101       -13.4724
  50   2.0000      -0.486702       -13.2438
  51   2.0000      -0.477910       -13.0046
  52   2.0000      -0.473953       -12.8969
  53   2.0000      -0.463747       -12.6192
  54   2.0000      -0.459575       -12.5057
  55   2.0000      -0.445263       -12.1162
  56   2.0000      -0.440668       -11.9912
  57   2.0000      -0.432616       -11.7721
  58   2.0000      -0.424836       -11.5604
  59   2.0000      -0.423312       -11.5189
  60   2.0000      -0.413942       -11.2639
  61   2.0000      -0.410624       -11.1736
  62   2.0000      -0.407735       -11.0950
  63   2.0000      -0.344191        -9.3659
  64   2.0000      -0.330632        -8.9969
  65   2.0000      -0.325832        -8.8663
  66   2.0000      -0.295334        -8.0364
  67   0.0000       0.034717         0.9447
  68   0.0000       0.054800         1.4912
  69   0.0000       0.110074         2.9953
  70   0.0000       0.112799         3.0694
  71   0.0000       0.126644         3.4462

MULLIKEN ATOMIC CHARGES
-----------------------
   0 S :    0.118178
   1 C :   -0.168762
   2 C :   -0.068454
   3 C :    0.060333
   4 C :   -0.186834
   5 H :    0.015613
   6 C :    0.058457
   7 H :    0.029665
   8 H :    0.019548
   9 C :   -0.155680
  10 H :    0.029498
  11 H :    0.038781
  12 C :    0.011066
  13 H :    0.050715
  14 H :    0.027792
  15 H :    0.026458
  16 S :    0.094080
  17 C :   -0.072525
  18 C :   -0.007449
  19 C :   -0.054877
  20 C :   -0.133407
  21 H :    0.001829
  22 C :    0.051088
  23 H :    0.019180
  24 H :    0.037863
  25 C :   -0.106194
  26 H :    0.030153
  27 H :    0.030537
  28 C :   -0.055697
  29 H :    0.018128
  30 H :    0.065367
  31 H :    0.047637
  32 H :    0.073164
  33 H :    0.054748
Sum of atomic charges:   -0.0000000

LOEWDIN ATOMIC CHARGES
----------------------
   0 S :    0.409956
   1 C :   -0.199537
   2 C :   -0.065651
   3 C :   -0.055294
   4 C :   -0.192245
   5 H :    0.034175
   6 C :   -0.035628
   7 H :    0.035421
   8 H :    0.022952
   9 C :   -0.051699
  10 H :    0.024933
  11 H :    0.024140
  12 C :   -0.063401
  13 H :    0.031275
  14 H :    0.031100
  15 H :    0.025021
  16 S :    0.372449
  17 C :   -0.171825
  18 C :   -0.066306
  19 C :   -0.051921
  20 C :   -0.186535
  21 H :    0.024726
  22 C :   -0.044447
  23 H :    0.027496
  24 H :    0.037355
  25 C :   -0.040898
  26 H :    0.020526
  27 H :    0.025359
  28 C :   -0.078881
  29 H :    0.023068
  30 H :    0.034987
  31 H :    0.034061
  32 H :    0.033772
  33 H :    0.031494

  Mayer bond orders larger than 0.100000
B(  0-S ,  1-C ) :   1.1649 B(  0-S ,  4-C ) :   1.1504 B(  1-C ,  2-C ) :   1.5568
B(  1-C ,  4-C ) :   0.1062 B(  1-C , 32-H ) :   0.9670 B(  2-C ,  3-C ) :   1.2802
B(  2-C ,  6-C ) :   1.0320 B(  3-C ,  4-C ) :   1.5617 B(  3-C ,  5-H ) :   0.9925
B(  4-C , 20-C ) :   1.0293 B(  6-C ,  7-H ) :   0.9384 B(  6-C ,  8-H ) :   0.9412
B(  6-C ,  9-C ) :   1.0526 B(  9-C , 10-H ) :   0.9531 B(  9-C , 11-H ) :   0.9578
B(  9-C , 12-C ) :   1.0752 B( 12-C , 13-H ) :   0.9711 B( 12-C , 14-H ) :   0.9721
B( 12-C , 15-H ) :   0.9695 B( 16-S , 17-C ) :   1.1358 B( 16-S , 20-C ) :   1.1203
B( 17-C , 18-C ) :   1.6364 B( 17-C , 33-H ) :   0.9649 B( 18-C , 19-C ) :   1.2209
B( 18-C , 21-H ) :   0.9915 B( 19-C , 20-C ) :   1.6141 B( 19-C , 22-C ) :   1.0597
B( 22-C , 23-H ) :   0.9250 B( 22-C , 24-H ) :   0.9362 B( 22-C , 25-C ) :   1.0669
B( 25-C , 26-H ) :   0.9582 B( 25-C , 27-H ) :   0.9563 B( 25-C , 28-C ) :   1.0833
B( 28-C , 29-H ) :   0.9685 B( 28-C , 30-H ) :   0.9686 B( 28-C , 31-H ) :   0.9686

Dispersion correction           -0.015507237
FINAL SINGLE POINT ENERGY     -1339.873716965880

DIPOLE MOMENT
-------------
                                X             Y             Z
Electronic contribution:     -9.56833      19.97437     -14.42674
Nuclear contribution   :      9.58756     -20.54338      14.89692
                        -----------------------------------------
Total Dipole Moment    :      0.01923      -0.56901       0.47018
                        -----------------------------------------
Magnitude (a.u.)       :      0.73838
Magnitude (Debye)      :      1.87681

Rotational constants in cm-1:     0.021823     0.008095     0.007322
Rotational constants in MHz :   654.246968   242.682018   219.499069

                             ****ORCA TERMINATED NORMALLY****
TOTAL RUN TIME: 0 days 0 hours 0 minutes 35 seconds 402 msec
