                         Program Version 4.2.1 -  RELEASE  -
|  1> ! wB97X-D3 SP def2-SVP
|  2> %pal
|  3> nprocs 16
|  4> end
|  5>
|  6> * xyz 0 1
|  7> S 	 51.5356 	 6.34883 	 94.8836
|  8> C 	 51.3925 	 7.79926 	 94.0022
|  9> C 	 50.0915 	 8.02794 	 93.6307
| 10> C 	 49.1956 	 7.06777 	 94.1124
| 11> C 	 49.8104 	 6.11457 	 94.8755
| 12> H 	 48.112 	 7.06714 	 93.9364
| 13> C 	 49.6282 	 9.25144 	 92.8441
| 14> H 	 48.6093 	 8.93154 	 92.5366
| 15> H 	 50.1389 	 9.42823 	 91.9516
| 16> C 	 49.5572 	 10.5262 	 93.6816
| 17> H 	 48.776 	 10.4359 	 94.5229
| 18> H 	 50.4559 	 10.8477 	 94.1988
| 19> C 	 49.1182 	 11.7283 	 92.8043
| 20> H 	 48.262 	 11.5674 	 92.1806
| 21> H 	 48.7038 	 12.5314 	 93.3309
| 22> H 	 50.0366 	 12.0015 	 92.1788
| 23> S 	 47.6986 	 4.34067 	 94.9673
| 24> C 	 47.18 	 3.6788 	 96.4534
| 25> C 	 48.0725 	 3.93117 	 97.4412
| 26> C 	 49.2743 	 4.70284 	 97.0254
| 27> C 	 49.0838 	 5.16046 	 95.7128
| 28> H 	 47.8236 	 3.53307 	 98.4229
| 29> C 	 50.2522 	 5.22708 	 98.1567
| 30> H 	 49.7297 	 6.12511 	 98.6011
| 31> H 	 51.1423 	 5.59591 	 97.6181
| 32> C 	 50.6878 	 4.19865 	 99.2493
| 33> H 	 49.8497 	 3.956 	 99.8638
| 34> H 	 51.4849 	 4.59083 	 99.8434
| 35> C 	 51.3481 	 2.9021 	 98.788
| 36> H 	 51.694 	 2.34871 	 99.6005
| 37> H 	 52.1994 	 3.06427 	 98.1525
| 38> H 	 50.6484 	 2.26598 	 98.1888
| 39> H 	 52.1913 	 8.40903 	 93.732
| 40> H 	 46.1582 	 3.08191 	 96.5599
| 41> *
| 42>
| 43>                          ****END OF INPUT****

CARTESIAN COORDINATES (ANGSTROEM)
---------------------------------
  S     51.535600    6.348830   94.883600
  C     51.392500    7.799260   94.002200
  C     50.091500    8.027940   93.630700
  C     49.195600    7.067770   94.112400
  C     49.810400    6.114570   94.875500
  H     48.112000    7.067140   93.936400
  C     49.628200    9.251440   92.844100
  H     48.609300    8.931540   92.536600
  H     50.138900    9.428230   91.951600
  C     49.557200   10.526200   93.681600
  H     48.776000   10.435900   94.522900
  H     50.455900   10.847700   94.198800
  C     49.118200   11.728300   92.804300
  H     48.262000   11.567400   92.180600
  H     48.703800   12.531400   93.330900
  H     50.036600   12.001500   92.178800
  S     47.698600    4.340670   94.967300
  C     47.180000    3.678800   96.453400
  C     48.072500    3.931170   97.441200
  C     49.274300    4.702840   97.025400
  C     49.083800    5.160460   95.712800
  H     47.823600    3.533070   98.422900
  C     50.252200    5.227080   98.156700
  H     49.729700    6.125110   98.601100
  H     51.142300    5.595910   97.618100
  C     50.687800    4.198650   99.249300
  H     49.849700    3.956000   99.863800
  H     51.484900    4.590830   99.843400
  C     51.348100    2.902100   98.788000
  H     51.694000    2.348710   99.600500
  H     52.199400    3.064270   98.152500
  H     50.648400    2.265980   98.188800
  H     52.191300    8.409030   93.732000
  H     46.158200    3.081910   96.559900

 Total Charge           Charge          ....    0
 Multiplicity           Mult            ....    1
 Number of Electrons    NEL             ....  134
 Basis Dimension        Dim             ....  322

ORBITAL ENERGIES
----------------

  NO   OCC          E(Eh)            E(eV)
   0   2.0000     -88.969037     -2420.9706
   1   2.0000     -88.960525     -2420.7389
   2   2.0000     -10.332118      -281.1512
   3   2.0000     -10.326624      -281.0017
   4   2.0000     -10.319607      -280.8108
   5   2.0000     -10.313568      -280.6465
   6   2.0000     -10.304817      -280.4083
   7   2.0000     -10.303228      -280.3651
   8   2.0000     -10.294445      -280.1261
   9   2.0000     -10.293361      -280.0966
  10   2.0000     -10.292505      -280.0733
  11   2.0000     -10.290251      -280.0120
  12   2.0000     -10.289661      -279.9959
  13   2.0000     -10.284096      -279.8445
  14   2.0000     -10.275961      -279.6231
  15   2.0000     -10.268939      -279.4320
  16   2.0000      -8.084290      -219.9847
  17   2.0000      -8.075921      -219.7570
  18   2.0000      -6.042662      -164.4292
  19   2.0000      -6.038678      -164.3208
  20   2.0000      -6.035218      -164.2266
  21   2.0000      -6.034509      -164.2073
  22   2.0000      -6.030344      -164.0940
  23   2.0000      -6.026553      -163.9908
  24   2.0000      -1.012262       -27.5451
  25   2.0000      -0.986700       -26.8495
  26   2.0000      -0.910363       -24.7722
  27   2.0000      -0.900490       -24.5036
  28   2.0000      -0.871496       -23.7146
  29   2.0000      -0.854822       -23.2609
  30   2.0000      -0.842563       -22.9273
  31   2.0000      -0.812734       -22.1156
  32   2.0000      -0.783125       -21.3099
  33   2.0000      -0.771639       -20.9974
  34   2.0000      -0.707929       -19.2637
  35   2.0000      -0.701095       -19.0778
  36   2.0000      -0.688064       -18.7232
  37   2.0000      -0.658781       -17.9263
  38   2.0000      -0.635546       -17.2941
  39   2.0000      -0.619168       -16.8484
  40   2.0000      -0.591729       -16.1018
  41   2.0000      -0.565640       -15.3919
  42   2.0000      -0.561358       -15.2753
  43   2.0000      -0.548828       -14.9344
  44   2.0000      -0.543122       -14.7791
  45   2.0000      -0.522289       -14.2122
  46   2.0000      -0.519095       -14.1253
  47   2.0000      -0.509842       -13.8735
  48   2.0000      -0.505720       -13.7613
  49   2.0000      -0.500403       -13.6167
  50   2.0000      -0.492618       -13.4048
  51   2.0000      -0.475510       -12.9393
  52   2.0000      -0.469559       -12.7773
  53   2.0000      -0.462662       -12.5897
  54   2.0000      -0.458397       -12.4736
  55   2.0000      -0.448857       -12.2140
  56   2.0000      -0.445596       -12.1253
  57   2.0000      -0.437840       -11.9142
  58   2.0000      -0.431604       -11.7445
  59   2.0000      -0.424262       -11.5447
  60   2.0000      -0.416777       -11.3411
  61   2.0000      -0.412946       -11.2368
  62   2.0000      -0.408053       -11.1037
  63   2.0000      -0.356079        -9.6894
  64   2.0000      -0.334072        -9.0906
  65   2.0000      -0.325413        -8.8549
  66   2.0000      -0.288864        -7.8604
  67   0.0000       0.027809         0.7567
  68   0.0000       0.087195         2.3727
  69   0.0000       0.109602         2.9824
  70   0.0000       0.122462         3.3324
  71   0.0000       0.128774         3.5041

MULLIKEN ATOMIC CHARGES
-----------------------
   0 S :    0.127915
   1 C :   -0.104685
   2 C :   -0.075553
   3 C :   -0.006876
   4 C :   -0.116767
   5 H :    0.025487
   6 C :    0.104455
   7 H :    0.016500
   8 H :    0.014539
   9 C :   -0.095761
  10 H :    0.034711
  11 H :    0.035037
  12 C :   -0.044903
  13 H :    0.016756
  14 H :    0.018370
  15 H :    0.044744
  16 S :    0.092520
  17 C :   -0.128237
  18 C :   -0.054398
  19 C :   -0.041097
  20 C :   -0.161760
  21 H :    0.021227
  22 C :    0.045441
  23 H :    0.063685
  24 H :    0.020071
  25 C :   -0.064002
  26 H :    0.028370
  27 H :    0.029199
  28 C :   -0.046279
  29 H :    0.021572
  30 H :    0.023584
  31 H :    0.036534
  32 H :    0.019986
  33 H :    0.099617
Sum of atomic charges:   -0.0000000

LOEWDIN ATOMIC CHARGES
----------------------
   0 S :    0.440374
   1 C :   -0.199462
   2 C :   -0.064538
   3 C :   -0.066713
   4 C :   -0.199520
   5 H :    0.034209
   6 C :   -0.024746
   7 H :    0.035175
   8 H :    0.020455
   9 C :   -0.041984
  10 H :    0.030813
  11 H :    0.022605
  12 C :   -0.072187
  13 H :    0.021331
  14 H :    0.018917
  15 H :    0.033940
  16 S :    0.402862
  17 C :   -0.218661
  18 C :   -0.082304
  19 C :   -0.060116
  20 C :   -0.182973
  21 H :    0.030236
  22 C :   -0.031586
  23 H :    0.045068
  24 H :    0.019318
  25 C :   -0.039966
  26 H :    0.018853
  27 H :    0.027882
  28 C :   -0.060443
  29 H :    0.018411
  30 H :    0.022738
  31 H :    0.027797
  32 H :    0.016344
  33 H :    0.057870

  Mayer bond orders larger than 0.100000
B(  0-S ,  1-C ) :   1.1538 B(  0-S ,  4-C ) :   1.1623 B(  1-C ,  2-C ) :   1.5785
B(  1-C , 32-H ) :   0.9813 B(  2-C ,  3-C ) :   1.2945 B(  2-C ,  6-C ) :   1.0119
B(  3-C ,  4-C ) :   1.5306 B(  3-C ,  5-H ) :   0.9859 B(  4-C , 20-C ) :   1.0479
B(  6-C ,  7-H ) :   0.9377 B(  6-C ,  8-H ) :   0.9436 B(  6-C ,  9-C ) :   1.0583
B(  9-C , 10-H ) :   0.9557 B(  9-C , 11-H ) :   0.9628 B(  9-C , 12-C ) :   1.0763
B( 12-C , 13-H ) :   0.9722 B( 12-C , 14-H ) :   0.9731 B( 12-C , 15-H ) :   0.9762
B( 16-S , 17-C ) :   1.1355 B( 16-S , 20-C ) :   1.1420 B( 17-C , 18-C ) :   1.6626
B( 17-C , 33-H ) :   0.9476 B( 18-C , 19-C ) :   1.1801 B( 18-C , 21-H ) :   0.9868
B( 19-C , 20-C ) :   1.6079 B( 19-C , 22-C ) :   1.0238 B( 22-C , 23-H ) :   0.9460
B( 22-C , 24-H ) :   0.9337 B( 22-C , 25-C ) :   1.0677 B( 25-C , 26-H ) :   0.9550
B( 25-C , 27-H ) :   0.9573 B( 25-C , 28-C ) :   1.0836 B( 28-C , 29-H ) :   0.9739
B( 28-C , 30-H ) :   0.9748 B( 28-C , 31-H ) :   0.9719

Dispersion correction           -0.013805766
FINAL SINGLE POINT ENERGY     -1339.867678415835

DIPOLE MOMENT
-------------
                                X             Y             Z
Electronic contribution:     -2.57351     -12.85088      -6.39054
Nuclear contribution   :      2.48870      13.24054       6.66206
                        -----------------------------------------
Total Dipole Moment    :     -0.08481       0.38966       0.27153
                        -----------------------------------------
Magnitude (a.u.)       :      0.48244
Magnitude (Debye)      :      1.22628

Rotational constants in cm-1:     0.023115     0.007065     0.006128
Rotational constants in MHz :   692.972138   211.816683   183.700139

                             ****ORCA TERMINATED NORMALLY****
TOTAL RUN TIME: 0 days 0 hours 0 minutes 28 seconds 365 msec
