                         Program Version 4.2.1 -  RELEASE  -
|  1> ! wB97X-D3 SP def2-SVP
|  2> %pal
|  3> nprocs 16
|  4> end
|  5>
|  6> * xyz 0 1
|  7> S 	 -66.464 	 39.5216 	 137.904
|  8> C 	 -65.0874 	 39.1212 	 138.765
|  9> C 	 -64.4885 	 37.9939 	 138.267
| 10> C 	 -65.1806 	 37.4374 	 137.208
| 11> C 	 -66.3404 	 38.1678 	 136.87
| 12> H 	 -64.8609 	 36.5156 	 136.68
| 13> C 	 -63.4423 	 37.169 	 139.078
| 14> H 	 -62.9911 	 37.872 	 139.831
| 15> H 	 -62.7463 	 36.8602 	 138.319
| 16> C 	 -63.8216 	 35.8574 	 139.854
| 17> H 	 -63.949 	 35.0522 	 139.102
| 18> H 	 -63.0415 	 35.6132 	 140.428
| 19> C 	 -65.1139 	 35.89 	 140.587
| 20> H 	 -66.0113 	 36.1739 	 139.902
| 21> H 	 -65.4569 	 34.989 	 140.978
| 22> H 	 -64.8186 	 36.6136 	 141.393
| 23> S 	 -68.3776 	 36.3451 	 136.31
| 24> C 	 -69.3031 	 36.6476 	 134.891
| 25> C 	 -68.6893 	 37.5928 	 134.055
| 26> C 	 -67.6281 	 38.273 	 134.652
| 27> C 	 -67.3519 	 37.7405 	 135.943
| 28> H 	 -69.321 	 37.8471 	 133.203
| 29> C 	 -67.0862 	 39.5769 	 134.085
| 30> H 	 -66.6101 	 40.1266 	 134.885
| 31> H 	 -68.049 	 40.1817 	 133.908
| 32> C 	 -66.0833 	 39.5434 	 132.836
| 33> H 	 -65.6679 	 40.5447 	 132.663
| 34> H 	 -66.7135 	 39.2402 	 132.021
| 35> C 	 -64.8623 	 38.6984 	 132.924
| 36> H 	 -64.3762 	 38.866 	 133.915
| 37> H 	 -64.2336 	 39.0128 	 132.084
| 38> H 	 -65.076 	 37.5962 	 132.977
| 39> H 	 -64.7894 	 39.6318 	 139.656
| 40> H 	 -70.1466 	 36.1562 	 134.539
| 41> *
| 42>
| 43>                          ****END OF INPUT****

CARTESIAN COORDINATES (ANGSTROEM)
---------------------------------
  S    -66.464000   39.521600  137.904000
  C    -65.087400   39.121200  138.765000
  C    -64.488500   37.993900  138.267000
  C    -65.180600   37.437400  137.208000
  C    -66.340400   38.167800  136.870000
  H    -64.860900   36.515600  136.680000
  C    -63.442300   37.169000  139.078000
  H    -62.991100   37.872000  139.831000
  H    -62.746300   36.860200  138.319000
  C    -63.821600   35.857400  139.854000
  H    -63.949000   35.052200  139.102000
  H    -63.041500   35.613200  140.428000
  C    -65.113900   35.890000  140.587000
  H    -66.011300   36.173900  139.902000
  H    -65.456900   34.989000  140.978000
  H    -64.818600   36.613600  141.393000
  S    -68.377600   36.345100  136.310000
  C    -69.303100   36.647600  134.891000
  C    -68.689300   37.592800  134.055000
  C    -67.628100   38.273000  134.652000
  C    -67.351900   37.740500  135.943000
  H    -69.321000   37.847100  133.203000
  C    -67.086200   39.576900  134.085000
  H    -66.610100   40.126600  134.885000
  H    -68.049000   40.181700  133.908000
  C    -66.083300   39.543400  132.836000
  H    -65.667900   40.544700  132.663000
  H    -66.713500   39.240200  132.021000
  C    -64.862300   38.698400  132.924000
  H    -64.376200   38.866000  133.915000
  H    -64.233600   39.012800  132.084000
  H    -65.076000   37.596200  132.977000
  H    -64.789400   39.631800  139.656000
  H    -70.146600   36.156200  134.539000

 Total Charge           Charge          ....    0
 Multiplicity           Mult            ....    1
 Number of Electrons    NEL             ....  134
 Basis Dimension        Dim             ....  322

ORBITAL ENERGIES
----------------

  NO   OCC          E(Eh)            E(eV)
   0   2.0000     -88.971435     -2421.0358
   1   2.0000     -88.968647     -2420.9600
   2   2.0000     -10.325578      -280.9733
   3   2.0000     -10.323068      -280.9050
   4   2.0000     -10.311215      -280.5824
   5   2.0000     -10.305178      -280.4181
   6   2.0000     -10.304328      -280.3950
   7   2.0000     -10.296839      -280.1912
   8   2.0000     -10.294931      -280.1393
   9   2.0000     -10.292678      -280.0780
  10   2.0000     -10.292030      -280.0604
  11   2.0000     -10.289603      -279.9943
  12   2.0000     -10.285426      -279.8807
  13   2.0000     -10.276917      -279.6491
  14   2.0000     -10.276742      -279.6444
  15   2.0000     -10.274687      -279.5885
  16   2.0000      -8.085762      -220.0248
  17   2.0000      -8.085033      -220.0049
  18   2.0000      -6.044039      -164.4666
  19   2.0000      -6.043112      -164.4414
  20   2.0000      -6.040347      -164.3662
  21   2.0000      -6.039066      -164.3313
  22   2.0000      -6.036794      -164.2695
  23   2.0000      -6.036388      -164.2585
  24   2.0000      -1.015643       -27.6370
  25   2.0000      -0.989626       -26.9291
  26   2.0000      -0.909489       -24.7484
  27   2.0000      -0.901872       -24.5412
  28   2.0000      -0.871481       -23.7142
  29   2.0000      -0.856888       -23.3171
  30   2.0000      -0.854021       -23.2391
  31   2.0000      -0.810198       -22.0466
  32   2.0000      -0.782269       -21.2866
  33   2.0000      -0.769981       -20.9523
  34   2.0000      -0.708921       -19.2907
  35   2.0000      -0.693639       -18.8749
  36   2.0000      -0.688451       -18.7337
  37   2.0000      -0.653640       -17.7865
  38   2.0000      -0.642936       -17.4952
  39   2.0000      -0.614835       -16.7305
  40   2.0000      -0.590029       -16.0555
  41   2.0000      -0.567480       -15.4419
  42   2.0000      -0.563233       -15.3263
  43   2.0000      -0.552595       -15.0369
  44   2.0000      -0.547520       -14.8988
  45   2.0000      -0.541698       -14.7403
  46   2.0000      -0.517738       -14.0884
  47   2.0000      -0.511051       -13.9064
  48   2.0000      -0.503641       -13.7048
  49   2.0000      -0.492859       -13.4114
  50   2.0000      -0.488643       -13.2967
  51   2.0000      -0.477549       -12.9948
  52   2.0000      -0.473737       -12.8910
  53   2.0000      -0.465887       -12.6774
  54   2.0000      -0.457038       -12.4366
  55   2.0000      -0.445878       -12.1329
  56   2.0000      -0.441473       -12.0131
  57   2.0000      -0.437199       -11.8968
  58   2.0000      -0.427587       -11.6352
  59   2.0000      -0.421994       -11.4831
  60   2.0000      -0.417375       -11.3574
  61   2.0000      -0.408435       -11.1141
  62   2.0000      -0.401373       -10.9219
  63   2.0000      -0.338170        -9.2021
  64   2.0000      -0.333233        -9.0677
  65   2.0000      -0.324974        -8.8430
  66   2.0000      -0.297806        -8.1037
  67   0.0000       0.041149         1.1197
  68   0.0000       0.050788         1.3820
  69   0.0000       0.111372         3.0306
  70   0.0000       0.119175         3.2429
  71   0.0000       0.131516         3.5787

MULLIKEN ATOMIC CHARGES
-----------------------
   0 S :    0.150598
   1 C :   -0.123214
   2 C :   -0.070694
   3 C :    0.003977
   4 C :   -0.195205
   5 H :    0.026552
   6 C :    0.028101
   7 H :    0.027185
   8 H :    0.029862
   9 C :   -0.019344
  10 H :    0.012138
  11 H :    0.008038
  12 C :   -0.053595
  13 H :    0.052349
  14 H :    0.020084
  15 H :    0.029492
  16 S :    0.138773
  17 C :   -0.080506
  18 C :   -0.055501
  19 C :    0.004008
  20 C :   -0.179735
  21 H :    0.025502
  22 C :    0.029022
  23 H :    0.010576
  24 H :    0.049292
  25 C :   -0.054388
  26 H :    0.032975
  27 H :    0.026454
  28 C :   -0.069415
  29 H :    0.035229
  30 H :    0.046655
  31 H :    0.043331
  32 H :    0.041170
  33 H :    0.030234
Sum of atomic charges:    0.0000000

LOEWDIN ATOMIC CHARGES
----------------------
   0 S :    0.474340
   1 C :   -0.217922
   2 C :   -0.079944
   3 C :   -0.063805
   4 C :   -0.223593
   5 H :    0.037853
   6 C :   -0.025411
   7 H :    0.029403
   8 H :    0.029358
   9 C :   -0.033883
  10 H :    0.020678
  11 H :    0.008549
  12 C :   -0.068821
  13 H :    0.041608
  14 H :    0.013602
  15 H :    0.030399
  16 S :    0.422689
  17 C :   -0.186081
  18 C :   -0.077565
  19 C :   -0.052907
  20 C :   -0.206827
  21 H :    0.033911
  22 C :   -0.038131
  23 H :    0.018960
  24 H :    0.044943
  25 C :   -0.039045
  26 H :    0.029312
  27 H :    0.018902
  28 C :   -0.073862
  29 H :    0.030702
  30 H :    0.032136
  31 H :    0.029588
  32 H :    0.024773
  33 H :    0.016092

  Mayer bond orders larger than 0.100000
B(  0-S ,  1-C ) :   1.1905 B(  0-S ,  4-C ) :   1.1952 B(  1-C ,  2-C ) :   1.5419
B(  1-C ,  4-C ) :   0.1015 B(  1-C , 32-H ) :   0.9709 B(  2-C ,  3-C ) :   1.3073
B(  2-C ,  6-C ) :   1.0251 B(  3-C ,  4-C ) :   1.5004 B(  3-C ,  5-H ) :   0.9991
B(  4-C , 20-C ) :   1.0428 B(  6-C ,  7-H ) :   0.9478 B(  6-C ,  8-H ) :   0.9391
B(  6-C ,  9-C ) :   1.0648 B(  9-C , 10-H ) :   0.9484 B(  9-C , 11-H ) :   0.9564
B(  9-C , 12-C ) :   1.0870 B( 12-C , 13-H ) :   0.9658 B( 12-C , 14-H ) :   0.9733
B( 12-C , 15-H ) :   0.9795 B( 16-S , 17-C ) :   1.1718 B( 16-S , 20-C ) :   1.1524
B( 17-C , 18-C ) :   1.6047 B( 17-C , 20-C ) :   0.1121 B( 17-C , 33-H ) :   0.9713
B( 18-C , 19-C ) :   1.2660 B( 18-C , 21-H ) :   0.9828 B( 19-C , 20-C ) :   1.5421
B( 19-C , 22-C ) :   1.0346 B( 22-C , 23-H ) :   0.9290 B( 22-C , 24-H ) :   0.9473
B( 22-C , 25-C ) :   1.0535 B( 25-C , 26-H ) :   0.9588 B( 25-C , 27-H ) :   0.9578
B( 25-C , 28-C ) :   1.0845 B( 28-C , 29-H ) :   0.9722 B( 28-C , 30-H ) :   0.9720
B( 28-C , 31-H ) :   0.9695

Dispersion correction           -0.015371836
FINAL SINGLE POINT ENERGY     -1339.847255300422

DIPOLE MOMENT
-------------
                                X             Y             Z
Electronic contribution:    -14.43717       2.22758       2.24734
Nuclear contribution   :     14.54802      -2.30520      -2.30487
                        -----------------------------------------
Total Dipole Moment    :      0.11085      -0.07761      -0.05752
                        -----------------------------------------
Magnitude (a.u.)       :      0.14704
Magnitude (Debye)      :      0.37375

Rotational constants in cm-1:     0.020257     0.008851     0.007536
Rotational constants in MHz :   607.275557   265.350059   225.915136

                             ****ORCA TERMINATED NORMALLY****
TOTAL RUN TIME: 0 days 0 hours 0 minutes 33 seconds 844 msec
