                         Program Version 4.2.1 -  RELEASE  -
|  1> ! wB97X-D3 SP def2-SVP
|  2> %pal
|  3> nprocs 16
|  4> end
|  5>
|  6> * xyz 0 1
|  7> S 	 -66.0344 	 41.0508 	 130.824
|  8> C 	 -67.1601 	 40.3569 	 131.936
|  9> C 	 -66.5746 	 39.3334 	 132.643
| 10> C 	 -65.3529 	 38.9047 	 132.04
| 11> C 	 -64.9963 	 39.6994 	 131.011
| 12> H 	 -64.7615 	 38.047 	 132.346
| 13> C 	 -67.2407 	 38.547 	 133.667
| 14> H 	 -67.4186 	 37.5637 	 133.318
| 15> H 	 -68.1986 	 38.9778 	 133.808
| 16> C 	 -66.4424 	 38.4698 	 134.946
| 17> H 	 -65.4091 	 38.1427 	 134.686
| 18> H 	 -66.4797 	 39.4622 	 135.424
| 19> C 	 -67.1595 	 37.6216 	 136
| 20> H 	 -67.2643 	 36.5423 	 135.731
| 21> H 	 -66.7051 	 37.69 	 137.055
| 22> H 	 -68.1898 	 38.008 	 136.096
| 23> S 	 -64.2981 	 38.1184 	 128.928
| 24> C 	 -62.7289 	 38.4037 	 128.219
| 25> C 	 -61.9782 	 39.408 	 128.844
| 26> C 	 -62.621 	 39.9991 	 129.977
| 27> C 	 -63.889 	 39.4208 	 130.049
| 28> H 	 -60.9779 	 39.5752 	 128.489
| 29> C 	 -62.0087 	 41.0902 	 130.897
| 30> H 	 -61.5451 	 40.5436 	 131.721
| 31> H 	 -62.7842 	 41.6466 	 131.356
| 32> C 	 -60.9682 	 42.0258 	 130.315
| 33> H 	 -60.1356 	 41.4416 	 130.004
| 34> H 	 -60.6813 	 42.7571 	 131.059
| 35> C 	 -61.4681 	 42.8562 	 129.111
| 36> H 	 -60.7027 	 43.5562 	 128.754
| 37> H 	 -62.2895 	 43.4815 	 129.34
| 38> H 	 -61.747 	 42.3533 	 128.122
| 39> H 	 -68.0826 	 40.7948 	 132.245
| 40> H 	 -62.3783 	 37.7371 	 127.42
| 41> *
| 42>
| 43>                          ****END OF INPUT****

CARTESIAN COORDINATES (ANGSTROEM)
---------------------------------
  S    -66.034400   41.050800  130.824000
  C    -67.160100   40.356900  131.936000
  C    -66.574600   39.333400  132.643000
  C    -65.352900   38.904700  132.040000
  C    -64.996300   39.699400  131.011000
  H    -64.761500   38.047000  132.346000
  C    -67.240700   38.547000  133.667000
  H    -67.418600   37.563700  133.318000
  H    -68.198600   38.977800  133.808000
  C    -66.442400   38.469800  134.946000
  H    -65.409100   38.142700  134.686000
  H    -66.479700   39.462200  135.424000
  C    -67.159500   37.621600  136.000000
  H    -67.264300   36.542300  135.731000
  H    -66.705100   37.690000  137.055000
  H    -68.189800   38.008000  136.096000
  S    -64.298100   38.118400  128.928000
  C    -62.728900   38.403700  128.219000
  C    -61.978200   39.408000  128.844000
  C    -62.621000   39.999100  129.977000
  C    -63.889000   39.420800  130.049000
  H    -60.977900   39.575200  128.489000
  C    -62.008700   41.090200  130.897000
  H    -61.545100   40.543600  131.721000
  H    -62.784200   41.646600  131.356000
  C    -60.968200   42.025800  130.315000
  H    -60.135600   41.441600  130.004000
  H    -60.681300   42.757100  131.059000
  C    -61.468100   42.856200  129.111000
  H    -60.702700   43.556200  128.754000
  H    -62.289500   43.481500  129.340000
  H    -61.747000   42.353300  128.122000
  H    -68.082600   40.794800  132.245000
  H    -62.378300   37.737100  127.420000

 Total Charge           Charge          ....    0
 Multiplicity           Mult            ....    1
 Number of Electrons    NEL             ....  134
 Basis Dimension        Dim             ....  322

ORBITAL ENERGIES
----------------

  NO   OCC          E(Eh)            E(eV)
   0   2.0000     -88.968028     -2420.9431
   1   2.0000     -88.960330     -2420.7337
   2   2.0000     -10.324376      -280.9406
   3   2.0000     -10.317281      -280.7475
   4   2.0000     -10.316285      -280.7204
   5   2.0000     -10.308468      -280.5077
   6   2.0000     -10.304042      -280.3872
   7   2.0000     -10.294369      -280.1240
   8   2.0000     -10.293075      -280.0888
   9   2.0000     -10.289343      -279.9873
  10   2.0000     -10.288170      -279.9553
  11   2.0000     -10.287992      -279.9505
  12   2.0000     -10.286910      -279.9210
  13   2.0000     -10.284616      -279.8586
  14   2.0000     -10.276110      -279.6272
  15   2.0000     -10.275886      -279.6211
  16   2.0000      -8.082553      -219.9375
  17   2.0000      -8.076215      -219.7650
  18   2.0000      -6.040764      -164.3775
  19   2.0000      -6.037372      -164.2852
  20   2.0000      -6.034607      -164.2100
  21   2.0000      -6.033366      -164.1762
  22   2.0000      -6.030698      -164.1036
  23   2.0000      -6.026909      -164.0005
  24   2.0000      -1.009323       -27.4651
  25   2.0000      -0.983829       -26.7714
  26   2.0000      -0.921412       -25.0729
  27   2.0000      -0.910221       -24.7684
  28   2.0000      -0.862533       -23.4707
  29   2.0000      -0.850137       -23.1334
  30   2.0000      -0.847146       -23.0520
  31   2.0000      -0.811031       -22.0693
  32   2.0000      -0.787157       -21.4196
  33   2.0000      -0.768579       -20.9141
  34   2.0000      -0.706616       -19.2280
  35   2.0000      -0.697929       -18.9916
  36   2.0000      -0.684886       -18.6367
  37   2.0000      -0.656837       -17.8734
  38   2.0000      -0.640451       -17.4276
  39   2.0000      -0.621451       -16.9105
  40   2.0000      -0.601555       -16.3692
  41   2.0000      -0.575095       -15.6491
  42   2.0000      -0.558617       -15.2007
  43   2.0000      -0.554180       -15.0800
  44   2.0000      -0.539928       -14.6922
  45   2.0000      -0.522343       -14.2137
  46   2.0000      -0.515460       -14.0264
  47   2.0000      -0.512881       -13.9562
  48   2.0000      -0.504135       -13.7182
  49   2.0000      -0.492680       -13.4065
  50   2.0000      -0.482613       -13.1326
  51   2.0000      -0.472947       -12.8695
  52   2.0000      -0.469848       -12.7852
  53   2.0000      -0.461529       -12.5588
  54   2.0000      -0.456691       -12.4272
  55   2.0000      -0.451452       -12.2846
  56   2.0000      -0.446006       -12.1364
  57   2.0000      -0.433423       -11.7940
  58   2.0000      -0.431210       -11.7338
  59   2.0000      -0.427802       -11.6411
  60   2.0000      -0.426346       -11.6015
  61   2.0000      -0.421446       -11.4681
  62   2.0000      -0.418035       -11.3753
  63   2.0000      -0.336867        -9.1666
  64   2.0000      -0.328308        -8.9337
  65   2.0000      -0.320593        -8.7238
  66   2.0000      -0.301482        -8.2037
  67   0.0000       0.049628         1.3504
  68   0.0000       0.060294         1.6407
  69   0.0000       0.104678         2.8484
  70   0.0000       0.118515         3.2250
  71   0.0000       0.135291         3.6814

MULLIKEN ATOMIC CHARGES
-----------------------
   0 S :    0.122559
   1 C :   -0.115994
   2 C :   -0.084152
   3 C :    0.023138
   4 C :   -0.164407
   5 H :    0.015893
   6 C :    0.112685
   7 H :    0.019291
   8 H :   -0.010125
   9 C :   -0.094879
  10 H :    0.041498
  11 H :    0.033133
  12 C :   -0.076052
  13 H :    0.035120
  14 H :    0.049873
  15 H :    0.026702
  16 S :    0.130347
  17 C :   -0.104065
  18 C :   -0.042892
  19 C :   -0.009216
  20 C :   -0.212768
  21 H :    0.011214
  22 C :    0.121001
  23 H :    0.038525
  24 H :    0.011361
  25 C :   -0.041185
  26 H :    0.026539
  27 H :    0.037649
  28 C :   -0.087742
  29 H :    0.026499
  30 H :    0.022934
  31 H :    0.045405
  32 H :    0.032833
  33 H :    0.059278
Sum of atomic charges:   -0.0000000

LOEWDIN ATOMIC CHARGES
----------------------
   0 S :    0.419873
   1 C :   -0.202389
   2 C :   -0.061298
   3 C :   -0.067277
   4 C :   -0.208683
   5 H :    0.032852
   6 C :   -0.030672
   7 H :    0.027467
   8 H :    0.022810
   9 C :   -0.041068
  10 H :    0.026405
  11 H :    0.031177
  12 C :   -0.077436
  13 H :    0.023543
  14 H :    0.034037
  15 H :    0.025786
  16 S :    0.410555
  17 C :   -0.191619
  18 C :   -0.070026
  19 C :   -0.048039
  20 C :   -0.192087
  21 H :    0.027036
  22 C :   -0.023199
  23 H :    0.039966
  24 H :    0.023664
  25 C :   -0.034559
  26 H :    0.020069
  27 H :    0.033604
  28 C :   -0.077704
  29 H :    0.026280
  30 H :    0.018344
  31 H :    0.034599
  32 H :    0.020967
  33 H :    0.027021

  Mayer bond orders larger than 0.100000
B(  0-S ,  1-C ) :   1.1335 B(  0-S ,  4-C ) :   1.1616 B(  1-C ,  2-C ) :   1.6235
B(  1-C , 32-H ) :   0.9676 B(  2-C ,  3-C ) :   1.1986 B(  2-C ,  6-C ) :   1.0552
B(  3-C ,  4-C ) :   1.6123 B(  3-C ,  5-H ) :   0.9970 B(  4-C , 20-C ) :   0.9782
B(  6-C ,  7-H ) :   0.9351 B(  6-C ,  8-H ) :   0.9244 B(  6-C ,  9-C ) :   1.0581
B(  9-C , 10-H ) :   0.9592 B(  9-C , 11-H ) :   0.9517 B(  9-C , 12-C ) :   1.0792
B( 12-C , 13-H ) :   0.9744 B( 12-C , 14-H ) :   0.9755 B( 12-C , 15-H ) :   0.9691
B( 16-S , 17-C ) :   1.1464 B( 16-S , 20-C ) :   1.1659 B( 17-C , 18-C ) :   1.6244
B( 17-C , 20-C ) :   0.1001 B( 17-C , 33-H ) :   0.9644 B( 18-C , 19-C ) :   1.2185
B( 18-C , 21-H ) :   0.9875 B( 19-C , 20-C ) :   1.6213 B( 19-C , 22-C ) :   1.0202
B( 22-C , 23-H ) :   0.9274 B( 22-C , 24-H ) :   0.9287 B( 22-C , 25-C ) :   1.0889
B( 25-C , 26-H ) :   0.9499 B( 25-C , 27-H ) :   0.9499 B( 25-C , 28-C ) :   1.0781
B( 28-C , 29-H ) :   0.9743 B( 28-C , 30-H ) :   0.9760 B( 28-C , 31-H ) :   0.9731

Dispersion correction           -0.014059670
FINAL SINGLE POINT ENERGY     -1339.876405485243

DIPOLE MOMENT
-------------
                                X             Y             Z
Electronic contribution:     -5.27866      -3.50620     -16.47767
Nuclear contribution   :      5.53208       3.47088      16.85950
                        -----------------------------------------
Total Dipole Moment    :      0.25342      -0.03532       0.38184
                        -----------------------------------------
Magnitude (a.u.)       :      0.45964
Magnitude (Debye)      :      1.16831

Rotational constants in cm-1:     0.021976     0.007238     0.006659
Rotational constants in MHz :   658.835915   216.988672   199.641790

                             ****ORCA TERMINATED NORMALLY****
TOTAL RUN TIME: 0 days 0 hours 0 minutes 34 seconds 448 msec
