                         Program Version 4.2.1 -  RELEASE  -
|  1> ! wB97X-D3 SP def2-SVP
|  2> %pal
|  3> nprocs 16
|  4> end
|  5>
|  6> * xyz 0 1
|  7> S 	 -73.2851 	 47.0066 	 139.284
|  8> C 	 -72.1895 	 45.8271 	 138.509
|  9> C 	 -71.3043 	 46.4776 	 137.675
| 10> C 	 -71.6312 	 47.9068 	 137.538
| 11> C 	 -72.7305 	 48.2932 	 138.247
| 12> H 	 -71.0524 	 48.5055 	 136.851
| 13> C 	 -70.0963 	 45.8613 	 137.066
| 14> H 	 -69.9936 	 46.2981 	 136.1
| 15> H 	 -70.2539 	 44.8291 	 136.959
| 16> C 	 -68.8472 	 45.9559 	 137.884
| 17> H 	 -68.8919 	 46.8445 	 138.566
| 18> H 	 -68.9096 	 45.026 	 138.577
| 19> C 	 -67.4908 	 45.8253 	 137.172
| 20> H 	 -67.4058 	 46.455 	 136.32
| 21> H 	 -66.7387 	 45.9351 	 137.914
| 22> H 	 -67.4238 	 44.7569 	 136.852
| 23> S 	 -75.0207 	 49.5745 	 137.535
| 24> C 	 -75.1525 	 51.2584 	 137.379
| 25> C 	 -73.947 	 51.8962 	 137.757
| 26> C 	 -72.9851 	 50.9323 	 138.235
| 27> C 	 -73.4013 	 49.5744 	 138.152
| 28> H 	 -73.6963 	 52.9786 	 137.742
| 29> C 	 -71.5973 	 51.4197 	 138.345
| 30> H 	 -71.5171 	 52.5018 	 138.237
| 31> H 	 -71.0937 	 51.1548 	 137.42
| 32> C 	 -70.7736 	 51.065 	 139.593
| 33> H 	 -70.5913 	 50.0055 	 139.516
| 34> H 	 -71.3804 	 51.1575 	 140.51
| 35> C 	 -69.3789 	 51.885 	 139.88
| 36> H 	 -68.6019 	 51.6879 	 139.144
| 37> H 	 -68.9709 	 51.4847 	 140.808
| 38> H 	 -69.4618 	 52.9141 	 140.026
| 39> H 	 -71.9205 	 44.8886 	 138.915
| 40> H 	 -76.0403 	 51.7037 	 136.925
| 41> *
| 42>
| 43>                          ****END OF INPUT****

CARTESIAN COORDINATES (ANGSTROEM)
---------------------------------
  S    -73.285100   47.006600  139.284000
  C    -72.189500   45.827100  138.509000
  C    -71.304300   46.477600  137.675000
  C    -71.631200   47.906800  137.538000
  C    -72.730500   48.293200  138.247000
  H    -71.052400   48.505500  136.851000
  C    -70.096300   45.861300  137.066000
  H    -69.993600   46.298100  136.100000
  H    -70.253900   44.829100  136.959000
  C    -68.847200   45.955900  137.884000
  H    -68.891900   46.844500  138.566000
  H    -68.909600   45.026000  138.577000
  C    -67.490800   45.825300  137.172000
  H    -67.405800   46.455000  136.320000
  H    -66.738700   45.935100  137.914000
  H    -67.423800   44.756900  136.852000
  S    -75.020700   49.574500  137.535000
  C    -75.152500   51.258400  137.379000
  C    -73.947000   51.896200  137.757000
  C    -72.985100   50.932300  138.235000
  C    -73.401300   49.574400  138.152000
  H    -73.696300   52.978600  137.742000
  C    -71.597300   51.419700  138.345000
  H    -71.517100   52.501800  138.237000
  H    -71.093700   51.154800  137.420000
  C    -70.773600   51.065000  139.593000
  H    -70.591300   50.005500  139.516000
  H    -71.380400   51.157500  140.510000
  C    -69.378900   51.885000  139.880000
  H    -68.601900   51.687900  139.144000
  H    -68.970900   51.484700  140.808000
  H    -69.461800   52.914100  140.026000
  H    -71.920500   44.888600  138.915000
  H    -76.040300   51.703700  136.925000

 Total Charge           Charge          ....    0
 Multiplicity           Mult            ....    1
 Number of Electrons    NEL             ....  134
 Basis Dimension        Dim             ....  322

ORBITAL ENERGIES
----------------

  NO   OCC          E(Eh)            E(eV)
   0   2.0000     -88.966218     -2420.8939
   1   2.0000     -88.965512     -2420.8747
   2   2.0000     -10.332554      -281.1631
   3   2.0000     -10.327521      -281.0261
   4   2.0000     -10.321230      -280.8549
   5   2.0000     -10.312303      -280.6120
   6   2.0000     -10.305551      -280.4283
   7   2.0000     -10.302705      -280.3509
   8   2.0000     -10.301485      -280.3177
   9   2.0000     -10.296544      -280.1832
  10   2.0000     -10.294112      -280.1170
  11   2.0000     -10.288472      -279.9636
  12   2.0000     -10.285396      -279.8799
  13   2.0000     -10.282157      -279.7917
  14   2.0000     -10.280239      -279.7395
  15   2.0000     -10.279120      -279.7091
  16   2.0000      -8.082111      -219.9254
  17   2.0000      -8.079876      -219.8646
  18   2.0000      -6.040429      -164.3684
  19   2.0000      -6.038629      -164.3194
  20   2.0000      -6.036119      -164.2511
  21   2.0000      -6.034479      -164.2065
  22   2.0000      -6.033320      -164.1750
  23   2.0000      -6.030345      -164.0940
  24   2.0000      -1.008427       -27.4407
  25   2.0000      -0.984734       -26.7960
  26   2.0000      -0.921012       -25.0620
  27   2.0000      -0.904250       -24.6059
  28   2.0000      -0.870909       -23.6986
  29   2.0000      -0.846438       -23.0328
  30   2.0000      -0.843450       -22.9514
  31   2.0000      -0.814821       -22.1724
  32   2.0000      -0.786633       -21.4054
  33   2.0000      -0.775952       -21.1147
  34   2.0000      -0.712195       -19.3798
  35   2.0000      -0.696468       -18.9519
  36   2.0000      -0.692582       -18.8461
  37   2.0000      -0.665193       -18.1008
  38   2.0000      -0.639291       -17.3960
  39   2.0000      -0.624559       -16.9951
  40   2.0000      -0.598480       -16.2855
  41   2.0000      -0.570387       -15.5210
  42   2.0000      -0.566258       -15.4087
  43   2.0000      -0.552286       -15.0285
  44   2.0000      -0.532539       -14.4911
  45   2.0000      -0.523658       -14.2495
  46   2.0000      -0.519344       -14.1321
  47   2.0000      -0.512718       -13.9518
  48   2.0000      -0.505303       -13.7500
  49   2.0000      -0.502468       -13.6729
  50   2.0000      -0.495705       -13.4888
  51   2.0000      -0.488215       -13.2850
  52   2.0000      -0.472404       -12.8548
  53   2.0000      -0.462941       -12.5973
  54   2.0000      -0.461362       -12.5543
  55   2.0000      -0.452034       -12.3005
  56   2.0000      -0.445017       -12.1095
  57   2.0000      -0.437381       -11.9018
  58   2.0000      -0.434577       -11.8254
  59   2.0000      -0.420219       -11.4348
  60   2.0000      -0.417872       -11.3709
  61   2.0000      -0.410583       -11.1725
  62   2.0000      -0.406618       -11.0646
  63   2.0000      -0.345001        -9.3880
  64   2.0000      -0.328125        -8.9287
  65   2.0000      -0.325330        -8.8527
  66   2.0000      -0.298654        -8.1268
  67   0.0000       0.032008         0.8710
  68   0.0000       0.062181         1.6920
  69   0.0000       0.108590         2.9549
  70   0.0000       0.118080         3.2131
  71   0.0000       0.126556         3.4438

MULLIKEN ATOMIC CHARGES
-----------------------
   0 S :    0.104922
   1 C :   -0.085734
   2 C :   -0.152507
   3 C :    0.050928
   4 C :   -0.138760
   5 H :    0.006690
   6 C :    0.131864
   7 H :    0.012395
   8 H :    0.007781
   9 C :   -0.150470
  10 H :    0.042428
  11 H :    0.029076
  12 C :   -0.003471
  13 H :    0.034168
  14 H :    0.033501
  15 H :    0.027786
  16 S :    0.126233
  17 C :   -0.102615
  18 C :   -0.049789
  19 C :   -0.020649
  20 C :   -0.150532
  21 H :    0.040225
  22 C :    0.041032
  23 H :    0.000607
  24 H :    0.030574
  25 C :   -0.086966
  26 H :    0.031962
  27 H :    0.035119
  28 C :   -0.043895
  29 H :    0.030594
  30 H :    0.028310
  31 H :    0.027753
  32 H :    0.038554
  33 H :    0.072888
Sum of atomic charges:   -0.0000000

LOEWDIN ATOMIC CHARGES
----------------------
   0 S :    0.391435
   1 C :   -0.186457
   2 C :   -0.049929
   3 C :   -0.058190
   4 C :   -0.196372
   5 H :    0.028240
   6 C :   -0.035680
   7 H :    0.025320
   8 H :    0.027242
   9 C :   -0.047985
  10 H :    0.023525
  11 H :    0.030901
  12 C :   -0.057162
  13 H :    0.018929
  14 H :    0.026315
  15 H :    0.031236
  16 S :    0.456686
  17 C :   -0.205858
  18 C :   -0.075883
  19 C :   -0.053504
  20 C :   -0.217924
  21 H :    0.039267
  22 C :   -0.045070
  23 H :    0.026321
  24 H :    0.033117
  25 C :   -0.036924
  26 H :    0.020648
  27 H :    0.027804
  28 C :   -0.062780
  29 H :    0.023633
  30 H :    0.029482
  31 H :    0.014947
  32 H :    0.021619
  33 H :    0.033051

  Mayer bond orders larger than 0.100000
B(  0-S ,  1-C ) :   1.1086 B(  0-S ,  4-C ) :   1.1505 B(  1-C ,  2-C ) :   1.6516
B(  1-C , 32-H ) :   0.9632 B(  2-C ,  3-C ) :   1.2177 B(  2-C ,  6-C ) :   1.0479
B(  3-C ,  4-C ) :   1.5788 B(  3-C ,  5-H ) :   0.9975 B(  4-C , 20-C ) :   1.0285
B(  6-C ,  7-H ) :   0.9331 B(  6-C ,  8-H ) :   0.9324 B(  6-C ,  9-C ) :   1.0448
B(  9-C , 10-H ) :   0.9647 B(  9-C , 11-H ) :   0.9574 B(  9-C , 12-C ) :   1.0773
B( 12-C , 13-H ) :   0.9784 B( 12-C , 14-H ) :   0.9720 B( 12-C , 15-H ) :   0.9734
B( 16-S , 17-C ) :   1.2112 B( 16-S , 20-C ) :   1.1693 B( 17-C , 18-C ) :   1.5102
B( 17-C , 20-C ) :   0.1078 B( 17-C , 33-H ) :   0.9696 B( 18-C , 19-C ) :   1.3096
B( 18-C , 21-H ) :   0.9861 B( 19-C , 20-C ) :   1.5203 B( 19-C , 22-C ) :   1.0627
B( 22-C , 23-H ) :   0.9347 B( 22-C , 24-H ) :   0.9296 B( 22-C , 25-C ) :   1.0428
B( 25-C , 26-H ) :   0.9571 B( 25-C , 27-H ) :   0.9632 B( 25-C , 28-C ) :   1.0707
B( 28-C , 29-H ) :   0.9793 B( 28-C , 30-H ) :   0.9769 B( 28-C , 31-H ) :   0.9791

Dispersion correction           -0.014118221
FINAL SINGLE POINT ENERGY     -1339.861433022205

DIPOLE MOMENT
-------------
                                X             Y             Z
Electronic contribution:    -31.34011      -1.91927      -0.29000
Nuclear contribution   :     32.07839       2.06836      -0.00041
                        -----------------------------------------
Total Dipole Moment    :      0.73828       0.14908      -0.29042
                        -----------------------------------------
Magnitude (a.u.)       :      0.80723
Magnitude (Debye)      :      2.05181

Rotational constants in cm-1:     0.017349     0.008872     0.006673
Rotational constants in MHz :   520.115181   265.978330   200.065194

                             ****ORCA TERMINATED NORMALLY****
TOTAL RUN TIME: 0 days 0 hours 0 minutes 34 seconds 675 msec
