                         Program Version 4.2.1 -  RELEASE  -
|  1> ! wB97X-D3 SP def2-SVP
|  2> %pal
|  3> nprocs 16
|  4> end
|  5>
|  6> * xyz 0 1
|  7> S 	 -40.5112 	 39.3314 	 94.5885
|  8> C 	 -42.1878 	 39.5811 	 94.1669
|  9> C 	 -43.0832 	 39.0975 	 95.153
| 10> C 	 -42.4048 	 38.5385 	 96.2685
| 11> C 	 -41.0491 	 38.5242 	 96.1165
| 12> H 	 -42.9798 	 38.1227 	 97.0777
| 13> C 	 -44.5576 	 39.1275 	 94.9767
| 14> H 	 -45.1196 	 38.2294 	 94.8181
| 15> H 	 -44.729 	 39.5628 	 93.956
| 16> C 	 -45.2725 	 39.9391 	 96.0373
| 17> H 	 -45.1991 	 39.3751 	 96.9573
| 18> H 	 -44.7843 	 40.9156 	 96.1709
| 19> C 	 -46.8001 	 40.0541 	 95.8962
| 20> H 	 -47.153 	 40.5103 	 94.9745
| 21> H 	 -47.2902 	 39.0939 	 96.0748
| 22> H 	 -47.243 	 40.663 	 96.6424
| 23> S 	 -39.0848 	 36.4977 	 96.6238
| 24> C 	 -38.1788 	 36.5534 	 98.0995
| 25> C 	 -38.5295 	 37.6281 	 98.884
| 26> C 	 -39.5547 	 38.4698 	 98.2724
| 27> C 	 -40.0183 	 37.9771 	 97.0405
| 28> H 	 -38.0783 	 37.7809 	 99.8748
| 29> C 	 -40.1636 	 39.6739 	 99.0696
| 30> H 	 -40.8137 	 39.0912 	 99.6952
| 31> H 	 -40.717 	 40.3783 	 98.4688
| 32> C 	 -39.1009 	 40.5 	 99.8602
| 33> H 	 -38.2024 	 40.3858 	 99.2092
| 34> H 	 -38.9672 	 40.2049 	 100.865
| 35> C 	 -39.5988 	 42.0016 	 100.04
| 36> H 	 -39.9414 	 42.4313 	 99.1319
| 37> H 	 -38.693 	 42.5676 	 100.391
| 38> H 	 -40.3558 	 42.073 	 100.787
| 39> H 	 -42.5817 	 39.9392 	 93.2477
| 40> H 	 -37.4377 	 35.7673 	 98.4681
| 41> *
| 42>
| 43>                          ****END OF INPUT****

CARTESIAN COORDINATES (ANGSTROEM)
---------------------------------
  S    -40.511200   39.331400   94.588500
  C    -42.187800   39.581100   94.166900
  C    -43.083200   39.097500   95.153000
  C    -42.404800   38.538500   96.268500
  C    -41.049100   38.524200   96.116500
  H    -42.979800   38.122700   97.077700
  C    -44.557600   39.127500   94.976700
  H    -45.119600   38.229400   94.818100
  H    -44.729000   39.562800   93.956000
  C    -45.272500   39.939100   96.037300
  H    -45.199100   39.375100   96.957300
  H    -44.784300   40.915600   96.170900
  C    -46.800100   40.054100   95.896200
  H    -47.153000   40.510300   94.974500
  H    -47.290200   39.093900   96.074800
  H    -47.243000   40.663000   96.642400
  S    -39.084800   36.497700   96.623800
  C    -38.178800   36.553400   98.099500
  C    -38.529500   37.628100   98.884000
  C    -39.554700   38.469800   98.272400
  C    -40.018300   37.977100   97.040500
  H    -38.078300   37.780900   99.874800
  C    -40.163600   39.673900   99.069600
  H    -40.813700   39.091200   99.695200
  H    -40.717000   40.378300   98.468800
  C    -39.100900   40.500000   99.860200
  H    -38.202400   40.385800   99.209200
  H    -38.967200   40.204900  100.865000
  C    -39.598800   42.001600  100.040000
  H    -39.941400   42.431300   99.131900
  H    -38.693000   42.567600  100.391000
  H    -40.355800   42.073000  100.787000
  H    -42.581700   39.939200   93.247700
  H    -37.437700   35.767300   98.468100

 Total Charge           Charge          ....    0
 Multiplicity           Mult            ....    1
 Number of Electrons    NEL             ....  134
 Basis Dimension        Dim             ....  322

ORBITAL ENERGIES
----------------

  NO   OCC          E(Eh)            E(eV)
   0   2.0000     -88.969109     -2420.9725
   1   2.0000     -88.963223     -2420.8124
   2   2.0000     -10.334989      -281.2294
   3   2.0000     -10.329291      -281.0743
   4   2.0000     -10.322887      -280.9000
   5   2.0000     -10.314993      -280.6852
   6   2.0000     -10.310635      -280.5666
   7   2.0000     -10.299812      -280.2721
   8   2.0000     -10.296000      -280.1684
   9   2.0000     -10.295176      -280.1460
  10   2.0000     -10.291002      -280.0324
  11   2.0000     -10.289406      -279.9890
  12   2.0000     -10.289266      -279.9852
  13   2.0000     -10.286276      -279.9038
  14   2.0000     -10.279115      -279.7090
  15   2.0000     -10.276205      -279.6297
  16   2.0000      -8.082803      -219.9442
  17   2.0000      -8.077520      -219.8005
  18   2.0000      -6.041308      -164.3923
  19   2.0000      -6.037534      -164.2897
  20   2.0000      -6.036104      -164.2508
  21   2.0000      -6.033542      -164.1810
  22   2.0000      -6.032055      -164.1406
  23   2.0000      -6.028250      -164.0370
  24   2.0000      -0.996240       -27.1091
  25   2.0000      -0.977587       -26.6015
  26   2.0000      -0.913870       -24.8677
  27   2.0000      -0.900363       -24.5001
  28   2.0000      -0.863050       -23.4848
  29   2.0000      -0.851140       -23.1607
  30   2.0000      -0.840667       -22.8757
  31   2.0000      -0.816068       -22.2063
  32   2.0000      -0.781525       -21.2664
  33   2.0000      -0.767218       -20.8771
  34   2.0000      -0.708100       -19.2684
  35   2.0000      -0.698594       -19.0097
  36   2.0000      -0.690375       -18.7860
  37   2.0000      -0.646050       -17.5799
  38   2.0000      -0.642087       -17.4721
  39   2.0000      -0.625431       -17.0188
  40   2.0000      -0.591157       -16.0862
  41   2.0000      -0.575765       -15.6674
  42   2.0000      -0.574915       -15.6442
  43   2.0000      -0.558065       -15.1857
  44   2.0000      -0.521006       -14.1773
  45   2.0000      -0.519219       -14.1287
  46   2.0000      -0.515942       -14.0395
  47   2.0000      -0.509732       -13.8705
  48   2.0000      -0.500947       -13.6315
  49   2.0000      -0.494245       -13.4491
  50   2.0000      -0.486529       -13.2391
  51   2.0000      -0.479812       -13.0563
  52   2.0000      -0.471877       -12.8404
  53   2.0000      -0.460910       -12.5420
  54   2.0000      -0.459019       -12.4905
  55   2.0000      -0.452431       -12.3113
  56   2.0000      -0.447623       -12.1805
  57   2.0000      -0.432754       -11.7758
  58   2.0000      -0.430496       -11.7144
  59   2.0000      -0.429859       -11.6971
  60   2.0000      -0.421464       -11.4686
  61   2.0000      -0.412950       -11.2369
  62   2.0000      -0.408057       -11.1038
  63   2.0000      -0.341742        -9.2993
  64   2.0000      -0.326539        -8.8856
  65   2.0000      -0.323878        -8.8132
  66   2.0000      -0.301733        -8.2106
  67   0.0000       0.038555         1.0491
  68   0.0000       0.057383         1.5615
  69   0.0000       0.114965         3.1284
  70   0.0000       0.123747         3.3673
  71   0.0000       0.129578         3.5260

MULLIKEN ATOMIC CHARGES
-----------------------
   0 S :    0.118748
   1 C :   -0.092031
   2 C :   -0.103217
   3 C :    0.066128
   4 C :   -0.160384
   5 H :    0.012848
   6 C :    0.078537
   7 H :    0.022191
   8 H :    0.003359
   9 C :   -0.099419
  10 H :    0.025252
  11 H :    0.038491
  12 C :   -0.029088
  13 H :    0.027605
  14 H :    0.026080
  15 H :    0.019972
  16 S :    0.104600
  17 C :   -0.109997
  18 C :   -0.046642
  19 C :   -0.058624
  20 C :   -0.183982
  21 H :    0.032720
  22 C :    0.100651
  23 H :    0.038512
  24 H :    0.027544
  25 C :   -0.109895
  26 H :    0.055220
  27 H :    0.028544
  28 C :   -0.056526
  29 H :    0.032225
  30 H :    0.040820
  31 H :    0.032237
  32 H :    0.032352
  33 H :    0.085171
Sum of atomic charges:   -0.0000000

LOEWDIN ATOMIC CHARGES
----------------------
   0 S :    0.390569
   1 C :   -0.190558
   2 C :   -0.062624
   3 C :   -0.049080
   4 C :   -0.173622
   5 H :    0.034811
   6 C :   -0.041109
   7 H :    0.028153
   8 H :    0.031571
   9 C :   -0.040728
  10 H :    0.023222
  11 H :    0.027118
  12 C :   -0.065528
  13 H :    0.021888
  14 H :    0.026653
  15 H :    0.023582
  16 S :    0.390188
  17 C :   -0.198143
  18 C :   -0.087767
  19 C :   -0.045145
  20 C :   -0.207606
  21 H :    0.035894
  22 C :   -0.025970
  23 H :    0.033469
  24 H :    0.027409
  25 C :   -0.039186
  26 H :    0.032828
  27 H :    0.017957
  28 C :   -0.058803
  29 H :    0.016907
  30 H :    0.033671
  31 H :    0.020549
  32 H :    0.020042
  33 H :    0.049387

  Mayer bond orders larger than 0.100000
B(  0-S ,  1-C ) :   1.1419 B(  0-S ,  4-C ) :   1.1373 B(  1-C ,  2-C ) :   1.6155
B(  1-C , 32-H ) :   0.9627 B(  2-C ,  3-C ) :   1.2394 B(  2-C ,  6-C ) :   1.0370
B(  3-C ,  4-C ) :   1.5964 B(  3-C ,  5-H ) :   0.9959 B(  4-C , 20-C ) :   1.0191
B(  6-C ,  7-H ) :   0.9362 B(  6-C ,  8-H ) :   0.9318 B(  6-C ,  9-C ) :   1.0550
B(  9-C , 10-H ) :   0.9534 B(  9-C , 11-H ) :   0.9588 B(  9-C , 12-C ) :   1.0886
B( 12-C , 13-H ) :   0.9759 B( 12-C , 14-H ) :   0.9710 B( 12-C , 15-H ) :   0.9715
B( 16-S , 17-C ) :   1.1632 B( 16-S , 20-C ) :   1.1211 B( 17-C , 18-C ) :   1.6213
B( 17-C , 33-H ) :   0.9533 B( 18-C , 19-C ) :   1.2255 B( 18-C , 21-H ) :   0.9837
B( 19-C , 20-C ) :   1.6180 B( 19-C , 22-C ) :   1.0218 B( 22-C , 23-H ) :   0.9348
B( 22-C , 24-H ) :   0.9458 B( 22-C , 25-C ) :   1.0493 B( 25-C , 26-H ) :   0.9680
B( 25-C , 27-H ) :   0.9508 B( 25-C , 28-C ) :   1.0817 B( 28-C , 29-H ) :   0.9789
B( 28-C , 30-H ) :   0.9764 B( 28-C , 31-H ) :   0.9777

Dispersion correction           -0.013421387
FINAL SINGLE POINT ENERGY     -1339.870038429719

DIPOLE MOMENT
-------------
                                X             Y             Z
Electronic contribution:     18.92356     -16.33713     -13.43584
Nuclear contribution   :    -19.40135      16.53238      13.97820
                        -----------------------------------------
Total Dipole Moment    :     -0.47779       0.19525       0.54236
                        -----------------------------------------
Magnitude (a.u.)       :      0.74871
Magnitude (Debye)      :      1.90306

Rotational constants in cm-1:     0.016963     0.007848     0.006362
Rotational constants in MHz :   508.532627   235.286072   190.725530

                             ****ORCA TERMINATED NORMALLY****
TOTAL RUN TIME: 0 days 0 hours 0 minutes 28 seconds 892 msec
