                         Program Version 4.2.1 -  RELEASE  -
|  1> ! wB97X-D3 SP def2-SVP
|  2> %pal
|  3> nprocs 16
|  4> end
|  5>
|  6> * xyz 0 1
|  7> S 	 -0.676385 	 27.5946 	 33.3446
|  8> C 	 -1.57899 	 27.9075 	 31.8181
|  9> C 	 -2.11966 	 26.7421 	 31.2788
| 10> C 	 -1.61984 	 25.6018 	 31.9488
| 11> C 	 -0.91195 	 25.8459 	 33.1396
| 12> H 	 -1.80626 	 24.6031 	 31.7388
| 13> C 	 -2.99797 	 26.7796 	 30.0254
| 14> H 	 -2.41403 	 26.4055 	 29.228
| 15> H 	 -3.29788 	 27.8546 	 29.869
| 16> C 	 -4.30668 	 26.0476 	 30.0692
| 17> H 	 -4.18095 	 24.981 	 30.2641
| 18> H 	 -4.74626 	 26.4858 	 30.9796
| 19> C 	 -5.21645 	 26.1974 	 28.7721
| 20> H 	 -5.07809 	 25.3514 	 28.0285
| 21> H 	 -6.25437 	 26.2825 	 29.0678
| 22> H 	 -5.10223 	 27.1102 	 28.2465
| 23> S 	 -0.0891755 	 25.4399 	 35.6919
| 24> C 	 0.792564 	 24.0321 	 36.14
| 25> C 	 0.689812 	 23.0823 	 35.1353
| 26> C 	 0.136503 	 23.5485 	 33.9304
| 27> C 	 -0.2839 	 24.852 	 34.0549
| 28> H 	 1.17744 	 22.1035 	 35.2423
| 29> C 	 0.108287 	 22.6747 	 32.7359
| 30> H 	 0.995673 	 22.1085 	 32.6935
| 31> H 	 0.277967 	 23.3841 	 31.9115
| 32> C 	 -1.10642 	 21.8714 	 32.4252
| 33> H 	 -0.894457 	 21.3082 	 31.479
| 34> H 	 -1.95692 	 22.5355 	 32.2623
| 35> C 	 -1.50641 	 20.9511 	 33.5971
| 36> H 	 -0.836059 	 20.1101 	 33.8096
| 37> H 	 -2.49221 	 20.4529 	 33.4921
| 38> H 	 -1.58246 	 21.5007 	 34.5409
| 39> H 	 -2.00711 	 28.8616 	 31.4261
| 40> H 	 1.16741 	 23.8513 	 37.1386
| 41> *
| 42>
| 43>                          ****END OF INPUT****

CARTESIAN COORDINATES (ANGSTROEM)
---------------------------------
  S     -0.676385   27.594600   33.344600
  C     -1.578990   27.907500   31.818100
  C     -2.119660   26.742100   31.278800
  C     -1.619840   25.601800   31.948800
  C     -0.911950   25.845900   33.139600
  H     -1.806260   24.603100   31.738800
  C     -2.997970   26.779600   30.025400
  H     -2.414030   26.405500   29.228000
  H     -3.297880   27.854600   29.869000
  C     -4.306680   26.047600   30.069200
  H     -4.180950   24.981000   30.264100
  H     -4.746260   26.485800   30.979600
  C     -5.216450   26.197400   28.772100
  H     -5.078090   25.351400   28.028500
  H     -6.254370   26.282500   29.067800
  H     -5.102230   27.110200   28.246500
  S     -0.089176   25.439900   35.691900
  C      0.792564   24.032100   36.140000
  C      0.689812   23.082300   35.135300
  C      0.136503   23.548500   33.930400
  C     -0.283900   24.852000   34.054900
  H      1.177440   22.103500   35.242300
  C      0.108287   22.674700   32.735900
  H      0.995673   22.108500   32.693500
  H      0.277967   23.384100   31.911500
  C     -1.106420   21.871400   32.425200
  H     -0.894457   21.308200   31.479000
  H     -1.956920   22.535500   32.262300
  C     -1.506410   20.951100   33.597100
  H     -0.836059   20.110100   33.809600
  H     -2.492210   20.452900   33.492100
  H     -1.582460   21.500700   34.540900
  H     -2.007110   28.861600   31.426100
  H      1.167410   23.851300   37.138600

 Total Charge           Charge          ....    0
 Multiplicity           Mult            ....    1
 Number of Electrons    NEL             ....  134
 Basis Dimension        Dim             ....  322

ORBITAL ENERGIES
----------------

  NO   OCC          E(Eh)            E(eV)
   0   2.0000     -88.970740     -2421.0169
   1   2.0000     -88.966322     -2420.8967
   2   2.0000     -10.338273      -281.3187
   3   2.0000     -10.330955      -281.1196
   4   2.0000     -10.319455      -280.8067
   5   2.0000     -10.316439      -280.7246
   6   2.0000     -10.303874      -280.3827
   7   2.0000     -10.299667      -280.2682
   8   2.0000     -10.293920      -280.1118
   9   2.0000     -10.293441      -280.0988
  10   2.0000     -10.293097      -280.0894
  11   2.0000     -10.292178      -280.0644
  12   2.0000     -10.290599      -280.0214
  13   2.0000     -10.285557      -279.8842
  14   2.0000     -10.284777      -279.8630
  15   2.0000     -10.278860      -279.7020
  16   2.0000      -8.083763      -219.9704
  17   2.0000      -8.081767      -219.9161
  18   2.0000      -6.042501      -164.4248
  19   2.0000      -6.040164      -164.3612
  20   2.0000      -6.038552      -164.3174
  21   2.0000      -6.036194      -164.2532
  22   2.0000      -6.034320      -164.2022
  23   2.0000      -6.032593      -164.1552
  24   2.0000      -1.009917       -27.4812
  25   2.0000      -0.982025       -26.7223
  26   2.0000      -0.921371       -25.0718
  27   2.0000      -0.911896       -24.8140
  28   2.0000      -0.865459       -23.5503
  29   2.0000      -0.853545       -23.2262
  30   2.0000      -0.841472       -22.8976
  31   2.0000      -0.814141       -22.1539
  32   2.0000      -0.789099       -21.4725
  33   2.0000      -0.777790       -21.1647
  34   2.0000      -0.712422       -19.3860
  35   2.0000      -0.701229       -19.0814
  36   2.0000      -0.690099       -18.7785
  37   2.0000      -0.668318       -18.1859
  38   2.0000      -0.637877       -17.3575
  39   2.0000      -0.618380       -16.8270
  40   2.0000      -0.601063       -16.3558
  41   2.0000      -0.577323       -15.7098
  42   2.0000      -0.561352       -15.2752
  43   2.0000      -0.555999       -15.1295
  44   2.0000      -0.550113       -14.9693
  45   2.0000      -0.520516       -14.1640
  46   2.0000      -0.510502       -13.8915
  47   2.0000      -0.506715       -13.7884
  48   2.0000      -0.501580       -13.6487
  49   2.0000      -0.496079       -13.4990
  50   2.0000      -0.492175       -13.3928
  51   2.0000      -0.487088       -13.2543
  52   2.0000      -0.471935       -12.8420
  53   2.0000      -0.471032       -12.8174
  54   2.0000      -0.461607       -12.5610
  55   2.0000      -0.445914       -12.1339
  56   2.0000      -0.442525       -12.0417
  57   2.0000      -0.437168       -11.8959
  58   2.0000      -0.429702       -11.6928
  59   2.0000      -0.424345       -11.5470
  60   2.0000      -0.423529       -11.5248
  61   2.0000      -0.421040       -11.4571
  62   2.0000      -0.417304       -11.3554
  63   2.0000      -0.354952        -9.6587
  64   2.0000      -0.336005        -9.1432
  65   2.0000      -0.333622        -9.0783
  66   2.0000      -0.285306        -7.7636
  67   0.0000       0.018599         0.5061
  68   0.0000       0.075672         2.0592
  69   0.0000       0.101323         2.7571
  70   0.0000       0.122979         3.3464
  71   0.0000       0.131643         3.5822

MULLIKEN ATOMIC CHARGES
-----------------------
   0 S :    0.104320
   1 C :   -0.121617
   2 C :   -0.099202
   3 C :    0.051104
   4 C :   -0.111562
   5 H :   -0.054990
   6 C :    0.088034
   7 H :    0.032339
   8 H :    0.020642
   9 C :   -0.107965
  10 H :    0.033932
  11 H :    0.032687
  12 C :   -0.045805
  13 H :    0.051784
  14 H :    0.034247
  15 H :    0.016775
  16 S :    0.099626
  17 C :   -0.086353
  18 C :   -0.047977
  19 C :   -0.072346
  20 C :   -0.134330
  21 H :    0.024163
  22 C :    0.074382
  23 H :    0.009903
  24 H :    0.022663
  25 C :   -0.035409
  26 H :    0.043841
  27 H :    0.039428
  28 C :   -0.086074
  29 H :    0.025441
  30 H :    0.033240
  31 H :    0.045587
  32 H :    0.059574
  33 H :    0.059920
Sum of atomic charges:   -0.0000000

LOEWDIN ATOMIC CHARGES
----------------------
   0 S :    0.377775
   1 C :   -0.195694
   2 C :   -0.059367
   3 C :   -0.063414
   4 C :   -0.176969
   5 H :    0.012685
   6 C :   -0.028800
   7 H :    0.025284
   8 H :    0.034744
   9 C :   -0.044974
  10 H :    0.021980
  11 H :    0.027877
  12 C :   -0.069486
  13 H :    0.036177
  14 H :    0.030095
  15 H :    0.018426
  16 S :    0.417445
  17 C :   -0.193528
  18 C :   -0.072076
  19 C :   -0.063939
  20 C :   -0.187066
  21 H :    0.033747
  22 C :   -0.037427
  23 H :    0.026520
  24 H :    0.037405
  25 C :   -0.036131
  26 H :    0.034290
  27 H :    0.023553
  28 C :   -0.076663
  29 H :    0.022614
  30 H :    0.028553
  31 H :    0.029260
  32 H :    0.037225
  33 H :    0.029877

  Mayer bond orders larger than 0.100000
B(  0-S ,  1-C ) :   1.1204 B(  0-S ,  4-C ) :   1.1395 B(  1-C ,  2-C ) :   1.6267
B(  1-C ,  4-C ) :   0.1057 B(  1-C , 32-H ) :   0.9500 B(  2-C ,  3-C ) :   1.2349
B(  2-C ,  6-C ) :   1.0263 B(  3-C ,  4-C ) :   1.5708 B(  3-C ,  5-H ) :   1.0014
B(  4-C , 20-C ) :   1.0421 B(  6-C ,  7-H ) :   0.9373 B(  6-C ,  8-H ) :   0.9387
B(  6-C ,  9-C ) :   1.0600 B(  9-C , 10-H ) :   0.9580 B(  9-C , 11-H ) :   0.9626
B(  9-C , 12-C ) :   1.0653 B( 12-C , 13-H ) :   0.9772 B( 12-C , 14-H ) :   0.9766
B( 12-C , 15-H ) :   0.9763 B( 16-S , 17-C ) :   1.1637 B( 16-S , 20-C ) :   1.1516
B( 17-C , 18-C ) :   1.5812 B( 17-C , 20-C ) :   0.1007 B( 17-C , 33-H ) :   0.9699
B( 18-C , 19-C ) :   1.2637 B( 18-C , 21-H ) :   0.9851 B( 19-C , 20-C ) :   1.5833
B( 19-C , 22-C ) :   1.0371 B( 22-C , 23-H ) :   0.9273 B( 22-C , 24-H ) :   0.9203
B( 22-C , 25-C ) :   1.0846 B( 25-C , 26-H ) :   0.9513 B( 25-C , 27-H ) :   0.9444
B( 25-C , 28-C ) :   1.0749 B( 28-C , 29-H ) :   0.9754 B( 28-C , 30-H ) :   0.9745
B( 28-C , 31-H ) :   0.9710

Dispersion correction           -0.014222369
FINAL SINGLE POINT ENERGY     -1339.874532568455

DIPOLE MOMENT
-------------
                                X             Y             Z
Electronic contribution:     15.95451      15.78783      20.29365
Nuclear contribution   :    -16.22187     -16.30896     -20.69304
                        -----------------------------------------
Total Dipole Moment    :     -0.26736      -0.52113      -0.39940
                        -----------------------------------------
Magnitude (a.u.)       :      0.70892
Magnitude (Debye)      :      1.80194

Rotational constants in cm-1:     0.018871     0.008659     0.006314
Rotational constants in MHz :   565.748391   259.585405   189.281584

                             ****ORCA TERMINATED NORMALLY****
TOTAL RUN TIME: 0 days 0 hours 0 minutes 34 seconds 932 msec
