                         Program Version 4.2.1 -  RELEASE  -
|  1> ! wB97X-D3 SP def2-SVP
|  2> %pal
|  3> nprocs 16
|  4> end
|  5>
|  6> * xyz 0 1
|  7> S 	 2.28269 	 11.5241 	 82.7584
|  8> C 	 0.60889 	 11.0384 	 82.6479
|  9> C 	 -0.121265 	 11.6269 	 83.664
| 10> C 	 0.668525 	 12.3056 	 84.6467
| 11> C 	 2.02759 	 12.3482 	 84.3127
| 12> H 	 0.303075 	 12.8128 	 85.5127
| 13> C 	 -1.62653 	 11.5255 	 83.7665
| 14> H 	 -2.03105 	 11.7117 	 82.8067
| 15> H 	 -2.00243 	 12.3529 	 84.3918
| 16> C 	 -2.22487 	 10.1843 	 84.3523
| 17> H 	 -1.84546 	 9.19995 	 83.9088
| 18> H 	 -1.93286 	 10.2585 	 85.4238
| 19> C 	 -3.72059 	 10.1794 	 84.4416
| 20> H 	 -4.1485 	 9.93103 	 83.4046
| 21> H 	 -4.07593 	 9.46081 	 85.1154
| 22> H 	 -4.14322 	 11.111 	 84.7333
| 23> S 	 3.22987 	 11.9398 	 86.8496
| 24> C 	 4.78509 	 12.6889 	 87.1039
| 25> C 	 5.13727 	 13.5093 	 86.0599
| 26> C 	 4.26437 	 13.5308 	 84.9758
| 27> C 	 3.18717 	 12.7348 	 85.1905
| 28> H 	 5.99705 	 14.083 	 86.0949
| 29> C 	 4.50789 	 14.2543 	 83.6983
| 30> H 	 3.90085 	 13.7093 	 82.9759
| 31> H 	 5.53338 	 14.289 	 83.37
| 32> C 	 3.98758 	 15.6758 	 83.7692
| 33> H 	 4.42416 	 16.2538 	 84.5216
| 34> H 	 2.91705 	 15.5264 	 84.0175
| 35> C 	 4.18039 	 16.469 	 82.471
| 36> H 	 3.68749 	 15.9258 	 81.6796
| 37> H 	 5.22241 	 16.8655 	 82.3044
| 38> H 	 3.61673 	 17.3362 	 82.4401
| 39> H 	 0.130215 	 10.5222 	 81.843
| 40> H 	 5.34538 	 12.692 	 88.0108
| 41> *
| 42>
| 43>                          ****END OF INPUT****

CARTESIAN COORDINATES (ANGSTROEM)
---------------------------------
  S      2.282690   11.524100   82.758400
  C      0.608890   11.038400   82.647900
  C     -0.121265   11.626900   83.664000
  C      0.668525   12.305600   84.646700
  C      2.027590   12.348200   84.312700
  H      0.303075   12.812800   85.512700
  C     -1.626530   11.525500   83.766500
  H     -2.031050   11.711700   82.806700
  H     -2.002430   12.352900   84.391800
  C     -2.224870   10.184300   84.352300
  H     -1.845460    9.199950   83.908800
  H     -1.932860   10.258500   85.423800
  C     -3.720590   10.179400   84.441600
  H     -4.148500    9.931030   83.404600
  H     -4.075930    9.460810   85.115400
  H     -4.143220   11.111000   84.733300
  S      3.229870   11.939800   86.849600
  C      4.785090   12.688900   87.103900
  C      5.137270   13.509300   86.059900
  C      4.264370   13.530800   84.975800
  C      3.187170   12.734800   85.190500
  H      5.997050   14.083000   86.094900
  C      4.507890   14.254300   83.698300
  H      3.900850   13.709300   82.975900
  H      5.533380   14.289000   83.370000
  C      3.987580   15.675800   83.769200
  H      4.424160   16.253800   84.521600
  H      2.917050   15.526400   84.017500
  C      4.180390   16.469000   82.471000
  H      3.687490   15.925800   81.679600
  H      5.222410   16.865500   82.304400
  H      3.616730   17.336200   82.440100
  H      0.130215   10.522200   81.843000
  H      5.345380   12.692000   88.010800

 Total Charge           Charge          ....    0
 Multiplicity           Mult            ....    1
 Number of Electrons    NEL             ....  134
 Basis Dimension        Dim             ....  322

ORBITAL ENERGIES
----------------

  NO   OCC          E(Eh)            E(eV)
   0   2.0000     -88.968232     -2420.9487
   1   2.0000     -88.966481     -2420.9010
   2   2.0000     -10.336483      -281.2700
   3   2.0000     -10.331307      -281.1292
   4   2.0000     -10.314670      -280.6764
   5   2.0000     -10.313357      -280.6407
   6   2.0000     -10.300974      -280.3037
   7   2.0000     -10.296733      -280.1883
   8   2.0000     -10.295561      -280.1565
   9   2.0000     -10.294062      -280.1157
  10   2.0000     -10.292293      -280.0675
  11   2.0000     -10.284877      -279.8657
  12   2.0000     -10.282902      -279.8120
  13   2.0000     -10.278488      -279.6919
  14   2.0000     -10.274937      -279.5953
  15   2.0000     -10.271553      -279.5032
  16   2.0000      -8.081986      -219.9220
  17   2.0000      -8.079949      -219.8666
  18   2.0000      -6.040565      -164.3721
  19   2.0000      -6.038529      -164.3167
  20   2.0000      -6.036545      -164.2627
  21   2.0000      -6.034803      -164.2153
  22   2.0000      -6.032819      -164.1613
  23   2.0000      -6.030536      -164.0992
  24   2.0000      -1.002006       -27.2660
  25   2.0000      -0.983460       -26.7613
  26   2.0000      -0.915079       -24.9006
  27   2.0000      -0.907317       -24.6893
  28   2.0000      -0.865940       -23.5634
  29   2.0000      -0.854429       -23.2502
  30   2.0000      -0.849570       -23.1180
  31   2.0000      -0.814685       -22.1687
  32   2.0000      -0.785891       -21.3852
  33   2.0000      -0.771570       -20.9955
  34   2.0000      -0.704231       -19.1631
  35   2.0000      -0.696838       -18.9619
  36   2.0000      -0.693588       -18.8735
  37   2.0000      -0.669236       -18.2108
  38   2.0000      -0.641558       -17.4577
  39   2.0000      -0.614018       -16.7083
  40   2.0000      -0.600728       -16.3466
  41   2.0000      -0.576335       -15.6829
  42   2.0000      -0.571984       -15.5645
  43   2.0000      -0.558343       -15.1933
  44   2.0000      -0.527587       -14.3564
  45   2.0000      -0.524311       -14.2672
  46   2.0000      -0.518085       -14.0978
  47   2.0000      -0.512097       -13.9349
  48   2.0000      -0.507085       -13.7985
  49   2.0000      -0.502042       -13.6613
  50   2.0000      -0.484970       -13.1967
  51   2.0000      -0.482682       -13.1345
  52   2.0000      -0.470677       -12.8078
  53   2.0000      -0.465796       -12.6749
  54   2.0000      -0.458938       -12.4883
  55   2.0000      -0.453019       -12.3273
  56   2.0000      -0.448135       -12.1944
  57   2.0000      -0.433488       -11.7958
  58   2.0000      -0.432756       -11.7759
  59   2.0000      -0.422221       -11.4892
  60   2.0000      -0.419695       -11.4205
  61   2.0000      -0.416289       -11.3278
  62   2.0000      -0.408878       -11.1261
  63   2.0000      -0.342088        -9.3087
  64   2.0000      -0.334296        -9.0967
  65   2.0000      -0.331556        -9.0221
  66   2.0000      -0.293915        -7.9978
  67   0.0000       0.029346         0.7985
  68   0.0000       0.061521         1.6741
  69   0.0000       0.099552         2.7090
  70   0.0000       0.114325         3.1109
  71   0.0000       0.133953         3.6450

MULLIKEN ATOMIC CHARGES
-----------------------
   0 S :    0.106842
   1 C :   -0.102752
   2 C :   -0.088414
   3 C :    0.023844
   4 C :   -0.151765
   5 H :    0.009223
   6 C :    0.064269
   7 H :    0.014286
   8 H :    0.019107
   9 C :   -0.100963
  10 H :    0.049628
  11 H :    0.028821
  12 C :   -0.022042
  13 H :    0.030229
  14 H :    0.027469
  15 H :    0.016634
  16 S :    0.102740
  17 C :   -0.066697
  18 C :   -0.012110
  19 C :   -0.017006
  20 C :   -0.166083
  21 H :   -0.019348
  22 C :    0.116984
  23 H :    0.005383
  24 H :    0.020960
  25 C :   -0.089893
  26 H :    0.014419
  27 H :    0.031357
  28 C :   -0.005127
  29 H :    0.022503
  30 H :    0.042460
  31 H :    0.006579
  32 H :    0.041555
  33 H :    0.046910
Sum of atomic charges:   -0.0000000

LOEWDIN ATOMIC CHARGES
----------------------
   0 S :    0.405645
   1 C :   -0.194431
   2 C :   -0.063715
   3 C :   -0.062399
   4 C :   -0.185732
   5 H :    0.029331
   6 C :   -0.031371
   7 H :    0.020719
   8 H :    0.032553
   9 C :   -0.046010
  10 H :    0.032985
  11 H :    0.027616
  12 C :   -0.064253
  13 H :    0.029388
  14 H :    0.020330
  15 H :    0.018941
  16 S :    0.374113
  17 C :   -0.174561
  18 C :   -0.062423
  19 C :   -0.055075
  20 C :   -0.168214
  21 H :    0.018418
  22 C :   -0.024944
  23 H :    0.021197
  24 H :    0.027606
  25 C :   -0.034175
  26 H :    0.013201
  27 H :    0.030610
  28 C :   -0.068123
  29 H :    0.027157
  30 H :    0.034311
  31 H :    0.017533
  32 H :    0.027527
  33 H :    0.026246

  Mayer bond orders larger than 0.100000
B(  0-S ,  1-C ) :   1.1417 B(  0-S ,  4-C ) :   1.1502 B(  1-C ,  2-C ) :   1.6019
B(  1-C , 32-H ) :   0.9710 B(  2-C ,  3-C ) :   1.2429 B(  2-C ,  6-C ) :   1.0283
B(  3-C ,  4-C ) :   1.5607 B(  3-C ,  5-H ) :   1.0020 B(  4-C , 20-C ) :   1.0130
B(  6-C ,  7-H ) :   0.9408 B(  6-C ,  8-H ) :   0.9412 B(  6-C ,  9-C ) :   1.0540
B(  9-C , 10-H ) :   0.9582 B(  9-C , 11-H ) :   0.9564 B(  9-C , 12-C ) :   1.0872
B( 12-C , 13-H ) :   0.9726 B( 12-C , 14-H ) :   0.9737 B( 12-C , 15-H ) :   0.9700
B( 16-S , 17-C ) :   1.1440 B( 16-S , 20-C ) :   1.1157 B( 17-C , 18-C ) :   1.6197
B( 17-C , 33-H ) :   0.9659 B( 18-C , 19-C ) :   1.2367 B( 18-C , 21-H ) :   0.9979
B( 19-C , 20-C ) :   1.6188 B( 19-C , 22-C ) :   1.0449 B( 22-C , 23-H ) :   0.9157
B( 22-C , 24-H ) :   0.9351 B( 22-C , 25-C ) :   1.0636 B( 25-C , 26-H ) :   0.9593
B( 25-C , 27-H ) :   0.9520 B( 25-C , 28-C ) :   1.0959 B( 28-C , 29-H ) :   0.9681
B( 28-C , 30-H ) :   0.9708 B( 28-C , 31-H ) :   0.9667

Dispersion correction           -0.013748683
FINAL SINGLE POINT ENERGY     -1339.869412516985

DIPOLE MOMENT
-------------
                                X             Y             Z
Electronic contribution:     14.31447      -8.39496       7.14634
Nuclear contribution   :    -14.56010       8.74543      -7.14506
                        -----------------------------------------
Total Dipole Moment    :     -0.24563       0.35048       0.00128
                        -----------------------------------------
Magnitude (a.u.)       :      0.42798
Magnitude (Debye)      :      1.08785

Rotational constants in cm-1:     0.020705     0.007392     0.006180
Rotational constants in MHz :   620.710850   221.596165   185.259556

                             ****ORCA TERMINATED NORMALLY****
TOTAL RUN TIME: 0 days 0 hours 0 minutes 33 seconds 895 msec
