                         Program Version 4.2.1 -  RELEASE  -
|  1> ! wB97X-D3 SP def2-SVP
|  2> %pal
|  3> nprocs 16
|  4> end
|  5>
|  6> * xyz 0 1
|  7> S 	 -20.7154 	 0.692933 	 77.2529
|  8> C 	 -19.9406 	 0.383309 	 75.7409
|  9> C 	 -20.6758 	 0.681675 	 74.667
| 10> C 	 -21.8429 	 1.3668 	 75.05
| 11> C 	 -22.0109 	 1.45877 	 76.433
| 12> H 	 -22.5685 	 1.81765 	 74.366
| 13> C 	 -20.3661 	 0.29246 	 73.239
| 14> H 	 -21.306 	 0.166345 	 72.7237
| 15> H 	 -19.8581 	 -0.66877 	 73.3095
| 16> C 	 -19.5239 	 1.28488 	 72.4206
| 17> H 	 -18.4781 	 1.39425 	 72.8421
| 18> H 	 -19.3398 	 0.845332 	 71.4512
| 19> C 	 -20.1369 	 2.7084 	 72.2307
| 20> H 	 -21.2539 	 2.70862 	 72.1312
| 21> H 	 -19.8042 	 3.28768 	 73.0711
| 22> H 	 -19.7957 	 3.20294 	 71.3997
| 23> S 	 -22.2677 	 2.97851 	 78.6515
| 24> C 	 -23.773 	 3.79692 	 79.0166
| 25> C 	 -24.7035 	 3.49629 	 78.0135
| 26> C 	 -24.2049 	 2.66273 	 76.9696
| 27> C 	 -22.8897 	 2.28046 	 77.1817
| 28> H 	 -25.6875 	 3.91859 	 78.0811
| 29> C 	 -25.0595 	 2.105 	 75.9161
| 30> H 	 -24.5522 	 1.7844 	 75.0496
| 31> H 	 -25.6105 	 2.88642 	 75.465
| 32> C 	 -26.0363 	 0.966534 	 76.2892
| 33> H 	 -26.8302 	 1.54023 	 76.7858
| 34> H 	 -25.5997 	 0.242078 	 76.9956
| 35> C 	 -26.5343 	 0.240135 	 75.1054
| 36> H 	 -27.1685 	 0.800533 	 74.554
| 37> H 	 -27.0092 	 -0.611387 	 75.4733
| 38> H 	 -25.7781 	 0.0047079 	 74.3438
| 39> H 	 -19.0096 	 -0.17521 	 75.631
| 40> H 	 -23.9617 	 4.38518 	 79.9138
| 41> *
| 42>
| 43>                          ****END OF INPUT****

CARTESIAN COORDINATES (ANGSTROEM)
---------------------------------
  S    -20.715400    0.692933   77.252900
  C    -19.940600    0.383309   75.740900
  C    -20.675800    0.681675   74.667000
  C    -21.842900    1.366800   75.050000
  C    -22.010900    1.458770   76.433000
  H    -22.568500    1.817650   74.366000
  C    -20.366100    0.292460   73.239000
  H    -21.306000    0.166345   72.723700
  H    -19.858100   -0.668770   73.309500
  C    -19.523900    1.284880   72.420600
  H    -18.478100    1.394250   72.842100
  H    -19.339800    0.845332   71.451200
  C    -20.136900    2.708400   72.230700
  H    -21.253900    2.708620   72.131200
  H    -19.804200    3.287680   73.071100
  H    -19.795700    3.202940   71.399700
  S    -22.267700    2.978510   78.651500
  C    -23.773000    3.796920   79.016600
  C    -24.703500    3.496290   78.013500
  C    -24.204900    2.662730   76.969600
  C    -22.889700    2.280460   77.181700
  H    -25.687500    3.918590   78.081100
  C    -25.059500    2.105000   75.916100
  H    -24.552200    1.784400   75.049600
  H    -25.610500    2.886420   75.465000
  C    -26.036300    0.966534   76.289200
  H    -26.830200    1.540230   76.785800
  H    -25.599700    0.242078   76.995600
  C    -26.534300    0.240135   75.105400
  H    -27.168500    0.800533   74.554000
  H    -27.009200   -0.611387   75.473300
  H    -25.778100    0.004708   74.343800
  H    -19.009600   -0.175210   75.631000
  H    -23.961700    4.385180   79.913800

 Total Charge           Charge          ....    0
 Multiplicity           Mult            ....    1
 Number of Electrons    NEL             ....  134
 Basis Dimension        Dim             ....  322

ORBITAL ENERGIES
----------------

  NO   OCC          E(Eh)            E(eV)
   0   2.0000     -88.965909     -2420.8855
   1   2.0000     -88.962917     -2420.8040
   2   2.0000     -10.322449      -280.8881
   3   2.0000     -10.320944      -280.8472
   4   2.0000     -10.317404      -280.7508
   5   2.0000     -10.303923      -280.3840
   6   2.0000     -10.296394      -280.1791
   7   2.0000     -10.293235      -280.0932
   8   2.0000     -10.292564      -280.0749
   9   2.0000     -10.291307      -280.0407
  10   2.0000     -10.290993      -280.0322
  11   2.0000     -10.290609      -280.0217
  12   2.0000     -10.280602      -279.7494
  13   2.0000     -10.275930      -279.6223
  14   2.0000     -10.273476      -279.5555
  15   2.0000     -10.260767      -279.2097
  16   2.0000      -8.081808      -219.9172
  17   2.0000      -8.077757      -219.8070
  18   2.0000      -6.040189      -164.3619
  19   2.0000      -6.036269      -164.2552
  20   2.0000      -6.036238      -164.2544
  21   2.0000      -6.032554      -164.1541
  22   2.0000      -6.032107      -164.1420
  23   2.0000      -6.028633      -164.0474
  24   2.0000      -1.016734       -27.6667
  25   2.0000      -0.987477       -26.8706
  26   2.0000      -0.918196       -24.9854
  27   2.0000      -0.912204       -24.8223
  28   2.0000      -0.872136       -23.7320
  29   2.0000      -0.860828       -23.4243
  30   2.0000      -0.845144       -22.9976
  31   2.0000      -0.814099       -22.1528
  32   2.0000      -0.788796       -21.4642
  33   2.0000      -0.777020       -21.1438
  34   2.0000      -0.708235       -19.2721
  35   2.0000      -0.703299       -19.1377
  36   2.0000      -0.698894       -19.0179
  37   2.0000      -0.665737       -18.1156
  38   2.0000      -0.634872       -17.2758
  39   2.0000      -0.619120       -16.8471
  40   2.0000      -0.601655       -16.3719
  41   2.0000      -0.572467       -15.5776
  42   2.0000      -0.568896       -15.4805
  43   2.0000      -0.548895       -14.9362
  44   2.0000      -0.542556       -14.7637
  45   2.0000      -0.539786       -14.6883
  46   2.0000      -0.515922       -14.0389
  47   2.0000      -0.512271       -13.9396
  48   2.0000      -0.508372       -13.8335
  49   2.0000      -0.502676       -13.6785
  50   2.0000      -0.489198       -13.3118
  51   2.0000      -0.479472       -13.0471
  52   2.0000      -0.475953       -12.9513
  53   2.0000      -0.466795       -12.7021
  54   2.0000      -0.456572       -12.4240
  55   2.0000      -0.452365       -12.3095
  56   2.0000      -0.444060       -12.0835
  57   2.0000      -0.439223       -11.9519
  58   2.0000      -0.435422       -11.8484
  59   2.0000      -0.429880       -11.6976
  60   2.0000      -0.422557       -11.4984
  61   2.0000      -0.414985       -11.2923
  62   2.0000      -0.404921       -11.0185
  63   2.0000      -0.356730        -9.7071
  64   2.0000      -0.333678        -9.0798
  65   2.0000      -0.328617        -8.9421
  66   2.0000      -0.279704        -7.6111
  67   0.0000       0.023653         0.6436
  68   0.0000       0.083358         2.2683
  69   0.0000       0.104967         2.8563
  70   0.0000       0.119536         3.2527
  71   0.0000       0.146193         3.9781

MULLIKEN ATOMIC CHARGES
-----------------------
   0 S :    0.115525
   1 C :   -0.136343
   2 C :   -0.067035
   3 C :   -0.006111
   4 C :   -0.137052
   5 H :    0.017650
   6 C :    0.087855
   7 H :    0.021725
   8 H :    0.026471
   9 C :   -0.084470
  10 H :    0.032294
  11 H :    0.025571
  12 C :   -0.033429
  13 H :    0.031678
  14 H :    0.042504
  15 H :    0.014195
  16 S :    0.097565
  17 C :   -0.104515
  18 C :   -0.033655
  19 C :   -0.024227
  20 C :   -0.122125
  21 H :    0.011498
  22 C :    0.095250
  23 H :   -0.035207
  24 H :    0.001371
  25 C :   -0.073538
  26 H :    0.025241
  27 H :    0.040153
  28 C :    0.025101
  29 H :   -0.006034
  30 H :    0.025189
  31 H :    0.023264
  32 H :    0.038545
  33 H :    0.065095
Sum of atomic charges:   -0.0000000

LOEWDIN ATOMIC CHARGES
----------------------
   0 S :    0.428680
   1 C :   -0.202434
   2 C :   -0.070673
   3 C :   -0.062141
   4 C :   -0.200623
   5 H :    0.028236
   6 C :   -0.024855
   7 H :    0.029746
   8 H :    0.034009
   9 C :   -0.039873
  10 H :    0.028697
  11 H :    0.019221
  12 C :   -0.062499
  13 H :    0.028124
  14 H :    0.029704
  15 H :    0.014726
  16 S :    0.405758
  17 C :   -0.192206
  18 C :   -0.064716
  19 C :   -0.061337
  20 C :   -0.195324
  21 H :    0.027729
  22 C :   -0.036107
  23 H :    0.016521
  24 H :    0.027057
  25 C :   -0.030756
  26 H :    0.025678
  27 H :    0.028257
  28 C :   -0.053980
  29 H :    0.010870
  30 H :    0.024758
  31 H :    0.029293
  32 H :    0.027228
  33 H :    0.033232

  Mayer bond orders larger than 0.100000
B(  0-S ,  1-C ) :   1.1400 B(  0-S ,  4-C ) :   1.1519 B(  1-C ,  2-C ) :   1.6296
B(  1-C , 32-H ) :   0.9580 B(  2-C ,  3-C ) :   1.2582 B(  2-C ,  6-C ) :   1.0083
B(  3-C ,  4-C ) :   1.5462 B(  3-C ,  5-H ) :   0.9827 B(  4-C , 20-C ) :   1.0927
B(  6-C ,  7-H ) :   0.9404 B(  6-C ,  8-H ) :   0.9370 B(  6-C ,  9-C ) :   1.0861
B(  9-C , 10-H ) :   0.9573 B(  9-C , 11-H ) :   0.9593 B(  9-C , 12-C ) :   1.0636
B( 12-C , 13-H ) :   0.9769 B( 12-C , 14-H ) :   0.9759 B( 12-C , 15-H ) :   0.9737
B( 16-S , 17-C ) :   1.1519 B( 16-S , 20-C ) :   1.1403 B( 17-C , 18-C ) :   1.5793
B( 17-C , 20-C ) :   0.1001 B( 17-C , 33-H ) :   0.9707 B( 18-C , 19-C ) :   1.2524
B( 18-C , 21-H ) :   0.9956 B( 19-C , 20-C ) :   1.5605 B( 19-C , 22-C ) :   1.0749
B( 22-C , 23-H ) :   0.9226 B( 22-C , 24-H ) :   0.9088 B( 22-C , 25-C ) :   1.0504
B( 25-C , 26-H ) :   0.9505 B( 25-C , 27-H ) :   0.9631 B( 25-C , 28-C ) :   1.0953
B( 28-C , 29-H ) :   0.9670 B( 28-C , 30-H ) :   0.9699 B( 28-C , 31-H ) :   0.9682

Dispersion correction           -0.014217716
FINAL SINGLE POINT ENERGY     -1339.872325167273

DIPOLE MOMENT
-------------
                                X             Y             Z
Electronic contribution:      9.42119       3.16590      24.54499
Nuclear contribution   :     -9.72165      -3.20424     -25.15229
                        -----------------------------------------
Total Dipole Moment    :     -0.30046      -0.03834      -0.60730
                        -----------------------------------------
Magnitude (a.u.)       :      0.67865
Magnitude (Debye)      :      1.72499

Rotational constants in cm-1:     0.017621     0.009158     0.007298
Rotational constants in MHz :   528.275026   274.539205   218.788686

                             ****ORCA TERMINATED NORMALLY****
TOTAL RUN TIME: 0 days 0 hours 0 minutes 32 seconds 331 msec
