                         Program Version 4.2.1 -  RELEASE  -
|  1> ! wB97X-D3 SP def2-SVP
|  2> %pal
|  3> nprocs 16
|  4> end
|  5>
|  6> * xyz 0 1
|  7> S 	 -22.7197 	 45.9978 	 63.4953
|  8> C 	 -21.7962 	 47.4514 	 63.0459
|  9> C 	 -22.6399 	 48.5294 	 62.8608
| 10> C 	 -24.003 	 48.1834 	 62.8698
| 11> C 	 -24.205 	 46.8491 	 63.3559
| 12> H 	 -24.8757 	 48.8427 	 62.697
| 13> C 	 -22.0351 	 49.9173 	 62.6108
| 14> H 	 -22.244 	 50.2609 	 61.5731
| 15> H 	 -20.9847 	 49.773 	 62.5789
| 16> C 	 -22.5644 	 50.974 	 63.5869
| 17> H 	 -22.2275 	 51.992 	 63.3308
| 18> H 	 -23.651 	 51.0797 	 63.5353
| 19> C 	 -22.3193 	 50.6035 	 65.1228
| 20> H 	 -22.6955 	 51.3161 	 65.8155
| 21> H 	 -22.6574 	 49.5941 	 65.2916
| 22> H 	 -21.2251 	 50.5082 	 65.2239
| 23> S 	 -26.695 	 46.3345 	 62.3388
| 24> C 	 -27.9237 	 45.6532 	 63.3718
| 25> C 	 -27.3403 	 45.1478 	 64.5143
| 26> C 	 -25.9597 	 45.5138 	 64.6781
| 27> C 	 -25.5027 	 46.2135 	 63.5406
| 28> H 	 -27.8322 	 44.5312 	 65.1881
| 29> C 	 -25.1766 	 45.1798 	 65.9434
| 30> H 	 -25.5801 	 45.693 	 66.8178
| 31> H 	 -24.1598 	 45.6062 	 65.904
| 32> C 	 -24.8185 	 43.7137 	 66.2731
| 33> H 	 -23.9672 	 43.6175 	 66.9003
| 34> H 	 -24.6253 	 43.1551 	 65.3329
| 35> C 	 -26.0167 	 43.0075 	 66.9709
| 36> H 	 -26.784 	 42.9218 	 66.2631
| 37> H 	 -26.3354 	 43.6203 	 67.7976
| 38> H 	 -25.782 	 41.9005 	 67.1966
| 39> H 	 -20.6766 	 47.485 	 62.9827
| 40> H 	 -28.8933 	 45.5154 	 63.037
| 41> *
| 42>
| 43>                          ****END OF INPUT****

CARTESIAN COORDINATES (ANGSTROEM)
---------------------------------
  S    -22.719700   45.997800   63.495300
  C    -21.796200   47.451400   63.045900
  C    -22.639900   48.529400   62.860800
  C    -24.003000   48.183400   62.869800
  C    -24.205000   46.849100   63.355900
  H    -24.875700   48.842700   62.697000
  C    -22.035100   49.917300   62.610800
  H    -22.244000   50.260900   61.573100
  H    -20.984700   49.773000   62.578900
  C    -22.564400   50.974000   63.586900
  H    -22.227500   51.992000   63.330800
  H    -23.651000   51.079700   63.535300
  C    -22.319300   50.603500   65.122800
  H    -22.695500   51.316100   65.815500
  H    -22.657400   49.594100   65.291600
  H    -21.225100   50.508200   65.223900
  S    -26.695000   46.334500   62.338800
  C    -27.923700   45.653200   63.371800
  C    -27.340300   45.147800   64.514300
  C    -25.959700   45.513800   64.678100
  C    -25.502700   46.213500   63.540600
  H    -27.832200   44.531200   65.188100
  C    -25.176600   45.179800   65.943400
  H    -25.580100   45.693000   66.817800
  H    -24.159800   45.606200   65.904000
  C    -24.818500   43.713700   66.273100
  H    -23.967200   43.617500   66.900300
  H    -24.625300   43.155100   65.332900
  C    -26.016700   43.007500   66.970900
  H    -26.784000   42.921800   66.263100
  H    -26.335400   43.620300   67.797600
  H    -25.782000   41.900500   67.196600
  H    -20.676600   47.485000   62.982700
  H    -28.893300   45.515400   63.037000

 Total Charge           Charge          ....    0
 Multiplicity           Mult            ....    1
 Number of Electrons    NEL             ....  134
 Basis Dimension        Dim             ....  322

ORBITAL ENERGIES
----------------

  NO   OCC          E(Eh)            E(eV)
   0   2.0000     -88.971259     -2421.0311
   1   2.0000     -88.967471     -2420.9280
   2   2.0000     -10.332673      -281.1663
   3   2.0000     -10.326018      -280.9852
   4   2.0000     -10.318783      -280.7884
   5   2.0000     -10.312900      -280.6283
   6   2.0000     -10.305097      -280.4160
   7   2.0000     -10.302480      -280.3447
   8   2.0000     -10.299929      -280.2753
   9   2.0000     -10.294667      -280.1321
  10   2.0000     -10.291112      -280.0354
  11   2.0000     -10.290865      -280.0287
  12   2.0000     -10.290801      -280.0269
  13   2.0000     -10.285318      -279.8777
  14   2.0000     -10.275715      -279.6164
  15   2.0000     -10.273371      -279.5526
  16   2.0000      -8.085445      -220.0162
  17   2.0000      -8.083100      -219.9523
  18   2.0000      -6.043858      -164.4617
  19   2.0000      -6.041502      -164.3976
  20   2.0000      -6.039944      -164.3552
  21   2.0000      -6.037386      -164.2856
  22   2.0000      -6.036427      -164.2595
  23   2.0000      -6.034026      -164.1942
  24   2.0000      -1.010013       -27.4838
  25   2.0000      -0.986328       -26.8393
  26   2.0000      -0.908728       -24.7277
  27   2.0000      -0.905964       -24.6525
  28   2.0000      -0.867023       -23.5929
  29   2.0000      -0.849212       -23.1082
  30   2.0000      -0.840184       -22.8626
  31   2.0000      -0.812067       -22.0975
  32   2.0000      -0.784307       -21.3421
  33   2.0000      -0.773022       -21.0350
  34   2.0000      -0.711709       -19.3666
  35   2.0000      -0.696300       -18.9473
  36   2.0000      -0.687533       -18.7087
  37   2.0000      -0.670519       -18.2458
  38   2.0000      -0.633813       -17.2469
  39   2.0000      -0.616730       -16.7821
  40   2.0000      -0.604935       -16.4611
  41   2.0000      -0.566607       -15.4182
  42   2.0000      -0.551837       -15.0162
  43   2.0000      -0.550898       -14.9907
  44   2.0000      -0.539772       -14.6879
  45   2.0000      -0.532316       -14.4851
  46   2.0000      -0.520711       -14.1693
  47   2.0000      -0.511954       -13.9310
  48   2.0000      -0.505098       -13.7444
  49   2.0000      -0.495016       -13.4701
  50   2.0000      -0.484265       -13.1775
  51   2.0000      -0.481971       -13.1151
  52   2.0000      -0.471947       -12.8423
  53   2.0000      -0.468022       -12.7355
  54   2.0000      -0.463757       -12.6195
  55   2.0000      -0.451371       -12.2824
  56   2.0000      -0.440909       -11.9977
  57   2.0000      -0.438281       -11.9262
  58   2.0000      -0.434830       -11.8323
  59   2.0000      -0.425814       -11.5870
  60   2.0000      -0.419232       -11.4079
  61   2.0000      -0.409943       -11.1551
  62   2.0000      -0.404120       -10.9967
  63   2.0000      -0.344831        -9.3833
  64   2.0000      -0.334739        -9.1087
  65   2.0000      -0.331695        -9.0259
  66   2.0000      -0.290051        -7.8927
  67   0.0000       0.026259         0.7145
  68   0.0000       0.074444         2.0257
  69   0.0000       0.109870         2.9897
  70   0.0000       0.115060         3.1309
  71   0.0000       0.128080         3.4852

MULLIKEN ATOMIC CHARGES
-----------------------
   0 S :    0.124030
   1 C :   -0.156580
   2 C :   -0.101097
   3 C :    0.006393
   4 C :   -0.169155
   5 H :    0.032834
   6 C :    0.110101
   7 H :    0.037478
   8 H :    0.003228
   9 C :   -0.093660
  10 H :    0.030214
  11 H :    0.029145
  12 C :   -0.049699
  13 H :    0.039575
  14 H :    0.043875
  15 H :    0.020816
  16 S :    0.124125
  17 C :   -0.076580
  18 C :    0.008623
  19 C :   -0.028902
  20 C :   -0.145838
  21 H :   -0.009083
  22 C :    0.030468
  23 H :    0.033096
  24 H :    0.018763
  25 C :   -0.060062
  26 H :    0.030286
  27 H :    0.033608
  28 C :   -0.054785
  29 H :    0.014455
  30 H :    0.029606
  31 H :    0.041956
  32 H :    0.068823
  33 H :    0.033943
Sum of atomic charges:    0.0000000

LOEWDIN ATOMIC CHARGES
----------------------
   0 S :    0.425087
   1 C :   -0.205607
   2 C :   -0.064871
   3 C :   -0.069868
   4 C :   -0.199225
   5 H :    0.036450
   6 C :   -0.025902
   7 H :    0.037808
   8 H :    0.022176
   9 C :   -0.041928
  10 H :    0.023883
  11 H :    0.022219
  12 C :   -0.062113
  13 H :    0.021246
  14 H :    0.026607
  15 H :    0.023872
  16 S :    0.440313
  17 C :   -0.177992
  18 C :   -0.055797
  19 C :   -0.056843
  20 C :   -0.217841
  21 H :    0.017071
  22 C :   -0.043744
  23 H :    0.031467
  24 H :    0.027588
  25 C :   -0.032778
  26 H :    0.019062
  27 H :    0.029109
  28 C :   -0.068298
  29 H :    0.011403
  30 H :    0.020612
  31 H :    0.035114
  32 H :    0.037788
  33 H :    0.013935

  Mayer bond orders larger than 0.100000
B(  0-S ,  1-C ) :   1.1364 B(  0-S ,  4-C ) :   1.1846 B(  1-C ,  2-C ) :   1.5866
B(  1-C ,  4-C ) :   0.1051 B(  1-C , 32-H ) :   0.9603 B(  2-C ,  3-C ) :   1.2671
B(  2-C ,  6-C ) :   1.0174 B(  3-C ,  4-C ) :   1.5184 B(  3-C ,  5-H ) :   0.9879
B(  4-C , 20-C ) :   1.0364 B(  6-C ,  7-H ) :   0.9372 B(  6-C ,  8-H ) :   0.9427
B(  6-C ,  9-C ) :   1.0609 B(  9-C , 10-H ) :   0.9595 B(  9-C , 11-H ) :   0.9590
B(  9-C , 12-C ) :   1.0597 B( 12-C , 13-H ) :   0.9781 B( 12-C , 14-H ) :   0.9740
B( 12-C , 15-H ) :   0.9784 B( 16-S , 17-C ) :   1.1597 B( 16-S , 20-C ) :   1.1748
B( 17-C , 18-C ) :   1.5696 B( 17-C , 33-H ) :   0.9816 B( 18-C , 19-C ) :   1.2690
B( 18-C , 21-H ) :   0.9977 B( 19-C , 20-C ) :   1.5428 B( 19-C , 22-C ) :   1.0530
B( 22-C , 23-H ) :   0.9372 B( 22-C , 24-H ) :   0.9247 B( 22-C , 25-C ) :   1.0580
B( 25-C , 26-H ) :   0.9620 B( 25-C , 27-H ) :   0.9543 B( 25-C , 28-C ) :   1.0764
B( 28-C , 29-H ) :   0.9747 B( 28-C , 30-H ) :   0.9775 B( 28-C , 31-H ) :   0.9697

Dispersion correction           -0.014832628
FINAL SINGLE POINT ENERGY     -1339.877190643122

DIPOLE MOMENT
-------------
                                X             Y             Z
Electronic contribution:     -5.33886      -5.54883     -15.79994
Nuclear contribution   :      5.39266       5.72887      15.97579
                        -----------------------------------------
Total Dipole Moment    :      0.05380       0.18004       0.17585
                        -----------------------------------------
Magnitude (a.u.)       :      0.25736
Magnitude (Debye)      :      0.65415

Rotational constants in cm-1:     0.021142     0.008111     0.007044
Rotational constants in MHz :   633.812399   243.169944   211.169361

                             ****ORCA TERMINATED NORMALLY****
TOTAL RUN TIME: 0 days 0 hours 0 minutes 35 seconds 523 msec
