                         Program Version 4.2.1 -  RELEASE  -
|  1> ! wB97X-D3 SP def2-SVP
|  2> %pal
|  3> nprocs 16
|  4> end
|  5>
|  6> * xyz 0 1
|  7> S 	 -45.7456 	 26.5988 	 84.5912
|  8> C 	 -45.1305 	 25.0144 	 84.2871
|  9> C 	 -44.9734 	 24.7534 	 82.9277
| 10> C 	 -45.4315 	 25.8597 	 82.1746
| 11> C 	 -45.9089 	 26.9267 	 82.8226
| 12> H 	 -45.4579 	 25.9456 	 81.1298
| 13> C 	 -44.4753 	 23.3999 	 82.3919
| 14> H 	 -44.7627 	 23.3851 	 81.2987
| 15> H 	 -44.9632 	 22.5641 	 82.95
| 16> C 	 -42.994 	 23.1289 	 82.3501
| 17> H 	 -42.8152 	 22.1309 	 82.0267
| 18> H 	 -42.6424 	 23.7315 	 81.5242
| 19> C 	 -42.2067 	 23.3482 	 83.6596
| 20> H 	 -42.1952 	 22.4223 	 84.3245
| 21> H 	 -41.1389 	 23.3356 	 83.5007
| 22> H 	 -42.4942 	 24.2602 	 84.1541
| 23> S 	 -48.0721 	 28.6496 	 82.3599
| 24> C 	 -47.8001 	 30.1437 	 81.5286
| 25> C 	 -46.4603 	 30.3899 	 81.5046
| 26> C 	 -45.6568 	 29.321 	 81.8745
| 27> C 	 -46.3489 	 28.2161 	 82.3097
| 28> H 	 -46.1419 	 31.3097 	 81.0218
| 29> C 	 -44.2575 	 29.347 	 81.5346
| 30> H 	 -43.8146 	 28.4918 	 82.078
| 31> H 	 -43.8193 	 30.2495 	 81.8212
| 32> C 	 -44.106 	 29.1277 	 79.947
| 33> H 	 -44.6389 	 29.8721 	 79.412
| 34> H 	 -44.5902 	 28.205 	 79.6656
| 35> C 	 -42.7335 	 29.2589 	 79.4965
| 36> H 	 -42.6105 	 29.1815 	 78.4067
| 37> H 	 -42.1156 	 28.4985 	 79.9907
| 38> H 	 -42.425 	 30.2393 	 79.7266
| 39> H 	 -44.7269 	 24.3544 	 85.0321
| 40> H 	 -48.5271 	 30.9307 	 81.3535
| 41> *
| 42>
| 43>                          ****END OF INPUT****

CARTESIAN COORDINATES (ANGSTROEM)
---------------------------------
  S    -45.745600   26.598800   84.591200
  C    -45.130500   25.014400   84.287100
  C    -44.973400   24.753400   82.927700
  C    -45.431500   25.859700   82.174600
  C    -45.908900   26.926700   82.822600
  H    -45.457900   25.945600   81.129800
  C    -44.475300   23.399900   82.391900
  H    -44.762700   23.385100   81.298700
  H    -44.963200   22.564100   82.950000
  C    -42.994000   23.128900   82.350100
  H    -42.815200   22.130900   82.026700
  H    -42.642400   23.731500   81.524200
  C    -42.206700   23.348200   83.659600
  H    -42.195200   22.422300   84.324500
  H    -41.138900   23.335600   83.500700
  H    -42.494200   24.260200   84.154100
  S    -48.072100   28.649600   82.359900
  C    -47.800100   30.143700   81.528600
  C    -46.460300   30.389900   81.504600
  C    -45.656800   29.321000   81.874500
  C    -46.348900   28.216100   82.309700
  H    -46.141900   31.309700   81.021800
  C    -44.257500   29.347000   81.534600
  H    -43.814600   28.491800   82.078000
  H    -43.819300   30.249500   81.821200
  C    -44.106000   29.127700   79.947000
  H    -44.638900   29.872100   79.412000
  H    -44.590200   28.205000   79.665600
  C    -42.733500   29.258900   79.496500
  H    -42.610500   29.181500   78.406700
  H    -42.115600   28.498500   79.990700
  H    -42.425000   30.239300   79.726600
  H    -44.726900   24.354400   85.032100
  H    -48.527100   30.930700   81.353500

 Total Charge           Charge          ....    0
 Multiplicity           Mult            ....    1
 Number of Electrons    NEL             ....  134
 Basis Dimension        Dim             ....  322

ORBITAL ENERGIES
----------------

  NO   OCC          E(Eh)            E(eV)
   0   2.0000     -88.963410     -2420.8175
   1   2.0000     -88.960567     -2420.7401
   2   2.0000     -10.327290      -281.0198
   3   2.0000     -10.324038      -280.9314
   4   2.0000     -10.314605      -280.6747
   5   2.0000     -10.314432      -280.6700
   6   2.0000     -10.301893      -280.3288
   7   2.0000     -10.299195      -280.2553
   8   2.0000     -10.292816      -280.0818
   9   2.0000     -10.289029      -279.9787
  10   2.0000     -10.284516      -279.8559
  11   2.0000     -10.283853      -279.8379
  12   2.0000     -10.282457      -279.7999
  13   2.0000     -10.279864      -279.7293
  14   2.0000     -10.279294      -279.7138
  15   2.0000     -10.269684      -279.4523
  16   2.0000      -8.077893      -219.8106
  17   2.0000      -8.075490      -219.7452
  18   2.0000      -6.036352      -164.2575
  19   2.0000      -6.033966      -164.1926
  20   2.0000      -6.032406      -164.1501
  21   2.0000      -6.029930      -164.0827
  22   2.0000      -6.028733      -164.0502
  23   2.0000      -6.026300      -163.9840
  24   2.0000      -1.010348       -27.4930
  25   2.0000      -0.989998       -26.9392
  26   2.0000      -0.918011       -24.9803
  27   2.0000      -0.911561       -24.8048
  28   2.0000      -0.873579       -23.7713
  29   2.0000      -0.862475       -23.4691
  30   2.0000      -0.847494       -23.0615
  31   2.0000      -0.818471       -22.2717
  32   2.0000      -0.785092       -21.3634
  33   2.0000      -0.771865       -21.0035
  34   2.0000      -0.708892       -19.2899
  35   2.0000      -0.701306       -19.0835
  36   2.0000      -0.694015       -18.8851
  37   2.0000      -0.663116       -18.0443
  38   2.0000      -0.648611       -17.6496
  39   2.0000      -0.619964       -16.8701
  40   2.0000      -0.595580       -16.2066
  41   2.0000      -0.574410       -15.6305
  42   2.0000      -0.571572       -15.5533
  43   2.0000      -0.553352       -15.0575
  44   2.0000      -0.546934       -14.8828
  45   2.0000      -0.530651       -14.4398
  46   2.0000      -0.525649       -14.3036
  47   2.0000      -0.518103       -14.0983
  48   2.0000      -0.507715       -13.8156
  49   2.0000      -0.501885       -13.6570
  50   2.0000      -0.486492       -13.2381
  51   2.0000      -0.480426       -13.0730
  52   2.0000      -0.473505       -12.8847
  53   2.0000      -0.465918       -12.6783
  54   2.0000      -0.458979       -12.4894
  55   2.0000      -0.451924       -12.2975
  56   2.0000      -0.443661       -12.0726
  57   2.0000      -0.436492       -11.8776
  58   2.0000      -0.426711       -11.6114
  59   2.0000      -0.422601       -11.4996
  60   2.0000      -0.419863       -11.4251
  61   2.0000      -0.415558       -11.3079
  62   2.0000      -0.411684       -11.2025
  63   2.0000      -0.341804        -9.3010
  64   2.0000      -0.327824        -8.9206
  65   2.0000      -0.324166        -8.8210
  66   2.0000      -0.307083        -8.3561
  67   0.0000       0.041565         1.1311
  68   0.0000       0.050221         1.3666
  69   0.0000       0.119790         3.2596
  70   0.0000       0.123706         3.3662
  71   0.0000       0.128798         3.5048

MULLIKEN ATOMIC CHARGES
-----------------------
   0 S :    0.110214
   1 C :   -0.111426
   2 C :   -0.086882
   3 C :    0.054087
   4 C :   -0.161462
   5 H :   -0.015542
   6 C :    0.039246
   7 H :    0.030880
   8 H :    0.043847
   9 C :   -0.029160
  10 H :    0.018524
  11 H :    0.017674
  12 C :   -0.075614
  13 H :    0.031541
  14 H :    0.025222
  15 H :    0.048300
  16 S :    0.100426
  17 C :   -0.084354
  18 C :   -0.058281
  19 C :    0.010498
  20 C :   -0.203243
  21 H :    0.017858
  22 C :    0.087898
  23 H :    0.034821
  24 H :    0.005802
  25 C :   -0.069716
  26 H :    0.009934
  27 H :    0.017499
  28 C :    0.007153
  29 H :    0.031418
  30 H :    0.028546
  31 H :    0.010992
  32 H :    0.051617
  33 H :    0.061682
Sum of atomic charges:    0.0000000

LOEWDIN ATOMIC CHARGES
----------------------
   0 S :    0.391134
   1 C :   -0.188860
   2 C :   -0.072609
   3 C :   -0.052688
   4 C :   -0.182618
   5 H :    0.024671
   6 C :   -0.034221
   7 H :    0.039110
   8 H :    0.035385
   9 C :   -0.041767
  10 H :    0.022659
  11 H :    0.021628
  12 C :   -0.077877
  13 H :    0.033765
  14 H :    0.026976
  15 H :    0.022856
  16 S :    0.400973
  17 C :   -0.182964
  18 C :   -0.077570
  19 C :   -0.056468
  20 C :   -0.200902
  21 H :    0.030961
  22 C :   -0.019836
  23 H :    0.035396
  24 H :    0.021446
  25 C :   -0.029747
  26 H :    0.018148
  27 H :    0.019687
  28 C :   -0.060747
  29 H :    0.029044
  30 H :    0.025797
  31 H :    0.018816
  32 H :    0.026460
  33 H :    0.033961

  Mayer bond orders larger than 0.100000
B(  0-S ,  1-C ) :   1.1655 B(  0-S ,  4-C ) :   1.1128 B(  1-C ,  2-C ) :   1.5968
B(  1-C , 32-H ) :   0.9631 B(  2-C ,  3-C ) :   1.2339 B(  2-C ,  6-C ) :   1.0095
B(  3-C ,  4-C ) :   1.6274 B(  3-C ,  5-H ) :   1.0032 B(  4-C , 20-C ) :   1.0356
B(  6-C ,  7-H ) :   0.9423 B(  6-C ,  8-H ) :   0.9456 B(  6-C ,  9-C ) :   1.0820
B(  9-C , 10-H ) :   0.9509 B(  9-C , 11-H ) :   0.9558 B(  9-C , 12-C ) :   1.0803
B( 12-C , 13-H ) :   0.9725 B( 12-C , 14-H ) :   0.9694 B( 12-C , 15-H ) :   0.9717
B( 16-S , 17-C ) :   1.1693 B( 16-S , 20-C ) :   1.1309 B( 17-C , 18-C ) :   1.6086
B( 17-C , 20-C ) :   0.1047 B( 17-C , 33-H ) :   0.9619 B( 18-C , 19-C ) :   1.2428
B( 18-C , 21-H ) :   0.9871 B( 19-C , 20-C ) :   1.5795 B( 19-C , 22-C ) :   1.0835
B( 22-C , 23-H ) :   0.9231 B( 22-C , 24-H ) :   0.9216 B( 22-C , 25-C ) :   1.0544
B( 25-C , 26-H ) :   0.9537 B( 25-C , 27-H ) :   0.9512 B( 25-C , 28-C ) :   1.1003
B( 28-C , 29-H ) :   0.9679 B( 28-C , 30-H ) :   0.9703 B( 28-C , 31-H ) :   0.9682

Dispersion correction           -0.014545155
FINAL SINGLE POINT ENERGY     -1339.865611313736

DIPOLE MOMENT
-------------
                                X             Y             Z
Electronic contribution:    -24.04292       8.90986      12.32374
Nuclear contribution   :     24.62528      -8.91522     -12.82708
                        -----------------------------------------
Total Dipole Moment    :      0.58236      -0.00536      -0.50334
                        -----------------------------------------
Magnitude (a.u.)       :      0.76976
Magnitude (Debye)      :      1.95657

Rotational constants in cm-1:     0.019497     0.008636     0.006692
Rotational constants in MHz :   584.514113   258.897180   200.617897

                             ****ORCA TERMINATED NORMALLY****
TOTAL RUN TIME: 0 days 0 hours 0 minutes 30 seconds 251 msec
