                         Program Version 4.2.1 -  RELEASE  -
|  1> ! wB97X-D3 SP def2-SVP
|  2> %pal
|  3> nprocs 16
|  4> end
|  5>
|  6> * xyz 0 1
|  7> S 	 46.8163 	 12.1075 	 81.7092
|  8> C 	 45.262 	 11.9348 	 82.5251
|  9> C 	 44.2317 	 11.8637 	 81.5676
| 10> C 	 44.7637 	 11.6519 	 80.2879
| 11> C 	 46.0926 	 11.8974 	 80.195
| 12> H 	 44.1185 	 11.4337 	 79.4142
| 13> C 	 42.7211 	 11.8669 	 81.7879
| 14> H 	 42.2845 	 12.8992 	 81.9506
| 15> H 	 42.6176 	 11.4365 	 82.7938
| 16> C 	 41.8608 	 10.9929 	 80.8616
| 17> H 	 41.8213 	 11.4869 	 79.9094
| 18> H 	 42.1917 	 9.99952 	 80.6418
| 19> C 	 40.3605 	 10.8524 	 81.2468
| 20> H 	 39.9256 	 10.1777 	 80.4986
| 21> H 	 40.1796 	 10.4216 	 82.2632
| 22> H 	 39.9983 	 11.7793 	 81.1165
| 23> S 	 47.7621 	 10.3454 	 78.6202
| 24> C 	 48.2302 	 10.8283 	 77.0653
| 25> C 	 47.7317 	 12.0503 	 76.7632
| 26> C 	 46.9141 	 12.6012 	 77.7635
| 27> C 	 46.8583 	 11.8137 	 78.9326
| 28> H 	 47.8063 	 12.4503 	 75.7814
| 29> C 	 46.2362 	 13.8708 	 77.4988
| 30> H 	 46.9405 	 14.6261 	 77.415
| 31> H 	 45.6886 	 14.0671 	 78.4443
| 32> C 	 45.2377 	 13.8787 	 76.2714
| 33> H 	 44.4602 	 13.1585 	 76.3858
| 34> H 	 45.7306 	 13.6219 	 75.3053
| 35> C 	 44.6779 	 15.2998 	 76.0431
| 36> H 	 44.2963 	 15.8057 	 76.906
| 37> H 	 43.7765 	 15.1359 	 75.3774
| 38> H 	 45.4357 	 15.9126 	 75.4437
| 39> H 	 45.1696 	 12.0319 	 83.5831
| 40> H 	 48.7542 	 10.2221 	 76.3476
| 41> *
| 42>
| 43>                          ****END OF INPUT****

CARTESIAN COORDINATES (ANGSTROEM)
---------------------------------
  S     46.816300   12.107500   81.709200
  C     45.262000   11.934800   82.525100
  C     44.231700   11.863700   81.567600
  C     44.763700   11.651900   80.287900
  C     46.092600   11.897400   80.195000
  H     44.118500   11.433700   79.414200
  C     42.721100   11.866900   81.787900
  H     42.284500   12.899200   81.950600
  H     42.617600   11.436500   82.793800
  C     41.860800   10.992900   80.861600
  H     41.821300   11.486900   79.909400
  H     42.191700    9.999520   80.641800
  C     40.360500   10.852400   81.246800
  H     39.925600   10.177700   80.498600
  H     40.179600   10.421600   82.263200
  H     39.998300   11.779300   81.116500
  S     47.762100   10.345400   78.620200
  C     48.230200   10.828300   77.065300
  C     47.731700   12.050300   76.763200
  C     46.914100   12.601200   77.763500
  C     46.858300   11.813700   78.932600
  H     47.806300   12.450300   75.781400
  C     46.236200   13.870800   77.498800
  H     46.940500   14.626100   77.415000
  H     45.688600   14.067100   78.444300
  C     45.237700   13.878700   76.271400
  H     44.460200   13.158500   76.385800
  H     45.730600   13.621900   75.305300
  C     44.677900   15.299800   76.043100
  H     44.296300   15.805700   76.906000
  H     43.776500   15.135900   75.377400
  H     45.435700   15.912600   75.443700
  H     45.169600   12.031900   83.583100
  H     48.754200   10.222100   76.347600

 Total Charge           Charge          ....    0
 Multiplicity           Mult            ....    1
 Number of Electrons    NEL             ....  134
 Basis Dimension        Dim             ....  322

ORBITAL ENERGIES
----------------

  NO   OCC          E(Eh)            E(eV)
   0   2.0000     -88.966776     -2420.9091
   1   2.0000     -88.959217     -2420.7034
   2   2.0000     -10.323483      -280.9162
   3   2.0000     -10.321592      -280.8648
   4   2.0000     -10.315470      -280.6982
   5   2.0000     -10.307541      -280.4825
   6   2.0000     -10.302833      -280.3543
   7   2.0000     -10.299857      -280.2734
   8   2.0000     -10.294784      -280.1353
   9   2.0000     -10.291344      -280.0417
  10   2.0000     -10.286598      -279.9126
  11   2.0000     -10.285933      -279.8945
  12   2.0000     -10.285516      -279.8831
  13   2.0000     -10.281876      -279.7841
  14   2.0000     -10.278654      -279.6964
  15   2.0000     -10.276154      -279.6284
  16   2.0000      -8.082274      -219.9299
  17   2.0000      -8.075095      -219.7345
  18   2.0000      -6.040627      -164.3738
  19   2.0000      -6.036643      -164.2654
  20   2.0000      -6.033418      -164.1777
  21   2.0000      -6.033183      -164.1713
  22   2.0000      -6.029262      -164.0646
  23   2.0000      -6.026166      -163.9803
  24   2.0000      -1.011985       -27.5375
  25   2.0000      -0.991820       -26.9888
  26   2.0000      -0.911733       -24.8095
  27   2.0000      -0.907639       -24.6981
  28   2.0000      -0.869008       -23.6469
  29   2.0000      -0.852668       -23.2023
  30   2.0000      -0.850257       -23.1367
  31   2.0000      -0.814625       -22.1671
  32   2.0000      -0.783568       -21.3220
  33   2.0000      -0.768267       -20.9056
  34   2.0000      -0.708794       -19.2873
  35   2.0000      -0.701279       -19.0828
  36   2.0000      -0.691529       -18.8175
  37   2.0000      -0.656025       -17.8514
  38   2.0000      -0.642182       -17.4747
  39   2.0000      -0.623334       -16.9618
  40   2.0000      -0.597773       -16.2662
  41   2.0000      -0.575862       -15.6700
  42   2.0000      -0.567143       -15.4327
  43   2.0000      -0.561794       -15.2872
  44   2.0000      -0.530747       -14.4424
  45   2.0000      -0.525181       -14.2909
  46   2.0000      -0.513310       -13.9679
  47   2.0000      -0.512302       -13.9405
  48   2.0000      -0.502040       -13.6612
  49   2.0000      -0.501601       -13.6493
  50   2.0000      -0.490940       -13.3591
  51   2.0000      -0.476457       -12.9651
  52   2.0000      -0.472586       -12.8597
  53   2.0000      -0.466059       -12.6821
  54   2.0000      -0.462295       -12.5797
  55   2.0000      -0.452393       -12.3102
  56   2.0000      -0.443138       -12.0584
  57   2.0000      -0.441667       -12.0184
  58   2.0000      -0.434942       -11.8354
  59   2.0000      -0.421637       -11.4733
  60   2.0000      -0.419878       -11.4255
  61   2.0000      -0.415974       -11.3192
  62   2.0000      -0.413707       -11.2575
  63   2.0000      -0.337213        -9.1760
  64   2.0000      -0.326426        -8.8825
  65   2.0000      -0.321441        -8.7468
  66   2.0000      -0.305030        -8.3003
  67   0.0000       0.045541         1.2392
  68   0.0000       0.062213         1.6929
  69   0.0000       0.123672         3.3653
  70   0.0000       0.130345         3.5469
  71   0.0000       0.134826         3.6688

MULLIKEN ATOMIC CHARGES
-----------------------
   0 S :    0.127233
   1 C :   -0.129171
   2 C :   -0.073697
   3 C :    0.014178
   4 C :   -0.160292
   5 H :    0.025163
   6 C :    0.063135
   7 H :    0.051143
   8 H :    0.014713
   9 C :   -0.109797
  10 H :    0.023711
  11 H :    0.031069
  12 C :   -0.015188
  13 H :    0.033963
  14 H :    0.043413
  15 H :    0.008930
  16 S :    0.111749
  17 C :   -0.075383
  18 C :   -0.026636
  19 C :   -0.033502
  20 C :   -0.171266
  21 H :    0.001394
  22 C :    0.103329
  23 H :    0.013474
  24 H :    0.023402
  25 C :   -0.091638
  26 H :    0.025993
  27 H :    0.032042
  28 C :   -0.074382
  29 H :    0.036802
  30 H :    0.035163
  31 H :    0.049504
  32 H :    0.041261
  33 H :    0.050187
Sum of atomic charges:   -0.0000000

LOEWDIN ATOMIC CHARGES
----------------------
   0 S :    0.435409
   1 C :   -0.193422
   2 C :   -0.059152
   3 C :   -0.067317
   4 C :   -0.223481
   5 H :    0.037843
   6 C :   -0.040526
   7 H :    0.042151
   8 H :    0.031205
   9 C :   -0.041784
  10 H :    0.019871
  11 H :    0.021897
  12 C :   -0.049562
  13 H :    0.031798
  14 H :    0.029293
  15 H :    0.006219
  16 S :    0.429933
  17 C :   -0.195217
  18 C :   -0.077322
  19 C :   -0.056069
  20 C :   -0.209056
  21 H :    0.024998
  22 C :   -0.030549
  23 H :    0.023218
  24 H :    0.035452
  25 C :   -0.034210
  26 H :    0.018209
  27 H :    0.026497
  28 C :   -0.072100
  29 H :    0.019298
  30 H :    0.032450
  31 H :    0.034153
  32 H :    0.020326
  33 H :    0.029549

  Mayer bond orders larger than 0.100000
B(  0-S ,  1-C ) :   1.1531 B(  0-S ,  4-C ) :   1.1807 B(  1-C ,  2-C ) :   1.5743
B(  1-C ,  4-C ) :   0.1005 B(  1-C , 32-H ) :   0.9773 B(  2-C ,  3-C ) :   1.2777
B(  2-C ,  6-C ) :   1.0100 B(  3-C ,  4-C ) :   1.5598 B(  3-C ,  5-H ) :   0.9887
B(  4-C , 20-C ) :   0.9836 B(  6-C ,  7-H ) :   0.9327 B(  6-C ,  8-H ) :   0.9392
B(  6-C ,  9-C ) :   1.0686 B(  9-C , 10-H ) :   0.9451 B(  9-C , 11-H ) :   0.9640
B(  9-C , 12-C ) :   1.0828 B( 12-C , 13-H ) :   0.9737 B( 12-C , 14-H ) :   0.9770
B( 12-C , 15-H ) :   0.9781 B( 16-S , 17-C ) :   1.1837 B( 16-S , 20-C ) :   1.1585
B( 17-C , 18-C ) :   1.5778 B( 17-C , 33-H ) :   0.9664 B( 18-C , 19-C ) :   1.2725
B( 18-C , 21-H ) :   0.9952 B( 19-C , 20-C ) :   1.5684 B( 19-C , 22-C ) :   1.0629
B( 22-C , 23-H ) :   0.9301 B( 22-C , 24-H ) :   0.9263 B( 22-C , 25-C ) :   1.0519
B( 25-C , 26-H ) :   0.9607 B( 25-C , 27-H ) :   0.9566 B( 25-C , 28-C ) :   1.0789
B( 28-C , 29-H ) :   0.9761 B( 28-C , 30-H ) :   0.9752 B( 28-C , 31-H ) :   0.9768

Dispersion correction           -0.013528060
FINAL SINGLE POINT ENERGY     -1339.867111497467

DIPOLE MOMENT
-------------
                                X             Y             Z
Electronic contribution:     26.64472      -9.72774       9.12849
Nuclear contribution   :    -27.31636       9.91592      -9.46283
                        -----------------------------------------
Total Dipole Moment    :     -0.67164       0.18818      -0.33434
                        -----------------------------------------
Magnitude (a.u.)       :      0.77349
Magnitude (Debye)      :      1.96606

Rotational constants in cm-1:     0.015660     0.008670     0.006788
Rotational constants in MHz :   469.470242   259.911085   203.502838

                             ****ORCA TERMINATED NORMALLY****
TOTAL RUN TIME: 0 days 0 hours 0 minutes 28 seconds 980 msec
