                         Program Version 4.2.1 -  RELEASE  -
|  1> ! wB97X-D3 SP def2-SVP
|  2> %pal
|  3> nprocs 16
|  4> end
|  5>
|  6> * xyz 0 1
|  7> S 	 -2.54426 	 32.3899 	 54.4917
|  8> C 	 -0.904617 	 31.9776 	 54.5437
|  9> C 	 -0.429658 	 31.4975 	 53.2976
| 10> C 	 -1.48143 	 31.5394 	 52.3616
| 11> C 	 -2.70123 	 32.0293 	 52.8265
| 12> H 	 -1.39927 	 31.2118 	 51.3485
| 13> C 	 0.946816 	 30.7698 	 53.1077
| 14> H 	 1.76782 	 31.3619 	 53.4321
| 15> H 	 0.991272 	 30.6395 	 52.0552
| 16> C 	 1.00398 	 29.379 	 53.7143
| 17> H 	 2.02603 	 29.001 	 53.985
| 18> H 	 0.480567 	 29.6654 	 54.6577
| 19> C 	 0.0328453 	 28.3795 	 52.9985
| 20> H 	 -0.936155 	 28.8113 	 52.9091
| 21> H 	 0.360024 	 28.1725 	 51.9643
| 22> H 	 0.136817 	 27.4195 	 53.5432
| 23> S 	 -4.90114 	 30.3562 	 52.7531
| 24> C 	 -5.8788 	 30.3229 	 51.2969
| 25> C 	 -5.43344 	 31.2606 	 50.3813
| 26> C 	 -4.34387 	 32.0636 	 50.8915
| 27> C 	 -3.89979 	 31.6874 	 52.1319
| 28> H 	 -5.95158 	 31.2816 	 49.4985
| 29> C 	 -3.96777 	 33.2759 	 50.1366
| 30> H 	 -3.56952 	 32.9126 	 49.2089
| 31> H 	 -3.15498 	 33.8169 	 50.6692
| 32> C 	 -5.04695 	 34.2229 	 49.782
| 33> H 	 -5.8323 	 33.6596 	 49.2931
| 34> H 	 -4.78316 	 34.9568 	 49.027
| 35> C 	 -5.59964 	 35.0538 	 50.9845
| 36> H 	 -4.90083 	 35.5315 	 51.6514
| 37> H 	 -6.24829 	 34.3339 	 51.5249
| 38> H 	 -6.29726 	 35.8197 	 50.6548
| 39> H 	 -0.323426 	 31.9354 	 55.4873
| 40> H 	 -6.6965 	 29.6496 	 50.9992
| 41> *
| 42>
| 43>                          ****END OF INPUT****

CARTESIAN COORDINATES (ANGSTROEM)
---------------------------------
  S     -2.544260   32.389900   54.491700
  C     -0.904617   31.977600   54.543700
  C     -0.429658   31.497500   53.297600
  C     -1.481430   31.539400   52.361600
  C     -2.701230   32.029300   52.826500
  H     -1.399270   31.211800   51.348500
  C      0.946816   30.769800   53.107700
  H      1.767820   31.361900   53.432100
  H      0.991272   30.639500   52.055200
  C      1.003980   29.379000   53.714300
  H      2.026030   29.001000   53.985000
  H      0.480567   29.665400   54.657700
  C      0.032845   28.379500   52.998500
  H     -0.936155   28.811300   52.909100
  H      0.360024   28.172500   51.964300
  H      0.136817   27.419500   53.543200
  S     -4.901140   30.356200   52.753100
  C     -5.878800   30.322900   51.296900
  C     -5.433440   31.260600   50.381300
  C     -4.343870   32.063600   50.891500
  C     -3.899790   31.687400   52.131900
  H     -5.951580   31.281600   49.498500
  C     -3.967770   33.275900   50.136600
  H     -3.569520   32.912600   49.208900
  H     -3.154980   33.816900   50.669200
  C     -5.046950   34.222900   49.782000
  H     -5.832300   33.659600   49.293100
  H     -4.783160   34.956800   49.027000
  C     -5.599640   35.053800   50.984500
  H     -4.900830   35.531500   51.651400
  H     -6.248290   34.333900   51.524900
  H     -6.297260   35.819700   50.654800
  H     -0.323426   31.935400   55.487300
  H     -6.696500   29.649600   50.999200

 Total Charge           Charge          ....    0
 Multiplicity           Mult            ....    1
 Number of Electrons    NEL             ....  134
 Basis Dimension        Dim             ....  322

ORBITAL ENERGIES
----------------

  NO   OCC          E(Eh)            E(eV)
   0   2.0000     -88.973163     -2421.0828
   1   2.0000     -88.962702     -2420.7982
   2   2.0000     -10.324579      -280.9461
   3   2.0000     -10.322854      -280.8991
   4   2.0000     -10.318978      -280.7937
   5   2.0000     -10.318562      -280.7823
   6   2.0000     -10.305979      -280.4400
   7   2.0000     -10.298693      -280.2417
   8   2.0000     -10.294424      -280.1255
   9   2.0000     -10.290354      -280.0148
  10   2.0000     -10.289442      -279.9899
  11   2.0000     -10.286810      -279.9183
  12   2.0000     -10.281502      -279.7739
  13   2.0000     -10.280761      -279.7537
  14   2.0000     -10.278117      -279.6818
  15   2.0000     -10.271896      -279.5125
  16   2.0000      -8.089094      -220.1154
  17   2.0000      -8.077025      -219.7870
  18   2.0000      -6.047218      -164.5532
  19   2.0000      -6.043248      -164.4451
  20   2.0000      -6.040366      -164.3667
  21   2.0000      -6.035696      -164.2396
  22   2.0000      -6.031572      -164.1274
  23   2.0000      -6.027640      -164.0204
  24   2.0000      -1.015444       -27.6316
  25   2.0000      -0.986582       -26.8463
  26   2.0000      -0.914622       -24.8881
  27   2.0000      -0.912307       -24.8251
  28   2.0000      -0.875181       -23.8149
  29   2.0000      -0.849454       -23.1148
  30   2.0000      -0.841487       -22.8980
  31   2.0000      -0.812703       -22.1148
  32   2.0000      -0.784889       -21.3579
  33   2.0000      -0.774308       -21.0700
  34   2.0000      -0.707455       -19.2508
  35   2.0000      -0.698378       -19.0038
  36   2.0000      -0.691700       -18.8221
  37   2.0000      -0.660812       -17.9816
  38   2.0000      -0.646913       -17.6034
  39   2.0000      -0.616916       -16.7871
  40   2.0000      -0.593732       -16.1563
  41   2.0000      -0.577068       -15.7028
  42   2.0000      -0.558034       -15.1849
  43   2.0000      -0.556060       -15.1312
  44   2.0000      -0.547037       -14.8856
  45   2.0000      -0.535446       -14.5702
  46   2.0000      -0.517381       -14.0786
  47   2.0000      -0.507677       -13.8146
  48   2.0000      -0.504520       -13.7287
  49   2.0000      -0.498694       -13.5702
  50   2.0000      -0.491443       -13.3728
  51   2.0000      -0.476768       -12.9735
  52   2.0000      -0.473201       -12.8764
  53   2.0000      -0.463156       -12.6031
  54   2.0000      -0.459407       -12.5011
  55   2.0000      -0.448866       -12.2143
  56   2.0000      -0.440938       -11.9985
  57   2.0000      -0.437322       -11.9001
  58   2.0000      -0.431948       -11.7539
  59   2.0000      -0.426993       -11.6191
  60   2.0000      -0.424332       -11.5467
  61   2.0000      -0.403335       -10.9753
  62   2.0000      -0.400542       -10.8993
  63   2.0000      -0.346983        -9.4419
  64   2.0000      -0.332340        -9.0434
  65   2.0000      -0.325437        -8.8556
  66   2.0000      -0.295950        -8.0532
  67   0.0000       0.030287         0.8241
  68   0.0000       0.063784         1.7356
  69   0.0000       0.118198         3.2163
  70   0.0000       0.126000         3.4286
  71   0.0000       0.129248         3.5170

MULLIKEN ATOMIC CHARGES
-----------------------
   0 S :    0.141643
   1 C :   -0.140340
   2 C :   -0.125247
   3 C :    0.032113
   4 C :   -0.177518
   5 H :    0.009780
   6 C :    0.116512
   7 H :    0.029184
   8 H :    0.000377
   9 C :   -0.095152
  10 H :    0.045313
  11 H :    0.019604
  12 C :   -0.057743
  13 H :    0.047829
  14 H :    0.025033
  15 H :    0.046484
  16 S :    0.098666
  17 C :   -0.097763
  18 C :   -0.029824
  19 C :   -0.042172
  20 C :   -0.129283
  21 H :   -0.010670
  22 C :    0.105220
  23 H :    0.015548
  24 H :    0.027781
  25 C :   -0.072139
  26 H :    0.015406
  27 H :    0.023961
  28 C :   -0.059376
  29 H :    0.037961
  30 H :    0.037309
  31 H :    0.026345
  32 H :    0.071931
  33 H :    0.063224
Sum of atomic charges:   -0.0000000

LOEWDIN ATOMIC CHARGES
----------------------
   0 S :    0.466117
   1 C :   -0.218310
   2 C :   -0.068364
   3 C :   -0.045570
   4 C :   -0.233864
   5 H :    0.027871
   6 C :   -0.023401
   7 H :    0.028108
   8 H :    0.018926
   9 C :   -0.049185
  10 H :    0.029186
  11 H :    0.026333
  12 C :   -0.063293
  13 H :    0.025437
  14 H :    0.022447
  15 H :    0.033174
  16 S :    0.383454
  17 C :   -0.183582
  18 C :   -0.065831
  19 C :   -0.056225
  20 C :   -0.188867
  21 H :    0.016337
  22 C :   -0.035020
  23 H :    0.031727
  24 H :    0.032614
  25 C :   -0.039794
  26 H :    0.020946
  27 H :    0.023606
  28 C :   -0.067527
  29 H :    0.023650
  30 H :    0.030702
  31 H :    0.024101
  32 H :    0.035629
  33 H :    0.038470

  Mayer bond orders larger than 0.100000
B(  0-S ,  1-C ) :   1.2073 B(  0-S ,  4-C ) :   1.1717 B(  1-C ,  2-C ) :   1.5143
B(  1-C , 32-H ) :   0.9603 B(  2-C ,  3-C ) :   1.3329 B(  2-C ,  6-C ) :   1.0211
B(  3-C ,  4-C ) :   1.4974 B(  3-C ,  5-H ) :   0.9952 B(  4-C , 20-C ) :   1.0506
B(  6-C ,  7-H ) :   0.9395 B(  6-C ,  8-H ) :   0.9385 B(  6-C ,  9-C ) :   1.0540
B(  9-C , 10-H ) :   0.9595 B(  9-C , 11-H ) :   0.9566 B(  9-C , 12-C ) :   1.0665
B( 12-C , 13-H ) :   0.9739 B( 12-C , 14-H ) :   0.9764 B( 12-C , 15-H ) :   0.9744
B( 16-S , 17-C ) :   1.1435 B( 16-S , 20-C ) :   1.1046 B( 17-C , 18-C ) :   1.6510
B( 17-C , 33-H ) :   0.9607 B( 18-C , 19-C ) :   1.1849 B( 18-C , 21-H ) :   1.0038
B( 19-C , 20-C ) :   1.6349 B( 19-C , 22-C ) :   1.0559 B( 22-C , 23-H ) :   0.9111
B( 22-C , 24-H ) :   0.9361 B( 22-C , 25-C ) :   1.0942 B( 25-C , 26-H ) :   0.9481
B( 25-C , 27-H ) :   0.9528 B( 25-C , 28-C ) :   1.0683 B( 28-C , 29-H ) :   0.9780
B( 28-C , 30-H ) :   0.9776 B( 28-C , 31-H ) :   0.9750

Dispersion correction           -0.015039009
FINAL SINGLE POINT ENERGY     -1339.861727123627

DIPOLE MOMENT
-------------
                                X             Y             Z
Electronic contribution:     -7.84370      -1.46259      10.62753
Nuclear contribution   :      8.10446       1.33776     -11.01268
                        -----------------------------------------
Total Dipole Moment    :      0.26075      -0.12483      -0.38515
                        -----------------------------------------
Magnitude (a.u.)       :      0.48158
Magnitude (Debye)      :      1.22407

Rotational constants in cm-1:     0.022426     0.008191     0.007510
Rotational constants in MHz :   672.328410   245.562986   225.153855

                             ****ORCA TERMINATED NORMALLY****
TOTAL RUN TIME: 0 days 0 hours 0 minutes 34 seconds 215 msec
