                         Program Version 4.2.1 -  RELEASE  -
|  1> ! wB97X-D3 SP def2-SVP
|  2> %pal
|  3> nprocs 16
|  4> end
|  5>
|  6> * xyz 0 1
|  7> S 	 28.0824 	 -9.05025 	 80.6253
|  8> C 	 29.4339 	 -8.93218 	 79.4637
|  9> C 	 30.1945 	 -7.7946 	 79.5705
| 10> C 	 29.652 	 -6.82221 	 80.5081
| 11> C 	 28.4934 	 -7.39002 	 81.13
| 12> H 	 30.0299 	 -5.85499 	 80.8762
| 13> C 	 31.5364 	 -7.55121 	 78.9138
| 14> H 	 31.7782 	 -8.33081 	 78.1773
| 15> H 	 32.3005 	 -7.71735 	 79.7239
| 16> C 	 31.8259 	 -6.1963 	 78.2428
| 17> H 	 31.3632 	 -6.23723 	 77.226
| 18> H 	 31.4296 	 -5.45109 	 78.9065
| 19> C 	 33.3632 	 -5.96394 	 78.0837
| 20> H 	 33.7003 	 -5.01032 	 77.8725
| 21> H 	 33.8003 	 -6.36131 	 78.9945
| 22> H 	 33.6052 	 -6.60455 	 77.1928
| 23> S 	 28.1475 	 -7.75854 	 83.8519
| 24> C 	 27.4941 	 -6.49435 	 84.8326
| 25> C 	 26.9376 	 -5.56297 	 83.9854
| 26> C 	 27.2467 	 -5.65809 	 82.5987
| 27> C 	 27.8574 	 -6.89275 	 82.355
| 28> H 	 26.3027 	 -4.79555 	 84.491
| 29> C 	 27.0247 	 -4.63482 	 81.4603
| 30> H 	 25.949 	 -4.49143 	 81.329
| 31> H 	 27.2475 	 -5.18315 	 80.5449
| 32> C 	 27.8386 	 -3.30786 	 81.6244
| 33> H 	 27.8556 	 -2.91469 	 80.6163
| 34> H 	 28.8403 	 -3.54244 	 81.8571
| 35> C 	 27.2659 	 -2.37998 	 82.7301
| 36> H 	 27.1094 	 -2.84205 	 83.6924
| 37> H 	 26.3039 	 -1.91992 	 82.4566
| 38> H 	 27.8173 	 -1.4732 	 82.845
| 39> H 	 29.8737 	 -9.79036 	 78.8449
| 40> H 	 27.2973 	 -6.47333 	 85.8831
| 41> *
| 42>
| 43>                          ****END OF INPUT****

CARTESIAN COORDINATES (ANGSTROEM)
---------------------------------
  S     28.082400   -9.050250   80.625300
  C     29.433900   -8.932180   79.463700
  C     30.194500   -7.794600   79.570500
  C     29.652000   -6.822210   80.508100
  C     28.493400   -7.390020   81.130000
  H     30.029900   -5.854990   80.876200
  C     31.536400   -7.551210   78.913800
  H     31.778200   -8.330810   78.177300
  H     32.300500   -7.717350   79.723900
  C     31.825900   -6.196300   78.242800
  H     31.363200   -6.237230   77.226000
  H     31.429600   -5.451090   78.906500
  C     33.363200   -5.963940   78.083700
  H     33.700300   -5.010320   77.872500
  H     33.800300   -6.361310   78.994500
  H     33.605200   -6.604550   77.192800
  S     28.147500   -7.758540   83.851900
  C     27.494100   -6.494350   84.832600
  C     26.937600   -5.562970   83.985400
  C     27.246700   -5.658090   82.598700
  C     27.857400   -6.892750   82.355000
  H     26.302700   -4.795550   84.491000
  C     27.024700   -4.634820   81.460300
  H     25.949000   -4.491430   81.329000
  H     27.247500   -5.183150   80.544900
  C     27.838600   -3.307860   81.624400
  H     27.855600   -2.914690   80.616300
  H     28.840300   -3.542440   81.857100
  C     27.265900   -2.379980   82.730100
  H     27.109400   -2.842050   83.692400
  H     26.303900   -1.919920   82.456600
  H     27.817300   -1.473200   82.845000
  H     29.873700   -9.790360   78.844900
  H     27.297300   -6.473330   85.883100

 Total Charge           Charge          ....    0
 Multiplicity           Mult            ....    1
 Number of Electrons    NEL             ....  134
 Basis Dimension        Dim             ....  322

ORBITAL ENERGIES
----------------

  NO   OCC          E(Eh)            E(eV)
   0   2.0000     -88.973014     -2421.0788
   1   2.0000     -88.963248     -2420.8131
   2   2.0000     -10.337626      -281.3011
   3   2.0000     -10.323684      -280.9217
   4   2.0000     -10.319847      -280.8173
   5   2.0000     -10.312565      -280.6192
   6   2.0000     -10.308103      -280.4977
   7   2.0000     -10.307492      -280.4811
   8   2.0000     -10.303713      -280.3783
   9   2.0000     -10.297358      -280.2053
  10   2.0000     -10.294073      -280.1160
  11   2.0000     -10.293160      -280.0911
  12   2.0000     -10.291273      -280.0398
  13   2.0000     -10.289579      -279.9937
  14   2.0000     -10.279323      -279.7146
  15   2.0000     -10.276957      -279.6502
  16   2.0000      -8.086332      -220.0403
  17   2.0000      -8.078181      -219.8185
  18   2.0000      -6.044842      -164.4885
  19   2.0000      -6.041250      -164.3908
  20   2.0000      -6.036955      -164.2739
  21   2.0000      -6.036741      -164.2681
  22   2.0000      -6.032561      -164.1543
  23   2.0000      -6.028944      -164.0559
  24   2.0000      -1.003136       -27.2967
  25   2.0000      -0.977891       -26.6098
  26   2.0000      -0.911087       -24.7919
  27   2.0000      -0.902741       -24.5648
  28   2.0000      -0.867596       -23.6085
  29   2.0000      -0.849122       -23.1058
  30   2.0000      -0.840832       -22.8802
  31   2.0000      -0.810181       -22.0462
  32   2.0000      -0.784319       -21.3424
  33   2.0000      -0.772451       -21.0194
  34   2.0000      -0.711041       -19.3484
  35   2.0000      -0.703933       -19.1550
  36   2.0000      -0.690577       -18.7916
  37   2.0000      -0.651382       -17.7250
  38   2.0000      -0.634377       -17.2623
  39   2.0000      -0.616807       -16.7842
  40   2.0000      -0.593700       -16.1554
  41   2.0000      -0.572702       -15.5840
  42   2.0000      -0.562937       -15.3183
  43   2.0000      -0.543665       -14.7939
  44   2.0000      -0.542002       -14.7486
  45   2.0000      -0.523278       -14.2391
  46   2.0000      -0.510785       -13.8992
  47   2.0000      -0.506244       -13.7756
  48   2.0000      -0.504812       -13.7366
  49   2.0000      -0.496899       -13.5213
  50   2.0000      -0.493296       -13.4233
  51   2.0000      -0.478821       -13.0294
  52   2.0000      -0.474279       -12.9058
  53   2.0000      -0.460902       -12.5418
  54   2.0000      -0.457001       -12.4356
  55   2.0000      -0.449396       -12.2287
  56   2.0000      -0.438201       -11.9241
  57   2.0000      -0.434129       -11.8133
  58   2.0000      -0.431823       -11.7505
  59   2.0000      -0.428313       -11.6550
  60   2.0000      -0.427309       -11.6277
  61   2.0000      -0.418328       -11.3833
  62   2.0000      -0.413647       -11.2559
  63   2.0000      -0.341282        -9.2867
  64   2.0000      -0.331352        -9.0165
  65   2.0000      -0.326947        -8.8967
  66   2.0000      -0.294426        -8.0117
  67   0.0000       0.030755         0.8369
  68   0.0000       0.061837         1.6827
  69   0.0000       0.101011         2.7486
  70   0.0000       0.120548         3.2803
  71   0.0000       0.127085         3.4582

MULLIKEN ATOMIC CHARGES
-----------------------
   0 S :    0.111450
   1 C :   -0.130036
   2 C :   -0.065028
   3 C :    0.033316
   4 C :   -0.186321
   5 H :    0.037886
   6 C :    0.011567
   7 H :    0.015236
   8 H :    0.044639
   9 C :   -0.086821
  10 H :    0.048451
  11 H :    0.027121
  12 C :   -0.030911
  13 H :    0.027161
  14 H :    0.028277
  15 H :    0.033784
  16 S :    0.114558
  17 C :   -0.090285
  18 C :   -0.075359
  19 C :   -0.039080
  20 C :   -0.162738
  21 H :    0.035374
  22 C :    0.057524
  23 H :    0.030859
  24 H :    0.025370
  25 C :   -0.023570
  26 H :    0.032533
  27 H :    0.019715
  28 C :   -0.037009
  29 H :    0.030359
  30 H :    0.018496
  31 H :    0.023515
  32 H :    0.067442
  33 H :    0.052522
Sum of atomic charges:    0.0000000

LOEWDIN ATOMIC CHARGES
----------------------
   0 S :    0.384488
   1 C :   -0.207397
   2 C :   -0.062275
   3 C :   -0.054079
   4 C :   -0.177982
   5 H :    0.038510
   6 C :   -0.039573
   7 H :    0.026925
   8 H :    0.037747
   9 C :   -0.038516
  10 H :    0.031752
  11 H :    0.015772
  12 C :   -0.056877
  13 H :    0.014101
  14 H :    0.023523
  15 H :    0.033000
  16 S :    0.413712
  17 C :   -0.198695
  18 C :   -0.081423
  19 C :   -0.057463
  20 C :   -0.210808
  21 H :    0.033289
  22 C :   -0.030575
  23 H :    0.032463
  24 H :    0.031416
  25 C :   -0.028252
  26 H :    0.028383
  27 H :    0.017194
  28 C :   -0.067271
  29 H :    0.023523
  30 H :    0.027165
  31 H :    0.023895
  32 H :    0.043711
  33 H :    0.030616

  Mayer bond orders larger than 0.100000
B(  0-S ,  1-C ) :   1.1040 B(  0-S ,  4-C ) :   1.1513 B(  1-C ,  2-C ) :   1.6805
B(  1-C , 32-H ) :   0.9482 B(  2-C ,  3-C ) :   1.1904 B(  2-C ,  6-C ) :   1.0248
B(  3-C ,  4-C ) :   1.5852 B(  3-C ,  5-H ) :   0.9816 B(  4-C , 20-C ) :   1.0194
B(  6-C ,  7-H ) :   0.9424 B(  6-C ,  8-H ) :   0.9377 B(  6-C ,  9-C ) :   1.0526
B(  9-C , 10-H ) :   0.9605 B(  9-C , 11-H ) :   0.9586 B(  9-C , 12-C ) :   1.0682
B( 12-C , 13-H ) :   0.9778 B( 12-C , 14-H ) :   0.9780 B( 12-C , 15-H ) :   0.9787
B( 16-S , 17-C ) :   1.1523 B( 16-S , 20-C ) :   1.1544 B( 17-C , 18-C ) :   1.6175
B( 17-C , 20-C ) :   0.1026 B( 17-C , 33-H ) :   0.9672 B( 18-C , 19-C ) :   1.2412
B( 18-C , 21-H ) :   0.9732 B( 19-C , 20-C ) :   1.5886 B( 19-C , 22-C ) :   1.0382
B( 22-C , 23-H ) :   0.9374 B( 22-C , 24-H ) :   0.9289 B( 22-C , 25-C ) :   1.0548
B( 25-C , 26-H ) :   0.9573 B( 25-C , 27-H ) :   0.9568 B( 25-C , 28-C ) :   1.0711
B( 28-C , 29-H ) :   0.9737 B( 28-C , 30-H ) :   0.9731 B( 28-C , 31-H ) :   0.9715

Dispersion correction           -0.014189259
FINAL SINGLE POINT ENERGY     -1339.861028131374

DIPOLE MOMENT
-------------
                                X             Y             Z
Electronic contribution:    -12.62105     -22.55336      12.11148
Nuclear contribution   :     12.96245      23.09762     -12.25082
                        -----------------------------------------
Total Dipole Moment    :      0.34139       0.54426      -0.13935
                        -----------------------------------------
Magnitude (a.u.)       :      0.65741
Magnitude (Debye)      :      1.67099

Rotational constants in cm-1:     0.017255     0.008688     0.006596
Rotational constants in MHz :   517.292254   260.461818   197.747268

                             ****ORCA TERMINATED NORMALLY****
TOTAL RUN TIME: 0 days 0 hours 0 minutes 29 seconds 922 msec
