                         Program Version 4.2.1 -  RELEASE  -
|  1> ! wB97X-D3 SP def2-SVP
|  2> %pal
|  3> nprocs 16
|  4> end
|  5>
|  6> * xyz 0 1
|  7> S 	 -44.003 	 35.2418 	 81.6711
|  8> C 	 -44.1062 	 35.6448 	 79.9942
|  9> C 	 -43.0265 	 35.2025 	 79.3275
| 10> C 	 -42.1 	 34.4739 	 80.1715
| 11> C 	 -42.5131 	 34.3447 	 81.4833
| 12> H 	 -41.2391 	 33.9842 	 79.7037
| 13> C 	 -42.8173 	 35.3449 	 77.7798
| 14> H 	 -43.8454 	 35.4366 	 77.3193
| 15> H 	 -42.171 	 34.6045 	 77.3394
| 16> C 	 -42.0596 	 36.5508 	 77.2053
| 17> H 	 -42.7003 	 37.4489 	 77.4303
| 18> H 	 -41.2208 	 36.6298 	 77.8201
| 19> C 	 -41.7615 	 36.4961 	 75.6834
| 20> H 	 -42.6943 	 36.713 	 75.1621
| 21> H 	 -41.0977 	 37.3917 	 75.4057
| 22> H 	 -41.306 	 35.5399 	 75.3198
| 23> S 	 -40.1068 	 33.9304 	 82.6868
| 24> C 	 -40.0167 	 32.8745 	 84.0192
| 25> C 	 -41.2191 	 32.2238 	 84.2696
| 26> C 	 -42.2474 	 32.7929 	 83.5146
| 27> C 	 -41.7758 	 33.5845 	 82.5005
| 28> H 	 -41.2309 	 31.4626 	 85.0255
| 29> C 	 -43.6598 	 32.2261 	 83.6524
| 30> H 	 -44.4225 	 32.8521 	 83.2079
| 31> H 	 -43.7276 	 32.1519 	 84.7224
| 32> C 	 -43.6201 	 30.7908 	 82.9514
| 33> H 	 -44.5987 	 30.252 	 82.994
| 34> H 	 -42.9104 	 30.1471 	 83.5309
| 35> C 	 -43.2566 	 30.798 	 81.4637
| 36> H 	 -42.3175 	 31.2415 	 81.3913
| 37> H 	 -43.8149 	 31.3391 	 80.6391
| 38> H 	 -43.0928 	 29.7781 	 81.0795
| 39> H 	 -44.9882 	 36.1122 	 79.5382
| 40> H 	 -39.1409 	 32.8052 	 84.5811
| 41> *
| 42>
| 43>                          ****END OF INPUT****

CARTESIAN COORDINATES (ANGSTROEM)
---------------------------------
  S    -44.003000   35.241800   81.671100
  C    -44.106200   35.644800   79.994200
  C    -43.026500   35.202500   79.327500
  C    -42.100000   34.473900   80.171500
  C    -42.513100   34.344700   81.483300
  H    -41.239100   33.984200   79.703700
  C    -42.817300   35.344900   77.779800
  H    -43.845400   35.436600   77.319300
  H    -42.171000   34.604500   77.339400
  C    -42.059600   36.550800   77.205300
  H    -42.700300   37.448900   77.430300
  H    -41.220800   36.629800   77.820100
  C    -41.761500   36.496100   75.683400
  H    -42.694300   36.713000   75.162100
  H    -41.097700   37.391700   75.405700
  H    -41.306000   35.539900   75.319800
  S    -40.106800   33.930400   82.686800
  C    -40.016700   32.874500   84.019200
  C    -41.219100   32.223800   84.269600
  C    -42.247400   32.792900   83.514600
  C    -41.775800   33.584500   82.500500
  H    -41.230900   31.462600   85.025500
  C    -43.659800   32.226100   83.652400
  H    -44.422500   32.852100   83.207900
  H    -43.727600   32.151900   84.722400
  C    -43.620100   30.790800   82.951400
  H    -44.598700   30.252000   82.994000
  H    -42.910400   30.147100   83.530900
  C    -43.256600   30.798000   81.463700
  H    -42.317500   31.241500   81.391300
  H    -43.814900   31.339100   80.639100
  H    -43.092800   29.778100   81.079500
  H    -44.988200   36.112200   79.538200
  H    -39.140900   32.805200   84.581100

 Total Charge           Charge          ....    0
 Multiplicity           Mult            ....    1
 Number of Electrons    NEL             ....  134
 Basis Dimension        Dim             ....  322

ORBITAL ENERGIES
----------------

  NO   OCC          E(Eh)            E(eV)
   0   2.0000     -88.967049     -2420.9165
   1   2.0000     -88.966392     -2420.8986
   2   2.0000     -10.331601      -281.1372
   3   2.0000     -10.321303      -280.8569
   4   2.0000     -10.311319      -280.5853
   5   2.0000     -10.310993      -280.5764
   6   2.0000     -10.301360      -280.3143
   7   2.0000     -10.298700      -280.2419
   8   2.0000     -10.295564      -280.1565
   9   2.0000     -10.295253      -280.1481
  10   2.0000     -10.293810      -280.1088
  11   2.0000     -10.293057      -280.0883
  12   2.0000     -10.292449      -280.0718
  13   2.0000     -10.291762      -280.0531
  14   2.0000     -10.283154      -279.8188
  15   2.0000     -10.268069      -279.4084
  16   2.0000      -8.083268      -219.9569
  17   2.0000      -8.081210      -219.9009
  18   2.0000      -6.041446      -164.3961
  19   2.0000      -6.039824      -164.3520
  20   2.0000      -6.037544      -164.2899
  21   2.0000      -6.035672      -164.2390
  22   2.0000      -6.034317      -164.2021
  23   2.0000      -6.031875      -164.1357
  24   2.0000      -1.017017       -27.6744
  25   2.0000      -0.993440       -27.0329
  26   2.0000      -0.907453       -24.6931
  27   2.0000      -0.906069       -24.6554
  28   2.0000      -0.873793       -23.7771
  29   2.0000      -0.848952       -23.1012
  30   2.0000      -0.841617       -22.9016
  31   2.0000      -0.813590       -22.1389
  32   2.0000      -0.783355       -21.3162
  33   2.0000      -0.774120       -21.0649
  34   2.0000      -0.702913       -19.1272
  35   2.0000      -0.696052       -18.9405
  36   2.0000      -0.689076       -18.7507
  37   2.0000      -0.669568       -18.2199
  38   2.0000      -0.638729       -17.3807
  39   2.0000      -0.618030       -16.8175
  40   2.0000      -0.598169       -16.2770
  41   2.0000      -0.578388       -15.7387
  42   2.0000      -0.564360       -15.3570
  43   2.0000      -0.551791       -15.0150
  44   2.0000      -0.540182       -14.6991
  45   2.0000      -0.516435       -14.0529
  46   2.0000      -0.509370       -13.8607
  47   2.0000      -0.506659       -13.7869
  48   2.0000      -0.503396       -13.6981
  49   2.0000      -0.494917       -13.4674
  50   2.0000      -0.492790       -13.4095
  51   2.0000      -0.477615       -12.9966
  52   2.0000      -0.474932       -12.9236
  53   2.0000      -0.467631       -12.7249
  54   2.0000      -0.460323       -12.5260
  55   2.0000      -0.450853       -12.2683
  56   2.0000      -0.447513       -12.1775
  57   2.0000      -0.441347       -12.0097
  58   2.0000      -0.426744       -11.6123
  59   2.0000      -0.419223       -11.4077
  60   2.0000      -0.418272       -11.3818
  61   2.0000      -0.413106       -11.2412
  62   2.0000      -0.404620       -11.0103
  63   2.0000      -0.352719        -9.5980
  64   2.0000      -0.334789        -9.1101
  65   2.0000      -0.328307        -8.9337
  66   2.0000      -0.292272        -7.9531
  67   0.0000       0.032665         0.8889
  68   0.0000       0.077763         2.1160
  69   0.0000       0.112176         3.0525
  70   0.0000       0.115474         3.1422
  71   0.0000       0.133670         3.6373

MULLIKEN ATOMIC CHARGES
-----------------------
   0 S :    0.111195
   1 C :   -0.152657
   2 C :   -0.045625
   3 C :   -0.016072
   4 C :   -0.095728
   5 H :    0.017889
   6 C :    0.035564
   7 H :    0.029370
   8 H :    0.012662
   9 C :   -0.065824
  10 H :    0.023511
  11 H :    0.013775
  12 C :   -0.076300
  13 H :    0.035059
  14 H :    0.051367
  15 H :    0.048254
  16 S :    0.131586
  17 C :   -0.081905
  18 C :   -0.035608
  19 C :   -0.080104
  20 C :   -0.153436
  21 H :    0.016121
  22 C :    0.106675
  23 H :    0.027475
  24 H :    0.028292
  25 C :   -0.091840
  26 H :    0.039070
  27 H :    0.033735
  28 C :   -0.051512
  29 H :    0.015989
  30 H :    0.048383
  31 H :    0.027339
  32 H :    0.057126
  33 H :    0.036176
Sum of atomic charges:   -0.0000000

LOEWDIN ATOMIC CHARGES
----------------------
   0 S :    0.416389
   1 C :   -0.206092
   2 C :   -0.066628
   3 C :   -0.076390
   4 C :   -0.189205
   5 H :    0.030843
   6 C :   -0.034127
   7 H :    0.033019
   8 H :    0.024694
   9 C :   -0.044373
  10 H :    0.024412
  11 H :    0.011025
  12 C :   -0.073532
  13 H :    0.026306
  14 H :    0.040362
  15 H :    0.028698
  16 S :    0.452027
  17 C :   -0.183980
  18 C :   -0.067584
  19 C :   -0.058202
  20 C :   -0.216219
  21 H :    0.030378
  22 C :   -0.021330
  23 H :    0.020073
  24 H :    0.030476
  25 C :   -0.036221
  26 H :    0.025210
  27 H :    0.028046
  28 C :   -0.079180
  29 H :    0.014794
  30 H :    0.036939
  31 H :    0.028963
  32 H :    0.035610
  33 H :    0.014796

  Mayer bond orders larger than 0.100000
B(  0-S ,  1-C ) :   1.1317 B(  0-S ,  4-C ) :   1.1420 B(  1-C ,  2-C ) :   1.6311
B(  1-C , 32-H ) :   0.9644 B(  2-C ,  3-C ) :   1.2471 B(  2-C ,  6-C ) :   1.0209
B(  3-C ,  4-C ) :   1.5493 B(  3-C ,  5-H ) :   0.9937 B(  4-C , 20-C ) :   1.0435
B(  6-C ,  7-H ) :   0.9478 B(  6-C ,  8-H ) :   0.9467 B(  6-C ,  9-C ) :   1.0515
B(  9-C , 10-H ) :   0.9545 B(  9-C , 11-H ) :   0.9580 B(  9-C , 12-C ) :   1.0743
B( 12-C , 13-H ) :   0.9752 B( 12-C , 14-H ) :   0.9728 B( 12-C , 15-H ) :   0.9733
B( 16-S , 17-C ) :   1.1924 B( 16-S , 20-C ) :   1.1564 B( 17-C , 18-C ) :   1.5676
B( 17-C , 33-H ) :   0.9779 B( 18-C , 19-C ) :   1.2422 B( 18-C , 21-H ) :   0.9980
B( 19-C , 20-C ) :   1.5711 B( 19-C , 22-C ) :   1.0425 B( 22-C , 23-H ) :   0.9391
B( 22-C , 24-H ) :   0.9327 B( 22-C , 25-C ) :   1.0574 B( 25-C , 26-H ) :   0.9615
B( 25-C , 27-H ) :   0.9541 B( 25-C , 28-C ) :   1.0695 B( 28-C , 29-H ) :   0.9701
B( 28-C , 30-H ) :   0.9741 B( 28-C , 31-H ) :   0.9685

Dispersion correction           -0.015098350
FINAL SINGLE POINT ENERGY     -1339.866616881828

DIPOLE MOMENT
-------------
                                X             Y             Z
Electronic contribution:      4.00489       5.50339      18.72889
Nuclear contribution   :     -3.92811      -5.73710     -18.90568
                        -----------------------------------------
Total Dipole Moment    :      0.07678      -0.23370      -0.17679
                        -----------------------------------------
Magnitude (a.u.)       :      0.30293
Magnitude (Debye)      :      0.76999

Rotational constants in cm-1:     0.023219     0.007570     0.006869
Rotational constants in MHz :   696.092961   226.944179   205.926174

                             ****ORCA TERMINATED NORMALLY****
TOTAL RUN TIME: 0 days 0 hours 0 minutes 28 seconds 999 msec
