                         Program Version 4.2.1 -  RELEASE  -
|  1> ! wB97X-D3 SP def2-SVP
|  2> %pal
|  3> nprocs 16
|  4> end
|  5>
|  6> * xyz 0 1
|  7> S 	 -39.4989 	 39.6505 	 94.6602
|  8> C 	 -41.0783 	 40.2585 	 94.075
|  9> C 	 -42.1392 	 39.4561 	 94.481
| 10> C 	 -41.6733 	 38.4697 	 95.3561
| 11> C 	 -40.35 	 38.515 	 95.6739
| 12> H 	 -42.2145 	 37.6785 	 95.8057
| 13> C 	 -43.5191 	 39.599 	 94.0991
| 14> H 	 -44.0505 	 38.6402 	 94.1094
| 15> H 	 -43.5086 	 39.9916 	 93.0682
| 16> C 	 -44.2686 	 40.6394 	 94.8485
| 17> H 	 -44.2103 	 40.2379 	 95.9054
| 18> H 	 -43.9123 	 41.6186 	 94.729
| 19> C 	 -45.7593 	 40.6154 	 94.5307
| 20> H 	 -45.9723 	 40.9978 	 93.4919
| 21> H 	 -46.1636 	 39.6738 	 94.7252
| 22> H 	 -46.3019 	 41.2473 	 95.2801
| 23> S 	 -38.0871 	 37.1098 	 95.9488
| 24> C 	 -37.7558 	 36.298 	 97.4727
| 25> C 	 -38.8792 	 36.3202 	 98.2853
| 26> C 	 -39.9763 	 37.0373 	 97.7606
| 27> C 	 -39.6841 	 37.5836 	 96.5447
| 28> H 	 -38.7651 	 35.7321 	 99.1846
| 29> C 	 -41.2957 	 37.1253 	 98.482
| 30> H 	 -41.7399 	 38.137 	 98.4072
| 31> H 	 -41.0783 	 37.2706 	 99.595
| 32> C 	 -42.2856 	 35.9626 	 98.3446
| 33> H 	 -41.9193 	 35.0476 	 98.7724
| 34> H 	 -42.4953 	 35.8181 	 97.2723
| 35> C 	 -43.684 	 36.1348 	 98.9995
| 36> H 	 -43.6274 	 36.5871 	 99.9684
| 37> H 	 -44.1836 	 35.1099 	 98.9309
| 38> H 	 -44.2826 	 36.8827 	 98.4638
| 39> H 	 -41.0918 	 41.1907 	 93.4585
| 40> H 	 -36.8594 	 35.7624 	 97.7191
| 41> *
| 42>
| 43>                          ****END OF INPUT****

CARTESIAN COORDINATES (ANGSTROEM)
---------------------------------
  S    -39.498900   39.650500   94.660200
  C    -41.078300   40.258500   94.075000
  C    -42.139200   39.456100   94.481000
  C    -41.673300   38.469700   95.356100
  C    -40.350000   38.515000   95.673900
  H    -42.214500   37.678500   95.805700
  C    -43.519100   39.599000   94.099100
  H    -44.050500   38.640200   94.109400
  H    -43.508600   39.991600   93.068200
  C    -44.268600   40.639400   94.848500
  H    -44.210300   40.237900   95.905400
  H    -43.912300   41.618600   94.729000
  C    -45.759300   40.615400   94.530700
  H    -45.972300   40.997800   93.491900
  H    -46.163600   39.673800   94.725200
  H    -46.301900   41.247300   95.280100
  S    -38.087100   37.109800   95.948800
  C    -37.755800   36.298000   97.472700
  C    -38.879200   36.320200   98.285300
  C    -39.976300   37.037300   97.760600
  C    -39.684100   37.583600   96.544700
  H    -38.765100   35.732100   99.184600
  C    -41.295700   37.125300   98.482000
  H    -41.739900   38.137000   98.407200
  H    -41.078300   37.270600   99.595000
  C    -42.285600   35.962600   98.344600
  H    -41.919300   35.047600   98.772400
  H    -42.495300   35.818100   97.272300
  C    -43.684000   36.134800   98.999500
  H    -43.627400   36.587100   99.968400
  H    -44.183600   35.109900   98.930900
  H    -44.282600   36.882700   98.463800
  H    -41.091800   41.190700   93.458500
  H    -36.859400   35.762400   97.719100

 Total Charge           Charge          ....    0
 Multiplicity           Mult            ....    1
 Number of Electrons    NEL             ....  134
 Basis Dimension        Dim             ....  322

ORBITAL ENERGIES
----------------

  NO   OCC          E(Eh)            E(eV)
   0   2.0000     -88.966307     -2420.8963
   1   2.0000     -88.963514     -2420.8203
   2   2.0000     -10.324988      -280.9572
   3   2.0000     -10.322803      -280.8977
   4   2.0000     -10.319254      -280.8012
   5   2.0000     -10.314670      -280.6764
   6   2.0000     -10.302442      -280.3437
   7   2.0000     -10.298590      -280.2389
   8   2.0000     -10.297278      -280.2032
   9   2.0000     -10.292088      -280.0619
  10   2.0000     -10.290850      -280.0283
  11   2.0000     -10.285724      -279.8888
  12   2.0000     -10.285032      -279.8699
  13   2.0000     -10.284025      -279.8426
  14   2.0000     -10.283260      -279.8217
  15   2.0000     -10.279613      -279.7225
  16   2.0000      -8.080578      -219.8837
  17   2.0000      -8.078123      -219.8169
  18   2.0000      -6.039084      -164.3318
  19   2.0000      -6.036598      -164.2642
  20   2.0000      -6.035289      -164.2286
  21   2.0000      -6.032730      -164.1589
  22   2.0000      -6.031230      -164.1181
  23   2.0000      -6.028848      -164.0533
  24   2.0000      -1.011163       -27.5151
  25   2.0000      -0.985771       -26.8242
  26   2.0000      -0.928146       -25.2561
  27   2.0000      -0.906967       -24.6798
  28   2.0000      -0.872630       -23.7455
  29   2.0000      -0.857088       -23.3225
  30   2.0000      -0.848497       -23.0888
  31   2.0000      -0.816151       -22.2086
  32   2.0000      -0.783471       -21.3193
  33   2.0000      -0.772607       -21.0237
  34   2.0000      -0.705550       -19.1990
  35   2.0000      -0.701496       -19.0887
  36   2.0000      -0.696564       -18.9545
  37   2.0000      -0.665974       -18.1221
  38   2.0000      -0.642374       -17.4799
  39   2.0000      -0.623626       -16.9697
  40   2.0000      -0.597717       -16.2647
  41   2.0000      -0.586583       -15.9617
  42   2.0000      -0.565895       -15.3988
  43   2.0000      -0.559467       -15.2239
  44   2.0000      -0.538118       -14.6429
  45   2.0000      -0.527733       -14.3603
  46   2.0000      -0.521262       -14.1843
  47   2.0000      -0.514559       -14.0019
  48   2.0000      -0.506477       -13.7820
  49   2.0000      -0.500373       -13.6159
  50   2.0000      -0.488932       -13.3045
  51   2.0000      -0.479180       -13.0392
  52   2.0000      -0.467634       -12.7250
  53   2.0000      -0.462771       -12.5926
  54   2.0000      -0.457759       -12.4563
  55   2.0000      -0.449169       -12.2225
  56   2.0000      -0.444999       -12.1090
  57   2.0000      -0.441286       -12.0080
  58   2.0000      -0.437028       -11.8921
  59   2.0000      -0.428458       -11.6589
  60   2.0000      -0.421603       -11.4724
  61   2.0000      -0.411184       -11.1889
  62   2.0000      -0.408000       -11.1022
  63   2.0000      -0.351125        -9.5546
  64   2.0000      -0.334090        -9.0911
  65   2.0000      -0.331730        -9.0268
  66   2.0000      -0.283534        -7.7154
  67   0.0000       0.022951         0.6245
  68   0.0000       0.069995         1.9047
  69   0.0000       0.100221         2.7271
  70   0.0000       0.121510         3.3064
  71   0.0000       0.131662         3.5827

MULLIKEN ATOMIC CHARGES
-----------------------
   0 S :    0.104044
   1 C :   -0.163258
   2 C :   -0.009147
   3 C :    0.002613
   4 C :   -0.106456
   5 H :   -0.023401
   6 C :    0.073632
   7 H :    0.025338
   8 H :    0.015418
   9 C :   -0.071944
  10 H :    0.023787
  11 H :    0.025478
  12 C :   -0.034556
  13 H :    0.040725
  14 H :    0.012085
  15 H :    0.034357
  16 S :    0.089161
  17 C :   -0.093649
  18 C :   -0.044154
  19 C :    0.006386
  20 C :   -0.154591
  21 H :    0.017189
  22 C :    0.008925
  23 H :    0.029235
  24 H :    0.019389
  25 C :   -0.045420
  26 H :    0.027909
  27 H :    0.033360
  28 C :   -0.064556
  29 H :    0.027361
  30 H :    0.057426
  31 H :    0.023503
  32 H :    0.063400
  33 H :    0.050414
Sum of atomic charges:   -0.0000000

LOEWDIN ATOMIC CHARGES
----------------------
   0 S :    0.388778
   1 C :   -0.186418
   2 C :   -0.060559
   3 C :   -0.060298
   4 C :   -0.192179
   5 H :    0.024412
   6 C :   -0.040120
   7 H :    0.034549
   8 H :    0.033904
   9 C :   -0.034274
  10 H :    0.029729
  11 H :    0.017928
  12 C :   -0.064005
  13 H :    0.028945
  14 H :    0.013526
  15 H :    0.031915
  16 S :    0.386353
  17 C :   -0.181029
  18 C :   -0.066833
  19 C :   -0.065332
  20 C :   -0.173550
  21 H :    0.033155
  22 C :   -0.050891
  23 H :    0.034648
  24 H :    0.037146
  25 C :   -0.039672
  26 H :    0.023098
  27 H :    0.023524
  28 C :   -0.068088
  29 H :    0.019834
  30 H :    0.040701
  31 H :    0.021839
  32 H :    0.032806
  33 H :    0.026458

  Mayer bond orders larger than 0.100000
B(  0-S ,  1-C ) :   1.1317 B(  0-S ,  4-C ) :   1.1404 B(  1-C ,  2-C ) :   1.5746
B(  1-C , 32-H ) :   0.9667 B(  2-C ,  3-C ) :   1.2308 B(  2-C ,  6-C ) :   1.0440
B(  3-C ,  4-C ) :   1.5614 B(  3-C ,  5-H ) :   1.0089 B(  4-C , 20-C ) :   1.0663
B(  6-C ,  7-H ) :   0.9377 B(  6-C ,  8-H ) :   0.9166 B(  6-C ,  9-C ) :   1.0776
B(  9-C , 10-H ) :   0.9513 B(  9-C , 11-H ) :   0.9560 B(  9-C , 12-C ) :   1.0941
B( 12-C , 13-H ) :   0.9720 B( 12-C , 14-H ) :   0.9716 B( 12-C , 15-H ) :   0.9730
B( 16-S , 17-C ) :   1.1365 B( 16-S , 20-C ) :   1.1322 B( 17-C , 18-C ) :   1.6315
B( 17-C , 33-H ) :   0.9697 B( 18-C , 19-C ) :   1.2161 B( 18-C , 21-H ) :   0.9939
B( 19-C , 20-C ) :   1.6112 B( 19-C , 22-C ) :   1.0519 B( 22-C , 23-H ) :   0.9321
B( 22-C , 24-H ) :   0.9225 B( 22-C , 25-C ) :   1.0573 B( 25-C , 26-H ) :   0.9554
B( 25-C , 27-H ) :   0.9544 B( 25-C , 28-C ) :   1.0760 B( 28-C , 29-H ) :   0.9744
B( 28-C , 30-H ) :   0.9747 B( 28-C , 31-H ) :   0.9757

Dispersion correction           -0.013870535
FINAL SINGLE POINT ENERGY     -1339.866849891893

DIPOLE MOMENT
-------------
                                X             Y             Z
Electronic contribution:     32.18038       0.01110      -8.24151
Nuclear contribution   :    -32.82189      -0.13219       8.51519
                        -----------------------------------------
Total Dipole Moment    :     -0.64151      -0.12109       0.27368
                        -----------------------------------------
Magnitude (a.u.)       :      0.70788
Magnitude (Debye)      :      1.79930

Rotational constants in cm-1:     0.017440     0.009448     0.006358
Rotational constants in MHz :   522.852918   283.233673   190.611249

                             ****ORCA TERMINATED NORMALLY****
TOTAL RUN TIME: 0 days 0 hours 0 minutes 28 seconds 189 msec
