                         Program Version 4.2.1 -  RELEASE  -
|  1> ! wB97X-D3 SP def2-SVP
|  2> %pal
|  3> nprocs 16
|  4> end
|  5>
|  6> * xyz 0 1
|  7> S 	 27.8534 	 30.977 	 57.0744
|  8> C 	 29.3475 	 30.1417 	 56.9238
|  9> C 	 30.4056 	 30.935 	 57.1834
| 10> C 	 29.9946 	 32.2522 	 57.5666
| 11> C 	 28.6524 	 32.4196 	 57.5735
| 12> H 	 30.4871 	 33.1366 	 57.8764
| 13> C 	 31.8124 	 30.4005 	 57.1959
| 14> H 	 31.7829 	 29.5181 	 56.4934
| 15> H 	 32.1127 	 30.0362 	 58.132
| 16> C 	 32.9186 	 31.3778 	 56.7626
| 17> H 	 32.7448 	 31.6227 	 55.6584
| 18> H 	 32.8114 	 32.3381 	 57.2609
| 19> C 	 34.3594 	 30.8762 	 56.7942
| 20> H 	 34.4175 	 30.022 	 56.1641
| 21> H 	 35.0455 	 31.6048 	 56.4587
| 22> H 	 34.537 	 30.565 	 57.7889
| 23> S 	 26.9638 	 34.2811 	 56.3652
| 24> C 	 26.1885 	 35.4599 	 57.3768
| 25> C 	 26.6002 	 35.4139 	 58.6878
| 26> C 	 27.6264 	 34.4207 	 58.9016
| 27> C 	 27.8559 	 33.6485 	 57.7525
| 28> H 	 26.2295 	 36.1073 	 59.3321
| 29> C 	 28.1185 	 34.0737 	 60.3396
| 30> H 	 28.658 	 33.1353 	 60.2271
| 31> H 	 27.2245 	 34.0267 	 61.0366
| 32> C 	 29.1178 	 35.1958 	 60.8462
| 33> H 	 29.5584 	 34.9325 	 61.8422
| 34> H 	 28.5703 	 36.0988 	 60.9713
| 35> C 	 30.2342 	 35.451 	 59.8375
| 36> H 	 29.9046 	 35.7148 	 58.7908
| 37> H 	 30.8429 	 34.586 	 59.5899
| 38> H 	 30.8556 	 36.2419 	 60.3076
| 39> H 	 29.4746 	 29.1363 	 56.6501
| 40> H 	 25.5371 	 36.3387 	 57.148
| 41> *
| 42>
| 43>                          ****END OF INPUT****

CARTESIAN COORDINATES (ANGSTROEM)
---------------------------------
  S     27.853400   30.977000   57.074400
  C     29.347500   30.141700   56.923800
  C     30.405600   30.935000   57.183400
  C     29.994600   32.252200   57.566600
  C     28.652400   32.419600   57.573500
  H     30.487100   33.136600   57.876400
  C     31.812400   30.400500   57.195900
  H     31.782900   29.518100   56.493400
  H     32.112700   30.036200   58.132000
  C     32.918600   31.377800   56.762600
  H     32.744800   31.622700   55.658400
  H     32.811400   32.338100   57.260900
  C     34.359400   30.876200   56.794200
  H     34.417500   30.022000   56.164100
  H     35.045500   31.604800   56.458700
  H     34.537000   30.565000   57.788900
  S     26.963800   34.281100   56.365200
  C     26.188500   35.459900   57.376800
  C     26.600200   35.413900   58.687800
  C     27.626400   34.420700   58.901600
  C     27.855900   33.648500   57.752500
  H     26.229500   36.107300   59.332100
  C     28.118500   34.073700   60.339600
  H     28.658000   33.135300   60.227100
  H     27.224500   34.026700   61.036600
  C     29.117800   35.195800   60.846200
  H     29.558400   34.932500   61.842200
  H     28.570300   36.098800   60.971300
  C     30.234200   35.451000   59.837500
  H     29.904600   35.714800   58.790800
  H     30.842900   34.586000   59.589900
  H     30.855600   36.241900   60.307600
  H     29.474600   29.136300   56.650100
  H     25.537100   36.338700   57.148000

 Total Charge           Charge          ....    0
 Multiplicity           Mult            ....    1
 Number of Electrons    NEL             ....  134
 Basis Dimension        Dim             ....  322

ORBITAL ENERGIES
----------------

  NO   OCC          E(Eh)            E(eV)
   0   2.0000     -88.969589     -2420.9856
   1   2.0000     -88.962133     -2420.7827
   2   2.0000     -10.329528      -281.0807
   3   2.0000     -10.323299      -280.9112
   4   2.0000     -10.317771      -280.7608
   5   2.0000     -10.308359      -280.5047
   6   2.0000     -10.304454      -280.3984
   7   2.0000     -10.299884      -280.2741
   8   2.0000     -10.298354      -280.2325
   9   2.0000     -10.292087      -280.0619
  10   2.0000     -10.290254      -280.0121
  11   2.0000     -10.289166      -279.9825
  12   2.0000     -10.287147      -279.9275
  13   2.0000     -10.286193      -279.9015
  14   2.0000     -10.279959      -279.7319
  15   2.0000     -10.269599      -279.4500
  16   2.0000      -8.083919      -219.9746
  17   2.0000      -8.078265      -219.8208
  18   2.0000      -6.042486      -164.4244
  19   2.0000      -6.038461      -164.3149
  20   2.0000      -6.036632      -164.2651
  21   2.0000      -6.034653      -164.2113
  22   2.0000      -6.032575      -164.1547
  23   2.0000      -6.029074      -164.0595
  24   2.0000      -1.013310       -27.5736
  25   2.0000      -0.987158       -26.8619
  26   2.0000      -0.913110       -24.8470
  27   2.0000      -0.902356       -24.5543
  28   2.0000      -0.874445       -23.7949
  29   2.0000      -0.851210       -23.1626
  30   2.0000      -0.844719       -22.9860
  31   2.0000      -0.823211       -22.4007
  32   2.0000      -0.784849       -21.3568
  33   2.0000      -0.770356       -20.9624
  34   2.0000      -0.711137       -19.3510
  35   2.0000      -0.693777       -18.8786
  36   2.0000      -0.687336       -18.7034
  37   2.0000      -0.657579       -17.8936
  38   2.0000      -0.654068       -17.7981
  39   2.0000      -0.618603       -16.8330
  40   2.0000      -0.586965       -15.9721
  41   2.0000      -0.578774       -15.7492
  42   2.0000      -0.565879       -15.3983
  43   2.0000      -0.547369       -14.8947
  44   2.0000      -0.543940       -14.8014
  45   2.0000      -0.529010       -14.3951
  46   2.0000      -0.516102       -14.0439
  47   2.0000      -0.512667       -13.9504
  48   2.0000      -0.509536       -13.8652
  49   2.0000      -0.499463       -13.5911
  50   2.0000      -0.498633       -13.5685
  51   2.0000      -0.482114       -13.1190
  52   2.0000      -0.469045       -12.7634
  53   2.0000      -0.466596       -12.6967
  54   2.0000      -0.453776       -12.3479
  55   2.0000      -0.453123       -12.3301
  56   2.0000      -0.445588       -12.1251
  57   2.0000      -0.432461       -11.7679
  58   2.0000      -0.428433       -11.6583
  59   2.0000      -0.424975       -11.5642
  60   2.0000      -0.421232       -11.4623
  61   2.0000      -0.415706       -11.3119
  62   2.0000      -0.411897       -11.2083
  63   2.0000      -0.343852        -9.3567
  64   2.0000      -0.333799        -9.0831
  65   2.0000      -0.327812        -8.9202
  66   2.0000      -0.303028        -8.2458
  67   0.0000       0.041792         1.1372
  68   0.0000       0.064827         1.7640
  69   0.0000       0.121137         3.2963
  70   0.0000       0.123556         3.3621
  71   0.0000       0.128672         3.5013

MULLIKEN ATOMIC CHARGES
-----------------------
   0 S :    0.117889
   1 C :   -0.098281
   2 C :   -0.048667
   3 C :    0.068112
   4 C :   -0.192802
   5 H :   -0.032448
   6 C :    0.093370
   7 H :    0.022542
   8 H :    0.023352
   9 C :   -0.160022
  10 H :    0.030248
  11 H :    0.033665
  12 C :    0.024522
  13 H :    0.017819
  14 H :    0.033899
  15 H :    0.015095
  16 S :    0.129891
  17 C :   -0.093648
  18 C :   -0.010916
  19 C :   -0.039836
  20 C :   -0.180694
  21 H :   -0.018963
  22 C :    0.053163
  23 H :    0.034243
  24 H :    0.053629
  25 C :   -0.065101
  26 H :    0.040485
  27 H :    0.023687
  28 C :   -0.092707
  29 H :    0.056451
  30 H :    0.031164
  31 H :    0.042211
  32 H :    0.021905
  33 H :    0.066742
Sum of atomic charges:   -0.0000000

LOEWDIN ATOMIC CHARGES
----------------------
   0 S :    0.426476
   1 C :   -0.191744
   2 C :   -0.063458
   3 C :   -0.062011
   4 C :   -0.201193
   5 H :    0.024596
   6 C :   -0.027658
   7 H :    0.035565
   8 H :    0.021747
   9 C :   -0.047892
  10 H :    0.028204
  11 H :    0.018759
  12 C :   -0.050928
  13 H :    0.022295
  14 H :    0.025631
  15 H :    0.017669
  16 S :    0.409832
  17 C :   -0.196373
  18 C :   -0.065163
  19 C :   -0.049045
  20 C :   -0.205780
  21 H :    0.013878
  22 C :   -0.027067
  23 H :    0.027742
  24 H :    0.039320
  25 C :   -0.039610
  26 H :    0.029351
  27 H :    0.016948
  28 C :   -0.077469
  29 H :    0.033206
  30 H :    0.018114
  31 H :    0.031833
  32 H :    0.020197
  33 H :    0.044030

  Mayer bond orders larger than 0.100000
B(  0-S ,  1-C ) :   1.1403 B(  0-S ,  4-C ) :   1.1585 B(  1-C ,  2-C ) :   1.6407
B(  1-C , 32-H ) :   0.9732 B(  2-C ,  3-C ) :   1.1857 B(  2-C ,  6-C ) :   1.0215
B(  3-C ,  4-C ) :   1.6203 B(  3-C ,  5-H ) :   1.0016 B(  4-C , 20-C ) :   0.9997
B(  6-C ,  7-H ) :   0.9384 B(  6-C ,  8-H ) :   0.9370 B(  6-C ,  9-C ) :   1.0569
B(  9-C , 10-H ) :   0.9583 B(  9-C , 11-H ) :   0.9553 B(  9-C , 12-C ) :   1.0886
B( 12-C , 13-H ) :   0.9727 B( 12-C , 14-H ) :   0.9719 B( 12-C , 15-H ) :   0.9733
B( 16-S , 17-C ) :   1.1437 B( 16-S , 20-C ) :   1.1436 B( 17-C , 18-C ) :   1.6472
B( 17-C , 33-H ) :   0.9555 B( 18-C , 19-C ) :   1.2164 B( 18-C , 21-H ) :   1.0005
B( 19-C , 20-C ) :   1.5966 B( 19-C , 22-C ) :   1.0313 B( 22-C , 23-H ) :   0.9378
B( 22-C , 24-H ) :   0.9508 B( 22-C , 25-C ) :   1.0534 B( 25-C , 26-H ) :   0.9591
B( 25-C , 27-H ) :   0.9593 B( 25-C , 28-C ) :   1.0748 B( 28-C , 29-H ) :   0.9668
B( 28-C , 30-H ) :   0.9710 B( 28-C , 31-H ) :   0.9691

Dispersion correction           -0.014806774
FINAL SINGLE POINT ENERGY     -1339.874361127635

DIPOLE MOMENT
-------------
                                X             Y             Z
Electronic contribution:    -25.77652      -2.41556     -10.53449
Nuclear contribution   :     26.17573       2.57756      10.91173
                        -----------------------------------------
Total Dipole Moment    :      0.39921       0.16200       0.37724
                        -----------------------------------------
Magnitude (a.u.)       :      0.57265
Magnitude (Debye)      :      1.45555

Rotational constants in cm-1:     0.019347     0.008548     0.006903
Rotational constants in MHz :   579.994063   256.266357   206.954627

                             ****ORCA TERMINATED NORMALLY****
TOTAL RUN TIME: 0 days 0 hours 0 minutes 35 seconds 503 msec
