                         Program Version 4.2.1 -  RELEASE  -
|  1> ! wB97X-D3 SP def2-SVP
|  2> %pal
|  3> nprocs 16
|  4> end
|  5>
|  6> * xyz 0 1
|  7> S 	 41.6157 	 27.7979 	 53.1942
|  8> C 	 41.9574 	 29.344 	 53.9318
|  9> C 	 40.8077 	 30.1322 	 54.1508
| 10> C 	 39.6567 	 29.3767 	 53.8719
| 11> C 	 39.8755 	 28.1532 	 53.3428
| 12> H 	 38.6492 	 29.7836 	 53.9941
| 13> C 	 40.6842 	 31.5087 	 54.7027
| 14> H 	 41.6637 	 31.8972 	 55.0183
| 15> H 	 39.9452 	 31.6417 	 55.5359
| 16> C 	 40.3347 	 32.4498 	 53.6044
| 17> H 	 39.2788 	 32.6529 	 53.5937
| 18> H 	 40.7 	 33.4157 	 53.8512
| 19> C 	 40.92 	 32.1983 	 52.181
| 20> H 	 40.2843 	 31.4109 	 51.6684
| 21> H 	 40.9312 	 33.1161 	 51.6054
| 22> H 	 41.9745 	 31.783 	 52.3776
| 23> S 	 39.2078 	 25.54 	 53.6684
| 24> C 	 37.6601 	 24.8712 	 53.1534
| 25> C 	 36.9769 	 25.8379 	 52.4246
| 26> C 	 37.6597 	 27.0933 	 52.3821
| 27> C 	 38.9075 	 27.1378 	 53.0138
| 28> H 	 36.0718 	 25.578 	 51.9721
| 29> C 	 37.0309 	 28.244 	 51.5966
| 30> H 	 37.1668 	 29.1908 	 52.1177
| 31> H 	 35.996 	 27.9868 	 51.5765
| 32> C 	 37.526 	 28.4134 	 50.1753
| 33> H 	 36.9739 	 27.6596 	 49.5616
| 34> H 	 38.604 	 28.2984 	 49.9489
| 35> C 	 36.964 	 29.7982 	 49.7084
| 36> H 	 36.0077 	 30.034 	 50.1894
| 37> H 	 36.8171 	 29.8277 	 48.62
| 38> H 	 37.5857 	 30.562 	 50.0787
| 39> H 	 42.999 	 29.6471 	 54.1747
| 40> H 	 37.2574 	 23.9203 	 53.4148
| 41> *
| 42>
| 43>                          ****END OF INPUT****

CARTESIAN COORDINATES (ANGSTROEM)
---------------------------------
  S     41.615700   27.797900   53.194200
  C     41.957400   29.344000   53.931800
  C     40.807700   30.132200   54.150800
  C     39.656700   29.376700   53.871900
  C     39.875500   28.153200   53.342800
  H     38.649200   29.783600   53.994100
  C     40.684200   31.508700   54.702700
  H     41.663700   31.897200   55.018300
  H     39.945200   31.641700   55.535900
  C     40.334700   32.449800   53.604400
  H     39.278800   32.652900   53.593700
  H     40.700000   33.415700   53.851200
  C     40.920000   32.198300   52.181000
  H     40.284300   31.410900   51.668400
  H     40.931200   33.116100   51.605400
  H     41.974500   31.783000   52.377600
  S     39.207800   25.540000   53.668400
  C     37.660100   24.871200   53.153400
  C     36.976900   25.837900   52.424600
  C     37.659700   27.093300   52.382100
  C     38.907500   27.137800   53.013800
  H     36.071800   25.578000   51.972100
  C     37.030900   28.244000   51.596600
  H     37.166800   29.190800   52.117700
  H     35.996000   27.986800   51.576500
  C     37.526000   28.413400   50.175300
  H     36.973900   27.659600   49.561600
  H     38.604000   28.298400   49.948900
  C     36.964000   29.798200   49.708400
  H     36.007700   30.034000   50.189400
  H     36.817100   29.827700   48.620000
  H     37.585700   30.562000   50.078700
  H     42.999000   29.647100   54.174700
  H     37.257400   23.920300   53.414800

 Total Charge           Charge          ....    0
 Multiplicity           Mult            ....    1
 Number of Electrons    NEL             ....  134
 Basis Dimension        Dim             ....  322

ORBITAL ENERGIES
----------------

  NO   OCC          E(Eh)            E(eV)
   0   2.0000     -88.969567     -2420.9850
   1   2.0000     -88.962073     -2420.7811
   2   2.0000     -10.329530      -281.0808
   3   2.0000     -10.326138      -280.9885
   4   2.0000     -10.320085      -280.8238
   5   2.0000     -10.317871      -280.7635
   6   2.0000     -10.302916      -280.3566
   7   2.0000     -10.301839      -280.3273
   8   2.0000     -10.294486      -280.1272
   9   2.0000     -10.291439      -280.0443
  10   2.0000     -10.290600      -280.0215
  11   2.0000     -10.287765      -279.9443
  12   2.0000     -10.286683      -279.9149
  13   2.0000     -10.285993      -279.8961
  14   2.0000     -10.276654      -279.6420
  15   2.0000     -10.274191      -279.5749
  16   2.0000      -8.083803      -219.9715
  17   2.0000      -8.076573      -219.7747
  18   2.0000      -6.042287      -164.4190
  19   2.0000      -6.038522      -164.3165
  20   2.0000      -6.035166      -164.2252
  21   2.0000      -6.034484      -164.2067
  22   2.0000      -6.030847      -164.1077
  23   2.0000      -6.027514      -164.0170
  24   2.0000      -1.007321       -27.4106
  25   2.0000      -0.983311       -26.7573
  26   2.0000      -0.921833       -25.0844
  27   2.0000      -0.909425       -24.7467
  28   2.0000      -0.869704       -23.6658
  29   2.0000      -0.851080       -23.1591
  30   2.0000      -0.842244       -22.9186
  31   2.0000      -0.812747       -22.1160
  32   2.0000      -0.782303       -21.2875
  33   2.0000      -0.767916       -20.8961
  34   2.0000      -0.707673       -19.2567
  35   2.0000      -0.694970       -18.9111
  36   2.0000      -0.693103       -18.8603
  37   2.0000      -0.666672       -18.1411
  38   2.0000      -0.638623       -17.3778
  39   2.0000      -0.628247       -17.0955
  40   2.0000      -0.593833       -16.1590
  41   2.0000      -0.570575       -15.5261
  42   2.0000      -0.567707       -15.4481
  43   2.0000      -0.559263       -15.2183
  44   2.0000      -0.547733       -14.9046
  45   2.0000      -0.520097       -14.1526
  46   2.0000      -0.516916       -14.0660
  47   2.0000      -0.511265       -13.9122
  48   2.0000      -0.498855       -13.5745
  49   2.0000      -0.495846       -13.4927
  50   2.0000      -0.490346       -13.3430
  51   2.0000      -0.482304       -13.1242
  52   2.0000      -0.467289       -12.7156
  53   2.0000      -0.463431       -12.6106
  54   2.0000      -0.461611       -12.5611
  55   2.0000      -0.449416       -12.2292
  56   2.0000      -0.447184       -12.1685
  57   2.0000      -0.442383       -12.0379
  58   2.0000      -0.436027       -11.8649
  59   2.0000      -0.420109       -11.4317
  60   2.0000      -0.415100       -11.2955
  61   2.0000      -0.407302       -11.0833
  62   2.0000      -0.403938       -10.9917
  63   2.0000      -0.351904        -9.5758
  64   2.0000      -0.333913        -9.0862
  65   2.0000      -0.326659        -8.8889
  66   2.0000      -0.287212        -7.8154
  67   0.0000       0.026510         0.7214
  68   0.0000       0.067777         1.8443
  69   0.0000       0.107314         2.9202
  70   0.0000       0.117657         3.2016
  71   0.0000       0.123227         3.3532

MULLIKEN ATOMIC CHARGES
-----------------------
   0 S :    0.115951
   1 C :   -0.136782
   2 C :   -0.105773
   3 C :    0.017105
   4 C :   -0.136552
   5 H :    0.017457
   6 C :    0.110135
   7 H :    0.012227
   8 H :    0.048997
   9 C :   -0.105563
  10 H :    0.014017
  11 H :    0.008377
  12 C :   -0.056348
  13 H :    0.050894
  14 H :    0.044379
  15 H :    0.037383
  16 S :    0.088262
  17 C :   -0.083841
  18 C :   -0.019213
  19 C :   -0.052118
  20 C :   -0.121247
  21 H :   -0.000491
  22 C :    0.066145
  23 H :    0.016485
  24 H :    0.015319
  25 C :   -0.075438
  26 H :    0.025023
  27 H :    0.053122
  28 C :   -0.047617
  29 H :    0.021895
  30 H :    0.039792
  31 H :    0.027532
  32 H :    0.059409
  33 H :    0.051079
Sum of atomic charges:   -0.0000000

LOEWDIN ATOMIC CHARGES
----------------------
   0 S :    0.395643
   1 C :   -0.201673
   2 C :   -0.061150
   3 C :   -0.058724
   4 C :   -0.182772
   5 H :    0.035110
   6 C :   -0.034128
   7 H :    0.031973
   8 H :    0.042881
   9 C :   -0.051201
  10 H :    0.015207
  11 H :    0.018563
  12 C :   -0.068615
  13 H :    0.032062
  14 H :    0.024769
  15 H :    0.034555
  16 S :    0.402391
  17 C :   -0.175367
  18 C :   -0.067579
  19 C :   -0.056966
  20 C :   -0.200237
  21 H :    0.022751
  22 C :   -0.030963
  23 H :    0.024056
  24 H :    0.028279
  25 C :   -0.038241
  26 H :    0.025484
  27 H :    0.030449
  28 C :   -0.063633
  29 H :    0.024920
  30 H :    0.026715
  31 H :    0.017673
  32 H :    0.030996
  33 H :    0.026773

  Mayer bond orders larger than 0.100000
B(  0-S ,  1-C ) :   1.1437 B(  0-S ,  4-C ) :   1.1335 B(  1-C ,  2-C ) :   1.5930
B(  1-C , 32-H ) :   0.9588 B(  2-C ,  3-C ) :   1.2377 B(  2-C ,  6-C ) :   1.0498
B(  3-C ,  4-C ) :   1.5975 B(  3-C ,  5-H ) :   0.9919 B(  4-C , 20-C ) :   1.0453
B(  6-C ,  7-H ) :   0.9272 B(  6-C ,  8-H ) :   0.9457 B(  6-C ,  9-C ) :   1.0610
B(  9-C , 10-H ) :   0.9494 B(  9-C , 11-H ) :   0.9566 B(  9-C , 12-C ) :   1.0799
B( 12-C , 13-H ) :   0.9687 B( 12-C , 14-H ) :   0.9750 B( 12-C , 15-H ) :   0.9685
B( 16-S , 17-C ) :   1.1671 B( 16-S , 20-C ) :   1.1348 B( 17-C , 18-C ) :   1.5779
B( 17-C , 20-C ) :   0.1052 B( 17-C , 33-H ) :   0.9722 B( 18-C , 19-C ) :   1.2621
B( 18-C , 21-H ) :   0.9997 B( 19-C , 20-C ) :   1.5696 B( 19-C , 22-C ) :   1.0378
B( 22-C , 23-H ) :   0.9442 B( 22-C , 24-H ) :   0.9232 B( 22-C , 25-C ) :   1.0667
B( 25-C , 26-H ) :   0.9547 B( 25-C , 27-H ) :   0.9638 B( 25-C , 28-C ) :   1.0686
B( 28-C , 29-H ) :   0.9691 B( 28-C , 30-H ) :   0.9754 B( 28-C , 31-H ) :   0.9774

Dispersion correction           -0.014973750
FINAL SINGLE POINT ENERGY     -1339.871191543682

DIPOLE MOMENT
-------------
                                X             Y             Z
Electronic contribution:      9.19624     -25.07421      11.58552
Nuclear contribution   :     -9.63403      25.62343     -11.64439
                        -----------------------------------------
Total Dipole Moment    :     -0.43778       0.54921      -0.05887
                        -----------------------------------------
Magnitude (a.u.)       :      0.70481
Magnitude (Debye)      :      1.79148

Rotational constants in cm-1:     0.017993     0.010210     0.007371
Rotational constants in MHz :   539.407179   306.098726   220.978350

                             ****ORCA TERMINATED NORMALLY****
TOTAL RUN TIME: 0 days 0 hours 0 minutes 34 seconds 584 msec
