                         Program Version 4.2.1 -  RELEASE  -
|  1> ! wB97X-D3 SP def2-SVP
|  2> %pal
|  3> nprocs 16
|  4> end
|  5>
|  6> * xyz 0 1
|  7> S 	 2.24235 	 -4.30048 	 78.037
|  8> C 	 1.16645 	 -5.49037 	 77.332
|  9> C 	 -0.136367 	 -5.22367 	 77.6306
| 10> C 	 -0.333831 	 -3.95893 	 78.2603
| 11> C 	 0.885973 	 -3.33312 	 78.5818
| 12> H 	 -1.21298 	 -3.55804 	 78.7315
| 13> C 	 -1.4155 	 -6.05338 	 77.2876
| 14> H 	 -1.00465 	 -6.74145 	 76.5341
| 15> H 	 -2.1713 	 -5.48629 	 76.7071
| 16> C 	 -1.99066 	 -6.87635 	 78.4474
| 17> H 	 -2.63155 	 -7.6954 	 77.9699
| 18> H 	 -1.19096 	 -7.35351 	 78.9644
| 19> C 	 -2.91141 	 -6.0415 	 79.3114
| 20> H 	 -3.27528 	 -6.76826 	 80.0541
| 21> H 	 -2.33599 	 -5.20291 	 79.7157
| 22> H 	 -3.68892 	 -5.5311 	 78.7544
| 23> S 	 2.43462 	 -1.94375 	 80.4262
| 24> C 	 1.99682 	 -0.367916 	 81.0266
| 25> C 	 0.899481 	 0.0280451 	 80.2673
| 26> C 	 0.285907 	 -0.917677 	 79.3901
| 27> C 	 1.0712 	 -2.08322 	 79.326
| 28> H 	 0.513186 	 1.03259 	 80.5726
| 29> C 	 -0.935481 	 -0.470757 	 78.6366
| 30> H 	 -1.01861 	 -1.02706 	 77.7596
| 31> H 	 -0.871686 	 0.55549 	 78.2383
| 32> C 	 -2.18798 	 -0.249867 	 79.5415
| 33> H 	 -2.98202 	 0.22321 	 79.0225
| 34> H 	 -1.92101 	 0.398836 	 80.4022
| 35> C 	 -2.63443 	 -1.54288 	 80.1998
| 36> H 	 -3.10288 	 -2.24107 	 79.5349
| 37> H 	 -3.35261 	 -1.39432 	 80.9916
| 38> H 	 -1.89746 	 -2.01085 	 80.795
| 39> H 	 1.46263 	 -6.39662 	 76.8047
| 40> H 	 2.70691 	 0.195628 	 81.6724
| 41> *
| 42>
| 43>                          ****END OF INPUT****

CARTESIAN COORDINATES (ANGSTROEM)
---------------------------------
  S      2.242350   -4.300480   78.037000
  C      1.166450   -5.490370   77.332000
  C     -0.136367   -5.223670   77.630600
  C     -0.333831   -3.958930   78.260300
  C      0.885973   -3.333120   78.581800
  H     -1.212980   -3.558040   78.731500
  C     -1.415500   -6.053380   77.287600
  H     -1.004650   -6.741450   76.534100
  H     -2.171300   -5.486290   76.707100
  C     -1.990660   -6.876350   78.447400
  H     -2.631550   -7.695400   77.969900
  H     -1.190960   -7.353510   78.964400
  C     -2.911410   -6.041500   79.311400
  H     -3.275280   -6.768260   80.054100
  H     -2.335990   -5.202910   79.715700
  H     -3.688920   -5.531100   78.754400
  S      2.434620   -1.943750   80.426200
  C      1.996820   -0.367916   81.026600
  C      0.899481    0.028045   80.267300
  C      0.285907   -0.917677   79.390100
  C      1.071200   -2.083220   79.326000
  H      0.513186    1.032590   80.572600
  C     -0.935481   -0.470757   78.636600
  H     -1.018610   -1.027060   77.759600
  H     -0.871686    0.555490   78.238300
  C     -2.187980   -0.249867   79.541500
  H     -2.982020    0.223210   79.022500
  H     -1.921010    0.398836   80.402200
  C     -2.634430   -1.542880   80.199800
  H     -3.102880   -2.241070   79.534900
  H     -3.352610   -1.394320   80.991600
  H     -1.897460   -2.010850   80.795000
  H      1.462630   -6.396620   76.804700
  H      2.706910    0.195628   81.672400

 Total Charge           Charge          ....    0
 Multiplicity           Mult            ....    1
 Number of Electrons    NEL             ....  134
 Basis Dimension        Dim             ....  322

ORBITAL ENERGIES
----------------

  NO   OCC          E(Eh)            E(eV)
   0   2.0000     -88.969736     -2420.9896
   1   2.0000     -88.962829     -2420.8016
   2   2.0000     -10.335423      -281.2412
   3   2.0000     -10.334119      -281.2057
   4   2.0000     -10.322608      -280.8924
   5   2.0000     -10.315081      -280.6876
   6   2.0000     -10.308407      -280.5060
   7   2.0000     -10.301843      -280.3274
   8   2.0000     -10.298706      -280.2420
   9   2.0000     -10.294342      -280.1233
  10   2.0000     -10.292425      -280.0711
  11   2.0000     -10.290420      -280.0166
  12   2.0000     -10.289940      -280.0035
  13   2.0000     -10.287860      -279.9469
  14   2.0000     -10.276693      -279.6430
  15   2.0000     -10.266954      -279.3780
  16   2.0000      -8.084139      -219.9806
  17   2.0000      -8.077847      -219.8094
  18   2.0000      -6.042715      -164.4306
  19   2.0000      -6.038699      -164.3214
  20   2.0000      -6.036367      -164.2579
  21   2.0000      -6.034841      -164.2164
  22   2.0000      -6.032100      -164.1418
  23   2.0000      -6.028793      -164.0518
  24   2.0000      -1.006149       -27.3787
  25   2.0000      -0.984802       -26.7978
  26   2.0000      -0.913128       -24.8475
  27   2.0000      -0.909853       -24.7584
  28   2.0000      -0.869979       -23.6733
  29   2.0000      -0.851764       -23.1777
  30   2.0000      -0.843460       -22.9517
  31   2.0000      -0.812418       -22.1070
  32   2.0000      -0.786658       -21.4060
  33   2.0000      -0.776072       -21.1180
  34   2.0000      -0.711259       -19.3543
  35   2.0000      -0.698673       -19.0119
  36   2.0000      -0.694472       -18.8975
  37   2.0000      -0.657732       -17.8978
  38   2.0000      -0.637834       -17.3563
  39   2.0000      -0.618457       -16.8291
  40   2.0000      -0.601679       -16.3725
  41   2.0000      -0.570340       -15.5197
  42   2.0000      -0.551718       -15.0130
  43   2.0000      -0.548909       -14.9366
  44   2.0000      -0.544714       -14.8224
  45   2.0000      -0.534758       -14.5515
  46   2.0000      -0.527616       -14.3572
  47   2.0000      -0.516451       -14.0534
  48   2.0000      -0.505126       -13.7452
  49   2.0000      -0.495666       -13.4877
  50   2.0000      -0.490188       -13.3387
  51   2.0000      -0.486256       -13.2317
  52   2.0000      -0.471956       -12.8426
  53   2.0000      -0.468732       -12.7548
  54   2.0000      -0.458169       -12.4674
  55   2.0000      -0.446375       -12.1465
  56   2.0000      -0.442870       -12.0511
  57   2.0000      -0.441379       -12.0105
  58   2.0000      -0.427564       -11.6346
  59   2.0000      -0.423055       -11.5119
  60   2.0000      -0.415407       -11.3038
  61   2.0000      -0.413118       -11.2415
  62   2.0000      -0.400927       -10.9098
  63   2.0000      -0.357850        -9.7376
  64   2.0000      -0.334316        -9.0972
  65   2.0000      -0.327834        -8.9208
  66   2.0000      -0.287033        -7.8106
  67   0.0000       0.021062         0.5731
  68   0.0000       0.077839         2.1181
  69   0.0000       0.109434         2.9778
  70   0.0000       0.117058         3.1853
  71   0.0000       0.128925         3.5082

MULLIKEN ATOMIC CHARGES
-----------------------
   0 S :    0.113893
   1 C :   -0.121077
   2 C :   -0.083907
   3 C :    0.032921
   4 C :   -0.144456
   5 H :   -0.014867
   6 C :    0.029829
   7 H :    0.009051
   8 H :    0.039591
   9 C :   -0.061741
  10 H :    0.036063
  11 H :    0.028832
  12 C :   -0.033772
  13 H :    0.046457
  14 H :    0.029544
  15 H :    0.024212
  16 S :    0.083911
  17 C :   -0.121288
  18 C :   -0.059213
  19 C :   -0.038214
  20 C :   -0.130064
  21 H :    0.036555
  22 C :    0.086787
  23 H :    0.013327
  24 H :    0.029417
  25 C :   -0.067806
  26 H :    0.027852
  27 H :    0.033221
  28 C :   -0.038019
  29 H :    0.033478
  30 H :    0.013962
  31 H :    0.030895
  32 H :    0.048609
  33 H :    0.086020
Sum of atomic charges:    0.0000000

LOEWDIN ATOMIC CHARGES
----------------------
   0 S :    0.406765
   1 C :   -0.201714
   2 C :   -0.062597
   3 C :   -0.068528
   4 C :   -0.184635
   5 H :    0.026062
   6 C :   -0.035160
   7 H :    0.027006
   8 H :    0.032633
   9 C :   -0.039152
  10 H :    0.030801
  11 H :    0.022519
  12 C :   -0.066115
  13 H :    0.032671
  14 H :    0.024327
  15 H :    0.023048
  16 S :    0.400332
  17 C :   -0.200678
  18 C :   -0.074894
  19 C :   -0.061213
  20 C :   -0.191197
  21 H :    0.034771
  22 C :   -0.029936
  23 H :    0.021233
  24 H :    0.040456
  25 C :   -0.029025
  26 H :    0.020117
  27 H :    0.030618
  28 C :   -0.072003
  29 H :    0.018337
  30 H :    0.026119
  31 H :    0.023682
  32 H :    0.032853
  33 H :    0.042498

  Mayer bond orders larger than 0.100000
B(  0-S ,  1-C ) :   1.1240 B(  0-S ,  4-C ) :   1.1560 B(  1-C ,  2-C ) :   1.6386
B(  1-C , 32-H ) :   0.9625 B(  2-C ,  3-C ) :   1.2344 B(  2-C ,  6-C ) :   1.0091
B(  3-C ,  4-C ) :   1.5647 B(  3-C ,  5-H ) :   0.9835 B(  4-C , 20-C ) :   1.0628
B(  6-C ,  7-H ) :   0.9366 B(  6-C ,  8-H ) :   0.9508 B(  6-C ,  9-C ) :   1.0683
B(  9-C , 10-H ) :   0.9551 B(  9-C , 11-H ) :   0.9521 B(  9-C , 12-C ) :   1.0798
B( 12-C , 13-H ) :   0.9714 B( 12-C , 14-H ) :   0.9701 B( 12-C , 15-H ) :   0.9741
B( 16-S , 17-C ) :   1.1533 B( 16-S , 20-C ) :   1.1557 B( 17-C , 18-C ) :   1.5867
B( 17-C , 20-C ) :   0.1045 B( 17-C , 33-H ) :   0.9654 B( 18-C , 19-C ) :   1.2523
B( 18-C , 21-H ) :   0.9783 B( 19-C , 20-C ) :   1.5429 B( 19-C , 22-C ) :   1.0487
B( 22-C , 23-H ) :   0.9395 B( 22-C , 24-H ) :   0.9365 B( 22-C , 25-C ) :   1.0532
B( 25-C , 26-H ) :   0.9580 B( 25-C , 27-H ) :   0.9565 B( 25-C , 28-C ) :   1.0900
B( 28-C , 29-H ) :   0.9656 B( 28-C , 30-H ) :   0.9643 B( 28-C , 31-H ) :   0.9657

Dispersion correction           -0.015407582
FINAL SINGLE POINT ENERGY     -1339.869504873193

DIPOLE MOMENT
-------------
                                X             Y             Z
Electronic contribution:     28.90630       3.47529      -0.65596
Nuclear contribution   :    -29.52610      -3.35041       0.66915
                        -----------------------------------------
Total Dipole Moment    :     -0.61981       0.12488       0.01319
                        -----------------------------------------
Magnitude (a.u.)       :      0.63240
Magnitude (Debye)      :      1.60743

Rotational constants in cm-1:     0.018054     0.010136     0.007310
Rotational constants in MHz :   541.253137   303.855244   219.143052

                             ****ORCA TERMINATED NORMALLY****
TOTAL RUN TIME: 0 days 0 hours 0 minutes 38 seconds 0 msec
