                         Program Version 4.2.1 -  RELEASE  -
|  1> ! wB97X-D3 SP def2-SVP
|  2> %pal
|  3> nprocs 16
|  4> end
|  5>
|  6> * xyz 0 1
|  7> S 	 -0.136525 	 -20.815 	 84.4096
|  8> C 	 -0.57145 	 -21.9478 	 85.6437
|  9> C 	 0.517647 	 -22.6402 	 86.1305
| 10> C 	 1.70151 	 -22.2986 	 85.4987
| 11> C 	 1.5872 	 -21.1857 	 84.6709
| 12> H 	 2.68875 	 -22.5837 	 85.712
| 13> C 	 0.384786 	 -23.6794 	 87.2273
| 14> H 	 1.09961 	 -24.5308 	 86.9769
| 15> H 	 -0.603879 	 -24.1437 	 87.2719
| 16> C 	 0.709518 	 -23.1177 	 88.6448
| 17> H 	 0.669922 	 -23.9956 	 89.3137
| 18> H 	 1.74204 	 -22.7119 	 88.5407
| 19> C 	 -0.197372 	 -21.9788 	 89.0349
| 20> H 	 0.0855224 	 -21.6938 	 90.0149
| 21> H 	 0.0485934 	 -21.1128 	 88.3866
| 22> H 	 -1.23668 	 -22.2862 	 88.9471
| 23> S 	 2.98695 	 -20.4908 	 82.4643
| 24> C 	 4.41009 	 -19.3918 	 82.6061
| 25> C 	 4.55894 	 -19.0492 	 83.9089
| 26> C 	 3.69054 	 -19.6525 	 84.8277
| 27> C 	 2.69853 	 -20.3929 	 84.1999
| 28> H 	 5.45228 	 -18.5134 	 84.2758
| 29> C 	 3.86826 	 -19.4026 	 86.3406
| 30> H 	 4.84375 	 -19.6971 	 86.7217
| 31> H 	 3.0412 	 -19.9969 	 86.9538
| 32> C 	 3.66971 	 -17.9036 	 86.6791
| 33> H 	 2.64154 	 -17.6582 	 86.4353
| 34> H 	 4.45485 	 -17.291 	 86.1388
| 35> C 	 3.7412 	 -17.7154 	 88.1787
| 36> H 	 3.69169 	 -16.613 	 88.3931
| 37> H 	 4.70034 	 -18.1067 	 88.4865
| 38> H 	 2.90517 	 -18.2208 	 88.7481
| 39> H 	 -1.56696 	 -22.1389 	 86.0386
| 40> H 	 4.92599 	 -18.9346 	 81.7549
| 41> *
| 42>
| 43>                          ****END OF INPUT****

CARTESIAN COORDINATES (ANGSTROEM)
---------------------------------
  S     -0.136525  -20.815000   84.409600
  C     -0.571450  -21.947800   85.643700
  C      0.517647  -22.640200   86.130500
  C      1.701510  -22.298600   85.498700
  C      1.587200  -21.185700   84.670900
  H      2.688750  -22.583700   85.712000
  C      0.384786  -23.679400   87.227300
  H      1.099610  -24.530800   86.976900
  H     -0.603879  -24.143700   87.271900
  C      0.709518  -23.117700   88.644800
  H      0.669922  -23.995600   89.313700
  H      1.742040  -22.711900   88.540700
  C     -0.197372  -21.978800   89.034900
  H      0.085522  -21.693800   90.014900
  H      0.048593  -21.112800   88.386600
  H     -1.236680  -22.286200   88.947100
  S      2.986950  -20.490800   82.464300
  C      4.410090  -19.391800   82.606100
  C      4.558940  -19.049200   83.908900
  C      3.690540  -19.652500   84.827700
  C      2.698530  -20.392900   84.199900
  H      5.452280  -18.513400   84.275800
  C      3.868260  -19.402600   86.340600
  H      4.843750  -19.697100   86.721700
  H      3.041200  -19.996900   86.953800
  C      3.669710  -17.903600   86.679100
  H      2.641540  -17.658200   86.435300
  H      4.454850  -17.291000   86.138800
  C      3.741200  -17.715400   88.178700
  H      3.691690  -16.613000   88.393100
  H      4.700340  -18.106700   88.486500
  H      2.905170  -18.220800   88.748100
  H     -1.566960  -22.138900   86.038600
  H      4.925990  -18.934600   81.754900

 Total Charge           Charge          ....    0
 Multiplicity           Mult            ....    1
 Number of Electrons    NEL             ....  134
 Basis Dimension        Dim             ....  322

ORBITAL ENERGIES
----------------

  NO   OCC          E(Eh)            E(eV)
   0   2.0000     -88.968829     -2420.9649
   1   2.0000     -88.962077     -2420.7812
   2   2.0000     -10.328234      -281.0455
   3   2.0000     -10.327571      -281.0275
   4   2.0000     -10.321244      -280.8553
   5   2.0000     -10.312289      -280.6116
   6   2.0000     -10.304301      -280.3943
   7   2.0000     -10.303917      -280.3838
   8   2.0000     -10.295671      -280.1594
   9   2.0000     -10.295096      -280.1438
  10   2.0000     -10.292212      -280.0653
  11   2.0000     -10.289111      -279.9810
  12   2.0000     -10.289031      -279.9788
  13   2.0000     -10.288654      -279.9685
  14   2.0000     -10.282783      -279.8088
  15   2.0000     -10.274484      -279.5829
  16   2.0000      -8.083209      -219.9553
  17   2.0000      -8.076220      -219.7651
  18   2.0000      -6.041652      -164.4017
  19   2.0000      -6.037746      -164.2954
  20   2.0000      -6.034821      -164.2158
  21   2.0000      -6.034072      -164.1954
  22   2.0000      -6.030766      -164.1055
  23   2.0000      -6.026945      -164.0015
  24   2.0000      -1.007068       -27.4037
  25   2.0000      -0.985665       -26.8213
  26   2.0000      -0.912225       -24.8229
  27   2.0000      -0.908398       -24.7188
  28   2.0000      -0.872041       -23.7294
  29   2.0000      -0.853158       -23.2156
  30   2.0000      -0.846869       -23.0445
  31   2.0000      -0.813995       -22.1499
  32   2.0000      -0.779605       -21.2141
  33   2.0000      -0.767140       -20.8750
  34   2.0000      -0.707253       -19.2453
  35   2.0000      -0.687975       -18.7208
  36   2.0000      -0.685706       -18.6590
  37   2.0000      -0.661481       -17.9998
  38   2.0000      -0.645226       -17.5575
  39   2.0000      -0.619209       -16.8495
  40   2.0000      -0.597839       -16.2680
  41   2.0000      -0.572553       -15.5800
  42   2.0000      -0.570684       -15.5291
  43   2.0000      -0.548463       -14.9244
  44   2.0000      -0.543520       -14.7899
  45   2.0000      -0.523031       -14.2324
  46   2.0000      -0.518037       -14.0965
  47   2.0000      -0.511516       -13.9191
  48   2.0000      -0.500839       -13.6285
  49   2.0000      -0.499616       -13.5953
  50   2.0000      -0.488606       -13.2957
  51   2.0000      -0.480863       -13.0849
  52   2.0000      -0.469977       -12.7887
  53   2.0000      -0.467151       -12.7118
  54   2.0000      -0.460511       -12.5311
  55   2.0000      -0.446242       -12.1429
  56   2.0000      -0.441531       -12.0147
  57   2.0000      -0.428744       -11.6667
  58   2.0000      -0.426936       -11.6175
  59   2.0000      -0.425776       -11.5859
  60   2.0000      -0.424912       -11.5624
  61   2.0000      -0.415434       -11.3045
  62   2.0000      -0.414884       -11.2896
  63   2.0000      -0.341702        -9.2982
  64   2.0000      -0.334384        -9.0990
  65   2.0000      -0.324493        -8.8299
  66   2.0000      -0.299280        -8.1438
  67   0.0000       0.031230         0.8498
  68   0.0000       0.056931         1.5492
  69   0.0000       0.109765         2.9869
  70   0.0000       0.116494         3.1700
  71   0.0000       0.127589         3.4719

MULLIKEN ATOMIC CHARGES
-----------------------
   0 S :    0.127762
   1 C :   -0.106794
   2 C :   -0.096330
   3 C :    0.084539
   4 C :   -0.188340
   5 H :   -0.005301
   6 C :    0.025635
   7 H :    0.039237
   8 H :    0.022270
   9 C :   -0.089520
  10 H :    0.039756
  11 H :    0.027244
  12 C :   -0.025807
  13 H :    0.026419
  14 H :    0.048909
  15 H :    0.029876
  16 S :    0.086125
  17 C :   -0.094738
  18 C :   -0.038843
  19 C :    0.017439
  20 C :   -0.193199
  21 H :    0.030141
  22 C :    0.006730
  23 H :    0.028795
  24 H :    0.046117
  25 C :   -0.098767
  26 H :    0.035096
  27 H :    0.045346
  28 C :   -0.049032
  29 H :    0.042528
  30 H :    0.018603
  31 H :    0.044052
  32 H :    0.044037
  33 H :    0.070016
Sum of atomic charges:   -0.0000000

LOEWDIN ATOMIC CHARGES
----------------------
   0 S :    0.406768
   1 C :   -0.199381
   2 C :   -0.073918
   3 C :   -0.046475
   4 C :   -0.194408
   5 H :    0.025664
   6 C :   -0.036454
   7 H :    0.036969
   8 H :    0.024196
   9 C :   -0.041736
  10 H :    0.024555
  11 H :    0.024890
  12 C :   -0.062642
  13 H :    0.022119
  14 H :    0.033437
  15 H :    0.022723
  16 S :    0.379159
  17 C :   -0.168473
  18 C :   -0.077748
  19 C :   -0.058405
  20 C :   -0.193693
  21 H :    0.036012
  22 C :   -0.035480
  23 H :    0.024731
  24 H :    0.040824
  25 C :   -0.045034
  26 H :    0.026525
  27 H :    0.028987
  28 C :   -0.069630
  29 H :    0.031379
  30 H :    0.017286
  31 H :    0.031438
  32 H :    0.029584
  33 H :    0.036232

  Mayer bond orders larger than 0.100000
B(  0-S ,  1-C ) :   1.1483 B(  0-S ,  4-C ) :   1.1476 B(  1-C ,  2-C ) :   1.5940
B(  1-C ,  4-C ) :   0.1047 B(  1-C , 32-H ) :   0.9650 B(  2-C ,  3-C ) :   1.2561
B(  2-C ,  6-C ) :   1.0201 B(  3-C ,  4-C ) :   1.5568 B(  3-C ,  5-H ) :   1.0038
B(  4-C , 20-C ) :   1.0309 B(  6-C ,  7-H ) :   0.9451 B(  6-C ,  8-H ) :   0.9457
B(  6-C ,  9-C ) :   1.0633 B(  9-C , 10-H ) :   0.9577 B(  9-C , 11-H ) :   0.9555
B(  9-C , 12-C ) :   1.0800 B( 12-C , 13-H ) :   0.9698 B( 12-C , 14-H ) :   0.9679
B( 12-C , 15-H ) :   0.9753 B( 16-S , 17-C ) :   1.1341 B( 16-S , 20-C ) :   1.1498
B( 17-C , 18-C ) :   1.6259 B( 17-C , 20-C ) :   0.1054 B( 17-C , 33-H ) :   0.9652
B( 18-C , 19-C ) :   1.2452 B( 18-C , 21-H ) :   0.9734 B( 19-C , 20-C ) :   1.6079
B( 19-C , 22-C ) :   1.0317 B( 22-C , 23-H ) :   0.9364 B( 22-C , 24-H ) :   0.9419
B( 22-C , 25-C ) :   1.0635 B( 25-C , 26-H ) :   0.9536 B( 25-C , 27-H ) :   0.9517
B( 25-C , 28-C ) :   1.0896 B( 28-C , 29-H ) :   0.9730 B( 28-C , 30-H ) :   0.9713
B( 28-C , 31-H ) :   0.9727

Dispersion correction           -0.014839012
FINAL SINGLE POINT ENERGY     -1339.879185756408

DIPOLE MOMENT
-------------
                                X             Y             Z
Electronic contribution:     -3.10088      -2.26294     -29.21443
Nuclear contribution   :      3.39432       2.30699      29.89772
                        -----------------------------------------
Total Dipole Moment    :      0.29344       0.04404       0.68328
                        -----------------------------------------
Magnitude (a.u.)       :      0.74493
Magnitude (Debye)      :      1.89347

Rotational constants in cm-1:     0.017319     0.009798     0.007202
Rotational constants in MHz :   519.198580   293.724003   215.906271

                             ****ORCA TERMINATED NORMALLY****
TOTAL RUN TIME: 0 days 0 hours 0 minutes 35 seconds 61 msec
