                         Program Version 4.2.1 -  RELEASE  -
|  1> ! wB97X-D3 SP def2-SVP
|  2> %pal
|  3> nprocs 16
|  4> end
|  5>
|  6> * xyz 0 1
|  7> S 	 -97.1799 	 38.359 	 124.931
|  8> C 	 -96.1768 	 37.714 	 126.262
|  9> C 	 -94.8768 	 37.5485 	 125.782
| 10> C 	 -94.7411 	 37.8707 	 124.346
| 11> C 	 -95.9195 	 38.3784 	 123.783
| 12> H 	 -93.8791 	 37.7779 	 123.71
| 13> C 	 -93.8094 	 36.9328 	 126.641
| 14> H 	 -93.1205 	 36.3461 	 125.922
| 15> H 	 -94.2924 	 36.2279 	 127.356
| 16> C 	 -93.0304 	 38.0544 	 127.393
| 17> H 	 -92.1741 	 37.518 	 127.941
| 18> H 	 -92.4259 	 38.638 	 126.679
| 19> C 	 -93.8192 	 39.038 	 128.237
| 20> H 	 -94.1044 	 39.819 	 127.586
| 21> H 	 -94.6234 	 38.5945 	 128.765
| 22> H 	 -93.1886 	 39.5026 	 128.999
| 23> S 	 -95.8001 	 37.7462 	 120.996
| 24> C 	 -96.3964 	 38.9765 	 119.929
| 25> C 	 -96.4447 	 40.2081 	 120.525
| 26> C 	 -96.3251 	 40.1429 	 121.983
| 27> C 	 -96.044 	 38.8502 	 122.403
| 28> H 	 -96.7231 	 41.1332 	 119.992
| 29> C 	 -96.37 	 41.3803 	 122.826
| 30> H 	 -95.3928 	 41.4963 	 123.111
| 31> H 	 -96.8518 	 41.1321 	 123.784
| 32> C 	 -97.0126 	 42.6611 	 122.269
| 33> H 	 -96.4307 	 43.0612 	 121.476
| 34> H 	 -96.8377 	 43.3251 	 123.103
| 35> C 	 -98.5347 	 42.6598 	 122.143
| 36> H 	 -98.8573 	 43.7112 	 121.931
| 37> H 	 -98.9412 	 42.4528 	 123.111
| 38> H 	 -98.9165 	 42.0571 	 121.358
| 39> H 	 -96.5813 	 37.5345 	 127.245
| 40> H 	 -96.5291 	 38.89 	 118.915
| 41> *
| 42>
| 43>                          ****END OF INPUT****

CARTESIAN COORDINATES (ANGSTROEM)
---------------------------------
  S    -97.179900   38.359000  124.931000
  C    -96.176800   37.714000  126.262000
  C    -94.876800   37.548500  125.782000
  C    -94.741100   37.870700  124.346000
  C    -95.919500   38.378400  123.783000
  H    -93.879100   37.777900  123.710000
  C    -93.809400   36.932800  126.641000
  H    -93.120500   36.346100  125.922000
  H    -94.292400   36.227900  127.356000
  C    -93.030400   38.054400  127.393000
  H    -92.174100   37.518000  127.941000
  H    -92.425900   38.638000  126.679000
  C    -93.819200   39.038000  128.237000
  H    -94.104400   39.819000  127.586000
  H    -94.623400   38.594500  128.765000
  H    -93.188600   39.502600  128.999000
  S    -95.800100   37.746200  120.996000
  C    -96.396400   38.976500  119.929000
  C    -96.444700   40.208100  120.525000
  C    -96.325100   40.142900  121.983000
  C    -96.044000   38.850200  122.403000
  H    -96.723100   41.133200  119.992000
  C    -96.370000   41.380300  122.826000
  H    -95.392800   41.496300  123.111000
  H    -96.851800   41.132100  123.784000
  C    -97.012600   42.661100  122.269000
  H    -96.430700   43.061200  121.476000
  H    -96.837700   43.325100  123.103000
  C    -98.534700   42.659800  122.143000
  H    -98.857300   43.711200  121.931000
  H    -98.941200   42.452800  123.111000
  H    -98.916500   42.057100  121.358000
  H    -96.581300   37.534500  127.245000
  H    -96.529100   38.890000  118.915000

 Total Charge           Charge          ....    0
 Multiplicity           Mult            ....    1
 Number of Electrons    NEL             ....  134
 Basis Dimension        Dim             ....  322

ORBITAL ENERGIES
----------------

  NO   OCC          E(Eh)            E(eV)
   0   2.0000     -88.965141     -2420.8646
   1   2.0000     -88.963054     -2420.8078
   2   2.0000     -10.327622      -281.0289
   3   2.0000     -10.325818      -280.9798
   4   2.0000     -10.316735      -280.7326
   5   2.0000     -10.310806      -280.5713
   6   2.0000     -10.306419      -280.4519
   7   2.0000     -10.303396      -280.3697
   8   2.0000     -10.301492      -280.3178
   9   2.0000     -10.296238      -280.1749
  10   2.0000     -10.294038      -280.1150
  11   2.0000     -10.291921      -280.0574
  12   2.0000     -10.284422      -279.8534
  13   2.0000     -10.282694      -279.8063
  14   2.0000     -10.277427      -279.6630
  15   2.0000     -10.271136      -279.4918
  16   2.0000      -8.079301      -219.8490
  17   2.0000      -8.077678      -219.8048
  18   2.0000      -6.038019      -164.3028
  19   2.0000      -6.036210      -164.2536
  20   2.0000      -6.034065      -164.1952
  21   2.0000      -6.031968      -164.1382
  22   2.0000      -6.029709      -164.0767
  23   2.0000      -6.028651      -164.0479
  24   2.0000      -0.999989       -27.2111
  25   2.0000      -0.978232       -26.6190
  26   2.0000      -0.913227       -24.8502
  27   2.0000      -0.909734       -24.7551
  28   2.0000      -0.866605       -23.5815
  29   2.0000      -0.848237       -23.0817
  30   2.0000      -0.841822       -22.9072
  31   2.0000      -0.811441       -22.0804
  32   2.0000      -0.788031       -21.4434
  33   2.0000      -0.775817       -21.1111
  34   2.0000      -0.709442       -19.3049
  35   2.0000      -0.702133       -19.1060
  36   2.0000      -0.690308       -18.7842
  37   2.0000      -0.655509       -17.8373
  38   2.0000      -0.638038       -17.3619
  39   2.0000      -0.607760       -16.5380
  40   2.0000      -0.600505       -16.3406
  41   2.0000      -0.567013       -15.4292
  42   2.0000      -0.560450       -15.2506
  43   2.0000      -0.547091       -14.8871
  44   2.0000      -0.542193       -14.7538
  45   2.0000      -0.535891       -14.5823
  46   2.0000      -0.524255       -14.2657
  47   2.0000      -0.515028       -14.0146
  48   2.0000      -0.504474       -13.7274
  49   2.0000      -0.494848       -13.4655
  50   2.0000      -0.487173       -13.2566
  51   2.0000      -0.479181       -13.0392
  52   2.0000      -0.473818       -12.8933
  53   2.0000      -0.464884       -12.6501
  54   2.0000      -0.459362       -12.4999
  55   2.0000      -0.448181       -12.1956
  56   2.0000      -0.444569       -12.0973
  57   2.0000      -0.440821       -11.9953
  58   2.0000      -0.436851       -11.8873
  59   2.0000      -0.425702       -11.5839
  60   2.0000      -0.415969       -11.3191
  61   2.0000      -0.412703       -11.2302
  62   2.0000      -0.401848       -10.9348
  63   2.0000      -0.337289        -9.1781
  64   2.0000      -0.326602        -8.8873
  65   2.0000      -0.323712        -8.8087
  66   2.0000      -0.296482        -8.0677
  67   0.0000       0.038181         1.0390
  68   0.0000       0.060041         1.6338
  69   0.0000       0.103667         2.8209
  70   0.0000       0.123094         3.3495
  71   0.0000       0.134648         3.6640

MULLIKEN ATOMIC CHARGES
-----------------------
   0 S :    0.106867
   1 C :   -0.141227
   2 C :   -0.077665
   3 C :    0.027057
   4 C :   -0.161176
   5 H :    0.008311
   6 C :    0.029545
   7 H :    0.045256
   8 H :    0.041625
   9 C :   -0.114788
  10 H :    0.033020
  11 H :    0.023480
  12 C :    0.001729
  13 H :    0.037980
  14 H :    0.018851
  15 H :    0.030013
  16 S :    0.110140
  17 C :   -0.043936
  18 C :   -0.049744
  19 C :   -0.061787
  20 C :   -0.169908
  21 H :    0.032244
  22 C :    0.109464
  23 H :    0.016514
  24 H :    0.010103
  25 C :   -0.068908
  26 H :    0.025673
  27 H :    0.021571
  28 C :   -0.015355
  29 H :    0.031360
  30 H :    0.027740
  31 H :    0.036159
  32 H :    0.055564
  33 H :    0.024229
Sum of atomic charges:   -0.0000000

LOEWDIN ATOMIC CHARGES
----------------------
   0 S :    0.413152
   1 C :   -0.192496
   2 C :   -0.060093
   3 C :   -0.070706
   4 C :   -0.206703
   5 H :    0.027267
   6 C :   -0.038598
   7 H :    0.042603
   8 H :    0.033504
   9 C :   -0.049564
  10 H :    0.025617
  11 H :    0.024110
  12 C :   -0.060221
  13 H :    0.026983
  14 H :    0.017562
  15 H :    0.032420
  16 S :    0.385804
  17 C :   -0.170353
  18 C :   -0.074808
  19 C :   -0.042313
  20 C :   -0.195886
  21 H :    0.033918
  22 C :   -0.032159
  23 H :    0.028665
  24 H :    0.030209
  25 C :   -0.041429
  26 H :    0.017132
  27 H :    0.032061
  28 C :   -0.054859
  29 H :    0.033207
  30 H :    0.026287
  31 H :    0.018524
  32 H :    0.027248
  33 H :    0.013915

  Mayer bond orders larger than 0.100000
B(  0-S ,  1-C ) :   1.1280 B(  0-S ,  4-C ) :   1.1711 B(  1-C ,  2-C ) :   1.5893
B(  1-C , 32-H ) :   0.9776 B(  2-C ,  3-C ) :   1.2260 B(  2-C ,  6-C ) :   1.0188
B(  3-C ,  4-C ) :   1.5633 B(  3-C ,  5-H ) :   0.9959 B(  4-C , 20-C ) :   1.0393
B(  6-C ,  7-H ) :   0.9457 B(  6-C ,  8-H ) :   0.9497 B(  6-C ,  9-C ) :   1.0623
B(  9-C , 10-H ) :   0.9605 B(  9-C , 11-H ) :   0.9581 B(  9-C , 12-C ) :   1.0693
B( 12-C , 13-H ) :   0.9722 B( 12-C , 14-H ) :   0.9765 B( 12-C , 15-H ) :   0.9690
B( 16-S , 17-C ) :   1.1494 B( 16-S , 20-C ) :   1.1063 B( 17-C , 18-C ) :   1.6353
B( 17-C , 33-H ) :   0.9710 B( 18-C , 19-C ) :   1.2212 B( 18-C , 21-H ) :   0.9747
B( 19-C , 20-C ) :   1.6228 B( 19-C , 22-C ) :   1.0305 B( 22-C , 23-H ) :   0.9153
B( 22-C , 24-H ) :   0.9131 B( 22-C , 25-C ) :   1.0915 B( 25-C , 26-H ) :   0.9491
B( 25-C , 27-H ) :   0.9470 B( 25-C , 28-C ) :   1.0756 B( 28-C , 29-H ) :   0.9729
B( 28-C , 30-H ) :   0.9707 B( 28-C , 31-H ) :   0.9796

Dispersion correction           -0.014643267
FINAL SINGLE POINT ENERGY     -1339.868666622033

DIPOLE MOMENT
-------------
                                X             Y             Z
Electronic contribution:     -5.31837     -15.04912     -13.32762
Nuclear contribution   :      5.58476      15.55972      13.53948
                        -----------------------------------------
Total Dipole Moment    :      0.26639       0.51060       0.21186
                        -----------------------------------------
Magnitude (a.u.)       :      0.61365
Magnitude (Debye)      :      1.55977

Rotational constants in cm-1:     0.021003     0.007899     0.006661
Rotational constants in MHz :   629.648982   236.800699   199.684770

                             ****ORCA TERMINATED NORMALLY****
TOTAL RUN TIME: 0 days 0 hours 0 minutes 35 seconds 127 msec
