                         Program Version 4.2.1 -  RELEASE  -
|  1> ! wB97X-D3 SP def2-SVP
|  2> %pal
|  3> nprocs 16
|  4> end
|  5>
|  6> * xyz 0 1
|  7> S 	 26.061 	 7.99729 	 76.795
|  8> C 	 27.1939 	 8.59388 	 78.0254
|  9> C 	 27.9671 	 7.64876 	 78.6136
| 10> C 	 27.3636 	 6.36232 	 78.3458
| 11> C 	 26.1526 	 6.45509 	 77.5943
| 12> H 	 27.636 	 5.36254 	 78.729
| 13> C 	 29.235 	 7.8732 	 79.4203
| 14> H 	 28.7607 	 8.09227 	 80.381
| 15> H 	 29.6925 	 8.78515 	 79.0662
| 16> C 	 30.3761 	 6.82068 	 79.4187
| 17> H 	 31.0108 	 7.08365 	 80.2223
| 18> H 	 29.9613 	 5.84104 	 79.7117
| 19> C 	 31.1957 	 6.73843 	 78.1724
| 20> H 	 31.6364 	 5.77812 	 78.0569
| 21> H 	 30.6674 	 7.03682 	 77.2264
| 22> H 	 32.0049 	 7.42985 	 78.2862
| 23> S 	 24.5482 	 5.16974 	 75.75
| 24> C 	 23.4723 	 3.95275 	 76.3116
| 25> C 	 23.7158 	 3.61701 	 77.6862
| 26> C 	 24.667 	 4.47499 	 78.2988
| 27> C 	 25.1869 	 5.4166 	 77.3642
| 28> H 	 23.161 	 2.87201 	 78.1833
| 29> C 	 24.9553 	 4.42379 	 79.7607
| 30> H 	 24.073 	 4.03964 	 80.2698
| 31> H 	 25.0592 	 5.48036 	 80.0188
| 32> C 	 26.0751 	 3.4397 	 80.2111
| 33> H 	 27.0039 	 3.60793 	 79.6474
| 34> H 	 25.7598 	 2.43144 	 79.8924
| 35> C 	 26.3065 	 3.32761 	 81.7364
| 36> H 	 25.5561 	 2.73484 	 82.2201
| 37> H 	 26.18 	 4.34544 	 82.19
| 38> H 	 27.3169 	 2.85418 	 81.8841
| 39> H 	 27.5795 	 9.58438 	 78.0639
| 40> H 	 22.7756 	 3.53519 	 75.6721
| 41> *
| 42>
| 43>                          ****END OF INPUT****

CARTESIAN COORDINATES (ANGSTROEM)
---------------------------------
  S     26.061000    7.997290   76.795000
  C     27.193900    8.593880   78.025400
  C     27.967100    7.648760   78.613600
  C     27.363600    6.362320   78.345800
  C     26.152600    6.455090   77.594300
  H     27.636000    5.362540   78.729000
  C     29.235000    7.873200   79.420300
  H     28.760700    8.092270   80.381000
  H     29.692500    8.785150   79.066200
  C     30.376100    6.820680   79.418700
  H     31.010800    7.083650   80.222300
  H     29.961300    5.841040   79.711700
  C     31.195700    6.738430   78.172400
  H     31.636400    5.778120   78.056900
  H     30.667400    7.036820   77.226400
  H     32.004900    7.429850   78.286200
  S     24.548200    5.169740   75.750000
  C     23.472300    3.952750   76.311600
  C     23.715800    3.617010   77.686200
  C     24.667000    4.474990   78.298800
  C     25.186900    5.416600   77.364200
  H     23.161000    2.872010   78.183300
  C     24.955300    4.423790   79.760700
  H     24.073000    4.039640   80.269800
  H     25.059200    5.480360   80.018800
  C     26.075100    3.439700   80.211100
  H     27.003900    3.607930   79.647400
  H     25.759800    2.431440   79.892400
  C     26.306500    3.327610   81.736400
  H     25.556100    2.734840   82.220100
  H     26.180000    4.345440   82.190000
  H     27.316900    2.854180   81.884100
  H     27.579500    9.584380   78.063900
  H     22.775600    3.535190   75.672100

 Total Charge           Charge          ....    0
 Multiplicity           Mult            ....    1
 Number of Electrons    NEL             ....  134
 Basis Dimension        Dim             ....  322

ORBITAL ENERGIES
----------------

  NO   OCC          E(Eh)            E(eV)
   0   2.0000     -88.968496     -2420.9559
   1   2.0000     -88.964072     -2420.8355
   2   2.0000     -10.327372      -281.0221
   3   2.0000     -10.325001      -280.9576
   4   2.0000     -10.315436      -280.6973
   5   2.0000     -10.303694      -280.3778
   6   2.0000     -10.303172      -280.3636
   7   2.0000     -10.301025      -280.3052
   8   2.0000     -10.298084      -280.2251
   9   2.0000     -10.296287      -280.1762
  10   2.0000     -10.295034      -280.1421
  11   2.0000     -10.291682      -280.0509
  12   2.0000     -10.290584      -280.0210
  13   2.0000     -10.288253      -279.9576
  14   2.0000     -10.285659      -279.8870
  15   2.0000     -10.275359      -279.6067
  16   2.0000      -8.083563      -219.9649
  17   2.0000      -8.078830      -219.8361
  18   2.0000      -6.041829      -164.4065
  19   2.0000      -6.038008      -164.3025
  20   2.0000      -6.037381      -164.2855
  21   2.0000      -6.034621      -164.2104
  22   2.0000      -6.033929      -164.1916
  23   2.0000      -6.028960      -164.0563
  24   2.0000      -1.003736       -27.3130
  25   2.0000      -0.980453       -26.6795
  26   2.0000      -0.915058       -24.9000
  27   2.0000      -0.908397       -24.7187
  28   2.0000      -0.871616       -23.7179
  29   2.0000      -0.854727       -23.2583
  30   2.0000      -0.842783       -22.9333
  31   2.0000      -0.807333       -21.9686
  32   2.0000      -0.787277       -21.4229
  33   2.0000      -0.772897       -21.0316
  34   2.0000      -0.710110       -19.3231
  35   2.0000      -0.699685       -19.0394
  36   2.0000      -0.694589       -18.9007
  37   2.0000      -0.665473       -18.1084
  38   2.0000      -0.632142       -17.2014
  39   2.0000      -0.614026       -16.7085
  40   2.0000      -0.595135       -16.1944
  41   2.0000      -0.568261       -15.4632
  42   2.0000      -0.564303       -15.3555
  43   2.0000      -0.555748       -15.1227
  44   2.0000      -0.541146       -14.7253
  45   2.0000      -0.527301       -14.3486
  46   2.0000      -0.515613       -14.0306
  47   2.0000      -0.512995       -13.9593
  48   2.0000      -0.507212       -13.8019
  49   2.0000      -0.492149       -13.3920
  50   2.0000      -0.488447       -13.2913
  51   2.0000      -0.479845       -13.0573
  52   2.0000      -0.475528       -12.9398
  53   2.0000      -0.461967       -12.5708
  54   2.0000      -0.458884       -12.4869
  55   2.0000      -0.453811       -12.3488
  56   2.0000      -0.443723       -12.0743
  57   2.0000      -0.439798       -11.9675
  58   2.0000      -0.435550       -11.8519
  59   2.0000      -0.428618       -11.6633
  60   2.0000      -0.423884       -11.5345
  61   2.0000      -0.417041       -11.3483
  62   2.0000      -0.411874       -11.2077
  63   2.0000      -0.343509        -9.3473
  64   2.0000      -0.332261        -9.0413
  65   2.0000      -0.325233        -8.8500
  66   2.0000      -0.276660        -7.5283
  67   0.0000       0.016518         0.4495
  68   0.0000       0.068575         1.8660
  69   0.0000       0.097205         2.6451
  70   0.0000       0.126968         3.4550
  71   0.0000       0.130497         3.5510

MULLIKEN ATOMIC CHARGES
-----------------------
   0 S :    0.107553
   1 C :   -0.099471
   2 C :   -0.093253
   3 C :    0.015116
   4 C :   -0.167913
   5 H :    0.001062
   6 C :    0.058273
   7 H :    0.049702
   8 H :    0.015187
   9 C :   -0.047130
  10 H :    0.021256
  11 H :    0.025752
  12 C :   -0.031471
  13 H :    0.030819
  14 H :    0.050090
  15 H :    0.020461
  16 S :    0.116167
  17 C :   -0.077396
  18 C :   -0.016730
  19 C :   -0.040140
  20 C :   -0.153943
  21 H :    0.002123
  22 C :    0.065148
  23 H :    0.012072
  24 H :    0.044616
  25 C :   -0.085413
  26 H :    0.029260
  27 H :    0.020612
  28 C :   -0.046255
  29 H :    0.029936
  30 H :    0.037921
  31 H :    0.050694
  32 H :    0.019690
  33 H :    0.035606
Sum of atomic charges:   -0.0000000

LOEWDIN ATOMIC CHARGES
----------------------
   0 S :    0.388304
   1 C :   -0.190838
   2 C :   -0.059195
   3 C :   -0.063636
   4 C :   -0.193622
   5 H :    0.027561
   6 C :   -0.029638
   7 H :    0.042743
   8 H :    0.026778
   9 C :   -0.038684
  10 H :    0.025009
  11 H :    0.022465
  12 C :   -0.063226
  13 H :    0.026163
  14 H :    0.036048
  15 H :    0.023915
  16 S :    0.423459
  17 C :   -0.184336
  18 C :   -0.060330
  19 C :   -0.051442
  20 C :   -0.206396
  21 H :    0.022613
  22 C :   -0.036181
  23 H :    0.030425
  24 H :    0.035839
  25 C :   -0.041670
  26 H :    0.017373
  27 H :    0.025394
  28 C :   -0.069377
  29 H :    0.020596
  30 H :    0.030448
  31 H :    0.037182
  32 H :    0.015319
  33 H :    0.010936

  Mayer bond orders larger than 0.100000
B(  0-S ,  1-C ) :   1.1138 B(  0-S ,  4-C ) :   1.1390 B(  1-C ,  2-C ) :   1.6624
B(  1-C , 32-H ) :   0.9633 B(  2-C ,  3-C ) :   1.2027 B(  2-C ,  6-C ) :   0.9943
B(  3-C ,  4-C ) :   1.5479 B(  3-C ,  5-H ) :   0.9940 B(  4-C , 20-C ) :   1.1009
B(  6-C ,  7-H ) :   0.9348 B(  6-C ,  8-H ) :   0.9415 B(  6-C ,  9-C ) :   1.0796
B(  9-C , 10-H ) :   0.9522 B(  9-C , 11-H ) :   0.9565 B(  9-C , 12-C ) :   1.0690
B( 12-C , 13-H ) :   0.9731 B( 12-C , 14-H ) :   0.9800 B( 12-C , 15-H ) :   0.9734
B( 16-S , 17-C ) :   1.1816 B( 16-S , 20-C ) :   1.1529 B( 17-C , 18-C ) :   1.5371
B( 17-C , 20-C ) :   0.1103 B( 17-C , 33-H ) :   0.9820 B( 18-C , 19-C ) :   1.2878
B( 18-C , 21-H ) :   0.9973 B( 19-C , 20-C ) :   1.5226 B( 19-C , 22-C ) :   1.0548
B( 22-C , 23-H ) :   0.9310 B( 22-C , 24-H ) :   0.9266 B( 22-C , 25-C ) :   1.0541
B( 25-C , 26-H ) :   0.9583 B( 25-C , 27-H ) :   0.9501 B( 25-C , 28-C ) :   1.0724
B( 28-C , 29-H ) :   0.9759 B( 28-C , 30-H ) :   0.9759 B( 28-C , 31-H ) :   0.9741

Dispersion correction           -0.014429842
FINAL SINGLE POINT ENERGY     -1339.857721082365

DIPOLE MOMENT
-------------
                                X             Y             Z
Electronic contribution:    -18.88978       7.98928     -22.14374
Nuclear contribution   :     19.30409      -8.29546      22.70099
                        -----------------------------------------
Total Dipole Moment    :      0.41431      -0.30618       0.55725
                        -----------------------------------------
Magnitude (a.u.)       :      0.75890
Magnitude (Debye)      :      1.92897

Rotational constants in cm-1:     0.016659     0.009742     0.007010
Rotational constants in MHz :   499.414613   292.064626   210.151988

                             ****ORCA TERMINATED NORMALLY****
TOTAL RUN TIME: 0 days 0 hours 0 minutes 35 seconds 199 msec
