                         Program Version 4.2.1 -  RELEASE  -
|  1> ! wB97X-D3 SP def2-SVP
|  2> %pal
|  3> nprocs 16
|  4> end
|  5>
|  6> * xyz 0 1
|  7> S 	 13.9853 	 -12.8198 	 80.2454
|  8> C 	 15.5735 	 -12.1783 	 79.813
|  9> C 	 15.845 	 -12.5533 	 78.4695
| 10> C 	 14.7946 	 -13.2886 	 77.883
| 11> C 	 13.6856 	 -13.4627 	 78.6607
| 12> H 	 14.8056 	 -13.7454 	 76.8942
| 13> C 	 17.127 	 -12.3199 	 77.761
| 14> H 	 17.1826 	 -13.0691 	 76.9944
| 15> H 	 18.0468 	 -12.4774 	 78.3623
| 16> C 	 17.2372 	 -10.8971 	 77.1464
| 17> H 	 16.4579 	 -10.7484 	 76.3623
| 18> H 	 17.0503 	 -10.1688 	 77.9409
| 19> C 	 18.591 	 -10.6333 	 76.451
| 20> H 	 19.4509 	 -10.3779 	 77.1166
| 21> H 	 18.9144 	 -11.4858 	 75.8761
| 22> H 	 18.582 	 -9.84808 	 75.6913
| 23> S 	 12.5011 	 -15.9347 	 78.6386
| 24> C 	 11.1462 	 -16.2757 	 77.6483
| 25> C 	 10.7797 	 -15.094 	 76.9975
| 26> C 	 11.5488 	 -13.9036 	 77.331
| 27> C 	 12.5737 	 -14.2344 	 78.2104
| 28> H 	 9.83526 	 -15.1364 	 76.4643
| 29> C 	 11.1698 	 -12.5216 	 76.9089
| 30> H 	 11.0952 	 -12.0142 	 77.8238
| 31> H 	 10.185 	 -12.5489 	 76.5134
| 32> C 	 12.2023 	 -11.8596 	 76.0409
| 33> H 	 12.4021 	 -12.5481 	 75.2815
| 34> H 	 13.068 	 -11.731 	 76.647
| 35> C 	 11.7949 	 -10.5085 	 75.3612
| 36> H 	 11.759 	 -9.77665 	 76.1527
| 37> H 	 10.8139 	 -10.4565 	 74.8343
| 38> H 	 12.5836 	 -10.1185 	 74.7703
| 39> H 	 16.3074 	 -11.6736 	 80.4564
| 40> H 	 10.6498 	 -17.2356 	 77.6379
| 41> *
| 42>
| 43>                          ****END OF INPUT****

CARTESIAN COORDINATES (ANGSTROEM)
---------------------------------
  S     13.985300  -12.819800   80.245400
  C     15.573500  -12.178300   79.813000
  C     15.845000  -12.553300   78.469500
  C     14.794600  -13.288600   77.883000
  C     13.685600  -13.462700   78.660700
  H     14.805600  -13.745400   76.894200
  C     17.127000  -12.319900   77.761000
  H     17.182600  -13.069100   76.994400
  H     18.046800  -12.477400   78.362300
  C     17.237200  -10.897100   77.146400
  H     16.457900  -10.748400   76.362300
  H     17.050300  -10.168800   77.940900
  C     18.591000  -10.633300   76.451000
  H     19.450900  -10.377900   77.116600
  H     18.914400  -11.485800   75.876100
  H     18.582000   -9.848080   75.691300
  S     12.501100  -15.934700   78.638600
  C     11.146200  -16.275700   77.648300
  C     10.779700  -15.094000   76.997500
  C     11.548800  -13.903600   77.331000
  C     12.573700  -14.234400   78.210400
  H      9.835260  -15.136400   76.464300
  C     11.169800  -12.521600   76.908900
  H     11.095200  -12.014200   77.823800
  H     10.185000  -12.548900   76.513400
  C     12.202300  -11.859600   76.040900
  H     12.402100  -12.548100   75.281500
  H     13.068000  -11.731000   76.647000
  C     11.794900  -10.508500   75.361200
  H     11.759000   -9.776650   76.152700
  H     10.813900  -10.456500   74.834300
  H     12.583600  -10.118500   74.770300
  H     16.307400  -11.673600   80.456400
  H     10.649800  -17.235600   77.637900

 Total Charge           Charge          ....    0
 Multiplicity           Mult            ....    1
 Number of Electrons    NEL             ....  134
 Basis Dimension        Dim             ....  322

ORBITAL ENERGIES
----------------

  NO   OCC          E(Eh)            E(eV)
   0   2.0000     -88.970945     -2421.0225
   1   2.0000     -88.961357     -2420.7616
   2   2.0000     -10.323449      -280.9153
   3   2.0000     -10.323349      -280.9126
   4   2.0000     -10.321956      -280.8747
   5   2.0000     -10.317315      -280.7484
   6   2.0000     -10.304815      -280.4083
   7   2.0000     -10.302253      -280.3386
   8   2.0000     -10.295130      -280.1447
   9   2.0000     -10.293099      -280.0895
  10   2.0000     -10.291461      -280.0449
  11   2.0000     -10.290722      -280.0248
  12   2.0000     -10.280430      -279.7447
  13   2.0000     -10.278522      -279.6928
  14   2.0000     -10.274661      -279.5877
  15   2.0000     -10.274050      -279.5711
  16   2.0000      -8.085048      -220.0053
  17   2.0000      -8.076872      -219.7829
  18   2.0000      -6.043527      -164.4527
  19   2.0000      -6.039427      -164.3412
  20   2.0000      -6.036077      -164.2500
  21   2.0000      -6.035270      -164.2280
  22   2.0000      -6.031067      -164.1137
  23   2.0000      -6.027896      -164.0274
  24   2.0000      -1.010004       -27.4836
  25   2.0000      -0.985028       -26.8040
  26   2.0000      -0.915360       -24.9082
  27   2.0000      -0.911590       -24.8056
  28   2.0000      -0.870756       -23.6945
  29   2.0000      -0.850178       -23.1345
  30   2.0000      -0.846624       -23.0378
  31   2.0000      -0.811699       -22.0875
  32   2.0000      -0.784771       -21.3547
  33   2.0000      -0.772312       -21.0157
  34   2.0000      -0.712051       -19.3759
  35   2.0000      -0.703147       -19.1336
  36   2.0000      -0.696344       -18.9485
  37   2.0000      -0.661342       -17.9960
  38   2.0000      -0.644769       -17.5451
  39   2.0000      -0.618911       -16.8414
  40   2.0000      -0.594848       -16.1866
  41   2.0000      -0.571528       -15.5521
  42   2.0000      -0.569555       -15.4984
  43   2.0000      -0.557457       -15.1692
  44   2.0000      -0.525937       -14.3115
  45   2.0000      -0.521018       -14.1776
  46   2.0000      -0.517131       -14.0718
  47   2.0000      -0.515613       -14.0305
  48   2.0000      -0.508093       -13.8259
  49   2.0000      -0.502443       -13.6722
  50   2.0000      -0.500004       -13.6058
  51   2.0000      -0.476191       -12.9578
  52   2.0000      -0.472356       -12.8534
  53   2.0000      -0.464930       -12.6514
  54   2.0000      -0.460938       -12.5428
  55   2.0000      -0.449608       -12.2345
  56   2.0000      -0.443889       -12.0788
  57   2.0000      -0.436981       -11.8909
  58   2.0000      -0.431526       -11.7424
  59   2.0000      -0.427162       -11.6237
  60   2.0000      -0.419891       -11.4258
  61   2.0000      -0.417342       -11.3565
  62   2.0000      -0.414170       -11.2701
  63   2.0000      -0.336879        -9.1669
  64   2.0000      -0.325327        -8.8526
  65   2.0000      -0.322956        -8.7881
  66   2.0000      -0.308073        -8.3831
  67   0.0000       0.036875         1.0034
  68   0.0000       0.055196         1.5020
  69   0.0000       0.117500         3.1973
  70   0.0000       0.124308         3.3826
  71   0.0000       0.132428         3.6035

MULLIKEN ATOMIC CHARGES
-----------------------
   0 S :    0.125999
   1 C :   -0.122627
   2 C :   -0.081691
   3 C :    0.041180
   4 C :   -0.184461
   5 H :    0.022645
   6 C :    0.060849
   7 H :    0.012315
   8 H :    0.033083
   9 C :   -0.076654
  10 H :    0.034453
  11 H :    0.031925
  12 C :   -0.053601
  13 H :    0.036973
  14 H :    0.019833
  15 H :    0.030024
  16 S :    0.114493
  17 C :   -0.105412
  18 C :   -0.048369
  19 C :   -0.058644
  20 C :   -0.191425
  21 H :    0.019374
  22 C :    0.170273
  23 H :    0.014962
  24 H :   -0.000482
  25 C :   -0.088269
  26 H :    0.014239
  27 H :    0.047129
  28 C :   -0.020728
  29 H :    0.012276
  30 H :    0.041111
  31 H :    0.023526
  32 H :    0.059968
  33 H :    0.065734
Sum of atomic charges:    0.0000000

LOEWDIN ATOMIC CHARGES
----------------------
   0 S :    0.418700
   1 C :   -0.198525
   2 C :   -0.064944
   3 C :   -0.054691
   4 C :   -0.218038
   5 H :    0.036208
   6 C :   -0.035162
   7 H :    0.026072
   8 H :    0.034103
   9 C :   -0.037826
  10 H :    0.028256
  11 H :    0.023435
  12 C :   -0.076157
  13 H :    0.028352
  14 H :    0.022256
  15 H :    0.026531
  16 S :    0.422593
  17 C :   -0.198126
  18 C :   -0.080583
  19 C :   -0.043599
  20 C :   -0.206885
  21 H :    0.028454
  22 C :   -0.022102
  23 H :    0.029556
  24 H :    0.024868
  25 C :   -0.030532
  26 H :    0.014365
  27 H :    0.025592
  28 C :   -0.065806
  29 H :    0.022366
  30 H :    0.029663
  31 H :    0.022260
  32 H :    0.036607
  33 H :    0.032739

  Mayer bond orders larger than 0.100000
B(  0-S ,  1-C ) :   1.1535 B(  0-S ,  4-C ) :   1.1552 B(  1-C ,  2-C ) :   1.5542
B(  1-C ,  4-C ) :   0.1052 B(  1-C , 32-H ) :   0.9699 B(  2-C ,  3-C ) :   1.2792
B(  2-C ,  6-C ) :   1.0341 B(  3-C ,  4-C ) :   1.5503 B(  3-C ,  5-H ) :   0.9906
B(  4-C , 20-C ) :   1.0335 B(  6-C ,  7-H ) :   0.9350 B(  6-C ,  8-H ) :   0.9442
B(  6-C ,  9-C ) :   1.0574 B(  9-C , 10-H ) :   0.9558 B(  9-C , 11-H ) :   0.9613
B(  9-C , 12-C ) :   1.0733 B( 12-C , 13-H ) :   0.9751 B( 12-C , 14-H ) :   0.9726
B( 12-C , 15-H ) :   0.9767 B( 16-S , 17-C ) :   1.1767 B( 16-S , 20-C ) :   1.1552
B( 17-C , 18-C ) :   1.5794 B( 17-C , 20-C ) :   0.1037 B( 17-C , 33-H ) :   0.9713
B( 18-C , 19-C ) :   1.2497 B( 18-C , 21-H ) :   0.9869 B( 19-C , 20-C ) :   1.5836
B( 19-C , 22-C ) :   1.0373 B( 22-C , 23-H ) :   0.9199 B( 22-C , 24-H ) :   0.9263
B( 22-C , 25-C ) :   1.0605 B( 25-C , 26-H ) :   0.9607 B( 25-C , 27-H ) :   0.9491
B( 25-C , 28-C ) :   1.0857 B( 28-C , 29-H ) :   0.9709 B( 28-C , 30-H ) :   0.9762
B( 28-C , 31-H ) :   0.9727

Dispersion correction           -0.014687288
FINAL SINGLE POINT ENERGY     -1339.880777187459

DIPOLE MOMENT
-------------
                                X             Y             Z
Electronic contribution:    -10.95426     -20.35002      19.29067
Nuclear contribution   :     11.12166      20.58138     -19.69738
                        -----------------------------------------
Total Dipole Moment    :      0.16740       0.23137      -0.40672
                        -----------------------------------------
Magnitude (a.u.)       :      0.49696
Magnitude (Debye)      :      1.26318

Rotational constants in cm-1:     0.018467     0.008711     0.007038
Rotational constants in MHz :   553.616524   261.137215   210.997597

                             ****ORCA TERMINATED NORMALLY****
TOTAL RUN TIME: 0 days 0 hours 0 minutes 30 seconds 587 msec
