                         Program Version 4.2.1 -  RELEASE  -
|  1> ! wB97X-D3 SP def2-SVP
|  2> %pal
|  3> nprocs 16
|  4> end
|  5>
|  6> * xyz 0 1
|  7> S 	 -65.7394 	 62.0694 	 127.57
|  8> C 	 -64.4142 	 63.2322 	 127.75
|  9> C 	 -64.6585 	 64.4023 	 126.998
| 10> C 	 -65.9655 	 64.3302 	 126.421
| 11> C 	 -66.6899 	 63.1654 	 126.574
| 12> H 	 -66.4891 	 65.1204 	 125.965
| 13> C 	 -63.8457 	 65.7293 	 126.927
| 14> H 	 -63.541 	 65.7755 	 125.908
| 15> H 	 -62.9757 	 65.434 	 127.568
| 16> C 	 -64.606 	 66.9697 	 127.538
| 17> H 	 -65.3106 	 67.3033 	 126.782
| 18> H 	 -65.2746 	 66.5806 	 128.349
| 19> C 	 -63.8254 	 68.101 	 128.107
| 20> H 	 -63.0036 	 68.3991 	 127.505
| 21> H 	 -64.4221 	 69.0171 	 128.19
| 22> H 	 -63.476 	 67.9016 	 129.122
| 23> S 	 -69.3402 	 62.8908 	 127.16
| 24> C 	 -70.42 	 62.5918 	 125.902
| 25> C 	 -69.8447 	 62.6248 	 124.673
| 26> C 	 -68.451 	 62.7187 	 124.695
| 27> C 	 -68.0084 	 62.8541 	 125.992
| 28> H 	 -70.4695 	 62.3518 	 123.808
| 29> C 	 -67.4937 	 62.8129 	 123.434
| 30> H 	 -66.9586 	 63.7657 	 123.455
| 31> H 	 -68.2506 	 62.8486 	 122.638
| 32> C 	 -66.6135 	 61.5745 	 123.176
| 33> H 	 -67.3022 	 60.7263 	 123.202
| 34> H 	 -65.8489 	 61.4151 	 124.004
| 35> C 	 -65.74 	 61.7744 	 121.925
| 36> H 	 -66.2562 	 62.1672 	 121.067
| 37> H 	 -65.2672 	 60.8973 	 121.602
| 38> H 	 -64.9662 	 62.4412 	 122.088
| 39> H 	 -63.5923 	 63.0678 	 128.432
| 40> H 	 -71.4696 	 62.2727 	 126.126
| 41> *
| 42>
| 43>                          ****END OF INPUT****

CARTESIAN COORDINATES (ANGSTROEM)
---------------------------------
  S    -65.739400   62.069400  127.570000
  C    -64.414200   63.232200  127.750000
  C    -64.658500   64.402300  126.998000
  C    -65.965500   64.330200  126.421000
  C    -66.689900   63.165400  126.574000
  H    -66.489100   65.120400  125.965000
  C    -63.845700   65.729300  126.927000
  H    -63.541000   65.775500  125.908000
  H    -62.975700   65.434000  127.568000
  C    -64.606000   66.969700  127.538000
  H    -65.310600   67.303300  126.782000
  H    -65.274600   66.580600  128.349000
  C    -63.825400   68.101000  128.107000
  H    -63.003600   68.399100  127.505000
  H    -64.422100   69.017100  128.190000
  H    -63.476000   67.901600  129.122000
  S    -69.340200   62.890800  127.160000
  C    -70.420000   62.591800  125.902000
  C    -69.844700   62.624800  124.673000
  C    -68.451000   62.718700  124.695000
  C    -68.008400   62.854100  125.992000
  H    -70.469500   62.351800  123.808000
  C    -67.493700   62.812900  123.434000
  H    -66.958600   63.765700  123.455000
  H    -68.250600   62.848600  122.638000
  C    -66.613500   61.574500  123.176000
  H    -67.302200   60.726300  123.202000
  H    -65.848900   61.415100  124.004000
  C    -65.740000   61.774400  121.925000
  H    -66.256200   62.167200  121.067000
  H    -65.267200   60.897300  121.602000
  H    -64.966200   62.441200  122.088000
  H    -63.592300   63.067800  128.432000
  H    -71.469600   62.272700  126.126000

 Total Charge           Charge          ....    0
 Multiplicity           Mult            ....    1
 Number of Electrons    NEL             ....  134
 Basis Dimension        Dim             ....  322

ORBITAL ENERGIES
----------------

  NO   OCC          E(Eh)            E(eV)
   0   2.0000     -88.963221     -2420.8123
   1   2.0000     -88.962406     -2420.7901
   2   2.0000     -10.325755      -280.9781
   3   2.0000     -10.323265      -280.9103
   4   2.0000     -10.319865      -280.8178
   5   2.0000     -10.312958      -280.6298
   6   2.0000     -10.305778      -280.4345
   7   2.0000     -10.304085      -280.3884
   8   2.0000     -10.300046      -280.2785
   9   2.0000     -10.297800      -280.2174
  10   2.0000     -10.291679      -280.0508
  11   2.0000     -10.290154      -280.0093
  12   2.0000     -10.289486      -279.9911
  13   2.0000     -10.285586      -279.8850
  14   2.0000     -10.275661      -279.6150
  15   2.0000     -10.264509      -279.3115
  16   2.0000      -8.078588      -219.8296
  17   2.0000      -8.077295      -219.7944
  18   2.0000      -6.036739      -164.2680
  19   2.0000      -6.035796      -164.2424
  20   2.0000      -6.032941      -164.1647
  21   2.0000      -6.031764      -164.1326
  22   2.0000      -6.029587      -164.0734
  23   2.0000      -6.028230      -164.0365
  24   2.0000      -1.008441       -27.4411
  25   2.0000      -0.981938       -26.7199
  26   2.0000      -0.905811       -24.6484
  27   2.0000      -0.903179       -24.5768
  28   2.0000      -0.866460       -23.5776
  29   2.0000      -0.854821       -23.2609
  30   2.0000      -0.846209       -23.0265
  31   2.0000      -0.810694       -22.0601
  32   2.0000      -0.786133       -21.3918
  33   2.0000      -0.773148       -21.0384
  34   2.0000      -0.707090       -19.2409
  35   2.0000      -0.699248       -19.0275
  36   2.0000      -0.687723       -18.7139
  37   2.0000      -0.656683       -17.8693
  38   2.0000      -0.642661       -17.4877
  39   2.0000      -0.614809       -16.7298
  40   2.0000      -0.594267       -16.1708
  41   2.0000      -0.569390       -15.4939
  42   2.0000      -0.561804       -15.2875
  43   2.0000      -0.552053       -15.0221
  44   2.0000      -0.527155       -14.3446
  45   2.0000      -0.523098       -14.2342
  46   2.0000      -0.513109       -13.9624
  47   2.0000      -0.510093       -13.8803
  48   2.0000      -0.504147       -13.7185
  49   2.0000      -0.500774       -13.6267
  50   2.0000      -0.496824       -13.5193
  51   2.0000      -0.479428       -13.0459
  52   2.0000      -0.474703       -12.9173
  53   2.0000      -0.465020       -12.6539
  54   2.0000      -0.455769       -12.4021
  55   2.0000      -0.447441       -12.1755
  56   2.0000      -0.444907       -12.1065
  57   2.0000      -0.434594       -11.8259
  58   2.0000      -0.429767       -11.6946
  59   2.0000      -0.427782       -11.6405
  60   2.0000      -0.419095       -11.4042
  61   2.0000      -0.414165       -11.2700
  62   2.0000      -0.408286       -11.1100
  63   2.0000      -0.339060        -9.2263
  64   2.0000      -0.328527        -8.9397
  65   2.0000      -0.324567        -8.8319
  66   2.0000      -0.305316        -8.3081
  67   0.0000       0.037116         1.0100
  68   0.0000       0.065623         1.7857
  69   0.0000       0.118270         3.2183
  70   0.0000       0.127222         3.4619
  71   0.0000       0.131075         3.5667

MULLIKEN ATOMIC CHARGES
-----------------------
   0 S :    0.103655
   1 C :   -0.137745
   2 C :   -0.111679
   3 C :    0.049215
   4 C :   -0.162049
   5 H :   -0.007639
   6 C :    0.093547
   7 H :    0.040232
   8 H :    0.021713
   9 C :   -0.099354
  10 H :    0.031953
  11 H :    0.045699
  12 C :   -0.020066
  13 H :    0.022371
  14 H :    0.030036
  15 H :    0.033225
  16 S :    0.118066
  17 C :   -0.105727
  18 C :   -0.060022
  19 C :   -0.014424
  20 C :   -0.203372
  21 H :    0.025026
  22 C :    0.079377
  23 H :    0.037626
  24 H :    0.012908
  25 C :   -0.087092
  26 H :    0.032349
  27 H :    0.049170
  28 C :    0.013230
  29 H :    0.012960
  30 H :    0.018414
  31 H :    0.012832
  32 H :    0.052645
  33 H :    0.072918
Sum of atomic charges:   -0.0000000

LOEWDIN ATOMIC CHARGES
----------------------
   0 S :    0.391942
   1 C :   -0.193263
   2 C :   -0.063574
   3 C :   -0.062850
   4 C :   -0.202529
   5 H :    0.020971
   6 C :   -0.026014
   7 H :    0.028989
   8 H :    0.032897
   9 C :   -0.047284
  10 H :    0.023343
  11 H :    0.035870
  12 C :   -0.065763
  13 H :    0.020628
  14 H :    0.032718
  15 H :    0.027679
  16 S :    0.426879
  17 C :   -0.205282
  18 C :   -0.088573
  19 C :   -0.052180
  20 C :   -0.195930
  21 H :    0.035982
  22 C :   -0.021720
  23 H :    0.030405
  24 H :    0.028316
  25 C :   -0.039204
  26 H :    0.024778
  27 H :    0.034280
  28 C :   -0.057694
  29 H :    0.021152
  30 H :    0.021705
  31 H :    0.019329
  32 H :    0.026297
  33 H :    0.037699

  Mayer bond orders larger than 0.100000
B(  0-S ,  1-C ) :   1.1530 B(  0-S ,  4-C ) :   1.1380 B(  1-C ,  2-C ) :   1.5936
B(  1-C ,  4-C ) :   0.1020 B(  1-C , 32-H ) :   0.9690 B(  2-C ,  3-C ) :   1.2333
B(  2-C ,  6-C ) :   1.0092 B(  3-C ,  4-C ) :   1.6044 B(  3-C ,  5-H ) :   0.9967
B(  4-C , 20-C ) :   1.0046 B(  6-C ,  7-H ) :   0.9373 B(  6-C ,  8-H ) :   0.9473
B(  6-C ,  9-C ) :   1.0423 B(  9-C , 10-H ) :   0.9519 B(  9-C , 11-H ) :   0.9607
B(  9-C , 12-C ) :   1.1002 B( 12-C , 13-H ) :   0.9730 B( 12-C , 14-H ) :   0.9696
B( 12-C , 15-H ) :   0.9733 B( 16-S , 17-C ) :   1.1800 B( 16-S , 20-C ) :   1.1647
B( 17-C , 18-C ) :   1.5992 B( 17-C , 33-H ) :   0.9572 B( 18-C , 19-C ) :   1.2684
B( 18-C , 21-H ) :   0.9817 B( 19-C , 20-C ) :   1.6016 B( 19-C , 22-C ) :   1.0071
B( 22-C , 23-H ) :   0.9423 B( 22-C , 24-H ) :   0.9333 B( 22-C , 25-C ) :   1.0643
B( 25-C , 26-H ) :   0.9563 B( 25-C , 27-H ) :   0.9573 B( 25-C , 28-C ) :   1.0759
B( 28-C , 29-H ) :   0.9730 B( 28-C , 30-H ) :   0.9718 B( 28-C , 31-H ) :   0.9720

Dispersion correction           -0.014101485
FINAL SINGLE POINT ENERGY     -1339.871977583787

DIPOLE MOMENT
-------------
                                X             Y             Z
Electronic contribution:    -14.62000     -13.50401      13.09905
Nuclear contribution   :     14.75391      13.92950     -13.43239
                        -----------------------------------------
Total Dipole Moment    :      0.13391       0.42548      -0.33334
                        -----------------------------------------
Magnitude (a.u.)       :      0.55685
Magnitude (Debye)      :      1.41540

Rotational constants in cm-1:     0.016851     0.008229     0.007089
Rotational constants in MHz :   505.175093   246.697433   212.520647

                             ****ORCA TERMINATED NORMALLY****
TOTAL RUN TIME: 0 days 0 hours 0 minutes 33 seconds 108 msec
