                         Program Version 4.2.1 -  RELEASE  -
|  1> ! wB97X-D3 SP def2-SVP
|  2> %pal
|  3> nprocs 16
|  4> end
|  5>
|  6> * xyz 0 1
|  7> S 	 9.87827 	 24.0915 	 38.9035
|  8> C 	 10.9004 	 23.8034 	 37.5032
|  9> C 	 11.2987 	 22.4919 	 37.404
| 10> C 	 10.7884 	 21.7525 	 38.503
| 11> C 	 10.0285 	 22.4245 	 39.4469
| 12> H 	 10.8939 	 20.6717 	 38.5983
| 13> C 	 12.1269 	 21.8678 	 36.2887
| 14> H 	 11.866 	 22.3399 	 35.3042
| 15> H 	 11.8281 	 20.8296 	 36.1687
| 16> C 	 13.6311 	 21.9708 	 36.4933
| 17> H 	 13.9812 	 23.009 	 36.5552
| 18> H 	 13.9424 	 21.6073 	 37.515
| 19> C 	 14.3345 	 21.1298 	 35.38
| 20> H 	 15.2619 	 20.6845 	 35.5326
| 21> H 	 13.7148 	 20.3254 	 34.9418
| 22> H 	 14.469 	 21.8456 	 34.6588
| 23> S 	 7.88645 	 21.2002 	 40.3479
| 24> C 	 7.78256 	 20.5618 	 42.0039
| 25> C 	 8.81052 	 21.0332 	 42.7995
| 26> C 	 9.74951 	 21.8172 	 42.0458
| 27> C 	 9.45194 	 21.8876 	 40.6736
| 28> H 	 8.59647 	 20.7154 	 43.8175
| 29> C 	 11.0518 	 22.2865 	 42.6585
| 30> H 	 11.8076 	 21.5125 	 42.4253
| 31> H 	 10.8845 	 22.2243 	 43.7214
| 32> C 	 11.4751 	 23.6859 	 42.3427
| 33> H 	 10.5385 	 24.2807 	 42.1835
| 34> H 	 12.1414 	 23.7795 	 41.3917
| 35> C 	 12.3979 	 24.4476 	 43.424
| 36> H 	 12.4227 	 25.4632 	 43.0399
| 37> H 	 13.3595 	 23.9815 	 43.5604
| 38> H 	 11.9416 	 24.6334 	 44.4334
| 39> H 	 11.2065 	 24.5628 	 36.7512
| 40> H 	 7.08398 	 19.7904 	 42.3337
| 41> *
| 42>
| 43>                          ****END OF INPUT****

CARTESIAN COORDINATES (ANGSTROEM)
---------------------------------
  S      9.878270   24.091500   38.903500
  C     10.900400   23.803400   37.503200
  C     11.298700   22.491900   37.404000
  C     10.788400   21.752500   38.503000
  C     10.028500   22.424500   39.446900
  H     10.893900   20.671700   38.598300
  C     12.126900   21.867800   36.288700
  H     11.866000   22.339900   35.304200
  H     11.828100   20.829600   36.168700
  C     13.631100   21.970800   36.493300
  H     13.981200   23.009000   36.555200
  H     13.942400   21.607300   37.515000
  C     14.334500   21.129800   35.380000
  H     15.261900   20.684500   35.532600
  H     13.714800   20.325400   34.941800
  H     14.469000   21.845600   34.658800
  S      7.886450   21.200200   40.347900
  C      7.782560   20.561800   42.003900
  C      8.810520   21.033200   42.799500
  C      9.749510   21.817200   42.045800
  C      9.451940   21.887600   40.673600
  H      8.596470   20.715400   43.817500
  C     11.051800   22.286500   42.658500
  H     11.807600   21.512500   42.425300
  H     10.884500   22.224300   43.721400
  C     11.475100   23.685900   42.342700
  H     10.538500   24.280700   42.183500
  H     12.141400   23.779500   41.391700
  C     12.397900   24.447600   43.424000
  H     12.422700   25.463200   43.039900
  H     13.359500   23.981500   43.560400
  H     11.941600   24.633400   44.433400
  H     11.206500   24.562800   36.751200
  H      7.083980   19.790400   42.333700

 Total Charge           Charge          ....    0
 Multiplicity           Mult            ....    1
 Number of Electrons    NEL             ....  134
 Basis Dimension        Dim             ....  322

ORBITAL ENERGIES
----------------

  NO   OCC          E(Eh)            E(eV)
   0   2.0000     -88.965941     -2420.8863
   1   2.0000     -88.961062     -2420.7536
   2   2.0000     -10.329651      -281.0841
   3   2.0000     -10.327038      -281.0130
   4   2.0000     -10.317218      -280.7458
   5   2.0000     -10.317112      -280.7429
   6   2.0000     -10.311670      -280.5948
   7   2.0000     -10.298660      -280.2408
   8   2.0000     -10.297935      -280.2211
   9   2.0000     -10.296894      -280.1927
  10   2.0000     -10.293578      -280.1025
  11   2.0000     -10.293091      -280.0892
  12   2.0000     -10.292949      -280.0854
  13   2.0000     -10.285759      -279.8897
  14   2.0000     -10.280105      -279.7359
  15   2.0000     -10.269564      -279.4490
  16   2.0000      -8.080032      -219.8689
  17   2.0000      -8.075810      -219.7540
  18   2.0000      -6.038586      -164.3183
  19   2.0000      -6.034534      -164.2080
  20   2.0000      -6.034270      -164.2008
  21   2.0000      -6.030862      -164.1081
  22   2.0000      -6.030211      -164.0904
  23   2.0000      -6.026714      -163.9952
  24   2.0000      -1.004232       -27.3266
  25   2.0000      -0.981837       -26.7171
  26   2.0000      -0.911879       -24.8135
  27   2.0000      -0.901896       -24.5418
  28   2.0000      -0.872158       -23.7326
  29   2.0000      -0.846638       -23.0382
  30   2.0000      -0.837789       -22.7974
  31   2.0000      -0.814019       -22.1506
  32   2.0000      -0.783176       -21.3113
  33   2.0000      -0.769884       -20.9496
  34   2.0000      -0.708421       -19.2771
  35   2.0000      -0.704741       -19.1770
  36   2.0000      -0.684906       -18.6372
  37   2.0000      -0.655347       -17.8329
  38   2.0000      -0.639566       -17.4035
  39   2.0000      -0.618812       -16.8387
  40   2.0000      -0.586956       -15.9719
  41   2.0000      -0.573301       -15.6003
  42   2.0000      -0.559028       -15.2119
  43   2.0000      -0.555741       -15.1225
  44   2.0000      -0.528890       -14.3918
  45   2.0000      -0.523877       -14.2554
  46   2.0000      -0.519176       -14.1275
  47   2.0000      -0.512425       -13.9438
  48   2.0000      -0.499617       -13.5953
  49   2.0000      -0.497824       -13.5465
  50   2.0000      -0.486096       -13.2273
  51   2.0000      -0.480315       -13.0700
  52   2.0000      -0.466581       -12.6963
  53   2.0000      -0.461289       -12.5523
  54   2.0000      -0.460127       -12.5207
  55   2.0000      -0.449018       -12.2184
  56   2.0000      -0.442532       -12.0419
  57   2.0000      -0.434445       -11.8218
  58   2.0000      -0.433365       -11.7925
  59   2.0000      -0.421026       -11.4567
  60   2.0000      -0.412987       -11.2380
  61   2.0000      -0.409530       -11.1439
  62   2.0000      -0.405274       -11.0281
  63   2.0000      -0.336784        -9.1644
  64   2.0000      -0.328767        -8.9462
  65   2.0000      -0.315675        -8.5899
  66   2.0000      -0.310464        -8.4482
  67   0.0000       0.040160         1.0928
  68   0.0000       0.053531         1.4566
  69   0.0000       0.113487         3.0881
  70   0.0000       0.120628         3.2825
  71   0.0000       0.126145         3.4326

MULLIKEN ATOMIC CHARGES
-----------------------
   0 S :    0.122349
   1 C :   -0.141031
   2 C :   -0.064458
   3 C :    0.043545
   4 C :   -0.163504
   5 H :    0.010611
   6 C :    0.046298
   7 H :    0.032197
   8 H :    0.026118
   9 C :   -0.083938
  10 H :    0.031092
  11 H :    0.029324
  12 C :   -0.002098
  13 H :    0.021446
  14 H :    0.029838
  15 H :    0.011137
  16 S :    0.103075
  17 C :   -0.115695
  18 C :   -0.054404
  19 C :   -0.034169
  20 C :   -0.180754
  21 H :    0.030258
  22 C :    0.136807
  23 H :    0.049058
  24 H :    0.004460
  25 C :   -0.148603
  26 H :    0.041240
  27 H :    0.057055
  28 C :   -0.065372
  29 H :    0.035677
  30 H :    0.043135
  31 H :    0.029769
  32 H :    0.056874
  33 H :    0.062663
Sum of atomic charges:    0.0000000

LOEWDIN ATOMIC CHARGES
----------------------
   0 S :    0.405260
   1 C :   -0.195543
   2 C :   -0.071964
   3 C :   -0.056420
   4 C :   -0.211701
   5 H :    0.031074
   6 C :   -0.030558
   7 H :    0.035081
   8 H :    0.030513
   9 C :   -0.038993
  10 H :    0.024508
  11 H :    0.024882
  12 C :   -0.060212
  13 H :    0.018152
  14 H :    0.030301
  15 H :    0.018060
  16 S :    0.404677
  17 C :   -0.178032
  18 C :   -0.080439
  19 C :   -0.049597
  20 C :   -0.203314
  21 H :    0.042447
  22 C :   -0.040647
  23 H :    0.040890
  24 H :    0.028843
  25 C :   -0.052523
  26 H :    0.027606
  27 H :    0.037182
  28 C :   -0.072211
  29 H :    0.028980
  30 H :    0.021715
  31 H :    0.024744
  32 H :    0.036389
  33 H :    0.030850

  Mayer bond orders larger than 0.100000
B(  0-S ,  1-C ) :   1.1527 B(  0-S ,  4-C ) :   1.1328 B(  1-C ,  2-C ) :   1.6062
B(  1-C , 32-H ) :   0.9603 B(  2-C ,  3-C ) :   1.2605 B(  2-C ,  6-C ) :   1.0117
B(  3-C ,  4-C ) :   1.5895 B(  3-C ,  5-H ) :   0.9891 B(  4-C , 20-C ) :   1.0199
B(  6-C ,  7-H ) :   0.9436 B(  6-C ,  8-H ) :   0.9437 B(  6-C ,  9-C ) :   1.0574
B(  9-C , 10-H ) :   0.9630 B(  9-C , 11-H ) :   0.9606 B(  9-C , 12-C ) :   1.0459
B( 12-C , 13-H ) :   0.9776 B( 12-C , 14-H ) :   0.9770 B( 12-C , 15-H ) :   0.9760
B( 16-S , 17-C ) :   1.1548 B( 16-S , 20-C ) :   1.1579 B( 17-C , 18-C ) :   1.6391
B( 17-C , 20-C ) :   0.1062 B( 17-C , 33-H ) :   0.9623 B( 18-C , 19-C ) :   1.2016
B( 18-C , 21-H ) :   0.9936 B( 19-C , 20-C ) :   1.5867 B( 19-C , 22-C ) :   1.0464
B( 22-C , 23-H ) :   0.9276 B( 22-C , 24-H ) :   0.9265 B( 22-C , 25-C ) :   1.0547
B( 25-C , 26-H ) :   0.9620 B( 25-C , 27-H ) :   0.9493 B( 25-C , 28-C ) :   1.0786
B( 28-C , 29-H ) :   0.9768 B( 28-C , 30-H ) :   0.9777 B( 28-C , 31-H ) :   0.9742

Dispersion correction           -0.014062486
FINAL SINGLE POINT ENERGY     -1339.857158451536

DIPOLE MOMENT
-------------
                                X             Y             Z
Electronic contribution:    -24.51478      -0.35037       2.05595
Nuclear contribution   :     25.00248       0.07443      -2.06897
                        -----------------------------------------
Total Dipole Moment    :      0.48770      -0.27594      -0.01301
                        -----------------------------------------
Magnitude (a.u.)       :      0.56050
Magnitude (Debye)      :      1.42467

Rotational constants in cm-1:     0.018163     0.007931     0.006791
Rotational constants in MHz :   544.511300   237.769364   203.581303

                             ****ORCA TERMINATED NORMALLY****
TOTAL RUN TIME: 0 days 0 hours 0 minutes 34 seconds 95 msec
