                         Program Version 4.2.1 -  RELEASE  -
|  1> ! wB97X-D3 SP def2-SVP
|  2> %pal
|  3> nprocs 16
|  4> end
|  5>
|  6> * xyz 0 1
|  7> S 	 55.3929 	 9.22451 	 66.2959
|  8> C 	 55.807 	 10.8526 	 66.7547
|  9> C 	 55.2753 	 11.1885 	 67.9555
| 10> C 	 54.598 	 10.0488 	 68.5649
| 11> C 	 54.5715 	 8.91325 	 67.793
| 12> H 	 54.0613 	 9.97607 	 69.4855
| 13> C 	 55.5048 	 12.4581 	 68.7165
| 14> H 	 54.5709 	 12.9243 	 69.0311
| 15> H 	 55.9599 	 13.1985 	 68.0637
| 16> C 	 56.3727 	 12.2664 	 69.9428
| 17> H 	 56.0922 	 11.4247 	 70.518
| 18> H 	 57.3124 	 11.9246 	 69.5799
| 19> C 	 56.4192 	 13.5109 	 70.7732
| 20> H 	 56.7892 	 14.3326 	 70.2559
| 21> H 	 55.398 	 13.8018 	 70.9826
| 22> H 	 56.9841 	 13.3846 	 71.7263
| 23> S 	 54.7363 	 6.27533 	 68.5696
| 24> C 	 53.2183 	 5.42668 	 68.8951
| 25> C 	 52.1541 	 6.27535 	 68.8838
| 26> C 	 52.477 	 7.52186 	 68.2977
| 27> C 	 53.8086 	 7.70043 	 68.0468
| 28> H 	 51.1303 	 5.98847 	 69.2894
| 29> C 	 51.4909 	 8.69067 	 68.0963
| 30> H 	 51.4711 	 9.06087 	 67.0313
| 31> H 	 51.9688 	 9.44356 	 68.686
| 32> C 	 49.999 	 8.49174 	 68.5233
| 33> H 	 49.8304 	 8.18448 	 69.578
| 34> H 	 49.5619 	 7.58332 	 68.0351
| 35> C 	 49.0954 	 9.68403 	 68.2355
| 36> H 	 49.0144 	 9.91802 	 67.162
| 37> H 	 49.4286 	 10.5346 	 68.7514
| 38> H 	 48.1018 	 9.38431 	 68.4986
| 39> H 	 56.1638 	 11.6792 	 66.1064
| 40> H 	 53.1335 	 4.36771 	 69.2533
| 41> *
| 42>
| 43>                          ****END OF INPUT****

CARTESIAN COORDINATES (ANGSTROEM)
---------------------------------
  S     55.392900    9.224510   66.295900
  C     55.807000   10.852600   66.754700
  C     55.275300   11.188500   67.955500
  C     54.598000   10.048800   68.564900
  C     54.571500    8.913250   67.793000
  H     54.061300    9.976070   69.485500
  C     55.504800   12.458100   68.716500
  H     54.570900   12.924300   69.031100
  H     55.959900   13.198500   68.063700
  C     56.372700   12.266400   69.942800
  H     56.092200   11.424700   70.518000
  H     57.312400   11.924600   69.579900
  C     56.419200   13.510900   70.773200
  H     56.789200   14.332600   70.255900
  H     55.398000   13.801800   70.982600
  H     56.984100   13.384600   71.726300
  S     54.736300    6.275330   68.569600
  C     53.218300    5.426680   68.895100
  C     52.154100    6.275350   68.883800
  C     52.477000    7.521860   68.297700
  C     53.808600    7.700430   68.046800
  H     51.130300    5.988470   69.289400
  C     51.490900    8.690670   68.096300
  H     51.471100    9.060870   67.031300
  H     51.968800    9.443560   68.686000
  C     49.999000    8.491740   68.523300
  H     49.830400    8.184480   69.578000
  H     49.561900    7.583320   68.035100
  C     49.095400    9.684030   68.235500
  H     49.014400    9.918020   67.162000
  H     49.428600   10.534600   68.751400
  H     48.101800    9.384310   68.498600
  H     56.163800   11.679200   66.106400
  H     53.133500    4.367710   69.253300

 Total Charge           Charge          ....    0
 Multiplicity           Mult            ....    1
 Number of Electrons    NEL             ....  134
 Basis Dimension        Dim             ....  322

ORBITAL ENERGIES
----------------

  NO   OCC          E(Eh)            E(eV)
   0   2.0000     -88.963653     -2420.8241
   1   2.0000     -88.962988     -2420.8060
   2   2.0000     -10.325677      -280.9760
   3   2.0000     -10.322399      -280.8867
   4   2.0000     -10.321591      -280.8648
   5   2.0000     -10.313584      -280.6469
   6   2.0000     -10.304102      -280.3889
   7   2.0000     -10.300557      -280.2924
   8   2.0000     -10.297894      -280.2199
   9   2.0000     -10.295726      -280.1610
  10   2.0000     -10.293148      -280.0908
  11   2.0000     -10.293033      -280.0877
  12   2.0000     -10.289824      -280.0003
  13   2.0000     -10.274865      -279.5933
  14   2.0000     -10.274333      -279.5788
  15   2.0000     -10.272979      -279.5420
  16   2.0000      -8.078227      -219.8197
  17   2.0000      -8.077899      -219.8108
  18   2.0000      -6.036756      -164.2685
  19   2.0000      -6.036458      -164.2604
  20   2.0000      -6.032642      -164.1565
  21   2.0000      -6.032592      -164.1552
  22   2.0000      -6.028983      -164.0570
  23   2.0000      -6.028465      -164.0429
  24   2.0000      -1.008811       -27.4511
  25   2.0000      -0.986736       -26.8504
  26   2.0000      -0.921918       -25.0867
  27   2.0000      -0.902732       -24.5646
  28   2.0000      -0.875609       -23.8265
  29   2.0000      -0.852807       -23.2061
  30   2.0000      -0.846560       -23.0361
  31   2.0000      -0.816941       -22.2301
  32   2.0000      -0.783050       -21.3079
  33   2.0000      -0.772135       -21.0109
  34   2.0000      -0.712676       -19.3929
  35   2.0000      -0.702586       -19.1183
  36   2.0000      -0.696836       -18.9619
  37   2.0000      -0.650217       -17.6933
  38   2.0000      -0.646578       -17.5943
  39   2.0000      -0.617220       -16.7954
  40   2.0000      -0.595183       -16.1958
  41   2.0000      -0.574995       -15.6464
  42   2.0000      -0.563967       -15.3463
  43   2.0000      -0.561132       -15.2692
  44   2.0000      -0.532991       -14.5034
  45   2.0000      -0.526158       -14.3175
  46   2.0000      -0.518180       -14.1004
  47   2.0000      -0.509150       -13.8547
  48   2.0000      -0.502994       -13.6872
  49   2.0000      -0.501743       -13.6531
  50   2.0000      -0.493260       -13.4223
  51   2.0000      -0.478432       -13.0188
  52   2.0000      -0.469425       -12.7737
  53   2.0000      -0.464211       -12.6318
  54   2.0000      -0.461918       -12.5694
  55   2.0000      -0.454625       -12.3710
  56   2.0000      -0.450493       -12.2585
  57   2.0000      -0.440539       -11.9877
  58   2.0000      -0.431733       -11.7481
  59   2.0000      -0.422687       -11.5019
  60   2.0000      -0.421675       -11.4744
  61   2.0000      -0.417686       -11.3658
  62   2.0000      -0.413871       -11.2620
  63   2.0000      -0.337619        -9.1871
  64   2.0000      -0.329269        -8.9599
  65   2.0000      -0.327326        -8.9070
  66   2.0000      -0.306312        -8.3352
  67   0.0000       0.038013         1.0344
  68   0.0000       0.060882         1.6567
  69   0.0000       0.110226         2.9994
  70   0.0000       0.121633         3.3098
  71   0.0000       0.135219         3.6795

MULLIKEN ATOMIC CHARGES
-----------------------
   0 S :    0.112223
   1 C :   -0.115589
   2 C :   -0.094675
   3 C :    0.037832
   4 C :   -0.175423
   5 H :    0.011216
   6 C :    0.064322
   7 H :    0.018372
   8 H :    0.009157
   9 C :   -0.043269
  10 H :    0.016509
  11 H :    0.009911
  12 C :   -0.000104
  13 H :    0.009866
  14 H :    0.012794
  15 H :    0.043783
  16 S :    0.100038
  17 C :   -0.096179
  18 C :   -0.067508
  19 C :   -0.044544
  20 C :   -0.154315
  21 H :    0.046341
  22 C :    0.092492
  23 H :    0.050813
  24 H :    0.013925
  25 C :   -0.128224
  26 H :    0.026589
  27 H :    0.027949
  28 C :    0.000339
  29 H :    0.029689
  30 H :    0.026541
  31 H :    0.024198
  32 H :    0.062628
  33 H :    0.072303
Sum of atomic charges:   -0.0000000

LOEWDIN ATOMIC CHARGES
----------------------
   0 S :    0.412022
   1 C :   -0.206727
   2 C :   -0.063831
   3 C :   -0.056635
   4 C :   -0.204732
   5 H :    0.026383
   6 C :   -0.028701
   7 H :    0.026757
   8 H :    0.026906
   9 C :   -0.037035
  10 H :    0.019937
  11 H :    0.021291
  12 C :   -0.057140
  13 H :    0.015593
  14 H :    0.023760
  15 H :    0.034060
  16 S :    0.386586
  17 C :   -0.180188
  18 C :   -0.084675
  19 C :   -0.050941
  20 C :   -0.200530
  21 H :    0.045379
  22 C :   -0.031726
  23 H :    0.044162
  24 H :    0.027095
  25 C :   -0.052916
  26 H :    0.022965
  27 H :    0.024536
  28 C :   -0.055529
  29 H :    0.027606
  30 H :    0.018203
  31 H :    0.026248
  32 H :    0.041455
  33 H :    0.040362

  Mayer bond orders larger than 0.100000
B(  0-S ,  1-C ) :   1.1313 B(  0-S ,  4-C ) :   1.1461 B(  1-C ,  2-C ) :   1.6549
B(  1-C , 32-H ) :   0.9536 B(  2-C ,  3-C ) :   1.1998 B(  2-C ,  6-C ) :   1.0413
B(  3-C ,  4-C ) :   1.6144 B(  3-C ,  5-H ) :   0.9905 B(  4-C , 20-C ) :   1.0066
B(  6-C ,  7-H ) :   0.9340 B(  6-C ,  8-H ) :   0.9383 B(  6-C ,  9-C ) :   1.0590
B(  9-C , 10-H ) :   0.9555 B(  9-C , 11-H ) :   0.9455 B(  9-C , 12-C ) :   1.0846
B( 12-C , 13-H ) :   0.9714 B( 12-C , 14-H ) :   0.9704 B( 12-C , 15-H ) :   0.9712
B( 16-S , 17-C ) :   1.1554 B( 16-S , 20-C ) :   1.1286 B( 17-C , 18-C ) :   1.6163
B( 17-C , 33-H ) :   0.9567 B( 18-C , 19-C ) :   1.2483 B( 18-C , 21-H ) :   0.9753
B( 19-C , 20-C ) :   1.6316 B( 19-C , 22-C ) :   1.0121 B( 22-C , 23-H ) :   0.9370
B( 22-C , 24-H ) :   0.9257 B( 22-C , 25-C ) :   1.0700 B( 25-C , 26-H ) :   0.9501
B( 25-C , 27-H ) :   0.9525 B( 25-C , 28-C ) :   1.0926 B( 28-C , 29-H ) :   0.9729
B( 28-C , 30-H ) :   0.9760 B( 28-C , 31-H ) :   0.9697

Dispersion correction           -0.013758799
FINAL SINGLE POINT ENERGY     -1339.875899526438

DIPOLE MOMENT
-------------
                                X             Y             Z
Electronic contribution:     12.99835     -21.14534     -11.69566
Nuclear contribution   :    -13.52550      21.64324      12.13796
                        -----------------------------------------
Total Dipole Moment    :     -0.52715       0.49789       0.44230
                        -----------------------------------------
Magnitude (a.u.)       :      0.84936
Magnitude (Debye)      :      2.15891

Rotational constants in cm-1:     0.016362     0.008212     0.006804
Rotational constants in MHz :   490.522757   246.175945   203.974698

                             ****ORCA TERMINATED NORMALLY****
TOTAL RUN TIME: 0 days 0 hours 0 minutes 29 seconds 241 msec
