                         Program Version 4.2.1 -  RELEASE  -
|  1> ! wB97X-D3 SP def2-SVP
|  2> %pal
|  3> nprocs 16
|  4> end
|  5>
|  6> * xyz 0 1
|  7> S 	 -37.2576 	 -3.07145 	 99.1162
|  8> C 	 -36.2561 	 -1.92936 	 99.9527
|  9> C 	 -35.9026 	 -0.886023 	 99.14
| 10> C 	 -36.5799 	 -0.948755 	 97.8746
| 11> C 	 -37.4761 	 -2.0692 	 97.7104
| 12> H 	 -36.4549 	 -0.237998 	 97.0705
| 13> C 	 -34.8845 	 0.163077 	 99.3605
| 14> H 	 -34.8389 	 0.404855 	 100.388
| 15> H 	 -35.2309 	 1.14362 	 98.9163
| 16> C 	 -33.4768 	 -0.0951252 	 98.7268
| 17> H 	 -33.0026 	 -0.93352 	 99.2657
| 18> H 	 -33.699 	 -0.370551 	 97.6606
| 19> C 	 -32.5119 	 1.02383 	 98.7687
| 20> H 	 -32.14 	 1.18917 	 99.8049
| 21> H 	 -31.5911 	 0.87008 	 98.2637
| 22> H 	 -32.8216 	 2.01397 	 98.3297
| 23> S 	 -40.0992 	 -1.3237 	 97.0456
| 24> C 	 -40.799 	 -1.99653 	 95.6181
| 25> C 	 -39.9384 	 -2.80878 	 94.9353
| 26> C 	 -38.6787 	 -2.92547 	 95.557
| 27> C 	 -38.5685 	 -2.30044 	 96.783
| 28> H 	 -40.3186 	 -3.26766 	 94.0862
| 29> C 	 -37.5252 	 -3.62343 	 94.8671
| 30> H 	 -36.7814 	 -3.58296 	 95.7305
| 31> H 	 -37.2356 	 -2.90123 	 94.0908
| 32> C 	 -37.782 	 -5.02619 	 94.3035
| 33> H 	 -36.8623 	 -5.45161 	 93.8747
| 34> H 	 -38.4737 	 -4.92277 	 93.4843
| 35> C 	 -38.3171 	 -6.02412 	 95.4193
| 36> H 	 -39.372 	 -5.86298 	 95.476
| 37> H 	 -37.8088 	 -5.8801 	 96.391
| 38> H 	 -38.0395 	 -7.08488 	 95.1325
| 39> H 	 -35.8261 	 -2.02501 	 100.994
| 40> H 	 -41.7204 	 -1.75429 	 95.2886
| 41> *
| 42>
| 43>                          ****END OF INPUT****

CARTESIAN COORDINATES (ANGSTROEM)
---------------------------------
  S    -37.257600   -3.071450   99.116200
  C    -36.256100   -1.929360   99.952700
  C    -35.902600   -0.886023   99.140000
  C    -36.579900   -0.948755   97.874600
  C    -37.476100   -2.069200   97.710400
  H    -36.454900   -0.237998   97.070500
  C    -34.884500    0.163077   99.360500
  H    -34.838900    0.404855  100.388000
  H    -35.230900    1.143620   98.916300
  C    -33.476800   -0.095125   98.726800
  H    -33.002600   -0.933520   99.265700
  H    -33.699000   -0.370551   97.660600
  C    -32.511900    1.023830   98.768700
  H    -32.140000    1.189170   99.804900
  H    -31.591100    0.870080   98.263700
  H    -32.821600    2.013970   98.329700
  S    -40.099200   -1.323700   97.045600
  C    -40.799000   -1.996530   95.618100
  C    -39.938400   -2.808780   94.935300
  C    -38.678700   -2.925470   95.557000
  C    -38.568500   -2.300440   96.783000
  H    -40.318600   -3.267660   94.086200
  C    -37.525200   -3.623430   94.867100
  H    -36.781400   -3.582960   95.730500
  H    -37.235600   -2.901230   94.090800
  C    -37.782000   -5.026190   94.303500
  H    -36.862300   -5.451610   93.874700
  H    -38.473700   -4.922770   93.484300
  C    -38.317100   -6.024120   95.419300
  H    -39.372000   -5.862980   95.476000
  H    -37.808800   -5.880100   96.391000
  H    -38.039500   -7.084880   95.132500
  H    -35.826100   -2.025010  100.994000
  H    -41.720400   -1.754290   95.288600

 Total Charge           Charge          ....    0
 Multiplicity           Mult            ....    1
 Number of Electrons    NEL             ....  134
 Basis Dimension        Dim             ....  322

ORBITAL ENERGIES
----------------

  NO   OCC          E(Eh)            E(eV)
   0   2.0000     -88.966170     -2420.8926
   1   2.0000     -88.959863     -2420.7209
   2   2.0000     -10.333067      -281.1771
   3   2.0000     -10.328507      -281.0530
   4   2.0000     -10.319020      -280.7948
   5   2.0000     -10.309598      -280.5384
   6   2.0000     -10.302774      -280.3527
   7   2.0000     -10.300138      -280.2810
   8   2.0000     -10.298875      -280.2466
   9   2.0000     -10.292895      -280.0839
  10   2.0000     -10.292642      -280.0770
  11   2.0000     -10.291579      -280.0481
  12   2.0000     -10.290244      -280.0118
  13   2.0000     -10.283583      -279.8305
  14   2.0000     -10.281580      -279.7760
  15   2.0000     -10.279461      -279.7183
  16   2.0000      -8.081075      -219.8972
  17   2.0000      -8.074296      -219.7128
  18   2.0000      -6.039522      -164.3437
  19   2.0000      -6.035350      -164.2302
  20   2.0000      -6.032772      -164.1601
  21   2.0000      -6.032082      -164.1413
  22   2.0000      -6.028888      -164.0544
  23   2.0000      -6.025047      -163.9499
  24   2.0000      -1.003107       -27.2959
  25   2.0000      -0.984903       -26.8006
  26   2.0000      -0.914140       -24.8750
  27   2.0000      -0.904270       -24.6064
  28   2.0000      -0.873014       -23.7559
  29   2.0000      -0.850169       -23.1343
  30   2.0000      -0.841962       -22.9109
  31   2.0000      -0.810949       -22.0670
  32   2.0000      -0.783577       -21.3222
  33   2.0000      -0.771631       -20.9971
  34   2.0000      -0.711093       -19.3498
  35   2.0000      -0.701303       -19.0834
  36   2.0000      -0.696692       -18.9579
  37   2.0000      -0.659632       -17.9495
  38   2.0000      -0.638039       -17.3619
  39   2.0000      -0.617041       -16.7905
  40   2.0000      -0.591433       -16.0937
  41   2.0000      -0.575511       -15.6604
  42   2.0000      -0.564483       -15.3604
  43   2.0000      -0.551395       -15.0042
  44   2.0000      -0.542930       -14.7739
  45   2.0000      -0.529225       -14.4009
  46   2.0000      -0.518759       -14.1161
  47   2.0000      -0.514362       -13.9965
  48   2.0000      -0.503657       -13.7052
  49   2.0000      -0.501358       -13.6426
  50   2.0000      -0.484328       -13.1792
  51   2.0000      -0.477906       -13.0045
  52   2.0000      -0.466989       -12.7074
  53   2.0000      -0.461504       -12.5582
  54   2.0000      -0.458380       -12.4732
  55   2.0000      -0.454420       -12.3654
  56   2.0000      -0.441339       -12.0095
  57   2.0000      -0.429920       -11.6987
  58   2.0000      -0.426475       -11.6050
  59   2.0000      -0.423021       -11.5110
  60   2.0000      -0.420391       -11.4394
  61   2.0000      -0.417696       -11.3661
  62   2.0000      -0.408413       -11.1135
  63   2.0000      -0.332620        -9.0511
  64   2.0000      -0.326687        -8.8896
  65   2.0000      -0.318819        -8.6755
  66   2.0000      -0.311213        -8.4685
  67   0.0000       0.037406         1.0179
  68   0.0000       0.048055         1.3076
  69   0.0000       0.106668         2.9026
  70   0.0000       0.124194         3.3795
  71   0.0000       0.133486         3.6323

MULLIKEN ATOMIC CHARGES
-----------------------
   0 S :    0.126153
   1 C :   -0.135270
   2 C :   -0.080430
   3 C :    0.044097
   4 C :   -0.211351
   5 H :    0.012542
   6 C :    0.062730
   7 H :    0.004885
   8 H :    0.022167
   9 C :   -0.063983
  10 H :    0.033177
  11 H :    0.034571
  12 C :   -0.042937
  13 H :    0.026555
  14 H :    0.023196
  15 H :    0.031002
  16 S :    0.095587
  17 C :   -0.034924
  18 C :   -0.015508
  19 C :   -0.023342
  20 C :   -0.159322
  21 H :   -0.009692
  22 C :    0.044120
  23 H :    0.038785
  24 H :    0.047735
  25 C :   -0.068383
  26 H :    0.035848
  27 H :    0.027505
  28 C :   -0.071273
  29 H :    0.044858
  30 H :    0.041372
  31 H :    0.041925
  32 H :    0.067541
  33 H :    0.010064
Sum of atomic charges:    0.0000000

LOEWDIN ATOMIC CHARGES
----------------------
   0 S :    0.428325
   1 C :   -0.206806
   2 C :   -0.076028
   3 C :   -0.047658
   4 C :   -0.217685
   5 H :    0.027733
   6 C :   -0.034990
   7 H :    0.020705
   8 H :    0.035458
   9 C :   -0.041059
  10 H :    0.029355
  11 H :    0.029569
  12 C :   -0.075855
  13 H :    0.028871
  14 H :    0.024194
  15 H :    0.028517
  16 S :    0.381275
  17 C :   -0.151914
  18 C :   -0.074861
  19 C :   -0.046231
  20 C :   -0.193528
  21 H :    0.021207
  22 C :   -0.036840
  23 H :    0.035891
  24 H :    0.037861
  25 C :   -0.040984
  26 H :    0.027367
  27 H :    0.018982
  28 C :   -0.066019
  29 H :    0.023283
  30 H :    0.029071
  31 H :    0.032333
  32 H :    0.044731
  33 H :    0.005732

  Mayer bond orders larger than 0.100000
B(  0-S ,  1-C ) :   1.1611 B(  0-S ,  4-C ) :   1.1684 B(  1-C ,  2-C ) :   1.5836
B(  1-C ,  4-C ) :   0.1012 B(  1-C , 32-H ) :   0.9582 B(  2-C ,  3-C ) :   1.2662
B(  2-C ,  6-C ) :   1.0460 B(  3-C ,  4-C ) :   1.5251 B(  3-C ,  5-H ) :   0.9976
B(  4-C , 20-C ) :   1.0302 B(  6-C ,  7-H ) :   0.9336 B(  6-C ,  8-H ) :   0.9367
B(  6-C ,  9-C ) :   1.0523 B(  9-C , 10-H ) :   0.9508 B(  9-C , 11-H ) :   0.9543
B(  9-C , 12-C ) :   1.0982 B( 12-C , 13-H ) :   0.9697 B( 12-C , 14-H ) :   0.9688
B( 12-C , 15-H ) :   0.9700 B( 16-S , 17-C ) :   1.1733 B( 16-S , 20-C ) :   1.1030
B( 17-C , 18-C ) :   1.6180 B( 17-C , 33-H ) :   0.9747 B( 18-C , 19-C ) :   1.2084
B( 18-C , 21-H ) :   1.0080 B( 19-C , 20-C ) :   1.6238 B( 19-C , 22-C ) :   1.0204
B( 22-C , 23-H ) :   0.9337 B( 22-C , 24-H ) :   0.9353 B( 22-C , 25-C ) :   1.0695
B( 25-C , 26-H ) :   0.9593 B( 25-C , 27-H ) :   0.9553 B( 25-C , 28-C ) :   1.0598
B( 28-C , 29-H ) :   0.9757 B( 28-C , 30-H ) :   0.9786 B( 28-C , 31-H ) :   0.9785

Dispersion correction           -0.014326276
FINAL SINGLE POINT ENERGY     -1339.866626941374

DIPOLE MOMENT
-------------
                                X             Y             Z
Electronic contribution:    -19.47891       0.43010       6.70894
Nuclear contribution   :     19.88898      -0.27957      -7.06628
                        -----------------------------------------
Total Dipole Moment    :      0.41008       0.15053      -0.35734
                        -----------------------------------------
Magnitude (a.u.)       :      0.56437
Magnitude (Debye)      :      1.43453

Rotational constants in cm-1:     0.021243     0.007179     0.006612
Rotational constants in MHz :   636.858769   215.211506   198.235940

                             ****ORCA TERMINATED NORMALLY****
TOTAL RUN TIME: 0 days 0 hours 0 minutes 29 seconds 65 msec
