                         Program Version 4.2.1 -  RELEASE  -
|  1> ! wB97X-D3 SP def2-SVP
|  2> %pal
|  3> nprocs 16
|  4> end
|  5>
|  6> * xyz 0 1
|  7> S 	 -15.9572 	 54.8266 	 60.4497
|  8> C 	 -15.5484 	 53.4651 	 59.445
|  9> C 	 -14.1852 	 53.144 	 59.5345
| 10> C 	 -13.525 	 54.0897 	 60.4113
| 11> C 	 -14.3166 	 55.0684 	 61.0548
| 12> H 	 -12.4994 	 54.2053 	 60.5397
| 13> C 	 -13.5012 	 52.0349 	 58.7632
| 14> H 	 -12.4753 	 52.0386 	 59.1346
| 15> H 	 -13.5518 	 52.2842 	 57.7106
| 16> C 	 -13.9601 	 50.5957 	 58.9576
| 17> H 	 -13.6783 	 50.118 	 59.8856
| 18> H 	 -15.0121 	 50.6532 	 59.1332
| 19> C 	 -13.63 	 49.5929 	 57.75
| 20> H 	 -14.4761 	 48.8627 	 57.7266
| 21> H 	 -13.738 	 50.0176 	 56.7932
| 22> H 	 -12.623 	 49.1199 	 57.738
| 23> S 	 -13.4901 	 57.7698 	 60.7473
| 24> C 	 -13.2392 	 58.6994 	 62.1217
| 25> C 	 -13.1279 	 57.9271 	 63.262
| 26> C 	 -13.4986 	 56.5807 	 63.0219
| 27> C 	 -13.8781 	 56.3384 	 61.7142
| 28> H 	 -12.7362 	 58.4222 	 64.1582
| 29> C 	 -13.4429 	 55.4686 	 64.068
| 30> H 	 -13.7162 	 54.5361 	 63.6828
| 31> H 	 -14.1995 	 55.6695 	 64.8689
| 32> C 	 -12.0493 	 55.2697 	 64.6297
| 33> H 	 -11.7687 	 56.1797 	 65.1756
| 34> H 	 -11.2987 	 55.2171 	 63.8288
| 35> C 	 -11.9746 	 54.0572 	 65.6195
| 36> H 	 -12.111 	 53.0727 	 65.1919
| 37> H 	 -12.6012 	 54.2575 	 66.4547
| 38> H 	 -10.9056 	 54.1545 	 65.923
| 39> H 	 -16.259 	 52.7351 	 59.1093
| 40> H 	 -12.7546 	 59.6748 	 62.2127
| 41> *
| 42>
| 43>                          ****END OF INPUT****

CARTESIAN COORDINATES (ANGSTROEM)
---------------------------------
  S    -15.957200   54.826600   60.449700
  C    -15.548400   53.465100   59.445000
  C    -14.185200   53.144000   59.534500
  C    -13.525000   54.089700   60.411300
  C    -14.316600   55.068400   61.054800
  H    -12.499400   54.205300   60.539700
  C    -13.501200   52.034900   58.763200
  H    -12.475300   52.038600   59.134600
  H    -13.551800   52.284200   57.710600
  C    -13.960100   50.595700   58.957600
  H    -13.678300   50.118000   59.885600
  H    -15.012100   50.653200   59.133200
  C    -13.630000   49.592900   57.750000
  H    -14.476100   48.862700   57.726600
  H    -13.738000   50.017600   56.793200
  H    -12.623000   49.119900   57.738000
  S    -13.490100   57.769800   60.747300
  C    -13.239200   58.699400   62.121700
  C    -13.127900   57.927100   63.262000
  C    -13.498600   56.580700   63.021900
  C    -13.878100   56.338400   61.714200
  H    -12.736200   58.422200   64.158200
  C    -13.442900   55.468600   64.068000
  H    -13.716200   54.536100   63.682800
  H    -14.199500   55.669500   64.868900
  C    -12.049300   55.269700   64.629700
  H    -11.768700   56.179700   65.175600
  H    -11.298700   55.217100   63.828800
  C    -11.974600   54.057200   65.619500
  H    -12.111000   53.072700   65.191900
  H    -12.601200   54.257500   66.454700
  H    -10.905600   54.154500   65.923000
  H    -16.259000   52.735100   59.109300
  H    -12.754600   59.674800   62.212700

 Total Charge           Charge          ....    0
 Multiplicity           Mult            ....    1
 Number of Electrons    NEL             ....  134
 Basis Dimension        Dim             ....  322

ORBITAL ENERGIES
----------------

  NO   OCC          E(Eh)            E(eV)
   0   2.0000     -88.965870     -2420.8844
   1   2.0000     -88.964991     -2420.8605
   2   2.0000     -10.335258      -281.2367
   3   2.0000     -10.328266      -281.0464
   4   2.0000     -10.315492      -280.6988
   5   2.0000     -10.311734      -280.5965
   6   2.0000     -10.307225      -280.4739
   7   2.0000     -10.303438      -280.3708
   8   2.0000     -10.296826      -280.1909
   9   2.0000     -10.292934      -280.0850
  10   2.0000     -10.291860      -280.0558
  11   2.0000     -10.289965      -280.0042
  12   2.0000     -10.286987      -279.9231
  13   2.0000     -10.286654      -279.9141
  14   2.0000     -10.283402      -279.8256
  15   2.0000     -10.279325      -279.7147
  16   2.0000      -8.081463      -219.9078
  17   2.0000      -8.079360      -219.8506
  18   2.0000      -6.039836      -164.3523
  19   2.0000      -6.037816      -164.2973
  20   2.0000      -6.035943      -164.2463
  21   2.0000      -6.033625      -164.1833
  22   2.0000      -6.032195      -164.1444
  23   2.0000      -6.030465      -164.0973
  24   2.0000      -1.006899       -27.3991
  25   2.0000      -0.984569       -26.7915
  26   2.0000      -0.910159       -24.7667
  27   2.0000      -0.908609       -24.7245
  28   2.0000      -0.864936       -23.5361
  29   2.0000      -0.848917       -23.1002
  30   2.0000      -0.843394       -22.9499
  31   2.0000      -0.813968       -22.1492
  32   2.0000      -0.783997       -21.3336
  33   2.0000      -0.773691       -21.0532
  34   2.0000      -0.712480       -19.3876
  35   2.0000      -0.699608       -19.0373
  36   2.0000      -0.696960       -18.9652
  37   2.0000      -0.649779       -17.6814
  38   2.0000      -0.645475       -17.5643
  39   2.0000      -0.616317       -16.7708
  40   2.0000      -0.596490       -16.2313
  41   2.0000      -0.575658       -15.6644
  42   2.0000      -0.564573       -15.3628
  43   2.0000      -0.559548       -15.2261
  44   2.0000      -0.524531       -14.2732
  45   2.0000      -0.522710       -14.2237
  46   2.0000      -0.513127       -13.9629
  47   2.0000      -0.510798       -13.8995
  48   2.0000      -0.506197       -13.7743
  49   2.0000      -0.500547       -13.6206
  50   2.0000      -0.490098       -13.3362
  51   2.0000      -0.480280       -13.0691
  52   2.0000      -0.473971       -12.8974
  53   2.0000      -0.471825       -12.8390
  54   2.0000      -0.459698       -12.5090
  55   2.0000      -0.444805       -12.1038
  56   2.0000      -0.442157       -12.0317
  57   2.0000      -0.441311       -12.0087
  58   2.0000      -0.439305       -11.9541
  59   2.0000      -0.424139       -11.5414
  60   2.0000      -0.420789       -11.4502
  61   2.0000      -0.407555       -11.0901
  62   2.0000      -0.405779       -11.0418
  63   2.0000      -0.334733        -9.1085
  64   2.0000      -0.329287        -8.9604
  65   2.0000      -0.321268        -8.7421
  66   2.0000      -0.312455        -8.5023
  67   0.0000       0.038589         1.0501
  68   0.0000       0.048132         1.3097
  69   0.0000       0.111348         3.0299
  70   0.0000       0.124230         3.3805
  71   0.0000       0.131263         3.5719

MULLIKEN ATOMIC CHARGES
-----------------------
   0 S :    0.110364
   1 C :   -0.108566
   2 C :   -0.125507
   3 C :    0.059572
   4 C :   -0.181844
   5 H :   -0.012568
   6 C :    0.100252
   7 H :    0.024508
   8 H :    0.044205
   9 C :   -0.071463
  10 H :    0.026653
  11 H :    0.004187
  12 C :   -0.062090
  13 H :    0.035962
  14 H :    0.013961
  15 H :    0.054266
  16 S :    0.132488
  17 C :   -0.078088
  18 C :   -0.084589
  19 C :   -0.014749
  20 C :   -0.176503
  21 H :    0.027815
  22 C :    0.120563
  23 H :    0.001959
  24 H :    0.033848
  25 C :   -0.132589
  26 H :    0.023393
  27 H :    0.031787
  28 C :   -0.030423
  29 H :    0.043850
  30 H :    0.032323
  31 H :    0.035546
  32 H :    0.058316
  33 H :    0.063160
Sum of atomic charges:    0.0000000

LOEWDIN ATOMIC CHARGES
----------------------
   0 S :    0.414824
   1 C :   -0.199053
   2 C :   -0.065801
   3 C :   -0.051577
   4 C :   -0.200813
   5 H :    0.017427
   6 C :   -0.033217
   7 H :    0.033659
   8 H :    0.036821
   9 C :   -0.039996
  10 H :    0.026159
  11 H :    0.016093
  12 C :   -0.069467
  13 H :    0.035220
  14 H :    0.015574
  15 H :    0.032141
  16 S :    0.433955
  17 C :   -0.211533
  18 C :   -0.082731
  19 C :   -0.046611
  20 C :   -0.208279
  21 H :    0.034899
  22 C :   -0.030470
  23 H :    0.018451
  24 H :    0.035545
  25 C :   -0.039876
  26 H :    0.020285
  27 H :    0.023783
  28 C :   -0.060091
  29 H :    0.024552
  30 H :    0.021715
  31 H :    0.034664
  32 H :    0.026086
  33 H :    0.037660

  Mayer bond orders larger than 0.100000
B(  0-S ,  1-C ) :   1.1758 B(  0-S ,  4-C ) :   1.1589 B(  1-C ,  2-C ) :   1.5654
B(  1-C ,  4-C ) :   0.1056 B(  1-C , 32-H ) :   0.9616 B(  2-C ,  3-C ) :   1.2773
B(  2-C ,  6-C ) :   1.0206 B(  3-C ,  4-C ) :   1.5580 B(  3-C ,  5-H ) :   0.9984
B(  4-C , 20-C ) :   1.0079 B(  6-C ,  7-H ) :   0.9407 B(  6-C ,  8-H ) :   0.9416
B(  6-C ,  9-C ) :   1.0573 B(  9-C , 10-H ) :   0.9534 B(  9-C , 11-H ) :   0.9634
B(  9-C , 12-C ) :   1.0623 B( 12-C , 13-H ) :   0.9762 B( 12-C , 14-H ) :   0.9773
B( 12-C , 15-H ) :   0.9800 B( 16-S , 17-C ) :   1.1895 B( 16-S , 20-C ) :   1.1417
B( 17-C , 18-C ) :   1.5975 B( 17-C , 33-H ) :   0.9550 B( 18-C , 19-C ) :   1.2540
B( 18-C , 21-H ) :   0.9911 B( 19-C , 20-C ) :   1.5916 B( 19-C , 22-C ) :   1.0431
B( 22-C , 23-H ) :   0.9283 B( 22-C , 24-H ) :   0.9321 B( 22-C , 25-C ) :   1.0596
B( 25-C , 26-H ) :   0.9549 B( 25-C , 27-H ) :   0.9572 B( 25-C , 28-C ) :   1.0792
B( 28-C , 29-H ) :   0.9777 B( 28-C , 30-H ) :   0.9743 B( 28-C , 31-H ) :   0.9755

Dispersion correction           -0.013428706
FINAL SINGLE POINT ENERGY     -1339.857229497823

DIPOLE MOMENT
-------------
                                X             Y             Z
Electronic contribution:    -11.26297      24.10908      -6.25866
Nuclear contribution   :     11.79253     -24.53181       6.43247
                        -----------------------------------------
Total Dipole Moment    :      0.52956      -0.42272       0.17380
                        -----------------------------------------
Magnitude (a.u.)       :      0.69952
Magnitude (Debye)      :      1.77805

Rotational constants in cm-1:     0.019098     0.007271     0.005949
Rotational constants in MHz :   572.529961   217.991997   178.352462

                             ****ORCA TERMINATED NORMALLY****
TOTAL RUN TIME: 0 days 0 hours 0 minutes 31 seconds 270 msec
