                         Program Version 4.2.1 -  RELEASE  -
|  1> ! wB97X-D3 SP def2-SVP
|  2> %pal
|  3> nprocs 16
|  4> end
|  5>
|  6> * xyz 0 1
|  7> S 	 -30.7822 	 68.7196 	 109.467
|  8> C 	 -32.4675 	 68.707 	 108.859
|  9> C 	 -32.9242 	 69.987 	 108.774
| 10> C 	 -31.9384 	 70.9748 	 109.069
| 11> C 	 -30.6718 	 70.4314 	 109.305
| 12> H 	 -32.0516 	 72.0353 	 108.973
| 13> C 	 -34.336 	 70.3074 	 108.504
| 14> H 	 -35.0089 	 69.9496 	 109.318
| 15> H 	 -34.5389 	 69.5719 	 107.792
| 16> C 	 -34.727 	 71.7188 	 108.18
| 17> H 	 -34.8294 	 72.2759 	 109.095
| 18> H 	 -33.8987 	 72.2577 	 107.672
| 19> C 	 -36.0521 	 71.739 	 107.4
| 20> H 	 -36.1515 	 72.7163 	 106.978
| 21> H 	 -36.0778 	 71.06 	 106.567
| 22> H 	 -36.808 	 71.5276 	 108.14
| 23> S 	 -28.5756 	 70.6286 	 110.979
| 24> C 	 -27.461 	 71.9845 	 110.865
| 25> C 	 -27.9164 	 72.8894 	 109.896
| 26> C 	 -29.0808 	 72.4817 	 109.16
| 27> C 	 -29.5458 	 71.2313 	 109.661
| 28> H 	 -27.3573 	 73.753 	 109.624
| 29> C 	 -29.6461 	 73.1812 	 107.976
| 30> H 	 -30.1228 	 72.457 	 107.393
| 31> H 	 -28.8108 	 73.4673 	 107.324
| 32> C 	 -30.4555 	 74.3812 	 108.287
| 33> H 	 -29.8778 	 75.0927 	 108.95
| 34> H 	 -31.5249 	 74.1638 	 108.776
| 35> C 	 -30.6683 	 75.3529 	 107.178
| 36> H 	 -31.0365 	 76.319 	 107.55
| 37> H 	 -31.3776 	 74.8585 	 106.461
| 38> H 	 -29.7623 	 75.7304 	 106.579
| 39> H 	 -33.1252 	 67.8743 	 108.8
| 40> H 	 -26.6872 	 72.2994 	 111.545
| 41> *
| 42>
| 43>                          ****END OF INPUT****

CARTESIAN COORDINATES (ANGSTROEM)
---------------------------------
  S    -30.782200   68.719600  109.467000
  C    -32.467500   68.707000  108.859000
  C    -32.924200   69.987000  108.774000
  C    -31.938400   70.974800  109.069000
  C    -30.671800   70.431400  109.305000
  H    -32.051600   72.035300  108.973000
  C    -34.336000   70.307400  108.504000
  H    -35.008900   69.949600  109.318000
  H    -34.538900   69.571900  107.792000
  C    -34.727000   71.718800  108.180000
  H    -34.829400   72.275900  109.095000
  H    -33.898700   72.257700  107.672000
  C    -36.052100   71.739000  107.400000
  H    -36.151500   72.716300  106.978000
  H    -36.077800   71.060000  106.567000
  H    -36.808000   71.527600  108.140000
  S    -28.575600   70.628600  110.979000
  C    -27.461000   71.984500  110.865000
  C    -27.916400   72.889400  109.896000
  C    -29.080800   72.481700  109.160000
  C    -29.545800   71.231300  109.661000
  H    -27.357300   73.753000  109.624000
  C    -29.646100   73.181200  107.976000
  H    -30.122800   72.457000  107.393000
  H    -28.810800   73.467300  107.324000
  C    -30.455500   74.381200  108.287000
  H    -29.877800   75.092700  108.950000
  H    -31.524900   74.163800  108.776000
  C    -30.668300   75.352900  107.178000
  H    -31.036500   76.319000  107.550000
  H    -31.377600   74.858500  106.461000
  H    -29.762300   75.730400  106.579000
  H    -33.125200   67.874300  108.800000
  H    -26.687200   72.299400  111.545000

 Total Charge           Charge          ....    0
 Multiplicity           Mult            ....    1
 Number of Electrons    NEL             ....  134
 Basis Dimension        Dim             ....  322

ORBITAL ENERGIES
----------------

  NO   OCC          E(Eh)            E(eV)
   0   2.0000     -88.968517     -2420.9564
   1   2.0000     -88.967396     -2420.9259
   2   2.0000     -10.328107      -281.0421
   3   2.0000     -10.327150      -281.0160
   4   2.0000     -10.317901      -280.7644
   5   2.0000     -10.308378      -280.5052
   6   2.0000     -10.304809      -280.4081
   7   2.0000     -10.298814      -280.2450
   8   2.0000     -10.295403      -280.1522
   9   2.0000     -10.294313      -280.1225
  10   2.0000     -10.289525      -279.9922
  11   2.0000     -10.286900      -279.9208
  12   2.0000     -10.286740      -279.9164
  13   2.0000     -10.286625      -279.9133
  14   2.0000     -10.282070      -279.7893
  15   2.0000     -10.276525      -279.6385
  16   2.0000      -8.082890      -219.9466
  17   2.0000      -8.081641      -219.9126
  18   2.0000      -6.041450      -164.3962
  19   2.0000      -6.040274      -164.3642
  20   2.0000      -6.037320      -164.2838
  21   2.0000      -6.036291      -164.2558
  22   2.0000      -6.033754      -164.1868
  23   2.0000      -6.032229      -164.1453
  24   2.0000      -1.008625       -27.4461
  25   2.0000      -0.982022       -26.7222
  26   2.0000      -0.923976       -25.1427
  27   2.0000      -0.920591       -25.0505
  28   2.0000      -0.875467       -23.8227
  29   2.0000      -0.857502       -23.3338
  30   2.0000      -0.846025       -23.0215
  31   2.0000      -0.816672       -22.2228
  32   2.0000      -0.786163       -21.3926
  33   2.0000      -0.774261       -21.0687
  34   2.0000      -0.719608       -19.5815
  35   2.0000      -0.696463       -18.9517
  36   2.0000      -0.689651       -18.7663
  37   2.0000      -0.662139       -18.0177
  38   2.0000      -0.638887       -17.3850
  39   2.0000      -0.622167       -16.9300
  40   2.0000      -0.600227       -16.3330
  41   2.0000      -0.576224       -15.6799
  42   2.0000      -0.569022       -15.4839
  43   2.0000      -0.561762       -15.2863
  44   2.0000      -0.538229       -14.6460
  45   2.0000      -0.529912       -14.4196
  46   2.0000      -0.522395       -14.2151
  47   2.0000      -0.518438       -14.1074
  48   2.0000      -0.511326       -13.9139
  49   2.0000      -0.503030       -13.6881
  50   2.0000      -0.492164       -13.3925
  51   2.0000      -0.487825       -13.2744
  52   2.0000      -0.474642       -12.9157
  53   2.0000      -0.466770       -12.7015
  54   2.0000      -0.456256       -12.4154
  55   2.0000      -0.448847       -12.2138
  56   2.0000      -0.444619       -12.0987
  57   2.0000      -0.441541       -12.0149
  58   2.0000      -0.429700       -11.6927
  59   2.0000      -0.425401       -11.5757
  60   2.0000      -0.421642       -11.4735
  61   2.0000      -0.415167       -11.2973
  62   2.0000      -0.404519       -11.0075
  63   2.0000      -0.351639        -9.5686
  64   2.0000      -0.332176        -9.0390
  65   2.0000      -0.327053        -8.8996
  66   2.0000      -0.281716        -7.6659
  67   0.0000       0.019456         0.5294
  68   0.0000       0.076348         2.0775
  69   0.0000       0.102924         2.8007
  70   0.0000       0.119022         3.2388
  71   0.0000       0.123929         3.3723

MULLIKEN ATOMIC CHARGES
-----------------------
   0 S :    0.103897
   1 C :   -0.114162
   2 C :   -0.073579
   3 C :    0.020793
   4 C :   -0.118729
   5 H :   -0.027287
   6 C :    0.075846
   7 H :    0.035562
   8 H :    0.003425
   9 C :   -0.101443
  10 H :    0.030900
  11 H :    0.030972
  12 C :   -0.002168
  13 H :    0.025654
  14 H :    0.030686
  15 H :    0.034009
  16 S :    0.109740
  17 C :   -0.081814
  18 C :   -0.036519
  19 C :   -0.041147
  20 C :   -0.160484
  21 H :    0.007583
  22 C :    0.120466
  23 H :    0.012562
  24 H :    0.019202
  25 C :   -0.117585
  26 H :    0.032052
  27 H :    0.064252
  28 C :   -0.082895
  29 H :    0.037187
  30 H :    0.034777
  31 H :    0.038466
  32 H :    0.030580
  33 H :    0.059199
Sum of atomic charges:    0.0000000

LOEWDIN ATOMIC CHARGES
----------------------
   0 S :    0.400966
   1 C :   -0.189888
   2 C :   -0.055907
   3 C :   -0.065279
   4 C :   -0.199914
   5 H :    0.021142
   6 C :   -0.042341
   7 H :    0.041229
   8 H :    0.025969
   9 C :   -0.043534
  10 H :    0.025274
  11 H :    0.021800
  12 C :   -0.050664
  13 H :    0.024765
  14 H :    0.023114
  15 H :    0.027501
  16 S :    0.411323
  17 C :   -0.194344
  18 C :   -0.061762
  19 C :   -0.052184
  20 C :   -0.191310
  21 H :    0.024389
  22 C :   -0.037395
  23 H :    0.025672
  24 H :    0.039282
  25 C :   -0.057352
  26 H :    0.032516
  27 H :    0.038189
  28 C :   -0.079369
  29 H :    0.027133
  30 H :    0.023956
  31 H :    0.031142
  32 H :    0.023625
  33 H :    0.032254

  Mayer bond orders larger than 0.100000
B(  0-S ,  1-C ) :   1.1083 B(  0-S ,  4-C ) :   1.1580 B(  1-C ,  2-C ) :   1.6144
B(  1-C , 32-H ) :   0.9748 B(  2-C ,  3-C ) :   1.2544 B(  2-C ,  6-C ) :   1.0147
B(  3-C ,  4-C ) :   1.5134 B(  3-C ,  5-H ) :   0.9906 B(  4-C , 20-C ) :   1.0911
B(  6-C ,  7-H ) :   0.9201 B(  6-C ,  8-H ) :   0.9336 B(  6-C ,  9-C ) :   1.0720
B(  9-C , 10-H ) :   0.9452 B(  9-C , 11-H ) :   0.9588 B(  9-C , 12-C ) :   1.0771
B( 12-C , 13-H ) :   0.9726 B( 12-C , 14-H ) :   0.9805 B( 12-C , 15-H ) :   0.9755
B( 16-S , 17-C ) :   1.1423 B( 16-S , 20-C ) :   1.1536 B( 17-C , 18-C ) :   1.6005
B( 17-C , 20-C ) :   0.1040 B( 17-C , 33-H ) :   0.9670 B( 18-C , 19-C ) :   1.2675
B( 18-C , 21-H ) :   0.9845 B( 19-C , 20-C ) :   1.5418 B( 19-C , 22-C ) :   1.0546
B( 22-C , 23-H ) :   0.9173 B( 22-C , 24-H ) :   0.9244 B( 22-C , 25-C ) :   1.0645
B( 25-C , 26-H ) :   0.9566 B( 25-C , 27-H ) :   0.9355 B( 25-C , 28-C ) :   1.0822
B( 28-C , 29-H ) :   0.9745 B( 28-C , 30-H ) :   0.9712 B( 28-C , 31-H ) :   0.9696

Dispersion correction           -0.014095901
FINAL SINGLE POINT ENERGY     -1339.857951733017

DIPOLE MOMENT
-------------
                                X             Y             Z
Electronic contribution:     20.50883     -21.59491      15.34628
Nuclear contribution   :    -20.94881      22.21361     -15.60044
                        -----------------------------------------
Total Dipole Moment    :     -0.43998       0.61871      -0.25416
                        -----------------------------------------
Magnitude (a.u.)       :      0.80061
Magnitude (Debye)      :      2.03500

Rotational constants in cm-1:     0.016544     0.010032     0.006573
Rotational constants in MHz :   495.990831   300.749432   197.056045

                             ****ORCA TERMINATED NORMALLY****
TOTAL RUN TIME: 0 days 0 hours 0 minutes 29 seconds 459 msec
