                         Program Version 4.2.1 -  RELEASE  -
|  1> ! wB97X-D3 SP def2-SVP
|  2> %pal
|  3> nprocs 16
|  4> end
|  5>
|  6> * xyz 0 1
|  7> S 	 16.5702 	 23.7155 	 62.1717
|  8> C 	 16.2467 	 22.3588 	 61.0668
|  9> C 	 14.8927 	 22.0875 	 60.9984
| 10> C 	 14.0733 	 22.8952 	 61.8353
| 11> C 	 14.8121 	 23.8915 	 62.4438
| 12> H 	 13.0115 	 22.975 	 61.9257
| 13> C 	 14.2561 	 21.0397 	 60.1898
| 14> H 	 14.5241 	 21.2318 	 59.118
| 15> H 	 13.1363 	 21.2208 	 60.249
| 16> C 	 14.3388 	 19.6475 	 60.5298
| 17> H 	 13.8598 	 18.9103 	 59.822
| 18> H 	 15.3584 	 19.2871 	 60.6226
| 19> C 	 13.7498 	 19.473 	 61.9742
| 20> H 	 14.1177 	 20.2703 	 62.6809
| 21> H 	 12.6856 	 19.4834 	 61.9543
| 22> H 	 14.0744 	 18.5092 	 62.3765
| 23> S 	 15.2473 	 25.231 	 64.8292
| 24> C 	 14.1647 	 26.3999 	 65.4182
| 25> C 	 13.2202 	 26.6422 	 64.3816
| 26> C 	 13.2812 	 25.7876 	 63.2279
| 27> C 	 14.3221 	 24.931 	 63.353
| 28> H 	 12.4919 	 27.4141 	 64.5251
| 29> C 	 12.4907 	 25.9986 	 61.9098
| 30> H 	 12.3447 	 25.0992 	 61.2652
| 31> H 	 13.1275 	 26.7561 	 61.3462
| 32> C 	 11.0486 	 26.5061 	 62.0797
| 33> H 	 10.6605 	 26.7792 	 61.0661
| 34> H 	 11.062 	 27.3725 	 62.7333
| 35> C 	 10.1685 	 25.4287 	 62.7187
| 36> H 	 10.5932 	 25.224 	 63.6771
| 37> H 	 10.2817 	 24.4728 	 62.1064
| 38> H 	 9.10159 	 25.7239 	 62.7047
| 39> H 	 16.8997 	 21.8211 	 60.4062
| 40> H 	 13.9907 	 26.8415 	 66.3646
| 41> *
| 42>
| 43>                          ****END OF INPUT****

CARTESIAN COORDINATES (ANGSTROEM)
---------------------------------
  S     16.570200   23.715500   62.171700
  C     16.246700   22.358800   61.066800
  C     14.892700   22.087500   60.998400
  C     14.073300   22.895200   61.835300
  C     14.812100   23.891500   62.443800
  H     13.011500   22.975000   61.925700
  C     14.256100   21.039700   60.189800
  H     14.524100   21.231800   59.118000
  H     13.136300   21.220800   60.249000
  C     14.338800   19.647500   60.529800
  H     13.859800   18.910300   59.822000
  H     15.358400   19.287100   60.622600
  C     13.749800   19.473000   61.974200
  H     14.117700   20.270300   62.680900
  H     12.685600   19.483400   61.954300
  H     14.074400   18.509200   62.376500
  S     15.247300   25.231000   64.829200
  C     14.164700   26.399900   65.418200
  C     13.220200   26.642200   64.381600
  C     13.281200   25.787600   63.227900
  C     14.322100   24.931000   63.353000
  H     12.491900   27.414100   64.525100
  C     12.490700   25.998600   61.909800
  H     12.344700   25.099200   61.265200
  H     13.127500   26.756100   61.346200
  C     11.048600   26.506100   62.079700
  H     10.660500   26.779200   61.066100
  H     11.062000   27.372500   62.733300
  C     10.168500   25.428700   62.718700
  H     10.593200   25.224000   63.677100
  H     10.281700   24.472800   62.106400
  H      9.101590   25.723900   62.704700
  H     16.899700   21.821100   60.406200
  H     13.990700   26.841500   66.364600

 Total Charge           Charge          ....    0
 Multiplicity           Mult            ....    1
 Number of Electrons    NEL             ....  134
 Basis Dimension        Dim             ....  322

ORBITAL ENERGIES
----------------

  NO   OCC          E(Eh)            E(eV)
   0   2.0000     -88.970981     -2421.0235
   1   2.0000     -88.968771     -2420.9633
   2   2.0000     -10.333774      -281.1963
   3   2.0000     -10.326374      -280.9949
   4   2.0000     -10.318817      -280.7893
   5   2.0000     -10.314498      -280.6718
   6   2.0000     -10.307007      -280.4679
   7   2.0000     -10.304847      -280.4092
   8   2.0000     -10.299086      -280.2524
   9   2.0000     -10.297528      -280.2100
  10   2.0000     -10.293126      -280.0902
  11   2.0000     -10.289706      -279.9971
  12   2.0000     -10.287911      -279.9483
  13   2.0000     -10.284409      -279.8530
  14   2.0000     -10.282678      -279.8059
  15   2.0000     -10.274020      -279.5703
  16   2.0000      -8.084323      -219.9856
  17   2.0000      -8.083836      -219.9724
  18   2.0000      -6.042970      -164.4376
  19   2.0000      -6.042378      -164.4215
  20   2.0000      -6.039132      -164.3331
  21   2.0000      -6.038151      -164.3065
  22   2.0000      -6.034906      -164.2181
  23   2.0000      -6.034659      -164.2114
  24   2.0000      -1.009507       -27.4701
  25   2.0000      -0.985654       -26.8210
  26   2.0000      -0.923388       -25.1267
  27   2.0000      -0.912484       -24.8299
  28   2.0000      -0.870340       -23.6832
  29   2.0000      -0.851954       -23.1828
  30   2.0000      -0.843286       -22.9470
  31   2.0000      -0.812726       -22.1154
  32   2.0000      -0.781360       -21.2619
  33   2.0000      -0.773184       -21.0394
  34   2.0000      -0.708993       -19.2927
  35   2.0000      -0.701893       -19.0995
  36   2.0000      -0.694227       -18.8909
  37   2.0000      -0.658356       -17.9148
  38   2.0000      -0.640495       -17.4288
  39   2.0000      -0.613577       -16.6963
  40   2.0000      -0.600971       -16.3533
  41   2.0000      -0.577999       -15.7282
  42   2.0000      -0.561289       -15.2735
  43   2.0000      -0.556762       -15.1503
  44   2.0000      -0.545568       -14.8457
  45   2.0000      -0.537609       -14.6291
  46   2.0000      -0.523892       -14.2558
  47   2.0000      -0.510302       -13.8860
  48   2.0000      -0.501527       -13.6472
  49   2.0000      -0.494891       -13.4667
  50   2.0000      -0.489113       -13.3094
  51   2.0000      -0.478410       -13.0182
  52   2.0000      -0.471200       -12.8220
  53   2.0000      -0.465656       -12.6711
  54   2.0000      -0.458443       -12.4749
  55   2.0000      -0.445850       -12.1322
  56   2.0000      -0.443239       -12.0612
  57   2.0000      -0.441905       -12.0248
  58   2.0000      -0.434211       -11.8155
  59   2.0000      -0.421813       -11.4781
  60   2.0000      -0.416628       -11.3370
  61   2.0000      -0.414582       -11.2813
  62   2.0000      -0.402809       -10.9610
  63   2.0000      -0.353969        -9.6320
  64   2.0000      -0.333919        -9.0864
  65   2.0000      -0.331460        -9.0195
  66   2.0000      -0.288546        -7.8517
  67   0.0000       0.025847         0.7033
  68   0.0000       0.063220         1.7203
  69   0.0000       0.100296         2.7292
  70   0.0000       0.118536         3.2255
  71   0.0000       0.124023         3.3748

MULLIKEN ATOMIC CHARGES
-----------------------
   0 S :    0.106471
   1 C :   -0.090057
   2 C :   -0.099700
   3 C :    0.037820
   4 C :   -0.148365
   5 H :    0.008337
   6 C :    0.043739
   7 H :    0.038848
   8 H :    0.018519
   9 C :   -0.041203
  10 H :    0.041108
  11 H :    0.016890
  12 C :   -0.096352
  13 H :    0.062713
  14 H :    0.023702
  15 H :    0.028718
  16 S :    0.121557
  17 C :   -0.066756
  18 C :   -0.074933
  19 C :   -0.021143
  20 C :   -0.160298
  21 H :    0.009761
  22 C :    0.019462
  23 H :    0.032484
  24 H :    0.065367
  25 C :   -0.082954
  26 H :    0.037315
  27 H :    0.028154
  28 C :   -0.061079
  29 H :    0.038542
  30 H :    0.025917
  31 H :    0.051273
  32 H :    0.035010
  33 H :    0.051134
Sum of atomic charges:   -0.0000000

LOEWDIN ATOMIC CHARGES
----------------------
   0 S :    0.380490
   1 C :   -0.190798
   2 C :   -0.061916
   3 C :   -0.062308
   4 C :   -0.165450
   5 H :    0.029714
   6 C :   -0.049436
   7 H :    0.036300
   8 H :    0.036338
   9 C :   -0.046158
  10 H :    0.033693
  11 H :    0.017757
  12 C :   -0.066434
  13 H :    0.037016
  14 H :    0.015756
  15 H :    0.023771
  16 S :    0.424461
  17 C :   -0.203150
  18 C :   -0.071113
  19 C :   -0.066375
  20 C :   -0.193433
  21 H :    0.020412
  22 C :   -0.031696
  23 H :    0.031717
  24 H :    0.046719
  25 C :   -0.046256
  26 H :    0.028643
  27 H :    0.017478
  28 C :   -0.066854
  29 H :    0.022548
  30 H :    0.027174
  31 H :    0.031094
  32 H :    0.028423
  33 H :    0.031873

  Mayer bond orders larger than 0.100000
B(  0-S ,  1-C ) :   1.1084 B(  0-S ,  4-C ) :   1.1415 B(  1-C ,  2-C ) :   1.6388
B(  1-C , 32-H ) :   0.9675 B(  2-C ,  3-C ) :   1.2080 B(  2-C ,  6-C ) :   1.0269
B(  3-C ,  4-C ) :   1.5993 B(  3-C ,  5-H ) :   0.9887 B(  4-C , 20-C ) :   1.0334
B(  6-C ,  7-H ) :   0.9246 B(  6-C ,  8-H ) :   0.9390 B(  6-C ,  9-C ) :   1.0893
B(  9-C , 10-H ) :   0.9515 B(  9-C , 11-H ) :   0.9528 B(  9-C , 12-C ) :   1.0595
B( 12-C , 13-H ) :   0.9745 B( 12-C , 14-H ) :   0.9774 B( 12-C , 15-H ) :   0.9751
B( 16-S , 17-C ) :   1.1622 B( 16-S , 20-C ) :   1.1454 B( 17-C , 18-C ) :   1.5900
B( 17-C , 20-C ) :   0.1018 B( 17-C , 33-H ) :   0.9732 B( 18-C , 19-C ) :   1.2416
B( 18-C , 21-H ) :   0.9857 B( 19-C , 20-C ) :   1.6008 B( 19-C , 22-C ) :   1.0222
B( 22-C , 23-H ) :   0.9424 B( 22-C , 24-H ) :   0.9373 B( 22-C , 25-C ) :   1.0690
B( 25-C , 26-H ) :   0.9545 B( 25-C , 27-H ) :   0.9519 B( 25-C , 28-C ) :   1.0732
B( 28-C , 29-H ) :   0.9736 B( 28-C , 30-H ) :   0.9717 B( 28-C , 31-H ) :   0.9741

Dispersion correction           -0.014663546
FINAL SINGLE POINT ENERGY     -1339.865895023966

DIPOLE MOMENT
-------------
                                X             Y             Z
Electronic contribution:     21.77335      10.70082      10.50205
Nuclear contribution   :    -22.35198     -10.68977     -10.80313
                        -----------------------------------------
Total Dipole Moment    :     -0.57863       0.01106      -0.30108
                        -----------------------------------------
Magnitude (a.u.)       :      0.65237
Magnitude (Debye)      :      1.65820

Rotational constants in cm-1:     0.018811     0.008998     0.007063
Rotational constants in MHz :   563.939689   269.755407   211.744731

                             ****ORCA TERMINATED NORMALLY****
TOTAL RUN TIME: 0 days 0 hours 0 minutes 33 seconds 882 msec
