                         Program Version 4.2.1 -  RELEASE  -
|  1> ! wB97X-D3 SP def2-SVP
|  2> %pal
|  3> nprocs 16
|  4> end
|  5>
|  6> * xyz 0 1
|  7> S 	 -31.5233 	 72.4587 	 154.148
|  8> C 	 -29.8477 	 73.1189 	 154.056
|  9> C 	 -29.2026 	 72.8591 	 152.903
| 10> C 	 -30.0672 	 72.1765 	 151.968
| 11> C 	 -31.3544 	 71.9806 	 152.462
| 12> H 	 -29.8004 	 71.8383 	 151.002
| 13> C 	 -27.6807 	 72.9912 	 152.705
| 14> H 	 -27.1775 	 72.2749 	 153.351
| 15> H 	 -27.6465 	 73.9414 	 153.125
| 16> C 	 -27.2116 	 73.0059 	 151.236
| 17> H 	 -27.1073 	 71.9347 	 150.859
| 18> H 	 -28.0384 	 73.4763 	 150.665
| 19> C 	 -25.8211 	 73.6521 	 151.018
| 20> H 	 -25.5854 	 73.8926 	 149.944
| 21> H 	 -25.5676 	 74.6132 	 151.578
| 22> H 	 -24.978 	 73.0559 	 151.289
| 23> S 	 -32.7313 	 71.7651 	 150.09
| 24> C 	 -34.2645 	 70.7708 	 150.034
| 25> C 	 -34.4931 	 70.1634 	 151.262
| 26> C 	 -33.4614 	 70.4088 	 152.246
| 27> C 	 -32.5008 	 71.3284 	 151.818
| 28> H 	 -35.2304 	 69.408 	 151.424
| 29> C 	 -33.3377 	 69.5792 	 153.523
| 30> H 	 -32.3357 	 69.6407 	 154.05
| 31> H 	 -33.4058 	 68.5358 	 153.265
| 32> C 	 -34.4944 	 69.994 	 154.494
| 33> H 	 -35.3755 	 69.935 	 153.94
| 34> H 	 -34.3128 	 70.9766 	 154.965
| 35> C 	 -34.6731 	 69.0903 	 155.7
| 36> H 	 -35.6012 	 69.346 	 156.182
| 37> H 	 -33.7701 	 69.2031 	 156.295
| 38> H 	 -34.674 	 67.9477 	 155.493
| 39> H 	 -29.3648 	 73.4847 	 154.906
| 40> H 	 -34.7935 	 70.5016 	 149.124
| 41> *
| 42>
| 43>                          ****END OF INPUT****

CARTESIAN COORDINATES (ANGSTROEM)
---------------------------------
  S    -31.523300   72.458700  154.148000
  C    -29.847700   73.118900  154.056000
  C    -29.202600   72.859100  152.903000
  C    -30.067200   72.176500  151.968000
  C    -31.354400   71.980600  152.462000
  H    -29.800400   71.838300  151.002000
  C    -27.680700   72.991200  152.705000
  H    -27.177500   72.274900  153.351000
  H    -27.646500   73.941400  153.125000
  C    -27.211600   73.005900  151.236000
  H    -27.107300   71.934700  150.859000
  H    -28.038400   73.476300  150.665000
  C    -25.821100   73.652100  151.018000
  H    -25.585400   73.892600  149.944000
  H    -25.567600   74.613200  151.578000
  H    -24.978000   73.055900  151.289000
  S    -32.731300   71.765100  150.090000
  C    -34.264500   70.770800  150.034000
  C    -34.493100   70.163400  151.262000
  C    -33.461400   70.408800  152.246000
  C    -32.500800   71.328400  151.818000
  H    -35.230400   69.408000  151.424000
  C    -33.337700   69.579200  153.523000
  H    -32.335700   69.640700  154.050000
  H    -33.405800   68.535800  153.265000
  C    -34.494400   69.994000  154.494000
  H    -35.375500   69.935000  153.940000
  H    -34.312800   70.976600  154.965000
  C    -34.673100   69.090300  155.700000
  H    -35.601200   69.346000  156.182000
  H    -33.770100   69.203100  156.295000
  H    -34.674000   67.947700  155.493000
  H    -29.364800   73.484700  154.906000
  H    -34.793500   70.501600  149.124000

 Total Charge           Charge          ....    0
 Multiplicity           Mult            ....    1
 Number of Electrons    NEL             ....  134
 Basis Dimension        Dim             ....  322

ORBITAL ENERGIES
----------------

  NO   OCC          E(Eh)            E(eV)
   0   2.0000     -88.968243     -2420.9490
   1   2.0000     -88.964854     -2420.8567
   2   2.0000     -10.333770      -281.1962
   3   2.0000     -10.331879      -281.1447
   4   2.0000     -10.326860      -281.0081
   5   2.0000     -10.308562      -280.5102
   6   2.0000     -10.307237      -280.4742
   7   2.0000     -10.302379      -280.3420
   8   2.0000     -10.301468      -280.3172
   9   2.0000     -10.299753      -280.2705
  10   2.0000     -10.296559      -280.1836
  11   2.0000     -10.294491      -280.1273
  12   2.0000     -10.291862      -280.0558
  13   2.0000     -10.287596      -279.9397
  14   2.0000     -10.281166      -279.7648
  15   2.0000     -10.278083      -279.6809
  16   2.0000      -8.081781      -219.9164
  17   2.0000      -8.077713      -219.8058
  18   2.0000      -6.040378      -164.3671
  19   2.0000      -6.036717      -164.2674
  20   2.0000      -6.036459      -164.2604
  21   2.0000      -6.032619      -164.1559
  22   2.0000      -6.032285      -164.1468
  23   2.0000      -6.028193      -164.0355
  24   2.0000      -0.998347       -27.1664
  25   2.0000      -0.973449       -26.4889
  26   2.0000      -0.910431       -24.7741
  27   2.0000      -0.904573       -24.6147
  28   2.0000      -0.867468       -23.6050
  29   2.0000      -0.848582       -23.0911
  30   2.0000      -0.840105       -22.8604
  31   2.0000      -0.815122       -22.1806
  32   2.0000      -0.784491       -21.3471
  33   2.0000      -0.768056       -20.8999
  34   2.0000      -0.713841       -19.4246
  35   2.0000      -0.693186       -18.8626
  36   2.0000      -0.688806       -18.7434
  37   2.0000      -0.668972       -18.2036
  38   2.0000      -0.638458       -17.3733
  39   2.0000      -0.615196       -16.7403
  40   2.0000      -0.595532       -16.2052
  41   2.0000      -0.574069       -15.6212
  42   2.0000      -0.566167       -15.4062
  43   2.0000      -0.556361       -15.1394
  44   2.0000      -0.530259       -14.4291
  45   2.0000      -0.521166       -14.1817
  46   2.0000      -0.514759       -14.0073
  47   2.0000      -0.511276       -13.9125
  48   2.0000      -0.505519       -13.7559
  49   2.0000      -0.498689       -13.5700
  50   2.0000      -0.488147       -13.2832
  51   2.0000      -0.478869       -13.0307
  52   2.0000      -0.472531       -12.8582
  53   2.0000      -0.463162       -12.6033
  54   2.0000      -0.452113       -12.3026
  55   2.0000      -0.445704       -12.1282
  56   2.0000      -0.443550       -12.0696
  57   2.0000      -0.431221       -11.7341
  58   2.0000      -0.429226       -11.6798
  59   2.0000      -0.425129       -11.5684
  60   2.0000      -0.420951       -11.4547
  61   2.0000      -0.419751       -11.4220
  62   2.0000      -0.413033       -11.2392
  63   2.0000      -0.350176        -9.5288
  64   2.0000      -0.332918        -9.0591
  65   2.0000      -0.328616        -8.9421
  66   2.0000      -0.287221        -7.8157
  67   0.0000       0.020329         0.5532
  68   0.0000       0.075411         2.0520
  69   0.0000       0.088387         2.4051
  70   0.0000       0.110914         3.0181
  71   0.0000       0.135543         3.6883

MULLIKEN ATOMIC CHARGES
-----------------------
   0 S :    0.097433
   1 C :   -0.117733
   2 C :   -0.093138
   3 C :    0.015772
   4 C :   -0.127623
   5 H :    0.000390
   6 C :    0.109269
   7 H :    0.054337
   8 H :    0.015742
   9 C :   -0.105760
  10 H :    0.050419
  11 H :    0.049842
  12 C :   -0.068048
  13 H :    0.039060
  14 H :    0.035476
  15 H :    0.024845
  16 S :    0.077302
  17 C :   -0.093410
  18 C :   -0.002889
  19 C :   -0.047638
  20 C :   -0.137194
  21 H :    0.017452
  22 C :    0.026473
  23 H :    0.041511
  24 H :    0.026929
  25 C :   -0.073490
  26 H :    0.016821
  27 H :    0.041144
  28 C :   -0.055401
  29 H :    0.041146
  30 H :    0.027810
  31 H :    0.027479
  32 H :    0.018464
  33 H :    0.067208
Sum of atomic charges:    0.0000000

LOEWDIN ATOMIC CHARGES
----------------------
   0 S :    0.386385
   1 C :   -0.173322
   2 C :   -0.056063
   3 C :   -0.063619
   4 C :   -0.178864
   5 H :    0.021662
   6 C :   -0.025373
   7 H :    0.036110
   8 H :    0.027482
   9 C :   -0.047479
  10 H :    0.036302
  11 H :    0.031870
  12 C :   -0.081046
  13 H :    0.033377
  14 H :    0.031051
  15 H :    0.021106
  16 S :    0.354627
  17 C :   -0.161823
  18 C :   -0.061449
  19 C :   -0.059611
  20 C :   -0.179144
  21 H :    0.028176
  22 C :   -0.034414
  23 H :    0.031633
  24 H :    0.028440
  25 C :   -0.036985
  26 H :    0.012443
  27 H :    0.029852
  28 C :   -0.071526
  29 H :    0.024967
  30 H :    0.022997
  31 H :    0.027014
  32 H :    0.012620
  33 H :    0.032605

  Mayer bond orders larger than 0.100000
B(  0-S ,  1-C ) :   1.1103 B(  0-S ,  4-C ) :   1.1391 B(  1-C ,  2-C ) :   1.6804
B(  1-C , 32-H ) :   0.9735 B(  2-C ,  3-C ) :   1.2054 B(  2-C ,  6-C ) :   0.9762
B(  3-C ,  4-C ) :   1.5790 B(  3-C ,  5-H ) :   0.9946 B(  4-C , 20-C ) :   1.0473
B(  6-C ,  7-H ) :   0.9432 B(  6-C ,  8-H ) :   0.9331 B(  6-C ,  9-C ) :   1.0749
B(  9-C , 10-H ) :   0.9478 B(  9-C , 11-H ) :   0.9596 B(  9-C , 12-C ) :   1.0694
B( 12-C , 13-H ) :   0.9754 B( 12-C , 14-H ) :   0.9775 B( 12-C , 15-H ) :   0.9746
B( 16-S , 17-C ) :   1.1245 B( 16-S , 20-C ) :   1.1144 B( 17-C , 18-C ) :   1.6341
B( 17-C , 33-H ) :   0.9663 B( 18-C , 19-C ) :   1.2259 B( 18-C , 21-H ) :   0.9797
B( 19-C , 20-C ) :   1.6119 B( 19-C , 22-C ) :   1.0343 B( 22-C , 23-H ) :   0.9419
B( 22-C , 24-H ) :   0.9405 B( 22-C , 25-C ) :   1.0516 B( 25-C , 26-H ) :   0.9641
B( 25-C , 27-H ) :   0.9528 B( 25-C , 28-C ) :   1.0854 B( 28-C , 29-H ) :   0.9737
B( 28-C , 30-H ) :   0.9737 B( 28-C , 31-H ) :   0.9737

Dispersion correction           -0.013776531
FINAL SINGLE POINT ENERGY     -1339.860227546561

DIPOLE MOMENT
-------------
                                X             Y             Z
Electronic contribution:    -10.91379       4.94253      -6.84313
Nuclear contribution   :     11.29891      -5.37407       6.94119
                        -----------------------------------------
Total Dipole Moment    :      0.38512      -0.43154       0.09806
                        -----------------------------------------
Magnitude (a.u.)       :      0.58665
Magnitude (Debye)      :      1.49114

Rotational constants in cm-1:     0.021516     0.007537     0.005944
Rotational constants in MHz :   645.036878   225.963553   178.183728

                             ****ORCA TERMINATED NORMALLY****
TOTAL RUN TIME: 0 days 0 hours 0 minutes 33 seconds 255 msec
