                         Program Version 4.2.1 -  RELEASE  -
|  1> ! wB97X-D3 SP def2-SVP
|  2> %pal
|  3> nprocs 16
|  4> end
|  5>
|  6> * xyz 0 1
|  7> S 	 -42.922 	 26.249 	 83.5191
|  8> C 	 -43.7552 	 26.1551 	 81.9826
|  9> C 	 -42.915 	 25.5641 	 81.0262
| 10> C 	 -41.6121 	 25.3595 	 81.5487
| 11> C 	 -41.4445 	 25.5709 	 82.9196
| 12> H 	 -40.7755 	 24.9414 	 80.9594
| 13> C 	 -43.3072 	 25.3824 	 79.5896
| 14> H 	 -42.6615 	 26.1797 	 79.1917
| 15> H 	 -44.3243 	 25.7199 	 79.4277
| 16> C 	 -43.0859 	 23.9539 	 79.0667
| 17> H 	 -43.3356 	 23.8652 	 77.9842
| 18> H 	 -42.0308 	 23.6355 	 79.2081
| 19> C 	 -44.0156 	 22.8967 	 79.7636
| 20> H 	 -43.9615 	 22.9091 	 80.8666
| 21> H 	 -45.0537 	 23.0628 	 79.5042
| 22> H 	 -43.7154 	 21.9356 	 79.4167
| 23> S 	 -40.2489 	 24.7276 	 85.1773
| 24> C 	 -38.5958 	 25.1067 	 85.4701
| 25> C 	 -38.0293 	 25.7436 	 84.4161
| 26> C 	 -38.9376 	 25.9754 	 83.3459
| 27> C 	 -40.2187 	 25.563 	 83.654
| 28> H 	 -36.9595 	 25.9268 	 84.4763
| 29> C 	 -38.5015 	 26.6799 	 82.0588
| 30> H 	 -38.1751 	 27.6673 	 82.2461
| 31> H 	 -39.2606 	 26.7717 	 81.2868
| 32> C 	 -37.3887 	 26.0362 	 81.2159
| 33> H 	 -36.6163 	 25.5917 	 81.8811
| 34> H 	 -36.9458 	 26.6549 	 80.4449
| 35> C 	 -37.926 	 24.972 	 80.297
| 36> H 	 -38.8413 	 25.345 	 79.8311
| 37> H 	 -38.1 	 24.061 	 80.9319
| 38> H 	 -37.1801 	 24.632 	 79.5438
| 39> H 	 -44.7425 	 26.5651 	 81.8
| 40> H 	 -37.9794 	 24.902 	 86.354
| 41> *
| 42>
| 43>                          ****END OF INPUT****

CARTESIAN COORDINATES (ANGSTROEM)
---------------------------------
  S    -42.922000   26.249000   83.519100
  C    -43.755200   26.155100   81.982600
  C    -42.915000   25.564100   81.026200
  C    -41.612100   25.359500   81.548700
  C    -41.444500   25.570900   82.919600
  H    -40.775500   24.941400   80.959400
  C    -43.307200   25.382400   79.589600
  H    -42.661500   26.179700   79.191700
  H    -44.324300   25.719900   79.427700
  C    -43.085900   23.953900   79.066700
  H    -43.335600   23.865200   77.984200
  H    -42.030800   23.635500   79.208100
  C    -44.015600   22.896700   79.763600
  H    -43.961500   22.909100   80.866600
  H    -45.053700   23.062800   79.504200
  H    -43.715400   21.935600   79.416700
  S    -40.248900   24.727600   85.177300
  C    -38.595800   25.106700   85.470100
  C    -38.029300   25.743600   84.416100
  C    -38.937600   25.975400   83.345900
  C    -40.218700   25.563000   83.654000
  H    -36.959500   25.926800   84.476300
  C    -38.501500   26.679900   82.058800
  H    -38.175100   27.667300   82.246100
  H    -39.260600   26.771700   81.286800
  C    -37.388700   26.036200   81.215900
  H    -36.616300   25.591700   81.881100
  H    -36.945800   26.654900   80.444900
  C    -37.926000   24.972000   80.297000
  H    -38.841300   25.345000   79.831100
  H    -38.100000   24.061000   80.931900
  H    -37.180100   24.632000   79.543800
  H    -44.742500   26.565100   81.800000
  H    -37.979400   24.902000   86.354000

 Total Charge           Charge          ....    0
 Multiplicity           Mult            ....    1
 Number of Electrons    NEL             ....  134
 Basis Dimension        Dim             ....  322

ORBITAL ENERGIES
----------------

  NO   OCC          E(Eh)            E(eV)
   0   2.0000     -88.965121     -2420.8640
   1   2.0000     -88.964163     -2420.8379
   2   2.0000     -10.327186      -281.0170
   3   2.0000     -10.325435      -280.9694
   4   2.0000     -10.315144      -280.6893
   5   2.0000     -10.313726      -280.6508
   6   2.0000     -10.307238      -280.4742
   7   2.0000     -10.301816      -280.3267
   8   2.0000     -10.295833      -280.1639
   9   2.0000     -10.294455      -280.1264
  10   2.0000     -10.293660      -280.1047
  11   2.0000     -10.291017      -280.0328
  12   2.0000     -10.287883      -279.9475
  13   2.0000     -10.283972      -279.8411
  14   2.0000     -10.279567      -279.7212
  15   2.0000     -10.275021      -279.5975
  16   2.0000      -8.080848      -219.8911
  17   2.0000      -8.079135      -219.8444
  18   2.0000      -6.039293      -164.3375
  19   2.0000      -6.037590      -164.2912
  20   2.0000      -6.035232      -164.2270
  21   2.0000      -6.033442      -164.1783
  22   2.0000      -6.031583      -164.1277
  23   2.0000      -6.030080      -164.0868
  24   2.0000      -1.013632       -27.5823
  25   2.0000      -0.988559       -26.9001
  26   2.0000      -0.915421       -24.9099
  27   2.0000      -0.912570       -24.8323
  28   2.0000      -0.872849       -23.7514
  29   2.0000      -0.853901       -23.2358
  30   2.0000      -0.842680       -22.9305
  31   2.0000      -0.815943       -22.2029
  32   2.0000      -0.784379       -21.3440
  33   2.0000      -0.773919       -21.0594
  34   2.0000      -0.712483       -19.3876
  35   2.0000      -0.693951       -18.8834
  36   2.0000      -0.689176       -18.7534
  37   2.0000      -0.655719       -17.8430
  38   2.0000      -0.637920       -17.3587
  39   2.0000      -0.625211       -17.0129
  40   2.0000      -0.605195       -16.4682
  41   2.0000      -0.568388       -15.4666
  42   2.0000      -0.558968       -15.2103
  43   2.0000      -0.555033       -15.1032
  44   2.0000      -0.550061       -14.9679
  45   2.0000      -0.537625       -14.6295
  46   2.0000      -0.516808       -14.0631
  47   2.0000      -0.513905       -13.9841
  48   2.0000      -0.508765       -13.8442
  49   2.0000      -0.496556       -13.5120
  50   2.0000      -0.487605       -13.2684
  51   2.0000      -0.475992       -12.9524
  52   2.0000      -0.470854       -12.8126
  53   2.0000      -0.467387       -12.7183
  54   2.0000      -0.463268       -12.6062
  55   2.0000      -0.446376       -12.1465
  56   2.0000      -0.442753       -12.0479
  57   2.0000      -0.438313       -11.9271
  58   2.0000      -0.431109       -11.7311
  59   2.0000      -0.429142       -11.6775
  60   2.0000      -0.420841       -11.4517
  61   2.0000      -0.409195       -11.1348
  62   2.0000      -0.406264       -11.0550
  63   2.0000      -0.349781        -9.5180
  64   2.0000      -0.333126        -9.0648
  65   2.0000      -0.327876        -8.9220
  66   2.0000      -0.291303        -7.9268
  67   0.0000       0.030013         0.8167
  68   0.0000       0.073321         1.9952
  69   0.0000       0.116608         3.1731
  70   0.0000       0.119163         3.2426
  71   0.0000       0.129566         3.5257

MULLIKEN ATOMIC CHARGES
-----------------------
   0 S :    0.111060
   1 C :   -0.135793
   2 C :   -0.108272
   3 C :   -0.002991
   4 C :   -0.121974
   5 H :    0.007478
   6 C :    0.092483
   7 H :    0.045986
   8 H :    0.010965
   9 C :   -0.098918
  10 H :    0.040600
  11 H :    0.040657
  12 C :   -0.051211
  13 H :    0.048555
  14 H :    0.025981
  15 H :    0.027838
  16 S :    0.114608
  17 C :   -0.083343
  18 C :   -0.055981
  19 C :   -0.004866
  20 C :   -0.159161
  21 H :    0.022781
  22 C :    0.100633
  23 H :    0.025438
  24 H :    0.004956
  25 C :   -0.096037
  26 H :    0.031793
  27 H :    0.029295
  28 C :   -0.093173
  29 H :    0.036387
  30 H :    0.040868
  31 H :    0.041756
  32 H :    0.053398
  33 H :    0.058202
Sum of atomic charges:   -0.0000000

LOEWDIN ATOMIC CHARGES
----------------------
   0 S :    0.418398
   1 C :   -0.204234
   2 C :   -0.064235
   3 C :   -0.070253
   4 C :   -0.207360
   5 H :    0.030416
   6 C :   -0.035214
   7 H :    0.041686
   8 H :    0.027180
   9 C :   -0.041464
  10 H :    0.029368
  11 H :    0.026129
  12 C :   -0.061216
  13 H :    0.029543
  14 H :    0.021747
  15 H :    0.021683
  16 S :    0.423458
  17 C :   -0.195257
  18 C :   -0.075757
  19 C :   -0.052303
  20 C :   -0.199447
  21 H :    0.034763
  22 C :   -0.026961
  23 H :    0.029041
  24 H :    0.027235
  25 C :   -0.045171
  26 H :    0.022886
  27 H :    0.026103
  28 C :   -0.073292
  29 H :    0.018673
  30 H :    0.028519
  31 H :    0.028698
  32 H :    0.029479
  33 H :    0.037159

  Mayer bond orders larger than 0.100000
B(  0-S ,  1-C ) :   1.1554 B(  0-S ,  4-C ) :   1.1641 B(  1-C ,  2-C ) :   1.5552
B(  1-C ,  4-C ) :   0.1078 B(  1-C , 32-H ) :   0.9713 B(  2-C ,  3-C ) :   1.2773
B(  2-C ,  6-C ) :   1.0086 B(  3-C ,  4-C ) :   1.5436 B(  3-C ,  5-H ) :   0.9845
B(  4-C , 20-C ) :   1.0404 B(  6-C ,  7-H ) :   0.9394 B(  6-C ,  8-H ) :   0.9424
B(  6-C ,  9-C ) :   1.0610 B(  9-C , 10-H ) :   0.9581 B(  9-C , 11-H ) :   0.9609
B(  9-C , 12-C ) :   1.0670 B( 12-C , 13-H ) :   0.9770 B( 12-C , 14-H ) :   0.9767
B( 12-C , 15-H ) :   0.9755 B( 16-S , 17-C ) :   1.1500 B( 16-S , 20-C ) :   1.1467
B( 17-C , 18-C ) :   1.6380 B( 17-C , 33-H ) :   0.9611 B( 18-C , 19-C ) :   1.2238
B( 18-C , 21-H ) :   0.9891 B( 19-C , 20-C ) :   1.6009 B( 19-C , 22-C ) :   1.0366
B( 22-C , 23-H ) :   0.9316 B( 22-C , 24-H ) :   0.9414 B( 22-C , 25-C ) :   1.0627
B( 25-C , 26-H ) :   0.9567 B( 25-C , 27-H ) :   0.9584 B( 25-C , 28-C ) :   1.0780
B( 28-C , 29-H ) :   0.9625 B( 28-C , 30-H ) :   0.9754 B( 28-C , 31-H ) :   0.9733

Dispersion correction           -0.015030696
FINAL SINGLE POINT ENERGY     -1339.881739536850

DIPOLE MOMENT
-------------
                                X             Y             Z
Electronic contribution:     -5.16374       5.87889      26.28043
Nuclear contribution   :      5.50242      -5.81646     -26.89721
                        -----------------------------------------
Total Dipole Moment    :      0.33868       0.06243      -0.61678
                        -----------------------------------------
Magnitude (a.u.)       :      0.70641
Magnitude (Debye)      :      1.79555

Rotational constants in cm-1:     0.018570     0.009522     0.007363
Rotational constants in MHz :   556.722646   285.463521   220.726055

                             ****ORCA TERMINATED NORMALLY****
TOTAL RUN TIME: 0 days 0 hours 0 minutes 32 seconds 149 msec
