                         Program Version 4.2.1 -  RELEASE  -
|  1> ! wB97X-D3 SP def2-SVP
|  2> %pal
|  3> nprocs 16
|  4> end
|  5>
|  6> * xyz 0 1
|  7> S 	 -37.9246 	 65.9386 	 142.552
|  8> C 	 -38.674 	 66.1586 	 140.968
|  9> C 	 -37.7379 	 66.6518 	 140.048
| 10> C 	 -36.6876 	 67.2231 	 140.805
| 11> C 	 -36.5684 	 66.8718 	 142.13
| 12> H 	 -35.951 	 67.8783 	 140.271
| 13> C 	 -37.9746 	 66.8111 	 138.574
| 14> H 	 -37.0248 	 66.9744 	 138.214
| 15> H 	 -38.4794 	 67.7127 	 138.364
| 16> C 	 -38.6333 	 65.6164 	 137.926
| 17> H 	 -39.5492 	 65.2965 	 138.379
| 18> H 	 -38.7645 	 65.7824 	 136.882
| 19> C 	 -37.6102 	 64.4294 	 138.043
| 20> H 	 -37.4638 	 64.0628 	 139.046
| 21> H 	 -38.0238 	 63.6139 	 137.514
| 22> H 	 -36.6674 	 64.7898 	 137.642
| 23> S 	 -36.1278 	 68.3882 	 144.315
| 24> C 	 -34.5193 	 68.6597 	 144.93
| 25> C 	 -33.6913 	 67.7357 	 144.315
| 26> C 	 -34.2317 	 66.9676 	 143.233
| 27> C 	 -35.5754 	 67.2337 	 143.116
| 28> H 	 -32.6774 	 67.5772 	 144.629
| 29> C 	 -33.447 	 65.9081 	 142.518
| 30> H 	 -34.0302 	 65.2281 	 141.966
| 31> H 	 -33.0588 	 65.299 	 143.396
| 32> C 	 -32.2791 	 66.4207 	 141.679
| 33> H 	 -31.6534 	 65.6159 	 141.4
| 34> H 	 -31.6035 	 67.0472 	 142.387
| 35> C 	 -32.5752 	 67.379 	 140.473
| 36> H 	 -33.0795 	 68.3575 	 140.722
| 37> H 	 -33.3112 	 66.8778 	 139.813
| 38> H 	 -31.6817 	 67.4963 	 139.948
| 39> H 	 -39.4735 	 65.5924 	 140.655
| 40> H 	 -34.2117 	 69.3023 	 145.782
| 41> *
| 42>
| 43>                          ****END OF INPUT****

CARTESIAN COORDINATES (ANGSTROEM)
---------------------------------
  S    -37.924600   65.938600  142.552000
  C    -38.674000   66.158600  140.968000
  C    -37.737900   66.651800  140.048000
  C    -36.687600   67.223100  140.805000
  C    -36.568400   66.871800  142.130000
  H    -35.951000   67.878300  140.271000
  C    -37.974600   66.811100  138.574000
  H    -37.024800   66.974400  138.214000
  H    -38.479400   67.712700  138.364000
  C    -38.633300   65.616400  137.926000
  H    -39.549200   65.296500  138.379000
  H    -38.764500   65.782400  136.882000
  C    -37.610200   64.429400  138.043000
  H    -37.463800   64.062800  139.046000
  H    -38.023800   63.613900  137.514000
  H    -36.667400   64.789800  137.642000
  S    -36.127800   68.388200  144.315000
  C    -34.519300   68.659700  144.930000
  C    -33.691300   67.735700  144.315000
  C    -34.231700   66.967600  143.233000
  C    -35.575400   67.233700  143.116000
  H    -32.677400   67.577200  144.629000
  C    -33.447000   65.908100  142.518000
  H    -34.030200   65.228100  141.966000
  H    -33.058800   65.299000  143.396000
  C    -32.279100   66.420700  141.679000
  H    -31.653400   65.615900  141.400000
  H    -31.603500   67.047200  142.387000
  C    -32.575200   67.379000  140.473000
  H    -33.079500   68.357500  140.722000
  H    -33.311200   66.877800  139.813000
  H    -31.681700   67.496300  139.948000
  H    -39.473500   65.592400  140.655000
  H    -34.211700   69.302300  145.782000

 Total Charge           Charge          ....    0
 Multiplicity           Mult            ....    1
 Number of Electrons    NEL             ....  134
 Basis Dimension        Dim             ....  322

ORBITAL ENERGIES
----------------

  NO   OCC          E(Eh)            E(eV)
   0   2.0000     -88.962731     -2420.7990
   1   2.0000     -88.961666     -2420.7700
   2   2.0000     -10.322827      -280.8984
   3   2.0000     -10.322479      -280.8889
   4   2.0000     -10.321228      -280.8549
   5   2.0000     -10.305200      -280.4188
   6   2.0000     -10.302168      -280.3362
   7   2.0000     -10.299028      -280.2508
   8   2.0000     -10.293723      -280.1064
   9   2.0000     -10.292878      -280.0834
  10   2.0000     -10.292563      -280.0749
  11   2.0000     -10.291370      -280.0424
  12   2.0000     -10.285221      -279.8751
  13   2.0000     -10.282383      -279.7979
  14   2.0000     -10.281003      -279.7603
  15   2.0000     -10.271137      -279.4919
  16   2.0000      -8.078153      -219.8177
  17   2.0000      -8.076634      -219.7764
  18   2.0000      -6.036512      -164.2618
  19   2.0000      -6.035178      -164.2256
  20   2.0000      -6.032509      -164.1529
  21   2.0000      -6.031041      -164.1130
  22   2.0000      -6.029082      -164.0597
  23   2.0000      -6.027378      -164.0133
  24   2.0000      -1.011102       -27.5135
  25   2.0000      -0.987132       -26.8612
  26   2.0000      -0.923237       -25.1226
  27   2.0000      -0.908445       -24.7200
  28   2.0000      -0.867989       -23.6192
  29   2.0000      -0.847322       -23.0568
  30   2.0000      -0.843567       -22.9546
  31   2.0000      -0.809674       -22.0323
  32   2.0000      -0.788042       -21.4437
  33   2.0000      -0.780064       -21.2266
  34   2.0000      -0.714605       -19.4454
  35   2.0000      -0.704828       -19.1793
  36   2.0000      -0.693609       -18.8741
  37   2.0000      -0.659391       -17.9429
  38   2.0000      -0.639405       -17.3991
  39   2.0000      -0.613487       -16.6938
  40   2.0000      -0.599078       -16.3017
  41   2.0000      -0.581966       -15.8361
  42   2.0000      -0.564969       -15.3736
  43   2.0000      -0.555050       -15.1037
  44   2.0000      -0.543189       -14.7809
  45   2.0000      -0.533100       -14.5064
  46   2.0000      -0.517401       -14.0792
  47   2.0000      -0.513560       -13.9747
  48   2.0000      -0.505236       -13.7482
  49   2.0000      -0.497999       -13.5512
  50   2.0000      -0.493359       -13.4250
  51   2.0000      -0.476682       -12.9712
  52   2.0000      -0.468867       -12.7585
  53   2.0000      -0.467081       -12.7099
  54   2.0000      -0.458165       -12.4673
  55   2.0000      -0.448414       -12.2020
  56   2.0000      -0.441796       -12.0219
  57   2.0000      -0.441073       -12.0022
  58   2.0000      -0.439494       -11.9592
  59   2.0000      -0.426166       -11.5966
  60   2.0000      -0.419445       -11.4137
  61   2.0000      -0.417365       -11.3571
  62   2.0000      -0.406819       -11.0701
  63   2.0000      -0.335150        -9.1199
  64   2.0000      -0.329359        -8.9623
  65   2.0000      -0.323905        -8.8139
  66   2.0000      -0.302298        -8.2259
  67   0.0000       0.039864         1.0847
  68   0.0000       0.059342         1.6148
  69   0.0000       0.111382         3.0309
  70   0.0000       0.118636         3.2282
  71   0.0000       0.132101         3.5946

MULLIKEN ATOMIC CHARGES
-----------------------
   0 S :    0.107187
   1 C :   -0.080650
   2 C :   -0.166949
   3 C :    0.025776
   4 C :   -0.151615
   5 H :    0.014853
   6 C :    0.147903
   7 H :   -0.013703
   8 H :    0.033678
   9 C :   -0.062437
  10 H :    0.028923
  11 H :    0.026046
  12 C :   -0.050360
  13 H :    0.040709
  14 H :    0.021831
  15 H :    0.026219
  16 S :    0.110520
  17 C :   -0.094425
  18 C :   -0.042035
  19 C :   -0.002480
  20 C :   -0.184759
  21 H :    0.007562
  22 C :    0.076569
  23 H :    0.016710
  24 H :    0.043827
  25 C :   -0.094072
  26 H :    0.024276
  27 H :    0.026903
  28 C :   -0.045775
  29 H :    0.056017
  30 H :    0.024962
  31 H :    0.030481
  32 H :    0.022523
  33 H :    0.075783
Sum of atomic charges:    0.0000000

LOEWDIN ATOMIC CHARGES
----------------------
   0 S :    0.424627
   1 C :   -0.185625
   2 C :   -0.052701
   3 C :   -0.069842
   4 C :   -0.220855
   5 H :    0.032298
   6 C :   -0.023249
   7 H :    0.019668
   8 H :    0.031558
   9 C :   -0.026721
  10 H :    0.019566
  11 H :    0.023623
  12 C :   -0.054310
  13 H :    0.023929
  14 H :    0.017926
  15 H :    0.022926
  16 S :    0.410674
  17 C :   -0.194037
  18 C :   -0.071418
  19 C :   -0.054176
  20 C :   -0.202452
  21 H :    0.022889
  22 C :   -0.029512
  23 H :    0.022861
  24 H :    0.047900
  25 C :   -0.041027
  26 H :    0.018586
  27 H :    0.027825
  28 C :   -0.065568
  29 H :    0.034735
  30 H :    0.023142
  31 H :    0.019510
  32 H :    0.004205
  33 H :    0.043042

  Mayer bond orders larger than 0.100000
B(  0-S ,  1-C ) :   1.1544 B(  0-S ,  4-C ) :   1.1735 B(  1-C ,  2-C ) :   1.5728
B(  1-C ,  4-C ) :   0.1059 B(  1-C , 32-H ) :   0.9683 B(  2-C ,  3-C ) :   1.2753
B(  2-C ,  6-C ) :   1.0045 B(  3-C ,  4-C ) :   1.5693 B(  3-C ,  5-H ) :   0.9830
B(  4-C , 20-C ) :   0.9924 B(  6-C ,  7-H ) :   0.9284 B(  6-C ,  8-H ) :   0.9291
B(  6-C ,  9-C ) :   1.0827 B(  9-C , 10-H ) :   0.9578 B(  9-C , 11-H ) :   0.9540
B(  9-C , 12-C ) :   1.0744 B( 12-C , 13-H ) :   0.9753 B( 12-C , 14-H ) :   0.9754
B( 12-C , 15-H ) :   0.9777 B( 16-S , 17-C ) :   1.1508 B( 16-S , 20-C ) :   1.1510
B( 17-C , 18-C ) :   1.6007 B( 17-C , 20-C ) :   0.1006 B( 17-C , 33-H ) :   0.9655
B( 18-C , 19-C ) :   1.2376 B( 18-C , 21-H ) :   0.9826 B( 19-C , 20-C ) :   1.6026
B( 19-C , 22-C ) :   1.0394 B( 22-C , 23-H ) :   0.9383 B( 22-C , 24-H ) :   0.9345
B( 22-C , 25-C ) :   1.0713 B( 25-C , 26-H ) :   0.9560 B( 25-C , 27-H ) :   0.9559
B( 25-C , 28-C ) :   1.0650 B( 28-C , 29-H ) :   0.9734 B( 28-C , 30-H ) :   0.9745
B( 28-C , 31-H ) :   0.9727

Dispersion correction           -0.015025116
FINAL SINGLE POINT ENERGY     -1339.863299028326

DIPOLE MOMENT
-------------
                                X             Y             Z
Electronic contribution:    -10.80183       7.34960      23.48900
Nuclear contribution   :     11.24990      -7.54471     -24.03397
                        -----------------------------------------
Total Dipole Moment    :      0.44807      -0.19511      -0.54497
                        -----------------------------------------
Magnitude (a.u.)       :      0.73200
Magnitude (Debye)      :      1.86060

Rotational constants in cm-1:     0.020732     0.008951     0.007013
Rotational constants in MHz :   621.544340   268.342982   210.237174

                             ****ORCA TERMINATED NORMALLY****
TOTAL RUN TIME: 0 days 0 hours 0 minutes 36 seconds 56 msec
