                         Program Version 4.2.1 -  RELEASE  -
|  1> ! wB97X-D3 SP def2-SVP
|  2> %pal
|  3> nprocs 16
|  4> end
|  5>
|  6> * xyz 0 1
|  7> S 	 40.2648 	 11.9938 	 84.1663
|  8> C 	 40.0473 	 10.8233 	 82.8555
|  9> C 	 39.2732 	 9.74467 	 83.2536
| 10> C 	 39.0309 	 9.75482 	 84.6822
| 11> C 	 39.4664 	 10.933 	 85.2675
| 12> H 	 38.6588 	 8.98719 	 85.3188
| 13> C 	 38.9441 	 8.49404 	 82.438
| 14> H 	 38.6621 	 8.91395 	 81.4153
| 15> H 	 38.0217 	 8.08768 	 82.8341
| 16> C 	 40.0855 	 7.43681 	 82.4299
| 17> H 	 41.107 	 7.81119 	 82.2868
| 18> H 	 40.2176 	 7.00475 	 83.4292
| 19> C 	 39.8642 	 6.21504 	 81.429
| 20> H 	 40.5835 	 5.4434 	 81.5767
| 21> H 	 38.9016 	 5.84832 	 81.483
| 22> H 	 39.7997 	 6.59491 	 80.4211
| 23> S 	 41.116 	 11.6436 	 87.3889
| 24> C 	 40.4174 	 11.6427 	 89.0186
| 25> C 	 39.1518 	 11.1762 	 89.0655
| 26> C 	 38.6197 	 10.9252 	 87.7092
| 27> C 	 39.5844 	 11.1756 	 86.7013
| 28> H 	 38.5792 	 11.0272 	 89.9815
| 29> C 	 37.2592 	 10.3837 	 87.5803
| 30> H 	 37.3351 	 9.37754 	 87.8825
| 31> H 	 37.0438 	 10.4081 	 86.4797
| 32> C 	 36.1293 	 11.1227 	 88.2592
| 33> H 	 36.1442 	 12.1753 	 87.9183
| 34> H 	 36.1693 	 11.1669 	 89.3268
| 35> C 	 34.8312 	 10.6545 	 87.8432
| 36> H 	 34.527 	 10.8424 	 86.8002
| 37> H 	 34.0389 	 10.9826 	 88.5193
| 38> H 	 34.8598 	 9.56028 	 87.8209
| 39> H 	 40.3727 	 10.9876 	 81.8484
| 40> H 	 40.9608 	 11.8937 	 89.9061
| 41> *
| 42>
| 43>                          ****END OF INPUT****

CARTESIAN COORDINATES (ANGSTROEM)
---------------------------------
  S     40.264800   11.993800   84.166300
  C     40.047300   10.823300   82.855500
  C     39.273200    9.744670   83.253600
  C     39.030900    9.754820   84.682200
  C     39.466400   10.933000   85.267500
  H     38.658800    8.987190   85.318800
  C     38.944100    8.494040   82.438000
  H     38.662100    8.913950   81.415300
  H     38.021700    8.087680   82.834100
  C     40.085500    7.436810   82.429900
  H     41.107000    7.811190   82.286800
  H     40.217600    7.004750   83.429200
  C     39.864200    6.215040   81.429000
  H     40.583500    5.443400   81.576700
  H     38.901600    5.848320   81.483000
  H     39.799700    6.594910   80.421100
  S     41.116000   11.643600   87.388900
  C     40.417400   11.642700   89.018600
  C     39.151800   11.176200   89.065500
  C     38.619700   10.925200   87.709200
  C     39.584400   11.175600   86.701300
  H     38.579200   11.027200   89.981500
  C     37.259200   10.383700   87.580300
  H     37.335100    9.377540   87.882500
  H     37.043800   10.408100   86.479700
  C     36.129300   11.122700   88.259200
  H     36.144200   12.175300   87.918300
  H     36.169300   11.166900   89.326800
  C     34.831200   10.654500   87.843200
  H     34.527000   10.842400   86.800200
  H     34.038900   10.982600   88.519300
  H     34.859800    9.560280   87.820900
  H     40.372700   10.987600   81.848400
  H     40.960800   11.893700   89.906100

 Total Charge           Charge          ....    0
 Multiplicity           Mult            ....    1
 Number of Electrons    NEL             ....  134
 Basis Dimension        Dim             ....  322

ORBITAL ENERGIES
----------------

  NO   OCC          E(Eh)            E(eV)
   0   2.0000     -88.967015     -2420.9156
   1   2.0000     -88.964491     -2420.8469
   2   2.0000     -10.326612      -281.0014
   3   2.0000     -10.326284      -280.9925
   4   2.0000     -10.315240      -280.6919
   5   2.0000     -10.313991      -280.6580
   6   2.0000     -10.305606      -280.4298
   7   2.0000     -10.302744      -280.3519
   8   2.0000     -10.302620      -280.3485
   9   2.0000     -10.294202      -280.1195
  10   2.0000     -10.293719      -280.1063
  11   2.0000     -10.293489      -280.1001
  12   2.0000     -10.285195      -279.8744
  13   2.0000     -10.277728      -279.6712
  14   2.0000     -10.272436      -279.5272
  15   2.0000     -10.271886      -279.5122
  16   2.0000      -8.081922      -219.9203
  17   2.0000      -8.078965      -219.8398
  18   2.0000      -6.040450      -164.3690
  19   2.0000      -6.037712      -164.2945
  20   2.0000      -6.036367      -164.2579
  21   2.0000      -6.033587      -164.1823
  22   2.0000      -6.032695      -164.1580
  23   2.0000      -6.029418      -164.0688
  24   2.0000      -1.004844       -27.3432
  25   2.0000      -0.979468       -26.6527
  26   2.0000      -0.923953       -25.1420
  27   2.0000      -0.904386       -24.6096
  28   2.0000      -0.867397       -23.6031
  29   2.0000      -0.858287       -23.3552
  30   2.0000      -0.845894       -23.0179
  31   2.0000      -0.816668       -22.2227
  32   2.0000      -0.783270       -21.3138
  33   2.0000      -0.767724       -20.8908
  34   2.0000      -0.710515       -19.3341
  35   2.0000      -0.702870       -19.1261
  36   2.0000      -0.695561       -18.9272
  37   2.0000      -0.657802       -17.8997
  38   2.0000      -0.642914       -17.4946
  39   2.0000      -0.615520       -16.7492
  40   2.0000      -0.598045       -16.2736
  41   2.0000      -0.577058       -15.7026
  42   2.0000      -0.565666       -15.3926
  43   2.0000      -0.548609       -14.9284
  44   2.0000      -0.536351       -14.5949
  45   2.0000      -0.534227       -14.5370
  46   2.0000      -0.515130       -14.0174
  47   2.0000      -0.512155       -13.9365
  48   2.0000      -0.504518       -13.7286
  49   2.0000      -0.498551       -13.5663
  50   2.0000      -0.493482       -13.4283
  51   2.0000      -0.481361       -13.0985
  52   2.0000      -0.471058       -12.8181
  53   2.0000      -0.463594       -12.6150
  54   2.0000      -0.461727       -12.5642
  55   2.0000      -0.452949       -12.3254
  56   2.0000      -0.448958       -12.2168
  57   2.0000      -0.444514       -12.0958
  58   2.0000      -0.427615       -11.6360
  59   2.0000      -0.422570       -11.4987
  60   2.0000      -0.420839       -11.4516
  61   2.0000      -0.412407       -11.2222
  62   2.0000      -0.407286       -11.0828
  63   2.0000      -0.351298        -9.5593
  64   2.0000      -0.331492        -9.0204
  65   2.0000      -0.325660        -8.8617
  66   2.0000      -0.289256        -7.8711
  67   0.0000       0.029994         0.8162
  68   0.0000       0.079032         2.1506
  69   0.0000       0.108067         2.9407
  70   0.0000       0.113770         3.0958
  71   0.0000       0.133073         3.6211

MULLIKEN ATOMIC CHARGES
-----------------------
   0 S :    0.109010
   1 C :   -0.121339
   2 C :   -0.083183
   3 C :    0.024376
   4 C :   -0.163131
   5 H :    0.011355
   6 C :    0.059374
   7 H :    0.035332
   8 H :    0.024801
   9 C :   -0.077562
  10 H :    0.031610
  11 H :    0.022618
  12 C :   -0.001292
  13 H :    0.040763
  14 H :    0.002030
  15 H :    0.017893
  16 S :    0.102206
  17 C :   -0.077866
  18 C :   -0.019231
  19 C :   -0.075301
  20 C :   -0.122084
  21 H :    0.025789
  22 C :    0.042390
  23 H :    0.030461
  24 H :    0.029983
  25 C :   -0.042815
  26 H :    0.030010
  27 H :    0.020100
  28 C :   -0.039090
  29 H :    0.030309
  30 H :    0.035304
  31 H :    0.007020
  32 H :    0.042209
  33 H :    0.047949
Sum of atomic charges:    0.0000000

LOEWDIN ATOMIC CHARGES
----------------------
   0 S :    0.407613
   1 C :   -0.188307
   2 C :   -0.059045
   3 C :   -0.059008
   4 C :   -0.197871
   5 H :    0.028425
   6 C :   -0.033570
   7 H :    0.036425
   8 H :    0.029247
   9 C :   -0.039001
  10 H :    0.026309
  11 H :    0.024750
  12 C :   -0.058362
  13 H :    0.025475
  14 H :    0.013885
  15 H :    0.024942
  16 S :    0.391250
  17 C :   -0.172108
  18 C :   -0.067608
  19 C :   -0.050839
  20 C :   -0.209341
  21 H :    0.034259
  22 C :   -0.039851
  23 H :    0.028069
  24 H :    0.038799
  25 C :   -0.046355
  26 H :    0.033709
  27 H :    0.019198
  28 C :   -0.066863
  29 H :    0.026740
  30 H :    0.028947
  31 H :    0.020683
  32 H :    0.023617
  33 H :    0.025784

  Mayer bond orders larger than 0.100000
B(  0-S ,  1-C ) :   1.1281 B(  0-S ,  4-C ) :   1.1569 B(  1-C ,  2-C ) :   1.6209
B(  1-C , 32-H ) :   0.9730 B(  2-C ,  3-C ) :   1.2141 B(  2-C ,  6-C ) :   1.0300
B(  3-C ,  4-C ) :   1.5791 B(  3-C ,  5-H ) :   0.9925 B(  4-C , 20-C ) :   1.0367
B(  6-C ,  7-H ) :   0.9437 B(  6-C ,  8-H ) :   0.9383 B(  6-C ,  9-C ) :   1.0482
B(  9-C , 10-H ) :   0.9628 B(  9-C , 11-H ) :   0.9556 B(  9-C , 12-C ) :   1.0721
B( 12-C , 13-H ) :   0.9775 B( 12-C , 14-H ) :   0.9724 B( 12-C , 15-H ) :   0.9744
B( 16-S , 17-C ) :   1.1300 B( 16-S , 20-C ) :   1.1246 B( 17-C , 18-C ) :   1.6492
B( 17-C , 33-H ) :   0.9672 B( 18-C , 19-C ) :   1.2056 B( 18-C , 21-H ) :   0.9876
B( 19-C , 20-C ) :   1.6030 B( 19-C , 22-C ) :   1.0647 B( 22-C , 23-H ) :   0.9158
B( 22-C , 24-H ) :   0.9299 B( 22-C , 25-C ) :   1.0717 B( 25-C , 26-H ) :   0.9477
B( 25-C , 27-H ) :   0.9457 B( 25-C , 28-C ) :   1.1092 B( 28-C , 29-H ) :   0.9697
B( 28-C , 30-H ) :   0.9694 B( 28-C , 31-H ) :   0.9641

Dispersion correction           -0.013537972
FINAL SINGLE POINT ENERGY     -1339.872656581137

DIPOLE MOMENT
-------------
                                X             Y             Z
Electronic contribution:     18.26772      18.97695       5.79552
Nuclear contribution   :    -18.66397     -19.54895      -5.71499
                        -----------------------------------------
Total Dipole Moment    :     -0.39626      -0.57200       0.08053
                        -----------------------------------------
Magnitude (a.u.)       :      0.70049
Magnitude (Debye)      :      1.78051

Rotational constants in cm-1:     0.017672     0.007838     0.006389
Rotational constants in MHz :   529.800051   234.986204   191.533660

                             ****ORCA TERMINATED NORMALLY****
TOTAL RUN TIME: 0 days 0 hours 0 minutes 28 seconds 902 msec
