                         Program Version 4.2.1 -  RELEASE  -
|  1> ! wB97X-D3 SP def2-SVP
|  2> %pal
|  3> nprocs 16
|  4> end
|  5>
|  6> * xyz 0 1
|  7> S 	 27.8785 	 -7.56402 	 81.5929
|  8> C 	 29.182 	 -6.99323 	 80.5787
|  9> C 	 28.8748 	 -5.87102 	 79.842
| 10> C 	 27.6239 	 -5.32697 	 80.2674
| 11> C 	 26.9328 	 -6.10827 	 81.2106
| 12> H 	 27.12 	 -4.38737 	 79.867
| 13> C 	 29.7933 	 -5.37043 	 78.7171
| 14> H 	 29.2392 	 -4.87102 	 77.9582
| 15> H 	 30.1353 	 -6.19257 	 78.2715
| 16> C 	 30.9286 	 -4.4141 	 79.1121
| 17> H 	 31.4933 	 -4.80077 	 79.942
| 18> H 	 31.6513 	 -4.39992 	 78.2717
| 19> C 	 30.4307 	 -2.96931 	 79.3109
| 20> H 	 31.278 	 -2.4328 	 79.6719
| 21> H 	 30.1802 	 -2.54229 	 78.3235
| 22> H 	 29.6074 	 -2.96707 	 79.9957
| 23> S 	 24.3802 	 -7.04648 	 81.4518
| 24> C 	 23.1128 	 -5.99955 	 82.0797
| 25> C 	 23.7096 	 -4.84984 	 82.6721
| 26> C 	 25.1001 	 -4.74518 	 82.3833
| 27> C 	 25.6299 	 -5.8441 	 81.7639
| 28> H 	 23.1445 	 -4.15217 	 83.1852
| 29> C 	 25.8622 	 -3.50091 	 82.8433
| 30> H 	 25.1276 	 -2.69649 	 82.9065
| 31> H 	 26.4241 	 -3.14406 	 81.9565
| 32> C 	 26.8061 	 -3.67767 	 84.0464
| 33> H 	 27.2554 	 -2.6911 	 84.231
| 34> H 	 27.6441 	 -4.35346 	 83.7892
| 35> C 	 26.2583 	 -4.38507 	 85.331
| 36> H 	 26.222 	 -5.46921 	 85.1398
| 37> H 	 25.3653 	 -4.026 	 85.8507
| 38> H 	 27.0799 	 -4.28282 	 86.0689
| 39> H 	 30.1066 	 -7.50926 	 80.3131
| 40> H 	 22.0607 	 -6.1591 	 82.2079
| 41> *
| 42>
| 43>                          ****END OF INPUT****

CARTESIAN COORDINATES (ANGSTROEM)
---------------------------------
  S     27.878500   -7.564020   81.592900
  C     29.182000   -6.993230   80.578700
  C     28.874800   -5.871020   79.842000
  C     27.623900   -5.326970   80.267400
  C     26.932800   -6.108270   81.210600
  H     27.120000   -4.387370   79.867000
  C     29.793300   -5.370430   78.717100
  H     29.239200   -4.871020   77.958200
  H     30.135300   -6.192570   78.271500
  C     30.928600   -4.414100   79.112100
  H     31.493300   -4.800770   79.942000
  H     31.651300   -4.399920   78.271700
  C     30.430700   -2.969310   79.310900
  H     31.278000   -2.432800   79.671900
  H     30.180200   -2.542290   78.323500
  H     29.607400   -2.967070   79.995700
  S     24.380200   -7.046480   81.451800
  C     23.112800   -5.999550   82.079700
  C     23.709600   -4.849840   82.672100
  C     25.100100   -4.745180   82.383300
  C     25.629900   -5.844100   81.763900
  H     23.144500   -4.152170   83.185200
  C     25.862200   -3.500910   82.843300
  H     25.127600   -2.696490   82.906500
  H     26.424100   -3.144060   81.956500
  C     26.806100   -3.677670   84.046400
  H     27.255400   -2.691100   84.231000
  H     27.644100   -4.353460   83.789200
  C     26.258300   -4.385070   85.331000
  H     26.222000   -5.469210   85.139800
  H     25.365300   -4.026000   85.850700
  H     27.079900   -4.282820   86.068900
  H     30.106600   -7.509260   80.313100
  H     22.060700   -6.159100   82.207900

 Total Charge           Charge          ....    0
 Multiplicity           Mult            ....    1
 Number of Electrons    NEL             ....  134
 Basis Dimension        Dim             ....  322

ORBITAL ENERGIES
----------------

  NO   OCC          E(Eh)            E(eV)
   0   2.0000     -88.971265     -2421.0312
   1   2.0000     -88.966841     -2420.9108
   2   2.0000     -10.332356      -281.1577
   3   2.0000     -10.323453      -280.9154
   4   2.0000     -10.320800      -280.8433
   5   2.0000     -10.312829      -280.6264
   6   2.0000     -10.303034      -280.3598
   7   2.0000     -10.301557      -280.3196
   8   2.0000     -10.299721      -280.2697
   9   2.0000     -10.291956      -280.0584
  10   2.0000     -10.290805      -280.0270
  11   2.0000     -10.290722      -280.0248
  12   2.0000     -10.286366      -279.9062
  13   2.0000     -10.281779      -279.7814
  14   2.0000     -10.278599      -279.6949
  15   2.0000     -10.276207      -279.6298
  16   2.0000      -8.085199      -220.0095
  17   2.0000      -8.081031      -219.8960
  18   2.0000      -6.043741      -164.4585
  19   2.0000      -6.039879      -164.3535
  20   2.0000      -6.039701      -164.3486
  21   2.0000      -6.035924      -164.2458
  22   2.0000      -6.035477      -164.2337
  23   2.0000      -6.031773      -164.1329
  24   2.0000      -1.003736       -27.3130
  25   2.0000      -0.980575       -26.6828
  26   2.0000      -0.913407       -24.8551
  27   2.0000      -0.899792       -24.4846
  28   2.0000      -0.869112       -23.6497
  29   2.0000      -0.847045       -23.0493
  30   2.0000      -0.842857       -22.9353
  31   2.0000      -0.812882       -22.1196
  32   2.0000      -0.786752       -21.4086
  33   2.0000      -0.774917       -21.0866
  34   2.0000      -0.708000       -19.2657
  35   2.0000      -0.701316       -19.0838
  36   2.0000      -0.687743       -18.7144
  37   2.0000      -0.669256       -18.2114
  38   2.0000      -0.636225       -17.3126
  39   2.0000      -0.612194       -16.6587
  40   2.0000      -0.586545       -15.9607
  41   2.0000      -0.576735       -15.6938
  42   2.0000      -0.558289       -15.1918
  43   2.0000      -0.545098       -14.8329
  44   2.0000      -0.541812       -14.7435
  45   2.0000      -0.534690       -14.5496
  46   2.0000      -0.520330       -14.1589
  47   2.0000      -0.508965       -13.8497
  48   2.0000      -0.501171       -13.6376
  49   2.0000      -0.493907       -13.4399
  50   2.0000      -0.486953       -13.2507
  51   2.0000      -0.473824       -12.8934
  52   2.0000      -0.472595       -12.8600
  53   2.0000      -0.468457       -12.7474
  54   2.0000      -0.462030       -12.5725
  55   2.0000      -0.443732       -12.0746
  56   2.0000      -0.437931       -11.9167
  57   2.0000      -0.437137       -11.8951
  58   2.0000      -0.432721       -11.7749
  59   2.0000      -0.429691       -11.6925
  60   2.0000      -0.421027       -11.4567
  61   2.0000      -0.414954       -11.2915
  62   2.0000      -0.409670       -11.1477
  63   2.0000      -0.343199        -9.3389
  64   2.0000      -0.333535        -9.0760
  65   2.0000      -0.330958        -9.0058
  66   2.0000      -0.290524        -7.9055
  67   0.0000       0.029404         0.8001
  68   0.0000       0.059441         1.6175
  69   0.0000       0.110325         3.0021
  70   0.0000       0.125122         3.4048
  71   0.0000       0.127448         3.4680

MULLIKEN ATOMIC CHARGES
-----------------------
   0 S :    0.122253
   1 C :   -0.111613
   2 C :   -0.118336
   3 C :    0.016215
   4 C :   -0.174616
   5 H :    0.040542
   6 C :    0.146291
   7 H :    0.004364
   8 H :   -0.014039
   9 C :   -0.083601
  10 H :    0.022614
  11 H :    0.024580
  12 C :   -0.029084
  13 H :    0.030861
  14 H :    0.032615
  15 H :    0.034527
  16 S :    0.111423
  17 C :   -0.085004
  18 C :   -0.025785
  19 C :   -0.057546
  20 C :   -0.156229
  21 H :   -0.008390
  22 C :    0.097352
  23 H :    0.011996
  24 H :    0.016986
  25 C :   -0.066763
  26 H :    0.033555
  27 H :    0.041843
  28 C :   -0.071912
  29 H :    0.047302
  30 H :    0.038764
  31 H :    0.029875
  32 H :    0.044968
  33 H :    0.053994
Sum of atomic charges:    0.0000000

LOEWDIN ATOMIC CHARGES
----------------------
   0 S :    0.399870
   1 C :   -0.201078
   2 C :   -0.062303
   3 C :   -0.066297
   4 C :   -0.193984
   5 H :    0.041608
   6 C :   -0.017741
   7 H :    0.028427
   8 H :    0.012725
   9 C :   -0.034654
  10 H :    0.017924
  11 H :    0.025118
  12 C :   -0.056982
  13 H :    0.024575
  14 H :    0.028135
  15 H :    0.021125
  16 S :    0.405529
  17 C :   -0.182702
  18 C :   -0.059124
  19 C :   -0.056471
  20 C :   -0.203540
  21 H :    0.016922
  22 C :   -0.036462
  23 H :    0.027160
  24 H :    0.033906
  25 C :   -0.039873
  26 H :    0.024890
  27 H :    0.034511
  28 C :   -0.074879
  29 H :    0.031626
  30 H :    0.021573
  31 H :    0.031071
  32 H :    0.030444
  33 H :    0.028954

  Mayer bond orders larger than 0.100000
B(  0-S ,  1-C ) :   1.1388 B(  0-S ,  4-C ) :   1.1365 B(  1-C ,  2-C ) :   1.6305
B(  1-C ,  4-C ) :   0.1027 B(  1-C , 32-H ) :   0.9570 B(  2-C ,  3-C ) :   1.2458
B(  2-C ,  6-C ) :   1.0155 B(  3-C ,  4-C ) :   1.5782 B(  3-C ,  5-H ) :   0.9769
B(  4-C , 20-C ) :   1.0462 B(  6-C ,  7-H ) :   0.9375 B(  6-C ,  8-H ) :   0.9269
B(  6-C ,  9-C ) :   1.0732 B(  9-C , 10-H ) :   0.9591 B(  9-C , 11-H ) :   0.9540
B(  9-C , 12-C ) :   1.0761 B( 12-C , 13-H ) :   0.9733 B( 12-C , 14-H ) :   0.9749
B( 12-C , 15-H ) :   0.9793 B( 16-S , 17-C ) :   1.1630 B( 16-S , 20-C ) :   1.1294
B( 17-C , 18-C ) :   1.5859 B( 17-C , 20-C ) :   0.1074 B( 17-C , 33-H ) :   0.9696
B( 18-C , 19-C ) :   1.2549 B( 18-C , 21-H ) :   0.9963 B( 19-C , 20-C ) :   1.5993
B( 19-C , 22-C ) :   1.0331 B( 22-C , 23-H ) :   0.9335 B( 22-C , 24-H ) :   0.9277
B( 22-C , 25-C ) :   1.0666 B( 25-C , 26-H ) :   0.9591 B( 25-C , 27-H ) :   0.9545
B( 25-C , 28-C ) :   1.0681 B( 28-C , 29-H ) :   0.9730 B( 28-C , 30-H ) :   0.9794
B( 28-C , 31-H ) :   0.9732

Dispersion correction           -0.014972184
FINAL SINGLE POINT ENERGY     -1339.872152147880

DIPOLE MOMENT
-------------
                                X             Y             Z
Electronic contribution:    -14.90215     -20.80785      -1.57252
Nuclear contribution   :     15.16388      21.36030       1.40883
                        -----------------------------------------
Total Dipole Moment    :      0.26173       0.55245      -0.16369
                        -----------------------------------------
Magnitude (a.u.)       :      0.63285
Magnitude (Debye)      :      1.60858

Rotational constants in cm-1:     0.019743     0.008605     0.007356
Rotational constants in MHz :   591.867322   257.981379   220.515786

                             ****ORCA TERMINATED NORMALLY****
TOTAL RUN TIME: 0 days 0 hours 0 minutes 32 seconds 448 msec
