                         Program Version 4.2.1 -  RELEASE  -
|  1> ! wB97X-D3 SP def2-SVP
|  2> %pal
|  3> nprocs 16
|  4> end
|  5>
|  6> * xyz 0 1
|  7> S 	 -7.84135 	 16.1561 	 82.4285
|  8> C 	 -7.89498 	 15.9681 	 80.6956
|  9> C 	 -7.12816 	 16.9232 	 80.0577
| 10> C 	 -6.7141 	 17.9595 	 80.9849
| 11> C 	 -7.16902 	 17.7723 	 82.295
| 12> H 	 -6.15921 	 18.7788 	 80.6588
| 13> C 	 -6.99912 	 17.0543 	 78.5912
| 14> H 	 -6.84119 	 15.9775 	 78.2062
| 15> H 	 -6.11773 	 17.6449 	 78.2995
| 16> C 	 -8.24219 	 17.6535 	 77.842
| 17> H 	 -7.94847 	 17.4752 	 76.7985
| 18> H 	 -9.09516 	 16.9705 	 77.9081
| 19> C 	 -8.53758 	 19.136 	 78.2259
| 20> H 	 -7.62533 	 19.6606 	 78.4234
| 21> H 	 -9.01463 	 19.6 	 77.3576
| 22> H 	 -9.09188 	 19.2613 	 79.1711
| 23> S 	 -8.09321 	 18.9327 	 84.6146
| 24> C 	 -7.05919 	 19.9405 	 85.5225
| 25> C 	 -5.76649 	 19.9521 	 85.0418
| 26> C 	 -5.60612 	 19.0858 	 83.9144
| 27> C 	 -6.81356 	 18.5244 	 83.5061
| 28> H 	 -5.04483 	 20.657 	 85.5623
| 29> C 	 -4.25813 	 19.0386 	 83.2462
| 30> H 	 -3.59476 	 19.7117 	 83.8056
| 31> H 	 -4.40498 	 19.5264 	 82.3058
| 32> C 	 -3.76463 	 17.5638 	 83.3765
| 33> H 	 -4.44926 	 16.8339 	 82.9803
| 34> H 	 -3.4724 	 17.3367 	 84.4074
| 35> C 	 -2.6166 	 17.3767 	 82.4164
| 36> H 	 -1.92323 	 18.2384 	 82.4265
| 37> H 	 -3.08843 	 17.2381 	 81.3703
| 38> H 	 -2.13507 	 16.4344 	 82.7991
| 39> H 	 -8.37322 	 15.0857 	 80.3138
| 40> H 	 -7.33825 	 20.4576 	 86.4225
| 41> *
| 42>
| 43>                          ****END OF INPUT****

CARTESIAN COORDINATES (ANGSTROEM)
---------------------------------
  S     -7.841350   16.156100   82.428500
  C     -7.894980   15.968100   80.695600
  C     -7.128160   16.923200   80.057700
  C     -6.714100   17.959500   80.984900
  C     -7.169020   17.772300   82.295000
  H     -6.159210   18.778800   80.658800
  C     -6.999120   17.054300   78.591200
  H     -6.841190   15.977500   78.206200
  H     -6.117730   17.644900   78.299500
  C     -8.242190   17.653500   77.842000
  H     -7.948470   17.475200   76.798500
  H     -9.095160   16.970500   77.908100
  C     -8.537580   19.136000   78.225900
  H     -7.625330   19.660600   78.423400
  H     -9.014630   19.600000   77.357600
  H     -9.091880   19.261300   79.171100
  S     -8.093210   18.932700   84.614600
  C     -7.059190   19.940500   85.522500
  C     -5.766490   19.952100   85.041800
  C     -5.606120   19.085800   83.914400
  C     -6.813560   18.524400   83.506100
  H     -5.044830   20.657000   85.562300
  C     -4.258130   19.038600   83.246200
  H     -3.594760   19.711700   83.805600
  H     -4.404980   19.526400   82.305800
  C     -3.764630   17.563800   83.376500
  H     -4.449260   16.833900   82.980300
  H     -3.472400   17.336700   84.407400
  C     -2.616600   17.376700   82.416400
  H     -1.923230   18.238400   82.426500
  H     -3.088430   17.238100   81.370300
  H     -2.135070   16.434400   82.799100
  H     -8.373220   15.085700   80.313800
  H     -7.338250   20.457600   86.422500

 Total Charge           Charge          ....    0
 Multiplicity           Mult            ....    1
 Number of Electrons    NEL             ....  134
 Basis Dimension        Dim             ....  322

ORBITAL ENERGIES
----------------

  NO   OCC          E(Eh)            E(eV)
   0   2.0000     -88.963391     -2420.8169
   1   2.0000     -88.962503     -2420.7928
   2   2.0000     -10.331670      -281.1390
   3   2.0000     -10.322628      -280.8930
   4   2.0000     -10.312040      -280.6049
   5   2.0000     -10.310691      -280.5682
   6   2.0000     -10.300932      -280.3026
   7   2.0000     -10.300165      -280.2817
   8   2.0000     -10.298090      -280.2253
   9   2.0000     -10.294311      -280.1225
  10   2.0000     -10.293912      -280.1116
  11   2.0000     -10.292147      -280.0636
  12   2.0000     -10.289137      -279.9817
  13   2.0000     -10.281240      -279.7668
  14   2.0000     -10.281047      -279.7615
  15   2.0000     -10.279979      -279.7324
  16   2.0000      -8.079151      -219.8449
  17   2.0000      -8.077476      -219.7993
  18   2.0000      -6.037441      -164.2871
  19   2.0000      -6.035936      -164.2462
  20   2.0000      -6.033453      -164.1786
  21   2.0000      -6.032005      -164.1392
  22   2.0000      -6.030155      -164.0889
  23   2.0000      -6.028227      -164.0364
  24   2.0000      -1.006711       -27.3940
  25   2.0000      -0.985343       -26.8125
  26   2.0000      -0.912197       -24.8222
  27   2.0000      -0.907818       -24.7030
  28   2.0000      -0.864492       -23.5240
  29   2.0000      -0.853262       -23.2185
  30   2.0000      -0.842567       -22.9274
  31   2.0000      -0.813076       -22.1249
  32   2.0000      -0.780188       -21.2300
  33   2.0000      -0.767075       -20.8732
  34   2.0000      -0.705794       -19.2056
  35   2.0000      -0.698346       -19.0030
  36   2.0000      -0.686277       -18.6746
  37   2.0000      -0.660083       -17.9618
  38   2.0000      -0.642796       -17.4914
  39   2.0000      -0.615496       -16.7485
  40   2.0000      -0.588331       -16.0093
  41   2.0000      -0.570900       -15.5350
  42   2.0000      -0.569098       -15.4859
  43   2.0000      -0.544445       -14.8151
  44   2.0000      -0.535108       -14.5610
  45   2.0000      -0.533272       -14.5111
  46   2.0000      -0.512846       -13.9552
  47   2.0000      -0.508660       -13.8414
  48   2.0000      -0.501568       -13.6484
  49   2.0000      -0.496907       -13.5215
  50   2.0000      -0.491969       -13.3871
  51   2.0000      -0.483096       -13.1457
  52   2.0000      -0.476223       -12.9587
  53   2.0000      -0.463688       -12.6176
  54   2.0000      -0.457712       -12.4550
  55   2.0000      -0.444624       -12.0988
  56   2.0000      -0.439370       -11.9559
  57   2.0000      -0.436054       -11.8656
  58   2.0000      -0.431360       -11.7379
  59   2.0000      -0.425668       -11.5830
  60   2.0000      -0.418615       -11.3911
  61   2.0000      -0.415685       -11.3114
  62   2.0000      -0.399195       -10.8626
  63   2.0000      -0.340701        -9.2710
  64   2.0000      -0.328420        -8.9368
  65   2.0000      -0.326255        -8.8778
  66   2.0000      -0.293159        -7.9773
  67   0.0000       0.029132         0.7927
  68   0.0000       0.070858         1.9281
  69   0.0000       0.104734         2.8499
  70   0.0000       0.122072         3.3217
  71   0.0000       0.140466         3.8223

MULLIKEN ATOMIC CHARGES
-----------------------
   0 S :    0.098507
   1 C :   -0.129625
   2 C :   -0.048867
   3 C :    0.028978
   4 C :   -0.118241
   5 H :   -0.018567
   6 C :   -0.012301
   7 H :    0.037322
   8 H :    0.030172
   9 C :   -0.058704
  10 H :    0.026769
  11 H :    0.025485
  12 C :   -0.040224
  13 H :    0.015527
  14 H :    0.043990
  15 H :    0.058235
  16 S :    0.120340
  17 C :   -0.084530
  18 C :   -0.076837
  19 C :   -0.047019
  20 C :   -0.174516
  21 H :    0.042763
  22 C :    0.086968
  23 H :    0.014409
  24 H :    0.031444
  25 C :   -0.078101
  26 H :    0.046490
  27 H :    0.037673
  28 C :   -0.071111
  29 H :    0.031980
  30 H :    0.046672
  31 H :    0.039070
  32 H :    0.046697
  33 H :    0.049149
Sum of atomic charges:    0.0000000

LOEWDIN ATOMIC CHARGES
----------------------
   0 S :    0.403155
   1 C :   -0.189723
   2 C :   -0.068546
   3 C :   -0.056756
   4 C :   -0.191036
   5 H :    0.016228
   6 C :   -0.042948
   7 H :    0.039832
   8 H :    0.028852
   9 C :   -0.038048
  10 H :    0.025279
  11 H :    0.022316
  12 C :   -0.066864
  13 H :    0.019495
  14 H :    0.031801
  15 H :    0.036386
  16 S :    0.430878
  17 C :   -0.196731
  18 C :   -0.088458
  19 C :   -0.047982
  20 C :   -0.220568
  21 H :    0.043666
  22 C :   -0.027630
  23 H :    0.030932
  24 H :    0.028129
  25 C :   -0.035605
  26 H :    0.027810
  27 H :    0.027225
  28 C :   -0.072441
  29 H :    0.018589
  30 H :    0.034016
  31 H :    0.029805
  32 H :    0.022368
  33 H :    0.026576

  Mayer bond orders larger than 0.100000
B(  0-S ,  1-C ) :   1.1473 B(  0-S ,  4-C ) :   1.1622 B(  1-C ,  2-C ) :   1.5721
B(  1-C ,  4-C ) :   0.1004 B(  1-C , 32-H ) :   0.9786 B(  2-C ,  3-C ) :   1.2390
B(  2-C ,  6-C ) :   1.0461 B(  3-C ,  4-C ) :   1.5511 B(  3-C ,  5-H ) :   1.0152
B(  4-C , 20-C ) :   1.0257 B(  6-C ,  7-H ) :   0.9362 B(  6-C ,  8-H ) :   0.9433
B(  6-C ,  9-C ) :   1.0744 B(  9-C , 10-H ) :   0.9582 B(  9-C , 11-H ) :   0.9562
B(  9-C , 12-C ) :   1.0545 B( 12-C , 13-H ) :   0.9766 B( 12-C , 14-H ) :   0.9747
B( 12-C , 15-H ) :   0.9734 B( 16-S , 17-C ) :   1.1799 B( 16-S , 20-C ) :   1.1455
B( 17-C , 18-C ) :   1.6025 B( 17-C , 33-H ) :   0.9654 B( 18-C , 19-C ) :   1.2604
B( 18-C , 21-H ) :   0.9793 B( 19-C , 20-C ) :   1.5694 B( 19-C , 22-C ) :   1.0314
B( 22-C , 23-H ) :   0.9269 B( 22-C , 24-H ) :   0.9430 B( 22-C , 25-C ) :   1.0511
B( 25-C , 26-H ) :   0.9670 B( 25-C , 27-H ) :   0.9553 B( 25-C , 28-C ) :   1.0681
B( 28-C , 29-H ) :   0.9707 B( 28-C , 30-H ) :   0.9822 B( 28-C , 31-H ) :   0.9739

Dispersion correction           -0.015250889
FINAL SINGLE POINT ENERGY     -1339.870823257108

DIPOLE MOMENT
-------------
                                X             Y             Z
Electronic contribution:    -13.86847      -2.69985      19.06444
Nuclear contribution   :     14.26633       2.93099     -19.40990
                        -----------------------------------------
Total Dipole Moment    :      0.39786       0.23115      -0.34547
                        -----------------------------------------
Magnitude (a.u.)       :      0.57539
Magnitude (Debye)      :      1.46252

Rotational constants in cm-1:     0.018411     0.009142     0.007774
Rotational constants in MHz :   551.953473   274.083972   233.049917

                             ****ORCA TERMINATED NORMALLY****
TOTAL RUN TIME: 0 days 0 hours 0 minutes 36 seconds 381 msec
