                         Program Version 4.2.1 -  RELEASE  -
|  1> ! wB97X-D3 SP def2-SVP
|  2> %pal
|  3> nprocs 16
|  4> end
|  5>
|  6> * xyz 0 1
|  7> S 	 -6.86597 	 -11.0718 	 86.5862
|  8> C 	 -6.96339 	 -12.4831 	 87.5941
|  9> C 	 -5.95697 	 -13.4195 	 87.225
| 10> C 	 -5.30833 	 -13.0225 	 86.05
| 11> C 	 -5.67613 	 -11.7737 	 85.5735
| 12> H 	 -4.48238 	 -13.6452 	 85.6853
| 13> C 	 -5.55516 	 -14.606 	 88.1367
| 14> H 	 -6.14526 	 -14.4668 	 89.0421
| 15> H 	 -4.53568 	 -14.3934 	 88.3947
| 16> C 	 -5.92379 	 -15.9901 	 87.5166
| 17> H 	 -6.9992 	 -16.045 	 87.372
| 18> H 	 -5.5274 	 -16.0467 	 86.5095
| 19> C 	 -5.4986 	 -17.2118 	 88.3861
| 20> H 	 -6.08383 	 -17.9798 	 87.9886
| 21> H 	 -4.48775 	 -17.2543 	 88.0538
| 22> H 	 -5.52918 	 -17.0649 	 89.5023
| 23> S 	 -4.54176 	 -9.39899 	 84.6023
| 24> C 	 -3.81966 	 -9.51128 	 82.9463
| 25> C 	 -4.16976 	 -10.6349 	 82.3021
| 26> C 	 -4.81445 	 -11.6225 	 83.1494
| 27> C 	 -5.14628 	 -11.072 	 84.3939
| 28> H 	 -3.84358 	 -10.6651 	 81.2892
| 29> C 	 -5.19237 	 -12.9641 	 82.5982
| 30> H 	 -5.54538 	 -13.5074 	 83.4509
| 31> H 	 -4.33624 	 -13.4983 	 82.2753
| 32> C 	 -6.22908 	 -12.9265 	 81.5994
| 33> H 	 -5.91291 	 -12.4444 	 80.7228
| 34> H 	 -6.90351 	 -12.2046 	 81.9997
| 35> C 	 -6.91225 	 -14.2788 	 81.5093
| 36> H 	 -6.22907 	 -15.0332 	 81.0697
| 37> H 	 -7.81634 	 -14.2252 	 80.9009
| 38> H 	 -7.11724 	 -14.7754 	 82.5052
| 39> H 	 -7.53087 	 -12.5855 	 88.4351
| 40> H 	 -3.3381 	 -8.70093 	 82.4101
| 41> *
| 42>
| 43>                          ****END OF INPUT****

CARTESIAN COORDINATES (ANGSTROEM)
---------------------------------
  S     -6.865970  -11.071800   86.586200
  C     -6.963390  -12.483100   87.594100
  C     -5.956970  -13.419500   87.225000
  C     -5.308330  -13.022500   86.050000
  C     -5.676130  -11.773700   85.573500
  H     -4.482380  -13.645200   85.685300
  C     -5.555160  -14.606000   88.136700
  H     -6.145260  -14.466800   89.042100
  H     -4.535680  -14.393400   88.394700
  C     -5.923790  -15.990100   87.516600
  H     -6.999200  -16.045000   87.372000
  H     -5.527400  -16.046700   86.509500
  C     -5.498600  -17.211800   88.386100
  H     -6.083830  -17.979800   87.988600
  H     -4.487750  -17.254300   88.053800
  H     -5.529180  -17.064900   89.502300
  S     -4.541760   -9.398990   84.602300
  C     -3.819660   -9.511280   82.946300
  C     -4.169760  -10.634900   82.302100
  C     -4.814450  -11.622500   83.149400
  C     -5.146280  -11.072000   84.393900
  H     -3.843580  -10.665100   81.289200
  C     -5.192370  -12.964100   82.598200
  H     -5.545380  -13.507400   83.450900
  H     -4.336240  -13.498300   82.275300
  C     -6.229080  -12.926500   81.599400
  H     -5.912910  -12.444400   80.722800
  H     -6.903510  -12.204600   81.999700
  C     -6.912250  -14.278800   81.509300
  H     -6.229070  -15.033200   81.069700
  H     -7.816340  -14.225200   80.900900
  H     -7.117240  -14.775400   82.505200
  H     -7.530870  -12.585500   88.435100
  H     -3.338100   -8.700930   82.410100

 Total Charge           Charge          ....    0
 Multiplicity           Mult            ....    1
 Number of Electrons    NEL             ....  134
 Basis Dimension        Dim             ....  322

ORBITAL ENERGIES
----------------

  NO   OCC          E(Eh)            E(eV)
   0   2.0000     -88.968695     -2420.9613
   1   2.0000     -88.964635     -2420.8508
   2   2.0000     -10.332480      -281.1611
   3   2.0000     -10.328529      -281.0536
   4   2.0000     -10.316345      -280.7220
   5   2.0000     -10.307632      -280.4849
   6   2.0000     -10.305426      -280.4249
   7   2.0000     -10.300063      -280.2790
   8   2.0000     -10.295267      -280.1484
   9   2.0000     -10.291702      -280.0515
  10   2.0000     -10.289943      -280.0036
  11   2.0000     -10.289128      -279.9814
  12   2.0000     -10.282253      -279.7943
  13   2.0000     -10.277385      -279.6619
  14   2.0000     -10.274464      -279.5824
  15   2.0000     -10.269786      -279.4551
  16   2.0000      -8.083906      -219.9743
  17   2.0000      -8.078075      -219.8156
  18   2.0000      -6.042264      -164.4184
  19   2.0000      -6.038194      -164.3076
  20   2.0000      -6.036821      -164.2702
  21   2.0000      -6.034977      -164.2201
  22   2.0000      -6.033045      -164.1675
  23   2.0000      -6.028388      -164.0408
  24   2.0000      -1.005954       -27.3734
  25   2.0000      -0.980609       -26.6837
  26   2.0000      -0.926339       -25.2070
  27   2.0000      -0.907983       -24.7075
  28   2.0000      -0.869223       -23.6528
  29   2.0000      -0.852731       -23.2040
  30   2.0000      -0.843658       -22.9571
  31   2.0000      -0.817728       -22.2515
  32   2.0000      -0.783564       -21.3219
  33   2.0000      -0.769907       -20.9502
  34   2.0000      -0.710613       -19.3368
  35   2.0000      -0.703478       -19.1426
  36   2.0000      -0.697251       -18.9732
  37   2.0000      -0.655245       -17.8301
  38   2.0000      -0.639424       -17.3996
  39   2.0000      -0.626371       -17.0444
  40   2.0000      -0.599054       -16.3011
  41   2.0000      -0.576421       -15.6852
  42   2.0000      -0.568111       -15.4591
  43   2.0000      -0.561232       -15.2719
  44   2.0000      -0.538617       -14.6565
  45   2.0000      -0.529192       -14.4001
  46   2.0000      -0.517302       -14.0765
  47   2.0000      -0.505482       -13.7549
  48   2.0000      -0.503037       -13.6883
  49   2.0000      -0.500228       -13.6119
  50   2.0000      -0.488705       -13.2983
  51   2.0000      -0.483855       -13.1664
  52   2.0000      -0.470049       -12.7907
  53   2.0000      -0.465222       -12.6593
  54   2.0000      -0.461579       -12.5602
  55   2.0000      -0.446499       -12.1498
  56   2.0000      -0.444763       -12.1026
  57   2.0000      -0.443637       -12.0720
  58   2.0000      -0.435762       -11.8577
  59   2.0000      -0.428564       -11.6618
  60   2.0000      -0.420420       -11.4402
  61   2.0000      -0.410101       -11.1594
  62   2.0000      -0.405402       -11.0315
  63   2.0000      -0.350931        -9.5493
  64   2.0000      -0.333691        -9.0802
  65   2.0000      -0.328214        -8.9312
  66   2.0000      -0.287706        -7.8289
  67   0.0000       0.029452         0.8014
  68   0.0000       0.070631         1.9220
  69   0.0000       0.107565         2.9270
  70   0.0000       0.122288         3.3276
  71   0.0000       0.126780         3.4499

MULLIKEN ATOMIC CHARGES
-----------------------
   0 S :    0.123181
   1 C :   -0.085246
   2 C :   -0.142769
   3 C :    0.030007
   4 C :   -0.155605
   5 H :    0.019011
   6 C :    0.088340
   7 H :    0.012058
   8 H :    0.038068
   9 C :   -0.114316
  10 H :    0.025891
  11 H :    0.025436
  12 C :   -0.009460
  13 H :    0.030814
  14 H :    0.027623
  15 H :    0.050303
  16 S :    0.082782
  17 C :   -0.092383
  18 C :   -0.016072
  19 C :   -0.085730
  20 C :   -0.112864
  21 H :    0.012444
  22 C :    0.124256
  23 H :   -0.012385
  24 H :    0.012407
  25 C :   -0.015273
  26 H :    0.012034
  27 H :    0.018105
  28 C :   -0.060663
  29 H :    0.023888
  30 H :    0.041350
  31 H :    0.040976
  32 H :    0.009602
  33 H :    0.054190
Sum of atomic charges:    0.0000000

LOEWDIN ATOMIC CHARGES
----------------------
   0 S :    0.437944
   1 C :   -0.197949
   2 C :   -0.056548
   3 C :   -0.075587
   4 C :   -0.207926
   5 H :    0.033981
   6 C :   -0.025015
   7 H :    0.028974
   8 H :    0.029890
   9 C :   -0.037173
  10 H :    0.021160
  11 H :    0.019827
  12 C :   -0.060893
  13 H :    0.020879
  14 H :    0.025161
  15 H :    0.034313
  16 S :    0.351398
  17 C :   -0.160990
  18 C :   -0.068040
  19 C :   -0.043945
  20 C :   -0.183015
  21 H :    0.031113
  22 C :   -0.030645
  23 H :    0.026039
  24 H :    0.023748
  25 C :   -0.040428
  26 H :    0.018117
  27 H :    0.027548
  28 C :   -0.064642
  29 H :    0.025499
  30 H :    0.026589
  31 H :    0.034625
  32 H :    0.005687
  33 H :    0.030307

  Mayer bond orders larger than 0.100000
B(  0-S ,  1-C ) :   1.1594 B(  0-S ,  4-C ) :   1.1830 B(  1-C ,  2-C ) :   1.5595
B(  1-C ,  4-C ) :   0.1119 B(  1-C , 32-H ) :   0.9786 B(  2-C ,  3-C ) :   1.3175
B(  2-C ,  6-C ) :   1.0092 B(  3-C ,  4-C ) :   1.5135 B(  3-C ,  5-H ) :   0.9863
B(  4-C , 20-C ) :   1.0201 B(  6-C ,  7-H ) :   0.9380 B(  6-C ,  8-H ) :   0.9471
B(  6-C ,  9-C ) :   1.0513 B(  9-C , 10-H ) :   0.9600 B(  9-C , 11-H ) :   0.9659
B(  9-C , 12-C ) :   1.0554 B( 12-C , 13-H ) :   0.9767 B( 12-C , 14-H ) :   0.9806
B( 12-C , 15-H ) :   0.9771 B( 16-S , 17-C ) :   1.1101 B( 16-S , 20-C ) :   1.1135
B( 17-C , 18-C ) :   1.7040 B( 17-C , 33-H ) :   0.9599 B( 18-C , 19-C ) :   1.1624
B( 18-C , 21-H ) :   0.9885 B( 19-C , 20-C ) :   1.6422 B( 19-C , 22-C ) :   1.0546
B( 22-C , 23-H ) :   0.9206 B( 22-C , 24-H ) :   0.9127 B( 22-C , 25-C ) :   1.0737
B( 25-C , 26-H ) :   0.9466 B( 25-C , 27-H ) :   0.9451 B( 25-C , 28-C ) :   1.0836
B( 28-C , 29-H ) :   0.9717 B( 28-C , 30-H ) :   0.9740 B( 28-C , 31-H ) :   0.9729

Dispersion correction           -0.013799783
FINAL SINGLE POINT ENERGY     -1339.855574431135

DIPOLE MOMENT
-------------
                                X             Y             Z
Electronic contribution:      2.07713      29.72685       3.65956
Nuclear contribution   :     -1.90361     -30.33861      -3.85505
                        -----------------------------------------
Total Dipole Moment    :      0.17352      -0.61177      -0.19549
                        -----------------------------------------
Magnitude (a.u.)       :      0.66527
Magnitude (Debye)      :      1.69098

Rotational constants in cm-1:     0.017753     0.008413     0.006564
Rotational constants in MHz :   532.207778   252.216470   196.791768

                             ****ORCA TERMINATED NORMALLY****
TOTAL RUN TIME: 0 days 0 hours 0 minutes 33 seconds 997 msec
