                         Program Version 4.2.1 -  RELEASE  -
|  1> ! wB97X-D3 SP def2-SVP
|  2> %pal
|  3> nprocs 16
|  4> end
|  5>
|  6> * xyz 0 1
|  7> S 	 -1.703 	 -18.3313 	 92.4135
|  8> C 	 -2.26456 	 -16.8538 	 91.6453
|  9> C 	 -1.3902 	 -16.3304 	 90.7538
| 10> C 	 -0.209325 	 -17.1681 	 90.6166
| 11> C 	 -0.253444 	 -18.2726 	 91.4609
| 12> H 	 0.653753 	 -17.0577 	 89.9454
| 13> C 	 -1.56131 	 -15.1314 	 89.8629
| 14> H 	 -0.796405 	 -14.3551 	 90.0869
| 15> H 	 -2.6196 	 -14.8034 	 90.0852
| 16> C 	 -1.40177 	 -15.4527 	 88.3265
| 17> H 	 -1.88167 	 -14.6945 	 87.7806
| 18> H 	 -0.384331 	 -15.4943 	 88.1143
| 19> C 	 -2.17725 	 -16.625 	 87.8509
| 20> H 	 -1.84375 	 -17.592 	 88.2938
| 21> H 	 -3.17839 	 -16.5976 	 88.138
| 22> H 	 -2.15398 	 -16.6467 	 86.7961
| 23> S 	 1.67241 	 -19.4504 	 92.9709
| 24> C 	 2.62986 	 -20.7583 	 92.3534
| 25> C 	 2.23373 	 -21.0546 	 91.0544
| 26> C 	 1.16725 	 -20.2542 	 90.5829
| 27> C 	 0.729873 	 -19.3426 	 91.5077
| 28> H 	 2.71645 	 -21.9015 	 90.5745
| 29> C 	 0.708305 	 -20.4321 	 89.1535
| 30> H 	 -0.125801 	 -19.8132 	 89.1313
| 31> H 	 0.414484 	 -21.449 	 88.9311
| 32> C 	 1.65819 	 -20.0501 	 87.9908
| 33> H 	 2.46253 	 -20.8229 	 87.9495
| 34> H 	 2.1886 	 -19.0487 	 87.9691
| 35> C 	 1.10616 	 -20.2839 	 86.5609
| 36> H 	 0.228269 	 -19.6634 	 86.4421
| 37> H 	 1.04236 	 -21.3392 	 86.3653
| 38> H 	 1.88763 	 -19.9633 	 85.8334
| 39> H 	 -3.28722 	 -16.5895 	 91.6502
| 40> H 	 3.45502 	 -21.2471 	 92.8756
| 41> *
| 42>
| 43>                          ****END OF INPUT****

CARTESIAN COORDINATES (ANGSTROEM)
---------------------------------
  S     -1.703000  -18.331300   92.413500
  C     -2.264560  -16.853800   91.645300
  C     -1.390200  -16.330400   90.753800
  C     -0.209325  -17.168100   90.616600
  C     -0.253444  -18.272600   91.460900
  H      0.653753  -17.057700   89.945400
  C     -1.561310  -15.131400   89.862900
  H     -0.796405  -14.355100   90.086900
  H     -2.619600  -14.803400   90.085200
  C     -1.401770  -15.452700   88.326500
  H     -1.881670  -14.694500   87.780600
  H     -0.384331  -15.494300   88.114300
  C     -2.177250  -16.625000   87.850900
  H     -1.843750  -17.592000   88.293800
  H     -3.178390  -16.597600   88.138000
  H     -2.153980  -16.646700   86.796100
  S      1.672410  -19.450400   92.970900
  C      2.629860  -20.758300   92.353400
  C      2.233730  -21.054600   91.054400
  C      1.167250  -20.254200   90.582900
  C      0.729873  -19.342600   91.507700
  H      2.716450  -21.901500   90.574500
  C      0.708305  -20.432100   89.153500
  H     -0.125801  -19.813200   89.131300
  H      0.414484  -21.449000   88.931100
  C      1.658190  -20.050100   87.990800
  H      2.462530  -20.822900   87.949500
  H      2.188600  -19.048700   87.969100
  C      1.106160  -20.283900   86.560900
  H      0.228269  -19.663400   86.442100
  H      1.042360  -21.339200   86.365300
  H      1.887630  -19.963300   85.833400
  H     -3.287220  -16.589500   91.650200
  H      3.455020  -21.247100   92.875600

 Total Charge           Charge          ....    0
 Multiplicity           Mult            ....    1
 Number of Electrons    NEL             ....  134
 Basis Dimension        Dim             ....  322

ORBITAL ENERGIES
----------------

  NO   OCC          E(Eh)            E(eV)
   0   2.0000     -88.966083     -2420.8902
   1   2.0000     -88.962379     -2420.7894
   2   2.0000     -10.328501      -281.0528
   3   2.0000     -10.323103      -280.9059
   4   2.0000     -10.315718      -280.7050
   5   2.0000     -10.309297      -280.5302
   6   2.0000     -10.301135      -280.3081
   7   2.0000     -10.300329      -280.2862
   8   2.0000     -10.300111      -280.2803
   9   2.0000     -10.297687      -280.2143
  10   2.0000     -10.292956      -280.0856
  11   2.0000     -10.289313      -279.9865
  12   2.0000     -10.286298      -279.9044
  13   2.0000     -10.279526      -279.7201
  14   2.0000     -10.278551      -279.6936
  15   2.0000     -10.266594      -279.3682
  16   2.0000      -8.081194      -219.9005
  17   2.0000      -8.077721      -219.8060
  18   2.0000      -6.039657      -164.3474
  19   2.0000      -6.036191      -164.2531
  20   2.0000      -6.035764      -164.2415
  21   2.0000      -6.032005      -164.1392
  22   2.0000      -6.031856      -164.1351
  23   2.0000      -6.028612      -164.0469
  24   2.0000      -1.009561       -27.4715
  25   2.0000      -0.986575       -26.8461
  26   2.0000      -0.916977       -24.9522
  27   2.0000      -0.906638       -24.6709
  28   2.0000      -0.873511       -23.7694
  29   2.0000      -0.853759       -23.2320
  30   2.0000      -0.848363       -23.0851
  31   2.0000      -0.814136       -22.1538
  32   2.0000      -0.785303       -21.3692
  33   2.0000      -0.775972       -21.1153
  34   2.0000      -0.709417       -19.3042
  35   2.0000      -0.697942       -18.9920
  36   2.0000      -0.690586       -18.7918
  37   2.0000      -0.660385       -17.9700
  38   2.0000      -0.641930       -17.4678
  39   2.0000      -0.617906       -16.8141
  40   2.0000      -0.594074       -16.1656
  41   2.0000      -0.572403       -15.5759
  42   2.0000      -0.565025       -15.3751
  43   2.0000      -0.561814       -15.2877
  44   2.0000      -0.550682       -14.9848
  45   2.0000      -0.528962       -14.3938
  46   2.0000      -0.520493       -14.1633
  47   2.0000      -0.514844       -14.0096
  48   2.0000      -0.507355       -13.8058
  49   2.0000      -0.500607       -13.6222
  50   2.0000      -0.493624       -13.4322
  51   2.0000      -0.477635       -12.9971
  52   2.0000      -0.470892       -12.8136
  53   2.0000      -0.462797       -12.5934
  54   2.0000      -0.453110       -12.3297
  55   2.0000      -0.449823       -12.2403
  56   2.0000      -0.444802       -12.1037
  57   2.0000      -0.440425       -11.9846
  58   2.0000      -0.429149       -11.6777
  59   2.0000      -0.427522       -11.6335
  60   2.0000      -0.423830       -11.5330
  61   2.0000      -0.415750       -11.3131
  62   2.0000      -0.404267       -11.0007
  63   2.0000      -0.338719        -9.2170
  64   2.0000      -0.333348        -9.0709
  65   2.0000      -0.327173        -8.9028
  66   2.0000      -0.302214        -8.2237
  67   0.0000       0.042449         1.1551
  68   0.0000       0.062313         1.6956
  69   0.0000       0.118265         3.2181
  70   0.0000       0.120588         3.2814
  71   0.0000       0.125618         3.4182

MULLIKEN ATOMIC CHARGES
-----------------------
   0 S :    0.117033
   1 C :   -0.110345
   2 C :   -0.092712
   3 C :    0.025264
   4 C :   -0.175194
   5 H :    0.023367
   6 C :    0.062017
   7 H :    0.053028
   8 H :    0.020257
   9 C :   -0.052985
  10 H :    0.020926
  11 H :    0.021643
  12 C :   -0.020463
  13 H :    0.037068
  14 H :    0.004862
  15 H :    0.025916
  16 S :    0.110084
  17 C :   -0.100677
  18 C :   -0.049106
  19 C :   -0.005597
  20 C :   -0.183340
  21 H :    0.019769
  22 C :    0.147121
  23 H :   -0.001489
  24 H :    0.020108
  25 C :   -0.129450
  26 H :    0.020623
  27 H :    0.042976
  28 C :   -0.055330
  29 H :    0.040065
  30 H :    0.031194
  31 H :    0.034295
  32 H :    0.036558
  33 H :    0.062514
Sum of atomic charges:   -0.0000000

LOEWDIN ATOMIC CHARGES
----------------------
   0 S :    0.407116
   1 C :   -0.191972
   2 C :   -0.063948
   3 C :   -0.059050
   4 C :   -0.201079
   5 H :    0.035812
   6 C :   -0.029694
   7 H :    0.040173
   8 H :    0.032121
   9 C :   -0.032328
  10 H :    0.025042
  11 H :    0.014350
  12 C :   -0.058771
  13 H :    0.027083
  14 H :    0.017743
  15 H :    0.022510
  16 S :    0.417274
  17 C :   -0.191732
  18 C :   -0.072771
  19 C :   -0.057203
  20 C :   -0.206032
  21 H :    0.031965
  22 C :   -0.025232
  23 H :    0.018437
  24 H :    0.034300
  25 C :   -0.049284
  26 H :    0.022851
  27 H :    0.027934
  28 C :   -0.064691
  29 H :    0.021575
  30 H :    0.021414
  31 H :    0.032582
  32 H :    0.020366
  33 H :    0.033139

  Mayer bond orders larger than 0.100000
B(  0-S ,  1-C ) :   1.1221 B(  0-S ,  4-C ) :   1.1606 B(  1-C ,  2-C ) :   1.6645
B(  1-C , 32-H ) :   0.9602 B(  2-C ,  3-C ) :   1.1858 B(  2-C ,  6-C ) :   1.0284
B(  3-C ,  4-C ) :   1.6078 B(  3-C ,  5-H ) :   0.9940 B(  4-C , 20-C ) :   0.9981
B(  6-C ,  7-H ) :   0.9398 B(  6-C ,  8-H ) :   0.9387 B(  6-C ,  9-C ) :   1.0708
B(  9-C , 10-H ) :   0.9546 B(  9-C , 11-H ) :   0.9528 B(  9-C , 12-C ) :   1.0908
B( 12-C , 13-H ) :   0.9626 B( 12-C , 14-H ) :   0.9685 B( 12-C , 15-H ) :   0.9719
B( 16-S , 17-C ) :   1.1620 B( 16-S , 20-C ) :   1.1543 B( 17-C , 18-C ) :   1.6008
B( 17-C , 20-C ) :   0.1021 B( 17-C , 33-H ) :   0.9674 B( 18-C , 19-C ) :   1.2281
B( 18-C , 21-H ) :   0.9948 B( 19-C , 20-C ) :   1.6091 B( 19-C , 22-C ) :   1.0509
B( 22-C , 23-H ) :   0.9245 B( 22-C , 24-H ) :   0.9266 B( 22-C , 25-C ) :   1.0582
B( 25-C , 26-H ) :   0.9554 B( 25-C , 27-H ) :   0.9603 B( 25-C , 28-C ) :   1.0801
B( 28-C , 29-H ) :   0.9771 B( 28-C , 30-H ) :   0.9777 B( 28-C , 31-H ) :   0.9735

Dispersion correction           -0.015190356
FINAL SINGLE POINT ENERGY     -1339.871179967017

DIPOLE MOMENT
-------------
                                X             Y             Z
Electronic contribution:      1.85086      -4.26867      30.79064
Nuclear contribution   :     -1.78435       4.32047     -31.58412
                        -----------------------------------------
Total Dipole Moment    :      0.06652       0.05180      -0.79348
                        -----------------------------------------
Magnitude (a.u.)       :      0.79795
Magnitude (Debye)      :      2.02822

Rotational constants in cm-1:     0.016302     0.010824     0.007229
Rotational constants in MHz :   488.718747   324.490876   216.718964

                             ****ORCA TERMINATED NORMALLY****
TOTAL RUN TIME: 0 days 0 hours 0 minutes 35 seconds 755 msec
