                         Program Version 4.2.1 -  RELEASE  -
|  1> ! wB97X-D3 SP def2-SVP
|  2> %pal
|  3> nprocs 16
|  4> end
|  5>
|  6> * xyz 0 1
|  7> S 	 -42.2639 	 56.9751 	 106.025
|  8> C 	 -41.2204 	 58.0325 	 105.151
|  9> C 	 -40.7782 	 57.4329 	 103.96
| 10> C 	 -41.3449 	 56.1016 	 103.79
| 11> C 	 -41.9586 	 55.6545 	 104.942
| 12> H 	 -41.3173 	 55.4699 	 102.909
| 13> C 	 -39.8517 	 58.1694 	 102.991
| 14> H 	 -39.5223 	 59.0361 	 103.534
| 15> H 	 -40.4282 	 58.624 	 102.282
| 16> C 	 -38.6152 	 57.357 	 102.395
| 17> H 	 -38.9672 	 56.4944 	 101.89
| 18> H 	 -38.195 	 57.9695 	 101.645
| 19> C 	 -37.6693 	 56.9382 	 103.475
| 20> H 	 -36.8654 	 56.4196 	 103.03
| 21> H 	 -37.2679 	 57.7435 	 104.064
| 22> H 	 -38.2389 	 56.342 	 104.2
| 23> S 	 -44.5824 	 54.7637 	 104.548
| 24> C 	 -44.8857 	 52.988 	 104.497
| 25> C 	 -43.6644 	 52.2407 	 104.73
| 26> C 	 -42.5389 	 53.0888 	 104.95
| 27> C 	 -42.8685 	 54.456 	 104.984
| 28> H 	 -43.6488 	 51.1845 	 104.619
| 29> C 	 -41.1577 	 52.5331 	 105.178
| 30> H 	 -41.2986 	 51.8225 	 106.059
| 31> H 	 -40.4948 	 53.3296 	 105.445
| 32> C 	 -40.4992 	 51.6278 	 104.149
| 33> H 	 -40.6571 	 52.1771 	 103.196
| 34> H 	 -40.9535 	 50.6928 	 103.946
| 35> C 	 -38.9736 	 51.4126 	 104.285
| 36> H 	 -38.5599 	 51.0504 	 103.318
| 37> H 	 -38.6875 	 50.7286 	 105.075
| 38> H 	 -38.5046 	 52.3185 	 104.457
| 39> H 	 -41.0436 	 59.0707 	 105.347
| 40> H 	 -45.821 	 52.5133 	 104.165
| 41> *
| 42>
| 43>                          ****END OF INPUT****

CARTESIAN COORDINATES (ANGSTROEM)
---------------------------------
  S    -42.263900   56.975100  106.025000
  C    -41.220400   58.032500  105.151000
  C    -40.778200   57.432900  103.960000
  C    -41.344900   56.101600  103.790000
  C    -41.958600   55.654500  104.942000
  H    -41.317300   55.469900  102.909000
  C    -39.851700   58.169400  102.991000
  H    -39.522300   59.036100  103.534000
  H    -40.428200   58.624000  102.282000
  C    -38.615200   57.357000  102.395000
  H    -38.967200   56.494400  101.890000
  H    -38.195000   57.969500  101.645000
  C    -37.669300   56.938200  103.475000
  H    -36.865400   56.419600  103.030000
  H    -37.267900   57.743500  104.064000
  H    -38.238900   56.342000  104.200000
  S    -44.582400   54.763700  104.548000
  C    -44.885700   52.988000  104.497000
  C    -43.664400   52.240700  104.730000
  C    -42.538900   53.088800  104.950000
  C    -42.868500   54.456000  104.984000
  H    -43.648800   51.184500  104.619000
  C    -41.157700   52.533100  105.178000
  H    -41.298600   51.822500  106.059000
  H    -40.494800   53.329600  105.445000
  C    -40.499200   51.627800  104.149000
  H    -40.657100   52.177100  103.196000
  H    -40.953500   50.692800  103.946000
  C    -38.973600   51.412600  104.285000
  H    -38.559900   51.050400  103.318000
  H    -38.687500   50.728600  105.075000
  H    -38.504600   52.318500  104.457000
  H    -41.043600   59.070700  105.347000
  H    -45.821000   52.513300  104.165000

 Total Charge           Charge          ....    0
 Multiplicity           Mult            ....    1
 Number of Electrons    NEL             ....  134
 Basis Dimension        Dim             ....  322

ORBITAL ENERGIES
----------------

  NO   OCC          E(Eh)            E(eV)
   0   2.0000     -88.969755     -2420.9901
   1   2.0000     -88.965432     -2420.8725
   2   2.0000     -10.331541      -281.1355
   3   2.0000     -10.330697      -281.1125
   4   2.0000     -10.328400      -281.0500
   5   2.0000     -10.313749      -280.6514
   6   2.0000     -10.307260      -280.4748
   7   2.0000     -10.306391      -280.4512
   8   2.0000     -10.300260      -280.2843
   9   2.0000     -10.299367      -280.2600
  10   2.0000     -10.292119      -280.0628
  11   2.0000     -10.285864      -279.8926
  12   2.0000     -10.284954      -279.8678
  13   2.0000     -10.282800      -279.8092
  14   2.0000     -10.275832      -279.6196
  15   2.0000     -10.268502      -279.4202
  16   2.0000      -8.082525      -219.9367
  17   2.0000      -8.080822      -219.8903
  18   2.0000      -6.041122      -164.3873
  19   2.0000      -6.039303      -164.3378
  20   2.0000      -6.037358      -164.2849
  21   2.0000      -6.035164      -164.2252
  22   2.0000      -6.033249      -164.1731
  23   2.0000      -6.031633      -164.1291
  24   2.0000      -1.002244       -27.2724
  25   2.0000      -0.972862       -26.4729
  26   2.0000      -0.910313       -24.7709
  27   2.0000      -0.906782       -24.6748
  28   2.0000      -0.863163       -23.4879
  29   2.0000      -0.850736       -23.1497
  30   2.0000      -0.846885       -23.0449
  31   2.0000      -0.812576       -22.1113
  32   2.0000      -0.783836       -21.3293
  33   2.0000      -0.770391       -20.9634
  34   2.0000      -0.710650       -19.3378
  35   2.0000      -0.701323       -19.0840
  36   2.0000      -0.688875       -18.7453
  37   2.0000      -0.658289       -17.9129
  38   2.0000      -0.644358       -17.5339
  39   2.0000      -0.616093       -16.7648
  40   2.0000      -0.592263       -16.1163
  41   2.0000      -0.568378       -15.4663
  42   2.0000      -0.565081       -15.3766
  43   2.0000      -0.556406       -15.1406
  44   2.0000      -0.541843       -14.7443
  45   2.0000      -0.525988       -14.3129
  46   2.0000      -0.516928       -14.0663
  47   2.0000      -0.510412       -13.8890
  48   2.0000      -0.500308       -13.6141
  49   2.0000      -0.492643       -13.4055
  50   2.0000      -0.488306       -13.2875
  51   2.0000      -0.480709       -13.0808
  52   2.0000      -0.471373       -12.8267
  53   2.0000      -0.467283       -12.7154
  54   2.0000      -0.456879       -12.4323
  55   2.0000      -0.449901       -12.2424
  56   2.0000      -0.444943       -12.1075
  57   2.0000      -0.439477       -11.9588
  58   2.0000      -0.436257       -11.8711
  59   2.0000      -0.429171       -11.6783
  60   2.0000      -0.425801       -11.5866
  61   2.0000      -0.417817       -11.3694
  62   2.0000      -0.406142       -11.0517
  63   2.0000      -0.339805        -9.2466
  64   2.0000      -0.326285        -8.8787
  65   2.0000      -0.319393        -8.6911
  66   2.0000      -0.301025        -8.1913
  67   0.0000       0.034766         0.9460
  68   0.0000       0.049748         1.3537
  69   0.0000       0.110109         2.9962
  70   0.0000       0.114794         3.1237
  71   0.0000       0.120555         3.2805

MULLIKEN ATOMIC CHARGES
-----------------------
   0 S :    0.111428
   1 C :   -0.096553
   2 C :   -0.146349
   3 C :    0.037333
   4 C :   -0.169195
   5 H :    0.026868
   6 C :    0.112459
   7 H :   -0.003342
   8 H :    0.011102
   9 C :   -0.041043
  10 H :    0.019307
  11 H :    0.017797
  12 C :   -0.021929
  13 H :    0.027473
  14 H :    0.019838
  15 H :    0.038811
  16 S :    0.107592
  17 C :   -0.117977
  18 C :   -0.019213
  19 C :   -0.028138
  20 C :   -0.158606
  21 H :    0.013897
  22 C :    0.070344
  23 H :    0.039999
  24 H :    0.022142
  25 C :   -0.086145
  26 H :    0.017860
  27 H :    0.019804
  28 C :   -0.025282
  29 H :    0.035068
  30 H :    0.035311
  31 H :    0.012099
  32 H :    0.045061
  33 H :    0.072181
Sum of atomic charges:   -0.0000000

LOEWDIN ATOMIC CHARGES
----------------------
   0 S :    0.425283
   1 C :   -0.205218
   2 C :   -0.060166
   3 C :   -0.053810
   4 C :   -0.212756
   5 H :    0.033693
   6 C :   -0.025119
   7 H :    0.027249
   8 H :    0.019463
   9 C :   -0.027424
  10 H :    0.018951
  11 H :    0.018795
  12 C :   -0.058193
  13 H :    0.021186
  14 H :    0.022536
  15 H :    0.031178
  16 S :    0.378399
  17 C :   -0.175531
  18 C :   -0.063027
  19 C :   -0.053702
  20 C :   -0.195740
  21 H :    0.026049
  22 C :   -0.034498
  23 H :    0.042336
  24 H :    0.027993
  25 C :   -0.043907
  26 H :    0.024287
  27 H :    0.015990
  28 C :   -0.055726
  29 H :    0.033766
  30 H :    0.024052
  31 H :    0.014297
  32 H :    0.026247
  33 H :    0.033065

  Mayer bond orders larger than 0.100000
B(  0-S ,  1-C ) :   1.1538 B(  0-S ,  4-C ) :   1.1589 B(  1-C ,  2-C ) :   1.6000
B(  1-C , 32-H ) :   0.9674 B(  2-C ,  3-C ) :   1.2329 B(  2-C ,  6-C ) :   1.0161
B(  3-C ,  4-C ) :   1.5673 B(  3-C ,  5-H ) :   0.9962 B(  4-C , 20-C ) :   0.9914
B(  6-C ,  7-H ) :   0.9345 B(  6-C ,  8-H ) :   0.9311 B(  6-C ,  9-C ) :   1.0667
B(  9-C , 10-H ) :   0.9559 B(  9-C , 11-H ) :   0.9550 B(  9-C , 12-C ) :   1.0801
B( 12-C , 13-H ) :   0.9724 B( 12-C , 14-H ) :   0.9743 B( 12-C , 15-H ) :   0.9728
B( 16-S , 17-C ) :   1.1582 B( 16-S , 20-C ) :   1.1317 B( 17-C , 18-C ) :   1.5893
B( 17-C , 20-C ) :   0.1042 B( 17-C , 33-H ) :   0.9647 B( 18-C , 19-C ) :   1.2456
B( 18-C , 21-H ) :   0.9926 B( 19-C , 20-C ) :   1.6027 B( 19-C , 22-C ) :   1.0585
B( 22-C , 23-H ) :   0.9310 B( 22-C , 24-H ) :   0.9323 B( 22-C , 25-C ) :   1.0552
B( 25-C , 26-H ) :   0.9552 B( 25-C , 27-H ) :   0.9528 B( 25-C , 28-C ) :   1.0902
B( 28-C , 29-H ) :   0.9738 B( 28-C , 30-H ) :   0.9770 B( 28-C , 31-H ) :   0.9735

Dispersion correction           -0.014261720
FINAL SINGLE POINT ENERGY     -1339.857912312174

DIPOLE MOMENT
-------------
                                X             Y             Z
Electronic contribution:    -27.03470       8.19298      10.27169
Nuclear contribution   :     27.47499      -8.31341     -10.87861
                        -----------------------------------------
Total Dipole Moment    :      0.44029      -0.12043      -0.60692
                        -----------------------------------------
Magnitude (a.u.)       :      0.75941
Magnitude (Debye)      :      1.93027

Rotational constants in cm-1:     0.015904     0.009950     0.006927
Rotational constants in MHz :   476.792688   298.291681   207.656118

                             ****ORCA TERMINATED NORMALLY****
TOTAL RUN TIME: 0 days 0 hours 0 minutes 30 seconds 458 msec
