                         Program Version 4.2.1 -  RELEASE  -
|  1> ! wB97X-D3 SP def2-SVP
|  2> %pal
|  3> nprocs 16
|  4> end
|  5>
|  6> * xyz 0 1
|  7> S 	 -100.68 	 55.8099 	 119.603
|  8> C 	 -99.8359 	 56.4943 	 118.268
|  9> C 	 -100.647 	 57.3916 	 117.605
| 10> C 	 -101.923 	 57.5925 	 118.302
| 11> C 	 -102.066 	 56.8497 	 119.452
| 12> H 	 -102.779 	 58.2284 	 117.995
| 13> C 	 -100.285 	 58.0426 	 116.307
| 14> H 	 -99.3497 	 57.7237 	 115.875
| 15> H 	 -100.296 	 59.0539 	 116.549
| 16> C 	 -101.26 	 57.9451 	 115.169
| 17> H 	 -102.251 	 58.4627 	 115.344
| 18> H 	 -100.793 	 58.4769 	 114.344
| 19> C 	 -101.341 	 56.5842 	 114.485
| 20> H 	 -101.965 	 55.9774 	 115.128
| 21> H 	 -101.877 	 56.7881 	 113.557
| 22> H 	 -100.381 	 56.0865 	 114.252
| 23> S 	 -103.569 	 55.167 	 120.974
| 24> C 	 -104.94 	 55.942 	 121.866
| 25> C 	 -105.015 	 57.3027 	 121.828
| 26> C 	 -103.961 	 57.8549 	 120.953
| 27> C 	 -103.192 	 56.8348 	 120.397
| 28> H 	 -105.753 	 57.88 	 122.349
| 29> C 	 -103.743 	 59.361 	 120.742
| 30> H 	 -104.49 	 60.0136 	 121.32
| 31> H 	 -104.037 	 59.5696 	 119.718
| 32> C 	 -102.36 	 59.9109 	 120.987
| 33> H 	 -101.592 	 59.2266 	 120.524
| 34> H 	 -102.172 	 59.8148 	 122.016
| 35> C 	 -102.102 	 61.2445 	 120.434
| 36> H 	 -102.211 	 61.1932 	 119.319
| 37> H 	 -101.043 	 61.4805 	 120.685
| 38> H 	 -102.835 	 61.9201 	 120.873
| 39> H 	 -98.9929 	 56.0359 	 117.71
| 40> H 	 -105.579 	 55.3055 	 122.469
| 41> *
| 42>
| 43>                          ****END OF INPUT****

CARTESIAN COORDINATES (ANGSTROEM)
---------------------------------
  S    -100.680000   55.809900  119.603000
  C    -99.835900   56.494300  118.268000
  C    -100.647000   57.391600  117.605000
  C    -101.923000   57.592500  118.302000
  C    -102.066000   56.849700  119.452000
  H    -102.779000   58.228400  117.995000
  C    -100.285000   58.042600  116.307000
  H    -99.349700   57.723700  115.875000
  H    -100.296000   59.053900  116.549000
  C    -101.260000   57.945100  115.169000
  H    -102.251000   58.462700  115.344000
  H    -100.793000   58.476900  114.344000
  C    -101.341000   56.584200  114.485000
  H    -101.965000   55.977400  115.128000
  H    -101.877000   56.788100  113.557000
  H    -100.381000   56.086500  114.252000
  S    -103.569000   55.167000  120.974000
  C    -104.940000   55.942000  121.866000
  C    -105.015000   57.302700  121.828000
  C    -103.961000   57.854900  120.953000
  C    -103.192000   56.834800  120.397000
  H    -105.753000   57.880000  122.349000
  C    -103.743000   59.361000  120.742000
  H    -104.490000   60.013600  121.320000
  H    -104.037000   59.569600  119.718000
  C    -102.360000   59.910900  120.987000
  H    -101.592000   59.226600  120.524000
  H    -102.172000   59.814800  122.016000
  C    -102.102000   61.244500  120.434000
  H    -102.211000   61.193200  119.319000
  H    -101.043000   61.480500  120.685000
  H    -102.835000   61.920100  120.873000
  H    -98.992900   56.035900  117.710000
  H    -105.579000   55.305500  122.469000

 Total Charge           Charge          ....    0
 Multiplicity           Mult            ....    1
 Number of Electrons    NEL             ....  134
 Basis Dimension        Dim             ....  322

ORBITAL ENERGIES
----------------

  NO   OCC          E(Eh)            E(eV)
   0   2.0000     -88.968388     -2420.9529
   1   2.0000     -88.962023     -2420.7797
   2   2.0000     -10.334928      -281.2277
   3   2.0000     -10.329710      -281.0857
   4   2.0000     -10.323955      -280.9291
   5   2.0000     -10.316412      -280.7239
   6   2.0000     -10.310872      -280.5731
   7   2.0000     -10.303271      -280.3663
   8   2.0000     -10.302399      -280.3425
   9   2.0000     -10.298900      -280.2473
  10   2.0000     -10.297461      -280.2082
  11   2.0000     -10.285862      -279.8925
  12   2.0000     -10.283065      -279.8164
  13   2.0000     -10.279463      -279.7184
  14   2.0000     -10.275552      -279.6120
  15   2.0000     -10.272774      -279.5364
  16   2.0000      -8.081763      -219.9160
  17   2.0000      -8.077446      -219.7985
  18   2.0000      -6.040302      -164.3650
  19   2.0000      -6.036903      -164.2725
  20   2.0000      -6.036115      -164.2510
  21   2.0000      -6.032117      -164.1422
  22   2.0000      -6.031754      -164.1324
  23   2.0000      -6.028088      -164.0326
  24   2.0000      -1.004655       -27.3380
  25   2.0000      -0.977699       -26.6045
  26   2.0000      -0.920252       -25.0413
  27   2.0000      -0.915286       -24.9062
  28   2.0000      -0.871028       -23.7019
  29   2.0000      -0.853287       -23.2191
  30   2.0000      -0.843259       -22.9463
  31   2.0000      -0.817875       -22.2555
  32   2.0000      -0.785406       -21.3720
  33   2.0000      -0.772826       -21.0297
  34   2.0000      -0.705118       -19.1872
  35   2.0000      -0.691640       -18.8205
  36   2.0000      -0.683128       -18.5889
  37   2.0000      -0.663890       -18.0654
  38   2.0000      -0.636294       -17.3144
  39   2.0000      -0.619024       -16.8445
  40   2.0000      -0.599399       -16.3105
  41   2.0000      -0.571736       -15.5577
  42   2.0000      -0.563967       -15.3463
  43   2.0000      -0.560348       -15.2479
  44   2.0000      -0.545593       -14.8463
  45   2.0000      -0.530076       -14.4241
  46   2.0000      -0.517012       -14.0686
  47   2.0000      -0.510479       -13.8908
  48   2.0000      -0.500934       -13.6311
  49   2.0000      -0.496444       -13.5089
  50   2.0000      -0.492461       -13.4005
  51   2.0000      -0.486755       -13.2453
  52   2.0000      -0.474981       -12.9249
  53   2.0000      -0.462018       -12.5722
  54   2.0000      -0.456516       -12.4224
  55   2.0000      -0.450625       -12.2621
  56   2.0000      -0.441988       -12.0271
  57   2.0000      -0.436697       -11.8831
  58   2.0000      -0.432427       -11.7669
  59   2.0000      -0.427169       -11.6238
  60   2.0000      -0.421461       -11.4685
  61   2.0000      -0.407545       -11.0899
  62   2.0000      -0.399075       -10.8594
  63   2.0000      -0.352679        -9.5969
  64   2.0000      -0.334311        -9.0971
  65   2.0000      -0.322765        -8.7829
  66   2.0000      -0.291880        -7.9425
  67   0.0000       0.024588         0.6691
  68   0.0000       0.069703         1.8967
  69   0.0000       0.094544         2.5727
  70   0.0000       0.116745         3.1768
  71   0.0000       0.132052         3.5933

MULLIKEN ATOMIC CHARGES
-----------------------
   0 S :    0.095609
   1 C :   -0.113234
   2 C :   -0.121560
   3 C :   -0.002222
   4 C :   -0.138983
   5 H :    0.020608
   6 C :    0.144175
   7 H :    0.007371
   8 H :    0.017133
   9 C :   -0.132796
  10 H :    0.041008
  11 H :    0.020720
  12 C :   -0.045360
  13 H :    0.037347
  14 H :    0.032940
  15 H :    0.036106
  16 S :    0.084503
  17 C :   -0.077317
  18 C :   -0.007998
  19 C :   -0.033565
  20 C :   -0.146598
  21 H :    0.018848
  22 C :    0.046266
  23 H :    0.023970
  24 H :    0.018764
  25 C :   -0.087708
  26 H :    0.048879
  27 H :    0.017834
  28 C :   -0.031660
  29 H :    0.032727
  30 H :    0.045944
  31 H :    0.028538
  32 H :    0.065290
  33 H :    0.054423
Sum of atomic charges:   -0.0000000

LOEWDIN ATOMIC CHARGES
----------------------
   0 S :    0.408496
   1 C :   -0.223403
   2 C :   -0.059290
   3 C :   -0.078531
   4 C :   -0.198346
   5 H :    0.033894
   6 C :   -0.029392
   7 H :    0.029218
   8 H :    0.030118
   9 C :   -0.049066
  10 H :    0.028959
  11 H :    0.024957
  12 C :   -0.064435
  13 H :    0.022853
  14 H :    0.027758
  15 H :    0.027756
  16 S :    0.352163
  17 C :   -0.152015
  18 C :   -0.061372
  19 C :   -0.043233
  20 C :   -0.172594
  21 H :    0.033493
  22 C :   -0.037711
  23 H :    0.035059
  24 H :    0.025983
  25 C :   -0.053594
  26 H :    0.034206
  27 H :    0.017188
  28 C :   -0.060768
  29 H :    0.028828
  30 H :    0.036257
  31 H :    0.021918
  32 H :    0.040834
  33 H :    0.023814

  Mayer bond orders larger than 0.100000
B(  0-S ,  1-C ) :   1.1284 B(  0-S ,  4-C ) :   1.1495 B(  1-C ,  2-C ) :   1.6289
B(  1-C , 32-H ) :   0.9576 B(  2-C ,  3-C ) :   1.2103 B(  2-C ,  6-C ) :   1.0315
B(  3-C ,  4-C ) :   1.5839 B(  3-C ,  5-H ) :   0.9911 B(  4-C , 20-C ) :   1.0455
B(  6-C ,  7-H ) :   0.9404 B(  6-C ,  8-H ) :   0.9181 B(  6-C ,  9-C ) :   1.0985
B(  9-C , 10-H ) :   0.9493 B(  9-C , 11-H ) :   0.9562 B(  9-C , 12-C ) :   1.0651
B( 12-C , 13-H ) :   0.9780 B( 12-C , 14-H ) :   0.9762 B( 12-C , 15-H ) :   0.9723
B( 16-S , 17-C ) :   1.1194 B( 16-S , 20-C ) :   1.1096 B( 17-C , 18-C ) :   1.6718
B( 17-C , 33-H ) :   0.9655 B( 18-C , 19-C ) :   1.1779 B( 18-C , 21-H ) :   0.9919
B( 19-C , 20-C ) :   1.6534 B( 19-C , 22-C ) :   1.0301 B( 22-C , 23-H ) :   0.9343
B( 22-C , 24-H ) :   0.9302 B( 22-C , 25-C ) :   1.0604 B( 25-C , 26-H ) :   0.9491
B( 25-C , 27-H ) :   0.9500 B( 25-C , 28-C ) :   1.0899 B( 28-C , 29-H ) :   0.9719
B( 28-C , 30-H ) :   0.9694 B( 28-C , 31-H ) :   0.9723

Dispersion correction           -0.014790660
FINAL SINGLE POINT ENERGY     -1339.866272804142

DIPOLE MOMENT
-------------
                                X             Y             Z
Electronic contribution:     -2.43388     -20.58825      16.37212
Nuclear contribution   :      2.22795      21.14708     -16.69039
                        -----------------------------------------
Total Dipole Moment    :     -0.20593       0.55883      -0.31827
                        -----------------------------------------
Magnitude (a.u.)       :      0.67527
Magnitude (Debye)      :      1.71640

Rotational constants in cm-1:     0.018081     0.009265     0.007453
Rotational constants in MHz :   542.040210   277.743749   223.438058

                             ****ORCA TERMINATED NORMALLY****
TOTAL RUN TIME: 0 days 0 hours 0 minutes 35 seconds 992 msec
