                         Program Version 4.2.1 -  RELEASE  -
|  1> ! wB97X-D3 SP def2-SVP
|  2> %pal
|  3> nprocs 16
|  4> end
|  5>
|  6> * xyz 0 1
|  7> S 	 -3.10626 	 -6.6181 	 82.1214
|  8> C 	 -3.16765 	 -8.30544 	 82.6077
|  9> C 	 -4.38951 	 -8.84269 	 82.2792
| 10> C 	 -5.2367 	 -7.911 	 81.6095
| 11> C 	 -4.58707 	 -6.72458 	 81.2623
| 12> H 	 -6.20328 	 -8.01978 	 81.2949
| 13> C 	 -4.68649 	 -10.2898 	 82.7139
| 14> H 	 -4.75196 	 -10.2526 	 83.7655
| 15> H 	 -3.79295 	 -10.8874 	 82.4902
| 16> C 	 -5.91484 	 -10.9375 	 82.0266
| 17> H 	 -6.64076 	 -10.1355 	 81.6239
| 18> H 	 -5.63113 	 -11.4967 	 81.1415
| 19> C 	 -6.75335 	 -11.8434 	 82.8724
| 20> H 	 -6.36836 	 -12.8444 	 82.9817
| 21> H 	 -6.84104 	 -11.314 	 83.7926
| 22> H 	 -7.7387 	 -11.9619 	 82.3831
| 23> S 	 -4.95768 	 -3.95108 	 81.1281
| 24> C 	 -5.98973 	 -3.29187 	 79.9154
| 25> C 	 -6.56523 	 -4.28934 	 79.1959
| 26> C 	 -6.03257 	 -5.63221 	 79.4996
| 27> C 	 -5.17346 	 -5.60127 	 80.5521
| 28> H 	 -7.21238 	 -4.10688 	 78.3769
| 29> C 	 -6.66538 	 -6.79099 	 78.8902
| 30> H 	 -7.52658 	 -7.10106 	 79.3897
| 31> H 	 -6.10018 	 -7.70165 	 78.9562
| 32> C 	 -7.00273 	 -6.71005 	 77.3947
| 33> H 	 -6.20453 	 -6.44514 	 76.7448
| 34> H 	 -7.69884 	 -6.01288 	 77.1081
| 35> C 	 -7.40131 	 -8.0024 	 76.8717
| 36> H 	 -7.71097 	 -7.90876 	 75.8184
| 37> H 	 -8.11505 	 -8.48876 	 77.4578
| 38> H 	 -6.47348 	 -8.56755 	 76.8081
| 39> H 	 -2.61259 	 -8.7742 	 83.4093
| 40> H 	 -6.24593 	 -2.18408 	 79.7448
| 41> *
| 42>
| 43>                          ****END OF INPUT****

CARTESIAN COORDINATES (ANGSTROEM)
---------------------------------
  S     -3.106260   -6.618100   82.121400
  C     -3.167650   -8.305440   82.607700
  C     -4.389510   -8.842690   82.279200
  C     -5.236700   -7.911000   81.609500
  C     -4.587070   -6.724580   81.262300
  H     -6.203280   -8.019780   81.294900
  C     -4.686490  -10.289800   82.713900
  H     -4.751960  -10.252600   83.765500
  H     -3.792950  -10.887400   82.490200
  C     -5.914840  -10.937500   82.026600
  H     -6.640760  -10.135500   81.623900
  H     -5.631130  -11.496700   81.141500
  C     -6.753350  -11.843400   82.872400
  H     -6.368360  -12.844400   82.981700
  H     -6.841040  -11.314000   83.792600
  H     -7.738700  -11.961900   82.383100
  S     -4.957680   -3.951080   81.128100
  C     -5.989730   -3.291870   79.915400
  C     -6.565230   -4.289340   79.195900
  C     -6.032570   -5.632210   79.499600
  C     -5.173460   -5.601270   80.552100
  H     -7.212380   -4.106880   78.376900
  C     -6.665380   -6.790990   78.890200
  H     -7.526580   -7.101060   79.389700
  H     -6.100180   -7.701650   78.956200
  C     -7.002730   -6.710050   77.394700
  H     -6.204530   -6.445140   76.744800
  H     -7.698840   -6.012880   77.108100
  C     -7.401310   -8.002400   76.871700
  H     -7.710970   -7.908760   75.818400
  H     -8.115050   -8.488760   77.457800
  H     -6.473480   -8.567550   76.808100
  H     -2.612590   -8.774200   83.409300
  H     -6.245930   -2.184080   79.744800

 Total Charge           Charge          ....    0
 Multiplicity           Mult            ....    1
 Number of Electrons    NEL             ....  134
 Basis Dimension        Dim             ....  322

ORBITAL ENERGIES
----------------

  NO   OCC          E(Eh)            E(eV)
   0   2.0000     -88.964722     -2420.8532
   1   2.0000     -88.963172     -2420.8110
   2   2.0000     -10.328420      -281.0506
   3   2.0000     -10.324956      -280.9563
   4   2.0000     -10.321417      -280.8600
   5   2.0000     -10.307666      -280.4858
   6   2.0000     -10.301963      -280.3307
   7   2.0000     -10.299701      -280.2691
   8   2.0000     -10.293925      -280.1119
   9   2.0000     -10.290101      -280.0079
  10   2.0000     -10.289910      -280.0027
  11   2.0000     -10.289769      -279.9988
  12   2.0000     -10.282598      -279.8037
  13   2.0000     -10.274373      -279.5799
  14   2.0000     -10.268006      -279.4066
  15   2.0000     -10.267488      -279.3926
  16   2.0000      -8.079843      -219.8637
  17   2.0000      -8.078462      -219.8261
  18   2.0000      -6.038262      -164.3095
  19   2.0000      -6.037198      -164.2805
  20   2.0000      -6.034328      -164.2024
  21   2.0000      -6.032896      -164.1634
  22   2.0000      -6.030643      -164.1021
  23   2.0000      -6.028935      -164.0557
  24   2.0000      -1.011601       -27.5271
  25   2.0000      -0.988202       -26.8903
  26   2.0000      -0.928462       -25.2647
  27   2.0000      -0.913432       -24.8558
  28   2.0000      -0.878007       -23.8918
  29   2.0000      -0.863675       -23.5018
  30   2.0000      -0.845627       -23.0107
  31   2.0000      -0.820835       -22.3361
  32   2.0000      -0.787131       -21.4189
  33   2.0000      -0.774809       -21.0836
  34   2.0000      -0.712216       -19.3804
  35   2.0000      -0.707066       -19.2402
  36   2.0000      -0.685932       -18.6652
  37   2.0000      -0.658359       -17.9149
  38   2.0000      -0.641935       -17.4679
  39   2.0000      -0.625782       -17.0284
  40   2.0000      -0.607828       -16.5399
  41   2.0000      -0.579739       -15.7755
  42   2.0000      -0.571649       -15.5553
  43   2.0000      -0.567056       -15.4304
  44   2.0000      -0.540078       -14.6963
  45   2.0000      -0.528788       -14.3891
  46   2.0000      -0.524066       -14.2605
  47   2.0000      -0.511324       -13.9138
  48   2.0000      -0.505399       -13.7526
  49   2.0000      -0.504690       -13.7333
  50   2.0000      -0.501490       -13.6462
  51   2.0000      -0.487844       -13.2749
  52   2.0000      -0.472553       -12.8588
  53   2.0000      -0.463493       -12.6123
  54   2.0000      -0.461888       -12.5686
  55   2.0000      -0.454154       -12.3581
  56   2.0000      -0.451076       -12.2744
  57   2.0000      -0.436637       -11.8815
  58   2.0000      -0.433706       -11.8017
  59   2.0000      -0.424988       -11.5645
  60   2.0000      -0.414260       -11.2726
  61   2.0000      -0.413814       -11.2605
  62   2.0000      -0.412072       -11.2130
  63   2.0000      -0.353935        -9.6311
  64   2.0000      -0.329577        -8.9683
  65   2.0000      -0.326082        -8.8731
  66   2.0000      -0.291926        -7.9437
  67   0.0000       0.024615         0.6698
  68   0.0000       0.082699         2.2504
  69   0.0000       0.109413         2.9773
  70   0.0000       0.120282         3.2730
  71   0.0000       0.133422         3.6306

MULLIKEN ATOMIC CHARGES
-----------------------
   0 S :    0.106295
   1 C :   -0.107232
   2 C :   -0.110762
   3 C :    0.037914
   4 C :   -0.152506
   5 H :   -0.031389
   6 C :    0.096798
   7 H :    0.026516
   8 H :    0.041887
   9 C :   -0.113868
  10 H :    0.035706
  11 H :    0.030794
  12 C :   -0.036200
  13 H :    0.034098
  14 H :    0.026828
  15 H :    0.032803
  16 S :    0.100682
  17 C :   -0.104480
  18 C :   -0.022819
  19 C :   -0.026448
  20 C :   -0.113250
  21 H :    0.010168
  22 C :    0.049742
  23 H :    0.027389
  24 H :    0.009942
  25 C :   -0.037275
  26 H :    0.010171
  27 H :   -0.000456
  28 C :   -0.030388
  29 H :    0.028082
  30 H :    0.015685
  31 H :    0.025530
  32 H :    0.051671
  33 H :    0.088375
Sum of atomic charges:   -0.0000000

LOEWDIN ATOMIC CHARGES
----------------------
   0 S :    0.419466
   1 C :   -0.208350
   2 C :   -0.055356
   3 C :   -0.059986
   4 C :   -0.192111
   5 H :    0.010714
   6 C :   -0.028369
   7 H :    0.025446
   8 H :    0.039155
   9 C :   -0.049149
  10 H :    0.030951
  11 H :    0.023377
  12 C :   -0.062140
  13 H :    0.021911
  14 H :    0.020963
  15 H :    0.031426
  16 S :    0.399532
  17 C :   -0.200002
  18 C :   -0.068453
  19 C :   -0.052315
  20 C :   -0.192903
  21 H :    0.023241
  22 C :   -0.032250
  23 H :    0.028395
  24 H :    0.031773
  25 C :   -0.039065
  26 H :    0.025547
  27 H :    0.007118
  28 C :   -0.053740
  29 H :    0.031144
  30 H :    0.011985
  31 H :    0.027048
  32 H :    0.031452
  33 H :    0.053546

  Mayer bond orders larger than 0.100000
B(  0-S ,  1-C ) :   1.1370 B(  0-S ,  4-C ) :   1.1719 B(  1-C ,  2-C ) :   1.6112
B(  1-C ,  4-C ) :   0.1017 B(  1-C , 32-H ) :   0.9648 B(  2-C ,  3-C ) :   1.2619
B(  2-C ,  6-C ) :   0.9961 B(  3-C ,  4-C ) :   1.5228 B(  3-C ,  5-H ) :   1.0051
B(  4-C , 20-C ) :   1.0677 B(  6-C ,  7-H ) :   0.9429 B(  6-C ,  8-H ) :   0.9451
B(  6-C ,  9-C ) :   1.0480 B(  9-C , 10-H ) :   0.9639 B(  9-C , 11-H ) :   0.9550
B(  9-C , 12-C ) :   1.0865 B( 12-C , 13-H ) :   0.9750 B( 12-C , 14-H ) :   0.9790
B( 12-C , 15-H ) :   0.9730 B( 16-S , 17-C ) :   1.1411 B( 16-S , 20-C ) :   1.1129
B( 17-C , 18-C ) :   1.6418 B( 17-C , 33-H ) :   0.9547 B( 18-C , 19-C ) :   1.2034
B( 18-C , 21-H ) :   0.9914 B( 19-C , 20-C ) :   1.6264 B( 19-C , 22-C ) :   1.0789
B( 22-C , 23-H ) :   0.9176 B( 22-C , 24-H ) :   0.9231 B( 22-C , 25-C ) :   1.0523
B( 25-C , 26-H ) :   0.9509 B( 25-C , 27-H ) :   0.9435 B( 25-C , 28-C ) :   1.1071
B( 28-C , 29-H ) :   0.9666 B( 28-C , 30-H ) :   0.9708 B( 28-C , 31-H ) :   0.9741

Dispersion correction           -0.013314814
FINAL SINGLE POINT ENERGY     -1339.850259185632

DIPOLE MOMENT
-------------
                                X             Y             Z
Electronic contribution:     16.67079      25.75729      10.24281
Nuclear contribution   :    -17.28193     -26.25072     -10.44215
                        -----------------------------------------
Total Dipole Moment    :     -0.61114      -0.49343      -0.19934
                        -----------------------------------------
Magnitude (a.u.)       :      0.81037
Magnitude (Debye)      :      2.05981

Rotational constants in cm-1:     0.016150     0.009340     0.006443
Rotational constants in MHz :   484.172598   280.001281   193.165059

                             ****ORCA TERMINATED NORMALLY****
TOTAL RUN TIME: 0 days 0 hours 0 minutes 33 seconds 539 msec
