                         Program Version 4.2.1 -  RELEASE  -
|  1> ! wB97X-D3 SP def2-SVP
|  2> %pal
|  3> nprocs 16
|  4> end
|  5>
|  6> * xyz 0 1
|  7> S 	 -39.1314 	 2.98274 	 99.0002
|  8> C 	 -37.6208 	 3.62854 	 98.4525
|  9> C 	 -37.4509 	 3.42285 	 97.0745
| 10> C 	 -38.5085 	 2.63086 	 96.5223
| 11> C 	 -39.4608 	 2.27991 	 97.4586
| 12> H 	 -38.5625 	 2.34763 	 95.5136
| 13> C 	 -36.3774 	 4.02269 	 96.1994
| 14> H 	 -37.0371 	 4.33927 	 95.4118
| 15> H 	 -35.5919 	 3.41342 	 95.8098
| 16> C 	 -35.6355 	 5.26396 	 96.8392
| 17> H 	 -36.3439 	 5.99017 	 97.1939
| 18> H 	 -35.3008 	 5.00145 	 97.8263
| 19> C 	 -34.5782 	 5.92229 	 95.9041
| 20> H 	 -34.9066 	 6.28016 	 94.9379
| 21> H 	 -34.1789 	 6.88959 	 96.1488
| 22> H 	 -33.8503 	 5.18719 	 95.6898
| 23> S 	 -42.1888 	 2.3218 	 96.857
| 24> C 	 -42.9593 	 0.731828 	 96.8674
| 25> C 	 -42.0722 	 -0.313468 	 96.6436
| 26> C 	 -40.6693 	 0.0638259 	 96.8851
| 27> C 	 -40.6582 	 1.44076 	 97.2161
| 28> H 	 -42.4155 	 -1.29825 	 96.3528
| 29> C 	 -39.4988 	 -0.927844 	 96.8862
| 30> H 	 -39.8627 	 -1.87641 	 97.1612
| 31> H 	 -38.7145 	 -0.658503 	 97.6411
| 32> C 	 -38.7727 	 -0.979784 	 95.5651
| 33> H 	 -38.2416 	 -0.0355128 	 95.4055
| 34> H 	 -39.5247 	 -1.08217 	 94.7974
| 35> C 	 -37.805 	 -2.18347 	 95.4835
| 36> H 	 -37.2136 	 -2.35627 	 96.4274
| 37> H 	 -37.2261 	 -2.19447 	 94.5825
| 38> H 	 -38.348 	 -3.05794 	 95.3525
| 39> H 	 -36.9915 	 4.16652 	 99.1346
| 40> H 	 -44.0351 	 0.58047 	 96.6484
| 41> *
| 42>
| 43>                          ****END OF INPUT****

CARTESIAN COORDINATES (ANGSTROEM)
---------------------------------
  S    -39.131400    2.982740   99.000200
  C    -37.620800    3.628540   98.452500
  C    -37.450900    3.422850   97.074500
  C    -38.508500    2.630860   96.522300
  C    -39.460800    2.279910   97.458600
  H    -38.562500    2.347630   95.513600
  C    -36.377400    4.022690   96.199400
  H    -37.037100    4.339270   95.411800
  H    -35.591900    3.413420   95.809800
  C    -35.635500    5.263960   96.839200
  H    -36.343900    5.990170   97.193900
  H    -35.300800    5.001450   97.826300
  C    -34.578200    5.922290   95.904100
  H    -34.906600    6.280160   94.937900
  H    -34.178900    6.889590   96.148800
  H    -33.850300    5.187190   95.689800
  S    -42.188800    2.321800   96.857000
  C    -42.959300    0.731828   96.867400
  C    -42.072200   -0.313468   96.643600
  C    -40.669300    0.063826   96.885100
  C    -40.658200    1.440760   97.216100
  H    -42.415500   -1.298250   96.352800
  C    -39.498800   -0.927844   96.886200
  H    -39.862700   -1.876410   97.161200
  H    -38.714500   -0.658503   97.641100
  C    -38.772700   -0.979784   95.565100
  H    -38.241600   -0.035513   95.405500
  H    -39.524700   -1.082170   94.797400
  C    -37.805000   -2.183470   95.483500
  H    -37.213600   -2.356270   96.427400
  H    -37.226100   -2.194470   94.582500
  H    -38.348000   -3.057940   95.352500
  H    -36.991500    4.166520   99.134600
  H    -44.035100    0.580470   96.648400

 Total Charge           Charge          ....    0
 Multiplicity           Mult            ....    1
 Number of Electrons    NEL             ....  134
 Basis Dimension        Dim             ....  322

ORBITAL ENERGIES
----------------

  NO   OCC          E(Eh)            E(eV)
   0   2.0000     -88.967123     -2420.9185
   1   2.0000     -88.963726     -2420.8261
   2   2.0000     -10.330668      -281.1118
   3   2.0000     -10.324299      -280.9385
   4   2.0000     -10.319602      -280.8106
   5   2.0000     -10.313541      -280.6457
   6   2.0000     -10.312586      -280.6197
   7   2.0000     -10.303493      -280.3723
   8   2.0000     -10.299700      -280.2691
   9   2.0000     -10.292543      -280.0743
  10   2.0000     -10.292021      -280.0601
  11   2.0000     -10.289454      -279.9903
  12   2.0000     -10.288514      -279.9647
  13   2.0000     -10.284443      -279.8539
  14   2.0000     -10.276473      -279.6371
  15   2.0000     -10.274989      -279.5967
  16   2.0000      -8.080897      -219.8924
  17   2.0000      -8.079225      -219.8469
  18   2.0000      -6.039384      -164.3400
  19   2.0000      -6.037540      -164.2898
  20   2.0000      -6.036148      -164.2519
  21   2.0000      -6.033521      -164.1804
  22   2.0000      -6.031127      -164.1153
  23   2.0000      -6.030258      -164.0917
  24   2.0000      -1.002058       -27.2674
  25   2.0000      -0.976428       -26.5700
  26   2.0000      -0.911946       -24.8153
  27   2.0000      -0.907009       -24.6810
  28   2.0000      -0.859728       -23.3944
  29   2.0000      -0.852449       -23.1963
  30   2.0000      -0.846606       -23.0373
  31   2.0000      -0.809899       -22.0385
  32   2.0000      -0.786316       -21.3967
  33   2.0000      -0.769757       -20.9462
  34   2.0000      -0.722399       -19.6575
  35   2.0000      -0.702881       -19.1264
  36   2.0000      -0.685042       -18.6409
  37   2.0000      -0.655049       -17.8248
  38   2.0000      -0.647831       -17.6284
  39   2.0000      -0.616438       -16.7741
  40   2.0000      -0.596878       -16.2419
  41   2.0000      -0.571074       -15.5397
  42   2.0000      -0.564968       -15.3736
  43   2.0000      -0.557477       -15.1697
  44   2.0000      -0.525505       -14.2997
  45   2.0000      -0.521164       -14.1816
  46   2.0000      -0.517133       -14.0719
  47   2.0000      -0.511584       -13.9209
  48   2.0000      -0.505400       -13.7526
  49   2.0000      -0.502606       -13.6766
  50   2.0000      -0.485209       -13.2032
  51   2.0000      -0.474030       -12.8990
  52   2.0000      -0.468463       -12.7475
  53   2.0000      -0.458817       -12.4850
  54   2.0000      -0.457186       -12.4407
  55   2.0000      -0.454384       -12.3644
  56   2.0000      -0.453363       -12.3366
  57   2.0000      -0.438434       -11.9304
  58   2.0000      -0.430121       -11.7042
  59   2.0000      -0.427482       -11.6324
  60   2.0000      -0.424795       -11.5593
  61   2.0000      -0.419448       -11.4138
  62   2.0000      -0.411219       -11.1898
  63   2.0000      -0.334642        -9.1061
  64   2.0000      -0.325942        -8.8693
  65   2.0000      -0.320295        -8.7157
  66   2.0000      -0.304660        -8.2902
  67   0.0000       0.035297         0.9605
  68   0.0000       0.057670         1.5693
  69   0.0000       0.093966         2.5569
  70   0.0000       0.121881         3.3166
  71   0.0000       0.132427         3.6035

MULLIKEN ATOMIC CHARGES
-----------------------
   0 S :    0.124676
   1 C :   -0.138238
   2 C :   -0.088640
   3 C :    0.055463
   4 C :   -0.178834
   5 H :   -0.000406
   6 C :    0.080231
   7 H :    0.032024
   8 H :    0.038955
   9 C :   -0.082053
  10 H :    0.012442
  11 H :    0.019963
  12 C :   -0.012152
  13 H :    0.013334
  14 H :    0.024504
  15 H :    0.026819
  16 S :    0.105753
  17 C :   -0.082151
  18 C :   -0.048668
  19 C :   -0.015892
  20 C :   -0.183956
  21 H :    0.020347
  22 C :    0.091253
  23 H :    0.005842
  24 H :    0.042688
  25 C :   -0.083236
  26 H :    0.033169
  27 H :    0.019981
  28 C :   -0.014108
  29 H :    0.039441
  30 H :    0.027856
  31 H :    0.004587
  32 H :    0.044926
  33 H :    0.064083
Sum of atomic charges:   -0.0000000

LOEWDIN ATOMIC CHARGES
----------------------
   0 S :    0.429433
   1 C :   -0.206439
   2 C :   -0.059404
   3 C :   -0.057690
   4 C :   -0.209839
   5 H :    0.023043
   6 C :   -0.025946
   7 H :    0.036499
   8 H :    0.028240
   9 C :   -0.040734
  10 H :    0.020901
  11 H :    0.019291
  12 C :   -0.069088
  13 H :    0.027798
  14 H :    0.029369
  15 H :    0.020604
  16 S :    0.374782
  17 C :   -0.185770
  18 C :   -0.065950
  19 C :   -0.038782
  20 C :   -0.185869
  21 H :    0.028734
  22 C :   -0.026858
  23 H :    0.021091
  24 H :    0.041862
  25 C :   -0.036077
  26 H :    0.023482
  27 H :    0.020479
  28 C :   -0.064829
  29 H :    0.033020
  30 H :    0.025959
  31 H :    0.015514
  32 H :    0.021122
  33 H :    0.032054

  Mayer bond orders larger than 0.100000
B(  0-S ,  1-C ) :   1.1528 B(  0-S ,  4-C ) :   1.1757 B(  1-C ,  2-C ) :   1.5776
B(  1-C , 32-H ) :   0.9731 B(  2-C ,  3-C ) :   1.2642 B(  2-C ,  6-C ) :   0.9951
B(  3-C ,  4-C ) :   1.5640 B(  3-C ,  5-H ) :   0.9999 B(  4-C , 20-C ) :   1.0041
B(  6-C ,  7-H ) :   0.9420 B(  6-C ,  8-H ) :   0.9431 B(  6-C ,  9-C ) :   1.0716
B(  9-C , 10-H ) :   0.9552 B(  9-C , 11-H ) :   0.9519 B(  9-C , 12-C ) :   1.0694
B( 12-C , 13-H ) :   0.9716 B( 12-C , 14-H ) :   0.9714 B( 12-C , 15-H ) :   0.9780
B( 16-S , 17-C ) :   1.1240 B( 16-S , 20-C ) :   1.1428 B( 17-C , 18-C ) :   1.6604
B( 17-C , 33-H ) :   0.9603 B( 18-C , 19-C ) :   1.1966 B( 18-C , 21-H ) :   0.9853
B( 19-C , 20-C ) :   1.6227 B( 19-C , 22-C ) :   1.0402 B( 22-C , 23-H ) :   0.9393
B( 22-C , 24-H ) :   0.9290 B( 22-C , 25-C ) :   1.0653 B( 25-C , 26-H ) :   0.9519
B( 25-C , 27-H ) :   0.9561 B( 25-C , 28-C ) :   1.0826 B( 28-C , 29-H ) :   0.9724
B( 28-C , 30-H ) :   0.9715 B( 28-C , 31-H ) :   0.9705

Dispersion correction           -0.014106289
FINAL SINGLE POINT ENERGY     -1339.852474927357

DIPOLE MOMENT
-------------
                                X             Y             Z
Electronic contribution:    -24.28389       3.97857      12.45506
Nuclear contribution   :     24.66541      -4.22757     -12.97989
                        -----------------------------------------
Total Dipole Moment    :      0.38152      -0.24900      -0.52483
                        -----------------------------------------
Magnitude (a.u.)       :      0.69499
Magnitude (Debye)      :      1.76651

Rotational constants in cm-1:     0.018819     0.007835     0.006310
Rotational constants in MHz :   564.180495   234.899886   189.156680

                             ****ORCA TERMINATED NORMALLY****
TOTAL RUN TIME: 0 days 0 hours 0 minutes 29 seconds 265 msec
