                         Program Version 4.2.1 -  RELEASE  -
|  1> ! wB97X-D3 SP def2-SVP
|  2> %pal
|  3> nprocs 16
|  4> end
|  5>
|  6> * xyz 0 1
|  7> S 	 13.2981 	 -7.66599 	 80.0256
|  8> C 	 13.0077 	 -6.66721 	 78.65
|  9> C 	 13.8874 	 -6.90899 	 77.5789
| 10> C 	 14.6983 	 -8.05838 	 77.8757
| 11> C 	 14.4167 	 -8.56824 	 79.0564
| 12> H 	 15.4814 	 -8.49727 	 77.3053
| 13> C 	 13.803 	 -6.18018 	 76.2467
| 14> H 	 12.8779 	 -6.5116 	 75.8403
| 15> H 	 14.4375 	 -6.65421 	 75.547
| 16> C 	 13.9107 	 -4.67836 	 76.1881
| 17> H 	 13.6589 	 -4.3541 	 75.1819
| 18> H 	 13.327 	 -4.16599 	 76.9591
| 19> C 	 15.4124 	 -4.24619 	 76.4476
| 20> H 	 16.1614 	 -4.70977 	 75.773
| 21> H 	 15.6115 	 -3.17811 	 76.4435
| 22> H 	 15.79 	 -4.57747 	 77.4424
| 23> S 	 14.4301 	 -11.0732 	 80.303
| 24> C 	 15.9763 	 -11.8426 	 80.4316
| 25> C 	 17.0356 	 -11.1718 	 79.9172
| 26> C 	 16.6088 	 -9.88535 	 79.5088
| 27> C 	 15.2135 	 -9.6988 	 79.6025
| 28> H 	 18.0304 	 -11.5772 	 79.9148
| 29> C 	 17.6491 	 -8.88558 	 79.034
| 30> H 	 17.3095 	 -7.87638 	 78.9244
| 31> H 	 18.0236 	 -9.24141 	 78.056
| 32> C 	 18.8195 	 -8.71291 	 80.0375
| 33> H 	 19.212 	 -9.66734 	 80.481
| 34> H 	 18.3973 	 -8.12921 	 80.8065
| 35> C 	 19.9881 	 -8.00146 	 79.3729
| 36> H 	 20.8898 	 -8.20214 	 79.8948
| 37> H 	 19.8112 	 -6.98634 	 79.3587
| 38> H 	 20.0623 	 -8.30926 	 78.3371
| 39> H 	 12.3874 	 -5.82978 	 78.6074
| 40> H 	 16.1769 	 -12.8039 	 80.7856
| 41> *
| 42>
| 43>                          ****END OF INPUT****

CARTESIAN COORDINATES (ANGSTROEM)
---------------------------------
  S     13.298100   -7.665990   80.025600
  C     13.007700   -6.667210   78.650000
  C     13.887400   -6.908990   77.578900
  C     14.698300   -8.058380   77.875700
  C     14.416700   -8.568240   79.056400
  H     15.481400   -8.497270   77.305300
  C     13.803000   -6.180180   76.246700
  H     12.877900   -6.511600   75.840300
  H     14.437500   -6.654210   75.547000
  C     13.910700   -4.678360   76.188100
  H     13.658900   -4.354100   75.181900
  H     13.327000   -4.165990   76.959100
  C     15.412400   -4.246190   76.447600
  H     16.161400   -4.709770   75.773000
  H     15.611500   -3.178110   76.443500
  H     15.790000   -4.577470   77.442400
  S     14.430100  -11.073200   80.303000
  C     15.976300  -11.842600   80.431600
  C     17.035600  -11.171800   79.917200
  C     16.608800   -9.885350   79.508800
  C     15.213500   -9.698800   79.602500
  H     18.030400  -11.577200   79.914800
  C     17.649100   -8.885580   79.034000
  H     17.309500   -7.876380   78.924400
  H     18.023600   -9.241410   78.056000
  C     18.819500   -8.712910   80.037500
  H     19.212000   -9.667340   80.481000
  H     18.397300   -8.129210   80.806500
  C     19.988100   -8.001460   79.372900
  H     20.889800   -8.202140   79.894800
  H     19.811200   -6.986340   79.358700
  H     20.062300   -8.309260   78.337100
  H     12.387400   -5.829780   78.607400
  H     16.176900  -12.803900   80.785600

 Total Charge           Charge          ....    0
 Multiplicity           Mult            ....    1
 Number of Electrons    NEL             ....  134
 Basis Dimension        Dim             ....  322

ORBITAL ENERGIES
----------------

  NO   OCC          E(Eh)            E(eV)
   0   2.0000     -88.967264     -2420.9223
   1   2.0000     -88.966876     -2420.9118
   2   2.0000     -10.321951      -280.8746
   3   2.0000     -10.317533      -280.7543
   4   2.0000     -10.305682      -280.4319
   5   2.0000     -10.305589      -280.4293
   6   2.0000     -10.302162      -280.3361
   7   2.0000     -10.299774      -280.2711
   8   2.0000     -10.294432      -280.1257
   9   2.0000     -10.289114      -279.9810
  10   2.0000     -10.286543      -279.9111
  11   2.0000     -10.285302      -279.8773
  12   2.0000     -10.283295      -279.8227
  13   2.0000     -10.281329      -279.7692
  14   2.0000     -10.280776      -279.7541
  15   2.0000     -10.265427      -279.3365
  16   2.0000      -8.082678      -219.9409
  17   2.0000      -8.082177      -219.9272
  18   2.0000      -6.041028      -164.3847
  19   2.0000      -6.040507      -164.3705
  20   2.0000      -6.037331      -164.2841
  21   2.0000      -6.036771      -164.2689
  22   2.0000      -6.033344      -164.1756
  23   2.0000      -6.032947      -164.1648
  24   2.0000      -1.011260       -27.5178
  25   2.0000      -0.989277       -26.9196
  26   2.0000      -0.913033       -24.8449
  27   2.0000      -0.911500       -24.8032
  28   2.0000      -0.868886       -23.6436
  29   2.0000      -0.857051       -23.3215
  30   2.0000      -0.846995       -23.0479
  31   2.0000      -0.816526       -22.2188
  32   2.0000      -0.784081       -21.3359
  33   2.0000      -0.769836       -20.9483
  34   2.0000      -0.710655       -19.3379
  35   2.0000      -0.701276       -19.0827
  36   2.0000      -0.693063       -18.8592
  37   2.0000      -0.658739       -17.9252
  38   2.0000      -0.644204       -17.5297
  39   2.0000      -0.616972       -16.7887
  40   2.0000      -0.600822       -16.3492
  41   2.0000      -0.578863       -15.7517
  42   2.0000      -0.568922       -15.4812
  43   2.0000      -0.549970       -14.9654
  44   2.0000      -0.540585       -14.7101
  45   2.0000      -0.524262       -14.2659
  46   2.0000      -0.516286       -14.0489
  47   2.0000      -0.512689       -13.9510
  48   2.0000      -0.504717       -13.7341
  49   2.0000      -0.490704       -13.3527
  50   2.0000      -0.486120       -13.2280
  51   2.0000      -0.472989       -12.8707
  52   2.0000      -0.467845       -12.7307
  53   2.0000      -0.467181       -12.7126
  54   2.0000      -0.461810       -12.5665
  55   2.0000      -0.458172       -12.4675
  56   2.0000      -0.445897       -12.1335
  57   2.0000      -0.444123       -12.0852
  58   2.0000      -0.433378       -11.7928
  59   2.0000      -0.426383       -11.6025
  60   2.0000      -0.423597       -11.5267
  61   2.0000      -0.420810       -11.4508
  62   2.0000      -0.418115       -11.3775
  63   2.0000      -0.348866        -9.4931
  64   2.0000      -0.333428        -9.0730
  65   2.0000      -0.326699        -8.8899
  66   2.0000      -0.289521        -7.8783
  67   0.0000       0.038810         1.0561
  68   0.0000       0.075695         2.0598
  69   0.0000       0.114318         3.1107
  70   0.0000       0.122681         3.3383
  71   0.0000       0.134778         3.6675

MULLIKEN ATOMIC CHARGES
-----------------------
   0 S :    0.126166
   1 C :   -0.085813
   2 C :   -0.106226
   3 C :    0.009770
   4 C :   -0.113366
   5 H :    0.004222
   6 C :    0.094301
   7 H :    0.027570
   8 H :   -0.003848
   9 C :   -0.029223
  10 H :    0.033446
  11 H :    0.038537
  12 C :   -0.095829
  13 H :    0.025617
  14 H :    0.034435
  15 H :    0.031367
  16 S :    0.124438
  17 C :   -0.052377
  18 C :   -0.041565
  19 C :   -0.037664
  20 C :   -0.169862
  21 H :    0.018985
  22 C :    0.043179
  23 H :    0.027870
  24 H :    0.032175
  25 C :   -0.105300
  26 H :    0.032729
  27 H :    0.027074
  28 C :    0.015314
  29 H :    0.027626
  30 H :    0.011481
  31 H :    0.017382
  32 H :    0.015413
  33 H :    0.021976
Sum of atomic charges:    0.0000000

LOEWDIN ATOMIC CHARGES
----------------------
   0 S :    0.417986
   1 C :   -0.199236
   2 C :   -0.050288
   3 C :   -0.059429
   4 C :   -0.195972
   5 H :    0.032020
   6 C :   -0.035656
   7 H :    0.034611
   8 H :    0.025793
   9 C :   -0.029569
  10 H :    0.027840
  11 H :    0.026958
  12 C :   -0.077394
  13 H :    0.023726
  14 H :    0.021759
  15 H :    0.026542
  16 S :    0.420468
  17 C :   -0.179320
  18 C :   -0.065521
  19 C :   -0.055628
  20 C :   -0.211532
  21 H :    0.033257
  22 C :   -0.032191
  23 H :    0.027274
  24 H :    0.028023
  25 C :   -0.034257
  26 H :    0.022255
  27 H :    0.020680
  28 C :   -0.053660
  29 H :    0.023981
  30 H :    0.015618
  31 H :    0.023910
  32 H :    0.011081
  33 H :    0.015870

  Mayer bond orders larger than 0.100000
B(  0-S ,  1-C ) :   1.1368 B(  0-S ,  4-C ) :   1.1466 B(  1-C ,  2-C ) :   1.6204
B(  1-C , 32-H ) :   0.9734 B(  2-C ,  3-C ) :   1.2011 B(  2-C ,  6-C ) :   1.0087
B(  3-C ,  4-C ) :   1.6206 B(  3-C ,  5-H ) :   1.0093 B(  4-C , 20-C ) :   0.9991
B(  6-C ,  7-H ) :   0.9326 B(  6-C ,  8-H ) :   0.9355 B(  6-C ,  9-C ) :   1.0762
B(  9-C , 10-H ) :   0.9521 B(  9-C , 11-H ) :   0.9595 B(  9-C , 12-C ) :   1.0610
B( 12-C , 13-H ) :   0.9768 B( 12-C , 14-H ) :   0.9788 B( 12-C , 15-H ) :   0.9776
B( 16-S , 17-C ) :   1.1569 B( 16-S , 20-C ) :   1.1410 B( 17-C , 18-C ) :   1.6317
B( 17-C , 33-H ) :   0.9645 B( 18-C , 19-C ) :   1.2390 B( 18-C , 21-H ) :   0.9908
B( 19-C , 20-C ) :   1.5971 B( 19-C , 22-C ) :   1.0398 B( 22-C , 23-H ) :   0.9426
B( 22-C , 24-H ) :   0.9351 B( 22-C , 25-C ) :   1.0517 B( 25-C , 26-H ) :   0.9631
B( 25-C , 27-H ) :   0.9590 B( 25-C , 28-C ) :   1.0776 B( 28-C , 29-H ) :   0.9741
B( 28-C , 30-H ) :   0.9717 B( 28-C , 31-H ) :   0.9748

Dispersion correction           -0.014100095
FINAL SINGLE POINT ENERGY     -1339.868248298505

DIPOLE MOMENT
-------------
                                X             Y             Z
Electronic contribution:    -20.10420     -18.03188      13.99945
Nuclear contribution   :     20.60786      18.27613     -14.42328
                        -----------------------------------------
Total Dipole Moment    :      0.50366       0.24425      -0.42383
                        -----------------------------------------
Magnitude (a.u.)       :      0.70211
Magnitude (Debye)      :      1.78463

Rotational constants in cm-1:     0.017478     0.009129     0.006605
Rotational constants in MHz :   523.981146   273.692036   198.009233

                             ****ORCA TERMINATED NORMALLY****
TOTAL RUN TIME: 0 days 0 hours 0 minutes 30 seconds 513 msec
