                         Program Version 4.2.1 -  RELEASE  -
|  1> ! wB97X-D3 SP def2-SVP
|  2> %pal
|  3> nprocs 16
|  4> end
|  5>
|  6> * xyz 0 1
|  7> S 	 1.59314 	 -18.2801 	 79.5325
|  8> C 	 0.962701 	 -18.0186 	 81.092
|  9> C 	 0.943033 	 -16.6917 	 81.4414
| 10> C 	 1.29466 	 -15.8622 	 80.2804
| 11> C 	 1.64826 	 -16.5757 	 79.1659
| 12> H 	 1.2632 	 -14.7807 	 80.249
| 13> C 	 0.50437 	 -16.2153 	 82.8133
| 14> H 	 1.43421 	 -15.8154 	 83.1968
| 15> H 	 0.177994 	 -17.1106 	 83.3462
| 16> C 	 -0.642364 	 -15.236 	 82.7943
| 17> H 	 -0.359368 	 -14.2539 	 82.309
| 18> H 	 -1.37352 	 -15.7113 	 82.1491
| 19> C 	 -1.34395 	 -15.024 	 84.1731
| 20> H 	 -0.621574 	 -14.6598 	 84.8844
| 21> H 	 -2.26672 	 -14.4826 	 84.1545
| 22> H 	 -1.61379 	 -15.936 	 84.7091
| 23> S 	 0.907987 	 -15.6433 	 76.7422
| 24> C 	 1.9988 	 -14.8429 	 75.6411
| 25> C 	 3.28039 	 -15.064 	 76.0902
| 26> C 	 3.36328 	 -15.6887 	 77.3992
| 27> C 	 2.10821 	 -16.1092 	 77.8952
| 28> H 	 4.15116 	 -14.7498 	 75.4811
| 29> C 	 4.6397 	 -15.8328 	 78.2566
| 30> H 	 4.39118 	 -16.4637 	 79.0283
| 31> H 	 4.80908 	 -14.8638 	 78.6962
| 32> C 	 5.82032 	 -16.357 	 77.4904
| 33> H 	 6.16958 	 -15.7198 	 76.6824
| 34> H 	 5.63883 	 -17.3696 	 77.0568
| 35> C 	 6.92396 	 -16.417 	 78.5048
| 36> H 	 7.40903 	 -15.4768 	 78.7105
| 37> H 	 7.6695 	 -17.0816 	 78.0838
| 38> H 	 6.70249 	 -16.8636 	 79.4475
| 39> H 	 0.646372 	 -18.7554 	 81.8167
| 40> H 	 1.8147 	 -14.4932 	 74.6759
| 41> *
| 42>
| 43>                          ****END OF INPUT****

CARTESIAN COORDINATES (ANGSTROEM)
---------------------------------
  S      1.593140  -18.280100   79.532500
  C      0.962701  -18.018600   81.092000
  C      0.943033  -16.691700   81.441400
  C      1.294660  -15.862200   80.280400
  C      1.648260  -16.575700   79.165900
  H      1.263200  -14.780700   80.249000
  C      0.504370  -16.215300   82.813300
  H      1.434210  -15.815400   83.196800
  H      0.177994  -17.110600   83.346200
  C     -0.642364  -15.236000   82.794300
  H     -0.359368  -14.253900   82.309000
  H     -1.373520  -15.711300   82.149100
  C     -1.343950  -15.024000   84.173100
  H     -0.621574  -14.659800   84.884400
  H     -2.266720  -14.482600   84.154500
  H     -1.613790  -15.936000   84.709100
  S      0.907987  -15.643300   76.742200
  C      1.998800  -14.842900   75.641100
  C      3.280390  -15.064000   76.090200
  C      3.363280  -15.688700   77.399200
  C      2.108210  -16.109200   77.895200
  H      4.151160  -14.749800   75.481100
  C      4.639700  -15.832800   78.256600
  H      4.391180  -16.463700   79.028300
  H      4.809080  -14.863800   78.696200
  C      5.820320  -16.357000   77.490400
  H      6.169580  -15.719800   76.682400
  H      5.638830  -17.369600   77.056800
  C      6.923960  -16.417000   78.504800
  H      7.409030  -15.476800   78.710500
  H      7.669500  -17.081600   78.083800
  H      6.702490  -16.863600   79.447500
  H      0.646372  -18.755400   81.816700
  H      1.814700  -14.493200   74.675900

 Total Charge           Charge          ....    0
 Multiplicity           Mult            ....    1
 Number of Electrons    NEL             ....  134
 Basis Dimension        Dim             ....  322

ORBITAL ENERGIES
----------------

  NO   OCC          E(Eh)            E(eV)
   0   2.0000     -88.962987     -2420.8059
   1   2.0000     -88.959336     -2420.7066
   2   2.0000     -10.325923      -280.9826
   3   2.0000     -10.321696      -280.8676
   4   2.0000     -10.313122      -280.6343
   5   2.0000     -10.308594      -280.5111
   6   2.0000     -10.304612      -280.4027
   7   2.0000     -10.300626      -280.2943
   8   2.0000     -10.298186      -280.2279
   9   2.0000     -10.296177      -280.1732
  10   2.0000     -10.293013      -280.0871
  11   2.0000     -10.292110      -280.0625
  12   2.0000     -10.283463      -279.8272
  13   2.0000     -10.279908      -279.7305
  14   2.0000     -10.277701      -279.6705
  15   2.0000     -10.266752      -279.3725
  16   2.0000      -8.078714      -219.8330
  17   2.0000      -8.074562      -219.7200
  18   2.0000      -6.037182      -164.2801
  19   2.0000      -6.033097      -164.1689
  20   2.0000      -6.033018      -164.1668
  21   2.0000      -6.029512      -164.0714
  22   2.0000      -6.028711      -164.0496
  23   2.0000      -6.025518      -163.9627
  24   2.0000      -1.009384       -27.4667
  25   2.0000      -0.985520       -26.8174
  26   2.0000      -0.917176       -24.9576
  27   2.0000      -0.915401       -24.9093
  28   2.0000      -0.875670       -23.8282
  29   2.0000      -0.845291       -23.0015
  30   2.0000      -0.844642       -22.9839
  31   2.0000      -0.819571       -22.3017
  32   2.0000      -0.783267       -21.3138
  33   2.0000      -0.769538       -20.9402
  34   2.0000      -0.714149       -19.4330
  35   2.0000      -0.704296       -19.1649
  36   2.0000      -0.693718       -18.8770
  37   2.0000      -0.652079       -17.7440
  38   2.0000      -0.643581       -17.5127
  39   2.0000      -0.618910       -16.8414
  40   2.0000      -0.594598       -16.1798
  41   2.0000      -0.574438       -15.6313
  42   2.0000      -0.573205       -15.5977
  43   2.0000      -0.565844       -15.3974
  44   2.0000      -0.533570       -14.5192
  45   2.0000      -0.530698       -14.4410
  46   2.0000      -0.518171       -14.1001
  47   2.0000      -0.511336       -13.9142
  48   2.0000      -0.508453       -13.8357
  49   2.0000      -0.500183       -13.6107
  50   2.0000      -0.493079       -13.4173
  51   2.0000      -0.478518       -13.0211
  52   2.0000      -0.470651       -12.8071
  53   2.0000      -0.467021       -12.7083
  54   2.0000      -0.460205       -12.5228
  55   2.0000      -0.449722       -12.2376
  56   2.0000      -0.448692       -12.2095
  57   2.0000      -0.436689       -11.8829
  58   2.0000      -0.432617       -11.7721
  59   2.0000      -0.427887       -11.6434
  60   2.0000      -0.425921       -11.5899
  61   2.0000      -0.410202       -11.1622
  62   2.0000      -0.398724       -10.8498
  63   2.0000      -0.335240        -9.1224
  64   2.0000      -0.327702        -8.9172
  65   2.0000      -0.319888        -8.7046
  66   2.0000      -0.310570        -8.4510
  67   0.0000       0.051166         1.3923
  68   0.0000       0.054633         1.4866
  69   0.0000       0.118079         3.2131
  70   0.0000       0.129727         3.5301
  71   0.0000       0.138430         3.7669

MULLIKEN ATOMIC CHARGES
-----------------------
   0 S :    0.123168
   1 C :   -0.106318
   2 C :   -0.144541
   3 C :    0.060229
   4 C :   -0.188613
   5 H :    0.010705
   6 C :    0.112279
   7 H :    0.038438
   8 H :    0.011518
   9 C :   -0.101640
  10 H :    0.046621
  11 H :    0.032853
  12 C :   -0.031169
  13 H :    0.021745
  14 H :    0.040263
  15 H :    0.013774
  16 S :    0.104234
  17 C :   -0.063065
  18 C :   -0.059370
  19 C :   -0.050614
  20 C :   -0.165162
  21 H :    0.030458
  22 C :    0.133310
  23 H :   -0.000390
  24 H :    0.029602
  25 C :   -0.096882
  26 H :    0.030936
  27 H :    0.040805
  28 C :   -0.017108
  29 H :    0.027048
  30 H :    0.017305
  31 H :    0.017357
  32 H :    0.042816
  33 H :    0.039408
Sum of atomic charges:   -0.0000000

LOEWDIN ATOMIC CHARGES
----------------------
   0 S :    0.424245
   1 C :   -0.212601
   2 C :   -0.064161
   3 C :   -0.051929
   4 C :   -0.208969
   5 H :    0.030647
   6 C :   -0.028511
   7 H :    0.032912
   8 H :    0.030826
   9 C :   -0.043800
  10 H :    0.030531
  11 H :    0.026086
  12 C :   -0.069869
  13 H :    0.023778
  14 H :    0.026208
  15 H :    0.025233
  16 S :    0.422691
  17 C :   -0.182051
  18 C :   -0.080136
  19 C :   -0.047488
  20 C :   -0.224234
  21 H :    0.034205
  22 C :   -0.020362
  23 H :    0.018034
  24 H :    0.034143
  25 C :   -0.039044
  26 H :    0.024226
  27 H :    0.031976
  28 C :   -0.061703
  29 H :    0.023396
  30 H :    0.024597
  31 H :    0.019871
  32 H :    0.029211
  33 H :    0.022041

  Mayer bond orders larger than 0.100000
B(  0-S ,  1-C ) :   1.1452 B(  0-S ,  4-C ) :   1.1447 B(  1-C ,  2-C ) :   1.6358
B(  1-C , 32-H ) :   0.9618 B(  2-C ,  3-C ) :   1.2093 B(  2-C ,  6-C ) :   1.0238
B(  3-C ,  4-C ) :   1.6122 B(  3-C ,  5-H ) :   0.9986 B(  4-C , 20-C ) :   1.0025
B(  6-C ,  7-H ) :   0.9245 B(  6-C ,  8-H ) :   0.9397 B(  6-C ,  9-C ) :   1.0651
B(  9-C , 10-H ) :   0.9521 B(  9-C , 11-H ) :   0.9588 B(  9-C , 12-C ) :   1.0824
B( 12-C , 13-H ) :   0.9729 B( 12-C , 14-H ) :   0.9768 B( 12-C , 15-H ) :   0.9709
B( 16-S , 17-C ) :   1.1686 B( 16-S , 20-C ) :   1.1534 B( 17-C , 18-C ) :   1.5948
B( 17-C , 20-C ) :   0.1033 B( 17-C , 33-H ) :   0.9719 B( 18-C , 19-C ) :   1.2539
B( 18-C , 21-H ) :   0.9829 B( 19-C , 20-C ) :   1.5788 B( 19-C , 22-C ) :   1.0275
B( 22-C , 23-H ) :   0.9279 B( 22-C , 24-H ) :   0.9290 B( 22-C , 25-C ) :   1.0783
B( 25-C , 26-H ) :   0.9481 B( 25-C , 27-H ) :   0.9574 B( 25-C , 28-C ) :   1.0932
B( 28-C , 29-H ) :   0.9730 B( 28-C , 30-H ) :   0.9695 B( 28-C , 31-H ) :   0.9714

Dispersion correction           -0.013638287
FINAL SINGLE POINT ENERGY     -1339.874473339478

DIPOLE MOMENT
-------------
                                X             Y             Z
Electronic contribution:     -8.87469      -6.84568     -17.42834
Nuclear contribution   :      9.18775       7.11769      17.82538
                        -----------------------------------------
Total Dipole Moment    :      0.31307       0.27201       0.39703
                        -----------------------------------------
Magnitude (a.u.)       :      0.57414
Magnitude (Debye)      :      1.45935

Rotational constants in cm-1:     0.019596     0.007320     0.006381
Rotational constants in MHz :   587.479756   219.437186   191.304138

                             ****ORCA TERMINATED NORMALLY****
TOTAL RUN TIME: 0 days 0 hours 0 minutes 33 seconds 347 msec
