                         Program Version 4.2.1 -  RELEASE  -
|  1> ! wB97X-D3 SP def2-SVP
|  2> %pal
|  3> nprocs 16
|  4> end
|  5>
|  6> * xyz 0 1
|  7> S 	 -2.91891 	 7.20244 	 85.1057
|  8> C 	 -3.60054 	 6.20787 	 83.8013
|  9> C 	 -4.07736 	 7.05132 	 82.7945
| 10> C 	 -3.85226 	 8.4286 	 83.1803
| 11> C 	 -3.24309 	 8.73177 	 84.3838
| 12> H 	 -4.13958 	 9.26699 	 82.5462
| 13> C 	 -4.77479 	 6.7418 	 81.4659
| 14> H 	 -5.87285 	 6.91024 	 81.3803
| 15> H 	 -4.7052 	 5.66221 	 81.3361
| 16> C 	 -4.03661 	 7.36244 	 80.1836
| 17> H 	 -4.55949 	 7.02161 	 79.2694
| 18> H 	 -4.15716 	 8.43641 	 80.3048
| 19> C 	 -2.57492 	 7.06802 	 79.9171
| 20> H 	 -1.9615 	 7.59726 	 80.7028
| 21> H 	 -2.40045 	 6.01864 	 80.2071
| 22> H 	 -2.25756 	 7.31608 	 78.9407
| 23> S 	 -1.22762 	 10.4497 	 85.3695
| 24> C 	 -1.77338 	 12.0014 	 85.9161
| 25> C 	 -3.10396 	 12.189 	 85.8719
| 26> C 	 -3.81452 	 11.0614 	 85.3776
| 27> C 	 -2.94822 	 10.039 	 85.0279
| 28> H 	 -3.58674 	 13.0676 	 86.2513
| 29> C 	 -5.31556 	 11.1712 	 85.1138
| 30> H 	 -5.68371 	 10.2715 	 84.6359
| 31> H 	 -5.41743 	 11.8676 	 84.2237
| 32> C 	 -6.09635 	 11.6261 	 86.3309
| 33> H 	 -5.7969 	 12.6377 	 86.7484
| 34> H 	 -5.81294 	 10.9004 	 87.0578
| 35> C 	 -7.68066 	 11.7246 	 86.0751
| 36> H 	 -8.04036 	 12.734 	 85.8997
| 37> H 	 -8.27317 	 11.3265 	 86.9229
| 38> H 	 -7.9738 	 11.0995 	 85.2043
| 39> H 	 -3.79659 	 5.17105 	 83.8581
| 40> H 	 -1.29613 	 12.7831 	 86.39
| 41> *
| 42>
| 43>                          ****END OF INPUT****

CARTESIAN COORDINATES (ANGSTROEM)
---------------------------------
  S     -2.918910    7.202440   85.105700
  C     -3.600540    6.207870   83.801300
  C     -4.077360    7.051320   82.794500
  C     -3.852260    8.428600   83.180300
  C     -3.243090    8.731770   84.383800
  H     -4.139580    9.266990   82.546200
  C     -4.774790    6.741800   81.465900
  H     -5.872850    6.910240   81.380300
  H     -4.705200    5.662210   81.336100
  C     -4.036610    7.362440   80.183600
  H     -4.559490    7.021610   79.269400
  H     -4.157160    8.436410   80.304800
  C     -2.574920    7.068020   79.917100
  H     -1.961500    7.597260   80.702800
  H     -2.400450    6.018640   80.207100
  H     -2.257560    7.316080   78.940700
  S     -1.227620   10.449700   85.369500
  C     -1.773380   12.001400   85.916100
  C     -3.103960   12.189000   85.871900
  C     -3.814520   11.061400   85.377600
  C     -2.948220   10.039000   85.027900
  H     -3.586740   13.067600   86.251300
  C     -5.315560   11.171200   85.113800
  H     -5.683710   10.271500   84.635900
  H     -5.417430   11.867600   84.223700
  C     -6.096350   11.626100   86.330900
  H     -5.796900   12.637700   86.748400
  H     -5.812940   10.900400   87.057800
  C     -7.680660   11.724600   86.075100
  H     -8.040360   12.734000   85.899700
  H     -8.273170   11.326500   86.922900
  H     -7.973800   11.099500   85.204300
  H     -3.796590    5.171050   83.858100
  H     -1.296130   12.783100   86.390000

 Total Charge           Charge          ....    0
 Multiplicity           Mult            ....    1
 Number of Electrons    NEL             ....  134
 Basis Dimension        Dim             ....  322

ORBITAL ENERGIES
----------------

  NO   OCC          E(Eh)            E(eV)
   0   2.0000     -88.970967     -2421.0231
   1   2.0000     -88.963248     -2420.8130
   2   2.0000     -10.334667      -281.2206
   3   2.0000     -10.330977      -281.1202
   4   2.0000     -10.320005      -280.8216
   5   2.0000     -10.309447      -280.5343
   6   2.0000     -10.308576      -280.5106
   7   2.0000     -10.305314      -280.4218
   8   2.0000     -10.303493      -280.3723
   9   2.0000     -10.297143      -280.1995
  10   2.0000     -10.296128      -280.1719
  11   2.0000     -10.293015      -280.0872
  12   2.0000     -10.289882      -280.0019
  13   2.0000     -10.287307      -279.9319
  14   2.0000     -10.285925      -279.8942
  15   2.0000     -10.275003      -279.5970
  16   2.0000      -8.085030      -220.0049
  17   2.0000      -8.078065      -219.8153
  18   2.0000      -6.043651      -164.4561
  19   2.0000      -6.039815      -164.3517
  20   2.0000      -6.036657      -164.2658
  21   2.0000      -6.035516      -164.2347
  22   2.0000      -6.032328      -164.1480
  23   2.0000      -6.028923      -164.0553
  24   2.0000      -1.005339       -27.3567
  25   2.0000      -0.985971       -26.8296
  26   2.0000      -0.907426       -24.6923
  27   2.0000      -0.904289       -24.6070
  28   2.0000      -0.869125       -23.6501
  29   2.0000      -0.846844       -23.0438
  30   2.0000      -0.840043       -22.8587
  31   2.0000      -0.816448       -22.2167
  32   2.0000      -0.784046       -21.3350
  33   2.0000      -0.775800       -21.1106
  34   2.0000      -0.709195       -19.2982
  35   2.0000      -0.703678       -19.1480
  36   2.0000      -0.691267       -18.8103
  37   2.0000      -0.657345       -17.8873
  38   2.0000      -0.643223       -17.5030
  39   2.0000      -0.620016       -16.8715
  40   2.0000      -0.599488       -16.3129
  41   2.0000      -0.570449       -15.5227
  42   2.0000      -0.558727       -15.2037
  43   2.0000      -0.550148       -14.9703
  44   2.0000      -0.539235       -14.6733
  45   2.0000      -0.521727       -14.1969
  46   2.0000      -0.517686       -14.0870
  47   2.0000      -0.512484       -13.9454
  48   2.0000      -0.505553       -13.7568
  49   2.0000      -0.498950       -13.5771
  50   2.0000      -0.486545       -13.2396
  51   2.0000      -0.475256       -12.9324
  52   2.0000      -0.471830       -12.8392
  53   2.0000      -0.461936       -12.5699
  54   2.0000      -0.457167       -12.4402
  55   2.0000      -0.456203       -12.4139
  56   2.0000      -0.446825       -12.1587
  57   2.0000      -0.441064       -12.0020
  58   2.0000      -0.428190       -11.6516
  59   2.0000      -0.425138       -11.5686
  60   2.0000      -0.415672       -11.3110
  61   2.0000      -0.409437       -11.1413
  62   2.0000      -0.407481       -11.0881
  63   2.0000      -0.342851        -9.3295
  64   2.0000      -0.335160        -9.1202
  65   2.0000      -0.326253        -8.8778
  66   2.0000      -0.304062        -8.2739
  67   0.0000       0.036231         0.9859
  68   0.0000       0.063044         1.7155
  69   0.0000       0.112046         3.0489
  70   0.0000       0.120743         3.2856
  71   0.0000       0.126840         3.4515

MULLIKEN ATOMIC CHARGES
-----------------------
   0 S :    0.096938
   1 C :   -0.107568
   2 C :   -0.085279
   3 C :    0.009041
   4 C :   -0.149494
   5 H :    0.007046
   6 C :    0.057805
   7 H :    0.056690
   8 H :    0.010735
   9 C :   -0.120260
  10 H :    0.034313
  11 H :    0.032317
  12 C :   -0.033005
  13 H :    0.038966
  14 H :    0.023306
  15 H :    0.040719
  16 S :    0.122870
  17 C :   -0.017508
  18 C :   -0.055763
  19 C :   -0.014890
  20 C :   -0.183929
  21 H :    0.010456
  22 C :    0.070947
  23 H :    0.018740
  24 H :    0.041749
  25 C :   -0.102721
  26 H :    0.046833
  27 H :    0.038703
  28 C :   -0.061816
  29 H :    0.039637
  30 H :    0.042205
  31 H :    0.033407
  32 H :    0.041620
  33 H :    0.017192
Sum of atomic charges:    0.0000000

LOEWDIN ATOMIC CHARGES
----------------------
   0 S :    0.408944
   1 C :   -0.182287
   2 C :   -0.067016
   3 C :   -0.072627
   4 C :   -0.208814
   5 H :    0.025208
   6 C :   -0.035329
   7 H :    0.041027
   8 H :    0.025165
   9 C :   -0.043017
  10 H :    0.026366
  11 H :    0.017666
  12 C :   -0.066812
  13 H :    0.033566
  14 H :    0.026991
  15 H :    0.022547
  16 S :    0.395358
  17 C :   -0.174395
  18 C :   -0.067969
  19 C :   -0.045693
  20 C :   -0.187594
  21 H :    0.028483
  22 C :   -0.036687
  23 H :    0.027833
  24 H :    0.038338
  25 C :   -0.041345
  26 H :    0.030392
  27 H :    0.025279
  28 C :   -0.070890
  29 H :    0.024732
  30 H :    0.031422
  31 H :    0.027532
  32 H :    0.023865
  33 H :    0.019760

  Mayer bond orders larger than 0.100000
B(  0-S ,  1-C ) :   1.1518 B(  0-S ,  4-C ) :   1.1552 B(  1-C ,  2-C ) :   1.5870
B(  1-C , 32-H ) :   0.9736 B(  2-C ,  3-C ) :   1.2461 B(  2-C ,  6-C ) :   1.0207
B(  3-C ,  4-C ) :   1.5852 B(  3-C ,  5-H ) :   0.9934 B(  4-C , 20-C ) :   1.0090
B(  6-C ,  7-H ) :   0.9474 B(  6-C ,  8-H ) :   0.9380 B(  6-C ,  9-C ) :   1.0592
B(  9-C , 10-H ) :   0.9594 B(  9-C , 11-H ) :   0.9596 B(  9-C , 12-C ) :   1.0772
B( 12-C , 13-H ) :   0.9691 B( 12-C , 14-H ) :   0.9737 B( 12-C , 15-H ) :   0.9752
B( 16-S , 17-C ) :   1.1339 B( 16-S , 20-C ) :   1.1206 B( 17-C , 18-C ) :   1.6669
B( 17-C , 33-H ) :   0.9608 B( 18-C , 19-C ) :   1.2159 B( 18-C , 21-H ) :   0.9848
B( 19-C , 20-C ) :   1.6305 B( 19-C , 22-C ) :   1.0420 B( 22-C , 23-H ) :   0.9270
B( 22-C , 24-H ) :   0.9364 B( 22-C , 25-C ) :   1.0444 B( 25-C , 26-H ) :   0.9588
B( 25-C , 27-H ) :   0.9646 B( 25-C , 28-C ) :   1.0562 B( 28-C , 29-H ) :   0.9799
B( 28-C , 30-H ) :   0.9788 B( 28-C , 31-H ) :   0.9790

Dispersion correction           -0.013950461
FINAL SINGLE POINT ENERGY     -1339.864910929668

DIPOLE MOMENT
-------------
                                X             Y             Z
Electronic contribution:     19.00883      -3.14800      13.50685
Nuclear contribution   :    -19.64640       3.43747     -13.76172
                        -----------------------------------------
Total Dipole Moment    :     -0.63757       0.28947      -0.25487
                        -----------------------------------------
Magnitude (a.u.)       :      0.74515
Magnitude (Debye)      :      1.89402

Rotational constants in cm-1:     0.017210     0.008197     0.006879
Rotational constants in MHz :   515.932128   245.726754   206.221469

                             ****ORCA TERMINATED NORMALLY****
TOTAL RUN TIME: 0 days 0 hours 0 minutes 33 seconds 802 msec
