                         Program Version 4.2.1 -  RELEASE  -
|  1> ! wB97X-D3 SP def2-SVP
|  2> %pal
|  3> nprocs 16
|  4> end
|  5>
|  6> * xyz 0 1
|  7> S 	 -57.5809 	 28.1794 	 96.8162
|  8> C 	 -57.5422 	 29.2926 	 98.2184
|  9> C 	 -56.7406 	 28.7157 	 99.1696
| 10> C 	 -56.3963 	 27.3495 	 98.9039
| 11> C 	 -56.7916 	 26.8333 	 97.6633
| 12> H 	 -55.8192 	 26.6424 	 99.4798
| 13> C 	 -56.3387 	 29.4504 	 100.456
| 14> H 	 -56.6433 	 30.5001 	 100.39
| 15> H 	 -55.2497 	 29.5078 	 100.336
| 16> C 	 -56.8453 	 28.9051 	 101.814
| 17> H 	 -57.889 	 28.6408 	 101.743
| 18> H 	 -56.249 	 28.0808 	 102.167
| 19> C 	 -56.6921 	 29.96 	 102.991
| 20> H 	 -56.7178 	 29.4499 	 103.968
| 21> H 	 -55.7935 	 30.5611 	 102.954
| 22> H 	 -57.5171 	 30.656 	 103.084
| 23> S 	 -57.2116 	 24.1197 	 98.1264
| 24> C 	 -56.746 	 22.9908 	 96.8496
| 25> C 	 -56.2247 	 23.6706 	 95.7186
| 26> C 	 -56.0235 	 25.0809 	 95.9033
| 27> C 	 -56.5892 	 25.4921 	 97.154
| 28> H 	 -55.9047 	 23.1567 	 94.8708
| 29> C 	 -55.4549 	 25.9878 	 94.7505
| 30> H 	 -55.1508 	 26.9235 	 95.1578
| 31> H 	 -56.3152 	 26.1576 	 94.0069
| 32> C 	 -54.1964 	 25.4884 	 94.2393
| 33> H 	 -54.3664 	 24.4749 	 93.9132
| 34> H 	 -53.5424 	 25.5226 	 95.1148
| 35> C 	 -53.6533 	 26.2719 	 93.073
| 36> H 	 -54.1612 	 26.1658 	 92.1327
| 37> H 	 -52.6102 	 26.0236 	 93.015
| 38> H 	 -53.6039 	 27.2949 	 93.3228
| 39> H 	 -57.6533 	 30.3862 	 98.1814
| 40> H 	 -56.9044 	 21.972 	 97.0063
| 41> *
| 42>
| 43>                          ****END OF INPUT****

CARTESIAN COORDINATES (ANGSTROEM)
---------------------------------
  S    -57.580900   28.179400   96.816200
  C    -57.542200   29.292600   98.218400
  C    -56.740600   28.715700   99.169600
  C    -56.396300   27.349500   98.903900
  C    -56.791600   26.833300   97.663300
  H    -55.819200   26.642400   99.479800
  C    -56.338700   29.450400  100.456000
  H    -56.643300   30.500100  100.390000
  H    -55.249700   29.507800  100.336000
  C    -56.845300   28.905100  101.814000
  H    -57.889000   28.640800  101.743000
  H    -56.249000   28.080800  102.167000
  C    -56.692100   29.960000  102.991000
  H    -56.717800   29.449900  103.968000
  H    -55.793500   30.561100  102.954000
  H    -57.517100   30.656000  103.084000
  S    -57.211600   24.119700   98.126400
  C    -56.746000   22.990800   96.849600
  C    -56.224700   23.670600   95.718600
  C    -56.023500   25.080900   95.903300
  C    -56.589200   25.492100   97.154000
  H    -55.904700   23.156700   94.870800
  C    -55.454900   25.987800   94.750500
  H    -55.150800   26.923500   95.157800
  H    -56.315200   26.157600   94.006900
  C    -54.196400   25.488400   94.239300
  H    -54.366400   24.474900   93.913200
  H    -53.542400   25.522600   95.114800
  C    -53.653300   26.271900   93.073000
  H    -54.161200   26.165800   92.132700
  H    -52.610200   26.023600   93.015000
  H    -53.603900   27.294900   93.322800
  H    -57.653300   30.386200   98.181400
  H    -56.904400   21.972000   97.006300

 Total Charge           Charge          ....    0
 Multiplicity           Mult            ....    1
 Number of Electrons    NEL             ....  134
 Basis Dimension        Dim             ....  322

ORBITAL ENERGIES
----------------

  NO   OCC          E(Eh)            E(eV)
   0   2.0000     -88.972144     -2421.0551
   1   2.0000     -88.960865     -2420.7482
   2   2.0000     -10.335796      -281.2513
   3   2.0000     -10.332298      -281.1561
   4   2.0000     -10.323556      -280.9182
   5   2.0000     -10.315220      -280.6914
   6   2.0000     -10.314175      -280.6630
   7   2.0000     -10.303255      -280.3658
   8   2.0000     -10.299150      -280.2541
   9   2.0000     -10.294747      -280.1343
  10   2.0000     -10.293345      -280.0961
  11   2.0000     -10.293023      -280.0874
  12   2.0000     -10.290286      -280.0129
  13   2.0000     -10.279223      -279.7119
  14   2.0000     -10.278331      -279.6876
  15   2.0000     -10.269698      -279.4527
  16   2.0000      -8.085668      -220.0222
  17   2.0000      -8.074334      -219.7138
  18   2.0000      -6.044130      -164.4691
  19   2.0000      -6.040332      -164.3658
  20   2.0000      -6.036565      -164.2633
  21   2.0000      -6.033024      -164.1669
  22   2.0000      -6.028944      -164.0559
  23   2.0000      -6.025009      -163.9488
  24   2.0000      -0.996214       -27.1084
  25   2.0000      -0.974940       -26.5295
  26   2.0000      -0.925500       -25.1841
  27   2.0000      -0.902411       -24.5558
  28   2.0000      -0.866951       -23.5909
  29   2.0000      -0.852232       -23.1904
  30   2.0000      -0.836701       -22.7678
  31   2.0000      -0.810323       -22.0500
  32   2.0000      -0.788725       -21.4623
  33   2.0000      -0.770850       -20.9759
  34   2.0000      -0.709318       -19.3015
  35   2.0000      -0.699939       -19.0463
  36   2.0000      -0.694488       -18.8980
  37   2.0000      -0.662733       -18.0339
  38   2.0000      -0.634728       -17.2718
  39   2.0000      -0.613817       -16.7028
  40   2.0000      -0.603248       -16.4152
  41   2.0000      -0.582040       -15.8381
  42   2.0000      -0.565497       -15.3879
  43   2.0000      -0.558449       -15.1962
  44   2.0000      -0.527976       -14.3670
  45   2.0000      -0.521248       -14.1839
  46   2.0000      -0.517123       -14.0716
  47   2.0000      -0.514898       -14.0111
  48   2.0000      -0.506669       -13.7872
  49   2.0000      -0.495329       -13.4786
  50   2.0000      -0.489076       -13.3084
  51   2.0000      -0.478607       -13.0236
  52   2.0000      -0.472999       -12.8710
  53   2.0000      -0.464980       -12.6528
  54   2.0000      -0.455973       -12.4076
  55   2.0000      -0.452111       -12.3026
  56   2.0000      -0.441473       -12.0131
  57   2.0000      -0.437693       -11.9102
  58   2.0000      -0.433011       -11.7828
  59   2.0000      -0.423062       -11.5121
  60   2.0000      -0.419718       -11.4211
  61   2.0000      -0.417324       -11.3560
  62   2.0000      -0.403488       -10.9795
  63   2.0000      -0.341330        -9.2881
  64   2.0000      -0.336154        -9.1472
  65   2.0000      -0.324436        -8.8284
  66   2.0000      -0.293353        -7.9825
  67   0.0000       0.021020         0.5720
  68   0.0000       0.064485         1.7547
  69   0.0000       0.102357         2.7853
  70   0.0000       0.113174         3.0796
  71   0.0000       0.129164         3.5147

MULLIKEN ATOMIC CHARGES
-----------------------
   0 S :    0.084552
   1 C :   -0.114358
   2 C :   -0.108535
   3 C :    0.024536
   4 C :   -0.148863
   5 H :    0.003996
   6 C :    0.058998
   7 H :    0.009708
   8 H :    0.037884
   9 C :   -0.040622
  10 H :    0.041249
  11 H :    0.035101
  12 C :   -0.080118
  13 H :    0.031740
  14 H :    0.031741
  15 H :    0.028324
  16 S :    0.115597
  17 C :   -0.084066
  18 C :   -0.004723
  19 C :   -0.048301
  20 C :   -0.173371
  21 H :    0.004477
  22 C :    0.084333
  23 H :    0.006970
  24 H :    0.059395
  25 C :   -0.115314
  26 H :    0.018351
  27 H :    0.035820
  28 C :    0.025019
  29 H :    0.037428
  30 H :    0.022911
  31 H :    0.005503
  32 H :    0.067960
  33 H :    0.046677
Sum of atomic charges:    0.0000000

LOEWDIN ATOMIC CHARGES
----------------------
   0 S :    0.375435
   1 C :   -0.197329
   2 C :   -0.064862
   3 C :   -0.070829
   4 C :   -0.185771
   5 H :    0.026571
   6 C :   -0.035234
   7 H :    0.027120
   8 H :    0.035758
   9 C :   -0.031638
  10 H :    0.028825
  11 H :    0.024151
  12 C :   -0.070673
  13 H :    0.028872
  14 H :    0.022411
  15 H :    0.021410
  16 S :    0.398653
  17 C :   -0.166817
  18 C :   -0.058954
  19 C :   -0.043430
  20 C :   -0.193785
  21 H :    0.019059
  22 C :   -0.032762
  23 H :    0.022405
  24 H :    0.041495
  25 C :   -0.044782
  26 H :    0.016628
  27 H :    0.033547
  28 C :   -0.055211
  29 H :    0.026904
  30 H :    0.029321
  31 H :    0.019359
  32 H :    0.038638
  33 H :    0.015513

  Mayer bond orders larger than 0.100000
B(  0-S ,  1-C ) :   1.1213 B(  0-S ,  4-C ) :   1.1303 B(  1-C ,  2-C ) :   1.6259
B(  1-C , 32-H ) :   0.9565 B(  2-C ,  3-C ) :   1.2197 B(  2-C ,  6-C ) :   1.0259
B(  3-C ,  4-C ) :   1.5708 B(  3-C ,  5-H ) :   0.9993 B(  4-C , 20-C ) :   1.0709
B(  6-C ,  7-H ) :   0.9456 B(  6-C ,  8-H ) :   0.9327 B(  6-C ,  9-C ) :   1.0567
B(  9-C , 10-H ) :   0.9606 B(  9-C , 11-H ) :   0.9583 B(  9-C , 12-C ) :   1.0737
B( 12-C , 13-H ) :   0.9782 B( 12-C , 14-H ) :   0.9783 B( 12-C , 15-H ) :   0.9777
B( 16-S , 17-C ) :   1.1610 B( 16-S , 20-C ) :   1.1471 B( 17-C , 18-C ) :   1.5703
B( 17-C , 20-C ) :   0.1109 B( 17-C , 33-H ) :   0.9797 B( 18-C , 19-C ) :   1.2577
B( 18-C , 21-H ) :   0.9924 B( 19-C , 20-C ) :   1.5496 B( 19-C , 22-C ) :   1.0309
B( 22-C , 23-H ) :   0.9253 B( 22-C , 24-H ) :   0.9405 B( 22-C , 25-C ) :   1.0622
B( 25-C , 26-H ) :   0.9540 B( 25-C , 27-H ) :   0.9534 B( 25-C , 28-C ) :   1.0968
B( 28-C , 29-H ) :   0.9729 B( 28-C , 30-H ) :   0.9676 B( 28-C , 31-H ) :   0.9640

Dispersion correction           -0.013340304
FINAL SINGLE POINT ENERGY     -1339.858388521193

DIPOLE MOMENT
-------------
                                X             Y             Z
Electronic contribution:    -12.54369     -11.02356      -3.64878
Nuclear contribution   :     13.04475      11.06494       3.67441
                        -----------------------------------------
Total Dipole Moment    :      0.50106       0.04138       0.02563
                        -----------------------------------------
Magnitude (a.u.)       :      0.50342
Magnitude (Debye)      :      1.27959

Rotational constants in cm-1:     0.020843     0.006951     0.005869
Rotational constants in MHz :   624.853383   208.385702   175.959602

                             ****ORCA TERMINATED NORMALLY****
TOTAL RUN TIME: 0 days 0 hours 0 minutes 26 seconds 307 msec
