                         Program Version 4.2.1 -  RELEASE  -
|  1> ! wB97X-D3 SP def2-SVP
|  2> %pal
|  3> nprocs 16
|  4> end
|  5>
|  6> * xyz 0 1
|  7> S 	 -5.60881 	 -13.9031 	 83.4928
|  8> C 	 -4.27527 	 -14.8155 	 84.1185
|  9> C 	 -4.58748 	 -15.4108 	 85.3571
| 10> C 	 -5.90115 	 -15.1903 	 85.8193
| 11> C 	 -6.59518 	 -14.4236 	 84.899
| 12> H 	 -6.42512 	 -15.5713 	 86.7662
| 13> C 	 -3.62123 	 -16.3109 	 86.1396
| 14> H 	 -2.80124 	 -15.6595 	 86.4838
| 15> H 	 -3.07757 	 -16.9709 	 85.4544
| 16> C 	 -4.18506 	 -17.0841 	 87.334
| 17> H 	 -4.40592 	 -16.4901 	 88.1864
| 18> H 	 -5.1571 	 -17.6292 	 87.0812
| 19> C 	 -3.24579 	 -18.1081 	 87.8461
| 20> H 	 -3.31854 	 -18.5628 	 88.8312
| 21> H 	 -3.46337 	 -19.049 	 87.2699
| 22> H 	 -2.24414 	 -17.7847 	 87.698
| 23> S 	 -8.21142 	 -12.3666 	 85.4417
| 24> C 	 -9.9082 	 -12.5893 	 85.7722
| 25> C 	 -10.1975 	 -13.9426 	 85.6293
| 26> C 	 -9.11175 	 -14.7883 	 85.2552
| 27> C 	 -7.97107 	 -14.0494 	 85.0547
| 28> H 	 -11.1756 	 -14.2318 	 85.873
| 29> C 	 -9.20076 	 -16.3037 	 85.2781
| 30> H 	 -9.23415 	 -16.5831 	 86.2802
| 31> H 	 -8.31016 	 -16.7639 	 84.898
| 32> C 	 -10.4681 	 -16.8698 	 84.5586
| 33> H 	 -10.2483 	 -16.8118 	 83.5638
| 34> H 	 -11.3283 	 -16.1969 	 84.5471
| 35> C 	 -10.8547 	 -18.2882 	 85.0071
| 36> H 	 -11.4895 	 -18.2843 	 85.9029
| 37> H 	 -9.97916 	 -18.906 	 85.1681
| 38> H 	 -11.2695 	 -18.7738 	 84.1323
| 39> H 	 -3.28711 	 -14.9287 	 83.6421
| 40> H 	 -10.5455 	 -11.8745 	 86.19
| 41> *
| 42>
| 43>                          ****END OF INPUT****

CARTESIAN COORDINATES (ANGSTROEM)
---------------------------------
  S     -5.608810  -13.903100   83.492800
  C     -4.275270  -14.815500   84.118500
  C     -4.587480  -15.410800   85.357100
  C     -5.901150  -15.190300   85.819300
  C     -6.595180  -14.423600   84.899000
  H     -6.425120  -15.571300   86.766200
  C     -3.621230  -16.310900   86.139600
  H     -2.801240  -15.659500   86.483800
  H     -3.077570  -16.970900   85.454400
  C     -4.185060  -17.084100   87.334000
  H     -4.405920  -16.490100   88.186400
  H     -5.157100  -17.629200   87.081200
  C     -3.245790  -18.108100   87.846100
  H     -3.318540  -18.562800   88.831200
  H     -3.463370  -19.049000   87.269900
  H     -2.244140  -17.784700   87.698000
  S     -8.211420  -12.366600   85.441700
  C     -9.908200  -12.589300   85.772200
  C    -10.197500  -13.942600   85.629300
  C     -9.111750  -14.788300   85.255200
  C     -7.971070  -14.049400   85.054700
  H    -11.175600  -14.231800   85.873000
  C     -9.200760  -16.303700   85.278100
  H     -9.234150  -16.583100   86.280200
  H     -8.310160  -16.763900   84.898000
  C    -10.468100  -16.869800   84.558600
  H    -10.248300  -16.811800   83.563800
  H    -11.328300  -16.196900   84.547100
  C    -10.854700  -18.288200   85.007100
  H    -11.489500  -18.284300   85.902900
  H     -9.979160  -18.906000   85.168100
  H    -11.269500  -18.773800   84.132300
  H     -3.287110  -14.928700   83.642100
  H    -10.545500  -11.874500   86.190000

 Total Charge           Charge          ....    0
 Multiplicity           Mult            ....    1
 Number of Electrons    NEL             ....  134
 Basis Dimension        Dim             ....  322

ORBITAL ENERGIES
----------------

  NO   OCC          E(Eh)            E(eV)
   0   2.0000     -88.970380     -2421.0071
   1   2.0000     -88.958262     -2420.6774
   2   2.0000     -10.326852      -281.0079
   3   2.0000     -10.317342      -280.7491
   4   2.0000     -10.315572      -280.7010
   5   2.0000     -10.311977      -280.6032
   6   2.0000     -10.303169      -280.3635
   7   2.0000     -10.300855      -280.3005
   8   2.0000     -10.299674      -280.2684
   9   2.0000     -10.295661      -280.1592
  10   2.0000     -10.288085      -279.9530
  11   2.0000     -10.287863      -279.9470
  12   2.0000     -10.285467      -279.8818
  13   2.0000     -10.278443      -279.6906
  14   2.0000     -10.277839      -279.6742
  15   2.0000     -10.274635      -279.5870
  16   2.0000      -8.084319      -219.9855
  17   2.0000      -8.073644      -219.6950
  18   2.0000      -6.042756      -164.4317
  19   2.0000      -6.038986      -164.3292
  20   2.0000      -6.035169      -164.2253
  21   2.0000      -6.032112      -164.1421
  22   2.0000      -6.027972      -164.0295
  23   2.0000      -6.024477      -163.9344
  24   2.0000      -1.006187       -27.3797
  25   2.0000      -0.981334       -26.7035
  26   2.0000      -0.915060       -24.9000
  27   2.0000      -0.907618       -24.6976
  28   2.0000      -0.872129       -23.7318
  29   2.0000      -0.854868       -23.2621
  30   2.0000      -0.848198       -23.0806
  31   2.0000      -0.813198       -22.1282
  32   2.0000      -0.782193       -21.2846
  33   2.0000      -0.768257       -20.9053
  34   2.0000      -0.713850       -19.4248
  35   2.0000      -0.708801       -19.2874
  36   2.0000      -0.689987       -18.7755
  37   2.0000      -0.660872       -17.9832
  38   2.0000      -0.638612       -17.3775
  39   2.0000      -0.618121       -16.8199
  40   2.0000      -0.599205       -16.3052
  41   2.0000      -0.570263       -15.5176
  42   2.0000      -0.564818       -15.3695
  43   2.0000      -0.561484       -15.2787
  44   2.0000      -0.532312       -14.4849
  45   2.0000      -0.526703       -14.3323
  46   2.0000      -0.518878       -14.1194
  47   2.0000      -0.508250       -13.8302
  48   2.0000      -0.505202       -13.7473
  49   2.0000      -0.498386       -13.5618
  50   2.0000      -0.489301       -13.3146
  51   2.0000      -0.481734       -13.1087
  52   2.0000      -0.478658       -13.0250
  53   2.0000      -0.467144       -12.7116
  54   2.0000      -0.457251       -12.4424
  55   2.0000      -0.452968       -12.3259
  56   2.0000      -0.446489       -12.1496
  57   2.0000      -0.433017       -11.7830
  58   2.0000      -0.431616       -11.7449
  59   2.0000      -0.426170       -11.5967
  60   2.0000      -0.422629       -11.5003
  61   2.0000      -0.412943       -11.2368
  62   2.0000      -0.407522       -11.0892
  63   2.0000      -0.344697        -9.3797
  64   2.0000      -0.327034        -8.8991
  65   2.0000      -0.323939        -8.8148
  66   2.0000      -0.293044        -7.9741
  67   0.0000       0.037095         1.0094
  68   0.0000       0.060282         1.6404
  69   0.0000       0.117328         3.1927
  70   0.0000       0.124068         3.3761
  71   0.0000       0.134933         3.6717

MULLIKEN ATOMIC CHARGES
-----------------------
   0 S :    0.130172
   1 C :   -0.132956
   2 C :   -0.083968
   3 C :    0.000252
   4 C :   -0.169368
   5 H :    0.059736
   6 C :    0.052070
   7 H :    0.036888
   8 H :    0.027570
   9 C :   -0.079620
  10 H :    0.029332
  11 H :    0.036709
  12 C :   -0.044454
  13 H :    0.028912
  14 H :    0.025940
  15 H :    0.024387
  16 S :    0.099637
  17 C :   -0.072642
  18 C :   -0.042965
  19 C :   -0.020873
  20 C :   -0.180874
  21 H :   -0.002557
  22 C :    0.133155
  23 H :    0.014048
  24 H :    0.023956
  25 C :   -0.083606
  26 H :    0.004967
  27 H :    0.023823
  28 C :   -0.034366
  29 H :    0.050121
  30 H :    0.022163
  31 H :    0.028855
  32 H :    0.054853
  33 H :    0.040704
Sum of atomic charges:   -0.0000000

LOEWDIN ATOMIC CHARGES
----------------------
   0 S :    0.405776
   1 C :   -0.216239
   2 C :   -0.063241
   3 C :   -0.066167
   4 C :   -0.188167
   5 H :    0.054651
   6 C :   -0.035424
   7 H :    0.037743
   8 H :    0.031560
   9 C :   -0.051012
  10 H :    0.020405
  11 H :    0.029924
  12 C :   -0.070419
  13 H :    0.027213
  14 H :    0.031617
  15 H :    0.019173
  16 S :    0.411055
  17 C :   -0.179697
  18 C :   -0.065738
  19 C :   -0.053935
  20 C :   -0.206654
  21 H :    0.018821
  22 C :   -0.018161
  23 H :    0.022172
  24 H :    0.029191
  25 C :   -0.037950
  26 H :    0.014318
  27 H :    0.025187
  28 C :   -0.064320
  29 H :    0.029696
  30 H :    0.024165
  31 H :    0.030142
  32 H :    0.034151
  33 H :    0.020167

  Mayer bond orders larger than 0.100000
B(  0-S ,  1-C ) :   1.1409 B(  0-S ,  4-C ) :   1.1554 B(  1-C ,  2-C ) :   1.6028
B(  1-C ,  4-C ) :   0.1070 B(  1-C , 32-H ) :   0.9688 B(  2-C ,  3-C ) :   1.2650
B(  2-C ,  6-C ) :   1.0010 B(  3-C ,  4-C ) :   1.5559 B(  3-C ,  5-H ) :   0.9758
B(  4-C , 20-C ) :   1.0176 B(  6-C ,  7-H ) :   0.9213 B(  6-C ,  8-H ) :   0.9487
B(  6-C ,  9-C ) :   1.0816 B(  9-C , 10-H ) :   0.9455 B(  9-C , 11-H ) :   0.9578
B(  9-C , 12-C ) :   1.0762 B( 12-C , 13-H ) :   0.9726 B( 12-C , 14-H ) :   0.9742
B( 12-C , 15-H ) :   0.9730 B( 16-S , 17-C ) :   1.1553 B( 16-S , 20-C ) :   1.1598
B( 17-C , 18-C ) :   1.6032 B( 17-C , 33-H ) :   0.9770 B( 18-C , 19-C ) :   1.2270
B( 18-C , 21-H ) :   0.9964 B( 19-C , 20-C ) :   1.5972 B( 19-C , 22-C ) :   1.0423
B( 22-C , 23-H ) :   0.9359 B( 22-C , 24-H ) :   0.9277 B( 22-C , 25-C ) :   1.0378
B( 25-C , 26-H ) :   0.9550 B( 25-C , 27-H ) :   0.9627 B( 25-C , 28-C ) :   1.0767
B( 28-C , 29-H ) :   0.9775 B( 28-C , 30-H ) :   0.9735 B( 28-C , 31-H ) :   0.9727

Dispersion correction           -0.013631130
FINAL SINGLE POINT ENERGY     -1339.861028666581

DIPOLE MOMENT
-------------
                                X             Y             Z
Electronic contribution:      0.19028      27.93639     -11.01820
Nuclear contribution   :     -0.21087     -28.59312      11.45393
                        -----------------------------------------
Total Dipole Moment    :     -0.02059      -0.65673       0.43573
                        -----------------------------------------
Magnitude (a.u.)       :      0.78840
Magnitude (Debye)      :      2.00396

Rotational constants in cm-1:     0.015542     0.008787     0.006726
Rotational constants in MHz :   465.941313   263.425741   201.635197

                             ****ORCA TERMINATED NORMALLY****
TOTAL RUN TIME: 0 days 0 hours 0 minutes 32 seconds 789 msec
