                         Program Version 4.2.1 -  RELEASE  -
|  1> ! wB97X-D3 SP def2-SVP
|  2> %pal
|  3> nprocs 16
|  4> end
|  5>
|  6> * xyz 0 1
|  7> S 	 -42.9083 	 17.7461 	 70.567
|  8> C 	 -41.2344 	 17.4003 	 70.1243
|  9> C 	 -40.5818 	 16.5405 	 71.0425
| 10> C 	 -41.5056 	 16.0625 	 72.0057
| 11> C 	 -42.7643 	 16.6307 	 71.9392
| 12> H 	 -41.2401 	 15.3815 	 72.8113
| 13> C 	 -39.1016 	 16.1579 	 71.0289
| 14> H 	 -38.7339 	 16.1162 	 72.0468
| 15> H 	 -38.511 	 17.0097 	 70.6789
| 16> C 	 -38.6928 	 15.0764 	 70.0669
| 17> H 	 -39.2487 	 15.1175 	 69.0764
| 18> H 	 -37.6532 	 15.2012 	 69.7109
| 19> C 	 -38.7962 	 13.645 	 70.6914
| 20> H 	 -39.734 	 13.4873 	 71.2568
| 21> H 	 -38.8257 	 13.0526 	 69.8106
| 22> H 	 -37.8899 	 13.4598 	 71.2299
| 23> S 	 -45.4276 	 16.598 	 72.1398
| 24> C 	 -46.3123 	 15.8515 	 73.4659
| 25> C 	 -45.4376 	 15.647 	 74.5097
| 26> C 	 -44.0591 	 15.8649 	 74.1156
| 27> C 	 -43.8753 	 16.2871 	 72.8015
| 28> H 	 -45.7144 	 15.3363 	 75.5029
| 29> C 	 -42.989 	 15.7084 	 75.145
| 30> H 	 -42.3441 	 15.0566 	 74.5962
| 31> H 	 -43.3912 	 15.279 	 76.0945
| 32> C 	 -42.4192 	 17.0785 	 75.6001
| 33> H 	 -42.2483 	 17.7067 	 74.7523
| 34> H 	 -41.4518 	 16.948 	 76.1576
| 35> C 	 -43.3216 	 17.8796 	 76.53
| 36> H 	 -44.3088 	 18.0962 	 76.16
| 37> H 	 -42.8358 	 18.8062 	 76.9284
| 38> H 	 -43.4284 	 17.2391 	 77.449
| 39> H 	 -40.8629 	 17.8511 	 69.2386
| 40> H 	 -47.3826 	 15.7709 	 73.4416
| 41> *
| 42>
| 43>                          ****END OF INPUT****

CARTESIAN COORDINATES (ANGSTROEM)
---------------------------------
  S    -42.908300   17.746100   70.567000
  C    -41.234400   17.400300   70.124300
  C    -40.581800   16.540500   71.042500
  C    -41.505600   16.062500   72.005700
  C    -42.764300   16.630700   71.939200
  H    -41.240100   15.381500   72.811300
  C    -39.101600   16.157900   71.028900
  H    -38.733900   16.116200   72.046800
  H    -38.511000   17.009700   70.678900
  C    -38.692800   15.076400   70.066900
  H    -39.248700   15.117500   69.076400
  H    -37.653200   15.201200   69.710900
  C    -38.796200   13.645000   70.691400
  H    -39.734000   13.487300   71.256800
  H    -38.825700   13.052600   69.810600
  H    -37.889900   13.459800   71.229900
  S    -45.427600   16.598000   72.139800
  C    -46.312300   15.851500   73.465900
  C    -45.437600   15.647000   74.509700
  C    -44.059100   15.864900   74.115600
  C    -43.875300   16.287100   72.801500
  H    -45.714400   15.336300   75.502900
  C    -42.989000   15.708400   75.145000
  H    -42.344100   15.056600   74.596200
  H    -43.391200   15.279000   76.094500
  C    -42.419200   17.078500   75.600100
  H    -42.248300   17.706700   74.752300
  H    -41.451800   16.948000   76.157600
  C    -43.321600   17.879600   76.530000
  H    -44.308800   18.096200   76.160000
  H    -42.835800   18.806200   76.928400
  H    -43.428400   17.239100   77.449000
  H    -40.862900   17.851100   69.238600
  H    -47.382600   15.770900   73.441600

 Total Charge           Charge          ....    0
 Multiplicity           Mult            ....    1
 Number of Electrons    NEL             ....  134
 Basis Dimension        Dim             ....  322

ORBITAL ENERGIES
----------------

  NO   OCC          E(Eh)            E(eV)
   0   2.0000     -88.971382     -2421.0344
   1   2.0000     -88.958945     -2420.6959
   2   2.0000     -10.333556      -281.1903
   3   2.0000     -10.325163      -280.9620
   4   2.0000     -10.318767      -280.7879
   5   2.0000     -10.318579      -280.7828
   6   2.0000     -10.308364      -280.5048
   7   2.0000     -10.301811      -280.3265
   8   2.0000     -10.296335      -280.1775
   9   2.0000     -10.294846      -280.1370
  10   2.0000     -10.292026      -280.0603
  11   2.0000     -10.291899      -280.0568
  12   2.0000     -10.291108      -280.0353
  13   2.0000     -10.284954      -279.8678
  14   2.0000     -10.279259      -279.7129
  15   2.0000     -10.273429      -279.5542
  16   2.0000      -8.085346      -220.0134
  17   2.0000      -8.074762      -219.7254
  18   2.0000      -6.043889      -164.4626
  19   2.0000      -6.039992      -164.3565
  20   2.0000      -6.036092      -164.2504
  21   2.0000      -6.033351      -164.1758
  22   2.0000      -6.029068      -164.0593
  23   2.0000      -6.025424      -163.9601
  24   2.0000      -1.009292       -27.4642
  25   2.0000      -0.982369       -26.7316
  26   2.0000      -0.912240       -24.8233
  27   2.0000      -0.909515       -24.7492
  28   2.0000      -0.871091       -23.7036
  29   2.0000      -0.852667       -23.2022
  30   2.0000      -0.843260       -22.9463
  31   2.0000      -0.816270       -22.2118
  32   2.0000      -0.782924       -21.3044
  33   2.0000      -0.769731       -20.9454
  34   2.0000      -0.705836       -19.2068
  35   2.0000      -0.698438       -19.0055
  36   2.0000      -0.686896       -18.6914
  37   2.0000      -0.672750       -18.3065
  38   2.0000      -0.643381       -17.5073
  39   2.0000      -0.619899       -16.8683
  40   2.0000      -0.591657       -16.0998
  41   2.0000      -0.570279       -15.5181
  42   2.0000      -0.562499       -15.3064
  43   2.0000      -0.552110       -15.0237
  44   2.0000      -0.548398       -14.9227
  45   2.0000      -0.535250       -14.5649
  46   2.0000      -0.521135       -14.1808
  47   2.0000      -0.510941       -13.9034
  48   2.0000      -0.503635       -13.7046
  49   2.0000      -0.497822       -13.5464
  50   2.0000      -0.485115       -13.2006
  51   2.0000      -0.481568       -13.1041
  52   2.0000      -0.471109       -12.8195
  53   2.0000      -0.469132       -12.7657
  54   2.0000      -0.458222       -12.4688
  55   2.0000      -0.452323       -12.3083
  56   2.0000      -0.448032       -12.1916
  57   2.0000      -0.445099       -12.1117
  58   2.0000      -0.426657       -11.6099
  59   2.0000      -0.418717       -11.3939
  60   2.0000      -0.412937       -11.2366
  61   2.0000      -0.409084       -11.1317
  62   2.0000      -0.403040       -10.9673
  63   2.0000      -0.359719        -9.7884
  64   2.0000      -0.338421        -9.2089
  65   2.0000      -0.321907        -8.7595
  66   2.0000      -0.280073        -7.6212
  67   0.0000       0.017691         0.4814
  68   0.0000       0.075280         2.0485
  69   0.0000       0.093664         2.5487
  70   0.0000       0.121505         3.3063
  71   0.0000       0.137404         3.7390

MULLIKEN ATOMIC CHARGES
-----------------------
   0 S :    0.110194
   1 C :   -0.123397
   2 C :   -0.058716
   3 C :   -0.020861
   4 C :   -0.095041
   5 H :    0.010528
   6 C :    0.081350
   7 H :    0.026985
   8 H :    0.016454
   9 C :   -0.110174
  10 H :    0.038029
  11 H :    0.027054
  12 C :   -0.033628
  13 H :    0.043403
  14 H :    0.023574
  15 H :    0.036403
  16 S :    0.069353
  17 C :   -0.081348
  18 C :   -0.003019
  19 C :   -0.111884
  20 C :   -0.120050
  21 H :    0.014197
  22 C :    0.079623
  23 H :    0.031843
  24 H :    0.017011
  25 C :   -0.064086
  26 H :    0.034994
  27 H :    0.035080
  28 C :   -0.077236
  29 H :    0.043187
  30 H :    0.043916
  31 H :    0.017478
  32 H :    0.040510
  33 H :    0.058271
Sum of atomic charges:    0.0000000

LOEWDIN ATOMIC CHARGES
----------------------
   0 S :    0.392668
   1 C :   -0.182208
   2 C :   -0.052971
   3 C :   -0.067718
   4 C :   -0.184953
   5 H :    0.030572
   6 C :   -0.040909
   7 H :    0.032242
   8 H :    0.036206
   9 C :   -0.044826
  10 H :    0.031132
  11 H :    0.024294
  12 C :   -0.062950
  13 H :    0.028260
  14 H :    0.022887
  15 H :    0.022645
  16 S :    0.407440
  17 C :   -0.174565
  18 C :   -0.068427
  19 C :   -0.062179
  20 C :   -0.204946
  21 H :    0.029332
  22 C :   -0.032937
  23 H :    0.027707
  24 H :    0.032001
  25 C :   -0.040519
  26 H :    0.020201
  27 H :    0.028881
  28 C :   -0.069186
  29 H :    0.021474
  30 H :    0.033722
  31 H :    0.023376
  32 H :    0.017457
  33 H :    0.026798

  Mayer bond orders larger than 0.100000
B(  0-S ,  1-C ) :   1.1445 B(  0-S ,  4-C ) :   1.1375 B(  1-C ,  2-C ) :   1.5751
B(  1-C ,  4-C ) :   0.1045 B(  1-C , 32-H ) :   0.9759 B(  2-C ,  3-C ) :   1.2662
B(  2-C ,  6-C ) :   1.0267 B(  3-C ,  4-C ) :   1.5575 B(  3-C ,  5-H ) :   0.9887
B(  4-C , 20-C ) :   1.0866 B(  6-C ,  7-H ) :   0.9450 B(  6-C ,  8-H ) :   0.9330
B(  6-C ,  9-C ) :   1.0605 B(  9-C , 10-H ) :   0.9606 B(  9-C , 11-H ) :   0.9573
B(  9-C , 12-C ) :   1.0682 B( 12-C , 13-H ) :   0.9785 B( 12-C , 14-H ) :   0.9763
B( 12-C , 15-H ) :   0.9793 B( 16-S , 17-C ) :   1.1638 B( 16-S , 20-C ) :   1.1353
B( 17-C , 18-C ) :   1.5618 B( 17-C , 33-H ) :   0.9763 B( 18-C , 19-C ) :   1.2684
B( 18-C , 21-H ) :   0.9937 B( 19-C , 20-C ) :   1.5550 B( 19-C , 22-C ) :   1.0300
B( 22-C , 23-H ) :   0.9334 B( 22-C , 24-H ) :   0.9358 B( 22-C , 25-C ) :   1.0593
B( 25-C , 26-H ) :   0.9590 B( 25-C , 27-H ) :   0.9566 B( 25-C , 28-C ) :   1.0765
B( 28-C , 29-H ) :   0.9771 B( 28-C , 30-H ) :   0.9723 B( 28-C , 31-H ) :   0.9727

Dispersion correction           -0.014623126
FINAL SINGLE POINT ENERGY     -1339.869699277890

DIPOLE MOMENT
-------------
                                X             Y             Z
Electronic contribution:    -20.33706       7.41138     -11.82222
Nuclear contribution   :     20.83671      -7.53947      12.11999
                        -----------------------------------------
Total Dipole Moment    :      0.49965      -0.12809       0.29777
                        -----------------------------------------
Magnitude (a.u.)       :      0.59559
Magnitude (Debye)      :      1.51387

Rotational constants in cm-1:     0.020007     0.008386     0.007150
Rotational constants in MHz :   599.785199   251.399777   214.365732

                             ****ORCA TERMINATED NORMALLY****
TOTAL RUN TIME: 0 days 0 hours 0 minutes 30 seconds 546 msec
