                         Program Version 4.2.1 -  RELEASE  -
|  1> ! wB97X-D3 SP def2-SVP
|  2> %pal
|  3> nprocs 16
|  4> end
|  5>
|  6> * xyz 0 1
|  7> S 	 -6.27696 	 15.4547 	 85.3526
|  8> C 	 -7.92418 	 15.2203 	 84.7404
|  9> C 	 -8.78659 	 14.9763 	 85.7702
| 10> C 	 -8.19348 	 15.1417 	 87.0605
| 11> C 	 -6.86693 	 15.5718 	 87.0234
| 12> H 	 -8.64242 	 14.9613 	 88.0467
| 13> C 	 -10.207 	 14.4929 	 85.6684
| 14> H 	 -10.3238 	 14.412 	 84.6102
| 15> H 	 -10.9 	 15.2083 	 86.006
| 16> C 	 -10.5683 	 13.1231 	 86.1314
| 17> H 	 -11.6113 	 12.786 	 85.849
| 18> H 	 -9.929 	 12.4215 	 85.6088
| 19> C 	 -10.4731 	 12.9286 	 87.625
| 20> H 	 -9.43456 	 12.5649 	 87.8606
| 21> H 	 -10.7668 	 13.7476 	 88.2129
| 22> H 	 -11.1744 	 12.1229 	 87.898
| 23> S 	 -6.38417 	 17.0322 	 89.2949
| 24> C 	 -4.76102 	 17.1203 	 89.941
| 25> C 	 -4.03822 	 16.0937 	 89.3867
| 26> C 	 -4.72423 	 15.3457 	 88.3904
| 27> C 	 -5.96137 	 15.8574 	 88.088
| 28> H 	 -3.02692 	 15.9964 	 89.6587
| 29> C 	 -4.10832 	 14.1134 	 87.7363
| 30> H 	 -3.54829 	 14.3747 	 86.8734
| 31> H 	 -4.92284 	 13.5153 	 87.2941
| 32> C 	 -3.17198 	 13.2021 	 88.6473
| 33> H 	 -2.39071 	 13.7902 	 89.0331
| 34> H 	 -2.68246 	 12.4266 	 88.0522
| 35> C 	 -3.77026 	 12.478 	 89.8534
| 36> H 	 -4.68687 	 11.9236 	 89.6713
| 37> H 	 -3.91779 	 13.1047 	 90.7163
| 38> H 	 -2.98084 	 11.7291 	 90.1067
| 39> H 	 -8.20467 	 15.4142 	 83.6792
| 40> H 	 -4.48907 	 17.8826 	 90.6766
| 41> *
| 42>
| 43>                          ****END OF INPUT****

CARTESIAN COORDINATES (ANGSTROEM)
---------------------------------
  S     -6.276960   15.454700   85.352600
  C     -7.924180   15.220300   84.740400
  C     -8.786590   14.976300   85.770200
  C     -8.193480   15.141700   87.060500
  C     -6.866930   15.571800   87.023400
  H     -8.642420   14.961300   88.046700
  C    -10.207000   14.492900   85.668400
  H    -10.323800   14.412000   84.610200
  H    -10.900000   15.208300   86.006000
  C    -10.568300   13.123100   86.131400
  H    -11.611300   12.786000   85.849000
  H     -9.929000   12.421500   85.608800
  C    -10.473100   12.928600   87.625000
  H     -9.434560   12.564900   87.860600
  H    -10.766800   13.747600   88.212900
  H    -11.174400   12.122900   87.898000
  S     -6.384170   17.032200   89.294900
  C     -4.761020   17.120300   89.941000
  C     -4.038220   16.093700   89.386700
  C     -4.724230   15.345700   88.390400
  C     -5.961370   15.857400   88.088000
  H     -3.026920   15.996400   89.658700
  C     -4.108320   14.113400   87.736300
  H     -3.548290   14.374700   86.873400
  H     -4.922840   13.515300   87.294100
  C     -3.171980   13.202100   88.647300
  H     -2.390710   13.790200   89.033100
  H     -2.682460   12.426600   88.052200
  C     -3.770260   12.478000   89.853400
  H     -4.686870   11.923600   89.671300
  H     -3.917790   13.104700   90.716300
  H     -2.980840   11.729100   90.106700
  H     -8.204670   15.414200   83.679200
  H     -4.489070   17.882600   90.676600

 Total Charge           Charge          ....    0
 Multiplicity           Mult            ....    1
 Number of Electrons    NEL             ....  134
 Basis Dimension        Dim             ....  322

ORBITAL ENERGIES
----------------

  NO   OCC          E(Eh)            E(eV)
   0   2.0000     -88.965430     -2420.8724
   1   2.0000     -88.960036     -2420.7257
   2   2.0000     -10.331493      -281.1342
   3   2.0000     -10.321324      -280.8575
   4   2.0000     -10.319270      -280.8016
   5   2.0000     -10.318214      -280.7729
   6   2.0000     -10.301472      -280.3173
   7   2.0000     -10.300615      -280.2940
   8   2.0000     -10.295621      -280.1581
   9   2.0000     -10.289814      -280.0001
  10   2.0000     -10.289806      -279.9999
  11   2.0000     -10.285768      -279.8900
  12   2.0000     -10.285137      -279.8728
  13   2.0000     -10.279894      -279.7301
  14   2.0000     -10.273972      -279.5690
  15   2.0000     -10.273718      -279.5621
  16   2.0000      -8.079368      -219.8508
  17   2.0000      -8.075488      -219.7452
  18   2.0000      -6.038034      -164.3033
  19   2.0000      -6.034097      -164.1961
  20   2.0000      -6.033949      -164.1921
  21   2.0000      -6.029938      -164.0829
  22   2.0000      -6.029901      -164.0820
  23   2.0000      -6.026195      -163.9811
  24   2.0000      -1.009357       -27.4660
  25   2.0000      -0.985372       -26.8133
  26   2.0000      -0.919933       -25.0326
  27   2.0000      -0.899925       -24.4882
  28   2.0000      -0.875829       -23.8325
  29   2.0000      -0.848934       -23.1007
  30   2.0000      -0.842754       -22.9325
  31   2.0000      -0.817430       -22.2434
  32   2.0000      -0.787741       -21.4355
  33   2.0000      -0.774746       -21.0819
  34   2.0000      -0.707381       -19.2488
  35   2.0000      -0.700109       -19.0509
  36   2.0000      -0.694608       -18.9012
  37   2.0000      -0.661501       -18.0004
  38   2.0000      -0.637552       -17.3487
  39   2.0000      -0.615742       -16.7552
  40   2.0000      -0.600181       -16.3317
  41   2.0000      -0.579008       -15.7556
  42   2.0000      -0.552344       -15.0301
  43   2.0000      -0.544722       -14.8226
  44   2.0000      -0.541259       -14.7284
  45   2.0000      -0.540407       -14.7052
  46   2.0000      -0.527759       -14.3611
  47   2.0000      -0.521471       -14.1900
  48   2.0000      -0.505333       -13.7508
  49   2.0000      -0.495091       -13.4721
  50   2.0000      -0.494079       -13.4446
  51   2.0000      -0.487309       -13.2603
  52   2.0000      -0.470770       -12.8103
  53   2.0000      -0.467653       -12.7255
  54   2.0000      -0.455012       -12.3815
  55   2.0000      -0.441663       -12.0183
  56   2.0000      -0.437126       -11.8948
  57   2.0000      -0.434730       -11.8296
  58   2.0000      -0.433010       -11.7828
  59   2.0000      -0.422915       -11.5081
  60   2.0000      -0.418554       -11.3894
  61   2.0000      -0.410669       -11.1749
  62   2.0000      -0.404134       -10.9971
  63   2.0000      -0.351057        -9.5527
  64   2.0000      -0.330270        -8.9871
  65   2.0000      -0.326352        -8.8805
  66   2.0000      -0.289577        -7.8798
  67   0.0000       0.026664         0.7256
  68   0.0000       0.061475         1.6728
  69   0.0000       0.098879         2.6906
  70   0.0000       0.125898         3.4259
  71   0.0000       0.141413         3.8480

MULLIKEN ATOMIC CHARGES
-----------------------
   0 S :    0.097085
   1 C :   -0.145358
   2 C :   -0.086282
   3 C :    0.020839
   4 C :   -0.163652
   5 H :    0.023385
   6 C :    0.117755
   7 H :   -0.004065
   8 H :    0.027705
   9 C :   -0.081112
  10 H :    0.033035
  11 H :    0.021271
  12 C :   -0.057122
  13 H :    0.048575
  14 H :    0.026951
  15 H :    0.027656
  16 S :    0.097280
  17 C :   -0.107668
  18 C :   -0.019180
  19 C :   -0.031587
  20 C :   -0.149666
  21 H :    0.004617
  22 C :    0.088290
  23 H :    0.028340
  24 H :    0.026573
  25 C :   -0.076083
  26 H :    0.015176
  27 H :    0.028758
  28 C :   -0.054256
  29 H :    0.033393
  30 H :    0.035053
  31 H :    0.031614
  32 H :    0.072218
  33 H :    0.070462
Sum of atomic charges:   -0.0000000

LOEWDIN ATOMIC CHARGES
----------------------
   0 S :    0.388532
   1 C :   -0.194237
   2 C :   -0.062376
   3 C :   -0.064323
   4 C :   -0.176692
   5 H :    0.036028
   6 C :   -0.031707
   7 H :    0.028918
   8 H :    0.024832
   9 C :   -0.041432
  10 H :    0.031295
  11 H :    0.024889
  12 C :   -0.071322
  13 H :    0.033781
  14 H :    0.014875
  15 H :    0.029206
  16 S :    0.407385
  17 C :   -0.181294
  18 C :   -0.068827
  19 C :   -0.061405
  20 C :   -0.206660
  21 H :    0.023675
  22 C :   -0.034779
  23 H :    0.027225
  24 H :    0.029448
  25 C :   -0.036665
  26 H :    0.015669
  27 H :    0.028123
  28 C :   -0.066349
  29 H :    0.023425
  30 H :    0.021536
  31 H :    0.033126
  32 H :    0.040859
  33 H :    0.035243

  Mayer bond orders larger than 0.100000
B(  0-S ,  1-C ) :   1.1269 B(  0-S ,  4-C ) :   1.1368 B(  1-C ,  2-C ) :   1.6314
B(  1-C , 32-H ) :   0.9583 B(  2-C ,  3-C ) :   1.2231 B(  2-C ,  6-C ) :   1.0204
B(  3-C ,  4-C ) :   1.5760 B(  3-C ,  5-H ) :   0.9875 B(  4-C , 20-C ) :   1.0565
B(  6-C ,  7-H ) :   0.9261 B(  6-C ,  8-H ) :   0.9355 B(  6-C ,  9-C ) :   1.0869
B(  9-C , 10-H ) :   0.9584 B(  9-C , 11-H ) :   0.9493 B(  9-C , 12-C ) :   1.0858
B( 12-C , 13-H ) :   0.9707 B( 12-C , 14-H ) :   0.9726 B( 12-C , 15-H ) :   0.9712
B( 16-S , 17-C ) :   1.1589 B( 16-S , 20-C ) :   1.1400 B( 17-C , 18-C ) :   1.5827
B( 17-C , 20-C ) :   0.1015 B( 17-C , 33-H ) :   0.9717 B( 18-C , 19-C ) :   1.2371
B( 18-C , 21-H ) :   1.0027 B( 19-C , 20-C ) :   1.5747 B( 19-C , 22-C ) :   1.0329
B( 22-C , 23-H ) :   0.9302 B( 22-C , 24-H ) :   0.9334 B( 22-C , 25-C ) :   1.0706
B( 25-C , 26-H ) :   0.9521 B( 25-C , 27-H ) :   0.9603 B( 25-C , 28-C ) :   1.0782
B( 28-C , 29-H ) :   0.9767 B( 28-C , 30-H ) :   0.9765 B( 28-C , 31-H ) :   0.9748

Dispersion correction           -0.014507112
FINAL SINGLE POINT ENERGY     -1339.867618972475

DIPOLE MOMENT
-------------
                                X             Y             Z
Electronic contribution:      4.40583      20.38224      -4.10245
Nuclear contribution   :     -4.45093     -20.74841       4.13704
                        -----------------------------------------
Total Dipole Moment    :     -0.04510      -0.36616       0.03459
                        -----------------------------------------
Magnitude (a.u.)       :      0.37055
Magnitude (Debye)      :      0.94185

Rotational constants in cm-1:     0.019314     0.008097     0.007681
Rotational constants in MHz :   579.027935   242.739238   230.274319

                             ****ORCA TERMINATED NORMALLY****
TOTAL RUN TIME: 0 days 0 hours 0 minutes 33 seconds 375 msec
