                         Program Version 4.2.1 -  RELEASE  -
|  1> ! wB97X-D3 SP def2-SVP
|  2> %pal
|  3> nprocs 16
|  4> end
|  5>
|  6> * xyz 0 1
|  7> S 	 39.6723 	 12.6635 	 84.2264
|  8> C 	 39.8443 	 11.584 	 82.8725
|  9> C 	 40.7195 	 10.5335 	 83.2408
| 10> C 	 40.8987 	 10.4773 	 84.6903
| 11> C 	 40.4591 	 11.599 	 85.392
| 12> H 	 41.5829 	 9.81773 	 85.1864
| 13> C 	 41.3275 	 9.48326 	 82.3325
| 14> H 	 40.8392 	 9.39349 	 81.4307
| 15> H 	 41.2921 	 8.53444 	 82.8706
| 16> C 	 42.761 	 9.87412 	 81.9505
| 17> H 	 42.7791 	 10.8207 	 81.4525
| 18> H 	 43.1125 	 9.98464 	 82.9735
| 19> C 	 43.3791 	 8.78054 	 81.0153
| 20> H 	 44.4279 	 9.01813 	 81.0038
| 21> H 	 43.2994 	 7.701 	 81.3646
| 22> H 	 42.9804 	 8.85932 	 80.0223
| 23> S 	 41.9406 	 11.4252 	 87.6769
| 24> C 	 41.3882 	 12.1622 	 89.1745
| 25> C 	 40.04 	 12.491 	 89.1039
| 26> C 	 39.4931 	 12.1169 	 87.765
| 27> C 	 40.5115 	 11.7631 	 86.8289
| 28> H 	 39.4832 	 12.9845 	 89.9357
| 29> C 	 37.9806 	 12.4036 	 87.48
| 30> H 	 37.3976 	 11.9858 	 88.3517
| 31> H 	 37.6799 	 11.6436 	 86.7088
| 32> C 	 37.5205 	 13.7257 	 87.0584
| 33> H 	 38.028 	 14.1318 	 86.1624
| 34> H 	 37.7673 	 14.4872 	 87.8495
| 35> C 	 35.967 	 13.7889 	 86.8972
| 36> H 	 35.7338 	 13.2536 	 86.0014
| 37> H 	 35.8225 	 14.8839 	 86.8293
| 38> H 	 35.4266 	 13.3728 	 87.7555
| 39> H 	 39.5786 	 11.6169 	 81.8835
| 40> H 	 42.0228 	 12.4248 	 89.9634
| 41> *
| 42>
| 43>                          ****END OF INPUT****

CARTESIAN COORDINATES (ANGSTROEM)
---------------------------------
  S     39.672300   12.663500   84.226400
  C     39.844300   11.584000   82.872500
  C     40.719500   10.533500   83.240800
  C     40.898700   10.477300   84.690300
  C     40.459100   11.599000   85.392000
  H     41.582900    9.817730   85.186400
  C     41.327500    9.483260   82.332500
  H     40.839200    9.393490   81.430700
  H     41.292100    8.534440   82.870600
  C     42.761000    9.874120   81.950500
  H     42.779100   10.820700   81.452500
  H     43.112500    9.984640   82.973500
  C     43.379100    8.780540   81.015300
  H     44.427900    9.018130   81.003800
  H     43.299400    7.701000   81.364600
  H     42.980400    8.859320   80.022300
  S     41.940600   11.425200   87.676900
  C     41.388200   12.162200   89.174500
  C     40.040000   12.491000   89.103900
  C     39.493100   12.116900   87.765000
  C     40.511500   11.763100   86.828900
  H     39.483200   12.984500   89.935700
  C     37.980600   12.403600   87.480000
  H     37.397600   11.985800   88.351700
  H     37.679900   11.643600   86.708800
  C     37.520500   13.725700   87.058400
  H     38.028000   14.131800   86.162400
  H     37.767300   14.487200   87.849500
  C     35.967000   13.788900   86.897200
  H     35.733800   13.253600   86.001400
  H     35.822500   14.883900   86.829300
  H     35.426600   13.372800   87.755500
  H     39.578600   11.616900   81.883500
  H     42.022800   12.424800   89.963400

 Total Charge           Charge          ....    0
 Multiplicity           Mult            ....    1
 Number of Electrons    NEL             ....  134
 Basis Dimension        Dim             ....  322

ORBITAL ENERGIES
----------------

  NO   OCC          E(Eh)            E(eV)
   0   2.0000     -88.972517     -2421.0653
   1   2.0000     -88.966468     -2420.9007
   2   2.0000     -10.334843      -281.2254
   3   2.0000     -10.330881      -281.1176
   4   2.0000     -10.317805      -280.7618
   5   2.0000     -10.314844      -280.6812
   6   2.0000     -10.313183      -280.6360
   7   2.0000     -10.305941      -280.4389
   8   2.0000     -10.305766      -280.4342
   9   2.0000     -10.295373      -280.1513
  10   2.0000     -10.292295      -280.0676
  11   2.0000     -10.285275      -279.8766
  12   2.0000     -10.283973      -279.8411
  13   2.0000     -10.283275      -279.8221
  14   2.0000     -10.283064      -279.8164
  15   2.0000     -10.276897      -279.6486
  16   2.0000      -8.085939      -220.0296
  17   2.0000      -8.082005      -219.9225
  18   2.0000      -6.044708      -164.4849
  19   2.0000      -6.040598      -164.3730
  20   2.0000      -6.040416      -164.3681
  21   2.0000      -6.036696      -164.2669
  22   2.0000      -6.036325      -164.2568
  23   2.0000      -6.032713      -164.1585
  24   2.0000      -1.005463       -27.3600
  25   2.0000      -0.981788       -26.7158
  26   2.0000      -0.915006       -24.8986
  27   2.0000      -0.906667       -24.6717
  28   2.0000      -0.873258       -23.7626
  29   2.0000      -0.845248       -23.0004
  30   2.0000      -0.838819       -22.8254
  31   2.0000      -0.815910       -22.2020
  32   2.0000      -0.780748       -21.2452
  33   2.0000      -0.768747       -20.9187
  34   2.0000      -0.709284       -19.3006
  35   2.0000      -0.700439       -19.0599
  36   2.0000      -0.688111       -18.7244
  37   2.0000      -0.664968       -18.0947
  38   2.0000      -0.636570       -17.3220
  39   2.0000      -0.620212       -16.8768
  40   2.0000      -0.594528       -16.1779
  41   2.0000      -0.574371       -15.6294
  42   2.0000      -0.570824       -15.5329
  43   2.0000      -0.558790       -15.2054
  44   2.0000      -0.529415       -14.4061
  45   2.0000      -0.521334       -14.1862
  46   2.0000      -0.517491       -14.0817
  47   2.0000      -0.514786       -14.0080
  48   2.0000      -0.506031       -13.7698
  49   2.0000      -0.503168       -13.6919
  50   2.0000      -0.495068       -13.4715
  51   2.0000      -0.480471       -13.0743
  52   2.0000      -0.469384       -12.7726
  53   2.0000      -0.463201       -12.6043
  54   2.0000      -0.457943       -12.4613
  55   2.0000      -0.449444       -12.2300
  56   2.0000      -0.447547       -12.1784
  57   2.0000      -0.442248       -12.0342
  58   2.0000      -0.435996       -11.8641
  59   2.0000      -0.423725       -11.5301
  60   2.0000      -0.409917       -11.1544
  61   2.0000      -0.404376       -11.0036
  62   2.0000      -0.396910       -10.8005
  63   2.0000      -0.351496        -9.5647
  64   2.0000      -0.328628        -8.9424
  65   2.0000      -0.322584        -8.7779
  66   2.0000      -0.291597        -7.9348
  67   0.0000       0.021385         0.5819
  68   0.0000       0.068726         1.8701
  69   0.0000       0.104061         2.8316
  70   0.0000       0.117117         3.1869
  71   0.0000       0.132082         3.5941

MULLIKEN ATOMIC CHARGES
-----------------------
   0 S :    0.121557
   1 C :   -0.054007
   2 C :   -0.149660
   3 C :    0.022038
   4 C :   -0.130364
   5 H :    0.013954
   6 C :    0.094409
   7 H :   -0.012999
   8 H :    0.033471
   9 C :   -0.085809
  10 H :    0.029955
  11 H :    0.024931
  12 C :   -0.040775
  13 H :    0.037033
  14 H :    0.042658
  15 H :    0.036620
  16 S :    0.104720
  17 C :   -0.074627
  18 C :   -0.041044
  19 C :   -0.056528
  20 C :   -0.140431
  21 H :    0.048787
  22 C :    0.015573
  23 H :    0.027646
  24 H :    0.026226
  25 C :   -0.072126
  26 H :    0.033557
  27 H :    0.018312
  28 C :   -0.041894
  29 H :    0.036504
  30 H :    0.040672
  31 H :    0.035223
  32 H :    0.010722
  33 H :    0.045697
Sum of atomic charges:   -0.0000000

LOEWDIN ATOMIC CHARGES
----------------------
   0 S :    0.424499
   1 C :   -0.197339
   2 C :   -0.051757
   3 C :   -0.068431
   4 C :   -0.191622
   5 H :    0.022082
   6 C :   -0.028046
   7 H :    0.011668
   8 H :    0.032572
   9 C :   -0.033209
  10 H :    0.023318
  11 H :    0.023791
  12 C :   -0.066545
  13 H :    0.026733
  14 H :    0.033585
  15 H :    0.024189
  16 S :    0.425570
  17 C :   -0.177688
  18 C :   -0.068212
  19 C :   -0.049799
  20 C :   -0.219240
  21 H :    0.042419
  22 C :   -0.054679
  23 H :    0.036220
  24 H :    0.032246
  25 C :   -0.052083
  26 H :    0.019912
  27 H :    0.021921
  28 C :   -0.056971
  29 H :    0.021845
  30 H :    0.032653
  31 H :    0.024893
  32 H :    0.015825
  33 H :    0.019680

  Mayer bond orders larger than 0.100000
B(  0-S ,  1-C ) :   1.1387 B(  0-S ,  4-C ) :   1.1419 B(  1-C ,  2-C ) :   1.5900
B(  1-C , 32-H ) :   0.9743 B(  2-C ,  3-C ) :   1.2554 B(  2-C ,  6-C ) :   1.0428
B(  3-C ,  4-C ) :   1.5645 B(  3-C ,  5-H ) :   0.9792 B(  4-C , 20-C ) :   1.0604
B(  6-C ,  7-H ) :   0.9341 B(  6-C ,  8-H ) :   0.9463 B(  6-C ,  9-C ) :   1.0451
B(  9-C , 10-H ) :   0.9560 B(  9-C , 11-H ) :   0.9649 B(  9-C , 12-C ) :   1.0682
B( 12-C , 13-H ) :   0.9755 B( 12-C , 14-H ) :   0.9759 B( 12-C , 15-H ) :   0.9733
B( 16-S , 17-C ) :   1.1510 B( 16-S , 20-C ) :   1.1507 B( 17-C , 18-C ) :   1.6097
B( 17-C , 33-H ) :   0.9767 B( 18-C , 19-C ) :   1.2239 B( 18-C , 21-H ) :   0.9836
B( 19-C , 20-C ) :   1.5542 B( 19-C , 22-C ) :   1.0438 B( 22-C , 23-H ) :   0.9336
B( 22-C , 24-H ) :   0.9292 B( 22-C , 25-C ) :   1.0795 B( 25-C , 26-H ) :   0.9444
B( 25-C , 27-H ) :   0.9533 B( 25-C , 28-C ) :   1.0658 B( 28-C , 29-H ) :   0.9786
B( 28-C , 30-H ) :   0.9770 B( 28-C , 31-H ) :   0.9765

Dispersion correction           -0.013993518
FINAL SINGLE POINT ENERGY     -1339.845333072737

DIPOLE MOMENT
-------------
                                X             Y             Z
Electronic contribution:      6.00755       3.93422      10.66821
Nuclear contribution   :     -6.01990      -4.01757     -10.80142
                        -----------------------------------------
Total Dipole Moment    :     -0.01235      -0.08334      -0.13320
                        -----------------------------------------
Magnitude (a.u.)       :      0.15761
Magnitude (Debye)      :      0.40062

Rotational constants in cm-1:     0.021378     0.007756     0.005966
Rotational constants in MHz :   640.883138   232.510792   178.866384

                             ****ORCA TERMINATED NORMALLY****
TOTAL RUN TIME: 0 days 0 hours 0 minutes 27 seconds 251 msec
