                         Program Version 4.2.1 -  RELEASE  -
|  1> ! wB97X-D3 SP def2-SVP
|  2> %pal
|  3> nprocs 16
|  4> end
|  5>
|  6> * xyz 0 1
|  7> S 	 49.2973 	 26.697 	 43.7109
|  8> C 	 50.9604 	 27.1608 	 43.9794
|  9> C 	 51.8261 	 26.1166 	 43.7409
| 10> C 	 51.1234 	 24.9902 	 43.2201
| 11> C 	 49.7657 	 25.0766 	 43.2218
| 12> H 	 51.413 	 24.0269 	 42.8454
| 13> C 	 53.3744 	 26.1059 	 43.8442
| 14> H 	 53.5973 	 25.2449 	 44.5081
| 15> H 	 53.651 	 26.9184 	 44.5277
| 16> C 	 54.2391 	 26.1174 	 42.5909
| 17> H 	 53.9785 	 25.2276 	 42.0571
| 18> H 	 53.968 	 26.934 	 41.8467
| 19> C 	 55.7361 	 26.1446 	 42.9678
| 20> H 	 55.893 	 25.3972 	 43.7228
| 21> H 	 56.2941 	 25.8182 	 42.1124
| 22> H 	 55.9674 	 27.1581 	 43.1788
| 23> S 	 48.3075 	 22.9417 	 43.9844
| 24> C 	 47.2733 	 22.1163 	 42.8414
| 25> C 	 47.1572 	 22.8573 	 41.6796
| 26> C 	 47.9674 	 23.9885 	 41.6286
| 27> C 	 48.7732 	 24.133 	 42.7561
| 28> H 	 46.6517 	 22.5403 	 40.8174
| 29> C 	 48.0932 	 24.8604 	 40.3703
| 30> H 	 48.2812 	 25.9219 	 40.6558
| 31> H 	 47.0846 	 24.9609 	 39.9782
| 32> C 	 49.1615 	 24.5071 	 39.2915
| 33> H 	 49.593 	 23.4501 	 39.3456
| 34> H 	 50.0707 	 25.0767 	 39.4156
| 35> C 	 48.7194 	 24.6582 	 37.8405
| 36> H 	 48.332 	 25.6404 	 37.5625
| 37> H 	 47.9135 	 24.0355 	 37.6802
| 38> H 	 49.4881 	 24.3215 	 37.117
| 39> H 	 51.1595 	 28.1385 	 44.2991
| 40> H 	 46.7622 	 21.1901 	 43.03
| 41> *
| 42>
| 43>                          ****END OF INPUT****

CARTESIAN COORDINATES (ANGSTROEM)
---------------------------------
  S     49.297300   26.697000   43.710900
  C     50.960400   27.160800   43.979400
  C     51.826100   26.116600   43.740900
  C     51.123400   24.990200   43.220100
  C     49.765700   25.076600   43.221800
  H     51.413000   24.026900   42.845400
  C     53.374400   26.105900   43.844200
  H     53.597300   25.244900   44.508100
  H     53.651000   26.918400   44.527700
  C     54.239100   26.117400   42.590900
  H     53.978500   25.227600   42.057100
  H     53.968000   26.934000   41.846700
  C     55.736100   26.144600   42.967800
  H     55.893000   25.397200   43.722800
  H     56.294100   25.818200   42.112400
  H     55.967400   27.158100   43.178800
  S     48.307500   22.941700   43.984400
  C     47.273300   22.116300   42.841400
  C     47.157200   22.857300   41.679600
  C     47.967400   23.988500   41.628600
  C     48.773200   24.133000   42.756100
  H     46.651700   22.540300   40.817400
  C     48.093200   24.860400   40.370300
  H     48.281200   25.921900   40.655800
  H     47.084600   24.960900   39.978200
  C     49.161500   24.507100   39.291500
  H     49.593000   23.450100   39.345600
  H     50.070700   25.076700   39.415600
  C     48.719400   24.658200   37.840500
  H     48.332000   25.640400   37.562500
  H     47.913500   24.035500   37.680200
  H     49.488100   24.321500   37.117000
  H     51.159500   28.138500   44.299100
  H     46.762200   21.190100   43.030000

 Total Charge           Charge          ....    0
 Multiplicity           Mult            ....    1
 Number of Electrons    NEL             ....  134
 Basis Dimension        Dim             ....  322

ORBITAL ENERGIES
----------------

  NO   OCC          E(Eh)            E(eV)
   0   2.0000     -88.964372     -2420.8436
   1   2.0000     -88.959818     -2420.7197
   2   2.0000     -10.325147      -280.9615
   3   2.0000     -10.322494      -280.8893
   4   2.0000     -10.318027      -280.7678
   5   2.0000     -10.313131      -280.6346
   6   2.0000     -10.305397      -280.4241
   7   2.0000     -10.303142      -280.3628
   8   2.0000     -10.296031      -280.1693
   9   2.0000     -10.295424      -280.1527
  10   2.0000     -10.289823      -280.0003
  11   2.0000     -10.289768      -279.9988
  12   2.0000     -10.289098      -279.9806
  13   2.0000     -10.287262      -279.9306
  14   2.0000     -10.275496      -279.6105
  15   2.0000     -10.271789      -279.5096
  16   2.0000      -8.078923      -219.8387
  17   2.0000      -8.074882      -219.7287
  18   2.0000      -6.037293      -164.2831
  19   2.0000      -6.033372      -164.1764
  20   2.0000      -6.033281      -164.1739
  21   2.0000      -6.029913      -164.0823
  22   2.0000      -6.029287      -164.0652
  23   2.0000      -6.025792      -163.9701
  24   2.0000      -1.007006       -27.4020
  25   2.0000      -0.984996       -26.8031
  26   2.0000      -0.909286       -24.7429
  27   2.0000      -0.901363       -24.5273
  28   2.0000      -0.873122       -23.7589
  29   2.0000      -0.853336       -23.2204
  30   2.0000      -0.847205       -23.0536
  31   2.0000      -0.815457       -22.1897
  32   2.0000      -0.783387       -21.3170
  33   2.0000      -0.771712       -20.9993
  34   2.0000      -0.707711       -19.2578
  35   2.0000      -0.701030       -19.0760
  36   2.0000      -0.692591       -18.8464
  37   2.0000      -0.669469       -18.2172
  38   2.0000      -0.654074       -17.7983
  39   2.0000      -0.613607       -16.6971
  40   2.0000      -0.597968       -16.2715
  41   2.0000      -0.570063       -15.5122
  42   2.0000      -0.561562       -15.2809
  43   2.0000      -0.548949       -14.9377
  44   2.0000      -0.528522       -14.3818
  45   2.0000      -0.523827       -14.2541
  46   2.0000      -0.522475       -14.2173
  47   2.0000      -0.516788       -14.0625
  48   2.0000      -0.505082       -13.7440
  49   2.0000      -0.497671       -13.5423
  50   2.0000      -0.494076       -13.4445
  51   2.0000      -0.474292       -12.9061
  52   2.0000      -0.472680       -12.8623
  53   2.0000      -0.465347       -12.6627
  54   2.0000      -0.460635       -12.5345
  55   2.0000      -0.447043       -12.1647
  56   2.0000      -0.443549       -12.0696
  57   2.0000      -0.441799       -12.0220
  58   2.0000      -0.437069       -11.8933
  59   2.0000      -0.421608       -11.4725
  60   2.0000      -0.417597       -11.3634
  61   2.0000      -0.412047       -11.2124
  62   2.0000      -0.406079       -11.0500
  63   2.0000      -0.337162        -9.1747
  64   2.0000      -0.331300        -9.0151
  65   2.0000      -0.322100        -8.7648
  66   2.0000      -0.309839        -8.4312
  67   0.0000       0.038357         1.0437
  68   0.0000       0.059728         1.6253
  69   0.0000       0.114055         3.1036
  70   0.0000       0.124919         3.3992
  71   0.0000       0.128416         3.4944

MULLIKEN ATOMIC CHARGES
-----------------------
   0 S :    0.101706
   1 C :   -0.115717
   2 C :   -0.040815
   3 C :    0.051836
   4 C :   -0.180025
   5 H :   -0.001174
   6 C :    0.044658
   7 H :    0.031689
   8 H :    0.008736
   9 C :   -0.078928
  10 H :    0.017606
  11 H :    0.039870
  12 C :   -0.005660
  13 H :    0.029069
  14 H :    0.027227
  15 H :    0.038447
  16 S :    0.108674
  17 C :   -0.077595
  18 C :   -0.019625
  19 C :   -0.009597
  20 C :   -0.202930
  21 H :   -0.002807
  22 C :    0.074233
  23 H :    0.029806
  24 H :    0.019098
  25 C :   -0.063616
  26 H :    0.034508
  27 H :    0.029640
  28 C :   -0.049150
  29 H :    0.028643
  30 H :    0.008173
  31 H :    0.037587
  32 H :    0.030883
  33 H :    0.055550
Sum of atomic charges:   -0.0000000

LOEWDIN ATOMIC CHARGES
----------------------
   0 S :    0.397695
   1 C :   -0.177161
   2 C :   -0.064782
   3 C :   -0.058256
   4 C :   -0.204456
   5 H :    0.031437
   6 C :   -0.038748
   7 H :    0.035682
   8 H :    0.025701
   9 C :   -0.043215
  10 H :    0.016923
  11 H :    0.031783
  12 C :   -0.051717
  13 H :    0.025509
  14 H :    0.026347
  15 H :    0.024716
  16 S :    0.408009
  17 C :   -0.177350
  18 C :   -0.069546
  19 C :   -0.053756
  20 C :   -0.196374
  21 H :    0.024081
  22 C :   -0.034565
  23 H :    0.037313
  24 H :    0.029361
  25 C :   -0.045503
  26 H :    0.032328
  27 H :    0.022757
  28 C :   -0.064977
  29 H :    0.022809
  30 H :    0.011429
  31 H :    0.032520
  32 H :    0.016222
  33 H :    0.027785

  Mayer bond orders larger than 0.100000
B(  0-S ,  1-C ) :   1.1534 B(  0-S ,  4-C ) :   1.1310 B(  1-C ,  2-C ) :   1.6057
B(  1-C , 32-H ) :   0.9820 B(  2-C ,  3-C ) :   1.1981 B(  2-C ,  6-C ) :   1.0146
B(  3-C ,  4-C ) :   1.6365 B(  3-C ,  5-H ) :   0.9913 B(  4-C , 20-C ) :   1.0132
B(  6-C ,  7-H ) :   0.9356 B(  6-C ,  8-H ) :   0.9422 B(  6-C ,  9-C ) :   1.0593
B(  9-C , 10-H ) :   0.9529 B(  9-C , 11-H ) :   0.9562 B(  9-C , 12-C ) :   1.0756
B( 12-C , 13-H ) :   0.9740 B( 12-C , 14-H ) :   0.9730 B( 12-C , 15-H ) :   0.9791
B( 16-S , 17-C ) :   1.1663 B( 16-S , 20-C ) :   1.1579 B( 17-C , 18-C ) :   1.5702
B( 17-C , 20-C ) :   0.1143 B( 17-C , 33-H ) :   0.9715 B( 18-C , 19-C ) :   1.2742
B( 18-C , 21-H ) :   0.9955 B( 19-C , 20-C ) :   1.5759 B( 19-C , 22-C ) :   1.0524
B( 22-C , 23-H ) :   0.9271 B( 22-C , 24-H ) :   0.9443 B( 22-C , 25-C ) :   1.0268
B( 25-C , 26-H ) :   0.9636 B( 25-C , 27-H ) :   0.9583 B( 25-C , 28-C ) :   1.0823
B( 28-C , 29-H ) :   0.9756 B( 28-C , 30-H ) :   0.9758 B( 28-C , 31-H ) :   0.9723

Dispersion correction           -0.013796752
FINAL SINGLE POINT ENERGY     -1339.873503748718

DIPOLE MOMENT
-------------
                                X             Y             Z
Electronic contribution:    -18.97820      -3.54088      19.02465
Nuclear contribution   :     19.35835       3.47290     -19.49705
                        -----------------------------------------
Total Dipole Moment    :      0.38015      -0.06798      -0.47239
                        -----------------------------------------
Magnitude (a.u.)       :      0.61016
Magnitude (Debye)      :      1.55090

Rotational constants in cm-1:     0.017258     0.007932     0.006660
Rotational constants in MHz :   517.389336   237.807603   199.665395

                             ****ORCA TERMINATED NORMALLY****
TOTAL RUN TIME: 0 days 0 hours 0 minutes 28 seconds 948 msec
