                         Program Version 4.2.1 -  RELEASE  -
|  1> ! wB97X-D3 SP def2-SVP
|  2> %pal
|  3> nprocs 16
|  4> end
|  5>
|  6> * xyz 0 1
|  7> S 	 -119.715 	 45.4324 	 134.02
|  8> C 	 -120.138 	 47.0528 	 134.627
|  9> C 	 -119.125 	 47.77 	 135.201
| 10> C 	 -117.872 	 47.1324 	 134.817
| 11> C 	 -118.026 	 45.9013 	 134.172
| 12> H 	 -116.909 	 47.4822 	 134.964
| 13> C 	 -119.21 	 49.1252 	 135.916
| 14> H 	 -119.676 	 49.0377 	 136.811
| 15> H 	 -119.899 	 49.7525 	 135.325
| 16> C 	 -117.913 	 49.95 	 136.151
| 17> H 	 -118.103 	 50.8367 	 136.735
| 18> H 	 -117.184 	 49.3048 	 136.648
| 19> C 	 -117.279 	 50.4232 	 134.786
| 20> H 	 -118.018 	 50.8708 	 134.097
| 21> H 	 -116.564 	 51.2573 	 134.919
| 22> H 	 -116.775 	 49.7101 	 134.154
| 23> S 	 -117.167 	 43.2977 	 134.061
| 24> C 	 -115.677 	 42.9095 	 133.187
| 25> C 	 -114.905 	 44.035 	 132.951
| 26> C 	 -115.608 	 45.2746 	 133.389
| 27> C 	 -116.899 	 45.011 	 133.801
| 28> H 	 -113.942 	 43.9793 	 132.419
| 29> C 	 -115.161 	 46.6862 	 132.963
| 30> H 	 -115.079 	 47.4333 	 133.81
| 31> H 	 -115.971 	 47.0538 	 132.317
| 32> C 	 -113.896 	 46.7403 	 132.186
| 33> H 	 -113.961 	 46.0392 	 131.442
| 34> H 	 -113.132 	 46.4218 	 132.897
| 35> C 	 -113.559 	 48.0866 	 131.512
| 36> H 	 -112.685 	 48.1038 	 130.884
| 37> H 	 -113.424 	 48.792 	 132.323
| 38> H 	 -114.422 	 48.4102 	 130.949
| 39> H 	 -121.153 	 47.3888 	 134.695
| 40> H 	 -115.447 	 41.9552 	 132.813
| 41> *
| 42>
| 43>                          ****END OF INPUT****

CARTESIAN COORDINATES (ANGSTROEM)
---------------------------------
  S    -119.715000   45.432400  134.020000
  C    -120.138000   47.052800  134.627000
  C    -119.125000   47.770000  135.201000
  C    -117.872000   47.132400  134.817000
  C    -118.026000   45.901300  134.172000
  H    -116.909000   47.482200  134.964000
  C    -119.210000   49.125200  135.916000
  H    -119.676000   49.037700  136.811000
  H    -119.899000   49.752500  135.325000
  C    -117.913000   49.950000  136.151000
  H    -118.103000   50.836700  136.735000
  H    -117.184000   49.304800  136.648000
  C    -117.279000   50.423200  134.786000
  H    -118.018000   50.870800  134.097000
  H    -116.564000   51.257300  134.919000
  H    -116.775000   49.710100  134.154000
  S    -117.167000   43.297700  134.061000
  C    -115.677000   42.909500  133.187000
  C    -114.905000   44.035000  132.951000
  C    -115.608000   45.274600  133.389000
  C    -116.899000   45.011000  133.801000
  H    -113.942000   43.979300  132.419000
  C    -115.161000   46.686200  132.963000
  H    -115.079000   47.433300  133.810000
  H    -115.971000   47.053800  132.317000
  C    -113.896000   46.740300  132.186000
  H    -113.961000   46.039200  131.442000
  H    -113.132000   46.421800  132.897000
  C    -113.559000   48.086600  131.512000
  H    -112.685000   48.103800  130.884000
  H    -113.424000   48.792000  132.323000
  H    -114.422000   48.410200  130.949000
  H    -121.153000   47.388800  134.695000
  H    -115.447000   41.955200  132.813000

 Total Charge           Charge          ....    0
 Multiplicity           Mult            ....    1
 Number of Electrons    NEL             ....  134
 Basis Dimension        Dim             ....  322

ORBITAL ENERGIES
----------------

  NO   OCC          E(Eh)            E(eV)
   0   2.0000     -88.971711     -2421.0433
   1   2.0000     -88.961973     -2420.7784
   2   2.0000     -10.332020      -281.1486
   3   2.0000     -10.327833      -281.0346
   4   2.0000     -10.315010      -280.6857
   5   2.0000     -10.314833      -280.6809
   6   2.0000     -10.309105      -280.5250
   7   2.0000     -10.307953      -280.4937
   8   2.0000     -10.303501      -280.3725
   9   2.0000     -10.298635      -280.2401
  10   2.0000     -10.294952      -280.1399
  11   2.0000     -10.294109      -280.1170
  12   2.0000     -10.293870      -280.1105
  13   2.0000     -10.282096      -279.7900
  14   2.0000     -10.277204      -279.6569
  15   2.0000     -10.275382      -279.6074
  16   2.0000      -8.085486      -220.0173
  17   2.0000      -8.076711      -219.7785
  18   2.0000      -6.044084      -164.4679
  19   2.0000      -6.040420      -164.3682
  20   2.0000      -6.035925      -164.2459
  21   2.0000      -6.035369      -164.2307
  22   2.0000      -6.031359      -164.1216
  23   2.0000      -6.027194      -164.0083
  24   2.0000      -1.001231       -27.2449
  25   2.0000      -0.977878       -26.6094
  26   2.0000      -0.915696       -24.9174
  27   2.0000      -0.909419       -24.7466
  28   2.0000      -0.866628       -23.5821
  29   2.0000      -0.849360       -23.1123
  30   2.0000      -0.838499       -22.8167
  31   2.0000      -0.815158       -22.1816
  32   2.0000      -0.787382       -21.4258
  33   2.0000      -0.775651       -21.1065
  34   2.0000      -0.712284       -19.3822
  35   2.0000      -0.704185       -19.1618
  36   2.0000      -0.693769       -18.8784
  37   2.0000      -0.652028       -17.7426
  38   2.0000      -0.640944       -17.4410
  39   2.0000      -0.624870       -17.0036
  40   2.0000      -0.598561       -16.2877
  41   2.0000      -0.578702       -15.7473
  42   2.0000      -0.562562       -15.3081
  43   2.0000      -0.556902       -15.1541
  44   2.0000      -0.540042       -14.6953
  45   2.0000      -0.524776       -14.2799
  46   2.0000      -0.516025       -14.0418
  47   2.0000      -0.507249       -13.8030
  48   2.0000      -0.502649       -13.6778
  49   2.0000      -0.493037       -13.4162
  50   2.0000      -0.488250       -13.2860
  51   2.0000      -0.484075       -13.1723
  52   2.0000      -0.467856       -12.7310
  53   2.0000      -0.465961       -12.6794
  54   2.0000      -0.456573       -12.4240
  55   2.0000      -0.452463       -12.3121
  56   2.0000      -0.450128       -12.2486
  57   2.0000      -0.438732       -11.9385
  58   2.0000      -0.436537       -11.8788
  59   2.0000      -0.429271       -11.6811
  60   2.0000      -0.425974       -11.5914
  61   2.0000      -0.421920       -11.4810
  62   2.0000      -0.413747       -11.2586
  63   2.0000      -0.350729        -9.5438
  64   2.0000      -0.333877        -9.0853
  65   2.0000      -0.327448        -8.9103
  66   2.0000      -0.285516        -7.7693
  67   0.0000       0.022346         0.6081
  68   0.0000       0.071813         1.9541
  69   0.0000       0.099420         2.7054
  70   0.0000       0.119216         3.2440
  71   0.0000       0.129892         3.5345

MULLIKEN ATOMIC CHARGES
-----------------------
   0 S :    0.117451
   1 C :   -0.123857
   2 C :   -0.045766
   3 C :    0.026820
   4 C :   -0.121015
   5 H :   -0.035616
   6 C :    0.098300
   7 H :    0.013953
   8 H :    0.029274
   9 C :   -0.060459
  10 H :    0.038264
  11 H :    0.041509
  12 C :   -0.086464
  13 H :    0.025414
  14 H :    0.031671
  15 H :    0.029745
  16 S :    0.083865
  17 C :   -0.064448
  18 C :   -0.056891
  19 C :   -0.035671
  20 C :   -0.134700
  21 H :    0.040813
  22 C :   -0.020627
  23 H :    0.045795
  24 H :    0.041598
  25 C :   -0.068041
  26 H :    0.009654
  27 H :    0.029187
  28 C :   -0.008742
  29 H :    0.038547
  30 H :    0.020272
  31 H :    0.026328
  32 H :    0.034106
  33 H :    0.039731
Sum of atomic charges:    0.0000000

LOEWDIN ATOMIC CHARGES
----------------------
   0 S :    0.388624
   1 C :   -0.177559
   2 C :   -0.049723
   3 C :   -0.046312
   4 C :   -0.191099
   5 H :    0.012635
   6 C :   -0.024433
   7 H :    0.019190
   8 H :    0.036812
   9 C :   -0.030872
  10 H :    0.030338
  11 H :    0.026317
  12 C :   -0.077347
  13 H :    0.026758
  14 H :    0.027365
  15 H :    0.019763
  16 S :    0.379466
  17 C :   -0.172664
  18 C :   -0.067764
  19 C :   -0.063826
  20 C :   -0.182468
  21 H :    0.038316
  22 C :   -0.037445
  23 H :    0.029621
  24 H :    0.034977
  25 C :   -0.042369
  26 H :    0.009304
  27 H :    0.025105
  28 C :   -0.054533
  29 H :    0.026667
  30 H :    0.023246
  31 H :    0.024801
  32 H :    0.020379
  33 H :    0.018730

  Mayer bond orders larger than 0.100000
B(  0-S ,  1-C ) :   1.1263 B(  0-S ,  4-C ) :   1.1276 B(  1-C ,  2-C ) :   1.6568
B(  1-C , 32-H ) :   0.9680 B(  2-C ,  3-C ) :   1.2060 B(  2-C ,  6-C ) :   0.9959
B(  3-C ,  4-C ) :   1.5880 B(  3-C ,  5-H ) :   0.9965 B(  4-C , 20-C ) :   1.0547
B(  6-C ,  7-H ) :   0.9291 B(  6-C ,  8-H ) :   0.9416 B(  6-C ,  9-C ) :   1.0906
B(  9-C , 10-H ) :   0.9542 B(  9-C , 11-H ) :   0.9535 B(  9-C , 12-C ) :   1.0615
B( 12-C , 13-H ) :   0.9750 B( 12-C , 14-H ) :   0.9771 B( 12-C , 15-H ) :   0.9779
B( 16-S , 17-C ) :   1.1238 B( 16-S , 20-C ) :   1.1287 B( 17-C , 18-C ) :   1.6505
B( 17-C , 33-H ) :   0.9715 B( 18-C , 19-C ) :   1.1938 B( 18-C , 21-H ) :   0.9803
B( 19-C , 20-C ) :   1.6439 B( 19-C , 22-C ) :   1.0273 B( 22-C , 23-H ) :   0.9269
B( 22-C , 24-H ) :   0.9394 B( 22-C , 25-C ) :   1.0983 B( 25-C , 26-H ) :   0.9404
B( 25-C , 27-H ) :   0.9503 B( 25-C , 28-C ) :   1.0806 B( 28-C , 29-H ) :   0.9743
B( 28-C , 30-H ) :   0.9745 B( 28-C , 31-H ) :   0.9736

Dispersion correction           -0.014358795
FINAL SINGLE POINT ENERGY     -1339.862809887869

DIPOLE MOMENT
-------------
                                X             Y             Z
Electronic contribution:    -15.73355     -27.84939       3.16109
Nuclear contribution   :     15.97433      28.56161      -3.20752
                        -----------------------------------------
Total Dipole Moment    :      0.24078       0.71222      -0.04643
                        -----------------------------------------
Magnitude (a.u.)       :      0.75325
Magnitude (Debye)      :      1.91462

Rotational constants in cm-1:     0.015453     0.010515     0.006737
Rotational constants in MHz :   463.269526   315.236371   201.977976

                             ****ORCA TERMINATED NORMALLY****
TOTAL RUN TIME: 0 days 0 hours 0 minutes 34 seconds 41 msec
