                         Program Version 4.2.1 -  RELEASE  -
|  1> ! wB97X-D3 SP def2-SVP
|  2> %pal
|  3> nprocs 16
|  4> end
|  5>
|  6> * xyz 0 1
|  7> S 	 -40.7429 	 18.51 	 77.2168
|  8> C 	 -40.8407 	 16.7556 	 77.3269
|  9> C 	 -41.2572 	 16.2815 	 76.1189
| 10> C 	 -41.6916 	 17.2384 	 75.1536
| 11> C 	 -41.459 	 18.5089 	 75.6407
| 12> H 	 -42.0721 	 17.0822 	 74.1991
| 13> C 	 -41.5385 	 14.7705 	 75.8688
| 14> H 	 -42.2247 	 14.4796 	 75.0459
| 15> H 	 -42.1444 	 14.5378 	 76.7755
| 16> C 	 -40.3088 	 13.8678 	 76.0917
| 17> H 	 -39.8575 	 14.0718 	 77.003
| 18> H 	 -40.7254 	 12.8536 	 76.1208
| 19> C 	 -39.3335 	 14.0727 	 75.0185
| 20> H 	 -39.1942 	 15.1901 	 74.9348
| 21> H 	 -38.3805 	 13.5503 	 75.11
| 22> H 	 -39.7324 	 13.8598 	 74.0614
| 23> S 	 -40.0975 	 20.2336 	 73.9735
| 24> C 	 -40.9114 	 21.5972 	 73.4107
| 25> C 	 -42.2714 	 21.6881 	 73.8013
| 26> C 	 -42.6468 	 20.5787 	 74.634
| 27> C 	 -41.6032 	 19.6925 	 74.8211
| 28> H 	 -42.8732 	 22.5291 	 73.4036
| 29> C 	 -44.0424 	 20.4168 	 75.1721
| 30> H 	 -44.3601 	 19.4876 	 74.7724
| 31> H 	 -44.6508 	 21.2439 	 74.6885
| 32> C 	 -43.9705 	 20.5369 	 76.6862
| 33> H 	 -43.3148 	 19.8721 	 77.196
| 34> H 	 -44.9599 	 20.2683 	 77.1726
| 35> C 	 -43.5907 	 21.9661 	 77.1391
| 36> H 	 -42.9886 	 22.513 	 76.4169
| 37> H 	 -43.044 	 21.8766 	 78.1274
| 38> H 	 -44.4415 	 22.5832 	 77.3099
| 39> H 	 -40.4604 	 16.0662 	 78.0888
| 40> H 	 -40.6078 	 22.191 	 72.6554
| 41> *
| 42>
| 43>                          ****END OF INPUT****

CARTESIAN COORDINATES (ANGSTROEM)
---------------------------------
  S    -40.742900   18.510000   77.216800
  C    -40.840700   16.755600   77.326900
  C    -41.257200   16.281500   76.118900
  C    -41.691600   17.238400   75.153600
  C    -41.459000   18.508900   75.640700
  H    -42.072100   17.082200   74.199100
  C    -41.538500   14.770500   75.868800
  H    -42.224700   14.479600   75.045900
  H    -42.144400   14.537800   76.775500
  C    -40.308800   13.867800   76.091700
  H    -39.857500   14.071800   77.003000
  H    -40.725400   12.853600   76.120800
  C    -39.333500   14.072700   75.018500
  H    -39.194200   15.190100   74.934800
  H    -38.380500   13.550300   75.110000
  H    -39.732400   13.859800   74.061400
  S    -40.097500   20.233600   73.973500
  C    -40.911400   21.597200   73.410700
  C    -42.271400   21.688100   73.801300
  C    -42.646800   20.578700   74.634000
  C    -41.603200   19.692500   74.821100
  H    -42.873200   22.529100   73.403600
  C    -44.042400   20.416800   75.172100
  H    -44.360100   19.487600   74.772400
  H    -44.650800   21.243900   74.688500
  C    -43.970500   20.536900   76.686200
  H    -43.314800   19.872100   77.196000
  H    -44.959900   20.268300   77.172600
  C    -43.590700   21.966100   77.139100
  H    -42.988600   22.513000   76.416900
  H    -43.044000   21.876600   78.127400
  H    -44.441500   22.583200   77.309900
  H    -40.460400   16.066200   78.088800
  H    -40.607800   22.191000   72.655400

 Total Charge           Charge          ....    0
 Multiplicity           Mult            ....    1
 Number of Electrons    NEL             ....  134
 Basis Dimension        Dim             ....  322

ORBITAL ENERGIES
----------------

  NO   OCC          E(Eh)            E(eV)
   0   2.0000     -88.970151     -2421.0009
   1   2.0000     -88.966041     -2420.8891
   2   2.0000     -10.325555      -280.9726
   3   2.0000     -10.322199      -280.8813
   4   2.0000     -10.314257      -280.6652
   5   2.0000     -10.307301      -280.4759
   6   2.0000     -10.303134      -280.3625
   7   2.0000     -10.301221      -280.3105
   8   2.0000     -10.296447      -280.1806
   9   2.0000     -10.294101      -280.1167
  10   2.0000     -10.292108      -280.0625
  11   2.0000     -10.289313      -279.9864
  12   2.0000     -10.282070      -279.7894
  13   2.0000     -10.277698      -279.6704
  14   2.0000     -10.270819      -279.4832
  15   2.0000     -10.266690      -279.3708
  16   2.0000      -8.084321      -219.9856
  17   2.0000      -8.081069      -219.8971
  18   2.0000      -6.042898      -164.4356
  19   2.0000      -6.039304      -164.3378
  20   2.0000      -6.038837      -164.3251
  21   2.0000      -6.035593      -164.2368
  22   2.0000      -6.035080      -164.2229
  23   2.0000      -6.032046      -164.1403
  24   2.0000      -1.008406       -27.4401
  25   2.0000      -0.984692       -26.7948
  26   2.0000      -0.917178       -24.9577
  27   2.0000      -0.912303       -24.8250
  28   2.0000      -0.869382       -23.6571
  29   2.0000      -0.850377       -23.1399
  30   2.0000      -0.845023       -22.9942
  31   2.0000      -0.810250       -22.0480
  32   2.0000      -0.783170       -21.3111
  33   2.0000      -0.770900       -20.9773
  34   2.0000      -0.710378       -19.3304
  35   2.0000      -0.701199       -19.0806
  36   2.0000      -0.688879       -18.7454
  37   2.0000      -0.661941       -18.0123
  38   2.0000      -0.645193       -17.5566
  39   2.0000      -0.609671       -16.5900
  40   2.0000      -0.590996       -16.0818
  41   2.0000      -0.577230       -15.7072
  42   2.0000      -0.559871       -15.2349
  43   2.0000      -0.553426       -15.0595
  44   2.0000      -0.540772       -14.7152
  45   2.0000      -0.536922       -14.6104
  46   2.0000      -0.519260       -14.1298
  47   2.0000      -0.516269       -14.0484
  48   2.0000      -0.504922       -13.7396
  49   2.0000      -0.489035       -13.3073
  50   2.0000      -0.483670       -13.1613
  51   2.0000      -0.482401       -13.1268
  52   2.0000      -0.471914       -12.8414
  53   2.0000      -0.468107       -12.7378
  54   2.0000      -0.460054       -12.5187
  55   2.0000      -0.439068       -11.9476
  56   2.0000      -0.437557       -11.9065
  57   2.0000      -0.435797       -11.8586
  58   2.0000      -0.434220       -11.8157
  59   2.0000      -0.428626       -11.6635
  60   2.0000      -0.419815       -11.4237
  61   2.0000      -0.407540       -11.0897
  62   2.0000      -0.404598       -11.0097
  63   2.0000      -0.337384        -9.1807
  64   2.0000      -0.331903        -9.0316
  65   2.0000      -0.317189        -8.6311
  66   2.0000      -0.307787        -8.3753
  67   0.0000       0.042807         1.1648
  68   0.0000       0.046603         1.2681
  69   0.0000       0.116045         3.1577
  70   0.0000       0.120939         3.2909
  71   0.0000       0.126922         3.4537

MULLIKEN ATOMIC CHARGES
-----------------------
   0 S :    0.129131
   1 C :   -0.125749
   2 C :   -0.070063
   3 C :    0.070504
   4 C :   -0.171397
   5 H :   -0.009842
   6 C :   -0.017396
   7 H :    0.040203
   8 H :    0.037348
   9 C :   -0.025899
  10 H :    0.003632
  11 H :    0.025489
  12 C :   -0.024978
  13 H :    0.032429
  14 H :    0.037195
  15 H :    0.003842
  16 S :    0.126850
  17 C :   -0.039946
  18 C :   -0.083249
  19 C :   -0.045555
  20 C :   -0.208362
  21 H :    0.033323
  22 C :    0.137304
  23 H :    0.025367
  24 H :    0.029653
  25 C :   -0.069276
  26 H :    0.025007
  27 H :    0.026401
  28 C :   -0.066088
  29 H :    0.036509
  30 H :    0.040659
  31 H :    0.023083
  32 H :    0.057613
  33 H :    0.016259
Sum of atomic charges:   -0.0000000

LOEWDIN ATOMIC CHARGES
----------------------
   0 S :    0.421680
   1 C :   -0.207710
   2 C :   -0.061725
   3 C :   -0.050174
   4 C :   -0.201870
   5 H :    0.024272
   6 C :   -0.038317
   7 H :    0.032875
   8 H :    0.039094
   9 C :   -0.037448
  10 H :    0.011810
  11 H :    0.025307
  12 C :   -0.068531
  13 H :    0.034336
  14 H :    0.024442
  15 H :    0.016425
  16 S :    0.418113
  17 C :   -0.187491
  18 C :   -0.082799
  19 C :   -0.045471
  20 C :   -0.195230
  21 H :    0.036618
  22 C :   -0.024657
  23 H :    0.028602
  24 H :    0.037830
  25 C :   -0.042667
  26 H :    0.012307
  27 H :    0.027545
  28 C :   -0.067125
  29 H :    0.024376
  30 H :    0.035574
  31 H :    0.018067
  32 H :    0.036680
  33 H :    0.005265

  Mayer bond orders larger than 0.100000
B(  0-S ,  1-C ) :   1.1199 B(  0-S ,  4-C ) :   1.1609 B(  1-C ,  2-C ) :   1.6310
B(  1-C , 32-H ) :   0.9625 B(  2-C ,  3-C ) :   1.2147 B(  2-C ,  6-C ) :   0.9917
B(  3-C ,  4-C ) :   1.5685 B(  3-C ,  5-H ) :   1.0120 B(  4-C , 20-C ) :   1.0272
B(  6-C ,  7-H ) :   0.9606 B(  6-C ,  8-H ) :   0.9445 B(  6-C ,  9-C ) :   1.0721
B(  9-C , 10-H ) :   0.9530 B(  9-C , 11-H ) :   0.9500 B(  9-C , 12-C ) :   1.0865
B( 12-C , 13-H ) :   0.9684 B( 12-C , 14-H ) :   0.9728 B( 12-C , 15-H ) :   0.9681
B( 16-S , 17-C ) :   1.1873 B( 16-S , 20-C ) :   1.1333 B( 17-C , 18-C ) :   1.5986
B( 17-C , 20-C ) :   0.1038 B( 17-C , 33-H ) :   0.9698 B( 18-C , 19-C ) :   1.2384
B( 18-C , 21-H ) :   0.9826 B( 19-C , 20-C ) :   1.6066 B( 19-C , 22-C ) :   1.0151
B( 22-C , 23-H ) :   0.9291 B( 22-C , 24-H ) :   0.9409 B( 22-C , 25-C ) :   1.0625
B( 25-C , 26-H ) :   0.9657 B( 25-C , 27-H ) :   0.9542 B( 25-C , 28-C ) :   1.0529
B( 28-C , 29-H ) :   0.9796 B( 28-C , 30-H ) :   0.9765 B( 28-C , 31-H ) :   0.9774

Dispersion correction           -0.015441029
FINAL SINGLE POINT ENERGY     -1339.856049551632

DIPOLE MOMENT
-------------
                                X             Y             Z
Electronic contribution:      8.61318      10.28612      -3.41309
Nuclear contribution   :     -8.97288     -10.58807       3.23154
                        -----------------------------------------
Total Dipole Moment    :     -0.35970      -0.30195      -0.18155
                        -----------------------------------------
Magnitude (a.u.)       :      0.50351
Magnitude (Debye)      :      1.27981

Rotational constants in cm-1:     0.023902     0.008324     0.007197
Rotational constants in MHz :   716.556053   249.544437   215.764433

                             ****ORCA TERMINATED NORMALLY****
TOTAL RUN TIME: 0 days 0 hours 0 minutes 31 seconds 400 msec
