                         Program Version 4.2.1 -  RELEASE  -
|  1> ! wB97X-D3 SP def2-SVP
|  2> %pal
|  3> nprocs 16
|  4> end
|  5>
|  6> * xyz 0 1
|  7> S 	 -22.4576 	 33.5115 	 39.6588
|  8> C 	 -21.5472 	 32.1769 	 40.4453
|  9> C 	 -22.3754 	 31.3881 	 41.2472
| 10> C 	 -23.6375 	 31.9307 	 41.3661
| 11> C 	 -23.87 	 33.1424 	 40.6616
| 12> H 	 -24.3882 	 31.5673 	 42.0774
| 13> C 	 -22.1432 	 30.0002 	 41.891
| 14> H 	 -23.0523 	 29.3572 	 41.6646
| 15> H 	 -22.1611 	 30.1732 	 42.9797
| 16> C 	 -20.9396 	 29.1703 	 41.4307
| 17> H 	 -20.8546 	 29.1537 	 40.2947
| 18> H 	 -20.1295 	 29.7492 	 41.8425
| 19> C 	 -20.8712 	 27.8001 	 42.0936
| 20> H 	 -20.0334 	 27.2833 	 41.6752
| 21> H 	 -20.699 	 27.7705 	 43.1731
| 22> H 	 -21.8613 	 27.2477 	 41.9826
| 23> S 	 -25.7623 	 34.1964 	 38.8866
| 24> C 	 -27.119 	 35.0102 	 39.5532
| 25> C 	 -27.0615 	 35.1508 	 40.9061
| 26> C 	 -26.0367 	 34.3684 	 41.5209
| 27> C 	 -25.1956 	 33.8148 	 40.5518
| 28> H 	 -27.8623 	 35.7366 	 41.3644
| 29> C 	 -25.8735 	 34.5032 	 42.9877
| 30> H 	 -25.454 	 33.546 	 43.4037
| 31> H 	 -26.8528 	 34.4829 	 43.4571
| 32> C 	 -25.0644 	 35.6227 	 43.4657
| 33> H 	 -25.545 	 36.5592 	 43.3877
| 34> H 	 -24.1423 	 35.6996 	 42.8249
| 35> C 	 -24.5483 	 35.3806 	 44.898
| 36> H 	 -23.6507 	 36.0095 	 45.0002
| 37> H 	 -24.3471 	 34.2724 	 45.1392
| 38> H 	 -25.2225 	 35.749 	 45.7373
| 39> H 	 -20.6211 	 31.9592 	 40.1232
| 40> H 	 -27.9623 	 35.4763 	 38.9748
| 41> *
| 42>
| 43>                          ****END OF INPUT****

CARTESIAN COORDINATES (ANGSTROEM)
---------------------------------
  S    -22.457600   33.511500   39.658800
  C    -21.547200   32.176900   40.445300
  C    -22.375400   31.388100   41.247200
  C    -23.637500   31.930700   41.366100
  C    -23.870000   33.142400   40.661600
  H    -24.388200   31.567300   42.077400
  C    -22.143200   30.000200   41.891000
  H    -23.052300   29.357200   41.664600
  H    -22.161100   30.173200   42.979700
  C    -20.939600   29.170300   41.430700
  H    -20.854600   29.153700   40.294700
  H    -20.129500   29.749200   41.842500
  C    -20.871200   27.800100   42.093600
  H    -20.033400   27.283300   41.675200
  H    -20.699000   27.770500   43.173100
  H    -21.861300   27.247700   41.982600
  S    -25.762300   34.196400   38.886600
  C    -27.119000   35.010200   39.553200
  C    -27.061500   35.150800   40.906100
  C    -26.036700   34.368400   41.520900
  C    -25.195600   33.814800   40.551800
  H    -27.862300   35.736600   41.364400
  C    -25.873500   34.503200   42.987700
  H    -25.454000   33.546000   43.403700
  H    -26.852800   34.482900   43.457100
  C    -25.064400   35.622700   43.465700
  H    -25.545000   36.559200   43.387700
  H    -24.142300   35.699600   42.824900
  C    -24.548300   35.380600   44.898000
  H    -23.650700   36.009500   45.000200
  H    -24.347100   34.272400   45.139200
  H    -25.222500   35.749000   45.737300
  H    -20.621100   31.959200   40.123200
  H    -27.962300   35.476300   38.974800

 Total Charge           Charge          ....    0
 Multiplicity           Mult            ....    1
 Number of Electrons    NEL             ....  134
 Basis Dimension        Dim             ....  322

ORBITAL ENERGIES
----------------

  NO   OCC          E(Eh)            E(eV)
   0   2.0000     -88.969870     -2420.9932
   1   2.0000     -88.966173     -2420.8927
   2   2.0000     -10.335668      -281.2478
   3   2.0000     -10.333917      -281.2002
   4   2.0000     -10.314711      -280.6776
   5   2.0000     -10.311429      -280.5882
   6   2.0000     -10.303563      -280.3742
   7   2.0000     -10.302205      -280.3373
   8   2.0000     -10.301230      -280.3107
   9   2.0000     -10.292024      -280.0602
  10   2.0000     -10.290700      -280.0242
  11   2.0000     -10.288777      -279.9719
  12   2.0000     -10.287086      -279.9258
  13   2.0000     -10.286152      -279.9004
  14   2.0000     -10.283854      -279.8379
  15   2.0000     -10.281061      -279.7619
  16   2.0000      -8.083186      -219.9547
  17   2.0000      -8.080851      -219.8911
  18   2.0000      -6.041749      -164.4043
  19   2.0000      -6.039331      -164.3385
  20   2.0000      -6.037911      -164.2999
  21   2.0000      -6.035486      -164.2339
  22   2.0000      -6.033964      -164.1925
  23   2.0000      -6.031527      -164.1262
  24   2.0000      -1.000936       -27.2369
  25   2.0000      -0.981225       -26.7005
  26   2.0000      -0.919143       -25.0111
  27   2.0000      -0.909352       -24.7447
  28   2.0000      -0.864460       -23.5231
  29   2.0000      -0.852416       -23.1954
  30   2.0000      -0.847635       -23.0653
  31   2.0000      -0.807009       -21.9598
  32   2.0000      -0.781284       -21.2598
  33   2.0000      -0.771199       -20.9854
  34   2.0000      -0.710815       -19.3423
  35   2.0000      -0.699348       -19.0302
  36   2.0000      -0.686050       -18.6684
  37   2.0000      -0.656178       -17.8555
  38   2.0000      -0.641283       -17.4502
  39   2.0000      -0.614725       -16.7275
  40   2.0000      -0.598072       -16.2744
  41   2.0000      -0.571221       -15.5437
  42   2.0000      -0.567015       -15.4293
  43   2.0000      -0.560127       -15.2418
  44   2.0000      -0.526910       -14.3379
  45   2.0000      -0.521427       -14.1888
  46   2.0000      -0.519408       -14.1338
  47   2.0000      -0.507449       -13.8084
  48   2.0000      -0.502061       -13.6618
  49   2.0000      -0.496885       -13.5209
  50   2.0000      -0.485724       -13.2172
  51   2.0000      -0.478150       -13.0111
  52   2.0000      -0.475990       -12.9523
  53   2.0000      -0.460039       -12.5183
  54   2.0000      -0.457135       -12.4393
  55   2.0000      -0.449806       -12.2398
  56   2.0000      -0.445132       -12.1127
  57   2.0000      -0.436149       -11.8682
  58   2.0000      -0.428975       -11.6730
  59   2.0000      -0.427225       -11.6254
  60   2.0000      -0.420947       -11.4546
  61   2.0000      -0.411770       -11.2048
  62   2.0000      -0.406031       -11.0487
  63   2.0000      -0.344718        -9.3803
  64   2.0000      -0.333716        -9.0809
  65   2.0000      -0.332659        -9.0521
  66   2.0000      -0.285853        -7.7785
  67   0.0000       0.026745         0.7278
  68   0.0000       0.063276         1.7218
  69   0.0000       0.107429         2.9233
  70   0.0000       0.124291         3.3821
  71   0.0000       0.128771         3.5040

MULLIKEN ATOMIC CHARGES
-----------------------
   0 S :    0.098409
   1 C :   -0.102435
   2 C :   -0.019846
   3 C :   -0.005760
   4 C :   -0.136786
   5 H :    0.022623
   6 C :   -0.006158
   7 H :    0.042001
   8 H :    0.044616
   9 C :   -0.082559
  10 H :    0.053895
  11 H :    0.026666
  12 C :   -0.044248
  13 H :    0.034942
  14 H :    0.030406
  15 H :    0.036188
  16 S :    0.106329
  17 C :   -0.104309
  18 C :   -0.051561
  19 C :   -0.026829
  20 C :   -0.164115
  21 H :    0.022671
  22 C :    0.075904
  23 H :    0.006425
  24 H :    0.016778
  25 C :   -0.034693
  26 H :    0.020189
  27 H :    0.042187
  28 C :   -0.097842
  29 H :    0.038877
  30 H :    0.046491
  31 H :    0.038531
  32 H :    0.002438
  33 H :    0.070575
Sum of atomic charges:   -0.0000000

LOEWDIN ATOMIC CHARGES
----------------------
   0 S :    0.384634
   1 C :   -0.170487
   2 C :   -0.059780
   3 C :   -0.065855
   4 C :   -0.188929
   5 H :    0.032423
   6 C :   -0.035269
   7 H :    0.035843
   8 H :    0.035399
   9 C :   -0.051289
  10 H :    0.035397
  11 H :    0.023753
  12 C :   -0.067979
  13 H :    0.026152
  14 H :    0.026917
  15 H :    0.030665
  16 S :    0.396048
  17 C :   -0.200471
  18 C :   -0.077899
  19 C :   -0.053281
  20 C :   -0.179786
  21 H :    0.034393
  22 C :   -0.041444
  23 H :    0.030733
  24 H :    0.030934
  25 C :   -0.040431
  26 H :    0.020621
  27 H :    0.036281
  28 C :   -0.075267
  29 H :    0.028670
  30 H :    0.032684
  31 H :    0.027650
  32 H :   -0.002088
  33 H :    0.041058

  Mayer bond orders larger than 0.100000
B(  0-S ,  1-C ) :   1.1332 B(  0-S ,  4-C ) :   1.1539 B(  1-C ,  2-C ) :   1.5745
B(  1-C ,  4-C ) :   0.1096 B(  1-C , 32-H ) :   0.9846 B(  2-C ,  3-C ) :   1.2948
B(  2-C ,  6-C ) :   0.9918 B(  3-C ,  4-C ) :   1.5398 B(  3-C ,  5-H ) :   0.9868
B(  4-C , 20-C ) :   1.0486 B(  6-C ,  7-H ) :   0.9526 B(  6-C ,  8-H ) :   0.9392
B(  6-C ,  9-C ) :   1.0654 B(  9-C , 10-H ) :   0.9580 B(  9-C , 11-H ) :   0.9453
B(  9-C , 12-C ) :   1.0875 B( 12-C , 13-H ) :   0.9721 B( 12-C , 14-H ) :   0.9727
B( 12-C , 15-H ) :   0.9739 B( 16-S , 17-C ) :   1.1513 B( 16-S , 20-C ) :   1.1293
B( 17-C , 18-C ) :   1.6433 B( 17-C , 33-H ) :   0.9553 B( 18-C , 19-C ) :   1.2211
B( 18-C , 21-H ) :   0.9861 B( 19-C , 20-C ) :   1.5989 B( 19-C , 22-C ) :   1.0659
B( 22-C , 23-H ) :   0.9250 B( 22-C , 24-H ) :   0.9151 B( 22-C , 25-C ) :   1.0769
B( 25-C , 26-H ) :   0.9455 B( 25-C , 27-H ) :   0.9575 B( 25-C , 28-C ) :   1.0715
B( 28-C , 29-H ) :   0.9768 B( 28-C , 30-H ) :   0.9750 B( 28-C , 31-H ) :   0.9747

Dispersion correction           -0.013557990
FINAL SINGLE POINT ENERGY     -1339.860997785998

DIPOLE MOMENT
-------------
                                X             Y             Z
Electronic contribution:     -7.01851      12.12187     -23.30459
Nuclear contribution   :      6.94142     -12.30406      23.85398
                        -----------------------------------------
Total Dipole Moment    :     -0.07709      -0.18219       0.54939
                        -----------------------------------------
Magnitude (a.u.)       :      0.58392
Magnitude (Debye)      :      1.48420

Rotational constants in cm-1:     0.019422     0.007480     0.006225
Rotational constants in MHz :   582.256101   224.245977   186.632329

                             ****ORCA TERMINATED NORMALLY****
TOTAL RUN TIME: 0 days 0 hours 0 minutes 32 seconds 310 msec
