                         Program Version 4.2.1 -  RELEASE  -
|  1> ! wB97X-D3 SP def2-SVP
|  2> %pal
|  3> nprocs 16
|  4> end
|  5>
|  6> * xyz 0 1
|  7> S 	 46.3 	 13.5091 	 102.593
|  8> C 	 47.0957 	 15.0211 	 101.978
|  9> C 	 47.0886 	 15.135 	 100.626
| 10> C 	 46.3365 	 14.0378 	 100.036
| 11> C 	 45.9273 	 13.0439 	 100.919
| 12> H 	 46.0829 	 13.9063 	 99.014
| 13> C 	 47.5264 	 16.3235 	 99.8611
| 14> H 	 47.7892 	 15.9175 	 98.8933
| 15> H 	 48.4886 	 16.5411 	 100.264
| 16> C 	 46.6659 	 17.6338 	 100.052
| 17> H 	 46.3456 	 17.7181 	 101.06
| 18> H 	 47.2301 	 18.5794 	 99.7332
| 19> C 	 45.3733 	 17.5682 	 99.2601
| 20> H 	 45.6125 	 17.0081 	 98.3759
| 21> H 	 44.4941 	 17.0709 	 99.8071
| 22> H 	 44.9844 	 18.5668 	 99.045
| 23> S 	 44.2337 	 11.2377 	 102.232
| 24> C 	 43.291 	 10.1126 	 101.232
| 25> C 	 43.4314 	 10.3002 	 99.8497
| 26> C 	 44.4439 	 11.2934 	 99.6007
| 27> C 	 45.0451 	 11.876 	 100.758
| 28> H 	 42.8454 	 9.79957 	 99.1086
| 29> C 	 44.9687 	 11.4531 	 98.1611
| 30> H 	 45.1013 	 10.4563 	 97.8106
| 31> H 	 45.956 	 11.9663 	 98.2008
| 32> C 	 43.9229 	 12.0026 	 97.2003
| 33> H 	 43.2089 	 11.1772 	 97.0592
| 34> H 	 44.3546 	 12.1627 	 96.2286
| 35> C 	 43.2984 	 13.3016 	 97.6101
| 36> H 	 42.3224 	 13.4479 	 97.1554
| 37> H 	 43.8712 	 14.181 	 97.3806
| 38> H 	 43.0945 	 13.2664 	 98.6358
| 39> H 	 47.5945 	 15.839 	 102.587
| 40> H 	 42.5666 	 9.35002 	 101.548
| 41> *
| 42>
| 43>                          ****END OF INPUT****

CARTESIAN COORDINATES (ANGSTROEM)
---------------------------------
  S     46.300000   13.509100  102.593000
  C     47.095700   15.021100  101.978000
  C     47.088600   15.135000  100.626000
  C     46.336500   14.037800  100.036000
  C     45.927300   13.043900  100.919000
  H     46.082900   13.906300   99.014000
  C     47.526400   16.323500   99.861100
  H     47.789200   15.917500   98.893300
  H     48.488600   16.541100  100.264000
  C     46.665900   17.633800  100.052000
  H     46.345600   17.718100  101.060000
  H     47.230100   18.579400   99.733200
  C     45.373300   17.568200   99.260100
  H     45.612500   17.008100   98.375900
  H     44.494100   17.070900   99.807100
  H     44.984400   18.566800   99.045000
  S     44.233700   11.237700  102.232000
  C     43.291000   10.112600  101.232000
  C     43.431400   10.300200   99.849700
  C     44.443900   11.293400   99.600700
  C     45.045100   11.876000  100.758000
  H     42.845400    9.799570   99.108600
  C     44.968700   11.453100   98.161100
  H     45.101300   10.456300   97.810600
  H     45.956000   11.966300   98.200800
  C     43.922900   12.002600   97.200300
  H     43.208900   11.177200   97.059200
  H     44.354600   12.162700   96.228600
  C     43.298400   13.301600   97.610100
  H     42.322400   13.447900   97.155400
  H     43.871200   14.181000   97.380600
  H     43.094500   13.266400   98.635800
  H     47.594500   15.839000  102.587000
  H     42.566600    9.350020  101.548000

 Total Charge           Charge          ....    0
 Multiplicity           Mult            ....    1
 Number of Electrons    NEL             ....  134
 Basis Dimension        Dim             ....  322

ORBITAL ENERGIES
----------------

  NO   OCC          E(Eh)            E(eV)
   0   2.0000     -88.972402     -2421.0621
   1   2.0000     -88.966068     -2420.8898
   2   2.0000     -10.337512      -281.2980
   3   2.0000     -10.336789      -281.2783
   4   2.0000     -10.327059      -281.0136
   5   2.0000     -10.318941      -280.7927
   6   2.0000     -10.311059      -280.5782
   7   2.0000     -10.299824      -280.2725
   8   2.0000     -10.299574      -280.2657
   9   2.0000     -10.295244      -280.1478
  10   2.0000     -10.294621      -280.1309
  11   2.0000     -10.291543      -280.0471
  12   2.0000     -10.291424      -280.0439
  13   2.0000     -10.284265      -279.8491
  14   2.0000     -10.277529      -279.6658
  15   2.0000     -10.264414      -279.3089
  16   2.0000      -8.085572      -220.0196
  17   2.0000      -8.079513      -219.8547
  18   2.0000      -6.044306      -164.4739
  19   2.0000      -6.040393      -164.3675
  20   2.0000      -6.038344      -164.3117
  21   2.0000      -6.036081      -164.2501
  22   2.0000      -6.034403      -164.2044
  23   2.0000      -6.029817      -164.0797
  24   2.0000      -0.997503       -27.1434
  25   2.0000      -0.974686       -26.5226
  26   2.0000      -0.916575       -24.9413
  27   2.0000      -0.912083       -24.8190
  28   2.0000      -0.867625       -23.6093
  29   2.0000      -0.849151       -23.1066
  30   2.0000      -0.841063       -22.8865
  31   2.0000      -0.815054       -22.1787
  32   2.0000      -0.786714       -21.4076
  33   2.0000      -0.773580       -21.0502
  34   2.0000      -0.708315       -19.2742
  35   2.0000      -0.703858       -19.1530
  36   2.0000      -0.689610       -18.7653
  37   2.0000      -0.661834       -18.0094
  38   2.0000      -0.632490       -17.2109
  39   2.0000      -0.615644       -16.7525
  40   2.0000      -0.588302       -16.0085
  41   2.0000      -0.572831       -15.5875
  42   2.0000      -0.558812       -15.2060
  43   2.0000      -0.553236       -15.0543
  44   2.0000      -0.551021       -14.9941
  45   2.0000      -0.537330       -14.6215
  46   2.0000      -0.520616       -14.1667
  47   2.0000      -0.513304       -13.9677
  48   2.0000      -0.499077       -13.5806
  49   2.0000      -0.493771       -13.4362
  50   2.0000      -0.490480       -13.3466
  51   2.0000      -0.473609       -12.8876
  52   2.0000      -0.467834       -12.7304
  53   2.0000      -0.463179       -12.6037
  54   2.0000      -0.455828       -12.4037
  55   2.0000      -0.453402       -12.3377
  56   2.0000      -0.443030       -12.0555
  57   2.0000      -0.436551       -11.8791
  58   2.0000      -0.431236       -11.7345
  59   2.0000      -0.425740       -11.5850
  60   2.0000      -0.420460       -11.4413
  61   2.0000      -0.416115       -11.3231
  62   2.0000      -0.410519       -11.1708
  63   2.0000      -0.359323        -9.7777
  64   2.0000      -0.337370        -9.1803
  65   2.0000      -0.326336        -8.8800
  66   2.0000      -0.279004        -7.5921
  67   0.0000       0.013441         0.3658
  68   0.0000       0.074171         2.0183
  69   0.0000       0.084163         2.2902
  70   0.0000       0.112574         3.0633
  71   0.0000       0.131788         3.5861

MULLIKEN ATOMIC CHARGES
-----------------------
   0 S :    0.068073
   1 C :   -0.137010
   2 C :   -0.095579
   3 C :    0.005815
   4 C :   -0.100725
   5 H :   -0.016424
   6 C :    0.083092
   7 H :    0.022538
   8 H :    0.014135
   9 C :   -0.048226
  10 H :    0.025306
  11 H :    0.049121
  12 C :   -0.074524
  13 H :    0.026322
  14 H :    0.051644
  15 H :    0.032686
  16 S :    0.092886
  17 C :   -0.078272
  18 C :   -0.029038
  19 C :   -0.096296
  20 C :   -0.098836
  21 H :    0.020476
  22 C :    0.054271
  23 H :    0.025825
  24 H :    0.039257
  25 C :   -0.077519
  26 H :    0.023256
  27 H :    0.024185
  28 C :   -0.016571
  29 H :    0.023196
  30 H :    0.031962
  31 H :    0.027681
  32 H :    0.064224
  33 H :    0.063069
Sum of atomic charges:    0.0000000

LOEWDIN ATOMIC CHARGES
----------------------
   0 S :    0.354725
   1 C :   -0.183585
   2 C :   -0.065543
   3 C :   -0.066327
   4 C :   -0.167709
   5 H :    0.019169
   6 C :   -0.036018
   7 H :    0.032011
   8 H :    0.031798
   9 C :   -0.033464
  10 H :    0.022316
  11 H :    0.034999
  12 C :   -0.072602
  13 H :    0.018317
  14 H :    0.036366
  15 H :    0.025022
  16 S :    0.376911
  17 C :   -0.173379
  18 C :   -0.068493
  19 C :   -0.049706
  20 C :   -0.190597
  21 H :    0.030687
  22 C :   -0.031169
  23 H :    0.031330
  24 H :    0.030984
  25 C :   -0.041130
  26 H :    0.023759
  27 H :    0.023945
  28 C :   -0.062894
  29 H :    0.028925
  30 H :    0.023930
  31 H :    0.020288
  32 H :    0.041697
  33 H :    0.035440

  Mayer bond orders larger than 0.100000
B(  0-S ,  1-C ) :   1.1063 B(  0-S ,  4-C ) :   1.1177 B(  1-C ,  2-C ) :   1.6702
B(  1-C , 32-H ) :   0.9523 B(  2-C ,  3-C ) :   1.1967 B(  2-C ,  6-C ) :   1.0259
B(  3-C ,  4-C ) :   1.6076 B(  3-C ,  5-H ) :   0.9840 B(  4-C , 20-C ) :   1.0805
B(  6-C ,  7-H ) :   0.9407 B(  6-C ,  8-H ) :   0.9225 B(  6-C ,  9-C ) :   1.0594
B(  9-C , 10-H ) :   0.9556 B(  9-C , 11-H ) :   0.9584 B(  9-C , 12-C ) :   1.0688
B( 12-C , 13-H ) :   0.9799 B( 12-C , 14-H ) :   0.9761 B( 12-C , 15-H ) :   0.9739
B( 16-S , 17-C ) :   1.1493 B( 16-S , 20-C ) :   1.1095 B( 17-C , 18-C ) :   1.6205
B( 17-C , 33-H ) :   0.9607 B( 18-C , 19-C ) :   1.2405 B( 18-C , 21-H ) :   0.9887
B( 19-C , 20-C ) :   1.5844 B( 19-C , 22-C ) :   1.0246 B( 22-C , 23-H ) :   0.9406
B( 22-C , 24-H ) :   0.9440 B( 22-C , 25-C ) :   1.0659 B( 25-C , 26-H ) :   0.9554
B( 25-C , 27-H ) :   0.9529 B( 25-C , 28-C ) :   1.0874 B( 28-C , 29-H ) :   0.9677
B( 28-C , 30-H ) :   0.9709 B( 28-C , 31-H ) :   0.9709

Dispersion correction           -0.015222448
FINAL SINGLE POINT ENERGY     -1339.856276564776

DIPOLE MOMENT
-------------
                                X             Y             Z
Electronic contribution:      2.85822     -16.70882      23.26151
Nuclear contribution   :     -3.03812      16.98351     -23.97895
                        -----------------------------------------
Total Dipole Moment    :     -0.17991       0.27469      -0.71744
                        -----------------------------------------
Magnitude (a.u.)       :      0.78901
Magnitude (Debye)      :      2.00552

Rotational constants in cm-1:     0.019012     0.009747     0.007125
Rotational constants in MHz :   569.974995   292.208470   213.590727

                             ****ORCA TERMINATED NORMALLY****
TOTAL RUN TIME: 0 days 0 hours 0 minutes 31 seconds 127 msec
