                         Program Version 4.2.1 -  RELEASE  -
|  1> ! wB97X-D3 SP def2-SVP
|  2> %pal
|  3> nprocs 16
|  4> end
|  5>
|  6> * xyz 0 1
|  7> S 	 65.4483 	 18.2275 	 73.8603
|  8> C 	 66.1442 	 17.74 	 72.398
|  9> C 	 67.3623 	 17.1571 	 72.6427
| 10> C 	 67.6961 	 17.0042 	 74.0492
| 11> C 	 66.804 	 17.7038 	 74.8452
| 12> H 	 68.5975 	 16.6067 	 74.5301
| 13> C 	 68.306 	 16.6491 	 71.5378
| 14> H 	 67.7109 	 16.6515 	 70.5458
| 15> H 	 68.5251 	 15.6464 	 71.8865
| 16> C 	 69.6224 	 17.5016 	 71.4656
| 17> H 	 70.1317 	 17.1975 	 72.2589
| 18> H 	 70.2317 	 17.1245 	 70.6374
| 19> C 	 69.53 	 19.0321 	 71.3193
| 20> H 	 69.4701 	 19.3617 	 70.2647
| 21> H 	 68.7256 	 19.4211 	 71.9463
| 22> H 	 70.3315 	 19.6491 	 71.7858
| 23> S 	 65.2948 	 17.8406 	 77.218
| 24> C 	 66.1154 	 17.9368 	 78.7289
| 25> C 	 67.4569 	 17.9205 	 78.5522
| 26> C 	 67.8427 	 17.7859 	 77.1973
| 27> C 	 66.8158 	 17.8605 	 76.2977
| 28> H 	 68.2196 	 18.0268 	 79.35
| 29> C 	 69.3464 	 17.9798 	 76.8427
| 30> H 	 69.7066 	 18.7053 	 77.5267
| 31> H 	 69.4218 	 18.5506 	 75.8748
| 32> C 	 70.2634 	 16.727 	 76.8401
| 33> H 	 69.8106 	 15.9493 	 76.2215
| 34> H 	 70.229 	 16.2159 	 77.7701
| 35> C 	 71.6689 	 17.1124 	 76.3228
| 36> H 	 71.6985 	 17.129 	 75.2945
| 37> H 	 72.4592 	 16.3677 	 76.5091
| 38> H 	 72.1555 	 17.9532 	 76.7317
| 39> H 	 65.846 	 18.0718 	 71.3661
| 40> H 	 65.5865 	 17.8694 	 79.6684
| 41> *
| 42>
| 43>                          ****END OF INPUT****

CARTESIAN COORDINATES (ANGSTROEM)
---------------------------------
  S     65.448300   18.227500   73.860300
  C     66.144200   17.740000   72.398000
  C     67.362300   17.157100   72.642700
  C     67.696100   17.004200   74.049200
  C     66.804000   17.703800   74.845200
  H     68.597500   16.606700   74.530100
  C     68.306000   16.649100   71.537800
  H     67.710900   16.651500   70.545800
  H     68.525100   15.646400   71.886500
  C     69.622400   17.501600   71.465600
  H     70.131700   17.197500   72.258900
  H     70.231700   17.124500   70.637400
  C     69.530000   19.032100   71.319300
  H     69.470100   19.361700   70.264700
  H     68.725600   19.421100   71.946300
  H     70.331500   19.649100   71.785800
  S     65.294800   17.840600   77.218000
  C     66.115400   17.936800   78.728900
  C     67.456900   17.920500   78.552200
  C     67.842700   17.785900   77.197300
  C     66.815800   17.860500   76.297700
  H     68.219600   18.026800   79.350000
  C     69.346400   17.979800   76.842700
  H     69.706600   18.705300   77.526700
  H     69.421800   18.550600   75.874800
  C     70.263400   16.727000   76.840100
  H     69.810600   15.949300   76.221500
  H     70.229000   16.215900   77.770100
  C     71.668900   17.112400   76.322800
  H     71.698500   17.129000   75.294500
  H     72.459200   16.367700   76.509100
  H     72.155500   17.953200   76.731700
  H     65.846000   18.071800   71.366100
  H     65.586500   17.869400   79.668400

 Total Charge           Charge          ....    0
 Multiplicity           Mult            ....    1
 Number of Electrons    NEL             ....  134
 Basis Dimension        Dim             ....  322

ORBITAL ENERGIES
----------------

  NO   OCC          E(Eh)            E(eV)
   0   2.0000     -88.964092     -2420.8360
   1   2.0000     -88.963447     -2420.8185
   2   2.0000     -10.333318      -281.1839
   3   2.0000     -10.329868      -281.0900
   4   2.0000     -10.316520      -280.7268
   5   2.0000     -10.312396      -280.6146
   6   2.0000     -10.301858      -280.3278
   7   2.0000     -10.300834      -280.2999
   8   2.0000     -10.300289      -280.2851
   9   2.0000     -10.298347      -280.2323
  10   2.0000     -10.295338      -280.1504
  11   2.0000     -10.293485      -280.1000
  12   2.0000     -10.292286      -280.0673
  13   2.0000     -10.280299      -279.7411
  14   2.0000     -10.279938      -279.7313
  15   2.0000     -10.274716      -279.5892
  16   2.0000      -8.079343      -219.8501
  17   2.0000      -8.079227      -219.8469
  18   2.0000      -6.037935      -164.3006
  19   2.0000      -6.037774      -164.2962
  20   2.0000      -6.033766      -164.1871
  21   2.0000      -6.033504      -164.1800
  22   2.0000      -6.029972      -164.0839
  23   2.0000      -6.029965      -164.0837
  24   2.0000      -1.012310       -27.5464
  25   2.0000      -0.992124       -26.9971
  26   2.0000      -0.907159       -24.6851
  27   2.0000      -0.905965       -24.6526
  28   2.0000      -0.874285       -23.7905
  29   2.0000      -0.854172       -23.2432
  30   2.0000      -0.842695       -22.9309
  31   2.0000      -0.816636       -22.2218
  32   2.0000      -0.785118       -21.3641
  33   2.0000      -0.774719       -21.0812
  34   2.0000      -0.718293       -19.5458
  35   2.0000      -0.707864       -19.2620
  36   2.0000      -0.696083       -18.9414
  37   2.0000      -0.665219       -18.1015
  38   2.0000      -0.637288       -17.3415
  39   2.0000      -0.615643       -16.7525
  40   2.0000      -0.599494       -16.3131
  41   2.0000      -0.563386       -15.3305
  42   2.0000      -0.563068       -15.3218
  43   2.0000      -0.552306       -15.0290
  44   2.0000      -0.540238       -14.7006
  45   2.0000      -0.524070       -14.2607
  46   2.0000      -0.519102       -14.1255
  47   2.0000      -0.509880       -13.8745
  48   2.0000      -0.507526       -13.8105
  49   2.0000      -0.505237       -13.7482
  50   2.0000      -0.492357       -13.3977
  51   2.0000      -0.478410       -13.0182
  52   2.0000      -0.473074       -12.8730
  53   2.0000      -0.468016       -12.7354
  54   2.0000      -0.459673       -12.5083
  55   2.0000      -0.454861       -12.3774
  56   2.0000      -0.449566       -12.2333
  57   2.0000      -0.441206       -12.0058
  58   2.0000      -0.432110       -11.7583
  59   2.0000      -0.423065       -11.5122
  60   2.0000      -0.420043       -11.4299
  61   2.0000      -0.412215       -11.2169
  62   2.0000      -0.405184       -11.0256
  63   2.0000      -0.365088        -9.9346
  64   2.0000      -0.334222        -9.0946
  65   2.0000      -0.327095        -8.9007
  66   2.0000      -0.289215        -7.8700
  67   0.0000       0.023475         0.6388
  68   0.0000       0.082690         2.2501
  69   0.0000       0.112758         3.0683
  70   0.0000       0.118585         3.2269
  71   0.0000       0.124663         3.3922

MULLIKEN ATOMIC CHARGES
-----------------------
   0 S :    0.099940
   1 C :   -0.108300
   2 C :   -0.142152
   3 C :    0.028324
   4 C :   -0.142254
   5 H :    0.002314
   6 C :    0.048048
   7 H :    0.035744
   8 H :    0.035830
   9 C :   -0.010150
  10 H :   -0.014068
  11 H :    0.026535
  12 C :   -0.072552
  13 H :    0.043235
  14 H :    0.037855
  15 H :    0.031217
  16 S :    0.092127
  17 C :   -0.080820
  18 C :   -0.020580
  19 C :   -0.049559
  20 C :   -0.101889
  21 H :    0.028684
  22 C :   -0.016579
  23 H :    0.017184
  24 H :    0.038364
  25 C :   -0.024840
  26 H :    0.022319
  27 H :    0.014457
  28 C :   -0.011788
  29 H :    0.015007
  30 H :    0.019237
  31 H :    0.024776
  32 H :    0.072331
  33 H :    0.062007
Sum of atomic charges:    0.0000000

LOEWDIN ATOMIC CHARGES
----------------------
   0 S :    0.418829
   1 C :   -0.229904
   2 C :   -0.067951
   3 C :   -0.070223
   4 C :   -0.181507
   5 H :    0.033268
   6 C :   -0.026675
   7 H :    0.034061
   8 H :    0.033198
   9 C :   -0.035973
  10 H :    0.002495
  11 H :    0.028600
  12 C :   -0.077301
  13 H :    0.029253
  14 H :    0.028692
  15 H :    0.033327
  16 S :    0.400717
  17 C :   -0.184162
  18 C :   -0.077401
  19 C :   -0.064279
  20 C :   -0.185902
  21 H :    0.037574
  22 C :   -0.031832
  23 H :    0.023800
  24 H :    0.035182
  25 C :   -0.035986
  26 H :    0.022966
  27 H :    0.020176
  28 C :   -0.062574
  29 H :    0.016982
  30 H :    0.032211
  31 H :    0.022306
  32 H :    0.045981
  33 H :    0.032053

  Mayer bond orders larger than 0.100000
B(  0-S ,  1-C ) :   1.1370 B(  0-S ,  4-C ) :   1.1582 B(  1-C ,  2-C ) :   1.6230
B(  1-C , 32-H ) :   0.9564 B(  2-C ,  3-C ) :   1.2206 B(  2-C ,  6-C ) :   1.0135
B(  3-C ,  4-C ) :   1.5748 B(  3-C ,  5-H ) :   0.9817 B(  4-C , 20-C ) :   1.0572
B(  6-C ,  7-H ) :   0.9506 B(  6-C ,  8-H ) :   0.9411 B(  6-C ,  9-C ) :   1.0605
B(  9-C , 10-H ) :   0.9543 B(  9-C , 11-H ) :   0.9562 B(  9-C , 12-C ) :   1.0682
B( 12-C , 13-H ) :   0.9787 B( 12-C , 14-H ) :   0.9725 B( 12-C , 15-H ) :   0.9732
B( 16-S , 17-C ) :   1.1608 B( 16-S , 20-C ) :   1.1221 B( 17-C , 18-C ) :   1.5889
B( 17-C , 33-H ) :   0.9695 B( 18-C , 19-C ) :   1.2640 B( 18-C , 21-H ) :   0.9851
B( 19-C , 20-C ) :   1.6137 B( 19-C , 22-C ) :   1.0164 B( 22-C , 23-H ) :   0.9472
B( 22-C , 24-H ) :   0.9532 B( 22-C , 25-C ) :   1.0425 B( 25-C , 26-H ) :   0.9531
B( 25-C , 27-H ) :   0.9522 B( 25-C , 28-C ) :   1.0685 B( 28-C , 29-H ) :   0.9750
B( 28-C , 30-H ) :   0.9691 B( 28-C , 31-H ) :   0.9772

Dispersion correction           -0.014933865
FINAL SINGLE POINT ENERGY     -1339.863251679869

DIPOLE MOMENT
-------------
                                X             Y             Z
Electronic contribution:    -29.90717       1.84912      10.20056
Nuclear contribution   :     30.71434      -1.92539     -10.13695
                        -----------------------------------------
Total Dipole Moment    :      0.80717      -0.07627       0.06361
                        -----------------------------------------
Magnitude (a.u.)       :      0.81326
Magnitude (Debye)      :      2.06714

Rotational constants in cm-1:     0.017194     0.010417     0.006951
Rotational constants in MHz :   515.478119   312.304121   208.380129

                             ****ORCA TERMINATED NORMALLY****
TOTAL RUN TIME: 0 days 0 hours 0 minutes 31 seconds 621 msec
