                         Program Version 4.2.1 -  RELEASE  -
|  1> ! wB97X-D3 SP def2-SVP
|  2> %pal
|  3> nprocs 16
|  4> end
|  5>
|  6> * xyz 0 1
|  7> S 	 -2.35495 	 -18.7629 	 83.7177
|  8> C 	 -0.665306 	 -19.0083 	 83.3136
|  9> C 	 0.141165 	 -17.9919 	 83.8397
| 10> C 	 -0.598798 	 -17.0614 	 84.6202
| 11> C 	 -1.98904 	 -17.3026 	 84.6404
| 12> H 	 -0.247854 	 -16.3447 	 85.2864
| 13> C 	 1.64295 	 -17.8055 	 83.5217
| 14> H 	 1.77902 	 -18.2749 	 82.5628
| 15> H 	 2.20156 	 -18.2608 	 84.3762
| 16> C 	 2.12342 	 -16.3526 	 83.4002
| 17> H 	 1.40681 	 -15.929 	 82.6306
| 18> H 	 1.86251 	 -15.9114 	 84.3189
| 19> C 	 3.59399 	 -16.2331 	 82.988
| 20> H 	 3.83809 	 -15.3337 	 82.4841
| 21> H 	 4.3259 	 -16.4274 	 83.8418
| 22> H 	 3.95358 	 -17.0211 	 82.365
| 23> S 	 -4.18089 	 -17.5584 	 86.2673
| 24> C 	 -4.83814 	 -16.208 	 87.1522
| 25> C 	 -4.33856 	 -15.0356 	 86.6039
| 26> C 	 -3.24156 	 -15.2969 	 85.6924
| 27> C 	 -3.00502 	 -16.6323 	 85.4894
| 28> H 	 -4.64571 	 -14.1131 	 86.9832
| 29> C 	 -2.46374 	 -14.1567 	 85.067
| 30> H 	 -1.38588 	 -14.2338 	 85.19
| 31> H 	 -2.59978 	 -13.248 	 85.6277
| 32> C 	 -2.96579 	 -13.8646 	 83.6507
| 33> H 	 -3.99647 	 -13.4694 	 83.6916
| 34> H 	 -2.84663 	 -14.7676 	 83.0742
| 35> C 	 -2.02929 	 -12.8393 	 83.0242
| 36> H 	 -1.6578 	 -12.1321 	 83.7328
| 37> H 	 -2.49552 	 -12.2217 	 82.2386
| 38> H 	 -1.15519 	 -13.2356 	 82.5462
| 39> H 	 -0.261565 	 -19.7673 	 82.5806
| 40> H 	 -5.57399 	 -16.1784 	 87.9691
| 41> *
| 42>
| 43>                          ****END OF INPUT****

CARTESIAN COORDINATES (ANGSTROEM)
---------------------------------
  S     -2.354950  -18.762900   83.717700
  C     -0.665306  -19.008300   83.313600
  C      0.141165  -17.991900   83.839700
  C     -0.598798  -17.061400   84.620200
  C     -1.989040  -17.302600   84.640400
  H     -0.247854  -16.344700   85.286400
  C      1.642950  -17.805500   83.521700
  H      1.779020  -18.274900   82.562800
  H      2.201560  -18.260800   84.376200
  C      2.123420  -16.352600   83.400200
  H      1.406810  -15.929000   82.630600
  H      1.862510  -15.911400   84.318900
  C      3.593990  -16.233100   82.988000
  H      3.838090  -15.333700   82.484100
  H      4.325900  -16.427400   83.841800
  H      3.953580  -17.021100   82.365000
  S     -4.180890  -17.558400   86.267300
  C     -4.838140  -16.208000   87.152200
  C     -4.338560  -15.035600   86.603900
  C     -3.241560  -15.296900   85.692400
  C     -3.005020  -16.632300   85.489400
  H     -4.645710  -14.113100   86.983200
  C     -2.463740  -14.156700   85.067000
  H     -1.385880  -14.233800   85.190000
  H     -2.599780  -13.248000   85.627700
  C     -2.965790  -13.864600   83.650700
  H     -3.996470  -13.469400   83.691600
  H     -2.846630  -14.767600   83.074200
  C     -2.029290  -12.839300   83.024200
  H     -1.657800  -12.132100   83.732800
  H     -2.495520  -12.221700   82.238600
  H     -1.155190  -13.235600   82.546200
  H     -0.261565  -19.767300   82.580600
  H     -5.573990  -16.178400   87.969100

 Total Charge           Charge          ....    0
 Multiplicity           Mult            ....    1
 Number of Electrons    NEL             ....  134
 Basis Dimension        Dim             ....  322

ORBITAL ENERGIES
----------------

  NO   OCC          E(Eh)            E(eV)
   0   2.0000     -88.970624     -2421.0138
   1   2.0000     -88.964752     -2420.8540
   2   2.0000     -10.337258      -281.2911
   3   2.0000     -10.323559      -280.9183
   4   2.0000     -10.320783      -280.8428
   5   2.0000     -10.319091      -280.7967
   6   2.0000     -10.305217      -280.4192
   7   2.0000     -10.300567      -280.2927
   8   2.0000     -10.294991      -280.1409
   9   2.0000     -10.293226      -280.0929
  10   2.0000     -10.292121      -280.0629
  11   2.0000     -10.289997      -280.0051
  12   2.0000     -10.285757      -279.8897
  13   2.0000     -10.282178      -279.7923
  14   2.0000     -10.282151      -279.7915
  15   2.0000     -10.268351      -279.4160
  16   2.0000      -8.084627      -219.9939
  17   2.0000      -8.080714      -219.8874
  18   2.0000      -6.043140      -164.4422
  19   2.0000      -6.039224      -164.3356
  20   2.0000      -6.039187      -164.3346
  21   2.0000      -6.035479      -164.2337
  22   2.0000      -6.034959      -164.2196
  23   2.0000      -6.031463      -164.1244
  24   2.0000      -1.011230       -27.5170
  25   2.0000      -0.984207       -26.7816
  26   2.0000      -0.912151       -24.8209
  27   2.0000      -0.911223       -24.7956
  28   2.0000      -0.869271       -23.6541
  29   2.0000      -0.850821       -23.1520
  30   2.0000      -0.844853       -22.9896
  31   2.0000      -0.816805       -22.2264
  32   2.0000      -0.781439       -21.2640
  33   2.0000      -0.771011       -20.9803
  34   2.0000      -0.712137       -19.3782
  35   2.0000      -0.699222       -19.0268
  36   2.0000      -0.688172       -18.7261
  37   2.0000      -0.666986       -18.1496
  38   2.0000      -0.639531       -17.4025
  39   2.0000      -0.622121       -16.9288
  40   2.0000      -0.596277       -16.2255
  41   2.0000      -0.574055       -15.6208
  42   2.0000      -0.569280       -15.4909
  43   2.0000      -0.563093       -15.3225
  44   2.0000      -0.526158       -14.3175
  45   2.0000      -0.521980       -14.2038
  46   2.0000      -0.515322       -14.0226
  47   2.0000      -0.509261       -13.8577
  48   2.0000      -0.507768       -13.8171
  49   2.0000      -0.502420       -13.6716
  50   2.0000      -0.493590       -13.4313
  51   2.0000      -0.482549       -13.1308
  52   2.0000      -0.479140       -13.0381
  53   2.0000      -0.465751       -12.6737
  54   2.0000      -0.458777       -12.4840
  55   2.0000      -0.449765       -12.2387
  56   2.0000      -0.440406       -11.9840
  57   2.0000      -0.436687       -11.8829
  58   2.0000      -0.428059       -11.6481
  59   2.0000      -0.424757       -11.5582
  60   2.0000      -0.418434       -11.3862
  61   2.0000      -0.415511       -11.3066
  62   2.0000      -0.413775       -11.2594
  63   2.0000      -0.353957        -9.6317
  64   2.0000      -0.332923        -9.0593
  65   2.0000      -0.326887        -8.8951
  66   2.0000      -0.288896        -7.8613
  67   0.0000       0.028052         0.7633
  68   0.0000       0.071016         1.9325
  69   0.0000       0.109453         2.9784
  70   0.0000       0.121381         3.3029
  71   0.0000       0.132939         3.6175

MULLIKEN ATOMIC CHARGES
-----------------------
   0 S :    0.110895
   1 C :   -0.143884
   2 C :   -0.090390
   3 C :    0.026650
   4 C :   -0.142190
   5 H :   -0.001305
   6 C :    0.055662
   7 H :    0.021560
   8 H :    0.049440
   9 C :   -0.093350
  10 H :    0.041028
  11 H :    0.024069
  12 C :   -0.017840
  13 H :    0.035953
  14 H :    0.032333
  15 H :    0.014354
  16 S :    0.110589
  17 C :   -0.102118
  18 C :   -0.003377
  19 C :   -0.059735
  20 C :   -0.129773
  21 H :   -0.003441
  22 C :    0.046232
  23 H :    0.019951
  24 H :    0.000756
  25 C :   -0.046712
  26 H :    0.039382
  27 H :    0.041657
  28 C :   -0.033312
  29 H :    0.010170
  30 H :    0.025373
  31 H :    0.026362
  32 H :    0.070709
  33 H :    0.064300
Sum of atomic charges:    0.0000000

LOEWDIN ATOMIC CHARGES
----------------------
   0 S :    0.401777
   1 C :   -0.212482
   2 C :   -0.063166
   3 C :   -0.063443
   4 C :   -0.179041
   5 H :    0.019623
   6 C :   -0.029149
   7 H :    0.025390
   8 H :    0.036868
   9 C :   -0.042665
  10 H :    0.032919
  11 H :    0.014303
  12 C :   -0.068227
  13 H :    0.024203
  14 H :    0.036791
  15 H :    0.023250
  16 S :    0.433560
  17 C :   -0.191598
  18 C :   -0.060533
  19 C :   -0.058699
  20 C :   -0.221748
  21 H :    0.020168
  22 C :   -0.036482
  23 H :    0.027228
  24 H :    0.024704
  25 C :   -0.030837
  26 H :    0.030866
  27 H :    0.027238
  28 C :   -0.067786
  29 H :    0.016604
  30 H :    0.026321
  31 H :    0.023280
  32 H :    0.042666
  33 H :    0.038099

  Mayer bond orders larger than 0.100000
B(  0-S ,  1-C ) :   1.1371 B(  0-S ,  4-C ) :   1.1578 B(  1-C ,  2-C ) :   1.6118
B(  1-C ,  4-C ) :   0.1031 B(  1-C , 32-H ) :   0.9580 B(  2-C ,  3-C ) :   1.2499
B(  2-C ,  6-C ) :   1.0073 B(  3-C ,  4-C ) :   1.5621 B(  3-C ,  5-H ) :   0.9948
B(  4-C , 20-C ) :   1.0355 B(  6-C ,  7-H ) :   0.9471 B(  6-C ,  8-H ) :   0.9346
B(  6-C ,  9-C ) :   1.0767 B(  9-C , 10-H ) :   0.9603 B(  9-C , 11-H ) :   0.9505
B(  9-C , 12-C ) :   1.0744 B( 12-C , 13-H ) :   0.9760 B( 12-C , 14-H ) :   0.9693
B( 12-C , 15-H ) :   0.9729 B( 16-S , 17-C ) :   1.1625 B( 16-S , 20-C ) :   1.1443
B( 17-C , 18-C ) :   1.5964 B( 17-C , 33-H ) :   0.9676 B( 18-C , 19-C ) :   1.2568
B( 18-C , 21-H ) :   0.9975 B( 19-C , 20-C ) :   1.5851 B( 19-C , 22-C ) :   1.0432
B( 22-C , 23-H ) :   0.9414 B( 22-C , 24-H ) :   0.9231 B( 22-C , 25-C ) :   1.0629
B( 25-C , 26-H ) :   0.9543 B( 25-C , 27-H ) :   0.9626 B( 25-C , 28-C ) :   1.0775
B( 28-C , 29-H ) :   0.9700 B( 28-C , 30-H ) :   0.9733 B( 28-C , 31-H ) :   0.9756

Dispersion correction           -0.014157593
FINAL SINGLE POINT ENERGY     -1339.869132331165

DIPOLE MOMENT
-------------
                                X             Y             Z
Electronic contribution:    -22.31346     -20.04708      10.41423
Nuclear contribution   :     22.78498      20.56755     -10.42298
                        -----------------------------------------
Total Dipole Moment    :      0.47152       0.52046      -0.00875
                        -----------------------------------------
Magnitude (a.u.)       :      0.70234
Magnitude (Debye)      :      1.78521

Rotational constants in cm-1:     0.018056     0.009033     0.006838
Rotational constants in MHz :   541.290390   270.813929   204.988313

                             ****ORCA TERMINATED NORMALLY****
TOTAL RUN TIME: 0 days 0 hours 0 minutes 26 seconds 830 msec
