                         Program Version 4.2.1 -  RELEASE  -
|  1> ! wB97X-D3 SP def2-SVP
|  2> %pal
|  3> nprocs 16
|  4> end
|  5>
|  6> * xyz 0 1
|  7> S 	 -53.7198 	 20.2433 	 90.428
|  8> C 	 -52.2443 	 19.577 	 89.8584
|  9> C 	 -51.1914 	 20.4962 	 89.9335
| 10> C 	 -51.602 	 21.7322 	 90.5199
| 11> C 	 -52.9589 	 21.7823 	 90.7944
| 12> H 	 -50.8861 	 22.5603 	 90.7253
| 13> C 	 -49.815 	 20.2501 	 89.3634
| 14> H 	 -49.421 	 21.1152 	 88.7703
| 15> H 	 -49.8771 	 19.3924 	 88.6817
| 16> C 	 -48.7783 	 19.8757 	 90.4733
| 17> H 	 -47.7348 	 19.9775 	 90.0415
| 18> H 	 -48.7699 	 20.5283 	 91.3084
| 19> C 	 -48.9496 	 18.4638 	 90.9261
| 20> H 	 -49.9459 	 18.3183 	 91.3213
| 21> H 	 -48.6921 	 17.7917 	 90.0923
| 22> H 	 -48.3439 	 18.2939 	 91.7728
| 23> S 	 -55.3099 	 23.2105 	 90.4959
| 24> C 	 -55.5457 	 24.6254 	 91.4176
| 25> C 	 -54.4948 	 24.9259 	 92.2432
| 26> C 	 -53.3984 	 24.0015 	 92.1247
| 27> C 	 -53.6709 	 23.0106 	 91.168
| 28> H 	 -54.5575 	 25.7846 	 92.871
| 29> C 	 -52.1621 	 24.0619 	 93.0437
| 30> H 	 -51.8027 	 25.079 	 93.138
| 31> H 	 -51.3172 	 23.7176 	 92.4832
| 32> C 	 -52.2092 	 23.2769 	 94.4282
| 33> H 	 -52.2551 	 22.1491 	 94.3348
| 34> H 	 -53.1583 	 23.4598 	 94.9276
| 35> C 	 -51.0876 	 23.7136 	 95.3687
| 36> H 	 -50.0897 	 23.5547 	 95.0226
| 37> H 	 -51.2514 	 23.1842 	 96.2711
| 38> H 	 -51.1393 	 24.7902 	 95.555
| 39> H 	 -51.9738 	 18.5245 	 89.6969
| 40> H 	 -56.2898 	 25.3917 	 91.3959
| 41> *
| 42>
| 43>                          ****END OF INPUT****

CARTESIAN COORDINATES (ANGSTROEM)
---------------------------------
  S    -53.719800   20.243300   90.428000
  C    -52.244300   19.577000   89.858400
  C    -51.191400   20.496200   89.933500
  C    -51.602000   21.732200   90.519900
  C    -52.958900   21.782300   90.794400
  H    -50.886100   22.560300   90.725300
  C    -49.815000   20.250100   89.363400
  H    -49.421000   21.115200   88.770300
  H    -49.877100   19.392400   88.681700
  C    -48.778300   19.875700   90.473300
  H    -47.734800   19.977500   90.041500
  H    -48.769900   20.528300   91.308400
  C    -48.949600   18.463800   90.926100
  H    -49.945900   18.318300   91.321300
  H    -48.692100   17.791700   90.092300
  H    -48.343900   18.293900   91.772800
  S    -55.309900   23.210500   90.495900
  C    -55.545700   24.625400   91.417600
  C    -54.494800   24.925900   92.243200
  C    -53.398400   24.001500   92.124700
  C    -53.670900   23.010600   91.168000
  H    -54.557500   25.784600   92.871000
  C    -52.162100   24.061900   93.043700
  H    -51.802700   25.079000   93.138000
  H    -51.317200   23.717600   92.483200
  C    -52.209200   23.276900   94.428200
  H    -52.255100   22.149100   94.334800
  H    -53.158300   23.459800   94.927600
  C    -51.087600   23.713600   95.368700
  H    -50.089700   23.554700   95.022600
  H    -51.251400   23.184200   96.271100
  H    -51.139300   24.790200   95.555000
  H    -51.973800   18.524500   89.696900
  H    -56.289800   25.391700   91.395900

 Total Charge           Charge          ....    0
 Multiplicity           Mult            ....    1
 Number of Electrons    NEL             ....  134
 Basis Dimension        Dim             ....  322

ORBITAL ENERGIES
----------------

  NO   OCC          E(Eh)            E(eV)
   0   2.0000     -88.971256     -2421.0310
   1   2.0000     -88.968189     -2420.9475
   2   2.0000     -10.332167      -281.1526
   3   2.0000     -10.332038      -281.1490
   4   2.0000     -10.312843      -280.6267
   5   2.0000     -10.308999      -280.5221
   6   2.0000     -10.307899      -280.4922
   7   2.0000     -10.300292      -280.2852
   8   2.0000     -10.296651      -280.1861
   9   2.0000     -10.295842      -280.1641
  10   2.0000     -10.294181      -280.1189
  11   2.0000     -10.293667      -280.1049
  12   2.0000     -10.288537      -279.9653
  13   2.0000     -10.284771      -279.8628
  14   2.0000     -10.273671      -279.5608
  15   2.0000     -10.270441      -279.4729
  16   2.0000      -8.085942      -220.0297
  17   2.0000      -8.082996      -219.9495
  18   2.0000      -6.044516      -164.4796
  19   2.0000      -6.041537      -164.3986
  20   2.0000      -6.040387      -164.3673
  21   2.0000      -6.037501      -164.2888
  22   2.0000      -6.036714      -164.2673
  23   2.0000      -6.033707      -164.1855
  24   2.0000      -1.006605       -27.3911
  25   2.0000      -0.985459       -26.8157
  26   2.0000      -0.913555       -24.8591
  27   2.0000      -0.900764       -24.5110
  28   2.0000      -0.869187       -23.6518
  29   2.0000      -0.855494       -23.2792
  30   2.0000      -0.848278       -23.0828
  31   2.0000      -0.814813       -22.1722
  32   2.0000      -0.783490       -21.3199
  33   2.0000      -0.771369       -20.9900
  34   2.0000      -0.709600       -19.3092
  35   2.0000      -0.699594       -19.0369
  36   2.0000      -0.691262       -18.8102
  37   2.0000      -0.658053       -17.9065
  38   2.0000      -0.633737       -17.2449
  39   2.0000      -0.623725       -16.9724
  40   2.0000      -0.594337       -16.1727
  41   2.0000      -0.573543       -15.6069
  42   2.0000      -0.553426       -15.0595
  43   2.0000      -0.548763       -14.9326
  44   2.0000      -0.540989       -14.7210
  45   2.0000      -0.532220       -14.4824
  46   2.0000      -0.516944       -14.0668
  47   2.0000      -0.509991       -13.8776
  48   2.0000      -0.505125       -13.7451
  49   2.0000      -0.500559       -13.6209
  50   2.0000      -0.486411       -13.2359
  51   2.0000      -0.478477       -13.0200
  52   2.0000      -0.469264       -12.7693
  53   2.0000      -0.462257       -12.5787
  54   2.0000      -0.457012       -12.4359
  55   2.0000      -0.451598       -12.2886
  56   2.0000      -0.445856       -12.1324
  57   2.0000      -0.440111       -11.9760
  58   2.0000      -0.435653       -11.8547
  59   2.0000      -0.432594       -11.7715
  60   2.0000      -0.420834       -11.4515
  61   2.0000      -0.414083       -11.2678
  62   2.0000      -0.408932       -11.1276
  63   2.0000      -0.357611        -9.7311
  64   2.0000      -0.333097        -9.0640
  65   2.0000      -0.329726        -8.9723
  66   2.0000      -0.282929        -7.6989
  67   0.0000       0.027442         0.7467
  68   0.0000       0.072257         1.9662
  69   0.0000       0.113797         3.0966
  70   0.0000       0.116996         3.1836
  71   0.0000       0.131837         3.5875

MULLIKEN ATOMIC CHARGES
-----------------------
   0 S :    0.127039
   1 C :   -0.113659
   2 C :   -0.116141
   3 C :    0.003885
   4 C :   -0.125502
   5 H :    0.032066
   6 C :    0.048021
   7 H :    0.045637
   8 H :    0.019410
   9 C :   -0.078880
  10 H :    0.028615
  11 H :    0.017669
  12 C :   -0.030233
  13 H :    0.025585
  14 H :    0.036727
  15 H :    0.019865
  16 S :    0.113759
  17 C :   -0.060283
  18 C :   -0.045750
  19 C :   -0.041908
  20 C :   -0.155395
  21 H :    0.006367
  22 C :    0.093398
  23 H :    0.012279
  24 H :   -0.011849
  25 C :   -0.075103
  26 H :    0.044106
  27 H :    0.024806
  28 C :   -0.026255
  29 H :    0.024783
  30 H :    0.029870
  31 H :    0.027091
  32 H :    0.059241
  33 H :    0.040739
Sum of atomic charges:    0.0000000

LOEWDIN ATOMIC CHARGES
----------------------
   0 S :    0.421320
   1 C :   -0.223088
   2 C :   -0.063784
   3 C :   -0.065789
   4 C :   -0.194435
   5 H :    0.036570
   6 C :   -0.032083
   7 H :    0.037874
   8 H :    0.029586
   9 C :   -0.040918
  10 H :    0.026613
  11 H :    0.014912
  12 C :   -0.063592
  13 H :    0.023107
  14 H :    0.028043
  15 H :    0.021524
  16 S :    0.411874
  17 C :   -0.201669
  18 C :   -0.068915
  19 C :   -0.054834
  20 C :   -0.181203
  21 H :    0.026844
  22 C :   -0.035741
  23 H :    0.030204
  24 H :    0.023248
  25 C :   -0.036998
  26 H :    0.033373
  27 H :    0.022583
  28 C :   -0.060982
  29 H :    0.019641
  30 H :    0.024980
  31 H :    0.026013
  32 H :    0.035736
  33 H :    0.029986

  Mayer bond orders larger than 0.100000
B(  0-S ,  1-C ) :   1.1401 B(  0-S ,  4-C ) :   1.1546 B(  1-C ,  2-C ) :   1.5939
B(  1-C , 32-H ) :   0.9547 B(  2-C ,  3-C ) :   1.2804 B(  2-C ,  6-C ) :   1.0286
B(  3-C ,  4-C ) :   1.5418 B(  3-C ,  5-H ) :   0.9813 B(  4-C , 20-C ) :   1.0617
B(  6-C ,  7-H ) :   0.9460 B(  6-C ,  8-H ) :   0.9454 B(  6-C ,  9-C ) :   1.0530
B(  9-C , 10-H ) :   0.9554 B(  9-C , 11-H ) :   0.9600 B(  9-C , 12-C ) :   1.0890
B( 12-C , 13-H ) :   0.9712 B( 12-C , 14-H ) :   0.9744 B( 12-C , 15-H ) :   0.9679
B( 16-S , 17-C ) :   1.1497 B( 16-S , 20-C ) :   1.1315 B( 17-C , 18-C ) :   1.6311
B( 17-C , 33-H ) :   0.9615 B( 18-C , 19-C ) :   1.2419 B( 18-C , 21-H ) :   0.9933
B( 19-C , 20-C ) :   1.5886 B( 19-C , 22-C ) :   1.0439 B( 22-C , 23-H ) :   0.9360
B( 22-C , 24-H ) :   0.9251 B( 22-C , 25-C ) :   1.0404 B( 25-C , 26-H ) :   0.9564
B( 25-C , 27-H ) :   0.9599 B( 25-C , 28-C ) :   1.0796 B( 28-C , 29-H ) :   0.9778
B( 28-C , 30-H ) :   0.9722 B( 28-C , 31-H ) :   0.9743

Dispersion correction           -0.014087637
FINAL SINGLE POINT ENERGY     -1339.879358423910

DIPOLE MOMENT
-------------
                                X             Y             Z
Electronic contribution:    -26.54244       2.53093     -13.56913
Nuclear contribution   :     27.16801      -2.33246      13.92937
                        -----------------------------------------
Total Dipole Moment    :      0.62557       0.19846       0.36025
                        -----------------------------------------
Magnitude (a.u.)       :      0.74867
Magnitude (Debye)      :      1.90296

Rotational constants in cm-1:     0.017776     0.009062     0.006643
Rotational constants in MHz :   532.922370   271.657201   199.142489

                             ****ORCA TERMINATED NORMALLY****
TOTAL RUN TIME: 0 days 0 hours 0 minutes 29 seconds 27 msec
