                         Program Version 4.2.1 -  RELEASE  -
|  1> ! wB97X-D3 SP def2-SVP
|  2> %pal
|  3> nprocs 16
|  4> end
|  5>
|  6> * xyz 0 1
|  7> S 	 -2.13399 	 27.1434 	 37.5776
|  8> C 	 -2.06005 	 26.2178 	 36.0762
|  9> C 	 -1.06034 	 26.7054 	 35.2704
| 10> C 	 -0.228348 	 27.674 	 35.9067
| 11> C 	 -0.55569 	 27.8613 	 37.2238
| 12> H 	 0.708743 	 28.0414 	 35.5747
| 13> C 	 -0.793804 	 26.2429 	 33.8068
| 14> H 	 -0.0459571 	 25.486 	 33.8874
| 15> H 	 -0.268604 	 27.1747 	 33.3229
| 16> C 	 -2.03315 	 25.8038 	 32.9974
| 17> H 	 -2.42064 	 24.9285 	 33.5174
| 18> H 	 -2.7667 	 26.6591 	 32.9632
| 19> C 	 -1.67042 	 25.4563 	 31.5464
| 20> H 	 -0.855067 	 24.6793 	 31.616
| 21> H 	 -2.44192 	 24.8804 	 31.0042
| 22> H 	 -1.19955 	 26.1986 	 30.8891
| 23> S 	 -0.99642 	 29.7928 	 39.1901
| 24> C 	 0.357829 	 30.4032 	 40.0598
| 25> C 	 1.52739 	 29.9064 	 39.5149
| 26> C 	 1.41941 	 28.9492 	 38.4599
| 27> C 	 0.0625746 	 28.7193 	 38.2334
| 28> H 	 2.45404 	 30.136 	 39.9592
| 29> C 	 2.56135 	 28.1953 	 37.8741
| 30> H 	 3.27461 	 28.9329 	 37.4421
| 31> H 	 2.18524 	 27.5871 	 37.106
| 32> C 	 3.31147 	 27.3227 	 38.9267
| 33> H 	 3.55261 	 27.924 	 39.8223
| 34> H 	 4.19988 	 26.9914 	 38.4527
| 35> C 	 2.42506 	 26.184 	 39.4006
| 36> H 	 1.45457 	 26.4261 	 39.677
| 37> H 	 2.8077 	 25.6636 	 40.29
| 38> H 	 2.47611 	 25.4952 	 38.5784
| 39> H 	 -2.7639 	 25.464 	 35.7319
| 40> H 	 0.330119 	 31.1481 	 40.8423
| 41> *
| 42>
| 43>                          ****END OF INPUT****

CARTESIAN COORDINATES (ANGSTROEM)
---------------------------------
  S     -2.133990   27.143400   37.577600
  C     -2.060050   26.217800   36.076200
  C     -1.060340   26.705400   35.270400
  C     -0.228348   27.674000   35.906700
  C     -0.555690   27.861300   37.223800
  H      0.708743   28.041400   35.574700
  C     -0.793804   26.242900   33.806800
  H     -0.045957   25.486000   33.887400
  H     -0.268604   27.174700   33.322900
  C     -2.033150   25.803800   32.997400
  H     -2.420640   24.928500   33.517400
  H     -2.766700   26.659100   32.963200
  C     -1.670420   25.456300   31.546400
  H     -0.855067   24.679300   31.616000
  H     -2.441920   24.880400   31.004200
  H     -1.199550   26.198600   30.889100
  S     -0.996420   29.792800   39.190100
  C      0.357829   30.403200   40.059800
  C      1.527390   29.906400   39.514900
  C      1.419410   28.949200   38.459900
  C      0.062575   28.719300   38.233400
  H      2.454040   30.136000   39.959200
  C      2.561350   28.195300   37.874100
  H      3.274610   28.932900   37.442100
  H      2.185240   27.587100   37.106000
  C      3.311470   27.322700   38.926700
  H      3.552610   27.924000   39.822300
  H      4.199880   26.991400   38.452700
  C      2.425060   26.184000   39.400600
  H      1.454570   26.426100   39.677000
  H      2.807700   25.663600   40.290000
  H      2.476110   25.495200   38.578400
  H     -2.763900   25.464000   35.731900
  H      0.330119   31.148100   40.842300

 Total Charge           Charge          ....    0
 Multiplicity           Mult            ....    1
 Number of Electrons    NEL             ....  134
 Basis Dimension        Dim             ....  322

ORBITAL ENERGIES
----------------

  NO   OCC          E(Eh)            E(eV)
   0   2.0000     -88.966769     -2420.9089
   1   2.0000     -88.962519     -2420.7932
   2   2.0000     -10.329487      -281.0796
   3   2.0000     -10.328750      -281.0596
   4   2.0000     -10.315788      -280.7069
   5   2.0000     -10.311811      -280.5986
   6   2.0000     -10.301920      -280.3295
   7   2.0000     -10.301475      -280.3174
   8   2.0000     -10.301402      -280.3154
   9   2.0000     -10.297762      -280.2163
  10   2.0000     -10.292053      -280.0610
  11   2.0000     -10.290767      -280.0260
  12   2.0000     -10.288603      -279.9671
  13   2.0000     -10.286034      -279.8972
  14   2.0000     -10.285574      -279.8847
  15   2.0000     -10.264584      -279.3135
  16   2.0000      -8.081379      -219.9055
  17   2.0000      -8.076937      -219.7846
  18   2.0000      -6.039906      -164.3542
  19   2.0000      -6.035932      -164.2461
  20   2.0000      -6.035537      -164.2353
  21   2.0000      -6.032099      -164.1418
  22   2.0000      -6.031671      -164.1301
  23   2.0000      -6.027442      -164.0150
  24   2.0000      -1.006040       -27.3757
  25   2.0000      -0.983262       -26.7559
  26   2.0000      -0.915540       -24.9131
  27   2.0000      -0.907225       -24.6868
  28   2.0000      -0.867076       -23.5943
  29   2.0000      -0.853893       -23.2356
  30   2.0000      -0.843803       -22.9611
  31   2.0000      -0.812282       -22.1033
  32   2.0000      -0.786106       -21.3910
  33   2.0000      -0.769172       -20.9302
  34   2.0000      -0.708902       -19.2902
  35   2.0000      -0.705858       -19.2074
  36   2.0000      -0.694028       -18.8855
  37   2.0000      -0.658400       -17.9160
  38   2.0000      -0.638313       -17.3694
  39   2.0000      -0.615497       -16.7485
  40   2.0000      -0.600565       -16.3422
  41   2.0000      -0.570194       -15.5158
  42   2.0000      -0.559664       -15.2292
  43   2.0000      -0.553328       -15.0568
  44   2.0000      -0.550642       -14.9837
  45   2.0000      -0.522337       -14.2135
  46   2.0000      -0.516830       -14.0637
  47   2.0000      -0.511246       -13.9117
  48   2.0000      -0.502310       -13.6686
  49   2.0000      -0.499280       -13.5861
  50   2.0000      -0.493027       -13.4159
  51   2.0000      -0.482794       -13.1375
  52   2.0000      -0.475529       -12.9398
  53   2.0000      -0.464951       -12.6520
  54   2.0000      -0.458752       -12.4833
  55   2.0000      -0.451763       -12.2931
  56   2.0000      -0.444786       -12.1032
  57   2.0000      -0.432238       -11.7618
  58   2.0000      -0.427634       -11.6365
  59   2.0000      -0.424102       -11.5404
  60   2.0000      -0.420059       -11.4304
  61   2.0000      -0.418236       -11.3808
  62   2.0000      -0.414163       -11.2700
  63   2.0000      -0.353035        -9.6066
  64   2.0000      -0.331301        -9.0152
  65   2.0000      -0.329061        -8.9542
  66   2.0000      -0.285925        -7.7804
  67   0.0000       0.024694         0.6720
  68   0.0000       0.073924         2.0116
  69   0.0000       0.103400         2.8137
  70   0.0000       0.122882         3.3438
  71   0.0000       0.134317         3.6549

MULLIKEN ATOMIC CHARGES
-----------------------
   0 S :    0.090137
   1 C :   -0.118345
   2 C :   -0.088912
   3 C :    0.057615
   4 C :   -0.170693
   5 H :    0.002638
   6 C :    0.016868
   7 H :    0.037416
   8 H :    0.042414
   9 C :   -0.077535
  10 H :    0.038378
  11 H :    0.052674
  12 C :   -0.060818
  13 H :    0.013560
  14 H :    0.039887
  15 H :    0.042932
  16 S :    0.106960
  17 C :   -0.078804
  18 C :   -0.027012
  19 C :   -0.059862
  20 C :   -0.142827
  21 H :   -0.005042
  22 C :    0.093561
  23 H :    0.039387
  24 H :   -0.001408
  25 C :   -0.059596
  26 H :    0.030580
  27 H :    0.024451
  28 C :   -0.024517
  29 H :    0.033651
  30 H :    0.027244
  31 H :    0.021617
  32 H :    0.047520
  33 H :    0.055881
Sum of atomic charges:   -0.0000000

LOEWDIN ATOMIC CHARGES
----------------------
   0 S :    0.380702
   1 C :   -0.198214
   2 C :   -0.062327
   3 C :   -0.065742
   4 C :   -0.172674
   5 H :    0.024919
   6 C :   -0.034284
   7 H :    0.025967
   8 H :    0.039884
   9 C :   -0.043950
  10 H :    0.026007
  11 H :    0.034213
  12 C :   -0.078175
  13 H :    0.026997
  14 H :    0.029601
  15 H :    0.028267
  16 S :    0.399921
  17 C :   -0.192924
  18 C :   -0.065508
  19 C :   -0.054540
  20 C :   -0.187651
  21 H :    0.018580
  22 C :   -0.026281
  23 H :    0.039270
  24 H :    0.019410
  25 C :   -0.028368
  26 H :    0.023107
  27 H :    0.019198
  28 C :   -0.057507
  29 H :    0.018966
  30 H :    0.028361
  31 H :    0.024124
  32 H :    0.029130
  33 H :    0.031519

  Mayer bond orders larger than 0.100000
B(  0-S ,  1-C ) :   1.1128 B(  0-S ,  4-C ) :   1.1422 B(  1-C ,  2-C ) :   1.6476
B(  1-C , 32-H ) :   0.9682 B(  2-C ,  3-C ) :   1.2262 B(  2-C ,  6-C ) :   0.9903
B(  3-C ,  4-C ) :   1.5891 B(  3-C ,  5-H ) :   0.9897 B(  4-C , 20-C ) :   1.0458
B(  6-C ,  7-H ) :   0.9370 B(  6-C ,  8-H ) :   0.9513 B(  6-C ,  9-C ) :   1.0650
B(  9-C , 10-H ) :   0.9455 B(  9-C , 11-H ) :   0.9616 B(  9-C , 12-C ) :   1.0828
B( 12-C , 13-H ) :   0.9693 B( 12-C , 14-H ) :   0.9736 B( 12-C , 15-H ) :   0.9766
B( 16-S , 17-C ) :   1.1424 B( 16-S , 20-C ) :   1.1426 B( 17-C , 18-C ) :   1.6099
B( 17-C , 33-H ) :   0.9708 B( 18-C , 19-C ) :   1.2366 B( 18-C , 21-H ) :   0.9920
B( 19-C , 20-C ) :   1.5799 B( 19-C , 22-C ) :   1.0604 B( 22-C , 23-H ) :   0.9231
B( 22-C , 24-H ) :   0.9235 B( 22-C , 25-C ) :   1.0735 B( 25-C , 26-H ) :   0.9603
B( 25-C , 27-H ) :   0.9575 B( 25-C , 28-C ) :   1.0657 B( 28-C , 29-H ) :   0.9784
B( 28-C , 30-H ) :   0.9722 B( 28-C , 31-H ) :   0.9760

Dispersion correction           -0.014310181
FINAL SINGLE POINT ENERGY     -1339.877637686401

DIPOLE MOMENT
-------------
                                X             Y             Z
Electronic contribution:    -12.90134      14.27614      16.84159
Nuclear contribution   :     13.49860     -14.48024     -17.19943
                        -----------------------------------------
Total Dipole Moment    :      0.59726      -0.20410      -0.35784
                        -----------------------------------------
Magnitude (a.u.)       :      0.72555
Magnitude (Debye)      :      1.84421

Rotational constants in cm-1:     0.022945     0.007446     0.006393
Rotational constants in MHz :   687.873975   223.222782   191.666156

                             ****ORCA TERMINATED NORMALLY****
TOTAL RUN TIME: 0 days 0 hours 0 minutes 33 seconds 192 msec
