                         Program Version 4.2.1 -  RELEASE  -
|  1> ! wB97X-D3 SP def2-SVP
|  2> %pal
|  3> nprocs 16
|  4> end
|  5>
|  6> * xyz 0 1
|  7> S 	 1.33341 	 -25.7833 	 84.3261
|  8> C 	 0.318174 	 -26.9243 	 83.5386
|  9> C 	 0.961818 	 -28.1191 	 83.2018
| 10> C 	 2.32417 	 -28.0508 	 83.6688
| 11> C 	 2.61171 	 -26.9895 	 84.4415
| 12> H 	 3.01338 	 -28.9215 	 83.6209
| 13> C 	 0.389845 	 -29.2904 	 82.4359
| 14> H 	 0.953226 	 -29.3143 	 81.4966
| 15> H 	 -0.597494 	 -29.1416 	 82.102
| 16> C 	 0.46785 	 -30.708 	 83.0764
| 17> H 	 0.0420073 	 -31.5046 	 82.4624
| 18> H 	 1.53702 	 -30.9491 	 83.2076
| 19> C 	 -0.237671 	 -30.7726 	 84.4635
| 20> H 	 -0.142196 	 -29.9233 	 85.1027
| 21> H 	 -1.32906 	 -30.8366 	 84.4412
| 22> H 	 0.172715 	 -31.7257 	 84.8685
| 23> S 	 4.77972 	 -25.3459 	 84.6176
| 24> C 	 6.08631 	 -25.6383 	 85.6854
| 25> C 	 5.96916 	 -26.9184 	 86.1877
| 26> C 	 4.72053 	 -27.51 	 85.8577
| 27> C 	 3.95554 	 -26.7745 	 85.0184
| 28> H 	 6.83004 	 -27.4143 	 86.6138
| 29> C 	 4.33605 	 -28.9122 	 86.2894
| 30> H 	 5.24732 	 -29.4163 	 86.5954
| 31> H 	 4.08332 	 -29.4106 	 85.392
| 32> C 	 3.41065 	 -29.1252 	 87.4795
| 33> H 	 3.33427 	 -30.2397 	 87.5809
| 34> H 	 2.39854 	 -28.6938 	 87.3659
| 35> C 	 4.09619 	 -28.58 	 88.8
| 36> H 	 3.60458 	 -28.7957 	 89.742
| 37> H 	 4.20442 	 -27.5408 	 88.6634
| 38> H 	 5.11483 	 -28.9729 	 88.813
| 39> H 	 -0.713385 	 -26.6163 	 83.2594
| 40> H 	 7.05976 	 -25.2145 	 85.7291
| 41> *
| 42>
| 43>                          ****END OF INPUT****

CARTESIAN COORDINATES (ANGSTROEM)
---------------------------------
  S      1.333410  -25.783300   84.326100
  C      0.318174  -26.924300   83.538600
  C      0.961818  -28.119100   83.201800
  C      2.324170  -28.050800   83.668800
  C      2.611710  -26.989500   84.441500
  H      3.013380  -28.921500   83.620900
  C      0.389845  -29.290400   82.435900
  H      0.953226  -29.314300   81.496600
  H     -0.597494  -29.141600   82.102000
  C      0.467850  -30.708000   83.076400
  H      0.042007  -31.504600   82.462400
  H      1.537020  -30.949100   83.207600
  C     -0.237671  -30.772600   84.463500
  H     -0.142196  -29.923300   85.102700
  H     -1.329060  -30.836600   84.441200
  H      0.172715  -31.725700   84.868500
  S      4.779720  -25.345900   84.617600
  C      6.086310  -25.638300   85.685400
  C      5.969160  -26.918400   86.187700
  C      4.720530  -27.510000   85.857700
  C      3.955540  -26.774500   85.018400
  H      6.830040  -27.414300   86.613800
  C      4.336050  -28.912200   86.289400
  H      5.247320  -29.416300   86.595400
  H      4.083320  -29.410600   85.392000
  C      3.410650  -29.125200   87.479500
  H      3.334270  -30.239700   87.580900
  H      2.398540  -28.693800   87.365900
  C      4.096190  -28.580000   88.800000
  H      3.604580  -28.795700   89.742000
  H      4.204420  -27.540800   88.663400
  H      5.114830  -28.972900   88.813000
  H     -0.713385  -26.616300   83.259400
  H      7.059760  -25.214500   85.729100

 Total Charge           Charge          ....    0
 Multiplicity           Mult            ....    1
 Number of Electrons    NEL             ....  134
 Basis Dimension        Dim             ....  322

ORBITAL ENERGIES
----------------

  NO   OCC          E(Eh)            E(eV)
   0   2.0000     -88.968821     -2420.9647
   1   2.0000     -88.963404     -2420.8173
   2   2.0000     -10.329006      -281.0665
   3   2.0000     -10.319813      -280.8164
   4   2.0000     -10.319119      -280.7975
   5   2.0000     -10.308926      -280.5201
   6   2.0000     -10.307362      -280.4776
   7   2.0000     -10.295187      -280.1463
   8   2.0000     -10.294335      -280.1231
   9   2.0000     -10.294055      -280.1155
  10   2.0000     -10.291831      -280.0549
  11   2.0000     -10.289837      -280.0007
  12   2.0000     -10.289709      -279.9972
  13   2.0000     -10.283098      -279.8173
  14   2.0000     -10.276340      -279.6334
  15   2.0000     -10.270579      -279.4767
  16   2.0000      -8.083967      -219.9759
  17   2.0000      -8.079659      -219.8587
  18   2.0000      -6.042449      -164.4234
  19   2.0000      -6.038497      -164.3159
  20   2.0000      -6.038125      -164.3057
  21   2.0000      -6.034655      -164.2113
  22   2.0000      -6.033776      -164.1874
  23   2.0000      -6.030534      -164.0992
  24   2.0000      -1.017967       -27.7003
  25   2.0000      -0.993965       -27.0472
  26   2.0000      -0.908600       -24.7243
  27   2.0000      -0.907943       -24.7064
  28   2.0000      -0.873125       -23.7589
  29   2.0000      -0.849977       -23.1291
  30   2.0000      -0.842613       -22.9287
  31   2.0000      -0.819369       -22.2962
  32   2.0000      -0.783326       -21.3154
  33   2.0000      -0.774934       -21.0870
  34   2.0000      -0.708724       -19.2854
  35   2.0000      -0.698094       -18.9961
  36   2.0000      -0.688998       -18.7486
  37   2.0000      -0.665446       -18.1077
  38   2.0000      -0.642229       -17.4760
  39   2.0000      -0.627471       -17.0743
  40   2.0000      -0.589862       -16.0509
  41   2.0000      -0.570169       -15.5151
  42   2.0000      -0.554933       -15.1005
  43   2.0000      -0.548455       -14.9242
  44   2.0000      -0.543597       -14.7920
  45   2.0000      -0.539850       -14.6901
  46   2.0000      -0.517759       -14.0889
  47   2.0000      -0.514413       -13.9979
  48   2.0000      -0.498768       -13.5722
  49   2.0000      -0.495270       -13.4770
  50   2.0000      -0.489424       -13.3179
  51   2.0000      -0.480151       -13.0656
  52   2.0000      -0.468498       -12.7485
  53   2.0000      -0.465954       -12.6793
  54   2.0000      -0.463153       -12.6030
  55   2.0000      -0.449820       -12.2402
  56   2.0000      -0.446740       -12.1564
  57   2.0000      -0.438166       -11.9231
  58   2.0000      -0.432629       -11.7724
  59   2.0000      -0.425650       -11.5825
  60   2.0000      -0.416645       -11.3375
  61   2.0000      -0.412907       -11.2358
  62   2.0000      -0.408945       -11.1280
  63   2.0000      -0.352801        -9.6002
  64   2.0000      -0.329757        -8.9731
  65   2.0000      -0.328937        -8.9508
  66   2.0000      -0.298885        -8.1331
  67   0.0000       0.036026         0.9803
  68   0.0000       0.069824         1.9000
  69   0.0000       0.108528         2.9532
  70   0.0000       0.121512         3.3065
  71   0.0000       0.129194         3.5156

MULLIKEN ATOMIC CHARGES
-----------------------
   0 S :    0.122847
   1 C :   -0.146492
   2 C :   -0.080105
   3 C :    0.003147
   4 C :   -0.122862
   5 H :    0.032515
   6 C :    0.099855
   7 H :    0.036469
   8 H :    0.001940
   9 C :   -0.086349
  10 H :    0.038423
  11 H :    0.029349
  12 C :   -0.064465
  13 H :    0.038649
  14 H :    0.024401
  15 H :    0.039852
  16 S :    0.112236
  17 C :   -0.068320
  18 C :   -0.064564
  19 C :   -0.071163
  20 C :   -0.158289
  21 H :    0.022772
  22 C :    0.088732
  23 H :   -0.000029
  24 H :    0.003510
  25 C :   -0.064876
  26 H :    0.034437
  27 H :    0.045912
  28 C :   -0.047540
  29 H :    0.041832
  30 H :    0.033661
  31 H :    0.013396
  32 H :    0.062698
  33 H :    0.048420
Sum of atomic charges:    0.0000000

LOEWDIN ATOMIC CHARGES
----------------------
   0 S :    0.412036
   1 C :   -0.206044
   2 C :   -0.062304
   3 C :   -0.059081
   4 C :   -0.192621
   5 H :    0.035082
   6 C :   -0.033865
   7 H :    0.038528
   8 H :    0.021886
   9 C :   -0.038165
  10 H :    0.029055
  11 H :    0.021469
  12 C :   -0.071107
  13 H :    0.022466
  14 H :    0.024038
  15 H :    0.032651
  16 S :    0.444682
  17 C :   -0.203109
  18 C :   -0.071227
  19 C :   -0.069445
  20 C :   -0.208985
  21 H :    0.031199
  22 C :   -0.032627
  23 H :    0.028343
  24 H :    0.020468
  25 C :   -0.033637
  26 H :    0.027921
  27 H :    0.025153
  28 C :   -0.062311
  29 H :    0.025376
  30 H :    0.020586
  31 H :    0.021629
  32 H :    0.032918
  33 H :    0.029043

  Mayer bond orders larger than 0.100000
B(  0-S ,  1-C ) :   1.1533 B(  0-S ,  4-C ) :   1.1339 B(  1-C ,  2-C ) :   1.5997
B(  1-C , 32-H ) :   0.9610 B(  2-C ,  3-C ) :   1.2328 B(  2-C ,  6-C ) :   1.0302
B(  3-C ,  4-C ) :   1.6070 B(  3-C ,  5-H ) :   0.9787 B(  4-C , 20-C ) :   1.0107
B(  6-C ,  7-H ) :   0.9328 B(  6-C ,  8-H ) :   0.9402 B(  6-C ,  9-C ) :   1.0702
B(  9-C , 10-H ) :   0.9560 B(  9-C , 11-H ) :   0.9610 B(  9-C , 12-C ) :   1.0619
B( 12-C , 13-H ) :   0.9778 B( 12-C , 14-H ) :   0.9756 B( 12-C , 15-H ) :   0.9774
B( 16-S , 17-C ) :   1.1717 B( 16-S , 20-C ) :   1.1609 B( 17-C , 18-C ) :   1.5929
B( 17-C , 33-H ) :   0.9641 B( 18-C , 19-C ) :   1.2719 B( 18-C , 21-H ) :   0.9851
B( 19-C , 20-C ) :   1.6100 B( 19-C , 22-C ) :   1.0253 B( 22-C , 23-H ) :   0.9276
B( 22-C , 24-H ) :   0.9345 B( 22-C , 25-C ) :   1.0692 B( 25-C , 26-H ) :   0.9551
B( 25-C , 27-H ) :   0.9597 B( 25-C , 28-C ) :   1.0602 B( 28-C , 29-H ) :   0.9771
B( 28-C , 30-H ) :   0.9780 B( 28-C , 31-H ) :   0.9742

Dispersion correction           -0.015167116
FINAL SINGLE POINT ENERGY     -1339.874407580078

DIPOLE MOMENT
-------------
                                X             Y             Z
Electronic contribution:      6.16396      26.02787      -8.50596
Nuclear contribution   :     -6.15307     -26.72671       8.33222
                        -----------------------------------------
Total Dipole Moment    :      0.01088      -0.69884      -0.17373
                        -----------------------------------------
Magnitude (a.u.)       :      0.72020
Magnitude (Debye)      :      1.83060

Rotational constants in cm-1:     0.018822     0.009732     0.007445
Rotational constants in MHz :   564.271693   291.755879   223.193613

                             ****ORCA TERMINATED NORMALLY****
TOTAL RUN TIME: 0 days 0 hours 0 minutes 33 seconds 568 msec
