                         Program Version 4.2.1 -  RELEASE  -
|  1> ! wB97X-D3 SP def2-SVP
|  2> %pal
|  3> nprocs 16
|  4> end
|  5>
|  6> * xyz 0 1
|  7> S 	 -92.4992 	 42.7363 	 117.935
|  8> C 	 -91.7896 	 41.1317 	 118.119
|  9> C 	 -90.6257 	 41.0282 	 117.415
| 10> C 	 -90.3075 	 42.2469 	 116.692
| 11> C 	 -91.2073 	 43.2963 	 116.946
| 12> H 	 -89.569 	 42.3572 	 115.9
| 13> C 	 -89.7398 	 39.7834 	 117.182
| 14> H 	 -89.7965 	 39.2768 	 116.257
| 15> H 	 -89.9395 	 39.0325 	 117.95
| 16> C 	 -88.3087 	 40.1056 	 117.391
| 17> H 	 -87.9048 	 40.7648 	 116.638
| 18> H 	 -88.2624 	 40.6849 	 118.269
| 19> C 	 -87.3876 	 38.8926 	 117.666
| 20> H 	 -86.4521 	 39.3136 	 118.116
| 21> H 	 -87.8019 	 38.2313 	 118.437
| 22> H 	 -87.1265 	 38.3187 	 116.801
| 23> S 	 -92.382 	 45.379 	 115.556
| 24> C 	 -91.5004 	 46.9061 	 115.461
| 25> C 	 -90.2208 	 46.7731 	 116.002
| 26> C 	 -90.093 	 45.5572 	 116.733
| 27> C 	 -91.0774 	 44.6523 	 116.448
| 28> H 	 -89.57 	 47.5666 	 116.028
| 29> C 	 -88.8396 	 45.1598 	 117.578
| 30> H 	 -87.9699 	 45.7107 	 117.201
| 31> H 	 -88.5245 	 44.1525 	 117.363
| 32> C 	 -88.9236 	 45.354 	 119.11
| 33> H 	 -89.896 	 44.8889 	 119.448
| 34> H 	 -88.9621 	 46.43 	 119.381
| 35> C 	 -87.7572 	 44.8607 	 119.976
| 36> H 	 -86.8268 	 45.2042 	 119.621
| 37> H 	 -87.7163 	 43.7332 	 120.115
| 38> H 	 -87.7373 	 45.2617 	 120.921
| 39> H 	 -92.1264 	 40.3435 	 118.844
| 40> H 	 -91.8257 	 47.834 	 114.951
| 41> *
| 42>
| 43>                          ****END OF INPUT****

CARTESIAN COORDINATES (ANGSTROEM)
---------------------------------
  S    -92.499200   42.736300  117.935000
  C    -91.789600   41.131700  118.119000
  C    -90.625700   41.028200  117.415000
  C    -90.307500   42.246900  116.692000
  C    -91.207300   43.296300  116.946000
  H    -89.569000   42.357200  115.900000
  C    -89.739800   39.783400  117.182000
  H    -89.796500   39.276800  116.257000
  H    -89.939500   39.032500  117.950000
  C    -88.308700   40.105600  117.391000
  H    -87.904800   40.764800  116.638000
  H    -88.262400   40.684900  118.269000
  C    -87.387600   38.892600  117.666000
  H    -86.452100   39.313600  118.116000
  H    -87.801900   38.231300  118.437000
  H    -87.126500   38.318700  116.801000
  S    -92.382000   45.379000  115.556000
  C    -91.500400   46.906100  115.461000
  C    -90.220800   46.773100  116.002000
  C    -90.093000   45.557200  116.733000
  C    -91.077400   44.652300  116.448000
  H    -89.570000   47.566600  116.028000
  C    -88.839600   45.159800  117.578000
  H    -87.969900   45.710700  117.201000
  H    -88.524500   44.152500  117.363000
  C    -88.923600   45.354000  119.110000
  H    -89.896000   44.888900  119.448000
  H    -88.962100   46.430000  119.381000
  C    -87.757200   44.860700  119.976000
  H    -86.826800   45.204200  119.621000
  H    -87.716300   43.733200  120.115000
  H    -87.737300   45.261700  120.921000
  H    -92.126400   40.343500  118.844000
  H    -91.825700   47.834000  114.951000

 Total Charge           Charge          ....    0
 Multiplicity           Mult            ....    1
 Number of Electrons    NEL             ....  134
 Basis Dimension        Dim             ....  322

ORBITAL ENERGIES
----------------

  NO   OCC          E(Eh)            E(eV)
   0   2.0000     -88.968756     -2420.9629
   1   2.0000     -88.968534     -2420.9569
   2   2.0000     -10.329300      -281.0746
   3   2.0000     -10.323707      -280.9223
   4   2.0000     -10.323122      -280.9064
   5   2.0000     -10.319036      -280.7952
   6   2.0000     -10.304594      -280.4023
   7   2.0000     -10.304117      -280.3893
   8   2.0000     -10.296448      -280.1806
   9   2.0000     -10.292057      -280.0611
  10   2.0000     -10.290618      -280.0219
  11   2.0000     -10.288589      -279.9667
  12   2.0000     -10.286874      -279.9201
  13   2.0000     -10.281021      -279.7608
  14   2.0000     -10.275480      -279.6100
  15   2.0000     -10.270029      -279.4617
  16   2.0000      -8.083509      -219.9635
  17   2.0000      -8.083119      -219.9528
  18   2.0000      -6.042072      -164.4131
  19   2.0000      -6.041645      -164.4015
  20   2.0000      -6.037902      -164.2997
  21   2.0000      -6.037617      -164.2919
  22   2.0000      -6.034305      -164.2018
  23   2.0000      -6.033899      -164.1907
  24   2.0000      -1.009032       -27.4572
  25   2.0000      -0.985016       -26.8036
  26   2.0000      -0.919502       -25.0209
  27   2.0000      -0.898515       -24.4498
  28   2.0000      -0.871710       -23.7204
  29   2.0000      -0.851258       -23.1639
  30   2.0000      -0.842883       -22.9360
  31   2.0000      -0.812295       -22.1037
  32   2.0000      -0.785720       -21.3805
  33   2.0000      -0.776757       -21.1366
  34   2.0000      -0.708490       -19.2790
  35   2.0000      -0.694229       -18.8909
  36   2.0000      -0.689112       -18.7517
  37   2.0000      -0.666861       -18.1462
  38   2.0000      -0.642076       -17.4718
  39   2.0000      -0.619447       -16.8560
  40   2.0000      -0.593439       -16.1483
  41   2.0000      -0.579907       -15.7801
  42   2.0000      -0.566659       -15.4196
  43   2.0000      -0.554943       -15.1008
  44   2.0000      -0.522416       -14.2157
  45   2.0000      -0.518773       -14.1165
  46   2.0000      -0.514905       -14.0113
  47   2.0000      -0.510508       -13.8916
  48   2.0000      -0.506353       -13.7786
  49   2.0000      -0.500867       -13.6293
  50   2.0000      -0.494996       -13.4695
  51   2.0000      -0.481817       -13.1109
  52   2.0000      -0.470280       -12.7970
  53   2.0000      -0.465870       -12.6770
  54   2.0000      -0.462782       -12.5929
  55   2.0000      -0.451484       -12.2855
  56   2.0000      -0.445320       -12.1178
  57   2.0000      -0.433682       -11.8011
  58   2.0000      -0.427541       -11.6340
  59   2.0000      -0.422540       -11.4979
  60   2.0000      -0.419659       -11.4195
  61   2.0000      -0.417892       -11.3714
  62   2.0000      -0.409141       -11.1333
  63   2.0000      -0.342413        -9.3175
  64   2.0000      -0.335950        -9.1417
  65   2.0000      -0.329746        -8.9728
  66   2.0000      -0.298258        -8.1160
  67   0.0000       0.031297         0.8516
  68   0.0000       0.066101         1.7987
  69   0.0000       0.111334         3.0296
  70   0.0000       0.122609         3.3364
  71   0.0000       0.126323         3.4374

MULLIKEN ATOMIC CHARGES
-----------------------
   0 S :    0.122472
   1 C :   -0.145627
   2 C :   -0.079069
   3 C :    0.019382
   4 C :   -0.152579
   5 H :    0.029694
   6 C :    0.121841
   7 H :    0.032232
   8 H :    0.000380
   9 C :   -0.110490
  10 H :    0.026320
  11 H :    0.014487
  12 C :   -0.048360
  13 H :    0.036355
  14 H :    0.029693
  15 H :    0.034832
  16 S :    0.115583
  17 C :   -0.111201
  18 C :    0.014626
  19 C :   -0.038642
  20 C :   -0.168800
  21 H :   -0.009030
  22 C :    0.091403
  23 H :    0.006519
  24 H :    0.009527
  25 C :   -0.092830
  26 H :    0.041003
  27 H :    0.027975
  28 C :   -0.012857
  29 H :    0.006092
  30 H :    0.039565
  31 H :    0.010099
  32 H :    0.068281
  33 H :    0.071124
Sum of atomic charges:   -0.0000000

LOEWDIN ATOMIC CHARGES
----------------------
   0 S :    0.416950
   1 C :   -0.203844
   2 C :   -0.061701
   3 C :   -0.061477
   4 C :   -0.203619
   5 H :    0.032237
   6 C :   -0.026351
   7 H :    0.026968
   8 H :    0.027568
   9 C :   -0.045243
  10 H :    0.019096
  11 H :    0.019208
  12 C :   -0.062699
  13 H :    0.033919
  14 H :    0.024926
  15 H :    0.019468
  16 S :    0.406705
  17 C :   -0.182204
  18 C :   -0.057246
  19 C :   -0.048945
  20 C :   -0.207393
  21 H :    0.017721
  22 C :   -0.031267
  23 H :    0.026294
  24 H :    0.024746
  25 C :   -0.043473
  26 H :    0.029673
  27 H :    0.026198
  28 C :   -0.064164
  29 H :    0.017887
  30 H :    0.031415
  31 H :    0.017430
  32 H :    0.043309
  33 H :    0.037907

  Mayer bond orders larger than 0.100000
B(  0-S ,  1-C ) :   1.1265 B(  0-S ,  4-C ) :   1.1609 B(  1-C ,  2-C ) :   1.6420
B(  1-C , 32-H ) :   0.9583 B(  2-C ,  3-C ) :   1.2251 B(  2-C ,  6-C ) :   1.0236
B(  3-C ,  4-C ) :   1.5766 B(  3-C ,  5-H ) :   0.9852 B(  4-C , 20-C ) :   1.0324
B(  6-C ,  7-H ) :   0.9447 B(  6-C ,  8-H ) :   0.9373 B(  6-C ,  9-C ) :   1.0621
B(  9-C , 10-H ) :   0.9483 B(  9-C , 11-H ) :   0.9567 B(  9-C , 12-C ) :   1.0897
B( 12-C , 13-H ) :   0.9756 B( 12-C , 14-H ) :   0.9722 B( 12-C , 15-H ) :   0.9764
B( 16-S , 17-C ) :   1.1549 B( 16-S , 20-C ) :   1.1356 B( 17-C , 18-C ) :   1.6072
B( 17-C , 33-H ) :   0.9630 B( 18-C , 19-C ) :   1.2503 B( 18-C , 21-H ) :   0.9941
B( 19-C , 20-C ) :   1.6085 B( 19-C , 22-C ) :   1.0318 B( 22-C , 23-H ) :   0.9316
B( 22-C , 24-H ) :   0.9383 B( 22-C , 25-C ) :   1.0541 B( 25-C , 26-H ) :   0.9579
B( 25-C , 27-H ) :   0.9566 B( 25-C , 28-C ) :   1.0866 B( 28-C , 29-H ) :   0.9684
B( 28-C , 30-H ) :   0.9734 B( 28-C , 31-H ) :   0.9711

Dispersion correction           -0.014500424
FINAL SINGLE POINT ENERGY     -1339.870775563964

DIPOLE MOMENT
-------------
                                X             Y             Z
Electronic contribution:    -27.35181      11.82936     -11.32936
Nuclear contribution   :     28.00768     -11.90481      11.43898
                        -----------------------------------------
Total Dipole Moment    :      0.65587      -0.07545       0.10962
                        -----------------------------------------
Magnitude (a.u.)       :      0.66924
Magnitude (Debye)      :      1.70107

Rotational constants in cm-1:     0.018028     0.008995     0.007227
Rotational constants in MHz :   540.480775   269.668221   216.673432

                             ****ORCA TERMINATED NORMALLY****
TOTAL RUN TIME: 0 days 0 hours 0 minutes 32 seconds 909 msec
