                         Program Version 4.2.1 -  RELEASE  -
|  1> ! wB97X-D3 SP def2-SVP
|  2> %pal
|  3> nprocs 16
|  4> end
|  5>
|  6> * xyz 0 1
|  7> S 	 48.5664 	 14.0044 	 85.2366
|  8> C 	 47.0063 	 14.0478 	 84.3566
|  9> C 	 47.2443 	 13.798 	 82.9882
| 10> C 	 48.5957 	 13.5281 	 82.7166
| 11> C 	 49.4535 	 13.5663 	 83.7835
| 12> H 	 49.0055 	 13.3234 	 81.7594
| 13> C 	 46.1835 	 13.7008 	 81.8107
| 14> H 	 45.3629 	 13.0852 	 82.1635
| 15> H 	 46.6807 	 13.008 	 81.0488
| 16> C 	 45.7593 	 15.0396 	 81.2262
| 17> H 	 46.6204 	 15.6904 	 81.2136
| 18> H 	 45.4589 	 14.8626 	 80.2279
| 19> C 	 44.7262 	 15.7831 	 82.0943
| 20> H 	 44.7631 	 16.8716 	 81.9811
| 21> H 	 43.6859 	 15.4869 	 81.9366
| 22> H 	 44.8383 	 15.4729 	 83.1001
| 23> S 	 51.8569 	 14.4181 	 84.928
| 24> C 	 53.3832 	 13.7599 	 84.2892
| 25> C 	 53.1675 	 12.9357 	 83.2171
| 26> C 	 51.7836 	 12.7943 	 82.8978
| 27> C 	 50.9321 	 13.5137 	 83.7091
| 28> H 	 53.987 	 12.3816 	 82.7874
| 29> C 	 51.3293 	 11.8734 	 81.7743
| 30> H 	 50.4026 	 11.3703 	 81.9773
| 31> H 	 52.0481 	 11.0892 	 81.9674
| 32> C 	 51.6201 	 12.3459 	 80.2811
| 33> H 	 51.2078 	 11.6213 	 79.6355
| 34> H 	 52.7148 	 12.3141 	 80.1817
| 35> C 	 51.0478 	 13.7235 	 79.7967
| 36> H 	 50.8765 	 14.3905 	 80.611
| 37> H 	 50.1068 	 13.4134 	 79.3913
| 38> H 	 51.6605 	 14.3538 	 79.1184
| 39> H 	 46.039 	 14.2093 	 84.7612
| 40> H 	 54.3757 	 13.9498 	 84.7172
| 41> *
| 42>
| 43>                          ****END OF INPUT****

CARTESIAN COORDINATES (ANGSTROEM)
---------------------------------
  S     48.566400   14.004400   85.236600
  C     47.006300   14.047800   84.356600
  C     47.244300   13.798000   82.988200
  C     48.595700   13.528100   82.716600
  C     49.453500   13.566300   83.783500
  H     49.005500   13.323400   81.759400
  C     46.183500   13.700800   81.810700
  H     45.362900   13.085200   82.163500
  H     46.680700   13.008000   81.048800
  C     45.759300   15.039600   81.226200
  H     46.620400   15.690400   81.213600
  H     45.458900   14.862600   80.227900
  C     44.726200   15.783100   82.094300
  H     44.763100   16.871600   81.981100
  H     43.685900   15.486900   81.936600
  H     44.838300   15.472900   83.100100
  S     51.856900   14.418100   84.928000
  C     53.383200   13.759900   84.289200
  C     53.167500   12.935700   83.217100
  C     51.783600   12.794300   82.897800
  C     50.932100   13.513700   83.709100
  H     53.987000   12.381600   82.787400
  C     51.329300   11.873400   81.774300
  H     50.402600   11.370300   81.977300
  H     52.048100   11.089200   81.967400
  C     51.620100   12.345900   80.281100
  H     51.207800   11.621300   79.635500
  H     52.714800   12.314100   80.181700
  C     51.047800   13.723500   79.796700
  H     50.876500   14.390500   80.611000
  H     50.106800   13.413400   79.391300
  H     51.660500   14.353800   79.118400
  H     46.039000   14.209300   84.761200
  H     54.375700   13.949800   84.717200

 Total Charge           Charge          ....    0
 Multiplicity           Mult            ....    1
 Number of Electrons    NEL             ....  134
 Basis Dimension        Dim             ....  322

ORBITAL ENERGIES
----------------

  NO   OCC          E(Eh)            E(eV)
   0   2.0000     -88.969922     -2420.9947
   1   2.0000     -88.965586     -2420.8767
   2   2.0000     -10.331890      -281.1450
   3   2.0000     -10.331467      -281.1335
   4   2.0000     -10.321599      -280.8650
   5   2.0000     -10.319835      -280.8170
   6   2.0000     -10.305927      -280.4385
   7   2.0000     -10.303940      -280.3845
   8   2.0000     -10.301750      -280.3249
   9   2.0000     -10.295174      -280.1459
  10   2.0000     -10.293218      -280.0927
  11   2.0000     -10.293199      -280.0922
  12   2.0000     -10.286198      -279.9017
  13   2.0000     -10.283494      -279.8281
  14   2.0000     -10.276749      -279.6445
  15   2.0000     -10.275632      -279.6142
  16   2.0000      -8.083436      -219.9615
  17   2.0000      -8.079500      -219.8544
  18   2.0000      -6.042139      -164.4150
  19   2.0000      -6.038177      -164.3072
  20   2.0000      -6.038062      -164.3040
  21   2.0000      -6.034164      -164.1979
  22   2.0000      -6.034113      -164.1966
  23   2.0000      -6.030089      -164.0871
  24   2.0000      -1.003093       -27.2955
  25   2.0000      -0.980481       -26.6802
  26   2.0000      -0.908899       -24.7324
  27   2.0000      -0.901751       -24.5379
  28   2.0000      -0.866769       -23.5860
  29   2.0000      -0.850490       -23.1430
  30   2.0000      -0.843919       -22.9642
  31   2.0000      -0.813939       -22.1484
  32   2.0000      -0.784025       -21.3344
  33   2.0000      -0.777826       -21.1657
  34   2.0000      -0.709927       -19.3181
  35   2.0000      -0.703640       -19.1470
  36   2.0000      -0.696066       -18.9409
  37   2.0000      -0.663042       -18.0423
  38   2.0000      -0.641783       -17.4638
  39   2.0000      -0.620984       -16.8978
  40   2.0000      -0.592216       -16.1150
  41   2.0000      -0.571564       -15.5530
  42   2.0000      -0.557897       -15.1811
  43   2.0000      -0.549483       -14.9522
  44   2.0000      -0.537403       -14.6235
  45   2.0000      -0.533618       -14.5205
  46   2.0000      -0.521335       -14.1863
  47   2.0000      -0.511682       -13.9236
  48   2.0000      -0.505282       -13.7494
  49   2.0000      -0.491480       -13.3738
  50   2.0000      -0.486606       -13.2412
  51   2.0000      -0.479525       -13.0485
  52   2.0000      -0.472392       -12.8544
  53   2.0000      -0.467076       -12.7098
  54   2.0000      -0.457899       -12.4601
  55   2.0000      -0.450176       -12.2499
  56   2.0000      -0.445772       -12.1301
  57   2.0000      -0.440382       -11.9834
  58   2.0000      -0.435510       -11.8508
  59   2.0000      -0.427010       -11.6195
  60   2.0000      -0.421264       -11.4632
  61   2.0000      -0.411134       -11.1875
  62   2.0000      -0.406170       -11.0525
  63   2.0000      -0.357657        -9.7323
  64   2.0000      -0.335929        -9.1411
  65   2.0000      -0.330841        -9.0026
  66   2.0000      -0.285843        -7.7782
  67   0.0000       0.021810         0.5935
  68   0.0000       0.076863         2.0916
  69   0.0000       0.099466         2.7066
  70   0.0000       0.121484         3.3058
  71   0.0000       0.127306         3.4642

MULLIKEN ATOMIC CHARGES
-----------------------
   0 S :    0.102301
   1 C :   -0.120007
   2 C :   -0.075842
   3 C :    0.017435
   4 C :   -0.108269
   5 H :   -0.031780
   6 C :    0.003714
   7 H :    0.033280
   8 H :    0.033253
   9 C :   -0.003949
  10 H :    0.029353
  11 H :    0.025779
  12 C :   -0.036867
  13 H :    0.043958
  14 H :    0.021970
  15 H :    0.001562
  16 S :    0.085801
  17 C :   -0.099087
  18 C :   -0.020248
  19 C :   -0.070457
  20 C :   -0.122068
  21 H :    0.020335
  22 C :    0.042672
  23 H :    0.031878
  24 H :    0.019048
  25 C :   -0.051430
  26 H :    0.026555
  27 H :    0.028986
  28 C :   -0.054144
  29 H :    0.036744
  30 H :    0.033559
  31 H :    0.046259
  32 H :    0.045096
  33 H :    0.064612
Sum of atomic charges:    0.0000000

LOEWDIN ATOMIC CHARGES
----------------------
   0 S :    0.390448
   1 C :   -0.187004
   2 C :   -0.056888
   3 C :   -0.068417
   4 C :   -0.183402
   5 H :    0.023116
   6 C :   -0.029974
   7 H :    0.027051
   8 H :    0.036484
   9 C :   -0.035756
  10 H :    0.028710
  11 H :    0.020208
  12 C :   -0.063396
  13 H :    0.030294
  14 H :    0.025076
  15 H :    0.017679
  16 S :    0.373163
  17 C :   -0.171993
  18 C :   -0.071078
  19 C :   -0.061903
  20 C :   -0.181338
  21 H :    0.033773
  22 C :   -0.036925
  23 H :    0.027204
  24 H :    0.035953
  25 C :   -0.029087
  26 H :    0.019455
  27 H :    0.023674
  28 C :   -0.071615
  29 H :    0.022595
  30 H :    0.022818
  31 H :    0.034874
  32 H :    0.021369
  33 H :    0.034831

  Mayer bond orders larger than 0.100000
B(  0-S ,  1-C ) :   1.1327 B(  0-S ,  4-C ) :   1.1415 B(  1-C ,  2-C ) :   1.5867
B(  1-C ,  4-C ) :   0.1024 B(  1-C , 32-H ) :   0.9720 B(  2-C ,  3-C ) :   1.2728
B(  2-C ,  6-C ) :   0.9975 B(  3-C ,  4-C ) :   1.5591 B(  3-C ,  5-H ) :   0.9910
B(  4-C , 20-C ) :   1.0576 B(  6-C ,  7-H ) :   0.9513 B(  6-C ,  8-H ) :   0.9498
B(  6-C ,  9-C ) :   1.0585 B(  9-C , 10-H ) :   0.9574 B(  9-C , 11-H ) :   0.9576
B(  9-C , 12-C ) :   1.0675 B( 12-C , 13-H ) :   0.9774 B( 12-C , 14-H ) :   0.9719
B( 12-C , 15-H ) :   0.9753 B( 16-S , 17-C ) :   1.1392 B( 16-S , 20-C ) :   1.1156
B( 17-C , 18-C ) :   1.6315 B( 17-C , 33-H ) :   0.9640 B( 18-C , 19-C ) :   1.2318
B( 18-C , 21-H ) :   0.9885 B( 19-C , 20-C ) :   1.6130 B( 19-C , 22-C ) :   1.0322
B( 22-C , 23-H ) :   0.9354 B( 22-C , 24-H ) :   0.9300 B( 22-C , 25-C ) :   1.0632
B( 25-C , 26-H ) :   0.9646 B( 25-C , 27-H ) :   0.9611 B( 25-C , 28-C ) :   1.0607
B( 28-C , 29-H ) :   0.9753 B( 28-C , 30-H ) :   0.9751 B( 28-C , 31-H ) :   0.9746

Dispersion correction           -0.014908703
FINAL SINGLE POINT ENERGY     -1339.868744598295

DIPOLE MOMENT
-------------
                                X             Y             Z
Electronic contribution:     12.16183       0.56996      24.85140
Nuclear contribution   :    -12.20705      -0.85457     -25.52282
                        -----------------------------------------
Total Dipole Moment    :     -0.04522      -0.28461      -0.67142
                        -----------------------------------------
Magnitude (a.u.)       :      0.73065
Magnitude (Debye)      :      1.85717

Rotational constants in cm-1:     0.020097     0.008890     0.006743
Rotational constants in MHz :   602.491771   266.522697   202.157186

                             ****ORCA TERMINATED NORMALLY****
TOTAL RUN TIME: 0 days 0 hours 0 minutes 29 seconds 280 msec
