                         Program Version 4.2.1 -  RELEASE  -
|  1> ! wB97X-D3 SP def2-SVP
|  2> %pal
|  3> nprocs 16
|  4> end
|  5>
|  6> * xyz 0 1
|  7> S 	 15.8106 	 8.51296 	 87.3837
|  8> C 	 16.8356 	 9.32717 	 86.1769
|  9> C 	 16.1495 	 10.1501 	 85.2887
| 10> C 	 14.7571 	 9.95958 	 85.5184
| 11> C 	 14.365 	 9.1437 	 86.6061
| 12> H 	 14.0353 	 10.4225 	 84.9878
| 13> C 	 16.7598 	 11.0259 	 84.2278
| 14> H 	 15.9807 	 11.6909 	 83.9368
| 15> H 	 17.0867 	 10.344 	 83.4445
| 16> C 	 17.8816 	 11.987 	 84.6743
| 17> H 	 18.6576 	 11.4132 	 85.1202
| 18> H 	 18.2013 	 12.565 	 83.7855
| 19> C 	 17.4682 	 13.0007 	 85.767
| 20> H 	 16.7859 	 13.7432 	 85.4356
| 21> H 	 16.9326 	 12.4414 	 86.5939
| 22> H 	 18.2757 	 13.6038 	 86.021
| 23> S 	 12.739 	 9.78225 	 88.6742
| 24> C 	 11.084 	 9.14144 	 88.6363
| 25> C 	 10.8049 	 8.56089 	 87.4021
| 26> C 	 11.8872 	 8.54658 	 86.5084
| 27> C 	 13.0361 	 9.07883 	 87.1048
| 28> H 	 9.83469 	 8.14809 	 87.2027
| 29> C 	 11.8827 	 7.77582 	 85.2095
| 30> H 	 11.4934 	 6.75082 	 85.4608
| 31> H 	 12.8731 	 7.82019 	 84.7888
| 32> C 	 10.8059 	 8.1756 	 84.1655
| 33> H 	 9.79343 	 8.11844 	 84.5936
| 34> H 	 10.873 	 7.42387 	 83.4156
| 35> C 	 11.0598 	 9.59517 	 83.6054
| 36> H 	 10.3112 	 9.92171 	 82.9582
| 37> H 	 12.0043 	 9.62275 	 83.0424
| 38> H 	 11.1523 	 10.2515 	 84.4982
| 39> H 	 17.93 	 9.17811 	 86.2178
| 40> H 	 10.4297 	 9.3505 	 89.4396
| 41> *
| 42>
| 43>                          ****END OF INPUT****

CARTESIAN COORDINATES (ANGSTROEM)
---------------------------------
  S     15.810600    8.512960   87.383700
  C     16.835600    9.327170   86.176900
  C     16.149500   10.150100   85.288700
  C     14.757100    9.959580   85.518400
  C     14.365000    9.143700   86.606100
  H     14.035300   10.422500   84.987800
  C     16.759800   11.025900   84.227800
  H     15.980700   11.690900   83.936800
  H     17.086700   10.344000   83.444500
  C     17.881600   11.987000   84.674300
  H     18.657600   11.413200   85.120200
  H     18.201300   12.565000   83.785500
  C     17.468200   13.000700   85.767000
  H     16.785900   13.743200   85.435600
  H     16.932600   12.441400   86.593900
  H     18.275700   13.603800   86.021000
  S     12.739000    9.782250   88.674200
  C     11.084000    9.141440   88.636300
  C     10.804900    8.560890   87.402100
  C     11.887200    8.546580   86.508400
  C     13.036100    9.078830   87.104800
  H      9.834690    8.148090   87.202700
  C     11.882700    7.775820   85.209500
  H     11.493400    6.750820   85.460800
  H     12.873100    7.820190   84.788800
  C     10.805900    8.175600   84.165500
  H      9.793430    8.118440   84.593600
  H     10.873000    7.423870   83.415600
  C     11.059800    9.595170   83.605400
  H     10.311200    9.921710   82.958200
  H     12.004300    9.622750   83.042400
  H     11.152300   10.251500   84.498200
  H     17.930000    9.178110   86.217800
  H     10.429700    9.350500   89.439600

 Total Charge           Charge          ....    0
 Multiplicity           Mult            ....    1
 Number of Electrons    NEL             ....  134
 Basis Dimension        Dim             ....  322

ORBITAL ENERGIES
----------------

  NO   OCC          E(Eh)            E(eV)
   0   2.0000     -88.968423     -2420.9539
   1   2.0000     -88.964477     -2420.8465
   2   2.0000     -10.326176      -280.9895
   3   2.0000     -10.321844      -280.8716
   4   2.0000     -10.318718      -280.7866
   5   2.0000     -10.317125      -280.7433
   6   2.0000     -10.302682      -280.3502
   7   2.0000     -10.299469      -280.2628
   8   2.0000     -10.293358      -280.0965
   9   2.0000     -10.292292      -280.0675
  10   2.0000     -10.291303      -280.0406
  11   2.0000     -10.288202      -279.9562
  12   2.0000     -10.287779      -279.9447
  13   2.0000     -10.285490      -279.8824
  14   2.0000     -10.273286      -279.5503
  15   2.0000     -10.270892      -279.4852
  16   2.0000      -8.082312      -219.9309
  17   2.0000      -8.079139      -219.8445
  18   2.0000      -6.040787      -164.3782
  19   2.0000      -6.037500      -164.2887
  20   2.0000      -6.036901      -164.2724
  21   2.0000      -6.033729      -164.1861
  22   2.0000      -6.033198      -164.1717
  23   2.0000      -6.029994      -164.0845
  24   2.0000      -1.004202       -27.3257
  25   2.0000      -0.979221       -26.6460
  26   2.0000      -0.914220       -24.8772
  27   2.0000      -0.907554       -24.6958
  28   2.0000      -0.868570       -23.6350
  29   2.0000      -0.849837       -23.1252
  30   2.0000      -0.847187       -23.0531
  31   2.0000      -0.808544       -22.0016
  32   2.0000      -0.786111       -21.3912
  33   2.0000      -0.773217       -21.0403
  34   2.0000      -0.707029       -19.2392
  35   2.0000      -0.704459       -19.1693
  36   2.0000      -0.695881       -18.9359
  37   2.0000      -0.660416       -17.9708
  38   2.0000      -0.642282       -17.4774
  39   2.0000      -0.610431       -16.6107
  40   2.0000      -0.596852       -16.2412
  41   2.0000      -0.578994       -15.7552
  42   2.0000      -0.563005       -15.3201
  43   2.0000      -0.554612       -15.0918
  44   2.0000      -0.544737       -14.8230
  45   2.0000      -0.535305       -14.5664
  46   2.0000      -0.524777       -14.2799
  47   2.0000      -0.511789       -13.9265
  48   2.0000      -0.498256       -13.5582
  49   2.0000      -0.491687       -13.3795
  50   2.0000      -0.488833       -13.3018
  51   2.0000      -0.475575       -12.9410
  52   2.0000      -0.468870       -12.7586
  53   2.0000      -0.463386       -12.6094
  54   2.0000      -0.460511       -12.5311
  55   2.0000      -0.449129       -12.2214
  56   2.0000      -0.444091       -12.0843
  57   2.0000      -0.436870       -11.8878
  58   2.0000      -0.430712       -11.7203
  59   2.0000      -0.425499       -11.5784
  60   2.0000      -0.422702       -11.5023
  61   2.0000      -0.419556       -11.4167
  62   2.0000      -0.418270       -11.3817
  63   2.0000      -0.339542        -9.2394
  64   2.0000      -0.331463        -9.0196
  65   2.0000      -0.327945        -8.9238
  66   2.0000      -0.289103        -7.8669
  67   0.0000       0.029753         0.8096
  68   0.0000       0.060687         1.6514
  69   0.0000       0.114677         3.1205
  70   0.0000       0.118982         3.2377
  71   0.0000       0.123092         3.3495

MULLIKEN ATOMIC CHARGES
-----------------------
   0 S :    0.118352
   1 C :   -0.159425
   2 C :   -0.097809
   3 C :    0.078921
   4 C :   -0.179230
   5 H :   -0.049244
   6 C :    0.111798
   7 H :    0.011637
   8 H :    0.053899
   9 C :   -0.079392
  10 H :    0.024356
  11 H :    0.038693
  12 C :   -0.049643
  13 H :    0.011339
  14 H :    0.059364
  15 H :    0.022563
  16 S :    0.108628
  17 C :   -0.092096
  18 C :   -0.024743
  19 C :   -0.008511
  20 C :   -0.177558
  21 H :    0.012939
  22 C :    0.054173
  23 H :    0.041495
  24 H :    0.030935
  25 C :   -0.075948
  26 H :    0.028209
  27 H :    0.023162
  28 C :   -0.048515
  29 H :    0.026076
  30 H :    0.029759
  31 H :    0.047821
  32 H :    0.060378
  33 H :    0.047617
Sum of atomic charges:    0.0000000

LOEWDIN ATOMIC CHARGES
----------------------
   0 S :    0.397896
   1 C :   -0.189467
   2 C :   -0.065206
   3 C :   -0.042676
   4 C :   -0.204698
   5 H :    0.006725
   6 C :   -0.027517
   7 H :    0.027815
   8 H :    0.040286
   9 C :   -0.033586
  10 H :    0.016190
  11 H :    0.030076
  12 C :   -0.065701
  13 H :    0.017750
  14 H :    0.038747
  15 H :    0.019465
  16 S :    0.400363
  17 C :   -0.169416
  18 C :   -0.064676
  19 C :   -0.060929
  20 C :   -0.201934
  21 H :    0.028677
  22 C :   -0.026610
  23 H :    0.042570
  24 H :    0.028292
  25 C :   -0.035914
  26 H :    0.022170
  27 H :    0.018246
  28 C :   -0.065613
  29 H :    0.015527
  30 H :    0.025568
  31 H :    0.031087
  32 H :    0.027759
  33 H :    0.018734

  Mayer bond orders larger than 0.100000
B(  0-S ,  1-C ) :   1.1554 B(  0-S ,  4-C ) :   1.1416 B(  1-C ,  2-C ) :   1.5678
B(  1-C , 32-H ) :   0.9651 B(  2-C ,  3-C ) :   1.2729 B(  2-C ,  6-C ) :   1.0056
B(  3-C ,  4-C ) :   1.5394 B(  3-C ,  5-H ) :   1.0051 B(  4-C , 20-C ) :   1.0682
B(  6-C ,  7-H ) :   0.9373 B(  6-C ,  8-H ) :   0.9357 B(  6-C ,  9-C ) :   1.0762
B(  9-C , 10-H ) :   0.9588 B(  9-C , 11-H ) :   0.9558 B(  9-C , 12-C ) :   1.0800
B( 12-C , 13-H ) :   0.9721 B( 12-C , 14-H ) :   0.9726 B( 12-C , 15-H ) :   0.9722
B( 16-S , 17-C ) :   1.1491 B( 16-S , 20-C ) :   1.1576 B( 17-C , 18-C ) :   1.5895
B( 17-C , 20-C ) :   0.1075 B( 17-C , 33-H ) :   0.9774 B( 18-C , 19-C ) :   1.2459
B( 18-C , 21-H ) :   0.9932 B( 19-C , 20-C ) :   1.5563 B( 19-C , 22-C ) :   1.0558
B( 22-C , 23-H ) :   0.9356 B( 22-C , 24-H ) :   0.9328 B( 22-C , 25-C ) :   1.0653
B( 25-C , 26-H ) :   0.9572 B( 25-C , 27-H ) :   0.9569 B( 25-C , 28-C ) :   1.0713
B( 28-C , 29-H ) :   0.9742 B( 28-C , 30-H ) :   0.9737 B( 28-C , 31-H ) :   0.9743

Dispersion correction           -0.014932475
FINAL SINGLE POINT ENERGY     -1339.873499428446

DIPOLE MOMENT
-------------
                                X             Y             Z
Electronic contribution:     -0.45928      -9.64742      20.64681
Nuclear contribution   :      0.35339       9.82619     -21.19814
                        -----------------------------------------
Total Dipole Moment    :     -0.10589       0.17877      -0.55134
                        -----------------------------------------
Magnitude (a.u.)       :      0.58919
Magnitude (Debye)      :      1.49760

Rotational constants in cm-1:     0.019820     0.008482     0.007137
Rotational constants in MHz :   594.202780   254.284862   213.950516

                             ****ORCA TERMINATED NORMALLY****
TOTAL RUN TIME: 0 days 0 hours 0 minutes 35 seconds 955 msec
