                         Program Version 4.2.1 -  RELEASE  -
|  1> ! wB97X-D3 SP def2-SVP
|  2> %pal
|  3> nprocs 16
|  4> end
|  5>
|  6> * xyz 0 1
|  7> S 	 -44.7972 	 37.8528 	 80.0946
|  8> C 	 -43.361 	 37.0646 	 79.3969
|  9> C 	 -42.2196 	 37.6252 	 79.9655
| 10> C 	 -42.5801 	 38.691 	 80.8658
| 11> C 	 -43.911 	 38.9546 	 81.1445
| 12> H 	 -41.8486 	 39.2763 	 81.3399
| 13> C 	 -40.786 	 37.2279 	 79.7262
| 14> H 	 -40.2948 	 37.9852 	 79.1589
| 15> H 	 -40.7319 	 36.3874 	 79.0342
| 16> C 	 -40.0422 	 36.7228 	 80.9928
| 17> H 	 -38.9791 	 36.7223 	 80.7586
| 18> H 	 -40.2509 	 37.4773 	 81.7943
| 19> C 	 -40.5344 	 35.3579 	 81.4617
| 20> H 	 -41.6071 	 35.4544 	 81.6918
| 21> H 	 -40.4175 	 34.6836 	 80.6134
| 22> H 	 -39.9521 	 34.9881 	 82.2874
| 23> S 	 -45.276 	 41.2857 	 81.1151
| 24> C 	 -45.3975 	 42.1397 	 82.579
| 25> C 	 -44.8559 	 41.4402 	 83.6581
| 26> C 	 -44.1399 	 40.3145 	 83.2214
| 27> C 	 -44.4061 	 40.0234 	 81.8822
| 28> H 	 -45.071 	 41.7463 	 84.6855
| 29> C 	 -43.4482 	 39.4393 	 84.2129
| 30> H 	 -43.5895 	 38.3865 	 83.9471
| 31> H 	 -43.8958 	 39.608 	 85.178
| 32> C 	 -42.0742 	 39.9085 	 84.6
| 33> H 	 -41.3902 	 39.8006 	 83.7909
| 34> H 	 -41.6748 	 39.1737 	 85.2912
| 35> C 	 -41.9332 	 41.2362 	 85.3478
| 36> H 	 -42.4966 	 41.3078 	 86.2637
| 37> H 	 -42.338 	 42.0783 	 84.7089
| 38> H 	 -40.9586 	 41.5289 	 85.6704
| 39> H 	 -43.4544 	 36.203 	 78.7837
| 40> H 	 -45.8795 	 43.0469 	 82.7727
| 41> *
| 42>
| 43>                          ****END OF INPUT****

CARTESIAN COORDINATES (ANGSTROEM)
---------------------------------
  S    -44.797200   37.852800   80.094600
  C    -43.361000   37.064600   79.396900
  C    -42.219600   37.625200   79.965500
  C    -42.580100   38.691000   80.865800
  C    -43.911000   38.954600   81.144500
  H    -41.848600   39.276300   81.339900
  C    -40.786000   37.227900   79.726200
  H    -40.294800   37.985200   79.158900
  H    -40.731900   36.387400   79.034200
  C    -40.042200   36.722800   80.992800
  H    -38.979100   36.722300   80.758600
  H    -40.250900   37.477300   81.794300
  C    -40.534400   35.357900   81.461700
  H    -41.607100   35.454400   81.691800
  H    -40.417500   34.683600   80.613400
  H    -39.952100   34.988100   82.287400
  S    -45.276000   41.285700   81.115100
  C    -45.397500   42.139700   82.579000
  C    -44.855900   41.440200   83.658100
  C    -44.139900   40.314500   83.221400
  C    -44.406100   40.023400   81.882200
  H    -45.071000   41.746300   84.685500
  C    -43.448200   39.439300   84.212900
  H    -43.589500   38.386500   83.947100
  H    -43.895800   39.608000   85.178000
  C    -42.074200   39.908500   84.600000
  H    -41.390200   39.800600   83.790900
  H    -41.674800   39.173700   85.291200
  C    -41.933200   41.236200   85.347800
  H    -42.496600   41.307800   86.263700
  H    -42.338000   42.078300   84.708900
  H    -40.958600   41.528900   85.670400
  H    -43.454400   36.203000   78.783700
  H    -45.879500   43.046900   82.772700

 Total Charge           Charge          ....    0
 Multiplicity           Mult            ....    1
 Number of Electrons    NEL             ....  134
 Basis Dimension        Dim             ....  322

ORBITAL ENERGIES
----------------

  NO   OCC          E(Eh)            E(eV)
   0   2.0000     -88.970450     -2421.0090
   1   2.0000     -88.961032     -2420.7527
   2   2.0000     -10.325433      -280.9693
   3   2.0000     -10.318656      -280.7849
   4   2.0000     -10.318053      -280.7685
   5   2.0000     -10.309379      -280.5325
   6   2.0000     -10.304054      -280.3876
   7   2.0000     -10.298459      -280.2353
   8   2.0000     -10.291328      -280.0413
   9   2.0000     -10.290328      -280.0141
  10   2.0000     -10.289595      -279.9941
  11   2.0000     -10.287936      -279.9490
  12   2.0000     -10.286037      -279.8973
  13   2.0000     -10.282027      -279.7882
  14   2.0000     -10.278825      -279.7010
  15   2.0000     -10.276333      -279.6332
  16   2.0000      -8.086374      -220.0414
  17   2.0000      -8.075265      -219.7391
  18   2.0000      -6.044688      -164.4843
  19   2.0000      -6.040648      -164.3744
  20   2.0000      -6.037328      -164.2840
  21   2.0000      -6.033922      -164.1914
  22   2.0000      -6.029613      -164.0741
  23   2.0000      -6.026109      -163.9788
  24   2.0000      -1.016005       -27.6469
  25   2.0000      -0.984568       -26.7915
  26   2.0000      -0.920218       -25.0404
  27   2.0000      -0.913705       -24.8632
  28   2.0000      -0.877088       -23.8668
  29   2.0000      -0.854747       -23.2589
  30   2.0000      -0.840754       -22.8781
  31   2.0000      -0.813652       -22.1406
  32   2.0000      -0.788639       -21.4600
  33   2.0000      -0.776468       -21.1288
  34   2.0000      -0.716755       -19.5039
  35   2.0000      -0.699565       -19.0361
  36   2.0000      -0.693454       -18.8698
  37   2.0000      -0.665377       -18.1058
  38   2.0000      -0.645628       -17.5684
  39   2.0000      -0.623255       -16.9596
  40   2.0000      -0.598388       -16.2830
  41   2.0000      -0.575295       -15.6546
  42   2.0000      -0.564154       -15.3514
  43   2.0000      -0.554593       -15.0912
  44   2.0000      -0.546389       -14.8680
  45   2.0000      -0.538465       -14.6524
  46   2.0000      -0.517558       -14.0835
  47   2.0000      -0.513675       -13.9778
  48   2.0000      -0.509588       -13.8666
  49   2.0000      -0.498334       -13.5604
  50   2.0000      -0.486489       -13.2380
  51   2.0000      -0.475906       -12.9500
  52   2.0000      -0.473597       -12.8872
  53   2.0000      -0.469690       -12.7809
  54   2.0000      -0.462343       -12.5810
  55   2.0000      -0.460889       -12.5414
  56   2.0000      -0.446865       -12.1598
  57   2.0000      -0.440084       -11.9753
  58   2.0000      -0.436729       -11.8840
  59   2.0000      -0.418888       -11.3985
  60   2.0000      -0.415650       -11.3104
  61   2.0000      -0.408305       -11.1105
  62   2.0000      -0.407760       -11.0957
  63   2.0000      -0.345377        -9.3982
  64   2.0000      -0.333126        -9.0648
  65   2.0000      -0.325054        -8.8452
  66   2.0000      -0.291690        -7.9373
  67   0.0000       0.031108         0.8465
  68   0.0000       0.066383         1.8064
  69   0.0000       0.114818         3.1244
  70   0.0000       0.125571         3.4170
  71   0.0000       0.131877         3.5886

MULLIKEN ATOMIC CHARGES
-----------------------
   0 S :    0.081904
   1 C :   -0.118137
   2 C :   -0.085993
   3 C :    0.036919
   4 C :   -0.158991
   5 H :   -0.014388
   6 C :    0.082746
   7 H :    0.035027
   8 H :    0.001561
   9 C :   -0.098270
  10 H :    0.032492
  11 H :    0.034241
  12 C :   -0.036150
  13 H :    0.047904
  14 H :    0.021118
  15 H :    0.040086
  16 S :    0.153736
  17 C :   -0.071011
  18 C :   -0.056159
  19 C :   -0.027039
  20 C :   -0.159773
  21 H :    0.029037
  22 C :    0.082119
  23 H :    0.043771
  24 H :    0.005637
  25 C :   -0.040695
  26 H :    0.011208
  27 H :    0.019941
  28 C :   -0.058608
  29 H :    0.016364
  30 H :    0.042801
  31 H :    0.029507
  32 H :    0.046201
  33 H :    0.030896
Sum of atomic charges:    0.0000000

LOEWDIN ATOMIC CHARGES
----------------------
   0 S :    0.381418
   1 C :   -0.178190
   2 C :   -0.063980
   3 C :   -0.056237
   4 C :   -0.198084
   5 H :    0.015989
   6 C :   -0.032764
   7 H :    0.031283
   8 H :    0.026473
   9 C :   -0.039853
  10 H :    0.022965
  11 H :    0.023450
  12 C :   -0.061416
  13 H :    0.032410
  14 H :    0.022466
  15 H :    0.025800
  16 S :    0.460131
  17 C :   -0.197492
  18 C :   -0.068881
  19 C :   -0.048143
  20 C :   -0.222816
  21 H :    0.034879
  22 C :   -0.031532
  23 H :    0.037572
  24 H :    0.031831
  25 C :   -0.038548
  26 H :    0.013318
  27 H :    0.026813
  28 C :   -0.068665
  29 H :    0.020911
  30 H :    0.031694
  31 H :    0.025283
  32 H :    0.023181
  33 H :    0.018732

  Mayer bond orders larger than 0.100000
B(  0-S ,  1-C ) :   1.1440 B(  0-S ,  4-C ) :   1.1239 B(  1-C ,  2-C ) :   1.5756
B(  1-C , 32-H ) :   0.9760 B(  2-C ,  3-C ) :   1.2525 B(  2-C ,  6-C ) :   1.0301
B(  3-C ,  4-C ) :   1.5614 B(  3-C ,  5-H ) :   0.9965 B(  4-C , 20-C ) :   1.0883
B(  6-C ,  7-H ) :   0.9373 B(  6-C ,  8-H ) :   0.9388 B(  6-C ,  9-C ) :   1.0586
B(  9-C , 10-H ) :   0.9556 B(  9-C , 11-H ) :   0.9592 B(  9-C , 12-C ) :   1.0726
B( 12-C , 13-H ) :   0.9753 B( 12-C , 14-H ) :   0.9737 B( 12-C , 15-H ) :   0.9736
B( 16-S , 17-C ) :   1.1829 B( 16-S , 20-C ) :   1.1560 B( 17-C , 18-C ) :   1.5751
B( 17-C , 20-C ) :   0.1060 B( 17-C , 33-H ) :   0.9702 B( 18-C , 19-C ) :   1.2763
B( 18-C , 21-H ) :   0.9846 B( 19-C , 20-C ) :   1.5457 B( 19-C , 22-C ) :   1.0546
B( 22-C , 23-H ) :   0.9334 B( 22-C , 24-H ) :   0.9321 B( 22-C , 25-C ) :   1.0626
B( 25-C , 26-H ) :   0.9495 B( 25-C , 27-H ) :   0.9480 B( 25-C , 28-C ) :   1.0798
B( 28-C , 29-H ) :   0.9697 B( 28-C , 30-H ) :   0.9697 B( 28-C , 31-H ) :   0.9720

Dispersion correction           -0.015173545
FINAL SINGLE POINT ENERGY     -1339.871829237409

DIPOLE MOMENT
-------------
                                X             Y             Z
Electronic contribution:    -23.16432       7.91688     -15.06242
Nuclear contribution   :     23.71465      -7.95281      15.48681
                        -----------------------------------------
Total Dipole Moment    :      0.55034      -0.03592       0.42440
                        -----------------------------------------
Magnitude (a.u.)       :      0.69590
Magnitude (Debye)      :      1.76883

Rotational constants in cm-1:     0.018597     0.009867     0.007087
Rotational constants in MHz :   557.512575   295.799465   212.462446

                             ****ORCA TERMINATED NORMALLY****
TOTAL RUN TIME: 0 days 0 hours 0 minutes 30 seconds 166 msec
