                         Program Version 4.2.1 -  RELEASE  -
|  1> ! wB97X-D3 SP def2-SVP
|  2> %pal
|  3> nprocs 16
|  4> end
|  5>
|  6> * xyz 0 1
|  7> S 	 6.37664 	 -15.7947 	 66.5685
|  8> C 	 6.38167 	 -17.5297 	 66.4074
|  9> C 	 7.26648 	 -18.1021 	 67.3433
| 10> C 	 8.05245 	 -17.0851 	 68.0489
| 11> C 	 7.75294 	 -15.7971 	 67.6583
| 12> H 	 8.78633 	 -17.2489 	 68.8075
| 13> C 	 7.62773 	 -19.5709 	 67.5396
| 14> H 	 6.80593 	 -20.2489 	 67.388
| 15> H 	 7.87729 	 -19.7707 	 68.6393
| 16> C 	 8.92562 	 -20.1129 	 66.9205
| 17> H 	 9.65824 	 -19.3825 	 67.1775
| 18> H 	 9.11645 	 -21.0485 	 67.4713
| 19> C 	 9.07352 	 -20.3961 	 65.4221
| 20> H 	 8.89513 	 -21.4086 	 65.2656
| 21> H 	 8.46563 	 -19.8016 	 64.8132
| 22> H 	 10.1058 	 -20.3334 	 65.0401
| 23> S 	 6.86246 	 -13.7588 	 69.0959
| 24> C 	 7.84528 	 -12.3683 	 69.4029
| 25> C 	 9.17145 	 -12.6138 	 69.0103
| 26> C 	 9.43579 	 -13.9125 	 68.3683
| 27> C 	 8.18844 	 -14.5399 	 68.2272
| 28> H 	 9.86664 	 -11.8574 	 69.2586
| 29> C 	 10.7269 	 -14.3598 	 67.7034
| 30> H 	 11.1196 	 -15.3454 	 67.9326
| 31> H 	 11.513 	 -13.7757 	 68.1276
| 32> C 	 10.8916 	 -13.986 	 66.1879
| 33> H 	 11.9034 	 -13.6803 	 66.0635
| 34> H 	 10.3249 	 -13.0933 	 65.8743
| 35> C 	 10.5264 	 -15.0917 	 65.2523
| 36> H 	 9.46306 	 -15.2707 	 65.4049
| 37> H 	 11.0966 	 -15.9871 	 65.4292
| 38> H 	 10.8207 	 -14.6431 	 64.3006
| 39> H 	 5.88953 	 -18.0963 	 65.6282
| 40> H 	 7.45933 	 -11.4895 	 69.9874
| 41> *
| 42>
| 43>                          ****END OF INPUT****

CARTESIAN COORDINATES (ANGSTROEM)
---------------------------------
  S      6.376640  -15.794700   66.568500
  C      6.381670  -17.529700   66.407400
  C      7.266480  -18.102100   67.343300
  C      8.052450  -17.085100   68.048900
  C      7.752940  -15.797100   67.658300
  H      8.786330  -17.248900   68.807500
  C      7.627730  -19.570900   67.539600
  H      6.805930  -20.248900   67.388000
  H      7.877290  -19.770700   68.639300
  C      8.925620  -20.112900   66.920500
  H      9.658240  -19.382500   67.177500
  H      9.116450  -21.048500   67.471300
  C      9.073520  -20.396100   65.422100
  H      8.895130  -21.408600   65.265600
  H      8.465630  -19.801600   64.813200
  H     10.105800  -20.333400   65.040100
  S      6.862460  -13.758800   69.095900
  C      7.845280  -12.368300   69.402900
  C      9.171450  -12.613800   69.010300
  C      9.435790  -13.912500   68.368300
  C      8.188440  -14.539900   68.227200
  H      9.866640  -11.857400   69.258600
  C     10.726900  -14.359800   67.703400
  H     11.119600  -15.345400   67.932600
  H     11.513000  -13.775700   68.127600
  C     10.891600  -13.986000   66.187900
  H     11.903400  -13.680300   66.063500
  H     10.324900  -13.093300   65.874300
  C     10.526400  -15.091700   65.252300
  H      9.463060  -15.270700   65.404900
  H     11.096600  -15.987100   65.429200
  H     10.820700  -14.643100   64.300600
  H      5.889530  -18.096300   65.628200
  H      7.459330  -11.489500   69.987400

 Total Charge           Charge          ....    0
 Multiplicity           Mult            ....    1
 Number of Electrons    NEL             ....  134
 Basis Dimension        Dim             ....  322

ORBITAL ENERGIES
----------------

  NO   OCC          E(Eh)            E(eV)
   0   2.0000     -88.966051     -2420.8893
   1   2.0000     -88.963401     -2420.8172
   2   2.0000     -10.328098      -281.0418
   3   2.0000     -10.327065      -281.0137
   4   2.0000     -10.320326      -280.8303
   5   2.0000     -10.319009      -280.7945
   6   2.0000     -10.315012      -280.6857
   7   2.0000     -10.309965      -280.5484
   8   2.0000     -10.298367      -280.2328
   9   2.0000     -10.296432      -280.1802
  10   2.0000     -10.296086      -280.1708
  11   2.0000     -10.291804      -280.0542
  12   2.0000     -10.284437      -279.8538
  13   2.0000     -10.279609      -279.7224
  14   2.0000     -10.265818      -279.3471
  15   2.0000     -10.265749      -279.3452
  16   2.0000      -8.080606      -219.8845
  17   2.0000      -8.078456      -219.8260
  18   2.0000      -6.039178      -164.3344
  19   2.0000      -6.036928      -164.2732
  20   2.0000      -6.035010      -164.2210
  21   2.0000      -6.032894      -164.1634
  22   2.0000      -6.031406      -164.1229
  23   2.0000      -6.029238      -164.0639
  24   2.0000      -1.004745       -27.3405
  25   2.0000      -0.977331       -26.5945
  26   2.0000      -0.909409       -24.7463
  27   2.0000      -0.907965       -24.7070
  28   2.0000      -0.867463       -23.6049
  29   2.0000      -0.852732       -23.2040
  30   2.0000      -0.844798       -22.9881
  31   2.0000      -0.810848       -22.0643
  32   2.0000      -0.788048       -21.4439
  33   2.0000      -0.777069       -21.1451
  34   2.0000      -0.704102       -19.1596
  35   2.0000      -0.693884       -18.8815
  36   2.0000      -0.687714       -18.7136
  37   2.0000      -0.658654       -17.9229
  38   2.0000      -0.642640       -17.4871
  39   2.0000      -0.619557       -16.8590
  40   2.0000      -0.599956       -16.3256
  41   2.0000      -0.568990       -15.4830
  42   2.0000      -0.555814       -15.1245
  43   2.0000      -0.547082       -14.8869
  44   2.0000      -0.535197       -14.5634
  45   2.0000      -0.529485       -14.4080
  46   2.0000      -0.521437       -14.1890
  47   2.0000      -0.514455       -13.9990
  48   2.0000      -0.500556       -13.6208
  49   2.0000      -0.497062       -13.5257
  50   2.0000      -0.491030       -13.3616
  51   2.0000      -0.489459       -13.3189
  52   2.0000      -0.472832       -12.8664
  53   2.0000      -0.466186       -12.6856
  54   2.0000      -0.460061       -12.5189
  55   2.0000      -0.442779       -12.0486
  56   2.0000      -0.439023       -11.9464
  57   2.0000      -0.434437       -11.8216
  58   2.0000      -0.431819       -11.7504
  59   2.0000      -0.422531       -11.4977
  60   2.0000      -0.416009       -11.3202
  61   2.0000      -0.410535       -11.1712
  62   2.0000      -0.405158       -11.0249
  63   2.0000      -0.343121        -9.3368
  64   2.0000      -0.332026        -9.0349
  65   2.0000      -0.321903        -8.7594
  66   2.0000      -0.294439        -8.0121
  67   0.0000       0.033914         0.9228
  68   0.0000       0.057702         1.5702
  69   0.0000       0.108128         2.9423
  70   0.0000       0.115748         3.1497
  71   0.0000       0.125656         3.4193

MULLIKEN ATOMIC CHARGES
-----------------------
   0 S :    0.110082
   1 C :   -0.110021
   2 C :   -0.071241
   3 C :    0.054457
   4 C :   -0.172757
   5 H :    0.008472
   6 C :    0.024852
   7 H :    0.018813
   8 H :    0.033967
   9 C :   -0.077428
  10 H :    0.016798
  11 H :    0.031236
  12 C :    0.006147
  13 H :    0.007155
  14 H :    0.019533
  15 H :    0.025066
  16 S :    0.109692
  17 C :   -0.113107
  18 C :   -0.040431
  19 C :    0.008186
  20 C :   -0.182215
  21 H :    0.005624
  22 C :    0.089905
  23 H :    0.023588
  24 H :    0.000295
  25 C :   -0.084951
  26 H :    0.010427
  27 H :    0.031352
  28 C :   -0.015460
  29 H :    0.044612
  30 H :    0.021791
  31 H :    0.030060
  32 H :    0.055600
  33 H :    0.079902
Sum of atomic charges:    0.0000000

LOEWDIN ATOMIC CHARGES
----------------------
   0 S :    0.407557
   1 C :   -0.200616
   2 C :   -0.059683
   3 C :   -0.054719
   4 C :   -0.201908
   5 H :    0.028739
   6 C :   -0.040820
   7 H :    0.022591
   8 H :    0.044950
   9 C :   -0.039307
  10 H :    0.018408
  11 H :    0.028431
  12 C :   -0.062624
  13 H :    0.017175
  14 H :    0.017033
  15 H :    0.032582
  16 S :    0.409132
  17 C :   -0.205906
  18 C :   -0.066513
  19 C :   -0.049474
  20 C :   -0.192290
  21 H :    0.022091
  22 C :   -0.036596
  23 H :    0.032229
  24 H :    0.031084
  25 C :   -0.034310
  26 H :    0.014906
  27 H :    0.030124
  28 C :   -0.059640
  29 H :    0.027986
  30 H :    0.018145
  31 H :    0.028787
  32 H :    0.031239
  33 H :    0.041215

  Mayer bond orders larger than 0.100000
B(  0-S ,  1-C ) :   1.1379 B(  0-S ,  4-C ) :   1.1389 B(  1-C ,  2-C ) :   1.6033
B(  1-C , 32-H ) :   0.9721 B(  2-C ,  3-C ) :   1.2111 B(  2-C ,  6-C ) :   1.0377
B(  3-C ,  4-C ) :   1.5899 B(  3-C ,  5-H ) :   0.9982 B(  4-C , 20-C ) :   1.0190
B(  6-C ,  7-H ) :   0.9461 B(  6-C ,  8-H ) :   0.9391 B(  6-C ,  9-C ) :   1.0666
B(  9-C , 10-H ) :   0.9572 B(  9-C , 11-H ) :   0.9607 B(  9-C , 12-C ) :   1.0730
B( 12-C , 13-H ) :   0.9741 B( 12-C , 14-H ) :   0.9777 B( 12-C , 15-H ) :   0.9731
B( 16-S , 17-C ) :   1.1423 B( 16-S , 20-C ) :   1.1689 B( 17-C , 18-C ) :   1.6210
B( 17-C , 33-H ) :   0.9626 B( 18-C , 19-C ) :   1.2061 B( 18-C , 21-H ) :   0.9926
B( 19-C , 20-C ) :   1.5816 B( 19-C , 22-C ) :   1.0662 B( 22-C , 23-H ) :   0.9362
B( 22-C , 24-H ) :   0.9218 B( 22-C , 25-C ) :   1.0527 B( 25-C , 26-H ) :   0.9588
B( 25-C , 27-H ) :   0.9558 B( 25-C , 28-C ) :   1.0848 B( 28-C , 29-H ) :   0.9716
B( 28-C , 30-H ) :   0.9769 B( 28-C , 31-H ) :   0.9717

Dispersion correction           -0.014971434
FINAL SINGLE POINT ENERGY     -1339.856852062156

DIPOLE MOMENT
-------------
                                X             Y             Z
Electronic contribution:    -19.37946      16.50155      11.06485
Nuclear contribution   :     19.97120     -16.76428     -11.01901
                        -----------------------------------------
Total Dipole Moment    :      0.59175      -0.26273       0.04584
                        -----------------------------------------
Magnitude (a.u.)       :      0.64907
Magnitude (Debye)      :      1.64981

Rotational constants in cm-1:     0.020381     0.009080     0.007397
Rotational constants in MHz :   611.013042   272.197251   221.752128

                             ****ORCA TERMINATED NORMALLY****
TOTAL RUN TIME: 0 days 0 hours 0 minutes 35 seconds 935 msec
