                         Program Version 4.2.1 -  RELEASE  -
|  1> ! wB97X-D3 SP def2-SVP
|  2> %pal
|  3> nprocs 16
|  4> end
|  5>
|  6> * xyz 0 1
|  7> S 	 12.7516 	 21.8736 	 62.8009
|  8> C 	 12.991 	 20.3061 	 62.2389
|  9> C 	 11.8075 	 19.68 	 61.8587
| 10> C 	 10.7002 	 20.5526 	 61.919
| 11> C 	 10.9926 	 21.8599 	 62.3091
| 12> H 	 9.64742 	 20.2187 	 61.7404
| 13> C 	 11.6581 	 18.1657 	 61.5551
| 14> H 	 12.5059 	 17.8019 	 61.0018
| 15> H 	 10.7388 	 18.1191 	 60.9825
| 16> C 	 11.5409 	 17.2632 	 62.8206
| 17> H 	 11.481 	 16.2341 	 62.5076
| 18> H 	 12.4371 	 17.3295 	 63.4512
| 19> C 	 10.2869 	 17.6313 	 63.6981
| 20> H 	 9.30445 	 17.7105 	 63.241
| 21> H 	 10.2944 	 17.1136 	 64.6449
| 22> H 	 10.512 	 18.6047 	 64.1782
| 23> S 	 10.2101 	 23.9596 	 64.0016
| 24> C 	 8.80484 	 24.8089 	 63.658
| 25> C 	 8.1856 	 24.416 	 62.5091
| 26> C 	 8.86122 	 23.3089 	 61.8843
| 27> C 	 10.0011 	 22.9183 	 62.5768
| 28> H 	 7.23964 	 24.8108 	 62.1706
| 29> C 	 8.27618 	 22.652 	 60.6203
| 30> H 	 8.92747 	 22.3152 	 59.8154
| 31> H 	 7.80686 	 23.5179 	 60.072
| 32> C 	 7.1371 	 21.6017 	 60.9154
| 33> H 	 6.68656 	 21.8383 	 61.8422
| 34> H 	 7.70783 	 20.6596 	 61.0132
| 35> C 	 6.01146 	 21.5482 	 59.7566
| 36> H 	 5.31116 	 20.7885 	 59.936
| 37> H 	 6.47848 	 21.2676 	 58.7995
| 38> H 	 5.45734 	 22.4562 	 59.6232
| 39> H 	 13.9236 	 19.793 	 62.3352
| 40> H 	 8.33482 	 25.5527 	 64.3185
| 41> *
| 42>
| 43>                          ****END OF INPUT****

CARTESIAN COORDINATES (ANGSTROEM)
---------------------------------
  S     12.751600   21.873600   62.800900
  C     12.991000   20.306100   62.238900
  C     11.807500   19.680000   61.858700
  C     10.700200   20.552600   61.919000
  C     10.992600   21.859900   62.309100
  H      9.647420   20.218700   61.740400
  C     11.658100   18.165700   61.555100
  H     12.505900   17.801900   61.001800
  H     10.738800   18.119100   60.982500
  C     11.540900   17.263200   62.820600
  H     11.481000   16.234100   62.507600
  H     12.437100   17.329500   63.451200
  C     10.286900   17.631300   63.698100
  H      9.304450   17.710500   63.241000
  H     10.294400   17.113600   64.644900
  H     10.512000   18.604700   64.178200
  S     10.210100   23.959600   64.001600
  C      8.804840   24.808900   63.658000
  C      8.185600   24.416000   62.509100
  C      8.861220   23.308900   61.884300
  C     10.001100   22.918300   62.576800
  H      7.239640   24.810800   62.170600
  C      8.276180   22.652000   60.620300
  H      8.927470   22.315200   59.815400
  H      7.806860   23.517900   60.072000
  C      7.137100   21.601700   60.915400
  H      6.686560   21.838300   61.842200
  H      7.707830   20.659600   61.013200
  C      6.011460   21.548200   59.756600
  H      5.311160   20.788500   59.936000
  H      6.478480   21.267600   58.799500
  H      5.457340   22.456200   59.623200
  H     13.923600   19.793000   62.335200
  H      8.334820   25.552700   64.318500

 Total Charge           Charge          ....    0
 Multiplicity           Mult            ....    1
 Number of Electrons    NEL             ....  134
 Basis Dimension        Dim             ....  322

ORBITAL ENERGIES
----------------

  NO   OCC          E(Eh)            E(eV)
   0   2.0000     -88.968470     -2420.9552
   1   2.0000     -88.965885     -2420.8848
   2   2.0000     -10.336509      -281.2707
   3   2.0000     -10.330692      -281.1124
   4   2.0000     -10.313246      -280.6377
   5   2.0000     -10.309992      -280.5491
   6   2.0000     -10.307015      -280.4681
   7   2.0000     -10.298622      -280.2397
   8   2.0000     -10.297638      -280.2130
   9   2.0000     -10.296806      -280.1903
  10   2.0000     -10.295436      -280.1531
  11   2.0000     -10.293827      -280.1093
  12   2.0000     -10.291634      -280.0496
  13   2.0000     -10.291450      -280.0446
  14   2.0000     -10.281530      -279.7747
  15   2.0000     -10.276309      -279.6326
  16   2.0000      -8.083040      -219.9507
  17   2.0000      -8.081695      -219.9141
  18   2.0000      -6.041512      -164.3979
  19   2.0000      -6.040113      -164.3598
  20   2.0000      -6.037594      -164.2913
  21   2.0000      -6.036059      -164.2495
  22   2.0000      -6.033826      -164.1888
  23   2.0000      -6.032484      -164.1522
  24   2.0000      -1.006525       -27.3889
  25   2.0000      -0.988318       -26.8935
  26   2.0000      -0.902404       -24.5557
  27   2.0000      -0.899795       -24.4847
  28   2.0000      -0.868950       -23.6453
  29   2.0000      -0.847839       -23.0709
  30   2.0000      -0.843026       -22.9399
  31   2.0000      -0.811541       -22.0832
  32   2.0000      -0.784070       -21.3356
  33   2.0000      -0.771765       -21.0008
  34   2.0000      -0.709186       -19.2979
  35   2.0000      -0.702884       -19.1264
  36   2.0000      -0.694333       -18.8937
  37   2.0000      -0.662293       -18.0219
  38   2.0000      -0.637655       -17.3515
  39   2.0000      -0.618342       -16.8260
  40   2.0000      -0.598819       -16.2947
  41   2.0000      -0.568210       -15.4618
  42   2.0000      -0.555162       -15.1067
  43   2.0000      -0.545583       -14.8461
  44   2.0000      -0.534413       -14.5421
  45   2.0000      -0.518293       -14.1035
  46   2.0000      -0.516468       -14.0538
  47   2.0000      -0.508955       -13.8494
  48   2.0000      -0.505352       -13.7513
  49   2.0000      -0.502214       -13.6659
  50   2.0000      -0.486558       -13.2399
  51   2.0000      -0.479139       -13.0380
  52   2.0000      -0.472261       -12.8509
  53   2.0000      -0.469250       -12.7689
  54   2.0000      -0.457667       -12.4538
  55   2.0000      -0.449924       -12.2431
  56   2.0000      -0.443365       -12.0646
  57   2.0000      -0.438928       -11.9438
  58   2.0000      -0.431928       -11.7534
  59   2.0000      -0.429418       -11.6851
  60   2.0000      -0.424983       -11.5644
  61   2.0000      -0.411902       -11.2084
  62   2.0000      -0.410374       -11.1669
  63   2.0000      -0.360794        -9.8177
  64   2.0000      -0.332157        -9.0385
  65   2.0000      -0.329539        -8.9672
  66   2.0000      -0.283226        -7.7070
  67   0.0000       0.026332         0.7165
  68   0.0000       0.073802         2.0083
  69   0.0000       0.108727         2.9586
  70   0.0000       0.125086         3.4038
  71   0.0000       0.128359         3.4928

MULLIKEN ATOMIC CHARGES
-----------------------
   0 S :    0.111024
   1 C :   -0.110360
   2 C :   -0.103664
   3 C :    0.002939
   4 C :   -0.125903
   5 H :    0.012378
   6 C :    0.088545
   7 H :    0.026807
   8 H :    0.021349
   9 C :   -0.057786
  10 H :    0.032168
  11 H :    0.027001
  12 C :   -0.077457
  13 H :    0.044114
  14 H :    0.024842
  15 H :    0.035521
  16 S :    0.113226
  17 C :   -0.083825
  18 C :   -0.028482
  19 C :   -0.042433
  20 C :   -0.155139
  21 H :    0.013339
  22 C :    0.007926
  23 H :    0.037870
  24 H :    0.020632
  25 C :   -0.061828
  26 H :    0.029008
  27 H :    0.041322
  28 C :   -0.041529
  29 H :    0.023999
  30 H :    0.030810
  31 H :    0.035429
  32 H :    0.043022
  33 H :    0.065135
Sum of atomic charges:    0.0000000

LOEWDIN ATOMIC CHARGES
----------------------
   0 S :    0.407868
   1 C :   -0.211581
   2 C :   -0.071449
   3 C :   -0.063633
   4 C :   -0.176758
   5 H :    0.035225
   6 C :   -0.023979
   7 H :    0.028759
   8 H :    0.027645
   9 C :   -0.032906
  10 H :    0.019823
  11 H :    0.025616
  12 C :   -0.080875
  13 H :    0.023883
  14 H :    0.026910
  15 H :    0.034279
  16 S :    0.421430
  17 C :   -0.206777
  18 C :   -0.075108
  19 C :   -0.054728
  20 C :   -0.190264
  21 H :    0.030273
  22 C :   -0.041825
  23 H :    0.030758
  24 H :    0.032901
  25 C :   -0.028578
  26 H :    0.017442
  27 H :    0.022995
  28 C :   -0.060704
  29 H :    0.019208
  30 H :    0.027969
  31 H :    0.023295
  32 H :    0.025397
  33 H :    0.037488

  Mayer bond orders larger than 0.100000
B(  0-S ,  1-C ) :   1.1696 B(  0-S ,  4-C ) :   1.1396 B(  1-C ,  2-C ) :   1.5703
B(  1-C ,  4-C ) :   0.1010 B(  1-C , 32-H ) :   0.9687 B(  2-C ,  3-C ) :   1.2945
B(  2-C ,  6-C ) :   1.0155 B(  3-C ,  4-C ) :   1.5399 B(  3-C ,  5-H ) :   0.9778
B(  4-C , 20-C ) :   1.0784 B(  6-C ,  7-H ) :   0.9417 B(  6-C ,  8-H ) :   0.9438
B(  6-C ,  9-C ) :   1.0700 B(  9-C , 10-H ) :   0.9605 B(  9-C , 11-H ) :   0.9557
B(  9-C , 12-C ) :   1.0738 B( 12-C , 13-H ) :   0.9794 B( 12-C , 14-H ) :   0.9695
B( 12-C , 15-H ) :   0.9666 B( 16-S , 17-C ) :   1.1721 B( 16-S , 20-C ) :   1.1284
B( 17-C , 18-C ) :   1.6038 B( 17-C , 33-H ) :   0.9599 B( 18-C , 19-C ) :   1.2526
B( 18-C , 21-H ) :   0.9911 B( 19-C , 20-C ) :   1.5965 B( 19-C , 22-C ) :   1.0367
B( 22-C , 23-H ) :   0.9441 B( 22-C , 24-H ) :   0.9429 B( 22-C , 25-C ) :   1.0367
B( 25-C , 26-H ) :   0.9628 B( 25-C , 27-H ) :   0.9532 B( 25-C , 28-C ) :   1.0704
B( 28-C , 29-H ) :   0.9767 B( 28-C , 30-H ) :   0.9779 B( 28-C , 31-H ) :   0.9786

Dispersion correction           -0.014754820
FINAL SINGLE POINT ENERGY     -1339.876987859655

DIPOLE MOMENT
-------------
                                X             Y             Z
Electronic contribution:     16.99988      20.45957      10.03047
Nuclear contribution   :    -17.48607     -20.89008     -10.14367
                        -----------------------------------------
Total Dipole Moment    :     -0.48619      -0.43051      -0.11320
                        -----------------------------------------
Magnitude (a.u.)       :      0.65919
Magnitude (Debye)      :      1.67553

Rotational constants in cm-1:     0.016397     0.009596     0.007003
Rotational constants in MHz :   491.575309   287.672540   209.946331

                             ****ORCA TERMINATED NORMALLY****
TOTAL RUN TIME: 0 days 0 hours 0 minutes 35 seconds 396 msec
