                         Program Version 4.2.1 -  RELEASE  -
|  1> ! wB97X-D3 SP def2-SVP
|  2> %pal
|  3> nprocs 16
|  4> end
|  5>
|  6> * xyz 0 1
|  7> S 	 14.9801 	 25.9668 	 61.2651
|  8> C 	 16.3318 	 24.8642 	 61.4157
|  9> C 	 15.9636 	 23.7943 	 62.1924
| 10> C 	 14.6811 	 23.9703 	 62.8806
| 11> C 	 14.0375 	 25.1473 	 62.4951
| 12> H 	 14.2445 	 23.1946 	 63.489
| 13> C 	 16.8238 	 22.5803 	 62.3765
| 14> H 	 17.2339 	 22.4121 	 61.4594
| 15> H 	 16.194 	 21.7436 	 62.5353
| 16> C 	 17.9627 	 22.718 	 63.3216
| 17> H 	 18.2577 	 21.6985 	 63.6352
| 18> H 	 18.8473 	 23.0083 	 62.7955
| 19> C 	 17.7403 	 23.4934 	 64.6245
| 20> H 	 16.8168 	 23.2641 	 65.1838
| 21> H 	 18.6027 	 23.2325 	 65.3771
| 22> H 	 17.7434 	 24.5486 	 64.2874
| 23> S 	 12.6419 	 27.2232 	 63.6243
| 24> C 	 11.123 	 26.9397 	 64.2541
| 25> C 	 10.6712 	 25.6686 	 64.0733
| 26> C 	 11.6123 	 24.8568 	 63.3135
| 27> C 	 12.7734 	 25.5745 	 63.0559
| 28> H 	 9.67171 	 25.3149 	 64.3637
| 29> C 	 11.2342 	 23.4448 	 63.0041
| 30> H 	 10.1811 	 23.3127 	 63.4494
| 31> H 	 11.9841 	 22.9502 	 63.6096
| 32> C 	 11.3887 	 22.929 	 61.5956
| 33> H 	 12.3422 	 23.179 	 61.2303
| 34> H 	 10.7222 	 23.3649 	 60.8965
| 35> C 	 11.3973 	 21.3624 	 61.4262
| 36> H 	 12.1862 	 20.8549 	 61.9284
| 37> H 	 11.4029 	 21.0512 	 60.3886
| 38> H 	 10.5552 	 21.0389 	 62.0854
| 39> H 	 17.2272 	 24.9455 	 60.8843
| 40> H 	 10.5089 	 27.5692 	 64.9179
| 41> *
| 42>
| 43>                          ****END OF INPUT****

CARTESIAN COORDINATES (ANGSTROEM)
---------------------------------
  S     14.980100   25.966800   61.265100
  C     16.331800   24.864200   61.415700
  C     15.963600   23.794300   62.192400
  C     14.681100   23.970300   62.880600
  C     14.037500   25.147300   62.495100
  H     14.244500   23.194600   63.489000
  C     16.823800   22.580300   62.376500
  H     17.233900   22.412100   61.459400
  H     16.194000   21.743600   62.535300
  C     17.962700   22.718000   63.321600
  H     18.257700   21.698500   63.635200
  H     18.847300   23.008300   62.795500
  C     17.740300   23.493400   64.624500
  H     16.816800   23.264100   65.183800
  H     18.602700   23.232500   65.377100
  H     17.743400   24.548600   64.287400
  S     12.641900   27.223200   63.624300
  C     11.123000   26.939700   64.254100
  C     10.671200   25.668600   64.073300
  C     11.612300   24.856800   63.313500
  C     12.773400   25.574500   63.055900
  H      9.671710   25.314900   64.363700
  C     11.234200   23.444800   63.004100
  H     10.181100   23.312700   63.449400
  H     11.984100   22.950200   63.609600
  C     11.388700   22.929000   61.595600
  H     12.342200   23.179000   61.230300
  H     10.722200   23.364900   60.896500
  C     11.397300   21.362400   61.426200
  H     12.186200   20.854900   61.928400
  H     11.402900   21.051200   60.388600
  H     10.555200   21.038900   62.085400
  H     17.227200   24.945500   60.884300
  H     10.508900   27.569200   64.917900

 Total Charge           Charge          ....    0
 Multiplicity           Mult            ....    1
 Number of Electrons    NEL             ....  134
 Basis Dimension        Dim             ....  322

ORBITAL ENERGIES
----------------

  NO   OCC          E(Eh)            E(eV)
   0   2.0000     -88.966687     -2420.9066
   1   2.0000     -88.965801     -2420.8825
   2   2.0000     -10.332079      -281.1502
   3   2.0000     -10.323887      -280.9273
   4   2.0000     -10.310952      -280.5753
   5   2.0000     -10.308877      -280.5188
   6   2.0000     -10.304586      -280.4020
   7   2.0000     -10.299218      -280.2560
   8   2.0000     -10.297663      -280.2137
   9   2.0000     -10.295920      -280.1662
  10   2.0000     -10.291014      -280.0327
  11   2.0000     -10.284406      -279.8529
  12   2.0000     -10.280575      -279.7487
  13   2.0000     -10.278485      -279.6918
  14   2.0000     -10.277643      -279.6689
  15   2.0000     -10.275121      -279.6003
  16   2.0000      -8.082967      -219.9487
  17   2.0000      -8.080338      -219.8772
  18   2.0000      -6.041377      -164.3942
  19   2.0000      -6.039011      -164.3299
  20   2.0000      -6.037233      -164.2815
  21   2.0000      -6.034790      -164.2150
  22   2.0000      -6.033755      -164.1868
  23   2.0000      -6.031025      -164.1125
  24   2.0000      -1.011389       -27.5213
  25   2.0000      -0.987080       -26.8598
  26   2.0000      -0.919502       -25.0209
  27   2.0000      -0.914506       -24.8850
  28   2.0000      -0.870947       -23.6997
  29   2.0000      -0.854590       -23.2546
  30   2.0000      -0.840702       -22.8767
  31   2.0000      -0.814877       -22.1739
  32   2.0000      -0.786555       -21.4032
  33   2.0000      -0.775457       -21.1012
  34   2.0000      -0.715092       -19.4586
  35   2.0000      -0.699678       -19.0392
  36   2.0000      -0.693201       -18.8630
  37   2.0000      -0.663081       -18.0434
  38   2.0000      -0.640084       -17.4176
  39   2.0000      -0.615743       -16.7552
  40   2.0000      -0.592553       -16.1242
  41   2.0000      -0.574319       -15.6280
  42   2.0000      -0.565974       -15.4009
  43   2.0000      -0.552706       -15.0399
  44   2.0000      -0.546330       -14.8664
  45   2.0000      -0.532180       -14.4813
  46   2.0000      -0.516751       -14.0615
  47   2.0000      -0.513574       -13.9751
  48   2.0000      -0.507672       -13.8145
  49   2.0000      -0.499131       -13.5820
  50   2.0000      -0.489531       -13.3208
  51   2.0000      -0.484940       -13.1959
  52   2.0000      -0.477618       -12.9966
  53   2.0000      -0.466428       -12.6922
  54   2.0000      -0.464263       -12.6333
  55   2.0000      -0.449586       -12.2339
  56   2.0000      -0.441546       -12.0151
  57   2.0000      -0.435426       -11.8486
  58   2.0000      -0.430784       -11.7222
  59   2.0000      -0.426494       -11.6055
  60   2.0000      -0.423879       -11.5343
  61   2.0000      -0.404790       -11.0149
  62   2.0000      -0.400454       -10.8969
  63   2.0000      -0.349447        -9.5089
  64   2.0000      -0.329367        -8.9625
  65   2.0000      -0.326706        -8.8901
  66   2.0000      -0.291737        -7.9386
  67   0.0000       0.029968         0.8155
  68   0.0000       0.075754         2.0614
  69   0.0000       0.106498         2.8980
  70   0.0000       0.122428         3.3314
  71   0.0000       0.138781         3.7764

MULLIKEN ATOMIC CHARGES
-----------------------
   0 S :    0.110898
   1 C :   -0.105346
   2 C :   -0.154713
   3 C :    0.024998
   4 C :   -0.135672
   5 H :    0.008365
   6 C :    0.186296
   7 H :   -0.010435
   8 H :    0.006106
   9 C :   -0.079913
  10 H :    0.015995
  11 H :    0.017478
  12 C :   -0.080127
  13 H :    0.039130
  14 H :    0.047460
  15 H :    0.053910
  16 S :    0.137490
  17 C :   -0.067657
  18 C :   -0.072738
  19 C :   -0.047390
  20 C :   -0.177760
  21 H :    0.021847
  22 C :    0.073323
  23 H :    0.034285
  24 H :    0.024641
  25 C :   -0.034551
  26 H :    0.021389
  27 H :    0.024086
  28 C :   -0.050938
  29 H :    0.013026
  30 H :    0.046861
  31 H :    0.022690
  32 H :    0.027363
  33 H :    0.059604
Sum of atomic charges:    0.0000000

LOEWDIN ATOMIC CHARGES
----------------------
   0 S :    0.400557
   1 C :   -0.193428
   2 C :   -0.053771
   3 C :   -0.065509
   4 C :   -0.191752
   5 H :    0.026339
   6 C :   -0.028572
   7 H :    0.023269
   8 H :    0.026495
   9 C :   -0.046364
  10 H :    0.025421
  11 H :    0.020891
  12 C :   -0.075661
  13 H :    0.025797
  14 H :    0.038116
  15 H :    0.031534
  16 S :    0.445921
  17 C :   -0.214924
  18 C :   -0.081298
  19 C :   -0.045799
  20 C :   -0.211219
  21 H :    0.031956
  22 C :   -0.036251
  23 H :    0.039489
  24 H :    0.035101
  25 C :   -0.035495
  26 H :    0.020643
  27 H :    0.021351
  28 C :   -0.063646
  29 H :    0.016419
  30 H :    0.029193
  31 H :    0.027507
  32 H :    0.018349
  33 H :    0.039341

  Mayer bond orders larger than 0.100000
B(  0-S ,  1-C ) :   1.1211 B(  0-S ,  4-C ) :   1.1566 B(  1-C ,  2-C ) :   1.6101
B(  1-C , 32-H ) :   0.9800 B(  2-C ,  3-C ) :   1.2338 B(  2-C ,  6-C ) :   1.0272
B(  3-C ,  4-C ) :   1.5469 B(  3-C ,  5-H ) :   0.9931 B(  4-C , 20-C ) :   1.0618
B(  6-C ,  7-H ) :   0.9209 B(  6-C ,  8-H ) :   0.9298 B(  6-C ,  9-C ) :   1.0801
B(  9-C , 10-H ) :   0.9515 B(  9-C , 11-H ) :   0.9549 B(  9-C , 12-C ) :   1.0789
B( 12-C , 13-H ) :   0.9759 B( 12-C , 14-H ) :   0.9738 B( 12-C , 15-H ) :   0.9678
B( 16-S , 17-C ) :   1.1732 B( 16-S , 20-C ) :   1.1375 B( 17-C , 18-C ) :   1.6164
B( 17-C , 33-H ) :   0.9552 B( 18-C , 19-C ) :   1.2546 B( 18-C , 21-H ) :   0.9822
B( 19-C , 20-C ) :   1.5820 B( 19-C , 22-C ) :   1.0330 B( 22-C , 23-H ) :   0.9274
B( 22-C , 24-H ) :   0.9220 B( 22-C , 25-C ) :   1.0700 B( 25-C , 26-H ) :   0.9498
B( 25-C , 27-H ) :   0.9563 B( 25-C , 28-C ) :   1.0755 B( 28-C , 29-H ) :   0.9750
B( 28-C , 30-H ) :   0.9756 B( 28-C , 31-H ) :   0.9757

Dispersion correction           -0.015018147
FINAL SINGLE POINT ENERGY     -1339.858583588148

DIPOLE MOMENT
-------------
                                X             Y             Z
Electronic contribution:     -5.03132      25.09655      -2.62052
Nuclear contribution   :      5.01824     -25.74892       2.72491
                        -----------------------------------------
Total Dipole Moment    :     -0.01308      -0.65236       0.10439
                        -----------------------------------------
Magnitude (a.u.)       :      0.66079
Magnitude (Debye)      :      1.67960

Rotational constants in cm-1:     0.017556     0.009399     0.007605
Rotational constants in MHz :   526.304571   281.771358   228.003513

                             ****ORCA TERMINATED NORMALLY****
TOTAL RUN TIME: 0 days 0 hours 0 minutes 36 seconds 361 msec
