                         Program Version 4.2.1 -  RELEASE  -
|  1> ! wB97X-D3 SP def2-SVP
|  2> %pal
|  3> nprocs 16
|  4> end
|  5>
|  6> * xyz 0 1
|  7> S 	 -42.5413 	 64.297 	 139.936
|  8> C 	 -41.7678 	 62.8241 	 140.502
|  9> C 	 -41.9676 	 61.807 	 139.592
| 10> C 	 -42.8664 	 62.1271 	 138.532
| 11> C 	 -43.2145 	 63.4542 	 138.61
| 12> H 	 -43.2417 	 61.5188 	 137.767
| 13> C 	 -41.4793 	 60.3937 	 139.664
| 14> H 	 -40.4004 	 60.3338 	 139.928
| 15> H 	 -41.4629 	 60.1017 	 138.586
| 16> C 	 -42.3962 	 59.4356 	 140.479
| 17> H 	 -42.1847 	 59.6008 	 141.569
| 18> H 	 -43.4398 	 59.8194 	 140.447
| 19> C 	 -42.3502 	 57.9516 	 140.091
| 20> H 	 -43.0101 	 57.355 	 140.727
| 21> H 	 -42.6884 	 57.8217 	 139.026
| 22> H 	 -41.3432 	 57.5392 	 140.173
| 23> S 	 -45.4198 	 65.058 	 138.09
| 24> C 	 -45.8671 	 65.4513 	 136.533
| 25> C 	 -45.0841 	 64.8641 	 135.574
| 26> C 	 -43.9903 	 64.0844 	 136.188
| 27> C 	 -43.9936 	 64.1474 	 137.581
| 28> H 	 -45.329 	 64.9843 	 134.57
| 29> C 	 -43.0227 	 63.4445 	 135.265
| 30> H 	 -42.1063 	 63.1407 	 135.899
| 31> H 	 -42.7173 	 64.201 	 134.573
| 32> C 	 -43.5302 	 62.1764 	 134.523
| 33> H 	 -44.4662 	 62.3953 	 133.953
| 34> H 	 -43.7819 	 61.5167 	 135.286
| 35> C 	 -42.4558 	 61.627 	 133.52
| 36> H 	 -42.2322 	 62.2524 	 132.609
| 37> H 	 -42.6553 	 60.5983 	 133.262
| 38> H 	 -41.3948 	 61.6336 	 133.844
| 39> H 	 -41.1627 	 62.8582 	 141.432
| 40> H 	 -46.7973 	 66.0929 	 136.34
| 41> *
| 42>
| 43>                          ****END OF INPUT****

CARTESIAN COORDINATES (ANGSTROEM)
---------------------------------
  S    -42.541300   64.297000  139.936000
  C    -41.767800   62.824100  140.502000
  C    -41.967600   61.807000  139.592000
  C    -42.866400   62.127100  138.532000
  C    -43.214500   63.454200  138.610000
  H    -43.241700   61.518800  137.767000
  C    -41.479300   60.393700  139.664000
  H    -40.400400   60.333800  139.928000
  H    -41.462900   60.101700  138.586000
  C    -42.396200   59.435600  140.479000
  H    -42.184700   59.600800  141.569000
  H    -43.439800   59.819400  140.447000
  C    -42.350200   57.951600  140.091000
  H    -43.010100   57.355000  140.727000
  H    -42.688400   57.821700  139.026000
  H    -41.343200   57.539200  140.173000
  S    -45.419800   65.058000  138.090000
  C    -45.867100   65.451300  136.533000
  C    -45.084100   64.864100  135.574000
  C    -43.990300   64.084400  136.188000
  C    -43.993600   64.147400  137.581000
  H    -45.329000   64.984300  134.570000
  C    -43.022700   63.444500  135.265000
  H    -42.106300   63.140700  135.899000
  H    -42.717300   64.201000  134.573000
  C    -43.530200   62.176400  134.523000
  H    -44.466200   62.395300  133.953000
  H    -43.781900   61.516700  135.286000
  C    -42.455800   61.627000  133.520000
  H    -42.232200   62.252400  132.609000
  H    -42.655300   60.598300  133.262000
  H    -41.394800   61.633600  133.844000
  H    -41.162700   62.858200  141.432000
  H    -46.797300   66.092900  136.340000

 Total Charge           Charge          ....    0
 Multiplicity           Mult            ....    1
 Number of Electrons    NEL             ....  134
 Basis Dimension        Dim             ....  322

ORBITAL ENERGIES
----------------

  NO   OCC          E(Eh)            E(eV)
   0   2.0000     -88.965859     -2420.8841
   1   2.0000     -88.958713     -2420.6896
   2   2.0000     -10.325638      -280.9749
   3   2.0000     -10.325287      -280.9653
   4   2.0000     -10.316788      -280.7341
   5   2.0000     -10.316159      -280.7169
   6   2.0000     -10.305958      -280.4394
   7   2.0000     -10.301103      -280.3073
   8   2.0000     -10.294451      -280.1262
   9   2.0000     -10.293288      -280.0946
  10   2.0000     -10.293008      -280.0870
  11   2.0000     -10.291634      -280.0496
  12   2.0000     -10.288853      -279.9739
  13   2.0000     -10.288551      -279.9657
  14   2.0000     -10.285923      -279.8942
  15   2.0000     -10.284628      -279.8590
  16   2.0000      -8.081460      -219.9077
  17   2.0000      -8.075363      -219.7418
  18   2.0000      -6.039798      -164.3513
  19   2.0000      -6.035883      -164.2447
  20   2.0000      -6.033726      -164.1860
  21   2.0000      -6.032312      -164.1475
  22   2.0000      -6.029502      -164.0711
  23   2.0000      -6.026263      -163.9829
  24   2.0000      -1.011077       -27.5128
  25   2.0000      -0.989296       -26.9201
  26   2.0000      -0.908586       -24.7239
  27   2.0000      -0.908328       -24.7169
  28   2.0000      -0.867766       -23.6131
  29   2.0000      -0.853570       -23.2268
  30   2.0000      -0.845665       -23.0117
  31   2.0000      -0.812910       -22.1204
  32   2.0000      -0.781033       -21.2530
  33   2.0000      -0.769690       -20.9443
  34   2.0000      -0.711554       -19.3624
  35   2.0000      -0.701152       -19.0793
  36   2.0000      -0.688833       -18.7441
  37   2.0000      -0.663746       -18.0615
  38   2.0000      -0.645204       -17.5569
  39   2.0000      -0.619101       -16.8466
  40   2.0000      -0.593151       -16.1405
  41   2.0000      -0.568634       -15.4733
  42   2.0000      -0.559664       -15.2292
  43   2.0000      -0.548489       -14.9251
  44   2.0000      -0.526879       -14.3371
  45   2.0000      -0.526575       -14.3288
  46   2.0000      -0.515089       -14.0163
  47   2.0000      -0.512703       -13.9513
  48   2.0000      -0.511039       -13.9061
  49   2.0000      -0.500127       -13.6092
  50   2.0000      -0.490999       -13.3608
  51   2.0000      -0.478371       -13.0171
  52   2.0000      -0.472584       -12.8597
  53   2.0000      -0.460962       -12.5434
  54   2.0000      -0.458362       -12.4727
  55   2.0000      -0.453794       -12.3484
  56   2.0000      -0.443958       -12.0807
  57   2.0000      -0.439520       -11.9599
  58   2.0000      -0.436197       -11.8695
  59   2.0000      -0.423443       -11.5225
  60   2.0000      -0.417932       -11.3725
  61   2.0000      -0.416586       -11.3359
  62   2.0000      -0.409435       -11.1413
  63   2.0000      -0.345994        -9.4150
  64   2.0000      -0.333316        -9.0700
  65   2.0000      -0.323489        -8.8026
  66   2.0000      -0.296205        -8.0601
  67   0.0000       0.035869         0.9760
  68   0.0000       0.078581         2.1383
  69   0.0000       0.112587         3.0636
  70   0.0000       0.120555         3.2805
  71   0.0000       0.128536         3.4976

MULLIKEN ATOMIC CHARGES
-----------------------
   0 S :    0.115391
   1 C :   -0.145752
   2 C :   -0.071978
   3 C :    0.030437
   4 C :   -0.131078
   5 H :   -0.009650
   6 C :    0.047083
   7 H :    0.033619
   8 H :    0.018341
   9 C :   -0.081427
  10 H :    0.030649
  11 H :    0.035692
  12 C :   -0.050416
  13 H :    0.038817
  14 H :    0.038526
  15 H :    0.035459
  16 S :    0.100552
  17 C :   -0.105142
  18 C :   -0.020323
  19 C :   -0.038212
  20 C :   -0.144528
  21 H :   -0.004391
  22 C :    0.010870
  23 H :    0.041249
  24 H :    0.028295
  25 C :   -0.036843
  26 H :    0.039400
  27 H :    0.013640
  28 C :   -0.065559
  29 H :    0.035911
  30 H :    0.038399
  31 H :    0.022106
  32 H :    0.065317
  33 H :    0.085545
Sum of atomic charges:   -0.0000000

LOEWDIN ATOMIC CHARGES
----------------------
   0 S :    0.421097
   1 C :   -0.202710
   2 C :   -0.061664
   3 C :   -0.057360
   4 C :   -0.199664
   5 H :    0.025015
   6 C :   -0.040418
   7 H :    0.031951
   8 H :    0.031206
   9 C :   -0.048966
  10 H :    0.028001
  11 H :    0.028835
  12 C :   -0.068420
  13 H :    0.028550
  14 H :    0.030089
  15 H :    0.024931
  16 S :    0.422894
  17 C :   -0.212490
  18 C :   -0.074573
  19 C :   -0.051736
  20 C :   -0.203400
  21 H :    0.020392
  22 C :   -0.039475
  23 H :    0.038687
  24 H :    0.027797
  25 C :   -0.029706
  26 H :    0.030241
  27 H :    0.013466
  28 C :   -0.080462
  29 H :    0.033754
  30 H :    0.024610
  31 H :    0.027713
  32 H :    0.035652
  33 H :    0.046166

  Mayer bond orders larger than 0.100000
B(  0-S ,  1-C ) :   1.1261 B(  0-S ,  4-C ) :   1.1841 B(  1-C ,  2-C ) :   1.5998
B(  1-C , 32-H ) :   0.9739 B(  2-C ,  3-C ) :   1.2226 B(  2-C ,  6-C ) :   1.0320
B(  3-C ,  4-C ) :   1.5615 B(  3-C ,  5-H ) :   1.0116 B(  4-C , 20-C ) :   1.0083
B(  6-C ,  7-H ) :   0.9371 B(  6-C ,  8-H ) :   0.9447 B(  6-C ,  9-C ) :   1.0409
B(  9-C , 10-H ) :   0.9515 B(  9-C , 11-H ) :   0.9603 B(  9-C , 12-C ) :   1.0783
B( 12-C , 13-H ) :   0.9736 B( 12-C , 14-H ) :   0.9748 B( 12-C , 15-H ) :   0.9758
B( 16-S , 17-C ) :   1.1841 B( 16-S , 20-C ) :   1.1341 B( 17-C , 18-C ) :   1.6009
B( 17-C , 33-H ) :   0.9536 B( 18-C , 19-C ) :   1.2104 B( 18-C , 21-H ) :   1.0067
B( 19-C , 20-C ) :   1.6055 B( 19-C , 22-C ) :   1.0597 B( 22-C , 23-H ) :   0.9351
B( 22-C , 24-H ) :   0.9369 B( 22-C , 25-C ) :   1.0568 B( 25-C , 26-H ) :   0.9557
B( 25-C , 27-H ) :   0.9555 B( 25-C , 28-C ) :   1.0676 B( 28-C , 29-H ) :   0.9741
B( 28-C , 30-H ) :   0.9774 B( 28-C , 31-H ) :   0.9733

Dispersion correction           -0.014059669
FINAL SINGLE POINT ENERGY     -1339.882967562254

DIPOLE MOMENT
-------------
                                X             Y             Z
Electronic contribution:     -8.88225      26.52672      11.94637
Nuclear contribution   :      9.00626     -27.01600     -12.30248
                        -----------------------------------------
Total Dipole Moment    :      0.12401      -0.48928      -0.35611
                        -----------------------------------------
Magnitude (a.u.)       :      0.61773
Magnitude (Debye)      :      1.57014

Rotational constants in cm-1:     0.016251     0.008984     0.006624
Rotational constants in MHz :   487.198469   269.343930   198.583193

                             ****ORCA TERMINATED NORMALLY****
TOTAL RUN TIME: 0 days 0 hours 0 minutes 34 seconds 78 msec
