                         Program Version 4.2.1 -  RELEASE  -
|  1> ! wB97X-D3 SP def2-SVP
|  2> %pal
|  3> nprocs 16
|  4> end
|  5>
|  6> * xyz 0 1
|  7> S 	 -79.1552 	 44.815 	 129.753
|  8> C 	 -80.8286 	 44.7873 	 129.464
|  9> C 	 -81.4873 	 45.4716 	 130.457
| 10> C 	 -80.6463 	 46.03 	 131.501
| 11> C 	 -79.3379 	 45.6977 	 131.26
| 12> H 	 -81.0026 	 46.5476 	 132.441
| 13> C 	 -82.9544 	 45.7317 	 130.544
| 14> H 	 -83.314 	 45.4763 	 131.556
| 15> H 	 -83.4727 	 45.0025 	 129.92
| 16> C 	 -83.624 	 47.1098 	 130.356
| 17> H 	 -84.6254 	 47.0983 	 130.881
| 18> H 	 -83.0501 	 47.8254 	 130.994
| 19> C 	 -83.781 	 47.7127 	 128.95
| 20> H 	 -84.2989 	 48.7058 	 129.018
| 21> H 	 -82.8664 	 47.9283 	 128.425
| 22> H 	 -84.5297 	 47.1365 	 128.495
| 23> S 	 -77.0193 	 47.1715 	 131.376
| 24> C 	 -76.1541 	 47.3725 	 132.882
| 25> C 	 -76.7081 	 46.5582 	 133.8
| 26> C 	 -77.8845 	 45.8742 	 133.413
| 27> C 	 -78.1854 	 46.1043 	 132.088
| 28> H 	 -76.2743 	 46.4901 	 134.743
| 29> C 	 -78.7344 	 44.9757 	 134.331
| 30> H 	 -77.9982 	 44.3546 	 134.898
| 31> H 	 -79.2203 	 44.2739 	 133.679
| 32> C 	 -79.588 	 45.7843 	 135.28
| 33> H 	 -80.624 	 45.6398 	 135.085
| 34> H 	 -79.4897 	 46.8686 	 135.057
| 35> C 	 -79.2477 	 45.467 	 136.744
| 36> H 	 -78.9656 	 44.4455 	 136.893
| 37> H 	 -80.0413 	 45.7685 	 137.455
| 38> H 	 -78.3621 	 45.9776 	 137.105
| 39> H 	 -81.2666 	 44.3725 	 128.598
| 40> H 	 -75.3353 	 48.082 	 133.174
| 41> *
| 42>
| 43>                          ****END OF INPUT****

CARTESIAN COORDINATES (ANGSTROEM)
---------------------------------
  S    -79.155200   44.815000  129.753000
  C    -80.828600   44.787300  129.464000
  C    -81.487300   45.471600  130.457000
  C    -80.646300   46.030000  131.501000
  C    -79.337900   45.697700  131.260000
  H    -81.002600   46.547600  132.441000
  C    -82.954400   45.731700  130.544000
  H    -83.314000   45.476300  131.556000
  H    -83.472700   45.002500  129.920000
  C    -83.624000   47.109800  130.356000
  H    -84.625400   47.098300  130.881000
  H    -83.050100   47.825400  130.994000
  C    -83.781000   47.712700  128.950000
  H    -84.298900   48.705800  129.018000
  H    -82.866400   47.928300  128.425000
  H    -84.529700   47.136500  128.495000
  S    -77.019300   47.171500  131.376000
  C    -76.154100   47.372500  132.882000
  C    -76.708100   46.558200  133.800000
  C    -77.884500   45.874200  133.413000
  C    -78.185400   46.104300  132.088000
  H    -76.274300   46.490100  134.743000
  C    -78.734400   44.975700  134.331000
  H    -77.998200   44.354600  134.898000
  H    -79.220300   44.273900  133.679000
  C    -79.588000   45.784300  135.280000
  H    -80.624000   45.639800  135.085000
  H    -79.489700   46.868600  135.057000
  C    -79.247700   45.467000  136.744000
  H    -78.965600   44.445500  136.893000
  H    -80.041300   45.768500  137.455000
  H    -78.362100   45.977600  137.105000
  H    -81.266600   44.372500  128.598000
  H    -75.335300   48.082000  133.174000

 Total Charge           Charge          ....    0
 Multiplicity           Mult            ....    1
 Number of Electrons    NEL             ....  134
 Basis Dimension        Dim             ....  322

ORBITAL ENERGIES
----------------

  NO   OCC          E(Eh)            E(eV)
   0   2.0000     -88.965822     -2420.8831
   1   2.0000     -88.961334     -2420.7610
   2   2.0000     -10.330771      -281.1146
   3   2.0000     -10.322013      -280.8763
   4   2.0000     -10.315807      -280.7074
   5   2.0000     -10.310119      -280.5526
   6   2.0000     -10.300512      -280.2912
   7   2.0000     -10.299879      -280.2739
   8   2.0000     -10.298201      -280.2283
   9   2.0000     -10.293284      -280.0945
  10   2.0000     -10.290521      -280.0193
  11   2.0000     -10.288655      -279.9685
  12   2.0000     -10.285462      -279.8816
  13   2.0000     -10.282049      -279.7888
  14   2.0000     -10.277985      -279.6782
  15   2.0000     -10.274076      -279.5718
  16   2.0000      -8.081535      -219.9097
  17   2.0000      -8.076525      -219.7734
  18   2.0000      -6.040005      -164.3569
  19   2.0000      -6.035862      -164.2441
  20   2.0000      -6.035116      -164.2239
  21   2.0000      -6.032308      -164.1475
  22   2.0000      -6.030865      -164.1082
  23   2.0000      -6.027259      -164.0101
  24   2.0000      -1.011309       -27.5191
  25   2.0000      -0.991205       -26.9721
  26   2.0000      -0.911285       -24.7973
  27   2.0000      -0.906202       -24.6590
  28   2.0000      -0.873233       -23.7619
  29   2.0000      -0.850849       -23.1528
  30   2.0000      -0.845735       -23.0136
  31   2.0000      -0.820120       -22.3166
  32   2.0000      -0.783016       -21.3070
  33   2.0000      -0.773491       -21.0478
  34   2.0000      -0.710194       -19.3254
  35   2.0000      -0.700648       -19.0656
  36   2.0000      -0.692961       -18.8564
  37   2.0000      -0.660309       -17.9679
  38   2.0000      -0.642983       -17.4965
  39   2.0000      -0.619901       -16.8684
  40   2.0000      -0.594066       -16.1654
  41   2.0000      -0.570738       -15.5306
  42   2.0000      -0.557885       -15.1808
  43   2.0000      -0.548110       -14.9148
  44   2.0000      -0.538992       -14.6667
  45   2.0000      -0.530370       -14.4321
  46   2.0000      -0.520395       -14.1607
  47   2.0000      -0.511050       -13.9064
  48   2.0000      -0.507887       -13.8203
  49   2.0000      -0.502228       -13.6663
  50   2.0000      -0.496219       -13.5028
  51   2.0000      -0.478867       -13.0306
  52   2.0000      -0.470824       -12.8118
  53   2.0000      -0.469104       -12.7650
  54   2.0000      -0.456985       -12.4352
  55   2.0000      -0.449981       -12.2446
  56   2.0000      -0.444610       -12.0985
  57   2.0000      -0.441153       -12.0044
  58   2.0000      -0.431620       -11.7450
  59   2.0000      -0.418816       -11.3966
  60   2.0000      -0.416924       -11.3451
  61   2.0000      -0.410826       -11.1791
  62   2.0000      -0.406777       -11.0690
  63   2.0000      -0.349221        -9.5028
  64   2.0000      -0.328710        -8.9447
  65   2.0000      -0.326329        -8.8799
  66   2.0000      -0.300562        -8.1787
  67   0.0000       0.042801         1.1647
  68   0.0000       0.068080         1.8525
  69   0.0000       0.114043         3.1033
  70   0.0000       0.123804         3.3689
  71   0.0000       0.132906         3.6166

MULLIKEN ATOMIC CHARGES
-----------------------
   0 S :    0.118742
   1 C :   -0.097848
   2 C :   -0.073317
   3 C :    0.012623
   4 C :   -0.158573
   5 H :    0.044739
   6 C :    0.061600
   7 H :    0.020561
   8 H :    0.005143
   9 C :   -0.108682
  10 H :    0.032284
  11 H :    0.018926
  12 C :   -0.018105
  13 H :    0.026028
  14 H :    0.048002
  15 H :    0.018631
  16 S :    0.105229
  17 C :   -0.097998
  18 C :   -0.021405
  19 C :   -0.064237
  20 C :   -0.168598
  21 H :   -0.013368
  22 C :    0.086635
  23 H :    0.029220
  24 H :    0.031759
  25 C :   -0.047208
  26 H :    0.022358
  27 H :    0.044692
  28 C :   -0.053669
  29 H :    0.026607
  30 H :    0.037919
  31 H :    0.022652
  32 H :    0.035209
  33 H :    0.073449
Sum of atomic charges:    0.0000000

LOEWDIN ATOMIC CHARGES
----------------------
   0 S :    0.424151
   1 C :   -0.204714
   2 C :   -0.067609
   3 C :   -0.062807
   4 C :   -0.192997
   5 H :    0.046246
   6 C :   -0.044072
   7 H :    0.036058
   8 H :    0.024167
   9 C :   -0.047240
  10 H :    0.031509
  11 H :    0.020538
  12 C :   -0.067925
  13 H :    0.034169
  14 H :    0.027572
  15 H :    0.018083
  16 S :    0.408928
  17 C :   -0.193537
  18 C :   -0.073466
  19 C :   -0.057288
  20 C :   -0.207556
  21 H :    0.019420
  22 C :   -0.025024
  23 H :    0.034588
  24 H :    0.030575
  25 C :   -0.045127
  26 H :    0.020400
  27 H :    0.031485
  28 C :   -0.066038
  29 H :    0.021311
  30 H :    0.029625
  31 H :    0.024197
  32 H :    0.024356
  33 H :    0.048022

  Mayer bond orders larger than 0.100000
B(  0-S ,  1-C ) :   1.1353 B(  0-S ,  4-C ) :   1.1621 B(  1-C ,  2-C ) :   1.6086
B(  1-C , 32-H ) :   0.9772 B(  2-C ,  3-C ) :   1.2159 B(  2-C ,  6-C ) :   1.0446
B(  3-C ,  4-C ) :   1.5860 B(  3-C ,  5-H ) :   0.9863 B(  4-C , 20-C ) :   0.9952
B(  6-C ,  7-H ) :   0.9309 B(  6-C ,  8-H ) :   0.9385 B(  6-C ,  9-C ) :   1.0679
B(  9-C , 10-H ) :   0.9545 B(  9-C , 11-H ) :   0.9521 B(  9-C , 12-C ) :   1.0814
B( 12-C , 13-H ) :   0.9678 B( 12-C , 14-H ) :   0.9774 B( 12-C , 15-H ) :   0.9735
B( 16-S , 17-C ) :   1.1433 B( 16-S , 20-C ) :   1.1530 B( 17-C , 18-C ) :   1.6235
B( 17-C , 33-H ) :   0.9597 B( 18-C , 19-C ) :   1.2405 B( 18-C , 21-H ) :   0.9975
B( 19-C , 20-C ) :   1.6086 B( 19-C , 22-C ) :   1.0418 B( 22-C , 23-H ) :   0.9489
B( 22-C , 24-H ) :   0.9305 B( 22-C , 25-C ) :   1.0231 B( 25-C , 26-H ) :   0.9527
B( 25-C , 27-H ) :   0.9653 B( 25-C , 28-C ) :   1.0718 B( 28-C , 29-H ) :   0.9793
B( 28-C , 30-H ) :   0.9736 B( 28-C , 31-H ) :   0.9745

Dispersion correction           -0.014286360
FINAL SINGLE POINT ENERGY     -1339.876584470138

DIPOLE MOMENT
-------------
                                X             Y             Z
Electronic contribution:     21.40500      -2.89032     -14.07356
Nuclear contribution   :    -21.85754       2.95935      14.59901
                        -----------------------------------------
Total Dipole Moment    :     -0.45254       0.06903       0.52545
                        -----------------------------------------
Magnitude (a.u.)       :      0.69688
Magnitude (Debye)      :      1.77134

Rotational constants in cm-1:     0.018358     0.008305     0.006809
Rotational constants in MHz :   550.360810   248.977186   204.138524

                             ****ORCA TERMINATED NORMALLY****
TOTAL RUN TIME: 0 days 0 hours 0 minutes 34 seconds 138 msec
