                         Program Version 4.2.1 -  RELEASE  -
|  1> ! wB97X-D3 SP def2-SVP
|  2> %pal
|  3> nprocs 16
|  4> end
|  5>
|  6> * xyz 0 1
|  7> S 	 -31.285 	 61.0283 	 108.181
|  8> C 	 -31.1302 	 61.8354 	 109.73
|  9> C 	 -30.5795 	 63.0483 	 109.617
| 10> C 	 -30.2573 	 63.3803 	 108.271
| 11> C 	 -30.4122 	 62.3303 	 107.393
| 12> H 	 -29.8824 	 64.2682 	 107.894
| 13> C 	 -30.3375 	 63.9456 	 110.773
| 14> H 	 -29.6612 	 63.3789 	 111.419
| 15> H 	 -31.2113 	 63.9322 	 111.34
| 16> C 	 -29.7844 	 65.3831 	 110.573
| 17> H 	 -30.1985 	 65.7499 	 109.586
| 18> H 	 -30.2403 	 65.9459 	 111.402
| 19> C 	 -28.2717 	 65.3979 	 110.495
| 20> H 	 -27.796 	 64.7713 	 109.783
| 21> H 	 -27.8731 	 66.4311 	 110.368
| 22> H 	 -27.8022 	 65.2039 	 111.512
| 23> S 	 -31.3678 	 61.5821 	 104.992
| 24> C 	 -30.3819 	 61.8299 	 103.576
| 25> C 	 -29.1482 	 62.3863 	 103.921
| 26> C 	 -28.9465 	 62.5969 	 105.302
| 27> C 	 -30.1207 	 62.2511 	 105.999
| 28> H 	 -28.3355 	 62.7202 	 103.257
| 29> C 	 -27.6499 	 63.1548 	 105.897
| 30> H 	 -26.7715 	 62.6798 	 105.409
| 31> H 	 -27.6894 	 62.9383 	 106.991
| 32> C 	 -27.5704 	 64.6483 	 105.64
| 33> H 	 -28.4957 	 65.2144 	 106.017
| 34> H 	 -27.4718 	 64.8997 	 104.587
| 35> C 	 -26.3989 	 65.3532 	 106.227
| 36> H 	 -25.5372 	 64.7826 	 106.043
| 37> H 	 -26.441 	 65.5735 	 107.332
| 38> H 	 -26.2583 	 66.2219 	 105.681
| 39> H 	 -31.5954 	 61.5249 	 110.641
| 40> H 	 -30.7232 	 61.4588 	 102.607
| 41> *
| 42>
| 43>                          ****END OF INPUT****

CARTESIAN COORDINATES (ANGSTROEM)
---------------------------------
  S    -31.285000   61.028300  108.181000
  C    -31.130200   61.835400  109.730000
  C    -30.579500   63.048300  109.617000
  C    -30.257300   63.380300  108.271000
  C    -30.412200   62.330300  107.393000
  H    -29.882400   64.268200  107.894000
  C    -30.337500   63.945600  110.773000
  H    -29.661200   63.378900  111.419000
  H    -31.211300   63.932200  111.340000
  C    -29.784400   65.383100  110.573000
  H    -30.198500   65.749900  109.586000
  H    -30.240300   65.945900  111.402000
  C    -28.271700   65.397900  110.495000
  H    -27.796000   64.771300  109.783000
  H    -27.873100   66.431100  110.368000
  H    -27.802200   65.203900  111.512000
  S    -31.367800   61.582100  104.992000
  C    -30.381900   61.829900  103.576000
  C    -29.148200   62.386300  103.921000
  C    -28.946500   62.596900  105.302000
  C    -30.120700   62.251100  105.999000
  H    -28.335500   62.720200  103.257000
  C    -27.649900   63.154800  105.897000
  H    -26.771500   62.679800  105.409000
  H    -27.689400   62.938300  106.991000
  C    -27.570400   64.648300  105.640000
  H    -28.495700   65.214400  106.017000
  H    -27.471800   64.899700  104.587000
  C    -26.398900   65.353200  106.227000
  H    -25.537200   64.782600  106.043000
  H    -26.441000   65.573500  107.332000
  H    -26.258300   66.221900  105.681000
  H    -31.595400   61.524900  110.641000
  H    -30.723200   61.458800  102.607000

 Total Charge           Charge          ....    0
 Multiplicity           Mult            ....    1
 Number of Electrons    NEL             ....  134
 Basis Dimension        Dim             ....  322

ORBITAL ENERGIES
----------------

  NO   OCC          E(Eh)            E(eV)
   0   2.0000     -88.967262     -2420.9223
   1   2.0000     -88.960221     -2420.7307
   2   2.0000     -10.323020      -280.9037
   3   2.0000     -10.322362      -280.8858
   4   2.0000     -10.320778      -280.8427
   5   2.0000     -10.302677      -280.3501
   6   2.0000     -10.301485      -280.3177
   7   2.0000     -10.300404      -280.2882
   8   2.0000     -10.297807      -280.2176
   9   2.0000     -10.296604      -280.1848
  10   2.0000     -10.291814      -280.0545
  11   2.0000     -10.288359      -279.9605
  12   2.0000     -10.285173      -279.8738
  13   2.0000     -10.284650      -279.8595
  14   2.0000     -10.283056      -279.8162
  15   2.0000     -10.268609      -279.4231
  16   2.0000      -8.082402      -219.9333
  17   2.0000      -8.075162      -219.7363
  18   2.0000      -6.040803      -164.3786
  19   2.0000      -6.036835      -164.2706
  20   2.0000      -6.033734      -164.1863
  21   2.0000      -6.033273      -164.1737
  22   2.0000      -6.029748      -164.0778
  23   2.0000      -6.025741      -163.9687
  24   2.0000      -1.010490       -27.4968
  25   2.0000      -0.986135       -26.8341
  26   2.0000      -0.918357       -24.9898
  27   2.0000      -0.914507       -24.8850
  28   2.0000      -0.873388       -23.7661
  29   2.0000      -0.860492       -23.4152
  30   2.0000      -0.843356       -22.9489
  31   2.0000      -0.817699       -22.2507
  32   2.0000      -0.788072       -21.4445
  33   2.0000      -0.773402       -21.0453
  34   2.0000      -0.711664       -19.3654
  35   2.0000      -0.694079       -18.8869
  36   2.0000      -0.692344       -18.8396
  37   2.0000      -0.662868       -18.0376
  38   2.0000      -0.643143       -17.5008
  39   2.0000      -0.625576       -17.0228
  40   2.0000      -0.601839       -16.3769
  41   2.0000      -0.571900       -15.5622
  42   2.0000      -0.559008       -15.2114
  43   2.0000      -0.556514       -15.1435
  44   2.0000      -0.536883       -14.6093
  45   2.0000      -0.533405       -14.5147
  46   2.0000      -0.517736       -14.0883
  47   2.0000      -0.515605       -14.0303
  48   2.0000      -0.507347       -13.8056
  49   2.0000      -0.499205       -13.5840
  50   2.0000      -0.495493       -13.4830
  51   2.0000      -0.488011       -13.2795
  52   2.0000      -0.471375       -12.8268
  53   2.0000      -0.466270       -12.6878
  54   2.0000      -0.456092       -12.4109
  55   2.0000      -0.455688       -12.3999
  56   2.0000      -0.443681       -12.0732
  57   2.0000      -0.440754       -11.9935
  58   2.0000      -0.435176       -11.8417
  59   2.0000      -0.426637       -11.6094
  60   2.0000      -0.418558       -11.3895
  61   2.0000      -0.416758       -11.3406
  62   2.0000      -0.414575       -11.2812
  63   2.0000      -0.345855        -9.4112
  64   2.0000      -0.333965        -9.0876
  65   2.0000      -0.326622        -8.8878
  66   2.0000      -0.285583        -7.7711
  67   0.0000       0.026036         0.7085
  68   0.0000       0.075910         2.0656
  69   0.0000       0.104816         2.8522
  70   0.0000       0.119329         3.2471
  71   0.0000       0.130724         3.5572

MULLIKEN ATOMIC CHARGES
-----------------------
   0 S :    0.096435
   1 C :   -0.121296
   2 C :   -0.058074
   3 C :    0.044250
   4 C :   -0.143979
   5 H :   -0.043268
   6 C :    0.068720
   7 H :    0.028189
   8 H :    0.007983
   9 C :   -0.057818
  10 H :    0.041633
  11 H :    0.040239
  12 C :   -0.068398
  13 H :    0.041874
  14 H :    0.033584
  15 H :    0.031170
  16 S :    0.116235
  17 C :   -0.095225
  18 C :   -0.025694
  19 C :   -0.041285
  20 C :   -0.178446
  21 H :    0.019293
  22 C :    0.091404
  23 H :    0.032777
  24 H :    0.043992
  25 C :   -0.136945
  26 H :    0.042361
  27 H :    0.023367
  28 C :    0.016169
  29 H :    0.001988
  30 H :    0.040246
  31 H :    0.013277
  32 H :    0.029525
  33 H :    0.065717
Sum of atomic charges:   -0.0000000

LOEWDIN ATOMIC CHARGES
----------------------
   0 S :    0.390823
   1 C :   -0.195892
   2 C :   -0.060964
   3 C :   -0.061975
   4 C :   -0.183521
   5 H :    0.013797
   6 C :   -0.035862
   7 H :    0.037812
   8 H :    0.023764
   9 C :   -0.040334
  10 H :    0.029861
  11 H :    0.033762
  12 C :   -0.074219
  13 H :    0.019910
  14 H :    0.029902
  15 H :    0.032495
  16 S :    0.420842
  17 C :   -0.191264
  18 C :   -0.071170
  19 C :   -0.052091
  20 C :   -0.207088
  21 H :    0.033302
  22 C :   -0.029798
  23 H :    0.036127
  24 H :    0.037847
  25 C :   -0.049462
  26 H :    0.030237
  27 H :    0.024312
  28 C :   -0.060595
  29 H :    0.016387
  30 H :    0.029484
  31 H :    0.019352
  32 H :    0.024057
  33 H :    0.030160

  Mayer bond orders larger than 0.100000
B(  0-S ,  1-C ) :   1.1150 B(  0-S ,  4-C ) :   1.1441 B(  1-C ,  2-C ) :   1.6480
B(  1-C , 32-H ) :   0.9725 B(  2-C ,  3-C ) :   1.2178 B(  2-C ,  6-C ) :   1.0006
B(  3-C ,  4-C ) :   1.5705 B(  3-C ,  5-H ) :   1.0072 B(  4-C , 20-C ) :   1.0636
B(  6-C ,  7-H ) :   0.9330 B(  6-C ,  8-H ) :   0.9288 B(  6-C ,  9-C ) :   1.0648
B(  9-C , 10-H ) :   0.9567 B(  9-C , 11-H ) :   0.9540 B(  9-C , 12-C ) :   1.0783
B( 12-C , 13-H ) :   0.9772 B( 12-C , 14-H ) :   0.9728 B( 12-C , 15-H ) :   0.9681
B( 16-S , 17-C ) :   1.1578 B( 16-S , 20-C ) :   1.1637 B( 17-C , 18-C ) :   1.5558
B( 17-C , 20-C ) :   0.1089 B( 17-C , 33-H ) :   0.9728 B( 18-C , 19-C ) :   1.2856
B( 18-C , 21-H ) :   0.9807 B( 19-C , 20-C ) :   1.5518 B( 19-C , 22-C ) :   1.0483
B( 22-C , 23-H ) :   0.9242 B( 22-C , 24-H ) :   0.9297 B( 22-C , 25-C ) :   1.0718
B( 25-C , 26-H ) :   0.9493 B( 25-C , 27-H ) :   0.9541 B( 25-C , 28-C ) :   1.0961
B( 28-C , 29-H ) :   0.9617 B( 28-C , 30-H ) :   0.9713 B( 28-C , 31-H ) :   0.9702

Dispersion correction           -0.014981033
FINAL SINGLE POINT ENERGY     -1339.875457183081

DIPOLE MOMENT
-------------
                                X             Y             Z
Electronic contribution:    -20.70148     -22.98414     -11.08491
Nuclear contribution   :     21.16429      23.55368      11.24854
                        -----------------------------------------
Total Dipole Moment    :      0.46280       0.56954       0.16363
                        -----------------------------------------
Magnitude (a.u.)       :      0.75189
Magnitude (Debye)      :      1.91115

Rotational constants in cm-1:     0.016497     0.011084     0.007028
Rotational constants in MHz :   494.559955   332.276247   210.691479

                             ****ORCA TERMINATED NORMALLY****
TOTAL RUN TIME: 0 days 0 hours 0 minutes 28 seconds 827 msec
