                         Program Version 4.2.1 -  RELEASE  -
|  1> ! wB97X-D3 SP def2-SVP
|  2> %pal
|  3> nprocs 16
|  4> end
|  5>
|  6> * xyz 0 1
|  7> S 	 -8.4169 	 8.58465 	 84.0286
|  8> C 	 -9.07114 	 7.04342 	 84.5272
|  9> C 	 -8.23058 	 6.36339 	 85.3999
| 10> C 	 -7.19471 	 7.27039 	 85.8072
| 11> C 	 -7.03321 	 8.41815 	 85.0745
| 12> H 	 -6.53174 	 7.11664 	 86.6675
| 13> C 	 -8.44877 	 4.97498 	 86.0967
| 14> H 	 -7.62066 	 4.34605 	 86.0311
| 15> H 	 -9.28471 	 4.52535 	 85.6057
| 16> C 	 -8.89401 	 5.08457 	 87.5582
| 17> H 	 -8.1979 	 5.74058 	 88.1401
| 18> H 	 -9.84691 	 5.4808 	 87.6395
| 19> C 	 -8.7896 	 3.77261 	 88.3987
| 20> H 	 -9.68051 	 3.14799 	 88.1469
| 21> H 	 -7.91782 	 3.28007 	 88.0392
| 22> H 	 -8.58968 	 4.0377 	 89.4294
| 23> S 	 -6.21864 	 10.7157 	 86.3448
| 24> C 	 -4.9065 	 11.5727 	 85.6939
| 25> C 	 -4.17899 	 10.8182 	 84.7779
| 26> C 	 -4.88072 	 9.62648 	 84.446
| 27> C 	 -6.10357 	 9.48132 	 85.1324
| 28> H 	 -3.23873 	 11.1824 	 84.3557
| 29> C 	 -4.30563 	 8.67541 	 83.3495
| 30> H 	 -4.11769 	 9.20497 	 82.3782
| 31> H 	 -5.04375 	 7.93019 	 83.1258
| 32> C 	 -3.06617 	 8.02628 	 83.8433
| 33> H 	 -2.34543 	 8.80023 	 84.0218
| 34> H 	 -2.66636 	 7.44552 	 83.0392
| 35> C 	 -3.22204 	 7.09641 	 85.0236
| 36> H 	 -2.28713 	 7.07127 	 85.4826
| 37> H 	 -3.48859 	 6.07246 	 84.8719
| 38> H 	 -3.9373 	 7.43464 	 85.832
| 39> H 	 -9.88702 	 6.50926 	 84.0344
| 40> H 	 -4.68294 	 12.5723 	 85.8901
| 41> *
| 42>
| 43>                          ****END OF INPUT****

CARTESIAN COORDINATES (ANGSTROEM)
---------------------------------
  S     -8.416900    8.584650   84.028600
  C     -9.071140    7.043420   84.527200
  C     -8.230580    6.363390   85.399900
  C     -7.194710    7.270390   85.807200
  C     -7.033210    8.418150   85.074500
  H     -6.531740    7.116640   86.667500
  C     -8.448770    4.974980   86.096700
  H     -7.620660    4.346050   86.031100
  H     -9.284710    4.525350   85.605700
  C     -8.894010    5.084570   87.558200
  H     -8.197900    5.740580   88.140100
  H     -9.846910    5.480800   87.639500
  C     -8.789600    3.772610   88.398700
  H     -9.680510    3.147990   88.146900
  H     -7.917820    3.280070   88.039200
  H     -8.589680    4.037700   89.429400
  S     -6.218640   10.715700   86.344800
  C     -4.906500   11.572700   85.693900
  C     -4.178990   10.818200   84.777900
  C     -4.880720    9.626480   84.446000
  C     -6.103570    9.481320   85.132400
  H     -3.238730   11.182400   84.355700
  C     -4.305630    8.675410   83.349500
  H     -4.117690    9.204970   82.378200
  H     -5.043750    7.930190   83.125800
  C     -3.066170    8.026280   83.843300
  H     -2.345430    8.800230   84.021800
  H     -2.666360    7.445520   83.039200
  C     -3.222040    7.096410   85.023600
  H     -2.287130    7.071270   85.482600
  H     -3.488590    6.072460   84.871900
  H     -3.937300    7.434640   85.832000
  H     -9.887020    6.509260   84.034400
  H     -4.682940   12.572300   85.890100

 Total Charge           Charge          ....    0
 Multiplicity           Mult            ....    1
 Number of Electrons    NEL             ....  134
 Basis Dimension        Dim             ....  322

ORBITAL ENERGIES
----------------

  NO   OCC          E(Eh)            E(eV)
   0   2.0000     -88.964920     -2420.8586
   1   2.0000     -88.962008     -2420.7793
   2   2.0000     -10.320996      -280.8486
   3   2.0000     -10.319907      -280.8189
   4   2.0000     -10.315656      -280.7033
   5   2.0000     -10.310739      -280.5695
   6   2.0000     -10.305096      -280.4159
   7   2.0000     -10.305023      -280.4139
   8   2.0000     -10.293455      -280.0992
   9   2.0000     -10.293223      -280.0928
  10   2.0000     -10.292910      -280.0843
  11   2.0000     -10.286826      -279.9188
  12   2.0000     -10.282090      -279.7899
  13   2.0000     -10.279603      -279.7222
  14   2.0000     -10.275753      -279.6175
  15   2.0000     -10.266312      -279.3605
  16   2.0000      -8.080885      -219.8921
  17   2.0000      -8.077042      -219.7875
  18   2.0000      -6.039211      -164.3353
  19   2.0000      -6.035585      -164.2366
  20   2.0000      -6.035142      -164.2246
  21   2.0000      -6.031850      -164.1350
  22   2.0000      -6.031387      -164.1224
  23   2.0000      -6.027846      -164.0260
  24   2.0000      -1.010586       -27.4995
  25   2.0000      -0.986542       -26.8452
  26   2.0000      -0.914759       -24.8918
  27   2.0000      -0.911252       -24.7964
  28   2.0000      -0.873306       -23.7639
  29   2.0000      -0.846685       -23.0395
  30   2.0000      -0.842786       -22.9334
  31   2.0000      -0.811830       -22.0910
  32   2.0000      -0.788183       -21.4475
  33   2.0000      -0.776384       -21.1265
  34   2.0000      -0.707308       -19.2468
  35   2.0000      -0.697134       -18.9700
  36   2.0000      -0.693987       -18.8844
  37   2.0000      -0.655938       -17.8490
  38   2.0000      -0.642829       -17.4923
  39   2.0000      -0.618471       -16.8294
  40   2.0000      -0.601559       -16.3693
  41   2.0000      -0.574242       -15.6259
  42   2.0000      -0.566312       -15.4101
  43   2.0000      -0.552010       -15.0210
  44   2.0000      -0.541496       -14.7348
  45   2.0000      -0.529138       -14.3986
  46   2.0000      -0.523312       -14.2400
  47   2.0000      -0.513777       -13.9806
  48   2.0000      -0.506298       -13.7771
  49   2.0000      -0.497243       -13.5307
  50   2.0000      -0.491587       -13.3768
  51   2.0000      -0.477922       -13.0049
  52   2.0000      -0.468602       -12.7513
  53   2.0000      -0.464077       -12.6282
  54   2.0000      -0.458136       -12.4665
  55   2.0000      -0.446612       -12.1529
  56   2.0000      -0.441410       -12.0114
  57   2.0000      -0.437415       -11.9027
  58   2.0000      -0.434343       -11.8191
  59   2.0000      -0.426984       -11.6188
  60   2.0000      -0.424378       -11.5479
  61   2.0000      -0.408244       -11.1089
  62   2.0000      -0.407874       -11.0988
  63   2.0000      -0.334004        -9.0887
  64   2.0000      -0.326492        -8.8843
  65   2.0000      -0.320560        -8.7229
  66   2.0000      -0.309326        -8.4172
  67   0.0000       0.045545         1.2394
  68   0.0000       0.051934         1.4132
  69   0.0000       0.113160         3.0792
  70   0.0000       0.125408         3.4125
  71   0.0000       0.127472         3.4687

MULLIKEN ATOMIC CHARGES
-----------------------
   0 S :    0.113281
   1 C :   -0.116805
   2 C :   -0.105921
   3 C :    0.025571
   4 C :   -0.191628
   5 H :    0.018312
   6 C :    0.135326
   7 H :    0.014128
   8 H :    0.009447
   9 C :   -0.111697
  10 H :    0.025517
  11 H :    0.019402
  12 C :   -0.036435
  13 H :    0.045610
  14 H :    0.013976
  15 H :    0.043183
  16 S :    0.138628
  17 C :   -0.072800
  18 C :   -0.044766
  19 C :   -0.030469
  20 C :   -0.177792
  21 H :    0.025828
  22 C :    0.089777
  23 H :    0.038975
  24 H :    0.015792
  25 C :   -0.050462
  26 H :    0.016167
  27 H :    0.020112
  28 C :   -0.031019
  29 H :    0.011691
  30 H :    0.026070
  31 H :    0.033229
  32 H :    0.052857
  33 H :    0.036918
Sum of atomic charges:    0.0000000

LOEWDIN ATOMIC CHARGES
----------------------
   0 S :    0.413470
   1 C :   -0.198720
   2 C :   -0.062225
   3 C :   -0.058692
   4 C :   -0.207193
   5 H :    0.029329
   6 C :   -0.016882
   7 H :    0.020705
   8 H :    0.027562
   9 C :   -0.035915
  10 H :    0.024231
  11 H :    0.012760
  12 C :   -0.061705
  13 H :    0.030313
  14 H :    0.017745
  15 H :    0.029450
  16 S :    0.441651
  17 C :   -0.187765
  18 C :   -0.074479
  19 C :   -0.040202
  20 C :   -0.231725
  21 H :    0.033710
  22 C :   -0.027371
  23 H :    0.036236
  24 H :    0.024284
  25 C :   -0.039780
  26 H :    0.019391
  27 H :    0.025484
  28 C :   -0.065365
  29 H :    0.020899
  30 H :    0.022401
  31 H :    0.031084
  32 H :    0.029680
  33 H :    0.017633

  Mayer bond orders larger than 0.100000
B(  0-S ,  1-C ) :   1.1553 B(  0-S ,  4-C ) :   1.1381 B(  1-C ,  2-C ) :   1.6267
B(  1-C ,  4-C ) :   0.1016 B(  1-C , 32-H ) :   0.9577 B(  2-C ,  3-C ) :   1.2210
B(  2-C ,  6-C ) :   1.0280 B(  3-C ,  4-C ) :   1.6285 B(  3-C ,  5-H ) :   0.9847
B(  4-C , 20-C ) :   1.0317 B(  6-C ,  7-H ) :   0.9381 B(  6-C ,  8-H ) :   0.9381
B(  6-C ,  9-C ) :   1.0644 B(  9-C , 10-H ) :   0.9641 B(  9-C , 11-H ) :   0.9604
B(  9-C , 12-C ) :   1.0689 B( 12-C , 13-H ) :   0.9773 B( 12-C , 14-H ) :   0.9749
B( 12-C , 15-H ) :   0.9780 B( 16-S , 17-C ) :   1.1915 B( 16-S , 20-C ) :   1.1502
B( 17-C , 18-C ) :   1.5688 B( 17-C , 20-C ) :   0.1068 B( 17-C , 33-H ) :   0.9748
B( 18-C , 19-C ) :   1.2653 B( 18-C , 21-H ) :   0.9905 B( 19-C , 20-C ) :   1.5619
B( 19-C , 22-C ) :   1.0347 B( 22-C , 23-H ) :   0.9435 B( 22-C , 24-H ) :   0.9284
B( 22-C , 25-C ) :   1.0842 B( 25-C , 26-H ) :   0.9592 B( 25-C , 27-H ) :   0.9463
B( 25-C , 28-C ) :   1.0728 B( 28-C , 29-H ) :   0.9679 B( 28-C , 30-H ) :   0.9751
B( 28-C , 31-H ) :   0.9726

Dispersion correction           -0.014777816
FINAL SINGLE POINT ENERGY     -1339.862835910868

DIPOLE MOMENT
-------------
                                X             Y             Z
Electronic contribution:     -7.70231      22.99931      -6.08220
Nuclear contribution   :      8.05840     -23.39667       6.12614
                        -----------------------------------------
Total Dipole Moment    :      0.35609      -0.39736       0.04394
                        -----------------------------------------
Magnitude (a.u.)       :      0.53538
Magnitude (Debye)      :      1.36082

Rotational constants in cm-1:     0.019882     0.007961     0.007274
Rotational constants in MHz :   596.041951   238.677039   218.074980

                             ****ORCA TERMINATED NORMALLY****
TOTAL RUN TIME: 0 days 0 hours 0 minutes 37 seconds 168 msec
