                         Program Version 4.2.1 -  RELEASE  -
|  1> ! wB97X-D3 SP def2-SVP
|  2> %pal
|  3> nprocs 16
|  4> end
|  5>
|  6> * xyz 0 1
|  7> S 	 -94.6868 	 43.3475 	 126.409
|  8> C 	 -93.2667 	 42.3558 	 126.416
|  9> C 	 -93.5994 	 41.0476 	 126.639
| 10> C 	 -94.9971 	 40.8037 	 126.483
| 11> C 	 -95.7248 	 42.016 	 126.333
| 12> H 	 -95.5442 	 39.8742 	 126.62
| 13> C 	 -92.6447 	 39.9494 	 126.767
| 14> H 	 -93.1486 	 39.2272 	 127.402
| 15> H 	 -91.7065 	 40.1562 	 127.173
| 16> C 	 -92.4103 	 39.2099 	 125.472
| 17> H 	 -93.3518 	 38.853 	 125.079
| 18> H 	 -92.0035 	 40.0275 	 124.838
| 19> C 	 -91.3013 	 38.0922 	 125.517
| 20> H 	 -91.1893 	 37.7116 	 124.568
| 21> H 	 -90.3989 	 38.3466 	 125.987
| 22> H 	 -91.6105 	 37.2261 	 126.1
| 23> S 	 -98.0655 	 42.0664 	 127.743
| 24> C 	 -99.5217 	 42.4466 	 126.86
| 25> C 	 -99.3655 	 42.5151 	 125.526
| 26> C 	 -98.0479 	 42.233 	 125.082
| 27> C 	 -97.1773 	 42.1396 	 126.176
| 28> H 	 -100.201 	 42.7857 	 124.882
| 29> C 	 -97.7028 	 42.2949 	 123.647
| 30> H 	 -96.6165 	 42.0069 	 123.603
| 31> H 	 -97.5491 	 43.2619 	 123.291
| 32> C 	 -98.4595 	 41.429 	 122.683
| 33> H 	 -99.5185 	 41.503 	 122.828
| 34> H 	 -98.3032 	 40.3426 	 122.834
| 35> C 	 -98.1575 	 41.8172 	 121.231
| 36> H 	 -98.6742 	 42.7157 	 120.865
| 37> H 	 -98.5463 	 41.0633 	 120.491
| 38> H 	 -97.1126 	 41.6871 	 120.943
| 39> H 	 -92.3843 	 42.7125 	 126.792
| 40> H 	 -100.537 	 42.5427 	 127.254
| 41> *
| 42>
| 43>                          ****END OF INPUT****

CARTESIAN COORDINATES (ANGSTROEM)
---------------------------------
  S    -94.686800   43.347500  126.409000
  C    -93.266700   42.355800  126.416000
  C    -93.599400   41.047600  126.639000
  C    -94.997100   40.803700  126.483000
  C    -95.724800   42.016000  126.333000
  H    -95.544200   39.874200  126.620000
  C    -92.644700   39.949400  126.767000
  H    -93.148600   39.227200  127.402000
  H    -91.706500   40.156200  127.173000
  C    -92.410300   39.209900  125.472000
  H    -93.351800   38.853000  125.079000
  H    -92.003500   40.027500  124.838000
  C    -91.301300   38.092200  125.517000
  H    -91.189300   37.711600  124.568000
  H    -90.398900   38.346600  125.987000
  H    -91.610500   37.226100  126.100000
  S    -98.065500   42.066400  127.743000
  C    -99.521700   42.446600  126.860000
  C    -99.365500   42.515100  125.526000
  C    -98.047900   42.233000  125.082000
  C    -97.177300   42.139600  126.176000
  H    -100.201000   42.785700  124.882000
  C    -97.702800   42.294900  123.647000
  H    -96.616500   42.006900  123.603000
  H    -97.549100   43.261900  123.291000
  C    -98.459500   41.429000  122.683000
  H    -99.518500   41.503000  122.828000
  H    -98.303200   40.342600  122.834000
  C    -98.157500   41.817200  121.231000
  H    -98.674200   42.715700  120.865000
  H    -98.546300   41.063300  120.491000
  H    -97.112600   41.687100  120.943000
  H    -92.384300   42.712500  126.792000
  H    -100.537000   42.542700  127.254000

 Total Charge           Charge          ....    0
 Multiplicity           Mult            ....    1
 Number of Electrons    NEL             ....  134
 Basis Dimension        Dim             ....  322

ORBITAL ENERGIES
----------------

  NO   OCC          E(Eh)            E(eV)
   0   2.0000     -88.965475     -2420.8737
   1   2.0000     -88.964610     -2420.8501
   2   2.0000     -10.329623      -281.0833
   3   2.0000     -10.327843      -281.0349
   4   2.0000     -10.311439      -280.5885
   5   2.0000     -10.303618      -280.3757
   6   2.0000     -10.299644      -280.2676
   7   2.0000     -10.296646      -280.1860
   8   2.0000     -10.295123      -280.1446
   9   2.0000     -10.286832      -279.9189
  10   2.0000     -10.286159      -279.9006
  11   2.0000     -10.285831      -279.8917
  12   2.0000     -10.282875      -279.8113
  13   2.0000     -10.282267      -279.7947
  14   2.0000     -10.278348      -279.6881
  15   2.0000     -10.270308      -279.4693
  16   2.0000      -8.080663      -219.8860
  17   2.0000      -8.079615      -219.8575
  18   2.0000      -6.038928      -164.3276
  19   2.0000      -6.038153      -164.3065
  20   2.0000      -6.034866      -164.2171
  21   2.0000      -6.034409      -164.2046
  22   2.0000      -6.031721      -164.1315
  23   2.0000      -6.030176      -164.0894
  24   2.0000      -1.009745       -27.4766
  25   2.0000      -0.987561       -26.8729
  26   2.0000      -0.921301       -25.0699
  27   2.0000      -0.914502       -24.8849
  28   2.0000      -0.868974       -23.6460
  29   2.0000      -0.851831       -23.1795
  30   2.0000      -0.848330       -23.0842
  31   2.0000      -0.813935       -22.1483
  32   2.0000      -0.789916       -21.4947
  33   2.0000      -0.774891       -21.0859
  34   2.0000      -0.710833       -19.3427
  35   2.0000      -0.703770       -19.1506
  36   2.0000      -0.698585       -19.0095
  37   2.0000      -0.655899       -17.8479
  38   2.0000      -0.646723       -17.5982
  39   2.0000      -0.622123       -16.9288
  40   2.0000      -0.604365       -16.4456
  41   2.0000      -0.571613       -15.5544
  42   2.0000      -0.565152       -15.3786
  43   2.0000      -0.561524       -15.2798
  44   2.0000      -0.528630       -14.3848
  45   2.0000      -0.523927       -14.2568
  46   2.0000      -0.519419       -14.1341
  47   2.0000      -0.516459       -14.0536
  48   2.0000      -0.505454       -13.7541
  49   2.0000      -0.501321       -13.6416
  50   2.0000      -0.493514       -13.4292
  51   2.0000      -0.476190       -12.9578
  52   2.0000      -0.466035       -12.6815
  53   2.0000      -0.463767       -12.6198
  54   2.0000      -0.461520       -12.5586
  55   2.0000      -0.455191       -12.3864
  56   2.0000      -0.445375       -12.1193
  57   2.0000      -0.442000       -12.0274
  58   2.0000      -0.433668       -11.8007
  59   2.0000      -0.430630       -11.7180
  60   2.0000      -0.422134       -11.4869
  61   2.0000      -0.407766       -11.0959
  62   2.0000      -0.406858       -11.0712
  63   2.0000      -0.335187        -9.1209
  64   2.0000      -0.326730        -8.8908
  65   2.0000      -0.319914        -8.7053
  66   2.0000      -0.311561        -8.4780
  67   0.0000       0.043872         1.1938
  68   0.0000       0.050861         1.3840
  69   0.0000       0.106346         2.8938
  70   0.0000       0.121036         3.2936
  71   0.0000       0.133309         3.6275

MULLIKEN ATOMIC CHARGES
-----------------------
   0 S :    0.125600
   1 C :   -0.064009
   2 C :   -0.109183
   3 C :    0.030749
   4 C :   -0.186849
   5 H :    0.018302
   6 C :    0.108417
   7 H :    0.011681
   8 H :   -0.002659
   9 C :   -0.102742
  10 H :    0.028204
  11 H :    0.027656
  12 C :    0.015081
  13 H :    0.020149
  14 H :    0.018621
  15 H :    0.013681
  16 S :    0.107674
  17 C :   -0.070852
  18 C :   -0.052624
  19 C :    0.026237
  20 C :   -0.199797
  21 H :    0.022136
  22 C :    0.082976
  23 H :    0.018095
  24 H :    0.021628
  25 C :   -0.062807
  26 H :    0.018190
  27 H :    0.033096
  28 C :   -0.075633
  29 H :    0.045549
  30 H :    0.021071
  31 H :    0.034925
  32 H :    0.026524
  33 H :    0.050917
Sum of atomic charges:   -0.0000000

LOEWDIN ATOMIC CHARGES
----------------------
   0 S :    0.448959
   1 C :   -0.206002
   2 C :   -0.053694
   3 C :   -0.063217
   4 C :   -0.222921
   5 H :    0.032566
   6 C :   -0.033118
   7 H :    0.029836
   8 H :    0.019095
   9 C :   -0.028816
  10 H :    0.021151
  11 H :    0.026619
  12 C :   -0.055892
  13 H :    0.018678
  14 H :    0.018891
  15 H :    0.025203
  16 S :    0.386430
  17 C :   -0.184581
  18 C :   -0.076366
  19 C :   -0.046234
  20 C :   -0.184807
  21 H :    0.033839
  22 C :   -0.040848
  23 H :    0.041469
  24 H :    0.029135
  25 C :   -0.040273
  26 H :    0.018611
  27 H :    0.031342
  28 C :   -0.077765
  29 H :    0.029545
  30 H :    0.031913
  31 H :    0.027744
  32 H :    0.010952
  33 H :    0.032556

  Mayer bond orders larger than 0.100000
B(  0-S ,  1-C ) :   1.1475 B(  0-S ,  4-C ) :   1.2055 B(  1-C ,  2-C ) :   1.5889
B(  1-C ,  4-C ) :   0.1013 B(  1-C , 32-H ) :   0.9624 B(  2-C ,  3-C ) :   1.2504
B(  2-C ,  6-C ) :   1.0622 B(  3-C ,  4-C ) :   1.5359 B(  3-C ,  5-H ) :   0.9938
B(  4-C , 20-C ) :   1.0054 B(  6-C ,  7-H ) :   0.9224 B(  6-C ,  8-H ) :   0.9388
B(  6-C ,  9-C ) :   1.0626 B(  9-C , 10-H ) :   0.9566 B(  9-C , 11-H ) :   0.9564
B(  9-C , 12-C ) :   1.0788 B( 12-C , 13-H ) :   0.9736 B( 12-C , 14-H ) :   0.9743
B( 12-C , 15-H ) :   0.9717 B( 16-S , 17-C ) :   1.1337 B( 16-S , 20-C ) :   1.1344
B( 17-C , 18-C ) :   1.6665 B( 17-C , 33-H ) :   0.9576 B( 18-C , 19-C ) :   1.2045
B( 18-C , 21-H ) :   0.9841 B( 19-C , 20-C ) :   1.6149 B( 19-C , 22-C ) :   1.0571
B( 22-C , 23-H ) :   0.9120 B( 22-C , 24-H ) :   0.9369 B( 22-C , 25-C ) :   1.0496
B( 25-C , 26-H ) :   0.9590 B( 25-C , 27-H ) :   0.9507 B( 25-C , 28-C ) :   1.0897
B( 28-C , 29-H ) :   0.9747 B( 28-C , 30-H ) :   0.9687 B( 28-C , 31-H ) :   0.9723

Dispersion correction           -0.013557220
FINAL SINGLE POINT ENERGY     -1339.852854156650

DIPOLE MOMENT
-------------
                                X             Y             Z
Electronic contribution:     -8.69939      15.77333      20.01461
Nuclear contribution   :      8.69184     -16.15015     -20.32157
                        -----------------------------------------
Total Dipole Moment    :     -0.00755      -0.37682      -0.30696
                        -----------------------------------------
Magnitude (a.u.)       :      0.48608
Magnitude (Debye)      :      1.23551

Rotational constants in cm-1:     0.017388     0.007890     0.006447
Rotational constants in MHz :   521.290127   236.546567   193.265939

                             ****ORCA TERMINATED NORMALLY****
TOTAL RUN TIME: 0 days 0 hours 0 minutes 32 seconds 863 msec
