                         Program Version 4.2.1 -  RELEASE  -
|  1> ! wB97X-D3 SP def2-SVP
|  2> %pal
|  3> nprocs 16
|  4> end
|  5>
|  6> * xyz 0 1
|  7> S 	 40.2935 	 30.3203 	 50.7007
|  8> C 	 41.1807 	 31.7813 	 51.1675
|  9> C 	 40.4192 	 32.5769 	 52.0339
| 10> C 	 39.0794 	 32.0299 	 52.1846
| 11> C 	 38.8636 	 30.9635 	 51.3691
| 12> H 	 38.3012 	 32.3279 	 52.8757
| 13> C 	 40.914 	 33.8103 	 52.8312
| 14> H 	 42.008 	 33.8159 	 52.9012
| 15> H 	 40.5389 	 33.7337 	 53.8578
| 16> C 	 40.4667 	 35.1687 	 52.2429
| 17> H 	 40.9583 	 35.8487 	 52.9286
| 18> H 	 40.893 	 35.3289 	 51.2507
| 19> C 	 39.0382 	 35.4664 	 52.1234
| 20> H 	 38.454 	 35.4627 	 53.0167
| 21> H 	 38.9883 	 36.4175 	 51.747
| 22> H 	 38.5773 	 34.8057 	 51.4194
| 23> S 	 37.6553 	 28.5946 	 50.824
| 24> C 	 36.0646 	 28.5878 	 50.2391
| 25> C 	 35.4078 	 29.7768 	 50.3584
| 26> C 	 36.2817 	 30.831 	 50.7985
| 27> C 	 37.5791 	 30.3641 	 51.0622
| 28> H 	 34.3416 	 29.6852 	 50.1633
| 29> C 	 35.9171 	 32.2884 	 50.9364
| 30> H 	 36.4709 	 32.6441 	 51.7558
| 31> H 	 34.7962 	 32.403 	 51.1079
| 32> C 	 36.1732 	 33.228 	 49.6686
| 33> H 	 35.7716 	 32.8745 	 48.7021
| 34> H 	 37.2364 	 33.2851 	 49.6985
| 35> C 	 35.5443 	 34.6134 	 49.8534
| 36> H 	 35.4388 	 34.9708 	 48.8239
| 37> H 	 36.0161 	 35.3695 	 50.5254
| 38> H 	 34.4649 	 34.5701 	 50.045
| 39> H 	 42.2794 	 31.9234 	 50.9875
| 40> H 	 35.5154 	 27.7343 	 49.9577
| 41> *
| 42>
| 43>                          ****END OF INPUT****

CARTESIAN COORDINATES (ANGSTROEM)
---------------------------------
  S     40.293500   30.320300   50.700700
  C     41.180700   31.781300   51.167500
  C     40.419200   32.576900   52.033900
  C     39.079400   32.029900   52.184600
  C     38.863600   30.963500   51.369100
  H     38.301200   32.327900   52.875700
  C     40.914000   33.810300   52.831200
  H     42.008000   33.815900   52.901200
  H     40.538900   33.733700   53.857800
  C     40.466700   35.168700   52.242900
  H     40.958300   35.848700   52.928600
  H     40.893000   35.328900   51.250700
  C     39.038200   35.466400   52.123400
  H     38.454000   35.462700   53.016700
  H     38.988300   36.417500   51.747000
  H     38.577300   34.805700   51.419400
  S     37.655300   28.594600   50.824000
  C     36.064600   28.587800   50.239100
  C     35.407800   29.776800   50.358400
  C     36.281700   30.831000   50.798500
  C     37.579100   30.364100   51.062200
  H     34.341600   29.685200   50.163300
  C     35.917100   32.288400   50.936400
  H     36.470900   32.644100   51.755800
  H     34.796200   32.403000   51.107900
  C     36.173200   33.228000   49.668600
  H     35.771600   32.874500   48.702100
  H     37.236400   33.285100   49.698500
  C     35.544300   34.613400   49.853400
  H     35.438800   34.970800   48.823900
  H     36.016100   35.369500   50.525400
  H     34.464900   34.570100   50.045000
  H     42.279400   31.923400   50.987500
  H     35.515400   27.734300   49.957700

 Total Charge           Charge          ....    0
 Multiplicity           Mult            ....    1
 Number of Electrons    NEL             ....  134
 Basis Dimension        Dim             ....  322

ORBITAL ENERGIES
----------------

  NO   OCC          E(Eh)            E(eV)
   0   2.0000     -88.964980     -2420.8602
   1   2.0000     -88.962366     -2420.7891
   2   2.0000     -10.327070      -281.0139
   3   2.0000     -10.324143      -280.9342
   4   2.0000     -10.318721      -280.7867
   5   2.0000     -10.309273      -280.5296
   6   2.0000     -10.308351      -280.5045
   7   2.0000     -10.306329      -280.4495
   8   2.0000     -10.296658      -280.1863
   9   2.0000     -10.292157      -280.0638
  10   2.0000     -10.291850      -280.0555
  11   2.0000     -10.291549      -280.0473
  12   2.0000     -10.288445      -279.9628
  13   2.0000     -10.281581      -279.7760
  14   2.0000     -10.279749      -279.7262
  15   2.0000     -10.262381      -279.2536
  16   2.0000      -8.080387      -219.8785
  17   2.0000      -8.077982      -219.8131
  18   2.0000      -6.038941      -164.3279
  19   2.0000      -6.036336      -164.2571
  20   2.0000      -6.035013      -164.2211
  21   2.0000      -6.032469      -164.1518
  22   2.0000      -6.030824      -164.1071
  23   2.0000      -6.028761      -164.0509
  24   2.0000      -1.010519       -27.4976
  25   2.0000      -0.984410       -26.7872
  26   2.0000      -0.916070       -24.9275
  27   2.0000      -0.903660       -24.5898
  28   2.0000      -0.872096       -23.7309
  29   2.0000      -0.855525       -23.2800
  30   2.0000      -0.844687       -22.9851
  31   2.0000      -0.818388       -22.2695
  32   2.0000      -0.789237       -21.4762
  33   2.0000      -0.771459       -20.9925
  34   2.0000      -0.704822       -19.1792
  35   2.0000      -0.697987       -18.9932
  36   2.0000      -0.690777       -18.7970
  37   2.0000      -0.658685       -17.9237
  38   2.0000      -0.637504       -17.3474
  39   2.0000      -0.617988       -16.8163
  40   2.0000      -0.591574       -16.0975
  41   2.0000      -0.575310       -15.6550
  42   2.0000      -0.568590       -15.4721
  43   2.0000      -0.551362       -15.0033
  44   2.0000      -0.544262       -14.8101
  45   2.0000      -0.524935       -14.2842
  46   2.0000      -0.519723       -14.1424
  47   2.0000      -0.513515       -13.9735
  48   2.0000      -0.501131       -13.6365
  49   2.0000      -0.498896       -13.5756
  50   2.0000      -0.491063       -13.3625
  51   2.0000      -0.483798       -13.1648
  52   2.0000      -0.467911       -12.7325
  53   2.0000      -0.464651       -12.6438
  54   2.0000      -0.460533       -12.5317
  55   2.0000      -0.453145       -12.3307
  56   2.0000      -0.444458       -12.0943
  57   2.0000      -0.439672       -11.9641
  58   2.0000      -0.434962       -11.8359
  59   2.0000      -0.429618       -11.6905
  60   2.0000      -0.415556       -11.3078
  61   2.0000      -0.412289       -11.2190
  62   2.0000      -0.409606       -11.1459
  63   2.0000      -0.351036        -9.5522
  64   2.0000      -0.331657        -9.0248
  65   2.0000      -0.326165        -8.8754
  66   2.0000      -0.283760        -7.7215
  67   0.0000       0.023552         0.6409
  68   0.0000       0.074394         2.0244
  69   0.0000       0.098489         2.6800
  70   0.0000       0.124319         3.3829
  71   0.0000       0.127236         3.4623

MULLIKEN ATOMIC CHARGES
-----------------------
   0 S :    0.113999
   1 C :   -0.143089
   2 C :   -0.086628
   3 C :   -0.020225
   4 C :   -0.106637
   5 H :    0.030277
   6 C :    0.062283
   7 H :    0.023588
   8 H :    0.030084
   9 C :   -0.076501
  10 H :    0.022454
  11 H :    0.025529
  12 C :    0.015028
  13 H :    0.015651
  14 H :    0.011352
  15 H :    0.025483
  16 S :    0.091595
  17 C :   -0.065148
  18 C :   -0.056197
  19 C :   -0.010863
  20 C :   -0.158231
  21 H :    0.021464
  22 C :    0.057681
  23 H :   -0.000454
  24 H :    0.025037
  25 C :   -0.053226
  26 H :    0.036945
  27 H :    0.036580
  28 C :   -0.066447
  29 H :    0.024286
  30 H :    0.053995
  31 H :    0.019515
  32 H :    0.066049
  33 H :    0.034767
Sum of atomic charges:    0.0000000

LOEWDIN ATOMIC CHARGES
----------------------
   0 S :    0.410382
   1 C :   -0.206181
   2 C :   -0.056084
   3 C :   -0.074381
   4 C :   -0.205899
   5 H :    0.032565
   6 C :   -0.029933
   7 H :    0.030624
   8 H :    0.032380
   9 C :   -0.037469
  10 H :    0.022885
  11 H :    0.027115
  12 C :   -0.057560
  13 H :    0.020438
  14 H :    0.021368
  15 H :    0.024318
  16 S :    0.402488
  17 C :   -0.189994
  18 C :   -0.077971
  19 C :   -0.049622
  20 C :   -0.182902
  21 H :    0.037442
  22 C :   -0.031781
  23 H :    0.018130
  24 H :    0.034363
  25 C :   -0.029466
  26 H :    0.030755
  27 H :    0.021066
  28 C :   -0.080114
  29 H :    0.030935
  30 H :    0.029586
  31 H :    0.024548
  32 H :    0.037377
  33 H :    0.020591

  Mayer bond orders larger than 0.100000
B(  0-S ,  1-C ) :   1.1207 B(  0-S ,  4-C ) :   1.1543 B(  1-C ,  2-C ) :   1.6310
B(  1-C , 32-H ) :   0.9629 B(  2-C ,  3-C ) :   1.2064 B(  2-C ,  6-C ) :   1.0173
B(  3-C ,  4-C ) :   1.5787 B(  3-C ,  5-H ) :   0.9947 B(  4-C , 20-C ) :   1.0551
B(  6-C ,  7-H ) :   0.9427 B(  6-C ,  8-H ) :   0.9431 B(  6-C ,  9-C ) :   1.0748
B(  9-C , 10-H ) :   0.9526 B(  9-C , 11-H ) :   0.9501 B(  9-C , 12-C ) :   1.1043
B( 12-C , 13-H ) :   0.9679 B( 12-C , 14-H ) :   0.9603 B( 12-C , 15-H ) :   0.9635
B( 16-S , 17-C ) :   1.1627 B( 16-S , 20-C ) :   1.1251 B( 17-C , 18-C ) :   1.6410
B( 17-C , 33-H ) :   0.9647 B( 18-C , 19-C ) :   1.2069 B( 18-C , 21-H ) :   0.9945
B( 19-C , 20-C ) :   1.5913 B( 19-C , 22-C ) :   1.0523 B( 22-C , 23-H ) :   0.9336
B( 22-C , 24-H ) :   0.9363 B( 22-C , 25-C ) :   1.0538 B( 25-C , 26-H ) :   0.9600
B( 25-C , 27-H ) :   0.9538 B( 25-C , 28-C ) :   1.0833 B( 28-C , 29-H ) :   0.9733
B( 28-C , 30-H ) :   0.9738 B( 28-C , 31-H ) :   0.9669

Dispersion correction           -0.015487531
FINAL SINGLE POINT ENERGY     -1339.861544841855

DIPOLE MOMENT
-------------
                                X             Y             Z
Electronic contribution:      7.31526     -31.36325      -1.86838
Nuclear contribution   :     -7.57316      31.96587       1.99831
                        -----------------------------------------
Total Dipole Moment    :     -0.25790       0.60263       0.12994
                        -----------------------------------------
Magnitude (a.u.)       :      0.66825
Magnitude (Debye)      :      1.69855

Rotational constants in cm-1:     0.017525     0.010867     0.007216
Rotational constants in MHz :   525.377815   325.782931   216.334492

                             ****ORCA TERMINATED NORMALLY****
TOTAL RUN TIME: 0 days 0 hours 0 minutes 34 seconds 882 msec
