                         Program Version 4.2.1 -  RELEASE  -
|  1> ! wB97X-D3 SP def2-SVP
|  2> %pal
|  3> nprocs 16
|  4> end
|  5>
|  6> * xyz 0 1
|  7> S 	 -75.4318 	 51.0583 	 138.917
|  8> C 	 -75.5111 	 52.4127 	 139.926
|  9> C 	 -75.883 	 53.592 	 139.187
| 10> C 	 -76.1481 	 53.264 	 137.818
| 11> C 	 -76.0525 	 51.9391 	 137.519
| 12> H 	 -76.3762 	 54.0226 	 137.057
| 13> C 	 -75.8949 	 55.0545 	 139.69
| 14> H 	 -75.5976 	 55.1085 	 140.735
| 15> H 	 -76.9476 	 55.3995 	 139.687
| 16> C 	 -74.9803 	 56.0343 	 138.964
| 17> H 	 -75.1487 	 55.9087 	 137.927
| 18> H 	 -75.0205 	 57.0542 	 139.342
| 19> C 	 -73.4958 	 55.6157 	 139.294
| 20> H 	 -73.2996 	 55.6119 	 140.378
| 21> H 	 -73.1809 	 54.6379 	 138.86
| 22> H 	 -72.7873 	 56.2644 	 138.774
| 23> S 	 -74.6173 	 50.442 	 135.826
| 24> C 	 -75.2801 	 50.0412 	 134.324
| 25> C 	 -76.5118 	 50.5643 	 134.092
| 26> C 	 -77.0522 	 51.2373 	 135.219
| 27> C 	 -76.0923 	 51.2804 	 136.222
| 28> H 	 -77.0167 	 50.3388 	 133.161
| 29> C 	 -78.3411 	 51.9311 	 135.309
| 30> H 	 -78.9307 	 52.0313 	 134.384
| 31> H 	 -78.1002 	 52.9627 	 135.498
| 32> C 	 -79.2966 	 51.376 	 136.456
| 33> H 	 -80.1282 	 52.0626 	 136.692
| 34> H 	 -78.6818 	 51.4741 	 137.339
| 35> C 	 -79.7478 	 49.9636 	 136.297
| 36> H 	 -80.034 	 49.6249 	 137.325
| 37> H 	 -79.043 	 49.2727 	 135.912
| 38> H 	 -80.6059 	 49.8508 	 135.647
| 39> H 	 -75.1068 	 52.4217 	 140.921
| 40> H 	 -74.7424 	 49.4981 	 133.488
| 41> *
| 42>
| 43>                          ****END OF INPUT****

CARTESIAN COORDINATES (ANGSTROEM)
---------------------------------
  S    -75.431800   51.058300  138.917000
  C    -75.511100   52.412700  139.926000
  C    -75.883000   53.592000  139.187000
  C    -76.148100   53.264000  137.818000
  C    -76.052500   51.939100  137.519000
  H    -76.376200   54.022600  137.057000
  C    -75.894900   55.054500  139.690000
  H    -75.597600   55.108500  140.735000
  H    -76.947600   55.399500  139.687000
  C    -74.980300   56.034300  138.964000
  H    -75.148700   55.908700  137.927000
  H    -75.020500   57.054200  139.342000
  C    -73.495800   55.615700  139.294000
  H    -73.299600   55.611900  140.378000
  H    -73.180900   54.637900  138.860000
  H    -72.787300   56.264400  138.774000
  S    -74.617300   50.442000  135.826000
  C    -75.280100   50.041200  134.324000
  C    -76.511800   50.564300  134.092000
  C    -77.052200   51.237300  135.219000
  C    -76.092300   51.280400  136.222000
  H    -77.016700   50.338800  133.161000
  C    -78.341100   51.931100  135.309000
  H    -78.930700   52.031300  134.384000
  H    -78.100200   52.962700  135.498000
  C    -79.296600   51.376000  136.456000
  H    -80.128200   52.062600  136.692000
  H    -78.681800   51.474100  137.339000
  C    -79.747800   49.963600  136.297000
  H    -80.034000   49.624900  137.325000
  H    -79.043000   49.272700  135.912000
  H    -80.605900   49.850800  135.647000
  H    -75.106800   52.421700  140.921000
  H    -74.742400   49.498100  133.488000

 Total Charge           Charge          ....    0
 Multiplicity           Mult            ....    1
 Number of Electrons    NEL             ....  134
 Basis Dimension        Dim             ....  322

ORBITAL ENERGIES
----------------

  NO   OCC          E(Eh)            E(eV)
   0   2.0000     -88.967179     -2420.9200
   1   2.0000     -88.966736     -2420.9080
   2   2.0000     -10.326718      -281.0043
   3   2.0000     -10.321264      -280.8559
   4   2.0000     -10.315403      -280.6964
   5   2.0000     -10.311471      -280.5894
   6   2.0000     -10.308554      -280.5100
   7   2.0000     -10.300874      -280.3010
   8   2.0000     -10.294743      -280.1342
   9   2.0000     -10.294247      -280.1207
  10   2.0000     -10.288626      -279.9678
  11   2.0000     -10.287910      -279.9483
  12   2.0000     -10.287881      -279.9475
  13   2.0000     -10.281448      -279.7724
  14   2.0000     -10.278245      -279.6853
  15   2.0000     -10.268058      -279.4081
  16   2.0000      -8.083148      -219.9537
  17   2.0000      -8.082165      -219.9269
  18   2.0000      -6.041368      -164.3940
  19   2.0000      -6.040491      -164.3701
  20   2.0000      -6.037560      -164.2904
  21   2.0000      -6.036491      -164.2613
  22   2.0000      -6.034054      -164.1950
  23   2.0000      -6.033157      -164.1705
  24   2.0000      -1.014858       -27.6157
  25   2.0000      -0.989279       -26.9197
  26   2.0000      -0.909743       -24.7554
  27   2.0000      -0.909563       -24.7505
  28   2.0000      -0.869613       -23.6634
  29   2.0000      -0.855826       -23.2882
  30   2.0000      -0.844947       -22.9922
  31   2.0000      -0.811856       -22.0917
  32   2.0000      -0.783271       -21.3139
  33   2.0000      -0.767580       -20.8869
  34   2.0000      -0.709104       -19.2957
  35   2.0000      -0.697408       -18.9774
  36   2.0000      -0.684752       -18.6330
  37   2.0000      -0.660170       -17.9641
  38   2.0000      -0.641329       -17.4515
  39   2.0000      -0.627262       -17.0687
  40   2.0000      -0.597442       -16.2572
  41   2.0000      -0.567204       -15.4344
  42   2.0000      -0.549393       -14.9497
  43   2.0000      -0.547805       -14.9065
  44   2.0000      -0.543079       -14.7779
  45   2.0000      -0.539345       -14.6763
  46   2.0000      -0.513050       -13.9608
  47   2.0000      -0.506964       -13.7952
  48   2.0000      -0.500517       -13.6197
  49   2.0000      -0.492401       -13.3989
  50   2.0000      -0.487014       -13.2523
  51   2.0000      -0.485326       -13.2064
  52   2.0000      -0.472372       -12.8539
  53   2.0000      -0.465385       -12.6638
  54   2.0000      -0.462847       -12.5947
  55   2.0000      -0.448208       -12.1964
  56   2.0000      -0.439857       -11.9691
  57   2.0000      -0.434629       -11.8269
  58   2.0000      -0.430059       -11.7025
  59   2.0000      -0.426995       -11.6191
  60   2.0000      -0.424628       -11.5547
  61   2.0000      -0.416069       -11.3218
  62   2.0000      -0.406201       -11.0533
  63   2.0000      -0.350130        -9.5275
  64   2.0000      -0.333884        -9.0854
  65   2.0000      -0.325974        -8.8702
  66   2.0000      -0.289040        -7.8652
  67   0.0000       0.032786         0.8922
  68   0.0000       0.066999         1.8231
  69   0.0000       0.113749         3.0953
  70   0.0000       0.124592         3.3903
  71   0.0000       0.132727         3.6117

MULLIKEN ATOMIC CHARGES
-----------------------
   0 S :    0.114131
   1 C :   -0.108264
   2 C :   -0.111481
   3 C :    0.022816
   4 C :   -0.161880
   5 H :    0.028443
   6 C :    0.057785
   7 H :    0.009045
   8 H :    0.042397
   9 C :   -0.042532
  10 H :    0.025665
  11 H :    0.043307
  12 C :   -0.098955
  13 H :    0.034415
  14 H :    0.042715
  15 H :    0.028176
  16 S :    0.131586
  17 C :   -0.100691
  18 C :   -0.051380
  19 C :   -0.001453
  20 C :   -0.182412
  21 H :    0.014025
  22 C :    0.064572
  23 H :    0.018344
  24 H :    0.018783
  25 C :   -0.078380
  26 H :    0.027154
  27 H :    0.031616
  28 C :   -0.025883
  29 H :    0.036102
  30 H :    0.029304
  31 H :    0.022013
  32 H :    0.051031
  33 H :    0.069888
Sum of atomic charges:    0.0000000

LOEWDIN ATOMIC CHARGES
----------------------
   0 S :    0.426714
   1 C :   -0.217434
   2 C :   -0.059232
   3 C :   -0.067173
   4 C :   -0.198702
   5 H :    0.034905
   6 C :   -0.035937
   7 H :    0.025342
   8 H :    0.032714
   9 C :   -0.032628
  10 H :    0.017105
  11 H :    0.030813
  12 C :   -0.072477
  13 H :    0.023578
  14 H :    0.029132
  15 H :    0.022401
  16 S :    0.438033
  17 C :   -0.214689
  18 C :   -0.075812
  19 C :   -0.054015
  20 C :   -0.201948
  21 H :    0.031963
  22 C :   -0.036894
  23 H :    0.029490
  24 H :    0.031270
  25 C :   -0.038724
  26 H :    0.027276
  27 H :    0.023012
  28 C :   -0.065282
  29 H :    0.035904
  30 H :    0.021785
  31 H :    0.021696
  32 H :    0.026089
  33 H :    0.041726

  Mayer bond orders larger than 0.100000
B(  0-S ,  1-C ) :   1.1732 B(  0-S ,  4-C ) :   1.1513 B(  1-C ,  2-C ) :   1.5627
B(  1-C ,  4-C ) :   0.1012 B(  1-C , 32-H ) :   0.9685 B(  2-C ,  3-C ) :   1.2708
B(  2-C ,  6-C ) :   1.0196 B(  3-C ,  4-C ) :   1.5692 B(  3-C ,  5-H ) :   0.9840
B(  4-C , 20-C ) :   1.0282 B(  6-C ,  7-H ) :   0.9448 B(  6-C ,  8-H ) :   0.9410
B(  6-C ,  9-C ) :   1.0719 B(  9-C , 10-H ) :   0.9564 B(  9-C , 11-H ) :   0.9567
B(  9-C , 12-C ) :   1.0677 B( 12-C , 13-H ) :   0.9775 B( 12-C , 14-H ) :   0.9758
B( 12-C , 15-H ) :   0.9756 B( 16-S , 17-C ) :   1.1615 B( 16-S , 20-C ) :   1.1632
B( 17-C , 18-C ) :   1.6201 B( 17-C , 33-H ) :   0.9543 B( 18-C , 19-C ) :   1.2350
B( 18-C , 21-H ) :   0.9915 B( 19-C , 20-C ) :   1.5730 B( 19-C , 22-C ) :   1.0487
B( 22-C , 23-H ) :   0.9398 B( 22-C , 24-H ) :   0.9277 B( 22-C , 25-C ) :   1.0598
B( 25-C , 26-H ) :   0.9525 B( 25-C , 27-H ) :   0.9600 B( 25-C , 28-C ) :   1.0777
B( 28-C , 29-H ) :   0.9714 B( 28-C , 30-H ) :   0.9749 B( 28-C , 31-H ) :   0.9735

Dispersion correction           -0.015219014
FINAL SINGLE POINT ENERGY     -1339.883099493596

DIPOLE MOMENT
-------------
                                X             Y             Z
Electronic contribution:     10.16888     -15.17303      -2.86242
Nuclear contribution   :    -10.28091      15.63995       2.71094
                        -----------------------------------------
Total Dipole Moment    :     -0.11202       0.46692      -0.15147
                        -----------------------------------------
Magnitude (a.u.)       :      0.50350
Magnitude (Debye)      :      1.27979

Rotational constants in cm-1:     0.020702     0.008723     0.007808
Rotational constants in MHz :   620.645067   261.509159   234.070427

                             ****ORCA TERMINATED NORMALLY****
TOTAL RUN TIME: 0 days 0 hours 0 minutes 33 seconds 481 msec
