                         Program Version 4.2.1 -  RELEASE  -
|  1> ! wB97X-D3 SP def2-SVP
|  2> %pal
|  3> nprocs 16
|  4> end
|  5>
|  6> * xyz 0 1
|  7> S 	 -99.6823 	 38.4735 	 128.063
|  8> C 	 -99.7966 	 37.7939 	 129.581
|  9> C 	 -98.5281 	 37.76 	 130.209
| 10> C 	 -97.5473 	 38.4816 	 129.409
| 11> C 	 -98.0279 	 38.9947 	 128.23
| 12> H 	 -96.4314 	 38.5267 	 129.581
| 13> C 	 -98.1183 	 37.126 	 131.49
| 14> H 	 -98.8857 	 37.3397 	 132.23
| 15> H 	 -97.2264 	 37.5583 	 131.839
| 16> C 	 -97.959 	 35.6036 	 131.344
| 17> H 	 -98.7612 	 35.282 	 130.733
| 18> H 	 -97.1318 	 35.467 	 130.665
| 19> C 	 -97.7172 	 34.9089 	 132.734
| 20> H 	 -98.7005 	 34.7797 	 133.122
| 21> H 	 -97.0661 	 33.9755 	 132.718
| 22> H 	 -97.2927 	 35.6035 	 133.417
| 23> S 	 -95.8865 	 38.9692 	 126.452
| 24> C 	 -95.7829 	 40.2102 	 125.281
| 25> C 	 -96.7737 	 41.211 	 125.482
| 26> C 	 -97.6793 	 40.9107 	 126.52
| 27> C 	 -97.3591 	 39.696 	 127.139
| 28> H 	 -96.772 	 42.051 	 124.787
| 29> C 	 -98.925 	 41.7608 	 126.945
| 30> H 	 -98.687 	 42.1615 	 127.912
| 31> H 	 -99.7056 	 41.0689 	 127.062
| 32> C 	 -99.3702 	 42.9381 	 126.01
| 33> H 	 -98.6436 	 43.6925 	 125.737
| 34> H 	 -100.101 	 43.5131 	 126.639
| 35> C 	 -100.101 	 42.4388 	 124.719
| 36> H 	 -99.4776 	 42.0077 	 123.945
| 37> H 	 -100.501 	 43.3852 	 124.371
| 38> H 	 -100.868 	 41.6442 	 124.962
| 39> H 	 -100.651 	 37.5234 	 130.09
| 40> H 	 -95.0671 	 40.3487 	 124.531
| 41> *
| 42>
| 43>                          ****END OF INPUT****

CARTESIAN COORDINATES (ANGSTROEM)
---------------------------------
  S    -99.682300   38.473500  128.063000
  C    -99.796600   37.793900  129.581000
  C    -98.528100   37.760000  130.209000
  C    -97.547300   38.481600  129.409000
  C    -98.027900   38.994700  128.230000
  H    -96.431400   38.526700  129.581000
  C    -98.118300   37.126000  131.490000
  H    -98.885700   37.339700  132.230000
  H    -97.226400   37.558300  131.839000
  C    -97.959000   35.603600  131.344000
  H    -98.761200   35.282000  130.733000
  H    -97.131800   35.467000  130.665000
  C    -97.717200   34.908900  132.734000
  H    -98.700500   34.779700  133.122000
  H    -97.066100   33.975500  132.718000
  H    -97.292700   35.603500  133.417000
  S    -95.886500   38.969200  126.452000
  C    -95.782900   40.210200  125.281000
  C    -96.773700   41.211000  125.482000
  C    -97.679300   40.910700  126.520000
  C    -97.359100   39.696000  127.139000
  H    -96.772000   42.051000  124.787000
  C    -98.925000   41.760800  126.945000
  H    -98.687000   42.161500  127.912000
  H    -99.705600   41.068900  127.062000
  C    -99.370200   42.938100  126.010000
  H    -98.643600   43.692500  125.737000
  H    -100.101000   43.513100  126.639000
  C    -100.101000   42.438800  124.719000
  H    -99.477600   42.007700  123.945000
  H    -100.501000   43.385200  124.371000
  H    -100.868000   41.644200  124.962000
  H    -100.651000   37.523400  130.090000
  H    -95.067100   40.348700  124.531000

 Total Charge           Charge          ....    0
 Multiplicity           Mult            ....    1
 Number of Electrons    NEL             ....  134
 Basis Dimension        Dim             ....  322

ORBITAL ENERGIES
----------------

  NO   OCC          E(Eh)            E(eV)
   0   2.0000     -88.970554     -2421.0119
   1   2.0000     -88.963545     -2420.8211
   2   2.0000     -10.326053      -280.9862
   3   2.0000     -10.324796      -280.9520
   4   2.0000     -10.314981      -280.6849
   5   2.0000     -10.307556      -280.4829
   6   2.0000     -10.306340      -280.4498
   7   2.0000     -10.301925      -280.3296
   8   2.0000     -10.296175      -280.1732
   9   2.0000     -10.295562      -280.1565
  10   2.0000     -10.294043      -280.1152
  11   2.0000     -10.290104      -280.0080
  12   2.0000     -10.283362      -279.8245
  13   2.0000     -10.280808      -279.7550
  14   2.0000     -10.280321      -279.7418
  15   2.0000     -10.280134      -279.7367
  16   2.0000      -8.084939      -220.0024
  17   2.0000      -8.079527      -219.8551
  18   2.0000      -6.043242      -164.4450
  19   2.0000      -6.039384      -164.3400
  20   2.0000      -6.037923      -164.3002
  21   2.0000      -6.036071      -164.2498
  22   2.0000      -6.033693      -164.1851
  23   2.0000      -6.030497      -164.0982
  24   2.0000      -1.008339       -27.4383
  25   2.0000      -0.985925       -26.8284
  26   2.0000      -0.913461       -24.8565
  27   2.0000      -0.900612       -24.5069
  28   2.0000      -0.868665       -23.6376
  29   2.0000      -0.849453       -23.1148
  30   2.0000      -0.843911       -22.9640
  31   2.0000      -0.811791       -22.0899
  32   2.0000      -0.783161       -21.3109
  33   2.0000      -0.770779       -20.9740
  34   2.0000      -0.709708       -19.3121
  35   2.0000      -0.703030       -19.1304
  36   2.0000      -0.697797       -18.9880
  37   2.0000      -0.659108       -17.9352
  38   2.0000      -0.640321       -17.4240
  39   2.0000      -0.614644       -16.7253
  40   2.0000      -0.593785       -16.1577
  41   2.0000      -0.573669       -15.6103
  42   2.0000      -0.560270       -15.2457
  43   2.0000      -0.549237       -14.9455
  44   2.0000      -0.533559       -14.5189
  45   2.0000      -0.523374       -14.2417
  46   2.0000      -0.517325       -14.0771
  47   2.0000      -0.512767       -13.9531
  48   2.0000      -0.503807       -13.7093
  49   2.0000      -0.500078       -13.6078
  50   2.0000      -0.497645       -13.5416
  51   2.0000      -0.480960       -13.0876
  52   2.0000      -0.470171       -12.7940
  53   2.0000      -0.466443       -12.6926
  54   2.0000      -0.456479       -12.4214
  55   2.0000      -0.451023       -12.2730
  56   2.0000      -0.447031       -12.1643
  57   2.0000      -0.441224       -12.0063
  58   2.0000      -0.435076       -11.8390
  59   2.0000      -0.423355       -11.5201
  60   2.0000      -0.419158       -11.4059
  61   2.0000      -0.413436       -11.2502
  62   2.0000      -0.408338       -11.1114
  63   2.0000      -0.341210        -9.2848
  64   2.0000      -0.335222        -9.1219
  65   2.0000      -0.322499        -8.7757
  66   2.0000      -0.291428        -7.9302
  67   0.0000       0.029530         0.8035
  68   0.0000       0.069416         1.8889
  69   0.0000       0.106502         2.8981
  70   0.0000       0.128766         3.5039
  71   0.0000       0.138686         3.7738

MULLIKEN ATOMIC CHARGES
-----------------------
   0 S :    0.121825
   1 C :   -0.075557
   2 C :   -0.145827
   3 C :    0.003804
   4 C :   -0.167287
   5 H :    0.031771
   6 C :    0.083831
   7 H :    0.018493
   8 H :    0.008309
   9 C :   -0.058063
  10 H :    0.016384
  11 H :    0.012433
  12 C :   -0.022423
  13 H :    0.027030
  14 H :    0.056965
  15 H :    0.020586
  16 S :    0.134433
  17 C :   -0.064065
  18 C :   -0.081429
  19 C :   -0.021658
  20 C :   -0.172825
  21 H :    0.020673
  22 C :    0.132767
  23 H :    0.036380
  24 H :    0.008384
  25 C :   -0.100577
  26 H :    0.032569
  27 H :    0.034657
  28 C :   -0.065300
  29 H :    0.039543
  30 H :    0.035872
  31 H :    0.044785
  32 H :    0.020276
  33 H :    0.033240
Sum of atomic charges:   -0.0000000

LOEWDIN ATOMIC CHARGES
----------------------
   0 S :    0.453283
   1 C :   -0.217759
   2 C :   -0.057826
   3 C :   -0.075370
   4 C :   -0.204971
   5 H :    0.038936
   6 C :   -0.029726
   7 H :    0.027630
   8 H :    0.021774
   9 C :   -0.034525
  10 H :    0.016990
  11 H :    0.020672
  12 C :   -0.064670
  13 H :    0.024749
  14 H :    0.038123
  15 H :    0.020700
  16 S :    0.425920
  17 C :   -0.191571
  18 C :   -0.076588
  19 C :   -0.044272
  20 C :   -0.206989
  21 H :    0.030907
  22 C :   -0.022059
  23 H :    0.034275
  24 H :    0.013928
  25 C :   -0.042950
  26 H :    0.021583
  27 H :    0.032487
  28 C :   -0.068753
  29 H :    0.021998
  30 H :    0.027085
  31 H :    0.032911
  32 H :    0.015189
  33 H :    0.018886

  Mayer bond orders larger than 0.100000
B(  0-S ,  1-C ) :   1.1740 B(  0-S ,  4-C ) :   1.1636 B(  1-C ,  2-C ) :   1.5512
B(  1-C , 32-H ) :   0.9798 B(  2-C ,  3-C ) :   1.2675 B(  2-C ,  6-C ) :   1.0398
B(  3-C ,  4-C ) :   1.5747 B(  3-C ,  5-H ) :   0.9833 B(  4-C , 20-C ) :   1.0327
B(  6-C ,  7-H ) :   0.9386 B(  6-C ,  8-H ) :   0.9342 B(  6-C ,  9-C ) :   1.0551
B(  9-C , 10-H ) :   0.9657 B(  9-C , 11-H ) :   0.9543 B(  9-C , 12-C ) :   1.0500
B( 12-C , 13-H ) :   0.9763 B( 12-C , 14-H ) :   0.9766 B( 12-C , 15-H ) :   0.9741
B( 16-S , 17-C ) :   1.1841 B( 16-S , 20-C ) :   1.1459 B( 17-C , 18-C ) :   1.5720
B( 17-C , 20-C ) :   0.1111 B( 17-C , 33-H ) :   0.9700 B( 18-C , 19-C ) :   1.2836
B( 18-C , 21-H ) :   0.9856 B( 19-C , 20-C ) :   1.5540 B( 19-C , 22-C ) :   1.0081
B( 22-C , 23-H ) :   0.9277 B( 22-C , 24-H ) :   0.9292 B( 22-C , 25-C ) :   1.0810
B( 25-C , 26-H ) :   0.9553 B( 25-C , 27-H ) :   0.9556 B( 25-C , 28-C ) :   1.0643
B( 28-C , 29-H ) :   0.9791 B( 28-C , 30-H ) :   0.9766 B( 28-C , 31-H ) :   0.9755

Dispersion correction           -0.013959444
FINAL SINGLE POINT ENERGY     -1339.867060630543

DIPOLE MOMENT
-------------
                                X             Y             Z
Electronic contribution:      6.51569      -1.30021      -9.55735
Nuclear contribution   :     -6.51803       1.54144       9.74705
                        -----------------------------------------
Total Dipole Moment    :     -0.00234       0.24123       0.18970
                        -----------------------------------------
Magnitude (a.u.)       :      0.30689
Magnitude (Debye)      :      0.78006

Rotational constants in cm-1:     0.026017     0.006897     0.005819
Rotational constants in MHz :   779.967662   206.761007   174.461726

                             ****ORCA TERMINATED NORMALLY****
TOTAL RUN TIME: 0 days 0 hours 0 minutes 30 seconds 487 msec
