                         Program Version 4.2.1 -  RELEASE  -
|  1> ! wB97X-D3 SP def2-SVP
|  2> %pal
|  3> nprocs 16
|  4> end
|  5>
|  6> * xyz 0 1
|  7> S 	 43.9929 	 19.108 	 46.8311
|  8> C 	 42.7133 	 18.0282 	 46.2349
|  9> C 	 42.7448 	 17.8808 	 44.8787
| 10> C 	 43.846 	 18.5862 	 44.3039
| 11> C 	 44.5478 	 19.3692 	 45.1981
| 12> H 	 44.0715 	 18.6196 	 43.2375
| 13> C 	 41.8306 	 16.9536 	 44.0822
| 14> H 	 41.7274 	 16.028 	 44.6272
| 15> H 	 42.361 	 16.6506 	 43.1897
| 16> C 	 40.4355 	 17.4702 	 43.7107
| 17> H 	 40.5823 	 18.5056 	 43.3233
| 18> H 	 39.9095 	 16.9101 	 42.9348
| 19> C 	 39.269 	 17.6449 	 44.7018
| 20> H 	 39.6262 	 18.0247 	 45.6077
| 21> H 	 38.5431 	 18.4034 	 44.4699
| 22> H 	 38.7718 	 16.6268 	 44.9772
| 23> S 	 46.9299 	 20.2368 	 46.1477
| 24> C 	 47.8494 	 21.4352 	 45.3012
| 25> C 	 47.3067 	 21.697 	 44.0887
| 26> C 	 46.1156 	 20.9524 	 43.8886
| 27> C 	 45.6888 	 20.1864 	 44.962
| 28> H 	 47.8122 	 22.5068 	 43.4311
| 29> C 	 45.2715 	 21.2126 	 42.6974
| 30> H 	 45.1138 	 22.2909 	 42.4757
| 31> H 	 44.2438 	 20.9974 	 42.9355
| 32> C 	 45.8983 	 20.6677 	 41.3013
| 33> H 	 46.8199 	 21.1135 	 41.0692
| 34> H 	 45.286 	 21.1381 	 40.4559
| 35> C 	 45.9162 	 19.1624 	 41.2104
| 36> H 	 46.7132 	 18.6867 	 41.8145
| 37> H 	 46.1796 	 18.927 	 40.1269
| 38> H 	 44.8759 	 18.7788 	 41.2198
| 39> H 	 41.9792 	 17.5388 	 46.8942
| 40> H 	 48.783 	 21.8402 	 45.573
| 41> *
| 42>
| 43>                          ****END OF INPUT****

CARTESIAN COORDINATES (ANGSTROEM)
---------------------------------
  S     43.992900   19.108000   46.831100
  C     42.713300   18.028200   46.234900
  C     42.744800   17.880800   44.878700
  C     43.846000   18.586200   44.303900
  C     44.547800   19.369200   45.198100
  H     44.071500   18.619600   43.237500
  C     41.830600   16.953600   44.082200
  H     41.727400   16.028000   44.627200
  H     42.361000   16.650600   43.189700
  C     40.435500   17.470200   43.710700
  H     40.582300   18.505600   43.323300
  H     39.909500   16.910100   42.934800
  C     39.269000   17.644900   44.701800
  H     39.626200   18.024700   45.607700
  H     38.543100   18.403400   44.469900
  H     38.771800   16.626800   44.977200
  S     46.929900   20.236800   46.147700
  C     47.849400   21.435200   45.301200
  C     47.306700   21.697000   44.088700
  C     46.115600   20.952400   43.888600
  C     45.688800   20.186400   44.962000
  H     47.812200   22.506800   43.431100
  C     45.271500   21.212600   42.697400
  H     45.113800   22.290900   42.475700
  H     44.243800   20.997400   42.935500
  C     45.898300   20.667700   41.301300
  H     46.819900   21.113500   41.069200
  H     45.286000   21.138100   40.455900
  C     45.916200   19.162400   41.210400
  H     46.713200   18.686700   41.814500
  H     46.179600   18.927000   40.126900
  H     44.875900   18.778800   41.219800
  H     41.979200   17.538800   46.894200
  H     48.783000   21.840200   45.573000

 Total Charge           Charge          ....    0
 Multiplicity           Mult            ....    1
 Number of Electrons    NEL             ....  134
 Basis Dimension        Dim             ....  322

ORBITAL ENERGIES
----------------

  NO   OCC          E(Eh)            E(eV)
   0   2.0000     -88.967749     -2420.9355
   1   2.0000     -88.962637     -2420.7964
   2   2.0000     -10.329240      -281.0729
   3   2.0000     -10.322949      -280.9017
   4   2.0000     -10.316472      -280.7255
   5   2.0000     -10.309973      -280.5486
   6   2.0000     -10.301902      -280.3290
   7   2.0000     -10.298510      -280.2367
   8   2.0000     -10.296437      -280.1803
   9   2.0000     -10.295396      -280.1520
  10   2.0000     -10.293761      -280.1075
  11   2.0000     -10.293053      -280.0882
  12   2.0000     -10.289646      -279.9955
  13   2.0000     -10.288219      -279.9567
  14   2.0000     -10.285884      -279.8931
  15   2.0000     -10.278161      -279.6830
  16   2.0000      -8.082239      -219.9289
  17   2.0000      -8.078501      -219.8272
  18   2.0000      -6.040770      -164.3777
  19   2.0000      -6.036993      -164.2749
  20   2.0000      -6.036868      -164.2715
  21   2.0000      -6.032898      -164.1635
  22   2.0000      -6.032718      -164.1586
  23   2.0000      -6.029342      -164.0667
  24   2.0000      -1.016247       -27.6535
  25   2.0000      -0.988793       -26.9064
  26   2.0000      -0.911182       -24.7945
  27   2.0000      -0.902651       -24.5624
  28   2.0000      -0.875656       -23.8278
  29   2.0000      -0.852853       -23.2073
  30   2.0000      -0.845814       -23.0158
  31   2.0000      -0.818741       -22.2791
  32   2.0000      -0.788472       -21.4554
  33   2.0000      -0.771304       -20.9882
  34   2.0000      -0.711858       -19.3706
  35   2.0000      -0.699647       -19.0384
  36   2.0000      -0.696863       -18.9626
  37   2.0000      -0.657835       -17.9006
  38   2.0000      -0.637262       -17.3408
  39   2.0000      -0.622221       -16.9315
  40   2.0000      -0.597952       -16.2711
  41   2.0000      -0.572852       -15.5881
  42   2.0000      -0.549091       -14.9415
  43   2.0000      -0.544960       -14.8291
  44   2.0000      -0.543053       -14.7772
  45   2.0000      -0.538757       -14.6603
  46   2.0000      -0.521654       -14.1949
  47   2.0000      -0.516859       -14.0645
  48   2.0000      -0.504649       -13.7322
  49   2.0000      -0.496089       -13.4993
  50   2.0000      -0.488262       -13.2863
  51   2.0000      -0.482616       -13.1327
  52   2.0000      -0.469315       -12.7707
  53   2.0000      -0.467322       -12.7165
  54   2.0000      -0.464578       -12.6418
  55   2.0000      -0.450058       -12.2467
  56   2.0000      -0.444710       -12.1012
  57   2.0000      -0.439192       -11.9510
  58   2.0000      -0.426654       -11.6099
  59   2.0000      -0.417984       -11.3739
  60   2.0000      -0.414606       -11.2820
  61   2.0000      -0.409215       -11.1353
  62   2.0000      -0.403785       -10.9876
  63   2.0000      -0.360749        -9.8165
  64   2.0000      -0.335369        -9.1259
  65   2.0000      -0.327771        -8.9191
  66   2.0000      -0.286203        -7.7880
  67   0.0000       0.023015         0.6263
  68   0.0000       0.081137         2.2079
  69   0.0000       0.107698         2.9306
  70   0.0000       0.119644         3.2557
  71   0.0000       0.133368         3.6291

MULLIKEN ATOMIC CHARGES
-----------------------
   0 S :    0.105784
   1 C :   -0.134304
   2 C :   -0.082167
   3 C :    0.031633
   4 C :   -0.136736
   5 H :   -0.017597
   6 C :    0.110114
   7 H :    0.023559
   8 H :    0.020279
   9 C :   -0.087680
  10 H :    0.027718
  11 H :    0.035947
  12 C :   -0.052464
  13 H :   -0.001237
  14 H :    0.035911
  15 H :    0.037962
  16 S :    0.097318
  17 C :   -0.067580
  18 C :   -0.061555
  19 C :   -0.016405
  20 C :   -0.112157
  21 H :    0.054845
  22 C :   -0.001560
  23 H :    0.026245
  24 H :    0.020368
  25 C :   -0.074161
  26 H :    0.015674
  27 H :    0.026580
  28 C :   -0.061464
  29 H :    0.064516
  30 H :    0.026070
  31 H :    0.052814
  32 H :    0.058310
  33 H :    0.035421
Sum of atomic charges:   -0.0000000

LOEWDIN ATOMIC CHARGES
----------------------
   0 S :    0.396230
   1 C :   -0.186571
   2 C :   -0.064191
   3 C :   -0.061783
   4 C :   -0.189071
   5 H :    0.029494
   6 C :   -0.027511
   7 H :    0.030255
   8 H :    0.034945
   9 C :   -0.049287
  10 H :    0.029018
  11 H :    0.027237
  12 C :   -0.072645
  13 H :    0.010717
  14 H :    0.029564
  15 H :    0.031557
  16 S :    0.419639
  17 C :   -0.183430
  18 C :   -0.078817
  19 C :   -0.067460
  20 C :   -0.206408
  21 H :    0.051876
  22 C :   -0.043722
  23 H :    0.034184
  24 H :    0.026499
  25 C :   -0.039067
  26 H :    0.014211
  27 H :    0.030091
  28 C :   -0.079252
  29 H :    0.036023
  30 H :    0.033475
  31 H :    0.029596
  32 H :    0.032070
  33 H :    0.022539

  Mayer bond orders larger than 0.100000
B(  0-S ,  1-C ) :   1.1247 B(  0-S ,  4-C ) :   1.1416 B(  1-C ,  2-C ) :   1.6275
B(  1-C , 32-H ) :   0.9622 B(  2-C ,  3-C ) :   1.2417 B(  2-C ,  6-C ) :   1.0121
B(  3-C ,  4-C ) :   1.5642 B(  3-C ,  5-H ) :   0.9854 B(  4-C , 20-C ) :   1.0828
B(  6-C ,  7-H ) :   0.9439 B(  6-C ,  8-H ) :   0.9358 B(  6-C ,  9-C ) :   1.0602
B(  9-C , 10-H ) :   0.9550 B(  9-C , 11-H ) :   0.9616 B(  9-C , 12-C ) :   1.0779
B( 12-C , 13-H ) :   0.9702 B( 12-C , 14-H ) :   0.9720 B( 12-C , 15-H ) :   0.9745
B( 16-S , 17-C ) :   1.1564 B( 16-S , 20-C ) :   1.1344 B( 17-C , 18-C ) :   1.6195
B( 17-C , 33-H ) :   0.9704 B( 18-C , 19-C ) :   1.2426 B( 18-C , 21-H ) :   0.9780
B( 19-C , 20-C ) :   1.5657 B( 19-C , 22-C ) :   1.0542 B( 22-C , 23-H ) :   0.9402
B( 22-C , 24-H ) :   0.9449 B( 22-C , 25-C ) :   1.0471 B( 25-C , 26-H ) :   0.9587
B( 25-C , 27-H ) :   0.9558 B( 25-C , 28-C ) :   1.0861 B( 28-C , 29-H ) :   0.9718
B( 28-C , 30-H ) :   0.9639 B( 28-C , 31-H ) :   0.9598

Dispersion correction           -0.014665264
FINAL SINGLE POINT ENERGY     -1339.862110532704

DIPOLE MOMENT
-------------
                                X             Y             Z
Electronic contribution:     16.52956       5.83870      22.52720
Nuclear contribution   :    -16.63979      -5.79023     -23.19335
                        -----------------------------------------
Total Dipole Moment    :     -0.11023       0.04847      -0.66615
                        -----------------------------------------
Magnitude (a.u.)       :      0.67695
Magnitude (Debye)      :      1.72066

Rotational constants in cm-1:     0.020980     0.008692     0.006611
Rotational constants in MHz :   628.976559   260.593265   198.186153

                             ****ORCA TERMINATED NORMALLY****
TOTAL RUN TIME: 0 days 0 hours 0 minutes 35 seconds 396 msec
