                         Program Version 4.2.1 -  RELEASE  -
|  1> ! wB97X-D3 SP def2-SVP
|  2> %pal
|  3> nprocs 16
|  4> end
|  5>
|  6> * xyz 0 1
|  7> S 	 -28.2969 	 -1.62655 	 105.378
|  8> C 	 -28.7036 	 -2.22402 	 106.957
|  9> C 	 -30.0879 	 -2.40321 	 107.029
| 10> C 	 -30.7421 	 -2.00558 	 105.8
| 11> C 	 -29.8993 	 -1.42912 	 104.87
| 12> H 	 -31.7615 	 -2.0482 	 105.504
| 13> C 	 -30.9571 	 -2.85675 	 108.254
| 14> H 	 -31.7798 	 -3.56356 	 107.933
| 15> H 	 -31.3394 	 -1.94728 	 108.516
| 16> C 	 -30.1713 	 -3.60969 	 109.35
| 17> H 	 -29.386 	 -2.98747 	 109.628
| 18> H 	 -30.7037 	 -3.80436 	 110.23
| 19> C 	 -29.6049 	 -4.95567 	 108.967
| 20> H 	 -28.9323 	 -4.82541 	 108.152
| 21> H 	 -28.954 	 -5.27835 	 109.794
| 22> H 	 -30.2864 	 -5.7753 	 108.706
| 23> S 	 -28.8942 	 -0.856297 	 102.533
| 24> C 	 -29.7927 	 0.128706 	 101.37
| 25> C 	 -31.0114 	 0.493396 	 101.873
| 26> C 	 -31.2687 	 0.0553686 	 103.209
| 27> C 	 -30.1951 	 -0.685233 	 103.672
| 28> H 	 -31.6755 	 1.14459 	 101.367
| 29> C 	 -32.6086 	 0.266175 	 103.851
| 30> H 	 -32.8074 	 1.36377 	 103.799
| 31> H 	 -32.3975 	 -0.0125645 	 104.926
| 32> C 	 -33.8959 	 -0.550791 	 103.39
| 33> H 	 -33.7694 	 -1.59771 	 103.406
| 34> H 	 -34.0968 	 -0.292512 	 102.353
| 35> C 	 -35.1475 	 -0.237403 	 104.256
| 36> H 	 -36.0114 	 -0.789303 	 103.925
| 37> H 	 -35.3116 	 0.79915 	 104.048
| 38> H 	 -34.9836 	 -0.24598 	 105.335
| 39> H 	 -28.0225 	 -2.32643 	 107.819
| 40> H 	 -29.4388 	 0.340902 	 100.366
| 41> *
| 42>
| 43>                          ****END OF INPUT****

CARTESIAN COORDINATES (ANGSTROEM)
---------------------------------
  S    -28.296900   -1.626550  105.378000
  C    -28.703600   -2.224020  106.957000
  C    -30.087900   -2.403210  107.029000
  C    -30.742100   -2.005580  105.800000
  C    -29.899300   -1.429120  104.870000
  H    -31.761500   -2.048200  105.504000
  C    -30.957100   -2.856750  108.254000
  H    -31.779800   -3.563560  107.933000
  H    -31.339400   -1.947280  108.516000
  C    -30.171300   -3.609690  109.350000
  H    -29.386000   -2.987470  109.628000
  H    -30.703700   -3.804360  110.230000
  C    -29.604900   -4.955670  108.967000
  H    -28.932300   -4.825410  108.152000
  H    -28.954000   -5.278350  109.794000
  H    -30.286400   -5.775300  108.706000
  S    -28.894200   -0.856297  102.533000
  C    -29.792700    0.128706  101.370000
  C    -31.011400    0.493396  101.873000
  C    -31.268700    0.055369  103.209000
  C    -30.195100   -0.685233  103.672000
  H    -31.675500    1.144590  101.367000
  C    -32.608600    0.266175  103.851000
  H    -32.807400    1.363770  103.799000
  H    -32.397500   -0.012564  104.926000
  C    -33.895900   -0.550791  103.390000
  H    -33.769400   -1.597710  103.406000
  H    -34.096800   -0.292512  102.353000
  C    -35.147500   -0.237403  104.256000
  H    -36.011400   -0.789303  103.925000
  H    -35.311600    0.799150  104.048000
  H    -34.983600   -0.245980  105.335000
  H    -28.022500   -2.326430  107.819000
  H    -29.438800    0.340902  100.366000

 Total Charge           Charge          ....    0
 Multiplicity           Mult            ....    1
 Number of Electrons    NEL             ....  134
 Basis Dimension        Dim             ....  322

ORBITAL ENERGIES
----------------

  NO   OCC          E(Eh)            E(eV)
   0   2.0000     -88.964703     -2420.8526
   1   2.0000     -88.962234     -2420.7855
   2   2.0000     -10.327354      -281.0216
   3   2.0000     -10.323017      -280.9036
   4   2.0000     -10.318336      -280.7762
   5   2.0000     -10.316273      -280.7201
   6   2.0000     -10.308963      -280.5211
   7   2.0000     -10.303956      -280.3849
   8   2.0000     -10.303817      -280.3811
   9   2.0000     -10.294413      -280.1252
  10   2.0000     -10.292458      -280.0720
  11   2.0000     -10.290964      -280.0314
  12   2.0000     -10.289485      -279.9911
  13   2.0000     -10.279029      -279.7066
  14   2.0000     -10.276984      -279.6510
  15   2.0000     -10.271463      -279.5007
  16   2.0000      -8.079929      -219.8660
  17   2.0000      -8.078426      -219.8252
  18   2.0000      -6.038510      -164.3162
  19   2.0000      -6.036977      -164.2745
  20   2.0000      -6.034414      -164.2048
  21   2.0000      -6.032630      -164.1562
  22   2.0000      -6.030526      -164.0990
  23   2.0000      -6.029133      -164.0611
  24   2.0000      -1.016249       -27.6535
  25   2.0000      -0.986369       -26.8405
  26   2.0000      -0.914025       -24.8719
  27   2.0000      -0.904610       -24.6157
  28   2.0000      -0.873820       -23.7778
  29   2.0000      -0.858123       -23.3507
  30   2.0000      -0.845920       -23.0187
  31   2.0000      -0.814621       -22.1670
  32   2.0000      -0.784132       -21.3373
  33   2.0000      -0.773896       -21.0588
  34   2.0000      -0.710391       -19.3307
  35   2.0000      -0.708406       -19.2767
  36   2.0000      -0.694685       -18.9033
  37   2.0000      -0.672414       -18.2973
  38   2.0000      -0.640987       -17.4421
  39   2.0000      -0.608536       -16.5591
  40   2.0000      -0.593563       -16.1517
  41   2.0000      -0.578050       -15.7295
  42   2.0000      -0.564891       -15.3715
  43   2.0000      -0.561756       -15.2862
  44   2.0000      -0.540719       -14.7137
  45   2.0000      -0.530636       -14.4393
  46   2.0000      -0.519824       -14.1451
  47   2.0000      -0.512371       -13.9423
  48   2.0000      -0.505445       -13.7538
  49   2.0000      -0.503204       -13.6929
  50   2.0000      -0.492729       -13.4078
  51   2.0000      -0.480983       -13.0882
  52   2.0000      -0.471297       -12.8246
  53   2.0000      -0.469907       -12.7868
  54   2.0000      -0.457531       -12.4500
  55   2.0000      -0.451867       -12.2959
  56   2.0000      -0.449368       -12.2279
  57   2.0000      -0.444979       -12.1085
  58   2.0000      -0.429454       -11.6860
  59   2.0000      -0.425383       -11.5753
  60   2.0000      -0.421469       -11.4688
  61   2.0000      -0.416843       -11.3429
  62   2.0000      -0.408978       -11.1289
  63   2.0000      -0.359893        -9.7932
  64   2.0000      -0.334039        -9.0897
  65   2.0000      -0.324678        -8.8349
  66   2.0000      -0.285067        -7.7571
  67   0.0000       0.023279         0.6334
  68   0.0000       0.081586         2.2201
  69   0.0000       0.096576         2.6280
  70   0.0000       0.119766         3.2590
  71   0.0000       0.133908         3.6438

MULLIKEN ATOMIC CHARGES
-----------------------
   0 S :    0.101250
   1 C :   -0.130745
   2 C :   -0.116206
   3 C :    0.005662
   4 C :   -0.122934
   5 H :   -0.005458
   6 C :    0.094147
   7 H :    0.043045
   8 H :    0.023968
   9 C :   -0.033009
  10 H :    0.002236
  11 H :    0.016774
  12 C :   -0.054931
  13 H :    0.018794
  14 H :    0.029169
  15 H :    0.038445
  16 S :    0.084305
  17 C :   -0.074132
  18 C :   -0.014283
  19 C :   -0.039461
  20 C :   -0.119303
  21 H :    0.001720
  22 C :   -0.002722
  23 H :    0.038609
  24 H :    0.028067
  25 C :   -0.040454
  26 H :    0.025178
  27 H :    0.024808
  28 C :   -0.036945
  29 H :    0.042112
  30 H :    0.014281
  31 H :    0.035528
  32 H :    0.065151
  33 H :    0.057334
Sum of atomic charges:    0.0000000

LOEWDIN ATOMIC CHARGES
----------------------
   0 S :    0.426699
   1 C :   -0.220646
   2 C :   -0.052446
   3 C :   -0.075494
   4 C :   -0.209207
   5 H :    0.023829
   6 C :   -0.018702
   7 H :    0.038927
   8 H :    0.021281
   9 C :   -0.038202
  10 H :    0.014714
  11 H :    0.020551
  12 C :   -0.063281
  13 H :    0.017564
  14 H :    0.030572
  15 H :    0.026517
  16 S :    0.397981
  17 C :   -0.174344
  18 C :   -0.061627
  19 C :   -0.064528
  20 C :   -0.185564
  21 H :    0.024839
  22 C :   -0.039773
  23 H :    0.036480
  24 H :    0.034404
  25 C :   -0.030051
  26 H :    0.015737
  27 H :    0.023045
  28 C :   -0.062553
  29 H :    0.028076
  30 H :    0.022038
  31 H :    0.026819
  32 H :    0.036747
  33 H :    0.029600

  Mayer bond orders larger than 0.100000
B(  0-S ,  1-C ) :   1.1311 B(  0-S ,  4-C ) :   1.1650 B(  1-C ,  2-C ) :   1.6078
B(  1-C , 32-H ) :   0.9656 B(  2-C ,  3-C ) :   1.2396 B(  2-C ,  6-C ) :   0.9773
B(  3-C ,  4-C ) :   1.5655 B(  3-C ,  5-H ) :   1.0042 B(  4-C , 20-C ) :   1.0437
B(  6-C ,  7-H ) :   0.9511 B(  6-C ,  8-H ) :   0.9404 B(  6-C ,  9-C ) :   1.0801
B(  9-C , 10-H ) :   0.9457 B(  9-C , 11-H ) :   0.9543 B(  9-C , 12-C ) :   1.0873
B( 12-C , 13-H ) :   0.9735 B( 12-C , 14-H ) :   0.9713 B( 12-C , 15-H ) :   0.9750
B( 16-S , 17-C ) :   1.1308 B( 16-S , 20-C ) :   1.1408 B( 17-C , 18-C ) :   1.6233
B( 17-C , 33-H ) :   0.9707 B( 18-C , 19-C ) :   1.2210 B( 18-C , 21-H ) :   0.9932
B( 19-C , 20-C ) :   1.6041 B( 19-C , 22-C ) :   1.0542 B( 22-C , 23-H ) :   0.9296
B( 22-C , 24-H ) :   0.9334 B( 22-C , 25-C ) :   1.0505 B( 25-C , 26-H ) :   0.9603
B( 25-C , 27-H ) :   0.9542 B( 25-C , 28-C ) :   1.0742 B( 28-C , 29-H ) :   0.9737
B( 28-C , 30-H ) :   0.9756 B( 28-C , 31-H ) :   0.9772

Dispersion correction           -0.013823018
FINAL SINGLE POINT ENERGY     -1339.864049791729

DIPOLE MOMENT
-------------
                                X             Y             Z
Electronic contribution:     21.65401       6.24881     -15.82156
Nuclear contribution   :    -22.31893      -6.14340      16.02146
                        -----------------------------------------
Total Dipole Moment    :     -0.66492       0.10541       0.19989
                        -----------------------------------------
Magnitude (a.u.)       :      0.70227
Magnitude (Debye)      :      1.78504

Rotational constants in cm-1:     0.018831     0.008512     0.006097
Rotational constants in MHz :   564.537921   255.182508   182.768725

                             ****ORCA TERMINATED NORMALLY****
TOTAL RUN TIME: 0 days 0 hours 0 minutes 29 seconds 182 msec
