                         Program Version 4.2.1 -  RELEASE  -
|  1> ! wB97X-D3 SP def2-SVP
|  2> %pal
|  3> nprocs 16
|  4> end
|  5>
|  6> * xyz 0 1
|  7> S 	 -36.5204 	 58.6564 	 108.951
|  8> C 	 -37.6642 	 57.3308 	 108.93
|  9> C 	 -37.6719 	 56.6968 	 107.725
| 10> C 	 -36.7621 	 57.3439 	 106.79
| 11> C 	 -36.196 	 58.5299 	 107.225
| 12> H 	 -36.5697 	 57.0612 	 105.788
| 13> C 	 -38.4083 	 55.4078 	 107.402
| 14> H 	 -37.7657 	 54.9103 	 106.691
| 15> H 	 -39.2954 	 55.7768 	 106.907
| 16> C 	 -38.6677 	 54.4536 	 108.518
| 17> H 	 -38.9123 	 54.9611 	 109.426
| 18> H 	 -39.5749 	 53.8045 	 108.366
| 19> C 	 -37.4357 	 53.6334 	 108.816
| 20> H 	 -36.5357 	 54.245 	 109.043
| 21> H 	 -37.4938 	 52.816 	 109.641
| 22> H 	 -37.3515 	 53.0587 	 107.877
| 23> S 	 -33.8522 	 59.7947 	 107.458
| 24> C 	 -33.0482 	 60.617 	 106.067
| 25> C 	 -33.9049 	 60.4915 	 104.984
| 26> C 	 -35.1949 	 59.8797 	 105.263
| 27> C 	 -35.2831 	 59.3934 	 106.526
| 28> H 	 -33.6398 	 60.9267 	 104.024
| 29> C 	 -36.251 	 59.794 	 104.151
| 30> H 	 -36.3266 	 60.79 	 103.74
| 31> H 	 -37.2351 	 59.6753 	 104.6
| 32> C 	 -35.9116 	 58.7557 	 103.185
| 33> H 	 -35.877 	 57.8207 	 103.687
| 34> H 	 -34.9793 	 58.9103 	 102.544
| 35> C 	 -36.8964 	 58.8002 	 101.965
| 36> H 	 -36.8989 	 59.7502 	 101.446
| 37> H 	 -37.9022 	 58.5422 	 102.32
| 38> H 	 -36.642 	 57.9869 	 101.292
| 39> H 	 -38.1197 	 56.9513 	 109.834
| 40> H 	 -32.0727 	 61.1368 	 106.05
| 41> *
| 42>
| 43>                          ****END OF INPUT****

CARTESIAN COORDINATES (ANGSTROEM)
---------------------------------
  S    -36.520400   58.656400  108.951000
  C    -37.664200   57.330800  108.930000
  C    -37.671900   56.696800  107.725000
  C    -36.762100   57.343900  106.790000
  C    -36.196000   58.529900  107.225000
  H    -36.569700   57.061200  105.788000
  C    -38.408300   55.407800  107.402000
  H    -37.765700   54.910300  106.691000
  H    -39.295400   55.776800  106.907000
  C    -38.667700   54.453600  108.518000
  H    -38.912300   54.961100  109.426000
  H    -39.574900   53.804500  108.366000
  C    -37.435700   53.633400  108.816000
  H    -36.535700   54.245000  109.043000
  H    -37.493800   52.816000  109.641000
  H    -37.351500   53.058700  107.877000
  S    -33.852200   59.794700  107.458000
  C    -33.048200   60.617000  106.067000
  C    -33.904900   60.491500  104.984000
  C    -35.194900   59.879700  105.263000
  C    -35.283100   59.393400  106.526000
  H    -33.639800   60.926700  104.024000
  C    -36.251000   59.794000  104.151000
  H    -36.326600   60.790000  103.740000
  H    -37.235100   59.675300  104.600000
  C    -35.911600   58.755700  103.185000
  H    -35.877000   57.820700  103.687000
  H    -34.979300   58.910300  102.544000
  C    -36.896400   58.800200  101.965000
  H    -36.898900   59.750200  101.446000
  H    -37.902200   58.542200  102.320000
  H    -36.642000   57.986900  101.292000
  H    -38.119700   56.951300  109.834000
  H    -32.072700   61.136800  106.050000

 Total Charge           Charge          ....    0
 Multiplicity           Mult            ....    1
 Number of Electrons    NEL             ....  134
 Basis Dimension        Dim             ....  322

ORBITAL ENERGIES
----------------

  NO   OCC          E(Eh)            E(eV)
   0   2.0000     -88.962200     -2420.7845
   1   2.0000     -88.960413     -2420.7359
   2   2.0000     -10.331080      -281.1230
   3   2.0000     -10.326403      -280.9957
   4   2.0000     -10.326178      -280.9896
   5   2.0000     -10.312274      -280.6112
   6   2.0000     -10.303567      -280.3743
   7   2.0000     -10.303476      -280.3718
   8   2.0000     -10.298306      -280.2312
   9   2.0000     -10.295210      -280.1469
  10   2.0000     -10.291686      -280.0510
  11   2.0000     -10.289090      -279.9804
  12   2.0000     -10.288618      -279.9675
  13   2.0000     -10.287455      -279.9359
  14   2.0000     -10.286792      -279.9178
  15   2.0000     -10.279457      -279.7183
  16   2.0000      -8.076977      -219.7857
  17   2.0000      -8.074711      -219.7241
  18   2.0000      -6.035634      -164.2379
  19   2.0000      -6.033548      -164.1812
  20   2.0000      -6.031491      -164.1252
  21   2.0000      -6.029236      -164.0639
  22   2.0000      -6.027560      -164.0182
  23   2.0000      -6.025155      -163.9528
  24   2.0000      -1.007390       -27.4125
  25   2.0000      -0.982047       -26.7229
  26   2.0000      -0.923689       -25.1348
  27   2.0000      -0.917614       -24.9696
  28   2.0000      -0.873420       -23.7670
  29   2.0000      -0.849472       -23.1153
  30   2.0000      -0.841371       -22.8949
  31   2.0000      -0.815747       -22.1976
  32   2.0000      -0.780237       -21.2313
  33   2.0000      -0.775493       -21.1022
  34   2.0000      -0.710905       -19.3447
  35   2.0000      -0.702215       -19.1082
  36   2.0000      -0.696062       -18.9408
  37   2.0000      -0.668169       -18.1818
  38   2.0000      -0.642011       -17.4700
  39   2.0000      -0.609796       -16.5934
  40   2.0000      -0.594682       -16.1821
  41   2.0000      -0.579374       -15.7656
  42   2.0000      -0.574331       -15.6283
  43   2.0000      -0.567265       -15.4361
  44   2.0000      -0.538678       -14.6582
  45   2.0000      -0.534915       -14.5558
  46   2.0000      -0.518625       -14.1125
  47   2.0000      -0.513298       -13.9675
  48   2.0000      -0.511304       -13.9133
  49   2.0000      -0.500800       -13.6275
  50   2.0000      -0.493835       -13.4379
  51   2.0000      -0.476836       -12.9754
  52   2.0000      -0.469894       -12.7865
  53   2.0000      -0.464843       -12.6490
  54   2.0000      -0.460185       -12.5223
  55   2.0000      -0.448562       -12.2060
  56   2.0000      -0.446131       -12.1399
  57   2.0000      -0.439315       -11.9544
  58   2.0000      -0.434038       -11.8108
  59   2.0000      -0.425121       -11.5681
  60   2.0000      -0.417667       -11.3653
  61   2.0000      -0.410932       -11.1820
  62   2.0000      -0.400557       -10.8997
  63   2.0000      -0.354966        -9.6591
  64   2.0000      -0.328214        -8.9312
  65   2.0000      -0.324861        -8.8399
  66   2.0000      -0.294916        -8.0251
  67   0.0000       0.026409         0.7186
  68   0.0000       0.076774         2.0891
  69   0.0000       0.101153         2.7525
  70   0.0000       0.127759         3.4765
  71   0.0000       0.133251         3.6259

MULLIKEN ATOMIC CHARGES
-----------------------
   0 S :    0.094417
   1 C :   -0.124226
   2 C :   -0.115541
   3 C :    0.040423
   4 C :   -0.136735
   5 H :   -0.021833
   6 C :    0.114925
   7 H :    0.018175
   8 H :    0.044620
   9 C :   -0.055490
  10 H :    0.012008
  11 H :    0.036406
  12 C :   -0.109905
  13 H :    0.058076
  14 H :    0.048363
  15 H :    0.030391
  16 S :    0.074032
  17 C :   -0.098640
  18 C :   -0.033360
  19 C :   -0.073461
  20 C :   -0.120973
  21 H :    0.020154
  22 C :    0.108186
  23 H :    0.014556
  24 H :    0.023736
  25 C :   -0.096170
  26 H :    0.026717
  27 H :    0.043160
  28 C :   -0.040248
  29 H :    0.040093
  30 H :    0.019698
  31 H :    0.031807
  32 H :    0.050793
  33 H :    0.075847
Sum of atomic charges:   -0.0000000

LOEWDIN ATOMIC CHARGES
----------------------
   0 S :    0.391558
   1 C :   -0.195379
   2 C :   -0.061681
   3 C :   -0.058306
   4 C :   -0.187663
   5 H :    0.019184
   6 C :   -0.027185
   7 H :    0.029991
   8 H :    0.038660
   9 C :   -0.049454
  10 H :    0.014814
  11 H :    0.033972
  12 C :   -0.075459
  13 H :    0.032048
  14 H :    0.034381
  15 H :    0.025424
  16 S :    0.373300
  17 C :   -0.173559
  18 C :   -0.066989
  19 C :   -0.057552
  20 C :   -0.190290
  21 H :    0.029250
  22 C :   -0.030744
  23 H :    0.030427
  24 H :    0.032891
  25 C :   -0.041932
  26 H :    0.018221
  27 H :    0.036742
  28 C :   -0.062461
  29 H :    0.024900
  30 H :    0.019421
  31 H :    0.024600
  32 H :    0.026756
  33 H :    0.042116

  Mayer bond orders larger than 0.100000
B(  0-S ,  1-C ) :   1.1279 B(  0-S ,  4-C ) :   1.1357 B(  1-C ,  2-C ) :   1.6307
B(  1-C , 32-H ) :   0.9651 B(  2-C ,  3-C ) :   1.2254 B(  2-C ,  6-C ) :   0.9924
B(  3-C ,  4-C ) :   1.5832 B(  3-C ,  5-H ) :   0.9994 B(  4-C , 20-C ) :   1.0520
B(  6-C ,  7-H ) :   0.9474 B(  6-C ,  8-H ) :   0.9230 B(  6-C ,  9-C ) :   1.0770
B(  9-C , 10-H ) :   0.9521 B(  9-C , 11-H ) :   0.9510 B(  9-C , 12-C ) :   1.0633
B( 12-C , 13-H ) :   0.9762 B( 12-C , 14-H ) :   0.9746 B( 12-C , 15-H ) :   0.9751
B( 16-S , 17-C ) :   1.1225 B( 16-S , 20-C ) :   1.1162 B( 17-C , 18-C ) :   1.6381
B( 17-C , 33-H ) :   0.9673 B( 18-C , 19-C ) :   1.2073 B( 18-C , 21-H ) :   0.9841
B( 19-C , 20-C ) :   1.6489 B( 19-C , 22-C ) :   1.0385 B( 22-C , 23-H ) :   0.9286
B( 22-C , 24-H ) :   0.9306 B( 22-C , 25-C ) :   1.0728 B( 25-C , 26-H ) :   0.9520
B( 25-C , 27-H ) :   0.9570 B( 25-C , 28-C ) :   1.0709 B( 28-C , 29-H ) :   0.9772
B( 28-C , 30-H ) :   0.9729 B( 28-C , 31-H ) :   0.9763

Dispersion correction           -0.013981696
FINAL SINGLE POINT ENERGY     -1339.869966522440

DIPOLE MOMENT
-------------
                                X             Y             Z
Electronic contribution:     12.25470      17.25315      15.96486
Nuclear contribution   :    -12.50247     -17.59652     -16.60225
                        -----------------------------------------
Total Dipole Moment    :     -0.24777      -0.34337      -0.63740
                        -----------------------------------------
Magnitude (a.u.)       :      0.76523
Magnitude (Debye)      :      1.94505

Rotational constants in cm-1:     0.018830     0.008449     0.006407
Rotational constants in MHz :   564.508349   253.294254   192.068372

                             ****ORCA TERMINATED NORMALLY****
TOTAL RUN TIME: 0 days 0 hours 0 minutes 30 seconds 0 msec
