                         Program Version 4.2.1 -  RELEASE  -
|  1> ! wB97X-D3 SP def2-SVP
|  2> %pal
|  3> nprocs 16
|  4> end
|  5>
|  6> * xyz 0 1
|  7> S 	 16.7404 	 0.178376 	 65.2553
|  8> C 	 15.2915 	 0.730927 	 64.4768
|  9> C 	 15.4911 	 1.79334 	 63.6881
| 10> C 	 16.7857 	 2.36063 	 63.8843
| 11> C 	 17.6241 	 1.58248 	 64.6719
| 12> H 	 17.1186 	 3.3325 	 63.5583
| 13> C 	 14.4535 	 2.45818 	 62.8163
| 14> H 	 14.1012 	 1.78626 	 61.9599
| 15> H 	 15.0503 	 3.21691 	 62.2567
| 16> C 	 13.4476 	 3.36347 	 63.5181
| 17> H 	 12.6467 	 3.56136 	 62.857
| 18> H 	 13.0727 	 2.68473 	 64.2881
| 19> C 	 13.9735 	 4.5371 	 64.2664
| 20> H 	 14.2721 	 5.34429 	 63.6542
| 21> H 	 13.2739 	 4.95296 	 64.9512
| 22> H 	 14.8463 	 4.37833 	 64.891
| 23> S 	 20.0396 	 0.488029 	 65.4346
| 24> C 	 21.3098 	 1.57464 	 65.9706
| 25> C 	 20.9714 	 2.87214 	 65.9646
| 26> C 	 19.5984 	 3.01877 	 65.5677
| 27> C 	 18.9737 	 1.83771 	 65.1428
| 28> H 	 21.6106 	 3.7301 	 66.3011
| 29> C 	 18.9459 	 4.31849 	 65.7899
| 30> H 	 18.4028 	 4.42969 	 64.87
| 31> H 	 19.6555 	 5.12786 	 65.8379
| 32> C 	 17.8806 	 4.38768 	 66.9073
| 33> H 	 17.2058 	 3.56431 	 66.7682
| 34> H 	 17.2568 	 5.24396 	 66.7865
| 35> C 	 18.4383 	 4.35892 	 68.3985
| 36> H 	 17.6377 	 4.16833 	 69.0749
| 37> H 	 18.9687 	 5.31394 	 68.7945
| 38> H 	 19.1398 	 3.48151 	 68.3766
| 39> H 	 14.3698 	 0.173175 	 64.6891
| 40> H 	 22.1668 	 1.25546 	 66.4245
| 41> *
| 42>
| 43>                          ****END OF INPUT****

CARTESIAN COORDINATES (ANGSTROEM)
---------------------------------
  S     16.740400    0.178376   65.255300
  C     15.291500    0.730927   64.476800
  C     15.491100    1.793340   63.688100
  C     16.785700    2.360630   63.884300
  C     17.624100    1.582480   64.671900
  H     17.118600    3.332500   63.558300
  C     14.453500    2.458180   62.816300
  H     14.101200    1.786260   61.959900
  H     15.050300    3.216910   62.256700
  C     13.447600    3.363470   63.518100
  H     12.646700    3.561360   62.857000
  H     13.072700    2.684730   64.288100
  C     13.973500    4.537100   64.266400
  H     14.272100    5.344290   63.654200
  H     13.273900    4.952960   64.951200
  H     14.846300    4.378330   64.891000
  S     20.039600    0.488029   65.434600
  C     21.309800    1.574640   65.970600
  C     20.971400    2.872140   65.964600
  C     19.598400    3.018770   65.567700
  C     18.973700    1.837710   65.142800
  H     21.610600    3.730100   66.301100
  C     18.945900    4.318490   65.789900
  H     18.402800    4.429690   64.870000
  H     19.655500    5.127860   65.837900
  C     17.880600    4.387680   66.907300
  H     17.205800    3.564310   66.768200
  H     17.256800    5.243960   66.786500
  C     18.438300    4.358920   68.398500
  H     17.637700    4.168330   69.074900
  H     18.968700    5.313940   68.794500
  H     19.139800    3.481510   68.376600
  H     14.369800    0.173175   64.689100
  H     22.166800    1.255460   66.424500

 Total Charge           Charge          ....    0
 Multiplicity           Mult            ....    1
 Number of Electrons    NEL             ....  134
 Basis Dimension        Dim             ....  322

ORBITAL ENERGIES
----------------

  NO   OCC          E(Eh)            E(eV)
   0   2.0000     -88.965758     -2420.8813
   1   2.0000     -88.963934     -2420.8317
   2   2.0000     -10.331315      -281.1294
   3   2.0000     -10.326546      -280.9996
   4   2.0000     -10.312255      -280.6107
   5   2.0000     -10.308626      -280.5120
   6   2.0000     -10.299546      -280.2649
   7   2.0000     -10.298587      -280.2388
   8   2.0000     -10.297016      -280.1961
   9   2.0000     -10.296091      -280.1709
  10   2.0000     -10.294162      -280.1184
  11   2.0000     -10.284368      -279.8519
  12   2.0000     -10.284121      -279.8452
  13   2.0000     -10.283691      -279.8335
  14   2.0000     -10.283487      -279.8279
  15   2.0000     -10.270430      -279.4726
  16   2.0000      -8.080666      -219.8861
  17   2.0000      -8.079332      -219.8498
  18   2.0000      -6.039268      -164.3368
  19   2.0000      -6.037849      -164.2982
  20   2.0000      -6.035246      -164.2274
  21   2.0000      -6.033760      -164.1870
  22   2.0000      -6.031236      -164.1183
  23   2.0000      -6.030031      -164.0855
  24   2.0000      -1.011451       -27.5230
  25   2.0000      -0.990292       -26.9472
  26   2.0000      -0.918839       -25.0029
  27   2.0000      -0.907846       -24.7038
  28   2.0000      -0.876721       -23.8568
  29   2.0000      -0.851222       -23.1629
  30   2.0000      -0.842782       -22.9333
  31   2.0000      -0.819469       -22.2989
  32   2.0000      -0.788118       -21.4458
  33   2.0000      -0.772698       -21.0262
  34   2.0000      -0.712552       -19.3895
  35   2.0000      -0.709336       -19.3020
  36   2.0000      -0.690782       -18.7971
  37   2.0000      -0.668753       -18.1977
  38   2.0000      -0.643918       -17.5219
  39   2.0000      -0.614844       -16.7307
  40   2.0000      -0.592943       -16.1348
  41   2.0000      -0.578791       -15.7497
  42   2.0000      -0.554358       -15.0848
  43   2.0000      -0.552533       -15.0352
  44   2.0000      -0.546884       -14.8815
  45   2.0000      -0.539746       -14.6872
  46   2.0000      -0.518406       -14.1065
  47   2.0000      -0.507872       -13.8199
  48   2.0000      -0.506356       -13.7787
  49   2.0000      -0.498720       -13.5709
  50   2.0000      -0.488762       -13.2999
  51   2.0000      -0.486827       -13.2472
  52   2.0000      -0.472873       -12.8675
  53   2.0000      -0.466757       -12.7011
  54   2.0000      -0.459370       -12.5001
  55   2.0000      -0.450434       -12.2569
  56   2.0000      -0.448418       -12.2021
  57   2.0000      -0.442723       -12.0471
  58   2.0000      -0.432950       -11.7812
  59   2.0000      -0.426441       -11.6041
  60   2.0000      -0.422474       -11.4961
  61   2.0000      -0.409109       -11.1324
  62   2.0000      -0.398491       -10.8435
  63   2.0000      -0.358589        -9.7577
  64   2.0000      -0.335263        -9.1230
  65   2.0000      -0.329220        -8.9585
  66   2.0000      -0.284403        -7.7390
  67   0.0000       0.024274         0.6605
  68   0.0000       0.074180         2.0185
  69   0.0000       0.104049         2.8313
  70   0.0000       0.118688         3.2297
  71   0.0000       0.132801         3.6137

MULLIKEN ATOMIC CHARGES
-----------------------
   0 S :    0.096349
   1 C :   -0.150616
   2 C :   -0.058162
   3 C :    0.007756
   4 C :   -0.134954
   5 H :    0.008933
   6 C :    0.021929
   7 H :    0.058300
   8 H :    0.008515
   9 C :   -0.008445
  10 H :    0.025866
  11 H :    0.012978
  12 C :   -0.026719
  13 H :    0.013178
  14 H :    0.024392
  15 H :    0.025216
  16 S :    0.097498
  17 C :   -0.041005
  18 C :   -0.033595
  19 C :   -0.095406
  20 C :   -0.129624
  21 H :    0.040659
  22 C :    0.098115
  23 H :    0.000803
  24 H :    0.011276
  25 C :   -0.046088
  26 H :    0.033081
  27 H :    0.020075
  28 C :   -0.086821
  29 H :    0.033767
  30 H :    0.045847
  31 H :    0.046684
  32 H :    0.060087
  33 H :    0.020133
Sum of atomic charges:   -0.0000000

LOEWDIN ATOMIC CHARGES
----------------------
   0 S :    0.398572
   1 C :   -0.190050
   2 C :   -0.072753
   3 C :   -0.060936
   4 C :   -0.186942
   5 H :    0.026549
   6 C :   -0.042243
   7 H :    0.044728
   8 H :    0.028489
   9 C :   -0.036985
  10 H :    0.023012
  11 H :    0.024057
  12 C :   -0.063799
  13 H :    0.018342
  14 H :    0.028121
  15 H :    0.029295
  16 S :    0.400987
  17 C :   -0.163421
  18 C :   -0.071644
  19 C :   -0.057314
  20 C :   -0.206013
  21 H :    0.045259
  22 C :   -0.034133
  23 H :    0.030014
  24 H :    0.025669
  25 C :   -0.029905
  26 H :    0.024852
  27 H :    0.017116
  28 C :   -0.075545
  29 H :    0.020180
  30 H :    0.032568
  31 H :    0.031766
  32 H :    0.031513
  33 H :    0.010594

  Mayer bond orders larger than 0.100000
B(  0-S ,  1-C ) :   1.1404 B(  0-S ,  4-C ) :   1.1414 B(  1-C ,  2-C ) :   1.6203
B(  1-C , 32-H ) :   0.9700 B(  2-C ,  3-C ) :   1.2275 B(  2-C ,  6-C ) :   1.0174
B(  3-C ,  4-C ) :   1.5847 B(  3-C ,  5-H ) :   0.9930 B(  4-C , 20-C ) :   1.0635
B(  6-C ,  7-H ) :   0.9421 B(  6-C ,  8-H ) :   0.9382 B(  6-C ,  9-C ) :   1.0597
B(  9-C , 10-H ) :   0.9544 B(  9-C , 11-H ) :   0.9550 B(  9-C , 12-C ) :   1.0852
B( 12-C , 13-H ) :   0.9691 B( 12-C , 14-H ) :   0.9678 B( 12-C , 15-H ) :   0.9681
B( 16-S , 17-C ) :   1.1492 B( 16-S , 20-C ) :   1.1226 B( 17-C , 18-C ) :   1.6187
B( 17-C , 33-H ) :   0.9721 B( 18-C , 19-C ) :   1.2448 B( 18-C , 21-H ) :   0.9823
B( 19-C , 20-C ) :   1.5805 B( 19-C , 22-C ) :   1.0507 B( 22-C , 23-H ) :   0.9159
B( 22-C , 24-H ) :   0.9337 B( 22-C , 25-C ) :   1.0768 B( 25-C , 26-H ) :   0.9530
B( 25-C , 27-H ) :   0.9550 B( 25-C , 28-C ) :   1.0628 B( 28-C , 29-H ) :   0.9760
B( 28-C , 30-H ) :   0.9765 B( 28-C , 31-H ) :   0.9779

Dispersion correction           -0.015882336
FINAL SINGLE POINT ENERGY     -1339.865936561192

DIPOLE MOMENT
-------------
                                X             Y             Z
Electronic contribution:     14.45193     -23.49467      -3.07296
Nuclear contribution   :    -14.78527      24.13452       3.15358
                        -----------------------------------------
Total Dipole Moment    :     -0.33334       0.63986       0.08062
                        -----------------------------------------
Magnitude (a.u.)       :      0.72597
Magnitude (Debye)      :      1.84527

Rotational constants in cm-1:     0.020606     0.009562     0.007485
Rotational constants in MHz :   617.742903   286.672777   224.392960

                             ****ORCA TERMINATED NORMALLY****
TOTAL RUN TIME: 0 days 0 hours 0 minutes 37 seconds 630 msec
