                         Program Version 4.2.1 -  RELEASE  -
|  1> ! wB97X-D3 SP def2-SVP
|  2> %pal
|  3> nprocs 16
|  4> end
|  5>
|  6> * xyz 0 1
|  7> S 	 9.47694 	 -15.859 	 56.8608
|  8> C 	 8.28668 	 -15.535 	 58.0991
|  9> C 	 7.05878 	 -16.1381 	 57.787
| 10> C 	 7.0136 	 -16.6533 	 56.4658
| 11> C 	 8.2249 	 -16.5841 	 55.7934
| 12> H 	 6.07287 	 -16.9718 	 55.9736
| 13> C 	 5.83758 	 -16.0332 	 58.7051
| 14> H 	 5.01416 	 -15.7282 	 58.1637
| 15> H 	 5.99596 	 -15.3155 	 59.4099
| 16> C 	 5.4411 	 -17.4303 	 59.3268
| 17> H 	 4.37914 	 -17.3666 	 59.7742
| 18> H 	 5.39193 	 -18.174 	 58.5007
| 19> C 	 6.38047 	 -17.9541 	 60.3444
| 20> H 	 7.53403 	 -18.1769 	 60.0771
| 21> H 	 6.50024 	 -17.3647 	 61.2624
| 22> H 	 5.88765 	 -18.8861 	 60.7159
| 23> S 	 8.57814 	 -15.535 	 53.345
| 24> C 	 8.76068 	 -16.6305 	 51.9577
| 25> C 	 8.45381 	 -17.9574 	 52.3318
| 26> C 	 8.20257 	 -18.0844 	 53.7481
| 27> C 	 8.45506 	 -16.9046 	 54.3934
| 28> H 	 8.55627 	 -18.76 	 51.6232
| 29> C 	 7.86364 	 -19.4361 	 54.387
| 30> H 	 8.28936 	 -19.388 	 55.3838
| 31> H 	 8.49067 	 -20.2083 	 53.8963
| 32> C 	 6.39297 	 -19.8447 	 54.4362
| 33> H 	 6.01262 	 -20.0509 	 53.4924
| 34> H 	 5.83533 	 -19.0345 	 54.8264
| 35> C 	 6.10447 	 -21.0064 	 55.3549
| 36> H 	 6.54664 	 -20.8156 	 56.3125
| 37> H 	 6.55097 	 -21.8464 	 54.8509
| 38> H 	 5.08667 	 -21.2274 	 55.5608
| 39> H 	 8.55794 	 -14.9443 	 59.0035
| 40> H 	 9.0071 	 -16.3789 	 50.9046
| 41> *
| 42>
| 43>                          ****END OF INPUT****

CARTESIAN COORDINATES (ANGSTROEM)
---------------------------------
  S      9.476940  -15.859000   56.860800
  C      8.286680  -15.535000   58.099100
  C      7.058780  -16.138100   57.787000
  C      7.013600  -16.653300   56.465800
  C      8.224900  -16.584100   55.793400
  H      6.072870  -16.971800   55.973600
  C      5.837580  -16.033200   58.705100
  H      5.014160  -15.728200   58.163700
  H      5.995960  -15.315500   59.409900
  C      5.441100  -17.430300   59.326800
  H      4.379140  -17.366600   59.774200
  H      5.391930  -18.174000   58.500700
  C      6.380470  -17.954100   60.344400
  H      7.534030  -18.176900   60.077100
  H      6.500240  -17.364700   61.262400
  H      5.887650  -18.886100   60.715900
  S      8.578140  -15.535000   53.345000
  C      8.760680  -16.630500   51.957700
  C      8.453810  -17.957400   52.331800
  C      8.202570  -18.084400   53.748100
  C      8.455060  -16.904600   54.393400
  H      8.556270  -18.760000   51.623200
  C      7.863640  -19.436100   54.387000
  H      8.289360  -19.388000   55.383800
  H      8.490670  -20.208300   53.896300
  C      6.392970  -19.844700   54.436200
  H      6.012620  -20.050900   53.492400
  H      5.835330  -19.034500   54.826400
  C      6.104470  -21.006400   55.354900
  H      6.546640  -20.815600   56.312500
  H      6.550970  -21.846400   54.850900
  H      5.086670  -21.227400   55.560800
  H      8.557940  -14.944300   59.003500
  H      9.007100  -16.378900   50.904600

 Total Charge           Charge          ....    0
 Multiplicity           Mult            ....    1
 Number of Electrons    NEL             ....  134
 Basis Dimension        Dim             ....  322

ORBITAL ENERGIES
----------------

  NO   OCC          E(Eh)            E(eV)
   0   2.0000     -88.966578     -2420.9037
   1   2.0000     -88.965716     -2420.8802
   2   2.0000     -10.330334      -281.1027
   3   2.0000     -10.322896      -280.9003
   4   2.0000     -10.320656      -280.8393
   5   2.0000     -10.320087      -280.8239
   6   2.0000     -10.303549      -280.3738
   7   2.0000     -10.303067      -280.3607
   8   2.0000     -10.298700      -280.2419
   9   2.0000     -10.297660      -280.2136
  10   2.0000     -10.296031      -280.1692
  11   2.0000     -10.292264      -280.0667
  12   2.0000     -10.285825      -279.8915
  13   2.0000     -10.281386      -279.7707
  14   2.0000     -10.275204      -279.6025
  15   2.0000     -10.268830      -279.4291
  16   2.0000      -8.081149      -219.8992
  17   2.0000      -8.079763      -219.8615
  18   2.0000      -6.039758      -164.3502
  19   2.0000      -6.038238      -164.3088
  20   2.0000      -6.035792      -164.2423
  21   2.0000      -6.034332      -164.2025
  22   2.0000      -6.031684      -164.1305
  23   2.0000      -6.030641      -164.1021
  24   2.0000      -1.003947       -27.3188
  25   2.0000      -0.978893       -26.6370
  26   2.0000      -0.912483       -24.8299
  27   2.0000      -0.907957       -24.7068
  28   2.0000      -0.865391       -23.5485
  29   2.0000      -0.854569       -23.2540
  30   2.0000      -0.846581       -23.0366
  31   2.0000      -0.811997       -22.0956
  32   2.0000      -0.783264       -21.3137
  33   2.0000      -0.769556       -20.9407
  34   2.0000      -0.706544       -19.2260
  35   2.0000      -0.697193       -18.9716
  36   2.0000      -0.684912       -18.6374
  37   2.0000      -0.661771       -18.0077
  38   2.0000      -0.641177       -17.4473
  39   2.0000      -0.620213       -16.8769
  40   2.0000      -0.591105       -16.0848
  41   2.0000      -0.575280       -15.6542
  42   2.0000      -0.563726       -15.3398
  43   2.0000      -0.544330       -14.8120
  44   2.0000      -0.537640       -14.6299
  45   2.0000      -0.524990       -14.2857
  46   2.0000      -0.521444       -14.1892
  47   2.0000      -0.517364       -14.0782
  48   2.0000      -0.506711       -13.7883
  49   2.0000      -0.493780       -13.4364
  50   2.0000      -0.482162       -13.1203
  51   2.0000      -0.479411       -13.0454
  52   2.0000      -0.477437       -12.9917
  53   2.0000      -0.463242       -12.6055
  54   2.0000      -0.455911       -12.4060
  55   2.0000      -0.449249       -12.2247
  56   2.0000      -0.445111       -12.1121
  57   2.0000      -0.433178       -11.7874
  58   2.0000      -0.432494       -11.7688
  59   2.0000      -0.426600       -11.6084
  60   2.0000      -0.418216       -11.3802
  61   2.0000      -0.416616       -11.3367
  62   2.0000      -0.409084       -11.1317
  63   2.0000      -0.341420        -9.2905
  64   2.0000      -0.327163        -8.9026
  65   2.0000      -0.324430        -8.8282
  66   2.0000      -0.300278        -8.1710
  67   0.0000       0.029353         0.7987
  68   0.0000       0.064653         1.7593
  69   0.0000       0.111314         3.0290
  70   0.0000       0.116100         3.1592
  71   0.0000       0.124912         3.3990

MULLIKEN ATOMIC CHARGES
-----------------------
   0 S :    0.106698
   1 C :   -0.151458
   2 C :   -0.102552
   3 C :    0.036185
   4 C :   -0.185873
   5 H :    0.034928
   6 C :    0.166925
   7 H :    0.004361
   8 H :   -0.010021
   9 C :   -0.107181
  10 H :    0.044939
  11 H :    0.033507
  12 C :   -0.095869
  13 H :    0.060744
  14 H :    0.026095
  15 H :    0.035140
  16 S :    0.121057
  17 C :   -0.107783
  18 C :   -0.034029
  19 C :   -0.023621
  20 C :   -0.159002
  21 H :    0.017211
  22 C :    0.051178
  23 H :    0.022182
  24 H :    0.023645
  25 C :   -0.008034
  26 H :    0.010172
  27 H :   -0.000022
  28 C :   -0.021196
  29 H :    0.023347
  30 H :    0.022693
  31 H :    0.026225
  32 H :    0.071896
  33 H :    0.067512
Sum of atomic charges:   -0.0000000

LOEWDIN ATOMIC CHARGES
----------------------
   0 S :    0.386944
   1 C :   -0.201379
   2 C :   -0.062837
   3 C :   -0.059465
   4 C :   -0.189002
   5 H :    0.038184
   6 C :   -0.015210
   7 H :    0.021371
   8 H :    0.015003
   9 C :   -0.047001
  10 H :    0.035044
  11 H :    0.026440
  12 C :   -0.089689
  13 H :    0.042342
  14 H :    0.020240
  15 H :    0.031449
  16 S :    0.411507
  17 C :   -0.186506
  18 C :   -0.066195
  19 C :   -0.050560
  20 C :   -0.211434
  21 H :    0.028159
  22 C :   -0.028405
  23 H :    0.031146
  24 H :    0.031847
  25 C :   -0.030857
  26 H :    0.014836
  27 H :    0.015516
  28 C :   -0.053974
  29 H :    0.022952
  30 H :    0.023845
  31 H :    0.022240
  32 H :    0.036811
  33 H :    0.036641

  Mayer bond orders larger than 0.100000
B(  0-S ,  1-C ) :   1.1491 B(  0-S ,  4-C ) :   1.1429 B(  1-C ,  2-C ) :   1.5855
B(  1-C , 32-H ) :   0.9655 B(  2-C ,  3-C ) :   1.2525 B(  2-C ,  6-C ) :   1.0294
B(  3-C ,  4-C ) :   1.5760 B(  3-C ,  5-H ) :   0.9805 B(  4-C , 20-C ) :   1.0188
B(  6-C ,  7-H ) :   0.9349 B(  6-C ,  8-H ) :   0.9415 B(  6-C ,  9-C ) :   1.0580
B(  9-C , 10-H ) :   0.9530 B(  9-C , 11-H ) :   0.9568 B(  9-C , 12-C ) :   1.0789
B( 12-C , 13-H ) :   0.9694 B( 12-C , 14-H ) :   0.9730 B( 12-C , 15-H ) :   0.9693
B( 16-S , 17-C ) :   1.1426 B( 16-S , 20-C ) :   1.1513 B( 17-C , 18-C ) :   1.6223
B( 17-C , 33-H ) :   0.9642 B( 18-C , 19-C ) :   1.2204 B( 18-C , 21-H ) :   0.9894
B( 19-C , 20-C ) :   1.6185 B( 19-C , 22-C ) :   1.0417 B( 22-C , 23-H ) :   0.9315
B( 22-C , 24-H ) :   0.9371 B( 22-C , 25-C ) :   1.0617 B( 25-C , 26-H ) :   0.9509
B( 25-C , 27-H ) :   0.9494 B( 25-C , 28-C ) :   1.0921 B( 28-C , 29-H ) :   0.9735
B( 28-C , 30-H ) :   0.9755 B( 28-C , 31-H ) :   0.9739

Dispersion correction           -0.014865115
FINAL SINGLE POINT ENERGY     -1339.865553058444

DIPOLE MOMENT
-------------
                                X             Y             Z
Electronic contribution:     17.39143      20.19050     -14.70263
Nuclear contribution   :    -17.94308     -20.52342      14.83124
                        -----------------------------------------
Total Dipole Moment    :     -0.55165      -0.33292       0.12861
                        -----------------------------------------
Magnitude (a.u.)       :      0.65703
Magnitude (Debye)      :      1.67005

Rotational constants in cm-1:     0.017888     0.009768     0.007041
Rotational constants in MHz :   536.264095   292.844612   211.093020

                             ****ORCA TERMINATED NORMALLY****
TOTAL RUN TIME: 0 days 0 hours 0 minutes 29 seconds 175 msec
