                         Program Version 4.2.1 -  RELEASE  -
|  1> ! wB97X-D3 SP def2-SVP
|  2> %pal
|  3> nprocs 16
|  4> end
|  5>
|  6> * xyz 0 1
|  7> S 	 -73.2078 	 35.3222 	 124.587
|  8> C 	 -72.3159 	 34.2122 	 123.652
|  9> C 	 -71.487 	 34.8075 	 122.722
| 10> C 	 -71.6597 	 36.2438 	 122.649
| 11> C 	 -72.5478 	 36.7121 	 123.612
| 12> H 	 -71.0429 	 36.8565 	 122.06
| 13> C 	 -70.6293 	 34.0085 	 121.795
| 14> H 	 -70.5297 	 34.5576 	 120.873
| 15> H 	 -71.215 	 33.1369 	 121.618
| 16> C 	 -69.1698 	 33.7275 	 122.117
| 17> H 	 -68.9262 	 32.896 	 121.471
| 18> H 	 -68.5852 	 34.6475 	 122.004
| 19> C 	 -68.777 	 33.1233 	 123.529
| 20> H 	 -67.7766 	 32.7292 	 123.61
| 21> H 	 -68.7656 	 33.9633 	 124.275
| 22> H 	 -69.4606 	 32.345 	 123.817
| 23> S 	 -74.6878 	 38.4476 	 124.172
| 24> C 	 -74.3416 	 40.1051 	 124.271
| 25> C 	 -73.0412 	 40.4589 	 124.072
| 26> C 	 -72.2064 	 39.279 	 123.86
| 27> C 	 -72.9337 	 38.1078 	 123.877
| 28> H 	 -72.6506 	 41.4846 	 124.229
| 29> C 	 -70.7244 	 39.3975 	 123.782
| 30> H 	 -70.5451 	 40.4417 	 123.756
| 31> H 	 -70.399 	 38.9771 	 122.833
| 32> C 	 -69.9844 	 38.605 	 124.835
| 33> H 	 -70.2438 	 37.5186 	 124.859
| 34> H 	 -70.4449 	 39.0994 	 125.749
| 35> C 	 -68.4122 	 38.7475 	 124.907
| 36> H 	 -67.9445 	 38.6096 	 123.9
| 37> H 	 -67.9676 	 37.9095 	 125.54
| 38> H 	 -68.0305 	 39.6568 	 125.378
| 39> H 	 -72.2416 	 33.1736 	 123.923
| 40> H 	 -75.0586 	 40.8074 	 124.64
| 41> *
| 42>
| 43>                          ****END OF INPUT****

CARTESIAN COORDINATES (ANGSTROEM)
---------------------------------
  S    -73.207800   35.322200  124.587000
  C    -72.315900   34.212200  123.652000
  C    -71.487000   34.807500  122.722000
  C    -71.659700   36.243800  122.649000
  C    -72.547800   36.712100  123.612000
  H    -71.042900   36.856500  122.060000
  C    -70.629300   34.008500  121.795000
  H    -70.529700   34.557600  120.873000
  H    -71.215000   33.136900  121.618000
  C    -69.169800   33.727500  122.117000
  H    -68.926200   32.896000  121.471000
  H    -68.585200   34.647500  122.004000
  C    -68.777000   33.123300  123.529000
  H    -67.776600   32.729200  123.610000
  H    -68.765600   33.963300  124.275000
  H    -69.460600   32.345000  123.817000
  S    -74.687800   38.447600  124.172000
  C    -74.341600   40.105100  124.271000
  C    -73.041200   40.458900  124.072000
  C    -72.206400   39.279000  123.860000
  C    -72.933700   38.107800  123.877000
  H    -72.650600   41.484600  124.229000
  C    -70.724400   39.397500  123.782000
  H    -70.545100   40.441700  123.756000
  H    -70.399000   38.977100  122.833000
  C    -69.984400   38.605000  124.835000
  H    -70.243800   37.518600  124.859000
  H    -70.444900   39.099400  125.749000
  C    -68.412200   38.747500  124.907000
  H    -67.944500   38.609600  123.900000
  H    -67.967600   37.909500  125.540000
  H    -68.030500   39.656800  125.378000
  H    -72.241600   33.173600  123.923000
  H    -75.058600   40.807400  124.640000

 Total Charge           Charge          ....    0
 Multiplicity           Mult            ....    1
 Number of Electrons    NEL             ....  134
 Basis Dimension        Dim             ....  322

ORBITAL ENERGIES
----------------

  NO   OCC          E(Eh)            E(eV)
   0   2.0000     -88.966946     -2420.9137
   1   2.0000     -88.964482     -2420.8466
   2   2.0000     -10.337561      -281.2993
   3   2.0000     -10.328492      -281.0525
   4   2.0000     -10.312024      -280.6044
   5   2.0000     -10.309716      -280.5416
   6   2.0000     -10.303797      -280.3806
   7   2.0000     -10.298635      -280.2401
   8   2.0000     -10.296640      -280.1858
   9   2.0000     -10.296613      -280.1851
  10   2.0000     -10.292305      -280.0679
  11   2.0000     -10.290445      -280.0172
  12   2.0000     -10.288961      -279.9769
  13   2.0000     -10.286723      -279.9160
  14   2.0000     -10.286073      -279.8983
  15   2.0000     -10.279022      -279.7064
  16   2.0000      -8.081488      -219.9085
  17   2.0000      -8.079631      -219.8579
  18   2.0000      -6.040071      -164.3587
  19   2.0000      -6.038099      -164.3050
  20   2.0000      -6.035989      -164.2476
  21   2.0000      -6.034209      -164.1992
  22   2.0000      -6.032230      -164.1453
  23   2.0000      -6.030273      -164.0921
  24   2.0000      -1.002795       -27.2874
  25   2.0000      -0.984133       -26.7796
  26   2.0000      -0.912839       -24.8396
  27   2.0000      -0.910630       -24.7795
  28   2.0000      -0.866963       -23.5913
  29   2.0000      -0.849025       -23.1032
  30   2.0000      -0.844119       -22.9697
  31   2.0000      -0.814624       -22.1671
  32   2.0000      -0.786109       -21.3911
  33   2.0000      -0.774146       -21.0656
  34   2.0000      -0.709850       -19.3160
  35   2.0000      -0.696923       -18.9642
  36   2.0000      -0.686973       -18.6935
  37   2.0000      -0.663434       -18.0530
  38   2.0000      -0.641235       -17.4489
  39   2.0000      -0.619974       -16.8704
  40   2.0000      -0.596106       -16.2209
  41   2.0000      -0.568410       -15.4672
  42   2.0000      -0.564505       -15.3609
  43   2.0000      -0.560567       -15.2538
  44   2.0000      -0.532620       -14.4933
  45   2.0000      -0.523512       -14.2455
  46   2.0000      -0.518086       -14.0978
  47   2.0000      -0.510862       -13.9013
  48   2.0000      -0.499260       -13.5856
  49   2.0000      -0.497996       -13.5512
  50   2.0000      -0.491647       -13.3784
  51   2.0000      -0.486901       -13.2493
  52   2.0000      -0.469136       -12.7658
  53   2.0000      -0.468129       -12.7384
  54   2.0000      -0.459868       -12.5136
  55   2.0000      -0.449618       -12.2347
  56   2.0000      -0.445904       -12.1337
  57   2.0000      -0.438495       -11.9321
  58   2.0000      -0.432424       -11.7669
  59   2.0000      -0.427996       -11.6464
  60   2.0000      -0.420938       -11.4543
  61   2.0000      -0.408239       -11.1088
  62   2.0000      -0.403918       -10.9912
  63   2.0000      -0.352696        -9.5974
  64   2.0000      -0.330947        -9.0055
  65   2.0000      -0.329590        -8.9686
  66   2.0000      -0.287871        -7.8334
  67   0.0000       0.024613         0.6698
  68   0.0000       0.072360         1.9690
  69   0.0000       0.105376         2.8674
  70   0.0000       0.118799         3.2327
  71   0.0000       0.122226         3.3259

MULLIKEN ATOMIC CHARGES
-----------------------
   0 S :    0.106830
   1 C :   -0.111701
   2 C :   -0.117926
   3 C :    0.055882
   4 C :   -0.149594
   5 H :   -0.008315
   6 C :    0.084140
   7 H :    0.019787
   8 H :    0.021236
   9 C :   -0.068064
  10 H :    0.035934
  11 H :    0.035629
  12 C :   -0.073469
  13 H :    0.033203
  14 H :    0.036463
  15 H :    0.024894
  16 S :    0.106632
  17 C :   -0.071842
  18 C :   -0.042623
  19 C :   -0.075937
  20 C :   -0.149070
  21 H :    0.031983
  22 C :    0.140479
  23 H :    0.002564
  24 H :    0.011269
  25 C :   -0.125587
  26 H :    0.066615
  27 H :    0.035198
  28 C :   -0.070544
  29 H :    0.032975
  30 H :    0.041547
  31 H :    0.039994
  32 H :    0.049778
  33 H :    0.051639
Sum of atomic charges:    0.0000000

LOEWDIN ATOMIC CHARGES
----------------------
   0 S :    0.394707
   1 C :   -0.207817
   2 C :   -0.064877
   3 C :   -0.051333
   4 C :   -0.169480
   5 H :    0.022256
   6 C :   -0.034638
   7 H :    0.035225
   8 H :    0.030052
   9 C :   -0.036698
  10 H :    0.028735
  11 H :    0.025728
  12 C :   -0.072940
  13 H :    0.024253
  14 H :    0.028296
  15 H :    0.018144
  16 S :    0.399601
  17 C :   -0.190514
  18 C :   -0.079811
  19 C :   -0.048594
  20 C :   -0.184433
  21 H :    0.038183
  22 C :   -0.032603
  23 H :    0.025359
  24 H :    0.025248
  25 C :   -0.048192
  26 H :    0.035153
  27 H :    0.031656
  28 C :   -0.078159
  29 H :    0.025351
  30 H :    0.035371
  31 H :    0.024278
  32 H :    0.026465
  33 H :    0.026027

  Mayer bond orders larger than 0.100000
B(  0-S ,  1-C ) :   1.1420 B(  0-S ,  4-C ) :   1.1396 B(  1-C ,  2-C ) :   1.6133
B(  1-C , 32-H ) :   0.9629 B(  2-C ,  3-C ) :   1.2414 B(  2-C ,  6-C ) :   1.0255
B(  3-C ,  4-C ) :   1.5655 B(  3-C ,  5-H ) :   0.9981 B(  4-C , 20-C ) :   1.0577
B(  6-C ,  7-H ) :   0.9355 B(  6-C ,  8-H ) :   0.9405 B(  6-C ,  9-C ) :   1.0729
B(  9-C , 10-H ) :   0.9550 B(  9-C , 11-H ) :   0.9596 B(  9-C , 12-C ) :   1.0762
B( 12-C , 13-H ) :   0.9766 B( 12-C , 14-H ) :   0.9753 B( 12-C , 15-H ) :   0.9772
B( 16-S , 17-C ) :   1.1677 B( 16-S , 20-C ) :   1.1123 B( 17-C , 18-C ) :   1.6297
B( 17-C , 33-H ) :   0.9604 B( 18-C , 19-C ) :   1.2238 B( 18-C , 21-H ) :   0.9814
B( 19-C , 20-C ) :   1.6200 B( 19-C , 22-C ) :   1.0546 B( 22-C , 23-H ) :   0.9291
B( 22-C , 24-H ) :   0.9111 B( 22-C , 25-C ) :   1.0547 B( 25-C , 26-H ) :   0.9535
B( 25-C , 27-H ) :   0.9582 B( 25-C , 28-C ) :   1.0705 B( 28-C , 29-H ) :   0.9744
B( 28-C , 30-H ) :   0.9768 B( 28-C , 31-H ) :   0.9780

Dispersion correction           -0.014910366
FINAL SINGLE POINT ENERGY     -1339.875516755909

DIPOLE MOMENT
-------------
                                X             Y             Z
Electronic contribution:    -29.71277       5.43564       2.94281
Nuclear contribution   :     30.36466      -5.38073      -3.05361
                        -----------------------------------------
Total Dipole Moment    :      0.65189       0.05491      -0.11080
                        -----------------------------------------
Magnitude (a.u.)       :      0.66352
Magnitude (Debye)      :      1.68653

Rotational constants in cm-1:     0.019773     0.009147     0.006978
Rotational constants in MHz :   592.788626   274.230092   209.183797

                             ****ORCA TERMINATED NORMALLY****
TOTAL RUN TIME: 0 days 0 hours 0 minutes 35 seconds 515 msec
