                         Program Version 4.2.1 -  RELEASE  -
|  1> ! wB97X-D3 SP def2-SVP
|  2> %pal
|  3> nprocs 16
|  4> end
|  5>
|  6> * xyz 0 1
|  7> S 	 -75.7701 	 49.9105 	 134.418
|  8> C 	 -76.6912 	 48.9933 	 135.552
|  9> C 	 -77.0746 	 49.8264 	 136.631
| 10> C 	 -76.7349 	 51.205 	 136.381
| 11> C 	 -76.1335 	 51.4525 	 135.171
| 12> H 	 -76.8999 	 51.9614 	 137.085
| 13> C 	 -77.6409 	 49.3368 	 137.932
| 14> H 	 -78.0795 	 50.1816 	 138.37
| 15> H 	 -76.8489 	 49.0366 	 138.627
| 16> C 	 -78.6298 	 48.1691 	 137.822
| 17> H 	 -79.2999 	 48.471 	 137.044
| 18> H 	 -78.0399 	 47.3505 	 137.61
| 19> C 	 -79.5211 	 47.9628 	 138.968
| 20> H 	 -80.1862 	 47.1617 	 138.784
| 21> H 	 -78.9322 	 47.9533 	 139.857
| 22> H 	 -80.1744 	 48.7881 	 138.973
| 23> S 	 -76.2785 	 52.8775 	 132.82
| 24> C 	 -75.7757 	 54.4993 	 132.695
| 25> C 	 -75.4036 	 54.9612 	 133.955
| 26> C 	 -75.3871 	 53.9733 	 134.954
| 27> C 	 -75.7961 	 52.76 	 134.535
| 28> H 	 -74.9739 	 55.9671 	 134.076
| 29> C 	 -74.7684 	 54.1913 	 136.302
| 30> H 	 -73.8854 	 54.8407 	 136.255
| 31> H 	 -74.3603 	 53.2823 	 136.625
| 32> C 	 -75.6414 	 54.5852 	 137.531
| 33> H 	 -75.1124 	 54.2226 	 138.429
| 34> H 	 -76.581 	 54.0173 	 137.433
| 35> C 	 -75.9101 	 56.0683 	 137.752
| 36> H 	 -74.9279 	 56.5253 	 137.622
| 37> H 	 -76.2682 	 56.2014 	 138.835
| 38> H 	 -76.6279 	 56.4757 	 137.028
| 39> H 	 -76.7337 	 47.9107 	 135.593
| 40> H 	 -75.7516 	 55.0273 	 131.731
| 41> *
| 42>
| 43>                          ****END OF INPUT****

CARTESIAN COORDINATES (ANGSTROEM)
---------------------------------
  S    -75.770100   49.910500  134.418000
  C    -76.691200   48.993300  135.552000
  C    -77.074600   49.826400  136.631000
  C    -76.734900   51.205000  136.381000
  C    -76.133500   51.452500  135.171000
  H    -76.899900   51.961400  137.085000
  C    -77.640900   49.336800  137.932000
  H    -78.079500   50.181600  138.370000
  H    -76.848900   49.036600  138.627000
  C    -78.629800   48.169100  137.822000
  H    -79.299900   48.471000  137.044000
  H    -78.039900   47.350500  137.610000
  C    -79.521100   47.962800  138.968000
  H    -80.186200   47.161700  138.784000
  H    -78.932200   47.953300  139.857000
  H    -80.174400   48.788100  138.973000
  S    -76.278500   52.877500  132.820000
  C    -75.775700   54.499300  132.695000
  C    -75.403600   54.961200  133.955000
  C    -75.387100   53.973300  134.954000
  C    -75.796100   52.760000  134.535000
  H    -74.973900   55.967100  134.076000
  C    -74.768400   54.191300  136.302000
  H    -73.885400   54.840700  136.255000
  H    -74.360300   53.282300  136.625000
  C    -75.641400   54.585200  137.531000
  H    -75.112400   54.222600  138.429000
  H    -76.581000   54.017300  137.433000
  C    -75.910100   56.068300  137.752000
  H    -74.927900   56.525300  137.622000
  H    -76.268200   56.201400  138.835000
  H    -76.627900   56.475700  137.028000
  H    -76.733700   47.910700  135.593000
  H    -75.751600   55.027300  131.731000

 Total Charge           Charge          ....    0
 Multiplicity           Mult            ....    1
 Number of Electrons    NEL             ....  134
 Basis Dimension        Dim             ....  322

ORBITAL ENERGIES
----------------

  NO   OCC          E(Eh)            E(eV)
   0   2.0000     -88.966038     -2420.8890
   1   2.0000     -88.961199     -2420.7573
   2   2.0000     -10.333737      -281.1953
   3   2.0000     -10.328455      -281.0516
   4   2.0000     -10.318901      -280.7916
   5   2.0000     -10.315482      -280.6985
   6   2.0000     -10.303077      -280.3610
   7   2.0000     -10.298662      -280.2408
   8   2.0000     -10.293835      -280.1095
   9   2.0000     -10.291569      -280.0478
  10   2.0000     -10.288961      -279.9769
  11   2.0000     -10.285652      -279.8868
  12   2.0000     -10.284808      -279.8639
  13   2.0000     -10.283237      -279.8211
  14   2.0000     -10.271563      -279.5034
  15   2.0000     -10.265247      -279.3316
  16   2.0000      -8.080863      -219.8915
  17   2.0000      -8.076686      -219.7778
  18   2.0000      -6.039374      -164.3397
  19   2.0000      -6.035253      -164.2276
  20   2.0000      -6.035010      -164.2210
  21   2.0000      -6.031708      -164.1311
  22   2.0000      -6.031007      -164.1120
  23   2.0000      -6.027638      -164.0204
  24   2.0000      -1.009758       -27.4769
  25   2.0000      -0.988655       -26.9027
  26   2.0000      -0.923704       -25.1353
  27   2.0000      -0.910239       -24.7689
  28   2.0000      -0.869859       -23.6701
  29   2.0000      -0.858147       -23.3514
  30   2.0000      -0.850727       -23.1494
  31   2.0000      -0.817143       -22.2356
  32   2.0000      -0.786010       -21.3884
  33   2.0000      -0.774053       -21.0630
  34   2.0000      -0.710311       -19.3285
  35   2.0000      -0.696852       -18.9623
  36   2.0000      -0.686199       -18.6724
  37   2.0000      -0.667893       -18.1743
  38   2.0000      -0.642881       -17.4937
  39   2.0000      -0.618095       -16.8192
  40   2.0000      -0.602462       -16.3938
  41   2.0000      -0.587454       -15.9854
  42   2.0000      -0.569402       -15.4942
  43   2.0000      -0.553102       -15.0507
  44   2.0000      -0.545382       -14.8406
  45   2.0000      -0.535689       -14.5768
  46   2.0000      -0.520868       -14.1736
  47   2.0000      -0.510096       -13.8804
  48   2.0000      -0.508105       -13.8262
  49   2.0000      -0.504997       -13.7417
  50   2.0000      -0.492278       -13.3956
  51   2.0000      -0.485264       -13.2047
  52   2.0000      -0.479737       -13.0543
  53   2.0000      -0.467944       -12.7334
  54   2.0000      -0.459019       -12.4905
  55   2.0000      -0.452418       -12.3109
  56   2.0000      -0.439347       -11.9552
  57   2.0000      -0.431326       -11.7370
  58   2.0000      -0.427074       -11.6213
  59   2.0000      -0.424167       -11.5422
  60   2.0000      -0.421620       -11.4729
  61   2.0000      -0.417414       -11.3584
  62   2.0000      -0.412864       -11.2346
  63   2.0000      -0.351184        -9.5562
  64   2.0000      -0.333069        -9.0633
  65   2.0000      -0.324474        -8.8294
  66   2.0000      -0.292867        -7.9693
  67   0.0000       0.026691         0.7263
  68   0.0000       0.073204         1.9920
  69   0.0000       0.110254         3.0002
  70   0.0000       0.125494         3.4149
  71   0.0000       0.131148         3.5687

MULLIKEN ATOMIC CHARGES
-----------------------
   0 S :    0.117411
   1 C :   -0.116517
   2 C :   -0.130122
   3 C :    0.055592
   4 C :   -0.122591
   5 H :   -0.032032
   6 C :    0.085653
   7 H :   -0.007068
   8 H :    0.038485
   9 C :   -0.086164
  10 H :    0.023370
  11 H :    0.016455
  12 C :    0.037960
  13 H :    0.024389
  14 H :    0.021640
  15 H :    0.005075
  16 S :    0.097926
  17 C :   -0.103079
  18 C :   -0.043680
  19 C :   -0.015901
  20 C :   -0.138240
  21 H :    0.023946
  22 C :    0.059605
  23 H :    0.019998
  24 H :    0.008782
  25 C :   -0.115001
  26 H :    0.031718
  27 H :    0.042572
  28 C :   -0.048064
  29 H :    0.023854
  30 H :    0.048294
  31 H :    0.045506
  32 H :    0.055991
  33 H :    0.074236
Sum of atomic charges:    0.0000000

LOEWDIN ATOMIC CHARGES
----------------------
   0 S :    0.419700
   1 C :   -0.208169
   2 C :   -0.058925
   3 C :   -0.059885
   4 C :   -0.193691
   5 H :    0.017451
   6 C :   -0.029487
   7 H :    0.017968
   8 H :    0.034581
   9 C :   -0.034384
  10 H :    0.026297
  11 H :    0.010381
  12 C :   -0.048765
  13 H :    0.026688
  14 H :    0.021061
  15 H :    0.021527
  16 S :    0.413195
  17 C :   -0.196398
  18 C :   -0.079774
  19 C :   -0.066821
  20 C :   -0.180050
  21 H :    0.033976
  22 C :   -0.030371
  23 H :    0.030148
  24 H :    0.027708
  25 C :   -0.043328
  26 H :    0.026997
  27 H :    0.020836
  28 C :   -0.071214
  29 H :    0.022569
  30 H :    0.036822
  31 H :    0.026810
  32 H :    0.029648
  33 H :    0.036900

  Mayer bond orders larger than 0.100000
B(  0-S ,  1-C ) :   1.1511 B(  0-S ,  4-C ) :   1.1653 B(  1-C ,  2-C ) :   1.5651
B(  1-C , 32-H ) :   0.9701 B(  2-C ,  3-C ) :   1.2816 B(  2-C ,  6-C ) :   1.0322
B(  3-C ,  4-C ) :   1.5444 B(  3-C ,  5-H ) :   1.0022 B(  4-C , 20-C ) :   1.0039
B(  6-C ,  7-H ) :   0.9351 B(  6-C ,  8-H ) :   0.9225 B(  6-C ,  9-C ) :   1.0741
B(  9-C , 10-H ) :   0.9620 B(  9-C , 11-H ) :   0.9484 B(  9-C , 12-C ) :   1.1041
B( 12-C , 13-H ) :   0.9660 B( 12-C , 14-H ) :   0.9706 B( 12-C , 15-H ) :   0.9698
B( 16-S , 17-C ) :   1.1840 B( 16-S , 20-C ) :   1.1388 B( 17-C , 18-C ) :   1.5608
B( 17-C , 20-C ) :   0.1047 B( 17-C , 33-H ) :   0.9685 B( 18-C , 19-C ) :   1.2563
B( 18-C , 21-H ) :   0.9897 B( 19-C , 20-C ) :   1.6171 B( 19-C , 22-C ) :   1.0413
B( 22-C , 23-H ) :   0.9403 B( 22-C , 24-H ) :   0.9299 B( 22-C , 25-C ) :   1.0671
B( 25-C , 26-H ) :   0.9594 B( 25-C , 27-H ) :   0.9448 B( 25-C , 28-C ) :   1.0797
B( 28-C , 29-H ) :   0.9739 B( 28-C , 30-H ) :   0.9726 B( 28-C , 31-H ) :   0.9766

Dispersion correction           -0.013767702
FINAL SINGLE POINT ENERGY     -1339.868656690209

DIPOLE MOMENT
-------------
                                X             Y             Z
Electronic contribution:      7.82029      -2.00244     -27.13955
Nuclear contribution   :     -7.80720       2.11458      27.76702
                        -----------------------------------------
Total Dipole Moment    :      0.01309       0.11214       0.62747
                        -----------------------------------------
Magnitude (a.u.)       :      0.63755
Magnitude (Debye)      :      1.62052

Rotational constants in cm-1:     0.019498     0.007906     0.006077
Rotational constants in MHz :   584.528310   237.012620   182.193348

                             ****ORCA TERMINATED NORMALLY****
TOTAL RUN TIME: 0 days 0 hours 0 minutes 34 seconds 108 msec
