                         Program Version 4.2.1 -  RELEASE  -
|  1> ! wB97X-D3 SP def2-SVP
|  2> %pal
|  3> nprocs 16
|  4> end
|  5>
|  6> * xyz 0 1
|  7> S 	 -76.0444 	 47.1567 	 124.207
|  8> C 	 -75.7858 	 45.4245 	 123.993
|  9> C 	 -74.5311 	 45.0848 	 124.399
| 10> C 	 -73.7573 	 46.1787 	 124.938
| 11> C 	 -74.3806 	 47.4294 	 124.759
| 12> H 	 -72.7267 	 46.2374 	 125.354
| 13> C 	 -74.0317 	 43.663 	 124.376
| 14> H 	 -74.6614 	 43.0565 	 123.724
| 15> H 	 -74.107 	 43.3436 	 125.414
| 16> C 	 -72.5839 	 43.3861 	 123.929
| 17> H 	 -71.9503 	 43.8472 	 124.688
| 18> H 	 -72.4812 	 42.3837 	 124.16
| 19> C 	 -72.4392 	 43.7177 	 122.469
| 20> H 	 -71.4209 	 43.348 	 122.244
| 21> H 	 -73.1727 	 43.1571 	 121.935
| 22> H 	 -72.5118 	 44.7175 	 122.104
| 23> S 	 -74.6692 	 49.4787 	 126.506
| 24> C 	 -73.5451 	 50.8229 	 126.487
| 25> C 	 -72.4332 	 50.5874 	 125.705
| 26> C 	 -72.6227 	 49.3994 	 124.938
| 27> C 	 -73.8677 	 48.7257 	 125.171
| 28> H 	 -71.5686 	 51.2897 	 125.62
| 29> C 	 -71.5206 	 48.9412 	 124.049
| 30> H 	 -71.2212 	 49.8066 	 123.502
| 31> H 	 -71.868 	 48.1177 	 123.438
| 32> C 	 -70.3775 	 48.3059 	 124.885
| 33> H 	 -70.8126 	 47.63 	 125.612
| 34> H 	 -69.9441 	 49.0521 	 125.481
| 35> C 	 -69.2886 	 47.7473 	 124
| 36> H 	 -68.5738 	 47.0877 	 124.576
| 37> H 	 -68.663 	 48.6126 	 123.561
| 38> H 	 -69.5752 	 47.2007 	 123.082
| 39> H 	 -76.4902 	 44.9017 	 123.434
| 40> H 	 -73.6575 	 51.6583 	 127.124
| 41> *
| 42>
| 43>                          ****END OF INPUT****

CARTESIAN COORDINATES (ANGSTROEM)
---------------------------------
  S    -76.044400   47.156700  124.207000
  C    -75.785800   45.424500  123.993000
  C    -74.531100   45.084800  124.399000
  C    -73.757300   46.178700  124.938000
  C    -74.380600   47.429400  124.759000
  H    -72.726700   46.237400  125.354000
  C    -74.031700   43.663000  124.376000
  H    -74.661400   43.056500  123.724000
  H    -74.107000   43.343600  125.414000
  C    -72.583900   43.386100  123.929000
  H    -71.950300   43.847200  124.688000
  H    -72.481200   42.383700  124.160000
  C    -72.439200   43.717700  122.469000
  H    -71.420900   43.348000  122.244000
  H    -73.172700   43.157100  121.935000
  H    -72.511800   44.717500  122.104000
  S    -74.669200   49.478700  126.506000
  C    -73.545100   50.822900  126.487000
  C    -72.433200   50.587400  125.705000
  C    -72.622700   49.399400  124.938000
  C    -73.867700   48.725700  125.171000
  H    -71.568600   51.289700  125.620000
  C    -71.520600   48.941200  124.049000
  H    -71.221200   49.806600  123.502000
  H    -71.868000   48.117700  123.438000
  C    -70.377500   48.305900  124.885000
  H    -70.812600   47.630000  125.612000
  H    -69.944100   49.052100  125.481000
  C    -69.288600   47.747300  124.000000
  H    -68.573800   47.087700  124.576000
  H    -68.663000   48.612600  123.561000
  H    -69.575200   47.200700  123.082000
  H    -76.490200   44.901700  123.434000
  H    -73.657500   51.658300  127.124000

 Total Charge           Charge          ....    0
 Multiplicity           Mult            ....    1
 Number of Electrons    NEL             ....  134
 Basis Dimension        Dim             ....  322

ORBITAL ENERGIES
----------------

  NO   OCC          E(Eh)            E(eV)
   0   2.0000     -88.964810     -2420.8556
   1   2.0000     -88.960039     -2420.7257
   2   2.0000     -10.333433      -281.1870
   3   2.0000     -10.326539      -280.9994
   4   2.0000     -10.315731      -280.7053
   5   2.0000     -10.309501      -280.5358
   6   2.0000     -10.304966      -280.4124
   7   2.0000     -10.302642      -280.3491
   8   2.0000     -10.301237      -280.3109
   9   2.0000     -10.298296      -280.2309
  10   2.0000     -10.289778      -279.9991
  11   2.0000     -10.286299      -279.9044
  12   2.0000     -10.284541      -279.8566
  13   2.0000     -10.283934      -279.8401
  14   2.0000     -10.280080      -279.7352
  15   2.0000     -10.274553      -279.5848
  16   2.0000      -8.079912      -219.8656
  17   2.0000      -8.074593      -219.7208
  18   2.0000      -6.038333      -164.3114
  19   2.0000      -6.034360      -164.2033
  20   2.0000      -6.033093      -164.1688
  21   2.0000      -6.030745      -164.1049
  22   2.0000      -6.029094      -164.0600
  23   2.0000      -6.025390      -163.9592
  24   2.0000      -1.003636       -27.3103
  25   2.0000      -0.981844       -26.7173
  26   2.0000      -0.917414       -24.9641
  27   2.0000      -0.914143       -24.8751
  28   2.0000      -0.873556       -23.7707
  29   2.0000      -0.850094       -23.1322
  30   2.0000      -0.842746       -22.9323
  31   2.0000      -0.815191       -22.1825
  32   2.0000      -0.781980       -21.2788
  33   2.0000      -0.767689       -20.8899
  34   2.0000      -0.712179       -19.3794
  35   2.0000      -0.703648       -19.1472
  36   2.0000      -0.696021       -18.9397
  37   2.0000      -0.660863       -17.9830
  38   2.0000      -0.645152       -17.5555
  39   2.0000      -0.616371       -16.7723
  40   2.0000      -0.596999       -16.2452
  41   2.0000      -0.571212       -15.5435
  42   2.0000      -0.564059       -15.3488
  43   2.0000      -0.557473       -15.1696
  44   2.0000      -0.540061       -14.6958
  45   2.0000      -0.523708       -14.2508
  46   2.0000      -0.519766       -14.1436
  47   2.0000      -0.516699       -14.0601
  48   2.0000      -0.505693       -13.7606
  49   2.0000      -0.504827       -13.7370
  50   2.0000      -0.492473       -13.4009
  51   2.0000      -0.484971       -13.1967
  52   2.0000      -0.472790       -12.8653
  53   2.0000      -0.470815       -12.8115
  54   2.0000      -0.454699       -12.3730
  55   2.0000      -0.450945       -12.2708
  56   2.0000      -0.444405       -12.0929
  57   2.0000      -0.436504       -11.8779
  58   2.0000      -0.430420       -11.7123
  59   2.0000      -0.424257       -11.5446
  60   2.0000      -0.417378       -11.3574
  61   2.0000      -0.414228       -11.2717
  62   2.0000      -0.410997       -11.1838
  63   2.0000      -0.345113        -9.3910
  64   2.0000      -0.325235        -8.8501
  65   2.0000      -0.324780        -8.8377
  66   2.0000      -0.293787        -7.9943
  67   0.0000       0.028868         0.7856
  68   0.0000       0.065975         1.7953
  69   0.0000       0.111750         3.0409
  70   0.0000       0.124218         3.3801
  71   0.0000       0.127696         3.4748

MULLIKEN ATOMIC CHARGES
-----------------------
   0 S :    0.088250
   1 C :   -0.111406
   2 C :   -0.052261
   3 C :    0.027988
   4 C :   -0.178451
   5 H :    0.022676
   6 C :    0.018476
   7 H :    0.011701
   8 H :    0.038820
   9 C :   -0.024968
  10 H :    0.018058
  11 H :    0.007756
  12 C :   -0.016638
  13 H :    0.032720
  14 H :    0.017780
  15 H :    0.042583
  16 S :    0.111895
  17 C :   -0.074449
  18 C :   -0.044144
  19 C :   -0.073400
  20 C :   -0.139458
  21 H :    0.041223
  22 C :    0.083945
  23 H :    0.024539
  24 H :    0.021520
  25 C :   -0.052990
  26 H :    0.027381
  27 H :    0.010014
  28 C :   -0.073834
  29 H :    0.045100
  30 H :    0.035296
  31 H :    0.036075
  32 H :    0.035643
  33 H :    0.042561
Sum of atomic charges:    0.0000000

LOEWDIN ATOMIC CHARGES
----------------------
   0 S :    0.382744
   1 C :   -0.179780
   2 C :   -0.063121
   3 C :   -0.066504
   4 C :   -0.190109
   5 H :    0.036913
   6 C :   -0.030880
   7 H :    0.023685
   8 H :    0.034444
   9 C :   -0.037257
  10 H :    0.021645
  11 H :    0.018957
  12 C :   -0.057767
  13 H :    0.031752
  14 H :    0.023881
  15 H :    0.026114
  16 S :    0.421853
  17 C :   -0.172534
  18 C :   -0.076805
  19 C :   -0.049411
  20 C :   -0.220410
  21 H :    0.042663
  22 C :   -0.026560
  23 H :    0.027656
  24 H :    0.028637
  25 C :   -0.036911
  26 H :    0.021598
  27 H :    0.017304
  28 C :   -0.077411
  29 H :    0.031760
  30 H :    0.034396
  31 H :    0.024521
  32 H :    0.016493
  33 H :    0.018445

  Mayer bond orders larger than 0.100000
B(  0-S ,  1-C ) :   1.1259 B(  0-S ,  4-C ) :   1.1546 B(  1-C ,  2-C ) :   1.6137
B(  1-C , 32-H ) :   0.9814 B(  2-C ,  3-C ) :   1.2022 B(  2-C ,  6-C ) :   1.0235
B(  3-C ,  4-C ) :   1.5781 B(  3-C ,  5-H ) :   0.9847 B(  4-C , 20-C ) :   1.0342
B(  6-C ,  7-H ) :   0.9464 B(  6-C ,  8-H ) :   0.9332 B(  6-C ,  9-C ) :   1.0936
B(  9-C , 10-H ) :   0.9458 B(  9-C , 11-H ) :   0.9486 B(  9-C , 12-C ) :   1.0646
B( 12-C , 13-H ) :   0.9736 B( 12-C , 14-H ) :   0.9711 B( 12-C , 15-H ) :   0.9787
B( 16-S , 17-C ) :   1.1742 B( 16-S , 20-C ) :   1.1552 B( 17-C , 18-C ) :   1.5785
B( 17-C , 20-C ) :   0.1021 B( 17-C , 33-H ) :   0.9729 B( 18-C , 19-C ) :   1.2609
B( 18-C , 21-H ) :   0.9837 B( 19-C , 20-C ) :   1.5557 B( 19-C , 22-C ) :   1.0690
B( 22-C , 23-H ) :   0.9311 B( 22-C , 24-H ) :   0.9320 B( 22-C , 25-C ) :   1.0584
B( 25-C , 26-H ) :   0.9544 B( 25-C , 27-H ) :   0.9473 B( 25-C , 28-C ) :   1.0784
B( 28-C , 29-H ) :   0.9736 B( 28-C , 30-H ) :   0.9712 B( 28-C , 31-H ) :   0.9759

Dispersion correction           -0.014815645
FINAL SINGLE POINT ENERGY     -1339.867582250952

DIPOLE MOMENT
-------------
                                X             Y             Z
Electronic contribution:    -25.08055      15.77183       9.75828
Nuclear contribution   :     25.80297     -16.08059      -9.80317
                        -----------------------------------------
Total Dipole Moment    :      0.72242      -0.30876      -0.04488
                        -----------------------------------------
Magnitude (a.u.)       :      0.78692
Magnitude (Debye)      :      2.00019

Rotational constants in cm-1:     0.016982     0.010432     0.007011
Rotational constants in MHz :   509.107768   312.730728   210.176861

                             ****ORCA TERMINATED NORMALLY****
TOTAL RUN TIME: 0 days 0 hours 0 minutes 35 seconds 663 msec
