                         Program Version 4.2.1 -  RELEASE  -
|  1> ! wB97X-D3 SP def2-SVP
|  2> %pal
|  3> nprocs 16
|  4> end
|  5>
|  6> * xyz 0 1
|  7> S 	 -13.6745 	 40.5031 	 32.6876
|  8> C 	 -14.8313 	 40.738 	 33.9128
|  9> C 	 -14.7663 	 39.8167 	 34.9182
| 10> C 	 -13.7133 	 38.8364 	 34.7198
| 11> C 	 -13.1247 	 39.0655 	 33.4961
| 12> H 	 -13.2817 	 37.9836 	 35.261
| 13> C 	 -15.7319 	 39.6929 	 36.1261
| 14> H 	 -15.4029 	 40.5366 	 36.7133
| 15> H 	 -15.5627 	 38.7937 	 36.6521
| 16> C 	 -17.26 	 39.7605 	 35.9765
| 17> H 	 -17.5245 	 40.5984 	 35.2952
| 18> H 	 -17.5157 	 38.9229 	 35.3877
| 19> C 	 -18.2023 	 39.8066 	 37.2464
| 20> H 	 -18.0769 	 40.7235 	 37.8578
| 21> H 	 -19.2826 	 39.8521 	 36.9896
| 22> H 	 -18.0567 	 38.9412 	 37.89
| 23> S 	 -10.5568 	 39.2156 	 32.5596
| 24> C 	 -9.62029 	 37.7107 	 32.2468
| 25> C 	 -10.414 	 36.637 	 32.4501
| 26> C 	 -11.8111 	 36.915 	 32.8512
| 27> C 	 -12.0159 	 38.2912 	 32.9383
| 28> H 	 -9.97572 	 35.6368 	 32.3654
| 29> C 	 -12.9681 	 35.9063 	 33.0062
| 30> H 	 -12.8368 	 35.1796 	 32.168
| 31> H 	 -13.9072 	 36.4278 	 32.9376
| 32> C 	 -13.0549 	 35.2279 	 34.424
| 33> H 	 -14.0784 	 35.031 	 34.6399
| 34> H 	 -12.7352 	 35.9318 	 35.197
| 35> C 	 -12.1147 	 33.9906 	 34.5517
| 36> H 	 -12.1395 	 33.4807 	 33.6248
| 37> H 	 -12.4211 	 33.2228 	 35.3502
| 38> H 	 -11.1084 	 34.306 	 34.8393
| 39> H 	 -15.4079 	 41.6488 	 33.9897
| 40> H 	 -8.60904 	 37.6665 	 31.9069
| 41> *
| 42>
| 43>                          ****END OF INPUT****

CARTESIAN COORDINATES (ANGSTROEM)
---------------------------------
  S    -13.674500   40.503100   32.687600
  C    -14.831300   40.738000   33.912800
  C    -14.766300   39.816700   34.918200
  C    -13.713300   38.836400   34.719800
  C    -13.124700   39.065500   33.496100
  H    -13.281700   37.983600   35.261000
  C    -15.731900   39.692900   36.126100
  H    -15.402900   40.536600   36.713300
  H    -15.562700   38.793700   36.652100
  C    -17.260000   39.760500   35.976500
  H    -17.524500   40.598400   35.295200
  H    -17.515700   38.922900   35.387700
  C    -18.202300   39.806600   37.246400
  H    -18.076900   40.723500   37.857800
  H    -19.282600   39.852100   36.989600
  H    -18.056700   38.941200   37.890000
  S    -10.556800   39.215600   32.559600
  C     -9.620290   37.710700   32.246800
  C    -10.414000   36.637000   32.450100
  C    -11.811100   36.915000   32.851200
  C    -12.015900   38.291200   32.938300
  H     -9.975720   35.636800   32.365400
  C    -12.968100   35.906300   33.006200
  H    -12.836800   35.179600   32.168000
  H    -13.907200   36.427800   32.937600
  C    -13.054900   35.227900   34.424000
  H    -14.078400   35.031000   34.639900
  H    -12.735200   35.931800   35.197000
  C    -12.114700   33.990600   34.551700
  H    -12.139500   33.480700   33.624800
  H    -12.421100   33.222800   35.350200
  H    -11.108400   34.306000   34.839300
  H    -15.407900   41.648800   33.989700
  H     -8.609040   37.666500   31.906900

 Total Charge           Charge          ....    0
 Multiplicity           Mult            ....    1
 Number of Electrons    NEL             ....  134
 Basis Dimension        Dim             ....  322

ORBITAL ENERGIES
----------------

  NO   OCC          E(Eh)            E(eV)
   0   2.0000     -88.966649     -2420.9056
   1   2.0000     -88.960057     -2420.7262
   2   2.0000     -10.326456      -280.9972
   3   2.0000     -10.325613      -280.9742
   4   2.0000     -10.317466      -280.7525
   5   2.0000     -10.309374      -280.5323
   6   2.0000     -10.309115      -280.5253
   7   2.0000     -10.308290      -280.5028
   8   2.0000     -10.299051      -280.2514
   9   2.0000     -10.298586      -280.2388
  10   2.0000     -10.298513      -280.2368
  11   2.0000     -10.289587      -279.9939
  12   2.0000     -10.289542      -279.9927
  13   2.0000     -10.289280      -279.9855
  14   2.0000     -10.289112      -279.9810
  15   2.0000     -10.282678      -279.8059
  16   2.0000      -8.082699      -219.9414
  17   2.0000      -8.074169      -219.7093
  18   2.0000      -6.040980      -164.3834
  19   2.0000      -6.037148      -164.2791
  20   2.0000      -6.033492      -164.1797
  21   2.0000      -6.032918      -164.1640
  22   2.0000      -6.028816      -164.0524
  23   2.0000      -6.024653      -163.9391
  24   2.0000      -1.009482       -27.4694
  25   2.0000      -0.979152       -26.6441
  26   2.0000      -0.904906       -24.6237
  27   2.0000      -0.902048       -24.5460
  28   2.0000      -0.870817       -23.6961
  29   2.0000      -0.852029       -23.1849
  30   2.0000      -0.838271       -22.8105
  31   2.0000      -0.816815       -22.2267
  32   2.0000      -0.783225       -21.3126
  33   2.0000      -0.771567       -20.9954
  34   2.0000      -0.707904       -19.2631
  35   2.0000      -0.705215       -19.1899
  36   2.0000      -0.692573       -18.8459
  37   2.0000      -0.662627       -18.0310
  38   2.0000      -0.645175       -17.5561
  39   2.0000      -0.605422       -16.4744
  40   2.0000      -0.592953       -16.1351
  41   2.0000      -0.573616       -15.6089
  42   2.0000      -0.555051       -15.1037
  43   2.0000      -0.549793       -14.9606
  44   2.0000      -0.542213       -14.7544
  45   2.0000      -0.519674       -14.1410
  46   2.0000      -0.516189       -14.0462
  47   2.0000      -0.510260       -13.8849
  48   2.0000      -0.501238       -13.6394
  49   2.0000      -0.496369       -13.5069
  50   2.0000      -0.493062       -13.4169
  51   2.0000      -0.486006       -13.2249
  52   2.0000      -0.479976       -13.0608
  53   2.0000      -0.465982       -12.6800
  54   2.0000      -0.459008       -12.4902
  55   2.0000      -0.447534       -12.1780
  56   2.0000      -0.437701       -11.9104
  57   2.0000      -0.436120       -11.8674
  58   2.0000      -0.432117       -11.7585
  59   2.0000      -0.429333       -11.6828
  60   2.0000      -0.422026       -11.4839
  61   2.0000      -0.418320       -11.3831
  62   2.0000      -0.412020       -11.2116
  63   2.0000      -0.350044        -9.5252
  64   2.0000      -0.329986        -8.9794
  65   2.0000      -0.324641        -8.8339
  66   2.0000      -0.296936        -8.0800
  67   0.0000       0.032794         0.8924
  68   0.0000       0.074278         2.0212
  69   0.0000       0.108468         2.9516
  70   0.0000       0.122744         3.3400
  71   0.0000       0.130897         3.5619

MULLIKEN ATOMIC CHARGES
-----------------------
   0 S :    0.124758
   1 C :   -0.118504
   2 C :   -0.087531
   3 C :    0.026991
   4 C :   -0.175073
   5 H :    0.014883
   6 C :    0.102523
   7 H :    0.032099
   8 H :    0.010490
   9 C :   -0.072141
  10 H :    0.022179
  11 H :    0.019737
  12 C :   -0.071057
  13 H :    0.035561
  14 H :    0.041979
  15 H :    0.036403
  16 S :    0.079450
  17 C :   -0.084178
  18 C :   -0.029871
  19 C :   -0.052215
  20 C :   -0.142835
  21 H :    0.024892
  22 C :    0.043222
  23 H :    0.046729
  24 H :    0.034477
  25 C :   -0.075653
  26 H :    0.026997
  27 H :    0.037457
  28 C :   -0.061382
  29 H :    0.023500
  30 H :    0.042444
  31 H :    0.041115
  32 H :    0.049964
  33 H :    0.052589
Sum of atomic charges:   -0.0000000

LOEWDIN ATOMIC CHARGES
----------------------
   0 S :    0.428484
   1 C :   -0.214904
   2 C :   -0.055199
   3 C :   -0.061966
   4 C :   -0.197024
   5 H :    0.039903
   6 C :   -0.029727
   7 H :    0.032806
   8 H :    0.022378
   9 C :   -0.043098
  10 H :    0.023458
  11 H :    0.018528
  12 C :   -0.069515
  13 H :    0.027384
  14 H :    0.034157
  15 H :    0.023449
  16 S :    0.363844
  17 C :   -0.167382
  18 C :   -0.072371
  19 C :   -0.059718
  20 C :   -0.189446
  21 H :    0.033133
  22 C :   -0.025642
  23 H :    0.036343
  24 H :    0.032617
  25 C :   -0.037612
  26 H :    0.018895
  27 H :    0.022623
  28 C :   -0.069401
  29 H :    0.015489
  30 H :    0.035015
  31 H :    0.026724
  32 H :    0.028391
  33 H :    0.029384

  Mayer bond orders larger than 0.100000
B(  0-S ,  1-C ) :   1.1366 B(  0-S ,  4-C ) :   1.1611 B(  1-C ,  2-C ) :   1.6424
B(  1-C , 32-H ) :   0.9662 B(  2-C ,  3-C ) :   1.2013 B(  2-C ,  6-C ) :   1.0062
B(  3-C ,  4-C ) :   1.5979 B(  3-C ,  5-H ) :   0.9905 B(  4-C , 20-C ) :   1.0126
B(  6-C ,  7-H ) :   0.9318 B(  6-C ,  8-H ) :   0.9495 B(  6-C ,  9-C ) :   1.0618
B(  9-C , 10-H ) :   0.9552 B(  9-C , 11-H ) :   0.9578 B(  9-C , 12-C ) :   1.0747
B( 12-C , 13-H ) :   0.9768 B( 12-C , 14-H ) :   0.9750 B( 12-C , 15-H ) :   0.9778
B( 16-S , 17-C ) :   1.1121 B( 16-S , 20-C ) :   1.1323 B( 17-C , 18-C ) :   1.6700
B( 17-C , 33-H ) :   0.9710 B( 18-C , 19-C ) :   1.1872 B( 18-C , 21-H ) :   0.9831
B( 19-C , 20-C ) :   1.6384 B( 19-C , 22-C ) :   1.0375 B( 22-C , 23-H ) :   0.9485
B( 22-C , 24-H ) :   0.9351 B( 22-C , 25-C ) :   1.0560 B( 25-C , 26-H ) :   0.9632
B( 25-C , 27-H ) :   0.9531 B( 25-C , 28-C ) :   1.0620 B( 28-C , 29-H ) :   0.9801
B( 28-C , 30-H ) :   0.9745 B( 28-C , 31-H ) :   0.9790

Dispersion correction           -0.014254707
FINAL SINGLE POINT ENERGY     -1339.872812816236

DIPOLE MOMENT
-------------
                                X             Y             Z
Electronic contribution:     18.23520      15.91542     -18.15299
Nuclear contribution   :    -18.52744     -16.37404      18.55325
                        -----------------------------------------
Total Dipole Moment    :     -0.29224      -0.45862       0.40026
                        -----------------------------------------
Magnitude (a.u.)       :      0.67524
Magnitude (Debye)      :      1.71633

Rotational constants in cm-1:     0.019401     0.008122     0.006056
Rotational constants in MHz :   581.633826   243.496025   181.539690

                             ****ORCA TERMINATED NORMALLY****
TOTAL RUN TIME: 0 days 0 hours 0 minutes 32 seconds 933 msec
