                         Program Version 4.2.1 -  RELEASE  -
|  1> ! wB97X-D3 SP def2-SVP
|  2> %pal
|  3> nprocs 16
|  4> end
|  5>
|  6> * xyz 0 1
|  7> S 	 -81.8143 	 45.1463 	 123.538
|  8> C 	 -82.7807 	 43.8224 	 124.144
|  9> C 	 -82.5435 	 43.6785 	 125.491
| 10> C 	 -81.4532 	 44.4206 	 125.943
| 11> C 	 -80.8672 	 45.2255 	 124.968
| 12> H 	 -80.9856 	 44.5101 	 126.955
| 13> C 	 -83.2348 	 42.6748 	 126.395
| 14> H 	 -83.8554 	 41.9942 	 125.842
| 15> H 	 -83.8438 	 43.2307 	 127.147
| 16> C 	 -82.3439 	 41.7132 	 127.149
| 17> H 	 -81.539 	 42.2199 	 127.617
| 18> H 	 -82.8562 	 41.2884 	 127.955
| 19> C 	 -81.7001 	 40.5829 	 126.373
| 20> H 	 -82.4209 	 39.8266 	 126.084
| 21> H 	 -81.1477 	 41.0548 	 125.491
| 22> H 	 -80.944 	 40.1097 	 127.001
| 23> S 	 -79.6595 	 47.7328 	 124.949
| 24> C 	 -78.0157 	 47.921 	 125.423
| 25> C 	 -77.4844 	 46.6797 	 125.712
| 26> C 	 -78.3619 	 45.5685 	 125.707
| 27> C 	 -79.6192 	 45.9928 	 125.192
| 28> H 	 -76.4028 	 46.6417 	 125.981
| 29> C 	 -78.0022 	 44.1251 	 125.852
| 30> H 	 -77.1165 	 44.0245 	 125.267
| 31> H 	 -78.744 	 43.4305 	 125.402
| 32> C 	 -77.8468 	 43.7297 	 127.316
| 33> H 	 -78.9153 	 43.5185 	 127.569
| 34> H 	 -77.4797 	 44.6553 	 127.817
| 35> C 	 -77.0682 	 42.429 	 127.601
| 36> H 	 -77.1875 	 41.9495 	 128.536
| 37> H 	 -76.0286 	 42.5201 	 127.393
| 38> H 	 -77.5369 	 41.6715 	 126.964
| 39> H 	 -83.4706 	 43.2427 	 123.562
| 40> H 	 -77.3495 	 48.7847 	 125.339
| 41> *
| 42>
| 43>                          ****END OF INPUT****

CARTESIAN COORDINATES (ANGSTROEM)
---------------------------------
  S    -81.814300   45.146300  123.538000
  C    -82.780700   43.822400  124.144000
  C    -82.543500   43.678500  125.491000
  C    -81.453200   44.420600  125.943000
  C    -80.867200   45.225500  124.968000
  H    -80.985600   44.510100  126.955000
  C    -83.234800   42.674800  126.395000
  H    -83.855400   41.994200  125.842000
  H    -83.843800   43.230700  127.147000
  C    -82.343900   41.713200  127.149000
  H    -81.539000   42.219900  127.617000
  H    -82.856200   41.288400  127.955000
  C    -81.700100   40.582900  126.373000
  H    -82.420900   39.826600  126.084000
  H    -81.147700   41.054800  125.491000
  H    -80.944000   40.109700  127.001000
  S    -79.659500   47.732800  124.949000
  C    -78.015700   47.921000  125.423000
  C    -77.484400   46.679700  125.712000
  C    -78.361900   45.568500  125.707000
  C    -79.619200   45.992800  125.192000
  H    -76.402800   46.641700  125.981000
  C    -78.002200   44.125100  125.852000
  H    -77.116500   44.024500  125.267000
  H    -78.744000   43.430500  125.402000
  C    -77.846800   43.729700  127.316000
  H    -78.915300   43.518500  127.569000
  H    -77.479700   44.655300  127.817000
  C    -77.068200   42.429000  127.601000
  H    -77.187500   41.949500  128.536000
  H    -76.028600   42.520100  127.393000
  H    -77.536900   41.671500  126.964000
  H    -83.470600   43.242700  123.562000
  H    -77.349500   48.784700  125.339000

 Total Charge           Charge          ....    0
 Multiplicity           Mult            ....    1
 Number of Electrons    NEL             ....  134
 Basis Dimension        Dim             ....  322

ORBITAL ENERGIES
----------------

  NO   OCC          E(Eh)            E(eV)
   0   2.0000     -88.968063     -2420.9441
   1   2.0000     -88.967263     -2420.9223
   2   2.0000     -10.332440      -281.1600
   3   2.0000     -10.329292      -281.0743
   4   2.0000     -10.316298      -280.7207
   5   2.0000     -10.315187      -280.6905
   6   2.0000     -10.306747      -280.4609
   7   2.0000     -10.300212      -280.2830
   8   2.0000     -10.296069      -280.1703
   9   2.0000     -10.293898      -280.1112
  10   2.0000     -10.291841      -280.0552
  11   2.0000     -10.291451      -280.0446
  12   2.0000     -10.288152      -279.9549
  13   2.0000     -10.279827      -279.7283
  14   2.0000     -10.275564      -279.6123
  15   2.0000     -10.273603      -279.5590
  16   2.0000      -8.083316      -219.9582
  17   2.0000      -8.082165      -219.9269
  18   2.0000      -6.041744      -164.4042
  19   2.0000      -6.040571      -164.3723
  20   2.0000      -6.037666      -164.2932
  21   2.0000      -6.036558      -164.2631
  22   2.0000      -6.034197      -164.1989
  23   2.0000      -6.033116      -164.1694
  24   2.0000      -1.011298       -27.5188
  25   2.0000      -0.990740       -26.9594
  26   2.0000      -0.918233       -24.9864
  27   2.0000      -0.914372       -24.8813
  28   2.0000      -0.869887       -23.6708
  29   2.0000      -0.853438       -23.2232
  30   2.0000      -0.848160       -23.0796
  31   2.0000      -0.814542       -22.1648
  32   2.0000      -0.787382       -21.4257
  33   2.0000      -0.777485       -21.1564
  34   2.0000      -0.708373       -19.2758
  35   2.0000      -0.697208       -18.9720
  36   2.0000      -0.693746       -18.8778
  37   2.0000      -0.653444       -17.7811
  38   2.0000      -0.642668       -17.4879
  39   2.0000      -0.623318       -16.9613
  40   2.0000      -0.600320       -16.3355
  41   2.0000      -0.572920       -15.5899
  42   2.0000      -0.566130       -15.4052
  43   2.0000      -0.558113       -15.1870
  44   2.0000      -0.539505       -14.6807
  45   2.0000      -0.527208       -14.3461
  46   2.0000      -0.521446       -14.1893
  47   2.0000      -0.513019       -13.9600
  48   2.0000      -0.511137       -13.9087
  49   2.0000      -0.504672       -13.7328
  50   2.0000      -0.485375       -13.2077
  51   2.0000      -0.483800       -13.1649
  52   2.0000      -0.473568       -12.8864
  53   2.0000      -0.469121       -12.7654
  54   2.0000      -0.462585       -12.5876
  55   2.0000      -0.451762       -12.2931
  56   2.0000      -0.443109       -12.0576
  57   2.0000      -0.440005       -11.9731
  58   2.0000      -0.428255       -11.6534
  59   2.0000      -0.420489       -11.4421
  60   2.0000      -0.419719       -11.4211
  61   2.0000      -0.415418       -11.3041
  62   2.0000      -0.412894       -11.2354
  63   2.0000      -0.343673        -9.3518
  64   2.0000      -0.334740        -9.1087
  65   2.0000      -0.331507        -9.0208
  66   2.0000      -0.294530        -8.0146
  67   0.0000       0.029588         0.8051
  68   0.0000       0.066657         1.8138
  69   0.0000       0.111425         3.0320
  70   0.0000       0.119247         3.2449
  71   0.0000       0.125355         3.4111

MULLIKEN ATOMIC CHARGES
-----------------------
   0 S :    0.122146
   1 C :   -0.127123
   2 C :   -0.057999
   3 C :   -0.012131
   4 C :   -0.153158
   5 H :    0.037606
   6 C :    0.097051
   7 H :    0.004602
   8 H :    0.045751
   9 C :   -0.056495
  10 H :    0.004775
  11 H :    0.007555
  12 C :   -0.071317
  13 H :    0.033731
  14 H :    0.046023
  15 H :    0.032441
  16 S :    0.115753
  17 C :   -0.086935
  18 C :   -0.069415
  19 C :   -0.022016
  20 C :   -0.179684
  21 H :    0.028616
  22 C :    0.060896
  23 H :    0.022967
  24 H :    0.040742
  25 C :   -0.114599
  26 H :    0.025791
  27 H :    0.043786
  28 C :   -0.000888
  29 H :    0.025215
  30 H :    0.032658
  31 H :    0.016127
  32 H :    0.044114
  33 H :    0.063412
Sum of atomic charges:   -0.0000000

LOEWDIN ATOMIC CHARGES
----------------------
   0 S :    0.425089
   1 C :   -0.192307
   2 C :   -0.069605
   3 C :   -0.071851
   4 C :   -0.209431
   5 H :    0.040106
   6 C :   -0.026124
   7 H :    0.024515
   8 H :    0.041664
   9 C :   -0.044175
  10 H :    0.014366
  11 H :    0.017620
  12 C :   -0.065541
  13 H :    0.021071
  14 H :    0.033583
  15 H :    0.026829
  16 S :    0.419376
  17 C :   -0.207465
  18 C :   -0.078817
  19 C :   -0.055896
  20 C :   -0.192449
  21 H :    0.035298
  22 C :   -0.032553
  23 H :    0.026316
  24 H :    0.035199
  25 C :   -0.043874
  26 H :    0.026834
  27 H :    0.025398
  28 C :   -0.063922
  29 H :    0.022959
  30 H :    0.021482
  31 H :    0.029674
  32 H :    0.027879
  33 H :    0.038750

  Mayer bond orders larger than 0.100000
B(  0-S ,  1-C ) :   1.1480 B(  0-S ,  4-C ) :   1.1716 B(  1-C ,  2-C ) :   1.5734
B(  1-C ,  4-C ) :   0.1015 B(  1-C , 32-H ) :   0.9767 B(  2-C ,  3-C ) :   1.2475
B(  2-C ,  6-C ) :   1.0294 B(  3-C ,  4-C ) :   1.5426 B(  3-C ,  5-H ) :   0.9891
B(  4-C , 20-C ) :   1.0266 B(  6-C ,  7-H ) :   0.9454 B(  6-C ,  8-H ) :   0.9307
B(  6-C ,  9-C ) :   1.0764 B(  9-C , 10-H ) :   0.9510 B(  9-C , 11-H ) :   0.9461
B(  9-C , 12-C ) :   1.0866 B( 12-C , 13-H ) :   0.9732 B( 12-C , 14-H ) :   0.9753
B( 12-C , 15-H ) :   0.9728 B( 16-S , 17-C ) :   1.1553 B( 16-S , 20-C ) :   1.1692
B( 17-C , 18-C ) :   1.6077 B( 17-C , 20-C ) :   0.1060 B( 17-C , 33-H ) :   0.9630
B( 18-C , 19-C ) :   1.2605 B( 18-C , 21-H ) :   0.9762 B( 19-C , 20-C ) :   1.5480
B( 19-C , 22-C ) :   1.0392 B( 22-C , 23-H ) :   0.9424 B( 22-C , 24-H ) :   0.9358
B( 22-C , 25-C ) :   1.0325 B( 25-C , 26-H ) :   0.9504 B( 25-C , 27-H ) :   0.9675
B( 25-C , 28-C ) :   1.0779 B( 28-C , 29-H ) :   0.9745 B( 28-C , 30-H ) :   0.9778
B( 28-C , 31-H ) :   0.9647

Dispersion correction           -0.015344497
FINAL SINGLE POINT ENERGY     -1339.875479282139

DIPOLE MOMENT
-------------
                                X             Y             Z
Electronic contribution:     -5.98068      27.24671     -16.54106
Nuclear contribution   :      6.17911     -27.80475      16.89968
                        -----------------------------------------
Total Dipole Moment    :      0.19843      -0.55804       0.35862
                        -----------------------------------------
Magnitude (a.u.)       :      0.69238
Magnitude (Debye)      :      1.75989

Rotational constants in cm-1:     0.016790     0.010709     0.007115
Rotational constants in MHz :   503.366199   321.041160   213.307559

                             ****ORCA TERMINATED NORMALLY****
TOTAL RUN TIME: 0 days 0 hours 0 minutes 36 seconds 443 msec
