                         Program Version 4.2.1 -  RELEASE  -
|  1> ! wB97X-D3 SP def2-SVP
|  2> %pal
|  3> nprocs 16
|  4> end
|  5>
|  6> * xyz 0 1
|  7> S 	 -15.0104 	 -3.7304 	 78.2944
|  8> C 	 -13.5021 	 -3.00321 	 78.898
|  9> C 	 -12.7817 	 -3.77123 	 79.8267
| 10> C 	 -13.5725 	 -4.89928 	 80.0895
| 11> C 	 -14.7463 	 -5.06814 	 79.3514
| 12> H 	 -13.3498 	 -5.59402 	 80.8728
| 13> C 	 -11.4422 	 -3.42432 	 80.4464
| 14> H 	 -11.0331 	 -2.40539 	 80.3215
| 15> H 	 -10.7197 	 -4.00823 	 79.9427
| 16> C 	 -11.4216 	 -3.64919 	 81.8938
| 17> H 	 -12.1353 	 -3.01499 	 82.3991
| 18> H 	 -11.754 	 -4.72054 	 82.1517
| 19> C 	 -10.012 	 -3.38143 	 82.5312
| 20> H 	 -9.68265 	 -2.32 	 82.4206
| 21> H 	 -10.06 	 -3.57047 	 83.5979
| 22> H 	 -9.28866 	 -4.02976 	 82.0305
| 23> S 	 -17.3438 	 -5.57629 	 79.899
| 24> C 	 -17.864 	 -7.2846 	 79.9961
| 25> C 	 -16.8528 	 -8.12983 	 79.6711
| 26> C 	 -15.5994 	 -7.46795 	 79.4365
| 27> C 	 -15.7101 	 -6.11308 	 79.4663
| 28> H 	 -17.1385 	 -9.12479 	 79.4397
| 29> C 	 -14.3702 	 -8.21516 	 78.9258
| 30> H 	 -13.5045 	 -7.77591 	 79.4762
| 31> H 	 -14.0973 	 -7.95582 	 77.9001
| 32> C 	 -14.3514 	 -9.74168 	 79.1205
| 33> H 	 -13.3897 	 -10.0527 	 78.6766
| 34> H 	 -15.121 	 -10.0251 	 78.3947
| 35> C 	 -14.5664 	 -10.2587 	 80.5517
| 36> H 	 -15.4929 	 -9.95448 	 81.0401
| 37> H 	 -13.652 	 -9.9589 	 81.0465
| 38> H 	 -14.6306 	 -11.2997 	 80.5252
| 39> H 	 -13.2636 	 -1.93137 	 78.5858
| 40> H 	 -18.8851 	 -7.6011 	 80.1762
| 41> *
| 42>
| 43>                          ****END OF INPUT****

CARTESIAN COORDINATES (ANGSTROEM)
---------------------------------
  S    -15.010400   -3.730400   78.294400
  C    -13.502100   -3.003210   78.898000
  C    -12.781700   -3.771230   79.826700
  C    -13.572500   -4.899280   80.089500
  C    -14.746300   -5.068140   79.351400
  H    -13.349800   -5.594020   80.872800
  C    -11.442200   -3.424320   80.446400
  H    -11.033100   -2.405390   80.321500
  H    -10.719700   -4.008230   79.942700
  C    -11.421600   -3.649190   81.893800
  H    -12.135300   -3.014990   82.399100
  H    -11.754000   -4.720540   82.151700
  C    -10.012000   -3.381430   82.531200
  H     -9.682650   -2.320000   82.420600
  H    -10.060000   -3.570470   83.597900
  H     -9.288660   -4.029760   82.030500
  S    -17.343800   -5.576290   79.899000
  C    -17.864000   -7.284600   79.996100
  C    -16.852800   -8.129830   79.671100
  C    -15.599400   -7.467950   79.436500
  C    -15.710100   -6.113080   79.466300
  H    -17.138500   -9.124790   79.439700
  C    -14.370200   -8.215160   78.925800
  H    -13.504500   -7.775910   79.476200
  H    -14.097300   -7.955820   77.900100
  C    -14.351400   -9.741680   79.120500
  H    -13.389700  -10.052700   78.676600
  H    -15.121000  -10.025100   78.394700
  C    -14.566400  -10.258700   80.551700
  H    -15.492900   -9.954480   81.040100
  H    -13.652000   -9.958900   81.046500
  H    -14.630600  -11.299700   80.525200
  H    -13.263600   -1.931370   78.585800
  H    -18.885100   -7.601100   80.176200

 Total Charge           Charge          ....    0
 Multiplicity           Mult            ....    1
 Number of Electrons    NEL             ....  134
 Basis Dimension        Dim             ....  322

ORBITAL ENERGIES
----------------

  NO   OCC          E(Eh)            E(eV)
   0   2.0000     -88.967622     -2420.9321
   1   2.0000     -88.960694     -2420.7436
   2   2.0000     -10.322894      -280.9002
   3   2.0000     -10.320862      -280.8449
   4   2.0000     -10.320109      -280.8244
   5   2.0000     -10.316344      -280.7220
   6   2.0000     -10.305041      -280.4144
   7   2.0000     -10.301049      -280.3058
   8   2.0000     -10.291699      -280.0514
   9   2.0000     -10.290897      -280.0295
  10   2.0000     -10.289898      -280.0024
  11   2.0000     -10.289734      -279.9979
  12   2.0000     -10.289692      -279.9967
  13   2.0000     -10.288375      -279.9609
  14   2.0000     -10.284946      -279.8676
  15   2.0000     -10.274167      -279.5743
  16   2.0000      -8.082335      -219.9315
  17   2.0000      -8.074905      -219.7293
  18   2.0000      -6.040632      -164.3740
  19   2.0000      -6.036884      -164.2720
  20   2.0000      -6.033519      -164.1804
  21   2.0000      -6.033279      -164.1739
  22   2.0000      -6.029597      -164.0737
  23   2.0000      -6.025467      -163.9613
  24   2.0000      -1.006968       -27.4010
  25   2.0000      -0.981177       -26.6992
  26   2.0000      -0.922876       -25.1127
  27   2.0000      -0.906002       -24.6536
  28   2.0000      -0.871953       -23.7271
  29   2.0000      -0.850250       -23.1365
  30   2.0000      -0.841129       -22.8883
  31   2.0000      -0.811352       -22.0780
  32   2.0000      -0.788620       -21.4594
  33   2.0000      -0.776292       -21.1240
  34   2.0000      -0.709842       -19.3158
  35   2.0000      -0.694969       -18.9111
  36   2.0000      -0.689037       -18.7497
  37   2.0000      -0.657197       -17.8832
  38   2.0000      -0.643577       -17.5126
  39   2.0000      -0.624078       -16.9820
  40   2.0000      -0.596830       -16.2406
  41   2.0000      -0.571505       -15.5514
  42   2.0000      -0.565266       -15.3817
  43   2.0000      -0.556318       -15.1382
  44   2.0000      -0.538070       -14.6416
  45   2.0000      -0.528432       -14.3794
  46   2.0000      -0.513585       -13.9754
  47   2.0000      -0.507722       -13.8158
  48   2.0000      -0.503180       -13.6922
  49   2.0000      -0.498677       -13.5697
  50   2.0000      -0.488191       -13.2843
  51   2.0000      -0.483552       -13.1581
  52   2.0000      -0.470474       -12.8022
  53   2.0000      -0.462238       -12.5781
  54   2.0000      -0.460026       -12.5179
  55   2.0000      -0.448503       -12.2044
  56   2.0000      -0.444950       -12.1077
  57   2.0000      -0.442672       -12.0457
  58   2.0000      -0.437484       -11.9045
  59   2.0000      -0.427557       -11.6344
  60   2.0000      -0.416323       -11.3287
  61   2.0000      -0.412886       -11.2352
  62   2.0000      -0.409121       -11.1328
  63   2.0000      -0.341806        -9.3010
  64   2.0000      -0.336221        -9.1490
  65   2.0000      -0.326773        -8.8920
  66   2.0000      -0.288911        -7.8617
  67   0.0000       0.029934         0.8145
  68   0.0000       0.068526         1.8647
  69   0.0000       0.109069         2.9679
  70   0.0000       0.125264         3.4086
  71   0.0000       0.131826         3.5872

MULLIKEN ATOMIC CHARGES
-----------------------
   0 S :    0.118113
   1 C :   -0.172283
   2 C :   -0.045641
   3 C :    0.021117
   4 C :   -0.174869
   5 H :    0.002866
   6 C :    0.133419
   7 H :    0.018239
   8 H :    0.022806
   9 C :   -0.147318
  10 H :    0.035028
  11 H :    0.039779
  12 C :   -0.048989
  13 H :    0.036845
  14 H :    0.039912
  15 H :    0.032498
  16 S :    0.088495
  17 C :   -0.090686
  18 C :   -0.037419
  19 C :   -0.018632
  20 C :   -0.146387
  21 H :    0.016942
  22 C :    0.051446
  23 H :    0.010979
  24 H :    0.040476
  25 C :   -0.097491
  26 H :    0.032107
  27 H :    0.024791
  28 C :   -0.008249
  29 H :    0.043958
  30 H :    0.034051
  31 H :    0.021043
  32 H :    0.069438
  33 H :    0.053615
Sum of atomic charges:   -0.0000000

LOEWDIN ATOMIC CHARGES
----------------------
   0 S :    0.409420
   1 C :   -0.196004
   2 C :   -0.057265
   3 C :   -0.058773
   4 C :   -0.209465
   5 H :    0.024097
   6 C :   -0.031439
   7 H :    0.036358
   8 H :    0.029726
   9 C :   -0.045273
  10 H :    0.023911
  11 H :    0.027664
  12 C :   -0.064862
  13 H :    0.027749
  14 H :    0.027084
  15 H :    0.024194
  16 S :    0.371572
  17 C :   -0.166073
  18 C :   -0.072031
  19 C :   -0.055755
  20 C :   -0.189954
  21 H :    0.029010
  22 C :   -0.037279
  23 H :    0.028402
  24 H :    0.035787
  25 C :   -0.044894
  26 H :    0.030056
  27 H :    0.019270
  28 C :   -0.058834
  29 H :    0.029751
  30 H :    0.029954
  31 H :    0.020619
  32 H :    0.034424
  33 H :    0.028852

  Mayer bond orders larger than 0.100000
B(  0-S ,  1-C ) :   1.1540 B(  0-S ,  4-C ) :   1.1550 B(  1-C ,  2-C ) :   1.5841
B(  1-C ,  4-C ) :   0.1058 B(  1-C , 32-H ) :   0.9580 B(  2-C ,  3-C ) :   1.2690
B(  2-C ,  6-C ) :   1.0065 B(  3-C ,  4-C ) :   1.5642 B(  3-C ,  5-H ) :   0.9882
B(  4-C , 20-C ) :   1.0422 B(  6-C ,  7-H ) :   0.9420 B(  6-C ,  8-H ) :   0.9253
B(  6-C ,  9-C ) :   1.0645 B(  9-C , 10-H ) :   0.9577 B(  9-C , 11-H ) :   0.9490
B(  9-C , 12-C ) :   1.0832 B( 12-C , 13-H ) :   0.9736 B( 12-C , 14-H ) :   0.9749
B( 12-C , 15-H ) :   0.9754 B( 16-S , 17-C ) :   1.1320 B( 16-S , 20-C ) :   1.1203
B( 17-C , 18-C ) :   1.6602 B( 17-C , 33-H ) :   0.9626 B( 18-C , 19-C ) :   1.1927
B( 18-C , 21-H ) :   0.9836 B( 19-C , 20-C ) :   1.6556 B( 19-C , 22-C ) :   1.0259
B( 22-C , 23-H ) :   0.9222 B( 22-C , 24-H ) :   0.9368 B( 22-C , 25-C ) :   1.0830
B( 25-C , 26-H ) :   0.9547 B( 25-C , 27-H ) :   0.9488 B( 25-C , 28-C ) :   1.0682
B( 28-C , 29-H ) :   0.9713 B( 28-C , 30-H ) :   0.9742 B( 28-C , 31-H ) :   0.9710

Dispersion correction           -0.013828717
FINAL SINGLE POINT ENERGY     -1339.873568329439

DIPOLE MOMENT
-------------
                                X             Y             Z
Electronic contribution:    -22.51472      11.61361     -11.44881
Nuclear contribution   :     23.03121     -11.94359      11.61137
                        -----------------------------------------
Total Dipole Moment    :      0.51649      -0.32998       0.16256
                        -----------------------------------------
Magnitude (a.u.)       :      0.63409
Magnitude (Debye)      :      1.61173

Rotational constants in cm-1:     0.017947     0.008273     0.006527
Rotational constants in MHz :   538.037141   248.028372   195.682915

                             ****ORCA TERMINATED NORMALLY****
TOTAL RUN TIME: 0 days 0 hours 0 minutes 33 seconds 165 msec
