                         Program Version 4.2.1 -  RELEASE  -
|  1> ! wB97X-D3 SP def2-SVP
|  2> %pal
|  3> nprocs 16
|  4> end
|  5>
|  6> * xyz 0 1
|  7> S 	 -46.4806 	 60.9117 	 133.962
|  8> C 	 -45.6012 	 59.5282 	 134.661
|  9> C 	 -46.5643 	 58.5913 	 135.099
| 10> C 	 -47.898 	 59.0815 	 135.066
| 11> C 	 -48.0256 	 60.3116 	 134.534
| 12> H 	 -48.664 	 58.6103 	 135.572
| 13> C 	 -46.2201 	 57.2469 	 135.737
| 14> H 	 -46.5508 	 57.328 	 136.776
| 15> H 	 -45.188 	 56.9944 	 135.717
| 16> C 	 -47.0406 	 56.0127 	 135.12
| 17> H 	 -48.0898 	 56.3808 	 134.977
| 18> H 	 -46.703 	 55.7498 	 134.134
| 19> C 	 -47.0548 	 54.8149 	 136.063
| 20> H 	 -46.0439 	 54.5881 	 136.439
| 21> H 	 -47.7419 	 54.9737 	 136.941
| 22> H 	 -47.4109 	 54.0216 	 135.531
| 23> S 	 -49.6916 	 61.5212 	 132.636
| 24> C 	 -51.3429 	 61.9239 	 133
| 25> C 	 -51.5174 	 61.5681 	 134.289
| 26> C 	 -50.451 	 60.9793 	 135.017
| 27> C 	 -49.3311 	 60.9248 	 134.271
| 28> H 	 -52.5581 	 61.8358 	 134.598
| 29> C 	 -50.6626 	 60.6448 	 136.506
| 30> H 	 -50.3788 	 59.5723 	 136.822
| 31> H 	 -51.7727 	 60.5511 	 136.622
| 32> C 	 -50.0706 	 61.6629 	 137.424
| 33> H 	 -50.6536 	 62.6219 	 137.357
| 34> H 	 -49.0633 	 61.8456 	 137.101
| 35> C 	 -49.9559 	 61.2602 	 138.884
| 36> H 	 -49.3781 	 62.0036 	 139.386
| 37> H 	 -49.5712 	 60.1821 	 139.073
| 38> H 	 -50.922 	 61.2469 	 139.409
| 39> H 	 -44.5111 	 59.5983 	 134.792
| 40> H 	 -51.9807 	 62.3281 	 132.234
| 41> *
| 42>
| 43>                          ****END OF INPUT****

CARTESIAN COORDINATES (ANGSTROEM)
---------------------------------
  S    -46.480600   60.911700  133.962000
  C    -45.601200   59.528200  134.661000
  C    -46.564300   58.591300  135.099000
  C    -47.898000   59.081500  135.066000
  C    -48.025600   60.311600  134.534000
  H    -48.664000   58.610300  135.572000
  C    -46.220100   57.246900  135.737000
  H    -46.550800   57.328000  136.776000
  H    -45.188000   56.994400  135.717000
  C    -47.040600   56.012700  135.120000
  H    -48.089800   56.380800  134.977000
  H    -46.703000   55.749800  134.134000
  C    -47.054800   54.814900  136.063000
  H    -46.043900   54.588100  136.439000
  H    -47.741900   54.973700  136.941000
  H    -47.410900   54.021600  135.531000
  S    -49.691600   61.521200  132.636000
  C    -51.342900   61.923900  133.000000
  C    -51.517400   61.568100  134.289000
  C    -50.451000   60.979300  135.017000
  C    -49.331100   60.924800  134.271000
  H    -52.558100   61.835800  134.598000
  C    -50.662600   60.644800  136.506000
  H    -50.378800   59.572300  136.822000
  H    -51.772700   60.551100  136.622000
  C    -50.070600   61.662900  137.424000
  H    -50.653600   62.621900  137.357000
  H    -49.063300   61.845600  137.101000
  C    -49.955900   61.260200  138.884000
  H    -49.378100   62.003600  139.386000
  H    -49.571200   60.182100  139.073000
  H    -50.922000   61.246900  139.409000
  H    -44.511100   59.598300  134.792000
  H    -51.980700   62.328100  132.234000

 Total Charge           Charge          ....    0
 Multiplicity           Mult            ....    1
 Number of Electrons    NEL             ....  134
 Basis Dimension        Dim             ....  322

ORBITAL ENERGIES
----------------

  NO   OCC          E(Eh)            E(eV)
   0   2.0000     -88.964384     -2420.8440
   1   2.0000     -88.956010     -2420.6161
   2   2.0000     -10.329319      -281.0751
   3   2.0000     -10.328485      -281.0524
   4   2.0000     -10.323447      -280.9153
   5   2.0000     -10.313338      -280.6402
   6   2.0000     -10.307503      -280.4814
   7   2.0000     -10.301580      -280.3202
   8   2.0000     -10.301278      -280.3120
   9   2.0000     -10.293844      -280.1097
  10   2.0000     -10.292114      -280.0627
  11   2.0000     -10.290805      -280.0270
  12   2.0000     -10.286304      -279.9046
  13   2.0000     -10.283978      -279.8413
  14   2.0000     -10.281086      -279.7626
  15   2.0000     -10.276977      -279.6508
  16   2.0000      -8.078756      -219.8341
  17   2.0000      -8.071375      -219.6333
  18   2.0000      -6.037408      -164.2862
  19   2.0000      -6.033220      -164.1723
  20   2.0000      -6.029915      -164.0823
  21   2.0000      -6.029472      -164.0703
  22   2.0000      -6.025711      -163.9679
  23   2.0000      -6.022119      -163.8702
  24   2.0000      -1.010552       -27.4985
  25   2.0000      -0.987070       -26.8596
  26   2.0000      -0.911832       -24.8122
  27   2.0000      -0.905319       -24.6350
  28   2.0000      -0.872909       -23.7531
  29   2.0000      -0.852688       -23.2028
  30   2.0000      -0.844822       -22.9888
  31   2.0000      -0.818102       -22.2617
  32   2.0000      -0.780686       -21.2436
  33   2.0000      -0.772564       -21.0225
  34   2.0000      -0.708459       -19.2782
  35   2.0000      -0.696404       -18.9501
  36   2.0000      -0.690216       -18.7817
  37   2.0000      -0.662208       -18.0196
  38   2.0000      -0.644681       -17.5427
  39   2.0000      -0.629799       -17.1377
  40   2.0000      -0.599944       -16.3253
  41   2.0000      -0.563832       -15.3426
  42   2.0000      -0.561619       -15.2824
  43   2.0000      -0.558355       -15.1936
  44   2.0000      -0.530774       -14.4431
  45   2.0000      -0.526708       -14.3324
  46   2.0000      -0.524675       -14.2771
  47   2.0000      -0.517139       -14.0721
  48   2.0000      -0.510822       -13.9002
  49   2.0000      -0.499537       -13.5931
  50   2.0000      -0.497558       -13.5393
  51   2.0000      -0.481261       -13.0958
  52   2.0000      -0.470269       -12.7967
  53   2.0000      -0.463390       -12.6095
  54   2.0000      -0.459390       -12.5006
  55   2.0000      -0.446305       -12.1446
  56   2.0000      -0.440621       -11.9899
  57   2.0000      -0.439128       -11.9493
  58   2.0000      -0.431270       -11.7355
  59   2.0000      -0.422498       -11.4967
  60   2.0000      -0.414335       -11.2746
  61   2.0000      -0.411407       -11.1949
  62   2.0000      -0.403000       -10.9662
  63   2.0000      -0.355502        -9.6737
  64   2.0000      -0.329582        -8.9684
  65   2.0000      -0.328683        -8.9439
  66   2.0000      -0.293854        -7.9962
  67   0.0000       0.029855         0.8124
  68   0.0000       0.072351         1.9688
  69   0.0000       0.116009         3.1568
  70   0.0000       0.118112         3.2140
  71   0.0000       0.135007         3.6737

MULLIKEN ATOMIC CHARGES
-----------------------
   0 S :    0.092822
   1 C :   -0.149216
   2 C :   -0.058815
   3 C :    0.039479
   4 C :   -0.119822
   5 H :   -0.018248
   6 C :    0.067703
   7 H :    0.032841
   8 H :    0.017801
   9 C :   -0.114627
  10 H :    0.030840
  11 H :    0.032467
  12 C :   -0.016651
  13 H :    0.032023
  14 H :    0.036892
  15 H :    0.015733
  16 S :    0.073307
  17 C :   -0.106494
  18 C :   -0.052657
  19 C :   -0.004472
  20 C :   -0.138366
  21 H :    0.027186
  22 C :    0.029027
  23 H :    0.030430
  24 H :    0.022124
  25 C :   -0.048159
  26 H :    0.038078
  27 H :    0.033832
  28 C :   -0.057654
  29 H :    0.034205
  30 H :    0.038195
  31 H :    0.024419
  32 H :    0.072043
  33 H :    0.063737
Sum of atomic charges:   -0.0000000

LOEWDIN ATOMIC CHARGES
----------------------
   0 S :    0.386604
   1 C :   -0.191184
   2 C :   -0.054577
   3 C :   -0.054998
   4 C :   -0.185423
   5 H :    0.018537
   6 C :   -0.027085
   7 H :    0.032651
   8 H :    0.022161
   9 C :   -0.036345
  10 H :    0.025595
  11 H :    0.020698
  12 C :   -0.060238
  13 H :    0.026412
  14 H :    0.031577
  15 H :    0.013943
  16 S :    0.384639
  17 C :   -0.184818
  18 C :   -0.081384
  19 C :   -0.069985
  20 C :   -0.172929
  21 H :    0.036620
  22 C :   -0.037268
  23 H :    0.031501
  24 H :    0.032348
  25 C :   -0.045717
  26 H :    0.035231
  27 H :    0.025998
  28 C :   -0.070929
  29 H :    0.024434
  30 H :    0.032491
  31 H :    0.022390
  32 H :    0.035907
  33 H :    0.033144

  Mayer bond orders larger than 0.100000
B(  0-S ,  1-C ) :   1.1292 B(  0-S ,  4-C ) :   1.1455 B(  1-C ,  2-C ) :   1.5830
B(  1-C , 32-H ) :   0.9742 B(  2-C ,  3-C ) :   1.2430 B(  2-C ,  6-C ) :   1.0310
B(  3-C ,  4-C ) :   1.5748 B(  3-C ,  5-H ) :   1.0009 B(  4-C , 20-C ) :   1.0318
B(  6-C ,  7-H ) :   0.9448 B(  6-C ,  8-H ) :   0.9479 B(  6-C ,  9-C ) :   1.0422
B(  9-C , 10-H ) :   0.9600 B(  9-C , 11-H ) :   0.9602 B(  9-C , 12-C ) :   1.0819
B( 12-C , 13-H ) :   0.9744 B( 12-C , 14-H ) :   0.9739 B( 12-C , 15-H ) :   0.9719
B( 16-S , 17-C ) :   1.1405 B( 16-S , 20-C ) :   1.1423 B( 17-C , 18-C ) :   1.6168
B( 17-C , 33-H ) :   0.9762 B( 18-C , 19-C ) :   1.2234 B( 18-C , 21-H ) :   0.9836
B( 19-C , 20-C ) :   1.6243 B( 19-C , 22-C ) :   1.0279 B( 22-C , 23-H ) :   0.9376
B( 22-C , 24-H ) :   0.9284 B( 22-C , 25-C ) :   1.0701 B( 25-C , 26-H ) :   0.9438
B( 25-C , 27-H ) :   0.9583 B( 25-C , 28-C ) :   1.0884 B( 28-C , 29-H ) :   0.9728
B( 28-C , 30-H ) :   0.9716 B( 28-C , 31-H ) :   0.9732

Dispersion correction           -0.013843128
FINAL SINGLE POINT ENERGY     -1339.867099383537

DIPOLE MOMENT
-------------
                                X             Y             Z
Electronic contribution:      3.01196      17.53473     -22.73388
Nuclear contribution   :     -3.23903     -17.94629      23.28943
                        -----------------------------------------
Total Dipole Moment    :     -0.22707      -0.41156       0.55555
                        -----------------------------------------
Magnitude (a.u.)       :      0.72772
Magnitude (Debye)      :      1.84972

Rotational constants in cm-1:     0.016266     0.008721     0.007286
Rotational constants in MHz :   487.641055   261.455128   218.420892

                             ****ORCA TERMINATED NORMALLY****
TOTAL RUN TIME: 0 days 0 hours 0 minutes 34 seconds 427 msec
