                         Program Version 4.2.1 -  RELEASE  -
|  1> ! wB97X-D3 SP def2-SVP
|  2> %pal
|  3> nprocs 16
|  4> end
|  5>
|  6> * xyz 0 1
|  7> S 	 36.2102 	 7.86704 	 90.0229
|  8> C 	 35.4258 	 6.9396 	 88.784
|  9> C 	 36.3561 	 6.3616 	 87.9644
| 10> C 	 37.7496 	 6.67472 	 88.3674
| 11> C 	 37.7915 	 7.48631 	 89.45
| 12> H 	 38.7152 	 6.40535 	 87.8774
| 13> C 	 35.9866 	 5.46531 	 86.8526
| 14> H 	 36.6532 	 5.75178 	 86.0382
| 15> H 	 34.8876 	 5.77641 	 86.542
| 16> C 	 36.1311 	 3.92562 	 87.0787
| 17> H 	 35.2943 	 3.5507 	 87.81
| 18> H 	 35.838 	 3.47059 	 86.1284
| 19> C 	 37.5147 	 3.37167 	 87.319
| 20> H 	 37.5426 	 2.35955 	 87.7505
| 21> H 	 38.2173 	 3.43596 	 86.489
| 22> H 	 37.9468 	 4.09337 	 88.0519
| 23> S 	 39.0974 	 7.48561 	 91.8724
| 24> C 	 40.6413 	 8.34427 	 91.9631
| 25> C 	 41.0459 	 8.9608 	 90.7944
| 26> C 	 40.1384 	 8.69257 	 89.6959
| 27> C 	 38.9604 	 8.00886 	 90.1844
| 28> H 	 42.0516 	 9.413 	 90.7831
| 29> C 	 40.41 	 9.21229 	 88.3085
| 30> H 	 39.4185 	 9.35963 	 87.9639
| 31> H 	 40.8526 	 8.43622 	 87.6721
| 32> C 	 41.1767 	 10.5274 	 88.2035
| 33> H 	 42.1327 	 10.4618 	 88.6148
| 34> H 	 40.647 	 11.1528 	 88.8884
| 35> C 	 41.2839 	 11.1676 	 86.8482
| 36> H 	 41.9576 	 10.6341 	 86.2212
| 37> H 	 41.6268 	 12.2239 	 87.0362
| 38> H 	 40.3184 	 11.2437 	 86.3607
| 39> H 	 34.4084 	 6.77087 	 88.6507
| 40> H 	 41.2822 	 8.4126 	 92.7456
| 41> *
| 42>
| 43>                          ****END OF INPUT****

CARTESIAN COORDINATES (ANGSTROEM)
---------------------------------
  S     36.210200    7.867040   90.022900
  C     35.425800    6.939600   88.784000
  C     36.356100    6.361600   87.964400
  C     37.749600    6.674720   88.367400
  C     37.791500    7.486310   89.450000
  H     38.715200    6.405350   87.877400
  C     35.986600    5.465310   86.852600
  H     36.653200    5.751780   86.038200
  H     34.887600    5.776410   86.542000
  C     36.131100    3.925620   87.078700
  H     35.294300    3.550700   87.810000
  H     35.838000    3.470590   86.128400
  C     37.514700    3.371670   87.319000
  H     37.542600    2.359550   87.750500
  H     38.217300    3.435960   86.489000
  H     37.946800    4.093370   88.051900
  S     39.097400    7.485610   91.872400
  C     40.641300    8.344270   91.963100
  C     41.045900    8.960800   90.794400
  C     40.138400    8.692570   89.695900
  C     38.960400    8.008860   90.184400
  H     42.051600    9.413000   90.783100
  C     40.410000    9.212290   88.308500
  H     39.418500    9.359630   87.963900
  H     40.852600    8.436220   87.672100
  C     41.176700   10.527400   88.203500
  H     42.132700   10.461800   88.614800
  H     40.647000   11.152800   88.888400
  C     41.283900   11.167600   86.848200
  H     41.957600   10.634100   86.221200
  H     41.626800   12.223900   87.036200
  H     40.318400   11.243700   86.360700
  H     34.408400    6.770870   88.650700
  H     41.282200    8.412600   92.745600

 Total Charge           Charge          ....    0
 Multiplicity           Mult            ....    1
 Number of Electrons    NEL             ....  134
 Basis Dimension        Dim             ....  322

ORBITAL ENERGIES
----------------

  NO   OCC          E(Eh)            E(eV)
   0   2.0000     -88.971962     -2421.0502
   1   2.0000     -88.960982     -2420.7514
   2   2.0000     -10.333810      -281.1973
   3   2.0000     -10.325608      -280.9741
   4   2.0000     -10.313960      -280.6571
   5   2.0000     -10.311083      -280.5788
   6   2.0000     -10.305929      -280.4386
   7   2.0000     -10.300116      -280.2804
   8   2.0000     -10.299884      -280.2741
   9   2.0000     -10.298167      -280.2274
  10   2.0000     -10.296178      -280.1732
  11   2.0000     -10.295215      -280.1470
  12   2.0000     -10.287872      -279.9472
  13   2.0000     -10.279061      -279.7075
  14   2.0000     -10.278695      -279.6975
  15   2.0000     -10.276947      -279.6499
  16   2.0000      -8.085597      -220.0203
  17   2.0000      -8.076687      -219.7778
  18   2.0000      -6.044110      -164.4686
  19   2.0000      -6.040386      -164.3673
  20   2.0000      -6.036285      -164.2557
  21   2.0000      -6.035245      -164.2274
  22   2.0000      -6.030981      -164.1113
  23   2.0000      -6.027407      -164.0141
  24   2.0000      -1.005580       -27.3632
  25   2.0000      -0.979160       -26.6443
  26   2.0000      -0.916224       -24.9317
  27   2.0000      -0.909928       -24.7604
  28   2.0000      -0.869739       -23.6668
  29   2.0000      -0.854122       -23.2418
  30   2.0000      -0.842885       -22.9361
  31   2.0000      -0.821738       -22.3606
  32   2.0000      -0.783236       -21.3129
  33   2.0000      -0.769685       -20.9442
  34   2.0000      -0.709335       -19.3020
  35   2.0000      -0.701820       -19.0975
  36   2.0000      -0.697520       -18.9805
  37   2.0000      -0.649915       -17.6851
  38   2.0000      -0.641613       -17.4592
  39   2.0000      -0.610098       -16.6016
  40   2.0000      -0.593077       -16.1385
  41   2.0000      -0.577189       -15.7061
  42   2.0000      -0.569489       -15.4966
  43   2.0000      -0.544251       -14.8098
  44   2.0000      -0.540979       -14.7208
  45   2.0000      -0.526636       -14.3305
  46   2.0000      -0.518052       -14.0969
  47   2.0000      -0.513556       -13.9746
  48   2.0000      -0.507174       -13.8009
  49   2.0000      -0.500732       -13.6256
  50   2.0000      -0.488459       -13.2916
  51   2.0000      -0.481079       -13.0908
  52   2.0000      -0.476753       -12.9731
  53   2.0000      -0.461701       -12.5635
  54   2.0000      -0.461044       -12.5457
  55   2.0000      -0.452663       -12.3176
  56   2.0000      -0.440832       -11.9956
  57   2.0000      -0.433743       -11.8028
  58   2.0000      -0.429927       -11.6989
  59   2.0000      -0.424999       -11.5648
  60   2.0000      -0.423316       -11.5190
  61   2.0000      -0.421833       -11.4787
  62   2.0000      -0.400928       -10.9098
  63   2.0000      -0.346436        -9.4270
  64   2.0000      -0.330870        -9.0034
  65   2.0000      -0.324113        -8.8196
  66   2.0000      -0.295252        -8.0342
  67   0.0000       0.033957         0.9240
  68   0.0000       0.068312         1.8589
  69   0.0000       0.111026         3.0212
  70   0.0000       0.117950         3.2096
  71   0.0000       0.129626         3.5273

MULLIKEN ATOMIC CHARGES
-----------------------
   0 S :    0.105754
   1 C :   -0.077881
   2 C :   -0.105188
   3 C :    0.027866
   4 C :   -0.172200
   5 H :    0.031152
   6 C :    0.014608
   7 H :    0.025919
   8 H :    0.041217
   9 C :   -0.069804
  10 H :    0.044031
  11 H :    0.025966
  12 C :   -0.059201
  13 H :    0.048990
  14 H :    0.029312
  15 H :    0.029688
  16 S :    0.124501
  17 C :   -0.029075
  18 C :   -0.069731
  19 C :   -0.052086
  20 C :   -0.157983
  21 H :    0.034923
  22 C :    0.098584
  23 H :    0.017479
  24 H :    0.036356
  25 C :   -0.084403
  26 H :    0.015485
  27 H :    0.019363
  28 C :   -0.016931
  29 H :    0.029440
  30 H :    0.041680
  31 H :    0.027755
  32 H :    0.018095
  33 H :    0.006321
Sum of atomic charges:   -0.0000000

LOEWDIN ATOMIC CHARGES
----------------------
   0 S :    0.412720
   1 C :   -0.192515
   2 C :   -0.066469
   3 C :   -0.075388
   4 C :   -0.206656
   5 H :    0.039982
   6 C :   -0.043135
   7 H :    0.030200
   8 H :    0.044591
   9 C :   -0.049559
  10 H :    0.035430
  11 H :    0.022250
  12 C :   -0.076327
  13 H :    0.034266
  14 H :    0.024533
  15 H :    0.030081
  16 S :    0.402239
  17 C :   -0.165123
  18 C :   -0.073705
  19 C :   -0.041341
  20 C :   -0.202279
  21 H :    0.038907
  22 C :   -0.034394
  23 H :    0.030469
  24 H :    0.031693
  25 C :   -0.040729
  26 H :    0.013951
  27 H :    0.024444
  28 C :   -0.055865
  29 H :    0.020271
  30 H :    0.038041
  31 H :    0.024472
  32 H :    0.017983
  33 H :    0.006963

  Mayer bond orders larger than 0.100000
B(  0-S ,  1-C ) :   1.1189 B(  0-S ,  4-C ) :   1.1575 B(  1-C ,  2-C ) :   1.6474
B(  1-C , 32-H ) :   0.9758 B(  2-C ,  3-C ) :   1.1766 B(  2-C ,  6-C ) :   1.0364
B(  3-C ,  4-C ) :   1.6236 B(  3-C ,  5-H ) :   0.9833 B(  4-C , 20-C ) :   1.0007
B(  6-C ,  7-H ) :   0.9336 B(  6-C ,  8-H ) :   0.9427 B(  6-C ,  9-C ) :   1.0684
B(  9-C , 10-H ) :   0.9551 B(  9-C , 11-H ) :   0.9526 B(  9-C , 12-C ) :   1.0688
B( 12-C , 13-H ) :   0.9697 B( 12-C , 14-H ) :   0.9724 B( 12-C , 15-H ) :   0.9732
B( 16-S , 17-C ) :   1.1415 B( 16-S , 20-C ) :   1.1477 B( 17-C , 18-C ) :   1.6482
B( 17-C , 20-C ) :   0.1011 B( 17-C , 33-H ) :   0.9674 B( 18-C , 19-C ) :   1.2256
B( 18-C , 21-H ) :   0.9783 B( 19-C , 20-C ) :   1.5851 B( 19-C , 22-C ) :   1.0377
B( 22-C , 23-H ) :   0.9268 B( 22-C , 24-H ) :   0.9204 B( 22-C , 25-C ) :   1.0827
B( 25-C , 26-H ) :   0.9425 B( 25-C , 27-H ) :   0.9539 B( 25-C , 28-C ) :   1.0964
B( 28-C , 29-H ) :   0.9740 B( 28-C , 30-H ) :   0.9706 B( 28-C , 31-H ) :   0.9734

Dispersion correction           -0.013863612
FINAL SINGLE POINT ENERGY     -1339.863469340700

DIPOLE MOMENT
-------------
                                X             Y             Z
Electronic contribution:     -7.89360       2.60284      22.33260
Nuclear contribution   :      8.30515      -2.66428     -22.86255
                        -----------------------------------------
Total Dipole Moment    :      0.41156      -0.06144      -0.52995
                        -----------------------------------------
Magnitude (a.u.)       :      0.67380
Magnitude (Debye)      :      1.71266

Rotational constants in cm-1:     0.017625     0.008074     0.006868
Rotational constants in MHz :   528.390461   242.038197   205.888247

                             ****ORCA TERMINATED NORMALLY****
TOTAL RUN TIME: 0 days 0 hours 0 minutes 29 seconds 456 msec
