                         Program Version 4.2.1 -  RELEASE  -
|  1> ! wB97X-D3 SP def2-SVP
|  2> %pal
|  3> nprocs 16
|  4> end
|  5>
|  6> * xyz 0 1
|  7> S 	 59.8884 	 18.6057 	 76.0881
|  8> C 	 59.8723 	 19.035 	 74.3305
|  9> C 	 58.6857 	 18.8077 	 73.7676
| 10> C 	 57.7344 	 18.1759 	 74.6584
| 11> C 	 58.1077 	 18.1509 	 75.9984
| 12> H 	 56.7607 	 17.8274 	 74.3164
| 13> C 	 58.3884 	 18.9573 	 72.2675
| 14> H 	 59.1097 	 19.5166 	 71.7425
| 15> H 	 57.4107 	 19.4209 	 72.3107
| 16> C 	 58.3284 	 17.5574 	 71.48
| 17> H 	 57.54 	 16.8572 	 71.8419
| 18> H 	 57.9827 	 17.5448 	 70.4321
| 19> C 	 59.6465 	 16.8531 	 71.6427
| 20> H 	 59.8875 	 16.6591 	 72.6375
| 21> H 	 59.6805 	 15.8917 	 71.1258
| 22> H 	 60.4917 	 17.3372 	 71.1571
| 23> S 	 58.2251 	 16.2367 	 77.9976
| 24> C 	 56.9119 	 15.9823 	 79.0081
| 25> C 	 55.9701 	 16.9983 	 78.8214
| 26> C 	 56.238 	 17.8622 	 77.6648
| 27> C 	 57.421 	 17.4835 	 77.0773
| 28> H 	 55.1114 	 16.9678 	 79.4527
| 29> C 	 55.3217 	 19.002 	 77.1768
| 30> H 	 54.3382 	 18.6731 	 77.5313
| 31> H 	 55.3311 	 19.0036 	 76.0833
| 32> C 	 55.6436 	 20.3406 	 77.9194
| 33> H 	 55.6254 	 20.193 	 78.9929
| 34> H 	 54.7943 	 21.0168 	 77.993
| 35> C 	 56.9895 	 20.9674 	 77.5925
| 36> H 	 56.9681 	 21.3458 	 76.5937
| 37> H 	 57.8993 	 20.2984 	 77.6717
| 38> H 	 57.2005 	 21.7705 	 78.3156
| 39> H 	 60.7132 	 19.5509 	 73.8658
| 40> H 	 56.9845 	 15.2408 	 79.8385
| 41> *
| 42>
| 43>                          ****END OF INPUT****

CARTESIAN COORDINATES (ANGSTROEM)
---------------------------------
  S     59.888400   18.605700   76.088100
  C     59.872300   19.035000   74.330500
  C     58.685700   18.807700   73.767600
  C     57.734400   18.175900   74.658400
  C     58.107700   18.150900   75.998400
  H     56.760700   17.827400   74.316400
  C     58.388400   18.957300   72.267500
  H     59.109700   19.516600   71.742500
  H     57.410700   19.420900   72.310700
  C     58.328400   17.557400   71.480000
  H     57.540000   16.857200   71.841900
  H     57.982700   17.544800   70.432100
  C     59.646500   16.853100   71.642700
  H     59.887500   16.659100   72.637500
  H     59.680500   15.891700   71.125800
  H     60.491700   17.337200   71.157100
  S     58.225100   16.236700   77.997600
  C     56.911900   15.982300   79.008100
  C     55.970100   16.998300   78.821400
  C     56.238000   17.862200   77.664800
  C     57.421000   17.483500   77.077300
  H     55.111400   16.967800   79.452700
  C     55.321700   19.002000   77.176800
  H     54.338200   18.673100   77.531300
  H     55.331100   19.003600   76.083300
  C     55.643600   20.340600   77.919400
  H     55.625400   20.193000   78.992900
  H     54.794300   21.016800   77.993000
  C     56.989500   20.967400   77.592500
  H     56.968100   21.345800   76.593700
  H     57.899300   20.298400   77.671700
  H     57.200500   21.770500   78.315600
  H     60.713200   19.550900   73.865800
  H     56.984500   15.240800   79.838500

 Total Charge           Charge          ....    0
 Multiplicity           Mult            ....    1
 Number of Electrons    NEL             ....  134
 Basis Dimension        Dim             ....  322

ORBITAL ENERGIES
----------------

  NO   OCC          E(Eh)            E(eV)
   0   2.0000     -88.963389     -2420.8169
   1   2.0000     -88.962503     -2420.7928
   2   2.0000     -10.338152      -281.3154
   3   2.0000     -10.321694      -280.8676
   4   2.0000     -10.318348      -280.7765
   5   2.0000     -10.315874      -280.7092
   6   2.0000     -10.308082      -280.4972
   7   2.0000     -10.300978      -280.3039
   8   2.0000     -10.300638      -280.2946
   9   2.0000     -10.299233      -280.2564
  10   2.0000     -10.297389      -280.2062
  11   2.0000     -10.296538      -280.1830
  12   2.0000     -10.293343      -280.0961
  13   2.0000     -10.284770      -279.8628
  14   2.0000     -10.270674      -279.4792
  15   2.0000     -10.265229      -279.3311
  16   2.0000      -8.078965      -219.8398
  17   2.0000      -8.076019      -219.7596
  18   2.0000      -6.037338      -164.2843
  19   2.0000      -6.034887      -164.2176
  20   2.0000      -6.033133      -164.1699
  21   2.0000      -6.031012      -164.1122
  22   2.0000      -6.029845      -164.0804
  23   2.0000      -6.026328      -163.9847
  24   2.0000      -1.007461       -27.4144
  25   2.0000      -0.979439       -26.6519
  26   2.0000      -0.907926       -24.7059
  27   2.0000      -0.903541       -24.5866
  28   2.0000      -0.870224       -23.6800
  29   2.0000      -0.847539       -23.0627
  30   2.0000      -0.837996       -22.8030
  31   2.0000      -0.812110       -22.0986
  32   2.0000      -0.783701       -21.3256
  33   2.0000      -0.773895       -21.0588
  34   2.0000      -0.709007       -19.2931
  35   2.0000      -0.701457       -19.0876
  36   2.0000      -0.697232       -18.9726
  37   2.0000      -0.658868       -17.9287
  38   2.0000      -0.637179       -17.3385
  39   2.0000      -0.620879       -16.8950
  40   2.0000      -0.592222       -16.1152
  41   2.0000      -0.559813       -15.2333
  42   2.0000      -0.557532       -15.1712
  43   2.0000      -0.547967       -14.9110
  44   2.0000      -0.540594       -14.7103
  45   2.0000      -0.531182       -14.4542
  46   2.0000      -0.520530       -14.1643
  47   2.0000      -0.507280       -13.8038
  48   2.0000      -0.502363       -13.6700
  49   2.0000      -0.498513       -13.5652
  50   2.0000      -0.488952       -13.3050
  51   2.0000      -0.476025       -12.9533
  52   2.0000      -0.467481       -12.7208
  53   2.0000      -0.464903       -12.6506
  54   2.0000      -0.460728       -12.5370
  55   2.0000      -0.446904       -12.1609
  56   2.0000      -0.443081       -12.0569
  57   2.0000      -0.433655       -11.8004
  58   2.0000      -0.429120       -11.6769
  59   2.0000      -0.426020       -11.5926
  60   2.0000      -0.417569       -11.3626
  61   2.0000      -0.409054       -11.1309
  62   2.0000      -0.400169       -10.8892
  63   2.0000      -0.350825        -9.5464
  64   2.0000      -0.328990        -8.9523
  65   2.0000      -0.325595        -8.8599
  66   2.0000      -0.296475        -8.0675
  67   0.0000       0.029935         0.8146
  68   0.0000       0.063834         1.7370
  69   0.0000       0.107218         2.9175
  70   0.0000       0.117825         3.2062
  71   0.0000       0.129575         3.5259

MULLIKEN ATOMIC CHARGES
-----------------------
   0 S :    0.066332
   1 C :   -0.136897
   2 C :   -0.080174
   3 C :    0.017838
   4 C :   -0.143854
   5 H :    0.023003
   6 C :    0.106280
   7 H :    0.018237
   8 H :    0.032762
   9 C :   -0.090338
  10 H :    0.025165
  11 H :    0.032411
  12 C :   -0.038617
  13 H :    0.038551
  14 H :    0.021036
  15 H :    0.017237
  16 S :    0.119367
  17 C :   -0.112822
  18 C :   -0.036971
  19 C :   -0.064949
  20 C :   -0.160488
  21 H :    0.009671
  22 C :    0.120590
  23 H :    0.016340
  24 H :    0.031085
  25 C :   -0.059961
  26 H :    0.006789
  27 H :    0.018809
  28 C :   -0.039808
  29 H :    0.028943
  30 H :    0.046714
  31 H :    0.030507
  32 H :    0.057395
  33 H :    0.079816
Sum of atomic charges:   -0.0000000

LOEWDIN ATOMIC CHARGES
----------------------
   0 S :    0.330254
   1 C :   -0.169178
   2 C :   -0.069483
   3 C :   -0.053645
   4 C :   -0.154521
   5 H :    0.030308
   6 C :   -0.014693
   7 H :    0.023172
   8 H :    0.031285
   9 C :   -0.047949
  10 H :    0.025761
  11 H :    0.027730
  12 C :   -0.067105
  13 H :    0.019464
  14 H :    0.028017
  15 H :    0.022199
  16 S :    0.435770
  17 C :   -0.212172
  18 C :   -0.074878
  19 C :   -0.045869
  20 C :   -0.214349
  21 H :    0.023510
  22 C :   -0.022199
  23 H :    0.033175
  24 H :    0.030081
  25 C :   -0.049683
  26 H :    0.025809
  27 H :    0.025467
  28 C :   -0.068454
  29 H :    0.020109
  30 H :    0.031024
  31 H :    0.028233
  32 H :    0.032280
  33 H :    0.040529

  Mayer bond orders larger than 0.100000
B(  0-S ,  1-C ) :   1.1006 B(  0-S ,  4-C ) :   1.0995 B(  1-C ,  2-C ) :   1.6755
B(  1-C , 32-H ) :   0.9616 B(  2-C ,  3-C ) :   1.1863 B(  2-C ,  6-C ) :   1.0229
B(  3-C ,  4-C ) :   1.6314 B(  3-C ,  5-H ) :   0.9817 B(  4-C , 20-C ) :   1.0608
B(  6-C ,  7-H ) :   0.9520 B(  6-C ,  8-H ) :   0.9377 B(  6-C ,  9-C ) :   1.0477
B(  9-C , 10-H ) :   0.9550 B(  9-C , 11-H ) :   0.9604 B(  9-C , 12-C ) :   1.0777
B( 12-C , 13-H ) :   0.9750 B( 12-C , 14-H ) :   0.9671 B( 12-C , 15-H ) :   0.9739
B( 16-S , 17-C ) :   1.1814 B( 16-S , 20-C ) :   1.1472 B( 17-C , 18-C ) :   1.5869
B( 17-C , 33-H ) :   0.9630 B( 18-C , 19-C ) :   1.2444 B( 18-C , 21-H ) :   0.9951
B( 19-C , 20-C ) :   1.5826 B( 19-C , 22-C ) :   1.0259 B( 22-C , 23-H ) :   0.9251
B( 22-C , 24-H ) :   0.9425 B( 22-C , 25-C ) :   1.0693 B( 25-C , 26-H ) :   0.9463
B( 25-C , 27-H ) :   0.9519 B( 25-C , 28-C ) :   1.0763 B( 28-C , 29-H ) :   0.9773
B( 28-C , 30-H ) :   0.9663 B( 28-C , 31-H ) :   0.9706

Dispersion correction           -0.015864744
FINAL SINGLE POINT ENERGY     -1339.865490016860

DIPOLE MOMENT
-------------
                                X             Y             Z
Electronic contribution:      7.56659      -8.75880      14.60482
Nuclear contribution   :     -8.02650       8.83414     -14.85726
                        -----------------------------------------
Total Dipole Moment    :     -0.45991       0.07534      -0.25244
                        -----------------------------------------
Magnitude (a.u.)       :      0.53002
Magnitude (Debye)      :      1.34721

Rotational constants in cm-1:     0.021000     0.008768     0.007808
Rotational constants in MHz :   629.570915   262.848891   234.086357

                             ****ORCA TERMINATED NORMALLY****
TOTAL RUN TIME: 0 days 0 hours 0 minutes 29 seconds 724 msec
