                         Program Version 4.2.1 -  RELEASE  -
|  1> ! wB97X-D3 SP def2-SVP
|  2> %pal
|  3> nprocs 16
|  4> end
|  5>
|  6> * xyz 0 1
|  7> S 	 -18.1511 	 54.1683 	 59.5005
|  8> C 	 -17.6083 	 52.8875 	 58.4458
|  9> C 	 -16.4492 	 52.3273 	 59.0033
| 10> C 	 -16.1085 	 52.9179 	 60.2652
| 11> C 	 -16.9192 	 53.9376 	 60.7118
| 12> H 	 -15.256 	 52.721 	 60.8829
| 13> C 	 -15.7274 	 51.022 	 58.4597
| 14> H 	 -16.3608 	 50.7362 	 57.5715
| 15> H 	 -15.9591 	 50.1396 	 59.1639
| 16> C 	 -14.2966 	 51.0943 	 57.9717
| 17> H 	 -14.3959 	 52.0057 	 57.3891
| 18> H 	 -13.3783 	 51.0934 	 58.6341
| 19> C 	 -13.9958 	 50.0733 	 56.8731
| 20> H 	 -14.6618 	 50.2563 	 55.9868
| 21> H 	 -12.9587 	 50.209 	 56.5948
| 22> H 	 -14.0574 	 49.0341 	 57.3111
| 23> S 	 -16.6119 	 56.4972 	 61.2793
| 24> C 	 -15.9303 	 57.0277 	 62.8033
| 25> C 	 -15.8429 	 55.9921 	 63.6981
| 26> C 	 -16.1255 	 54.7493 	 63.0718
| 27> C 	 -16.5349 	 54.9123 	 61.7637
| 28> H 	 -15.494 	 56.1763 	 64.7376
| 29> C 	 -15.9933 	 53.4712 	 63.8254
| 30> H 	 -16.6448 	 52.762 	 63.2729
| 31> H 	 -16.2964 	 53.5417 	 64.7811
| 32> C 	 -14.5981 	 52.8597 	 63.9319
| 33> H 	 -14.1474 	 52.8397 	 62.9125
| 34> H 	 -14.7716 	 51.816 	 64.2403
| 35> C 	 -13.6789 	 53.7122 	 64.849
| 36> H 	 -12.7123 	 53.2005 	 65.0317
| 37> H 	 -14.2452 	 53.869 	 65.7969
| 38> H 	 -13.488 	 54.7846 	 64.4183
| 39> H 	 -18.3096 	 52.6173 	 57.6352
| 40> H 	 -15.77 	 58.0371 	 63.2069
| 41> *
| 42>
| 43>                          ****END OF INPUT****

CARTESIAN COORDINATES (ANGSTROEM)
---------------------------------
  S    -18.151100   54.168300   59.500500
  C    -17.608300   52.887500   58.445800
  C    -16.449200   52.327300   59.003300
  C    -16.108500   52.917900   60.265200
  C    -16.919200   53.937600   60.711800
  H    -15.256000   52.721000   60.882900
  C    -15.727400   51.022000   58.459700
  H    -16.360800   50.736200   57.571500
  H    -15.959100   50.139600   59.163900
  C    -14.296600   51.094300   57.971700
  H    -14.395900   52.005700   57.389100
  H    -13.378300   51.093400   58.634100
  C    -13.995800   50.073300   56.873100
  H    -14.661800   50.256300   55.986800
  H    -12.958700   50.209000   56.594800
  H    -14.057400   49.034100   57.311100
  S    -16.611900   56.497200   61.279300
  C    -15.930300   57.027700   62.803300
  C    -15.842900   55.992100   63.698100
  C    -16.125500   54.749300   63.071800
  C    -16.534900   54.912300   61.763700
  H    -15.494000   56.176300   64.737600
  C    -15.993300   53.471200   63.825400
  H    -16.644800   52.762000   63.272900
  H    -16.296400   53.541700   64.781100
  C    -14.598100   52.859700   63.931900
  H    -14.147400   52.839700   62.912500
  H    -14.771600   51.816000   64.240300
  C    -13.678900   53.712200   64.849000
  H    -12.712300   53.200500   65.031700
  H    -14.245200   53.869000   65.796900
  H    -13.488000   54.784600   64.418300
  H    -18.309600   52.617300   57.635200
  H    -15.770000   58.037100   63.206900

 Total Charge           Charge          ....    0
 Multiplicity           Mult            ....    1
 Number of Electrons    NEL             ....  134
 Basis Dimension        Dim             ....  322

ORBITAL ENERGIES
----------------

  NO   OCC          E(Eh)            E(eV)
   0   2.0000     -88.967599     -2420.9314
   1   2.0000     -88.964706     -2420.8527
   2   2.0000     -10.330702      -281.1127
   3   2.0000     -10.325980      -280.9842
   4   2.0000     -10.323166      -280.9076
   5   2.0000     -10.313923      -280.6561
   6   2.0000     -10.312803      -280.6256
   7   2.0000     -10.307026      -280.4684
   8   2.0000     -10.296598      -280.1847
   9   2.0000     -10.292876      -280.0834
  10   2.0000     -10.292297      -280.0676
  11   2.0000     -10.291910      -280.0571
  12   2.0000     -10.290319      -280.0138
  13   2.0000     -10.289311      -279.9864
  14   2.0000     -10.284422      -279.8533
  15   2.0000     -10.278431      -279.6903
  16   2.0000      -8.083892      -219.9739
  17   2.0000      -8.079857      -219.8641
  18   2.0000      -6.042317      -164.4198
  19   2.0000      -6.038363      -164.3122
  20   2.0000      -6.038163      -164.3068
  21   2.0000      -6.034625      -164.2105
  22   2.0000      -6.034057      -164.1950
  23   2.0000      -6.030827      -164.1071
  24   2.0000      -1.018016       -27.7016
  25   2.0000      -0.989867       -26.9356
  26   2.0000      -0.915577       -24.9141
  27   2.0000      -0.909378       -24.7454
  28   2.0000      -0.874513       -23.7967
  29   2.0000      -0.849052       -23.1039
  30   2.0000      -0.843250       -22.9460
  31   2.0000      -0.818144       -22.2628
  32   2.0000      -0.778439       -21.1824
  33   2.0000      -0.769842       -20.9485
  34   2.0000      -0.703475       -19.1425
  35   2.0000      -0.690603       -18.7923
  36   2.0000      -0.684968       -18.6389
  37   2.0000      -0.665603       -18.1120
  38   2.0000      -0.647446       -17.6179
  39   2.0000      -0.617424       -16.8009
  40   2.0000      -0.598591       -16.2885
  41   2.0000      -0.573469       -15.6049
  42   2.0000      -0.564557       -15.3624
  43   2.0000      -0.550096       -14.9689
  44   2.0000      -0.540223       -14.7002
  45   2.0000      -0.524629       -14.2759
  46   2.0000      -0.518469       -14.1083
  47   2.0000      -0.509340       -13.8599
  48   2.0000      -0.506050       -13.7703
  49   2.0000      -0.497072       -13.5260
  50   2.0000      -0.490180       -13.3385
  51   2.0000      -0.478280       -13.0146
  52   2.0000      -0.474504       -12.9119
  53   2.0000      -0.466689       -12.6993
  54   2.0000      -0.461007       -12.5446
  55   2.0000      -0.447246       -12.1702
  56   2.0000      -0.442043       -12.0286
  57   2.0000      -0.436358       -11.8739
  58   2.0000      -0.423025       -11.5111
  59   2.0000      -0.421648       -11.4736
  60   2.0000      -0.418038       -11.3754
  61   2.0000      -0.415556       -11.3078
  62   2.0000      -0.405778       -11.0418
  63   2.0000      -0.356521        -9.7014
  64   2.0000      -0.331528        -9.0213
  65   2.0000      -0.328928        -8.9506
  66   2.0000      -0.294045        -8.0014
  67   0.0000       0.033336         0.9071
  68   0.0000       0.072065         1.9610
  69   0.0000       0.115005         3.1294
  70   0.0000       0.118570         3.2265
  71   0.0000       0.131559         3.5799

MULLIKEN ATOMIC CHARGES
-----------------------
   0 S :    0.086047
   1 C :   -0.148474
   2 C :   -0.061553
   3 C :    0.045474
   4 C :   -0.136404
   5 H :   -0.008245
   6 C :    0.019483
   7 H :    0.016912
   8 H :    0.049576
   9 C :   -0.068781
  10 H :    0.028504
  11 H :    0.052352
  12 C :   -0.086297
  13 H :    0.045910
  14 H :    0.032521
  15 H :    0.039165
  16 S :    0.129370
  17 C :   -0.094414
  18 C :   -0.061842
  19 C :   -0.062204
  20 C :   -0.143873
  21 H :    0.034919
  22 C :    0.102334
  23 H :    0.027334
  24 H :   -0.011897
  25 C :   -0.075658
  26 H :    0.035066
  27 H :    0.040180
  28 C :   -0.099871
  29 H :    0.050215
  30 H :    0.028471
  31 H :    0.061923
  32 H :    0.079897
  33 H :    0.053859
Sum of atomic charges:   -0.0000000

LOEWDIN ATOMIC CHARGES
----------------------
   0 S :    0.404752
   1 C :   -0.199390
   2 C :   -0.066374
   3 C :   -0.062951
   4 C :   -0.200185
   5 H :    0.025591
   6 C :   -0.040306
   7 H :    0.034334
   8 H :    0.035376
   9 C :   -0.058710
  10 H :    0.030858
  11 H :    0.033650
  12 C :   -0.068106
  13 H :    0.029050
  14 H :    0.023780
  15 H :    0.027055
  16 S :    0.453113
  17 C :   -0.200518
  18 C :   -0.071285
  19 C :   -0.065721
  20 C :   -0.218863
  21 H :    0.039202
  22 C :   -0.028057
  23 H :    0.035571
  24 H :    0.011938
  25 C :   -0.040043
  26 H :    0.021602
  27 H :    0.028041
  28 C :   -0.078822
  29 H :    0.029410
  30 H :    0.022463
  31 H :    0.040377
  32 H :    0.038704
  33 H :    0.034460

  Mayer bond orders larger than 0.100000
B(  0-S ,  1-C ) :   1.1566 B(  0-S ,  4-C ) :   1.1547 B(  1-C ,  2-C ) :   1.5615
B(  1-C , 32-H ) :   0.9694 B(  2-C ,  3-C ) :   1.2645 B(  2-C ,  6-C ) :   1.0182
B(  3-C ,  4-C ) :   1.5604 B(  3-C ,  5-H ) :   0.9967 B(  4-C , 20-C ) :   1.0067
B(  6-C ,  7-H ) :   0.9424 B(  6-C ,  8-H ) :   0.9415 B(  6-C ,  9-C ) :   1.0445
B(  9-C , 10-H ) :   0.9523 B(  9-C , 11-H ) :   0.9570 B(  9-C , 12-C ) :   1.0896
B( 12-C , 13-H ) :   0.9739 B( 12-C , 14-H ) :   0.9755 B( 12-C , 15-H ) :   0.9748
B( 16-S , 17-C ) :   1.1519 B( 16-S , 20-C ) :   1.1724 B( 17-C , 18-C ) :   1.6183
B( 17-C , 33-H ) :   0.9612 B( 18-C , 19-C ) :   1.2529 B( 18-C , 21-H ) :   0.9799
B( 19-C , 20-C ) :   1.5873 B( 19-C , 22-C ) :   1.0629 B( 22-C , 23-H ) :   0.9210
B( 22-C , 24-H ) :   0.9291 B( 22-C , 25-C ) :   1.0708 B( 25-C , 26-H ) :   0.9479
B( 25-C , 27-H ) :   0.9555 B( 25-C , 28-C ) :   1.0704 B( 28-C , 29-H ) :   0.9720
B( 28-C , 30-H ) :   0.9744 B( 28-C , 31-H ) :   0.9666

Dispersion correction           -0.014000271
FINAL SINGLE POINT ENERGY     -1339.856520429094

DIPOLE MOMENT
-------------
                                X             Y             Z
Electronic contribution:    -18.90495      20.91155      -2.52408
Nuclear contribution   :     19.26900     -21.31384       2.67775
                        -----------------------------------------
Total Dipole Moment    :      0.36405      -0.40229       0.15368
                        -----------------------------------------
Magnitude (a.u.)       :      0.56390
Magnitude (Debye)      :      1.43333

Rotational constants in cm-1:     0.018564     0.008357     0.006435
Rotational constants in MHz :   556.547199   250.526689   192.915686

                             ****ORCA TERMINATED NORMALLY****
TOTAL RUN TIME: 0 days 0 hours 0 minutes 32 seconds 902 msec
