                         Program Version 4.2.1 -  RELEASE  -
|  1> ! wB97X-D3 SP def2-SVP
|  2> %pal
|  3> nprocs 16
|  4> end
|  5>
|  6> * xyz 0 1
|  7> S 	 -10.9458 	 -7.29148 	 83.5349
|  8> C 	 -10.1506 	 -7.83129 	 84.9662
|  9> C 	 -10.1634 	 -6.7702 	 85.8419
| 10> C 	 -11.2429 	 -5.87521 	 85.5723
| 11> C 	 -11.9266 	 -6.1174 	 84.4073
| 12> H 	 -11.6094 	 -5.055 	 86.1418
| 13> C 	 -9.33404 	 -6.68799 	 87.1067
| 14> H 	 -8.57989 	 -6.04654 	 86.7477
| 15> H 	 -8.81332 	 -7.65429 	 87.2238
| 16> C 	 -10.0266 	 -6.22402 	 88.433
| 17> H 	 -9.24579 	 -6.05817 	 89.1681
| 18> H 	 -10.7223 	 -5.40855 	 88.3664
| 19> C 	 -10.9658 	 -7.31927 	 88.9603
| 20> H 	 -11.5064 	 -7.12971 	 89.8664
| 21> H 	 -11.7639 	 -7.39907 	 88.1726
| 22> H 	 -10.4646 	 -8.3143 	 89.0144
| 23> S 	 -13.2528 	 -5.29064 	 82.1232
| 24> C 	 -14.8887 	 -4.65971 	 82.2828
| 25> C 	 -15.2205 	 -4.49516 	 83.5971
| 26> C 	 -14.3053 	 -5.10803 	 84.52
| 27> C 	 -13.1524 	 -5.54947 	 83.8286
| 28> H 	 -16.1661 	 -4.00507 	 83.8048
| 29> C 	 -14.6825 	 -5.28113 	 85.9652
| 30> H 	 -13.9697 	 -5.97368 	 86.4315
| 31> H 	 -15.683 	 -5.6946 	 86.0235
| 32> C 	 -14.7903 	 -3.95784 	 86.8043
| 33> H 	 -15.5591 	 -3.36769 	 86.3225
| 34> H 	 -13.8672 	 -3.30001 	 86.7627
| 35> C 	 -15.1376 	 -4.35502 	 88.2229
| 36> H 	 -16.0504 	 -5.01542 	 88.2451
| 37> H 	 -15.3911 	 -3.50573 	 88.8426
| 38> H 	 -14.3369 	 -4.98562 	 88.6705
| 39> H 	 -9.44278 	 -8.67594 	 85.0222
| 40> H 	 -15.5218 	 -4.2108 	 81.507
| 41> *
| 42>
| 43>                          ****END OF INPUT****

CARTESIAN COORDINATES (ANGSTROEM)
---------------------------------
  S    -10.945800   -7.291480   83.534900
  C    -10.150600   -7.831290   84.966200
  C    -10.163400   -6.770200   85.841900
  C    -11.242900   -5.875210   85.572300
  C    -11.926600   -6.117400   84.407300
  H    -11.609400   -5.055000   86.141800
  C     -9.334040   -6.687990   87.106700
  H     -8.579890   -6.046540   86.747700
  H     -8.813320   -7.654290   87.223800
  C    -10.026600   -6.224020   88.433000
  H     -9.245790   -6.058170   89.168100
  H    -10.722300   -5.408550   88.366400
  C    -10.965800   -7.319270   88.960300
  H    -11.506400   -7.129710   89.866400
  H    -11.763900   -7.399070   88.172600
  H    -10.464600   -8.314300   89.014400
  S    -13.252800   -5.290640   82.123200
  C    -14.888700   -4.659710   82.282800
  C    -15.220500   -4.495160   83.597100
  C    -14.305300   -5.108030   84.520000
  C    -13.152400   -5.549470   83.828600
  H    -16.166100   -4.005070   83.804800
  C    -14.682500   -5.281130   85.965200
  H    -13.969700   -5.973680   86.431500
  H    -15.683000   -5.694600   86.023500
  C    -14.790300   -3.957840   86.804300
  H    -15.559100   -3.367690   86.322500
  H    -13.867200   -3.300010   86.762700
  C    -15.137600   -4.355020   88.222900
  H    -16.050400   -5.015420   88.245100
  H    -15.391100   -3.505730   88.842600
  H    -14.336900   -4.985620   88.670500
  H     -9.442780   -8.675940   85.022200
  H    -15.521800   -4.210800   81.507000

 Total Charge           Charge          ....    0
 Multiplicity           Mult            ....    1
 Number of Electrons    NEL             ....  134
 Basis Dimension        Dim             ....  322

ORBITAL ENERGIES
----------------

  NO   OCC          E(Eh)            E(eV)
   0   2.0000     -88.968986     -2420.9692
   1   2.0000     -88.955011     -2420.5889
   2   2.0000     -10.332626      -281.1651
   3   2.0000     -10.329740      -281.0865
   4   2.0000     -10.317195      -280.7452
   5   2.0000     -10.312988      -280.6307
   6   2.0000     -10.306694      -280.4594
   7   2.0000     -10.302347      -280.3411
   8   2.0000     -10.294583      -280.1299
   9   2.0000     -10.294396      -280.1247
  10   2.0000     -10.294391      -280.1246
  11   2.0000     -10.293132      -280.0904
  12   2.0000     -10.291848      -280.0554
  13   2.0000     -10.291436      -280.0442
  14   2.0000     -10.285440      -279.8810
  15   2.0000     -10.279321      -279.7145
  16   2.0000      -8.083823      -219.9720
  17   2.0000      -8.070828      -219.6184
  18   2.0000      -6.042415      -164.4225
  19   2.0000      -6.038431      -164.3141
  20   2.0000      -6.034376      -164.2037
  21   2.0000      -6.029421      -164.0689
  22   2.0000      -6.025459      -163.9611
  23   2.0000      -6.021145      -163.8437
  24   2.0000      -1.010526       -27.4978
  25   2.0000      -0.989324       -26.9209
  26   2.0000      -0.912373       -24.8269
  27   2.0000      -0.910313       -24.7709
  28   2.0000      -0.872307       -23.7367
  29   2.0000      -0.853795       -23.2329
  30   2.0000      -0.842390       -22.9226
  31   2.0000      -0.821708       -22.3598
  32   2.0000      -0.780940       -21.2505
  33   2.0000      -0.768267       -20.9056
  34   2.0000      -0.710047       -19.3214
  35   2.0000      -0.699845       -19.0437
  36   2.0000      -0.693032       -18.8584
  37   2.0000      -0.657881       -17.9019
  38   2.0000      -0.641938       -17.4680
  39   2.0000      -0.623585       -16.9686
  40   2.0000      -0.597129       -16.2487
  41   2.0000      -0.571142       -15.5416
  42   2.0000      -0.565197       -15.3798
  43   2.0000      -0.558997       -15.2111
  44   2.0000      -0.536776       -14.6064
  45   2.0000      -0.527758       -14.3610
  46   2.0000      -0.519828       -14.1452
  47   2.0000      -0.509914       -13.8755
  48   2.0000      -0.507678       -13.8146
  49   2.0000      -0.501340       -13.6421
  50   2.0000      -0.491479       -13.3738
  51   2.0000      -0.476539       -12.9673
  52   2.0000      -0.473946       -12.8967
  53   2.0000      -0.463156       -12.6031
  54   2.0000      -0.454893       -12.3783
  55   2.0000      -0.452740       -12.3197
  56   2.0000      -0.445744       -12.1293
  57   2.0000      -0.440419       -11.9844
  58   2.0000      -0.434797       -11.8314
  59   2.0000      -0.428041       -11.6476
  60   2.0000      -0.424762       -11.5584
  61   2.0000      -0.423167       -11.5150
  62   2.0000      -0.405540       -11.0353
  63   2.0000      -0.357170        -9.7191
  64   2.0000      -0.331926        -9.0322
  65   2.0000      -0.319045        -8.6816
  66   2.0000      -0.284097        -7.7307
  67   0.0000       0.020956         0.5702
  68   0.0000       0.072552         1.9742
  69   0.0000       0.099716         2.7134
  70   0.0000       0.112536         3.0623
  71   0.0000       0.126567         3.4441

MULLIKEN ATOMIC CHARGES
-----------------------
   0 S :    0.079457
   1 C :   -0.122575
   2 C :   -0.109162
   3 C :    0.013379
   4 C :   -0.137294
   5 H :   -0.007362
   6 C :    0.089191
   7 H :    0.033845
   8 H :    0.017727
   9 C :   -0.044152
  10 H :    0.035655
  11 H :    0.033561
  12 C :   -0.084770
  13 H :    0.036127
  14 H :    0.034708
  15 H :    0.031416
  16 S :    0.114185
  17 C :   -0.092859
  18 C :   -0.046792
  19 C :   -0.027175
  20 C :   -0.121114
  21 H :    0.021274
  22 C :    0.035841
  23 H :    0.028578
  24 H :    0.030387
  25 C :   -0.093942
  26 H :    0.025228
  27 H :    0.041600
  28 C :   -0.040894
  29 H :    0.026930
  30 H :    0.038247
  31 H :    0.036735
  32 H :    0.061208
  33 H :    0.062811
Sum of atomic charges:   -0.0000000

LOEWDIN ATOMIC CHARGES
----------------------
   0 S :    0.385952
   1 C :   -0.201808
   2 C :   -0.063449
   3 C :   -0.071116
   4 C :   -0.175123
   5 H :    0.024845
   6 C :   -0.029021
   7 H :    0.032850
   8 H :    0.033794
   9 C :   -0.036059
  10 H :    0.025105
  11 H :    0.023734
  12 C :   -0.069976
  13 H :    0.020440
  14 H :    0.028279
  15 H :    0.024446
  16 S :    0.410972
  17 C :   -0.188739
  18 C :   -0.069619
  19 C :   -0.057191
  20 C :   -0.201469
  21 H :    0.031696
  22 C :   -0.030782
  23 H :    0.028530
  24 H :    0.033457
  25 C :   -0.041999
  26 H :    0.019802
  27 H :    0.027991
  28 C :   -0.070249
  29 H :    0.029377
  30 H :    0.024480
  31 H :    0.029479
  32 H :    0.034564
  33 H :    0.036806

  Mayer bond orders larger than 0.100000
B(  0-S ,  1-C ) :   1.1341 B(  0-S ,  4-C ) :   1.1392 B(  1-C ,  2-C ) :   1.6000
B(  1-C ,  4-C ) :   0.1022 B(  1-C , 32-H ) :   0.9688 B(  2-C ,  3-C ) :   1.2021
B(  2-C ,  6-C ) :   1.0126 B(  3-C ,  4-C ) :   1.5810 B(  3-C ,  5-H ) :   1.0077
B(  4-C , 20-C ) :   1.0563 B(  6-C ,  7-H ) :   0.9248 B(  6-C ,  8-H ) :   0.9431
B(  6-C ,  9-C ) :   1.0634 B(  9-C , 10-H ) :   0.9548 B(  9-C , 11-H ) :   0.9589
B(  9-C , 12-C ) :   1.0661 B( 12-C , 13-H ) :   0.9763 B( 12-C , 14-H ) :   0.9758
B( 12-C , 15-H ) :   0.9749 B( 16-S , 17-C ) :   1.1321 B( 16-S , 20-C ) :   1.1472
B( 17-C , 18-C ) :   1.6516 B( 17-C , 33-H ) :   0.9613 B( 18-C , 19-C ) :   1.2237
B( 18-C , 21-H ) :   0.9833 B( 19-C , 20-C ) :   1.5756 B( 19-C , 22-C ) :   1.0504
B( 22-C , 23-H ) :   0.9390 B( 22-C , 24-H ) :   0.9329 B( 22-C , 25-C ) :   1.0492
B( 25-C , 26-H ) :   0.9532 B( 25-C , 27-H ) :   0.9553 B( 25-C , 28-C ) :   1.0859
B( 28-C , 29-H ) :   0.9687 B( 28-C , 30-H ) :   0.9723 B( 28-C , 31-H ) :   0.9727

Dispersion correction           -0.014745760
FINAL SINGLE POINT ENERGY     -1339.865673690214

DIPOLE MOMENT
-------------
                                X             Y             Z
Electronic contribution:      3.99756      -3.31008     -31.91578
Nuclear contribution   :     -4.16809       3.62588      32.62418
                        -----------------------------------------
Total Dipole Moment    :     -0.17053       0.31580       0.70841
                        -----------------------------------------
Magnitude (a.u.)       :      0.79414
Magnitude (Debye)      :      2.01853

Rotational constants in cm-1:     0.016450     0.010723     0.006816
Rotational constants in MHz :   493.167810   321.469386   204.328093

                             ****ORCA TERMINATED NORMALLY****
TOTAL RUN TIME: 0 days 0 hours 0 minutes 35 seconds 373 msec
