                         Program Version 4.2.1 -  RELEASE  -
|  1> ! wB97X-D3 SP def2-SVP
|  2> %pal
|  3> nprocs 16
|  4> end
|  5>
|  6> * xyz 0 1
|  7> S 	 -95.7464 	 53.4311 	 124.879
|  8> C 	 -97.0206 	 52.2851 	 125.187
|  9> C 	 -97.0941 	 51.4402 	 124.11
| 10> C 	 -95.9898 	 51.523 	 123.241
| 11> C 	 -95.0806 	 52.4793 	 123.633
| 12> H 	 -95.6278 	 50.9488 	 122.403
| 13> C 	 -98.2316 	 50.4556 	 124.031
| 14> H 	 -98.7586 	 50.7124 	 123.075
| 15> H 	 -98.8314 	 50.5598 	 124.884
| 16> C 	 -97.8363 	 49.0503 	 123.895
| 17> H 	 -98.7886 	 48.5548 	 123.948
| 18> H 	 -97.3576 	 48.7794 	 122.972
| 19> C 	 -96.9366 	 48.3137 	 125.013
| 20> H 	 -96.0116 	 48.8772 	 125.111
| 21> H 	 -97.3136 	 48.3197 	 125.983
| 22> H 	 -96.7002 	 47.2969 	 124.838
| 23> S 	 -93.4958 	 53.056 	 121.337
| 24> C 	 -91.8241 	 53.463 	 121.529
| 25> C 	 -91.468 	 53.4206 	 122.854
| 26> C 	 -92.5641 	 52.9914 	 123.732
| 27> C 	 -93.7844 	 52.8275 	 123.053
| 28> H 	 -90.5086 	 53.7331 	 123.196
| 29> C 	 -92.4075 	 53.1367 	 125.278
| 30> H 	 -93.3068 	 52.7816 	 125.759
| 31> H 	 -92.2664 	 54.1777 	 125.537
| 32> C 	 -91.2544 	 52.3141 	 125.802
| 33> H 	 -90.935 	 52.5735 	 126.87
| 34> H 	 -90.4547 	 52.5119 	 125.057
| 35> C 	 -91.4757 	 50.8039 	 125.768
| 36> H 	 -91.7955 	 50.4123 	 124.716
| 37> H 	 -92.2131 	 50.5654 	 126.452
| 38> H 	 -90.575 	 50.1694 	 126.024
| 39> H 	 -97.7992 	 52.3485 	 125.846
| 40> H 	 -91.2028 	 53.6873 	 120.683
| 41> *
| 42>
| 43>                          ****END OF INPUT****

CARTESIAN COORDINATES (ANGSTROEM)
---------------------------------
  S    -95.746400   53.431100  124.879000
  C    -97.020600   52.285100  125.187000
  C    -97.094100   51.440200  124.110000
  C    -95.989800   51.523000  123.241000
  C    -95.080600   52.479300  123.633000
  H    -95.627800   50.948800  122.403000
  C    -98.231600   50.455600  124.031000
  H    -98.758600   50.712400  123.075000
  H    -98.831400   50.559800  124.884000
  C    -97.836300   49.050300  123.895000
  H    -98.788600   48.554800  123.948000
  H    -97.357600   48.779400  122.972000
  C    -96.936600   48.313700  125.013000
  H    -96.011600   48.877200  125.111000
  H    -97.313600   48.319700  125.983000
  H    -96.700200   47.296900  124.838000
  S    -93.495800   53.056000  121.337000
  C    -91.824100   53.463000  121.529000
  C    -91.468000   53.420600  122.854000
  C    -92.564100   52.991400  123.732000
  C    -93.784400   52.827500  123.053000
  H    -90.508600   53.733100  123.196000
  C    -92.407500   53.136700  125.278000
  H    -93.306800   52.781600  125.759000
  H    -92.266400   54.177700  125.537000
  C    -91.254400   52.314100  125.802000
  H    -90.935000   52.573500  126.870000
  H    -90.454700   52.511900  125.057000
  C    -91.475700   50.803900  125.768000
  H    -91.795500   50.412300  124.716000
  H    -92.213100   50.565400  126.452000
  H    -90.575000   50.169400  126.024000
  H    -97.799200   52.348500  125.846000
  H    -91.202800   53.687300  120.683000

 Total Charge           Charge          ....    0
 Multiplicity           Mult            ....    1
 Number of Electrons    NEL             ....  134
 Basis Dimension        Dim             ....  322

ORBITAL ENERGIES
----------------

  NO   OCC          E(Eh)            E(eV)
   0   2.0000     -88.966751     -2420.9084
   1   2.0000     -88.963701     -2420.8254
   2   2.0000     -10.331915      -281.1457
   3   2.0000     -10.326531      -280.9992
   4   2.0000     -10.320921      -280.8465
   5   2.0000     -10.310774      -280.5704
   6   2.0000     -10.303311      -280.3673
   7   2.0000     -10.297868      -280.2192
   8   2.0000     -10.296590      -280.1844
   9   2.0000     -10.290642      -280.0226
  10   2.0000     -10.288082      -279.9529
  11   2.0000     -10.287106      -279.9264
  12   2.0000     -10.286760      -279.9170
  13   2.0000     -10.281882      -279.7842
  14   2.0000     -10.275281      -279.6046
  15   2.0000     -10.267479      -279.3923
  16   2.0000      -8.081768      -219.9161
  17   2.0000      -8.079069      -219.8426
  18   2.0000      -6.040343      -164.3661
  19   2.0000      -6.037417      -164.2865
  20   2.0000      -6.036097      -164.2505
  21   2.0000      -6.033504      -164.1800
  22   2.0000      -6.032575      -164.1547
  23   2.0000      -6.029900      -164.0819
  24   2.0000      -1.014021       -27.5929
  25   2.0000      -0.989417       -26.9234
  26   2.0000      -0.919641       -25.0247
  27   2.0000      -0.907976       -24.7073
  28   2.0000      -0.872488       -23.7416
  29   2.0000      -0.845494       -23.0071
  30   2.0000      -0.837831       -22.7985
  31   2.0000      -0.821426       -22.3521
  32   2.0000      -0.789608       -21.4863
  33   2.0000      -0.775878       -21.1127
  34   2.0000      -0.713278       -19.4093
  35   2.0000      -0.697307       -18.9747
  36   2.0000      -0.687651       -18.7119
  37   2.0000      -0.660660       -17.9775
  38   2.0000      -0.638838       -17.3837
  39   2.0000      -0.621956       -16.9243
  40   2.0000      -0.604656       -16.4535
  41   2.0000      -0.575814       -15.6687
  42   2.0000      -0.556946       -15.1553
  43   2.0000      -0.549963       -14.9653
  44   2.0000      -0.541385       -14.7318
  45   2.0000      -0.536133       -14.5889
  46   2.0000      -0.525812       -14.3081
  47   2.0000      -0.515899       -14.0383
  48   2.0000      -0.511748       -13.9254
  49   2.0000      -0.492827       -13.4105
  50   2.0000      -0.484435       -13.1822
  51   2.0000      -0.479945       -13.0600
  52   2.0000      -0.473736       -12.8910
  53   2.0000      -0.466664       -12.6986
  54   2.0000      -0.461718       -12.5640
  55   2.0000      -0.451565       -12.2877
  56   2.0000      -0.440863       -11.9965
  57   2.0000      -0.439011       -11.9461
  58   2.0000      -0.432652       -11.7731
  59   2.0000      -0.428855       -11.6697
  60   2.0000      -0.409928       -11.1547
  61   2.0000      -0.408739       -11.1224
  62   2.0000      -0.396945       -10.8014
  63   2.0000      -0.348284        -9.4773
  64   2.0000      -0.331836        -9.0297
  65   2.0000      -0.325892        -8.8680
  66   2.0000      -0.299275        -8.1437
  67   0.0000       0.027862         0.7582
  68   0.0000       0.075219         2.0468
  69   0.0000       0.112316         3.0563
  70   0.0000       0.117646         3.2013
  71   0.0000       0.133651         3.6368

MULLIKEN ATOMIC CHARGES
-----------------------
   0 S :    0.112844
   1 C :   -0.075958
   2 C :   -0.116449
   3 C :    0.029623
   4 C :   -0.173261
   5 H :    0.005631
   6 C :    0.137560
   7 H :    0.045972
   8 H :   -0.001018
   9 C :   -0.089328
  10 H :    0.024505
  11 H :    0.030902
  12 C :   -0.037358
  13 H :    0.031976
  14 H :    0.006597
  15 H :    0.027072
  16 S :    0.106957
  17 C :   -0.089160
  18 C :   -0.015696
  19 C :   -0.074503
  20 C :   -0.136275
  21 H :    0.021821
  22 C :    0.098950
  23 H :    0.019125
  24 H :    0.044479
  25 C :   -0.097464
  26 H :    0.043285
  27 H :    0.020461
  28 C :   -0.078229
  29 H :    0.046817
  30 H :    0.017948
  31 H :    0.041024
  32 H :    0.009133
  33 H :    0.062018
Sum of atomic charges:   -0.0000000

LOEWDIN ATOMIC CHARGES
----------------------
   0 S :    0.442808
   1 C :   -0.194029
   2 C :   -0.058801
   3 C :   -0.071645
   4 C :   -0.194846
   5 H :    0.031700
   6 C :   -0.025748
   7 H :    0.048188
   8 H :    0.022945
   9 C :   -0.037742
  10 H :    0.024946
  11 H :    0.021509
  12 C :   -0.064080
  13 H :    0.026629
  14 H :    0.013195
  15 H :    0.022678
  16 S :    0.409543
  17 C :   -0.181066
  18 C :   -0.069977
  19 C :   -0.048115
  20 C :   -0.208266
  21 H :    0.026661
  22 C :   -0.031530
  23 H :    0.014481
  24 H :    0.034282
  25 C :   -0.051561
  26 H :    0.031970
  27 H :    0.021438
  28 C :   -0.072861
  29 H :    0.035485
  30 H :    0.010067
  31 H :    0.031381
  32 H :    0.010162
  33 H :    0.030195

  Mayer bond orders larger than 0.100000
B(  0-S ,  1-C ) :   1.1322 B(  0-S ,  4-C ) :   1.1856 B(  1-C ,  2-C ) :   1.6000
B(  1-C , 32-H ) :   0.9806 B(  2-C ,  3-C ) :   1.2152 B(  2-C ,  6-C ) :   1.0369
B(  3-C ,  4-C ) :   1.5734 B(  3-C ,  5-H ) :   1.0059 B(  4-C , 20-C ) :   1.0279
B(  6-C ,  7-H ) :   0.9209 B(  6-C ,  8-H ) :   0.9358 B(  6-C ,  9-C ) :   1.0882
B(  9-C , 10-H ) :   0.9542 B(  9-C , 11-H ) :   0.9565 B(  9-C , 12-C ) :   1.0638
B( 12-C , 13-H ) :   0.9751 B( 12-C , 14-H ) :   0.9758 B( 12-C , 15-H ) :   0.9779
B( 16-S , 17-C ) :   1.1632 B( 16-S , 20-C ) :   1.1355 B( 17-C , 18-C ) :   1.5982
B( 17-C , 33-H ) :   0.9713 B( 18-C , 19-C ) :   1.2318 B( 18-C , 21-H ) :   0.9894
B( 19-C , 20-C ) :   1.5734 B( 19-C , 22-C ) :   1.0325 B( 22-C , 23-H ) :   0.9290
B( 22-C , 24-H ) :   0.9448 B( 22-C , 25-C ) :   1.0589 B( 25-C , 26-H ) :   0.9538
B( 25-C , 27-H ) :   0.9582 B( 25-C , 28-C ) :   1.0774 B( 28-C , 29-H ) :   0.9713
B( 28-C , 30-H ) :   0.9752 B( 28-C , 31-H ) :   0.9739

Dispersion correction           -0.014702895
FINAL SINGLE POINT ENERGY     -1339.860148369187

DIPOLE MOMENT
-------------
                                X             Y             Z
Electronic contribution:     -0.98793      18.95713     -12.75740
Nuclear contribution   :      0.98465     -19.13883      12.86943
                        -----------------------------------------
Total Dipole Moment    :     -0.00329      -0.18170       0.11203
                        -----------------------------------------
Magnitude (a.u.)       :      0.21348
Magnitude (Debye)      :      0.54264

Rotational constants in cm-1:     0.019390     0.008674     0.007711
Rotational constants in MHz :   581.299622   260.027913   231.184365

                             ****ORCA TERMINATED NORMALLY****
TOTAL RUN TIME: 0 days 0 hours 0 minutes 34 seconds 616 msec
