                         Program Version 4.2.1 -  RELEASE  -
|  1> ! wB97X-D3 SP def2-SVP
|  2> %pal
|  3> nprocs 16
|  4> end
|  5>
|  6> * xyz 0 1
|  7> S 	 9.16511 	 -8.44774 	 64.1387
|  8> C 	 8.46639 	 -8.22056 	 65.7799
|  9> C 	 8.27249 	 -9.44348 	 66.4169
| 10> C 	 8.64106 	 -10.5344 	 65.5694
| 11> C 	 9.02424 	 -10.1905 	 64.309
| 12> H 	 8.42203 	 -11.5884 	 65.8301
| 13> C 	 7.92039 	 -9.57562 	 67.8712
| 14> H 	 7.29977 	 -10.4732 	 67.989
| 15> H 	 7.19487 	 -8.76696 	 68.1229
| 16> C 	 9.18552 	 -9.78654 	 68.711
| 17> H 	 8.89695 	 -10.1546 	 69.7354
| 18> H 	 9.85594 	 -10.516 	 68.2713
| 19> C 	 10.0648 	 -8.53033 	 68.9294
| 20> H 	 9.52494 	 -7.66529 	 69.5648
| 21> H 	 10.9876 	 -8.81675 	 69.4601
| 22> H 	 10.3175 	 -8.08845 	 68.0047
| 23> S 	 11.0107 	 -11.1895 	 62.5894
| 24> C 	 10.6089 	 -12.6014 	 61.5967
| 25> C 	 9.25081 	 -12.7693 	 61.5877
| 26> C 	 8.53118 	 -12.0242 	 62.5712
| 27> C 	 9.36131 	 -11.0953 	 63.2372
| 28> H 	 8.70941 	 -13.3016 	 60.7595
| 29> C 	 7.07821 	 -12.1271 	 62.6902
| 30> H 	 6.74125 	 -12.2632 	 61.6588
| 31> H 	 6.70335 	 -11.1453 	 62.9337
| 32> C 	 6.5848 	 -13.2719 	 63.563
| 33> H 	 6.81591 	 -13.2151 	 64.6412
| 34> H 	 7.21543 	 -14.1177 	 63.2368
| 35> C 	 5.05261 	 -13.5173 	 63.403
| 36> H 	 4.82917 	 -14.2781 	 62.6297
| 37> H 	 4.57197 	 -12.6283 	 63.0128
| 38> H 	 4.61931 	 -13.8168 	 64.3164
| 39> H 	 8.30539 	 -7.26792 	 66.3257
| 40> H 	 11.3227 	 -13.0519 	 60.8952
| 41> *
| 42>
| 43>                          ****END OF INPUT****

CARTESIAN COORDINATES (ANGSTROEM)
---------------------------------
  S      9.165110   -8.447740   64.138700
  C      8.466390   -8.220560   65.779900
  C      8.272490   -9.443480   66.416900
  C      8.641060  -10.534400   65.569400
  C      9.024240  -10.190500   64.309000
  H      8.422030  -11.588400   65.830100
  C      7.920390   -9.575620   67.871200
  H      7.299770  -10.473200   67.989000
  H      7.194870   -8.766960   68.122900
  C      9.185520   -9.786540   68.711000
  H      8.896950  -10.154600   69.735400
  H      9.855940  -10.516000   68.271300
  C     10.064800   -8.530330   68.929400
  H      9.524940   -7.665290   69.564800
  H     10.987600   -8.816750   69.460100
  H     10.317500   -8.088450   68.004700
  S     11.010700  -11.189500   62.589400
  C     10.608900  -12.601400   61.596700
  C      9.250810  -12.769300   61.587700
  C      8.531180  -12.024200   62.571200
  C      9.361310  -11.095300   63.237200
  H      8.709410  -13.301600   60.759500
  C      7.078210  -12.127100   62.690200
  H      6.741250  -12.263200   61.658800
  H      6.703350  -11.145300   62.933700
  C      6.584800  -13.271900   63.563000
  H      6.815910  -13.215100   64.641200
  H      7.215430  -14.117700   63.236800
  C      5.052610  -13.517300   63.403000
  H      4.829170  -14.278100   62.629700
  H      4.571970  -12.628300   63.012800
  H      4.619310  -13.816800   64.316400
  H      8.305390   -7.267920   66.325700
  H     11.322700  -13.051900   60.895200

 Total Charge           Charge          ....    0
 Multiplicity           Mult            ....    1
 Number of Electrons    NEL             ....  134
 Basis Dimension        Dim             ....  322

ORBITAL ENERGIES
----------------

  NO   OCC          E(Eh)            E(eV)
   0   2.0000     -88.967662     -2420.9332
   1   2.0000     -88.965080     -2420.8629
   2   2.0000     -10.328403      -281.0501
   3   2.0000     -10.328173      -281.0439
   4   2.0000     -10.321537      -280.8633
   5   2.0000     -10.320341      -280.8308
   6   2.0000     -10.300980      -280.3039
   7   2.0000     -10.300496      -280.2908
   8   2.0000     -10.297338      -280.2048
   9   2.0000     -10.296940      -280.1940
  10   2.0000     -10.294706      -280.1332
  11   2.0000     -10.293457      -280.0992
  12   2.0000     -10.289968      -280.0043
  13   2.0000     -10.285565      -279.8844
  14   2.0000     -10.283427      -279.8263
  15   2.0000     -10.276729      -279.6440
  16   2.0000      -8.081510      -219.9091
  17   2.0000      -8.079155      -219.8450
  18   2.0000      -6.040147      -164.3607
  19   2.0000      -6.037734      -164.2951
  20   2.0000      -6.036232      -164.2542
  21   2.0000      -6.033829      -164.1888
  22   2.0000      -6.032085      -164.1414
  23   2.0000      -6.029802      -164.0793
  24   2.0000      -1.003786       -27.3144
  25   2.0000      -0.981055       -26.6959
  26   2.0000      -0.913214       -24.8498
  27   2.0000      -0.912041       -24.8179
  28   2.0000      -0.866076       -23.5671
  29   2.0000      -0.849180       -23.1074
  30   2.0000      -0.842438       -22.9239
  31   2.0000      -0.813209       -22.1285
  32   2.0000      -0.782953       -21.3052
  33   2.0000      -0.770657       -20.9706
  34   2.0000      -0.710594       -19.3362
  35   2.0000      -0.700385       -19.0584
  36   2.0000      -0.690583       -18.7917
  37   2.0000      -0.658108       -17.9080
  38   2.0000      -0.638015       -17.3613
  39   2.0000      -0.616538       -16.7768
  40   2.0000      -0.597953       -16.2711
  41   2.0000      -0.567925       -15.4540
  42   2.0000      -0.560086       -15.2407
  43   2.0000      -0.544738       -14.8231
  44   2.0000      -0.535207       -14.5637
  45   2.0000      -0.524541       -14.2735
  46   2.0000      -0.520898       -14.1744
  47   2.0000      -0.514860       -14.0100
  48   2.0000      -0.511036       -13.9060
  49   2.0000      -0.498903       -13.5758
  50   2.0000      -0.486003       -13.2248
  51   2.0000      -0.473989       -12.8979
  52   2.0000      -0.465400       -12.6642
  53   2.0000      -0.463368       -12.6089
  54   2.0000      -0.455420       -12.3926
  55   2.0000      -0.447768       -12.1844
  56   2.0000      -0.446980       -12.1629
  57   2.0000      -0.440482       -11.9861
  58   2.0000      -0.434395       -11.8205
  59   2.0000      -0.423434       -11.5222
  60   2.0000      -0.422274       -11.4907
  61   2.0000      -0.414081       -11.2677
  62   2.0000      -0.409178       -11.1343
  63   2.0000      -0.341116        -9.2822
  64   2.0000      -0.331810        -9.0290
  65   2.0000      -0.325684        -8.8623
  66   2.0000      -0.297845        -8.1048
  67   0.0000       0.032047         0.8720
  68   0.0000       0.058209         1.5839
  69   0.0000       0.102942         2.8012
  70   0.0000       0.116365         3.1664
  71   0.0000       0.123833         3.3697

MULLIKEN ATOMIC CHARGES
-----------------------
   0 S :    0.105286
   1 C :   -0.123767
   2 C :   -0.126742
   3 C :    0.040300
   4 C :   -0.168893
   5 H :    0.022630
   6 C :    0.073053
   7 H :    0.020984
   8 H :    0.036347
   9 C :   -0.065118
  10 H :    0.038070
  11 H :    0.038291
  12 C :   -0.085966
  13 H :    0.038072
  14 H :    0.043158
  15 H :    0.030154
  16 S :    0.099014
  17 C :   -0.102622
  18 C :   -0.040202
  19 C :   -0.054947
  20 C :   -0.156588
  21 H :    0.042681
  22 C :    0.081122
  23 H :    0.017296
  24 H :    0.026924
  25 C :   -0.087816
  26 H :    0.031178
  27 H :    0.026898
  28 C :   -0.019527
  29 H :    0.033994
  30 H :    0.029113
  31 H :    0.028332
  32 H :    0.058508
  33 H :    0.070784
Sum of atomic charges:    0.0000000

LOEWDIN ATOMIC CHARGES
----------------------
   0 S :    0.381640
   1 C :   -0.190620
   2 C :   -0.065506
   3 C :   -0.062319
   4 C :   -0.192248
   5 H :    0.035799
   6 C :   -0.037611
   7 H :    0.032179
   8 H :    0.037201
   9 C :   -0.039281
  10 H :    0.028545
  11 H :    0.029153
  12 C :   -0.072140
  13 H :    0.032928
  14 H :    0.028831
  15 H :    0.013663
  16 S :    0.386869
  17 C :   -0.180784
  18 C :   -0.079626
  19 C :   -0.053845
  20 C :   -0.196368
  21 H :    0.040761
  22 C :   -0.036614
  23 H :    0.034938
  24 H :    0.029541
  25 C :   -0.040677
  26 H :    0.024104
  27 H :    0.026758
  28 C :   -0.061952
  29 H :    0.030180
  30 H :    0.025658
  31 H :    0.020156
  32 H :    0.035472
  33 H :    0.035214

  Mayer bond orders larger than 0.100000
B(  0-S ,  1-C ) :   1.1186 B(  0-S ,  4-C ) :   1.1322 B(  1-C ,  2-C ) :   1.6326
B(  1-C , 32-H ) :   0.9596 B(  2-C ,  3-C ) :   1.2274 B(  2-C ,  6-C ) :   1.0332
B(  3-C ,  4-C ) :   1.6079 B(  3-C ,  5-H ) :   0.9834 B(  4-C , 20-C ) :   1.0424
B(  6-C ,  7-H ) :   0.9320 B(  6-C ,  8-H ) :   0.9446 B(  6-C ,  9-C ) :   1.0561
B(  9-C , 10-H ) :   0.9567 B(  9-C , 11-H ) :   0.9545 B(  9-C , 12-C ) :   1.0746
B( 12-C , 13-H ) :   0.9758 B( 12-C , 14-H ) :   0.9736 B( 12-C , 15-H ) :   0.9742
B( 16-S , 17-C ) :   1.1501 B( 16-S , 20-C ) :   1.1342 B( 17-C , 18-C ) :   1.6062
B( 17-C , 20-C ) :   0.1034 B( 17-C , 33-H ) :   0.9645 B( 18-C , 19-C ) :   1.2530
B( 18-C , 21-H ) :   0.9712 B( 19-C , 20-C ) :   1.5806 B( 19-C , 22-C ) :   1.0547
B( 22-C , 23-H ) :   0.9358 B( 22-C , 24-H ) :   0.9183 B( 22-C , 25-C ) :   1.0507
B( 25-C , 26-H ) :   0.9587 B( 25-C , 27-H ) :   0.9589 B( 25-C , 28-C ) :   1.0640
B( 28-C , 29-H ) :   0.9756 B( 28-C , 30-H ) :   0.9767 B( 28-C , 31-H ) :   0.9788

Dispersion correction           -0.014644434
FINAL SINGLE POINT ENERGY     -1339.878371050734

DIPOLE MOMENT
-------------
                                X             Y             Z
Electronic contribution:     14.98892       7.79830     -16.43674
Nuclear contribution   :    -15.44626      -8.15778      16.61360
                        -----------------------------------------
Total Dipole Moment    :     -0.45734      -0.35948       0.17687
                        -----------------------------------------
Magnitude (a.u.)       :      0.60800
Magnitude (Debye)      :      1.54542

Rotational constants in cm-1:     0.018280     0.008682     0.006917
Rotational constants in MHz :   548.021096   260.285441   207.373733

                             ****ORCA TERMINATED NORMALLY****
TOTAL RUN TIME: 0 days 0 hours 0 minutes 35 seconds 437 msec
