                         Program Version 4.2.1 -  RELEASE  -
|  1> ! wB97X-D3 SP def2-SVP
|  2> %pal
|  3> nprocs 16
|  4> end
|  5>
|  6> * xyz 0 1
|  7> S 	 14.6241 	 12.6946 	 86.1464
|  8> C 	 15.4517 	 12.4838 	 84.6312
|  9> C 	 14.7834 	 13.0818 	 83.5953
| 10> C 	 13.4897 	 13.4073 	 83.9689
| 11> C 	 13.203 	 13.1309 	 85.2858
| 12> H 	 12.782 	 13.7027 	 83.231
| 13> C 	 15.3538 	 13.3279 	 82.1827
| 14> H 	 14.7079 	 12.8769 	 81.4261
| 15> H 	 16.2579 	 12.7082 	 82.1515
| 16> C 	 15.8179 	 14.7655 	 81.8531
| 17> H 	 16.6915 	 15.1311 	 82.5404
| 18> H 	 16.2311 	 14.7063 	 80.8355
| 19> C 	 14.7469 	 15.8079 	 82.039
| 20> H 	 14.6512 	 15.9825 	 83.1131
| 21> H 	 14.9727 	 16.7425 	 81.4996
| 22> H 	 13.871 	 15.6976 	 81.4352
| 23> S 	 11.8052 	 14.7365 	 86.9069
| 24> C 	 10.1563 	 14.3793 	 87.231
| 25> C 	 9.67073 	 13.3097 	 86.5295
| 26> C 	 10.6709 	 12.6927 	 85.7391
| 27> C 	 11.8659 	 13.3772 	 85.8326
| 28> H 	 8.63832 	 13.0092 	 86.7085
| 29> C 	 10.408 	 11.5286 	 84.7405
| 30> H 	 10.0286 	 10.6086 	 85.2913
| 31> H 	 11.3914 	 11.2592 	 84.3046
| 32> C 	 9.41579 	 11.8373 	 83.6186
| 33> H 	 8.40966 	 12.0602 	 84.0603
| 34> H 	 9.34491 	 10.9224 	 83.0719
| 35> C 	 9.81125 	 13.0824 	 82.7323
| 36> H 	 9.00749 	 13.1902 	 82.0053
| 37> H 	 10.8138 	 13.0292 	 82.2583
| 38> H 	 9.92505 	 13.8984 	 83.4218
| 39> H 	 16.4405 	 11.9969 	 84.5792
| 40> H 	 9.57419 	 14.9165 	 87.9053
| 41> *
| 42>
| 43>                          ****END OF INPUT****

CARTESIAN COORDINATES (ANGSTROEM)
---------------------------------
  S     14.624100   12.694600   86.146400
  C     15.451700   12.483800   84.631200
  C     14.783400   13.081800   83.595300
  C     13.489700   13.407300   83.968900
  C     13.203000   13.130900   85.285800
  H     12.782000   13.702700   83.231000
  C     15.353800   13.327900   82.182700
  H     14.707900   12.876900   81.426100
  H     16.257900   12.708200   82.151500
  C     15.817900   14.765500   81.853100
  H     16.691500   15.131100   82.540400
  H     16.231100   14.706300   80.835500
  C     14.746900   15.807900   82.039000
  H     14.651200   15.982500   83.113100
  H     14.972700   16.742500   81.499600
  H     13.871000   15.697600   81.435200
  S     11.805200   14.736500   86.906900
  C     10.156300   14.379300   87.231000
  C      9.670730   13.309700   86.529500
  C     10.670900   12.692700   85.739100
  C     11.865900   13.377200   85.832600
  H      8.638320   13.009200   86.708500
  C     10.408000   11.528600   84.740500
  H     10.028600   10.608600   85.291300
  H     11.391400   11.259200   84.304600
  C      9.415790   11.837300   83.618600
  H      8.409660   12.060200   84.060300
  H      9.344910   10.922400   83.071900
  C      9.811250   13.082400   82.732300
  H      9.007490   13.190200   82.005300
  H     10.813800   13.029200   82.258300
  H      9.925050   13.898400   83.421800
  H     16.440500   11.996900   84.579200
  H      9.574190   14.916500   87.905300

 Total Charge           Charge          ....    0
 Multiplicity           Mult            ....    1
 Number of Electrons    NEL             ....  134
 Basis Dimension        Dim             ....  322

ORBITAL ENERGIES
----------------

  NO   OCC          E(Eh)            E(eV)
   0   2.0000     -88.967636     -2420.9325
   1   2.0000     -88.962086     -2420.7814
   2   2.0000     -10.320813      -280.8436
   3   2.0000     -10.319664      -280.8123
   4   2.0000     -10.312160      -280.6081
   5   2.0000     -10.305736      -280.4333
   6   2.0000     -10.301041      -280.3056
   7   2.0000     -10.296284      -280.1761
   8   2.0000     -10.295701      -280.1603
   9   2.0000     -10.294672      -280.1323
  10   2.0000     -10.293661      -280.1047
  11   2.0000     -10.289535      -279.9925
  12   2.0000     -10.288097      -279.9534
  13   2.0000     -10.282204      -279.7930
  14   2.0000     -10.278020      -279.6791
  15   2.0000     -10.273207      -279.5482
  16   2.0000      -8.083097      -219.9522
  17   2.0000      -8.078086      -219.8159
  18   2.0000      -6.041433      -164.3957
  19   2.0000      -6.037708      -164.2944
  20   2.0000      -6.036319      -164.2566
  21   2.0000      -6.033795      -164.1879
  22   2.0000      -6.032474      -164.1520
  23   2.0000      -6.029025      -164.0581
  24   2.0000      -1.014000       -27.5924
  25   2.0000      -0.991780       -26.9877
  26   2.0000      -0.909362       -24.7450
  27   2.0000      -0.902034       -24.5456
  28   2.0000      -0.868893       -23.6438
  29   2.0000      -0.851593       -23.1730
  30   2.0000      -0.844254       -22.9733
  31   2.0000      -0.813137       -22.1266
  32   2.0000      -0.784974       -21.3602
  33   2.0000      -0.773931       -21.0597
  34   2.0000      -0.702229       -19.1086
  35   2.0000      -0.694965       -18.9110
  36   2.0000      -0.691220       -18.8090
  37   2.0000      -0.655922       -17.8486
  38   2.0000      -0.640745       -17.4355
  39   2.0000      -0.620573       -16.8867
  40   2.0000      -0.593835       -16.1591
  41   2.0000      -0.575304       -15.6548
  42   2.0000      -0.551595       -15.0097
  43   2.0000      -0.546914       -14.8823
  44   2.0000      -0.539733       -14.6869
  45   2.0000      -0.531778       -14.4704
  46   2.0000      -0.521004       -14.1772
  47   2.0000      -0.513907       -13.9841
  48   2.0000      -0.497447       -13.5362
  49   2.0000      -0.496562       -13.5122
  50   2.0000      -0.488438       -13.2911
  51   2.0000      -0.479142       -13.0381
  52   2.0000      -0.470401       -12.8003
  53   2.0000      -0.464079       -12.6282
  54   2.0000      -0.459388       -12.5006
  55   2.0000      -0.449265       -12.2251
  56   2.0000      -0.445747       -12.1294
  57   2.0000      -0.432493       -11.7687
  58   2.0000      -0.425062       -11.5665
  59   2.0000      -0.418796       -11.3960
  60   2.0000      -0.417798       -11.3689
  61   2.0000      -0.415827       -11.3152
  62   2.0000      -0.412939       -11.2366
  63   2.0000      -0.338242        -9.2040
  64   2.0000      -0.331806        -9.0289
  65   2.0000      -0.328131        -8.9289
  66   2.0000      -0.298249        -8.1158
  67   0.0000       0.043755         1.1906
  68   0.0000       0.060453         1.6450
  69   0.0000       0.118239         3.2174
  70   0.0000       0.126308         3.4370
  71   0.0000       0.130403         3.5485

MULLIKEN ATOMIC CHARGES
-----------------------
   0 S :    0.135293
   1 C :   -0.158884
   2 C :   -0.077175
   3 C :    0.045594
   4 C :   -0.144209
   5 H :   -0.017513
   6 C :    0.081613
   7 H :    0.035325
   8 H :    0.010045
   9 C :   -0.087698
  10 H :    0.043172
  11 H :    0.033715
  12 C :   -0.045219
  13 H :    0.063556
  14 H :    0.018687
  15 H :    0.015433
  16 S :    0.112464
  17 C :   -0.063611
  18 C :   -0.049823
  19 C :   -0.015629
  20 C :   -0.202881
  21 H :    0.021196
  22 C :    0.043138
  23 H :    0.040322
  24 H :    0.033851
  25 C :   -0.077064
  26 H :    0.032990
  27 H :    0.029661
  28 C :   -0.061447
  29 H :    0.043355
  30 H :    0.036585
  31 H :    0.045269
  32 H :    0.055060
  33 H :    0.024831
Sum of atomic charges:    0.0000000

LOEWDIN ATOMIC CHARGES
----------------------
   0 S :    0.425426
   1 C :   -0.198990
   2 C :   -0.070330
   3 C :   -0.057616
   4 C :   -0.215432
   5 H :    0.024810
   6 C :   -0.032337
   7 H :    0.030170
   8 H :    0.030647
   9 C :   -0.044171
  10 H :    0.037315
  11 H :    0.025169
  12 C :   -0.081970
  13 H :    0.035278
  14 H :    0.032443
  15 H :    0.021998
  16 S :    0.421919
  17 C :   -0.182093
  18 C :   -0.074018
  19 C :   -0.060070
  20 C :   -0.200350
  21 H :    0.034728
  22 C :   -0.034123
  23 H :    0.037400
  24 H :    0.031254
  25 C :   -0.038603
  26 H :    0.025959
  27 H :    0.020170
  28 C :   -0.065688
  29 H :    0.027993
  30 H :    0.023842
  31 H :    0.025641
  32 H :    0.030666
  33 H :    0.012964

  Mayer bond orders larger than 0.100000
B(  0-S ,  1-C ) :   1.1544 B(  0-S ,  4-C ) :   1.1625 B(  1-C ,  2-C ) :   1.5929
B(  1-C , 32-H ) :   0.9642 B(  2-C ,  3-C ) :   1.2779 B(  2-C ,  6-C ) :   1.0107
B(  3-C ,  4-C ) :   1.5356 B(  3-C ,  5-H ) :   1.0022 B(  4-C , 20-C ) :   1.0084
B(  6-C ,  7-H ) :   0.9445 B(  6-C ,  8-H ) :   0.9327 B(  6-C ,  9-C ) :   1.0688
B(  9-C , 10-H ) :   0.9552 B(  9-C , 11-H ) :   0.9539 B(  9-C , 12-C ) :   1.0910
B( 12-C , 13-H ) :   0.9696 B( 12-C , 14-H ) :   0.9622 B( 12-C , 15-H ) :   0.9668
B( 16-S , 17-C ) :   1.1570 B( 16-S , 20-C ) :   1.1645 B( 17-C , 18-C ) :   1.6270
B( 17-C , 33-H ) :   0.9733 B( 18-C , 19-C ) :   1.2151 B( 18-C , 21-H ) :   0.9919
B( 19-C , 20-C ) :   1.6198 B( 19-C , 22-C ) :   1.0367 B( 22-C , 23-H ) :   0.9362
B( 22-C , 24-H ) :   0.9377 B( 22-C , 25-C ) :   1.0745 B( 25-C , 26-H ) :   0.9547
B( 25-C , 27-H ) :   0.9567 B( 25-C , 28-C ) :   1.0626 B( 28-C , 29-H ) :   0.9726
B( 28-C , 30-H ) :   0.9720 B( 28-C , 31-H ) :   0.9755

Dispersion correction           -0.015776542
FINAL SINGLE POINT ENERGY     -1339.873158449793

DIPOLE MOMENT
-------------
                                X             Y             Z
Electronic contribution:      3.97178      -0.88294      24.28911
Nuclear contribution   :     -4.09345       0.82024     -24.83180
                        -----------------------------------------
Total Dipole Moment    :     -0.12167      -0.06270      -0.54269
                        -----------------------------------------
Magnitude (a.u.)       :      0.55968
Magnitude (Debye)      :      1.42260

Rotational constants in cm-1:     0.018785     0.009476     0.008112
Rotational constants in MHz :   563.146877   284.084614   243.179353

                             ****ORCA TERMINATED NORMALLY****
TOTAL RUN TIME: 0 days 0 hours 0 minutes 37 seconds 761 msec
