                         Program Version 4.2.1 -  RELEASE  -
|  1> ! wB97X-D3 SP def2-SVP
|  2> %pal
|  3> nprocs 16
|  4> end
|  5>
|  6> * xyz 0 1
|  7> S 	 -100.864 	 49.6091 	 119.982
|  8> C 	 -101.712 	 51.0498 	 120.485
|  9> C 	 -103.044 	 50.8207 	 120.834
| 10> C 	 -103.367 	 49.4437 	 120.661
| 11> C 	 -102.334 	 48.6985 	 120.208
| 12> H 	 -104.355 	 49.1485 	 120.799
| 13> C 	 -103.927 	 51.8999 	 121.38
| 14> H 	 -104.66 	 52.0933 	 120.52
| 15> H 	 -103.381 	 52.8431 	 121.41
| 16> C 	 -104.694 	 51.6396 	 122.699
| 17> H 	 -105.374 	 52.5044 	 122.902
| 18> H 	 -105.292 	 50.6914 	 122.615
| 19> C 	 -103.767 	 51.5954 	 123.95
| 20> H 	 -103.039 	 50.7626 	 123.858
| 21> H 	 -103.197 	 52.5413 	 123.884
| 22> H 	 -104.251 	 51.4621 	 124.972
| 23> S 	 -103.805 	 46.6221 	 119.014
| 24> C 	 -103.185 	 44.9501 	 119.164
| 25> C 	 -102.064 	 44.8929 	 119.935
| 26> C 	 -101.57 	 46.1808 	 120.262
| 27> C 	 -102.409 	 47.2338 	 119.897
| 28> H 	 -101.666 	 43.8608 	 120.187
| 29> C 	 -100.288 	 46.3189 	 121.095
| 30> H 	 -100.673 	 46.5615 	 122.083
| 31> H 	 -99.8237 	 47.3295 	 120.794
| 32> C 	 -99.2538 	 45.2468 	 121.183
| 33> H 	 -98.9234 	 45.0153 	 120.206
| 34> H 	 -99.7366 	 44.3562 	 121.666
| 35> C 	 -98.0447 	 45.6 	 122.024
| 36> H 	 -98.3288 	 46.0368 	 123.036
| 37> H 	 -97.4684 	 46.328 	 121.44
| 38> H 	 -97.4744 	 44.6937 	 122.166
| 39> H 	 -101.244 	 52.06 	 120.71
| 40> H 	 -103.613 	 44.0004 	 118.866
| 41> *
| 42>
| 43>                          ****END OF INPUT****

CARTESIAN COORDINATES (ANGSTROEM)
---------------------------------
  S    -100.864000   49.609100  119.982000
  C    -101.712000   51.049800  120.485000
  C    -103.044000   50.820700  120.834000
  C    -103.367000   49.443700  120.661000
  C    -102.334000   48.698500  120.208000
  H    -104.355000   49.148500  120.799000
  C    -103.927000   51.899900  121.380000
  H    -104.660000   52.093300  120.520000
  H    -103.381000   52.843100  121.410000
  C    -104.694000   51.639600  122.699000
  H    -105.374000   52.504400  122.902000
  H    -105.292000   50.691400  122.615000
  C    -103.767000   51.595400  123.950000
  H    -103.039000   50.762600  123.858000
  H    -103.197000   52.541300  123.884000
  H    -104.251000   51.462100  124.972000
  S    -103.805000   46.622100  119.014000
  C    -103.185000   44.950100  119.164000
  C    -102.064000   44.892900  119.935000
  C    -101.570000   46.180800  120.262000
  C    -102.409000   47.233800  119.897000
  H    -101.666000   43.860800  120.187000
  C    -100.288000   46.318900  121.095000
  H    -100.673000   46.561500  122.083000
  H    -99.823700   47.329500  120.794000
  C    -99.253800   45.246800  121.183000
  H    -98.923400   45.015300  120.206000
  H    -99.736600   44.356200  121.666000
  C    -98.044700   45.600000  122.024000
  H    -98.328800   46.036800  123.036000
  H    -97.468400   46.328000  121.440000
  H    -97.474400   44.693700  122.166000
  H    -101.244000   52.060000  120.710000
  H    -103.613000   44.000400  118.866000

 Total Charge           Charge          ....    0
 Multiplicity           Mult            ....    1
 Number of Electrons    NEL             ....  134
 Basis Dimension        Dim             ....  322

ORBITAL ENERGIES
----------------

  NO   OCC          E(Eh)            E(eV)
   0   2.0000     -88.971146     -2421.0280
   1   2.0000     -88.967958     -2420.9412
   2   2.0000     -10.331985      -281.1476
   3   2.0000     -10.328801      -281.0610
   4   2.0000     -10.316231      -280.7189
   5   2.0000     -10.315721      -280.7050
   6   2.0000     -10.304128      -280.3896
   7   2.0000     -10.300924      -280.3024
   8   2.0000     -10.299734      -280.2700
   9   2.0000     -10.299506      -280.2638
  10   2.0000     -10.294342      -280.1233
  11   2.0000     -10.290383      -280.0156
  12   2.0000     -10.288070      -279.9526
  13   2.0000     -10.286178      -279.9011
  14   2.0000     -10.283551      -279.8297
  15   2.0000     -10.282287      -279.7952
  16   2.0000      -8.085437      -220.0159
  17   2.0000      -8.081394      -219.9059
  18   2.0000      -6.043989      -164.4653
  19   2.0000      -6.040131      -164.3603
  20   2.0000      -6.040113      -164.3598
  21   2.0000      -6.036126      -164.2513
  22   2.0000      -6.036069      -164.2498
  23   2.0000      -6.031977      -164.1384
  24   2.0000      -1.006140       -27.3785
  25   2.0000      -0.983696       -26.7677
  26   2.0000      -0.912072       -24.8187
  27   2.0000      -0.909312       -24.7436
  28   2.0000      -0.865425       -23.5494
  29   2.0000      -0.853373       -23.2214
  30   2.0000      -0.845618       -23.0104
  31   2.0000      -0.817929       -22.2570
  32   2.0000      -0.779600       -21.2140
  33   2.0000      -0.766817       -20.8661
  34   2.0000      -0.706182       -19.2162
  35   2.0000      -0.696408       -18.9502
  36   2.0000      -0.684958       -18.6387
  37   2.0000      -0.653907       -17.7937
  38   2.0000      -0.636876       -17.3303
  39   2.0000      -0.619868       -16.8675
  40   2.0000      -0.591942       -16.1076
  41   2.0000      -0.574679       -15.6378
  42   2.0000      -0.566017       -15.4021
  43   2.0000      -0.547273       -14.8920
  44   2.0000      -0.544540       -14.8177
  45   2.0000      -0.526097       -14.3158
  46   2.0000      -0.510565       -13.8932
  47   2.0000      -0.506484       -13.7821
  48   2.0000      -0.503711       -13.7067
  49   2.0000      -0.489486       -13.3196
  50   2.0000      -0.485621       -13.2144
  51   2.0000      -0.474056       -12.8997
  52   2.0000      -0.470942       -12.8150
  53   2.0000      -0.465163       -12.6577
  54   2.0000      -0.456233       -12.4147
  55   2.0000      -0.450029       -12.2459
  56   2.0000      -0.448428       -12.2023
  57   2.0000      -0.443072       -12.0566
  58   2.0000      -0.431698       -11.7471
  59   2.0000      -0.426947       -11.6178
  60   2.0000      -0.420890       -11.4530
  61   2.0000      -0.416953       -11.3459
  62   2.0000      -0.406629       -11.0649
  63   2.0000      -0.349715        -9.5162
  64   2.0000      -0.333518        -9.0755
  65   2.0000      -0.328823        -8.9477
  66   2.0000      -0.288991        -7.8639
  67   0.0000       0.030287         0.8241
  68   0.0000       0.076281         2.0757
  69   0.0000       0.108881         2.9628
  70   0.0000       0.114037         3.1031
  71   0.0000       0.132228         3.5981

MULLIKEN ATOMIC CHARGES
-----------------------
   0 S :    0.119668
   1 C :   -0.145702
   2 C :   -0.101161
   3 C :    0.033478
   4 C :   -0.120724
   5 H :   -0.014808
   6 C :    0.041158
   7 H :    0.051986
   8 H :    0.012486
   9 C :   -0.084326
  10 H :    0.043359
  11 H :    0.043390
  12 C :   -0.086900
  13 H :    0.043106
  14 H :    0.029326
  15 H :    0.054772
  16 S :    0.105493
  17 C :   -0.078059
  18 C :   -0.082534
  19 C :   -0.029817
  20 C :   -0.136426
  21 H :    0.046356
  22 C :    0.026573
  23 H :    0.031798
  24 H :    0.019808
  25 C :   -0.056040
  26 H :    0.023899
  27 H :    0.030917
  28 C :   -0.045660
  29 H :    0.040686
  30 H :    0.035680
  31 H :    0.036845
  32 H :    0.064670
  33 H :    0.046700
Sum of atomic charges:   -0.0000000

LOEWDIN ATOMIC CHARGES
----------------------
   0 S :    0.421199
   1 C :   -0.214868
   2 C :   -0.064188
   3 C :   -0.060879
   4 C :   -0.183058
   5 H :    0.020647
   6 C :   -0.039877
   7 H :    0.046322
   8 H :    0.027894
   9 C :   -0.046812
  10 H :    0.031546
  11 H :    0.026475
  12 C :   -0.077803
  13 H :    0.026691
  14 H :    0.025433
  15 H :    0.034607
  16 S :    0.389426
  17 C :   -0.177568
  18 C :   -0.082111
  19 C :   -0.058488
  20 C :   -0.197420
  21 H :    0.045937
  22 C :   -0.047287
  23 H :    0.033950
  24 H :    0.022550
  25 C :   -0.045508
  26 H :    0.020607
  27 H :    0.026466
  28 C :   -0.059664
  29 H :    0.032018
  30 H :    0.026536
  31 H :    0.026602
  32 H :    0.038784
  33 H :    0.031841

  Mayer bond orders larger than 0.100000
B(  0-S ,  1-C ) :   1.1324 B(  0-S ,  4-C ) :   1.1530 B(  1-C ,  2-C ) :   1.6222
B(  1-C , 32-H ) :   0.9520 B(  2-C ,  3-C ) :   1.2404 B(  2-C ,  6-C ) :   1.0290
B(  3-C ,  4-C ) :   1.5698 B(  3-C ,  5-H ) :   1.0074 B(  4-C , 20-C ) :   1.0167
B(  6-C ,  7-H ) :   0.9287 B(  6-C ,  8-H ) :   0.9408 B(  6-C ,  9-C ) :   1.0674
B(  9-C , 10-H ) :   0.9559 B(  9-C , 11-H ) :   0.9556 B(  9-C , 12-C ) :   1.0568
B( 12-C , 13-H ) :   0.9786 B( 12-C , 14-H ) :   0.9746 B( 12-C , 15-H ) :   0.9761
B( 16-S , 17-C ) :   1.1381 B( 16-S , 20-C ) :   1.1281 B( 17-C , 18-C ) :   1.6513
B( 17-C , 33-H ) :   0.9586 B( 18-C , 19-C ) :   1.2378 B( 18-C , 21-H ) :   0.9747
B( 19-C , 20-C ) :   1.6001 B( 19-C , 22-C ) :   1.0242 B( 22-C , 23-H ) :   0.9203
B( 22-C , 24-H ) :   0.9285 B( 22-C , 25-C ) :   1.0855 B( 25-C , 26-H ) :   0.9539
B( 25-C , 27-H ) :   0.9388 B( 25-C , 28-C ) :   1.0902 B( 28-C , 29-H ) :   0.9737
B( 28-C , 30-H ) :   0.9742 B( 28-C , 31-H ) :   0.9726

Dispersion correction           -0.013907378
FINAL SINGLE POINT ENERGY     -1339.880125903247

DIPOLE MOMENT
-------------
                                X             Y             Z
Electronic contribution:     -5.82087      -3.86545     -18.55606
Nuclear contribution   :      5.84658       3.82769      19.02464
                        -----------------------------------------
Total Dipole Moment    :      0.02571      -0.03776       0.46858
                        -----------------------------------------
Magnitude (a.u.)       :      0.47080
Magnitude (Debye)      :      1.19668

Rotational constants in cm-1:     0.018582     0.008030     0.006663
Rotational constants in MHz :   557.065606   240.718617   199.737611

                             ****ORCA TERMINATED NORMALLY****
TOTAL RUN TIME: 0 days 0 hours 0 minutes 32 seconds 812 msec
