                         Program Version 4.2.1 -  RELEASE  -
|  1> ! wB97X-D3 SP def2-SVP
|  2> %pal
|  3> nprocs 16
|  4> end
|  5>
|  6> * xyz 0 1
|  7> S 	 11.5537 	 -6.746 	 98.9938
|  8> C 	 10.6431 	 -8.16881 	 99.3429
|  9> C 	 10.0709 	 -8.72544 	 98.1932
| 10> C 	 10.4856 	 -8.08981 	 97.0628
| 11> C 	 11.3146 	 -6.98764 	 97.271
| 12> H 	 10.0232 	 -8.28144 	 96.0865
| 13> C 	 8.90788 	 -9.6742 	 98.1741
| 14> H 	 8.25685 	 -9.36417 	 97.379
| 15> H 	 8.37522 	 -9.53276 	 99.2113
| 16> C 	 9.28922 	 -11.1646 	 97.9687
| 17> H 	 8.44094 	 -11.7916 	 97.7726
| 18> H 	 9.95415 	 -11.2352 	 97.1054
| 19> C 	 10.0446 	 -11.9298 	 99.1117
| 20> H 	 11.0246 	 -11.4681 	 99.2292
| 21> H 	 9.679 	 -11.834 	 100.175
| 22> H 	 10.0817 	 -13.0039 	 98.824
| 23> S 	 11.1661 	 -4.46014 	 96.4723
| 24> C 	 12.21 	 -3.87166 	 95.1914
| 25> C 	 12.9296 	 -4.92881 	 94.6094
| 26> C 	 12.6685 	 -6.19582 	 95.1757
| 27> C 	 11.79 	 -6.06927 	 96.2437
| 28> H 	 13.7059 	 -4.77545 	 93.8925
| 29> C 	 13.3379 	 -7.41725 	 94.72
| 30> H 	 12.5735 	 -8.20115 	 94.6779
| 31> H 	 13.9533 	 -7.83562 	 95.5408
| 32> C 	 14.0753 	 -7.19247 	 93.3667
| 33> H 	 14.8033 	 -6.44501 	 93.6263
| 34> H 	 13.3783 	 -6.73952 	 92.634
| 35> C 	 14.8614 	 -8.38939 	 92.7571
| 36> H 	 14.1694 	 -9.12923 	 92.3919
| 37> H 	 15.6013 	 -8.7885 	 93.4648
| 38> H 	 15.4501 	 -8.16525 	 91.8033
| 39> H 	 10.5452 	 -8.61138 	 100.313
| 40> H 	 12.254 	 -2.86051 	 94.7612
| 41> *
| 42>
| 43>                          ****END OF INPUT****

CARTESIAN COORDINATES (ANGSTROEM)
---------------------------------
  S     11.553700   -6.746000   98.993800
  C     10.643100   -8.168810   99.342900
  C     10.070900   -8.725440   98.193200
  C     10.485600   -8.089810   97.062800
  C     11.314600   -6.987640   97.271000
  H     10.023200   -8.281440   96.086500
  C      8.907880   -9.674200   98.174100
  H      8.256850   -9.364170   97.379000
  H      8.375220   -9.532760   99.211300
  C      9.289220  -11.164600   97.968700
  H      8.440940  -11.791600   97.772600
  H      9.954150  -11.235200   97.105400
  C     10.044600  -11.929800   99.111700
  H     11.024600  -11.468100   99.229200
  H      9.679000  -11.834000  100.175000
  H     10.081700  -13.003900   98.824000
  S     11.166100   -4.460140   96.472300
  C     12.210000   -3.871660   95.191400
  C     12.929600   -4.928810   94.609400
  C     12.668500   -6.195820   95.175700
  C     11.790000   -6.069270   96.243700
  H     13.705900   -4.775450   93.892500
  C     13.337900   -7.417250   94.720000
  H     12.573500   -8.201150   94.677900
  H     13.953300   -7.835620   95.540800
  C     14.075300   -7.192470   93.366700
  H     14.803300   -6.445010   93.626300
  H     13.378300   -6.739520   92.634000
  C     14.861400   -8.389390   92.757100
  H     14.169400   -9.129230   92.391900
  H     15.601300   -8.788500   93.464800
  H     15.450100   -8.165250   91.803300
  H     10.545200   -8.611380  100.313000
  H     12.254000   -2.860510   94.761200

 Total Charge           Charge          ....    0
 Multiplicity           Mult            ....    1
 Number of Electrons    NEL             ....  134
 Basis Dimension        Dim             ....  322

ORBITAL ENERGIES
----------------

  NO   OCC          E(Eh)            E(eV)
   0   2.0000     -88.972282     -2421.0589
   1   2.0000     -88.966811     -2420.9100
   2   2.0000     -10.327563      -281.0273
   3   2.0000     -10.320936      -280.8469
   4   2.0000     -10.317104      -280.7427
   5   2.0000     -10.311469      -280.5893
   6   2.0000     -10.299626      -280.2671
   7   2.0000     -10.298377      -280.2331
   8   2.0000     -10.293513      -280.1007
   9   2.0000     -10.292457      -280.0720
  10   2.0000     -10.292426      -280.0711
  11   2.0000     -10.288833      -279.9734
  12   2.0000     -10.288249      -279.9575
  13   2.0000     -10.287996      -279.9506
  14   2.0000     -10.286513      -279.9103
  15   2.0000     -10.283807      -279.8366
  16   2.0000      -8.086825      -220.0537
  17   2.0000      -8.081354      -219.9048
  18   2.0000      -6.045138      -164.4966
  19   2.0000      -6.041263      -164.3911
  20   2.0000      -6.039823      -164.3519
  21   2.0000      -6.037907      -164.2998
  22   2.0000      -6.035788      -164.2421
  23   2.0000      -6.032282      -164.1467
  24   2.0000      -1.010159       -27.4878
  25   2.0000      -0.987331       -26.8667
  26   2.0000      -0.912782       -24.8381
  27   2.0000      -0.906353       -24.6631
  28   2.0000      -0.864021       -23.5112
  29   2.0000      -0.853765       -23.2321
  30   2.0000      -0.848494       -23.0887
  31   2.0000      -0.809469       -22.0268
  32   2.0000      -0.782053       -21.2807
  33   2.0000      -0.770367       -20.9628
  34   2.0000      -0.713632       -19.4189
  35   2.0000      -0.700264       -19.0552
  36   2.0000      -0.695505       -18.9256
  37   2.0000      -0.652175       -17.7466
  38   2.0000      -0.639186       -17.3931
  39   2.0000      -0.620271       -16.8784
  40   2.0000      -0.595760       -16.2114
  41   2.0000      -0.569478       -15.4963
  42   2.0000      -0.567404       -15.4399
  43   2.0000      -0.546887       -14.8816
  44   2.0000      -0.536831       -14.6079
  45   2.0000      -0.525244       -14.2926
  46   2.0000      -0.521324       -14.1859
  47   2.0000      -0.505104       -13.7446
  48   2.0000      -0.502599       -13.6764
  49   2.0000      -0.495141       -13.4735
  50   2.0000      -0.482855       -13.1392
  51   2.0000      -0.474962       -12.9244
  52   2.0000      -0.471908       -12.8413
  53   2.0000      -0.464954       -12.6521
  54   2.0000      -0.460470       -12.5300
  55   2.0000      -0.457676       -12.4540
  56   2.0000      -0.444832       -12.1045
  57   2.0000      -0.436417       -11.8755
  58   2.0000      -0.434514       -11.8237
  59   2.0000      -0.428930       -11.6718
  60   2.0000      -0.423116       -11.5136
  61   2.0000      -0.414175       -11.2703
  62   2.0000      -0.413508       -11.2521
  63   2.0000      -0.343257        -9.3405
  64   2.0000      -0.331570        -9.0225
  65   2.0000      -0.329057        -8.9541
  66   2.0000      -0.286467        -7.7952
  67   0.0000       0.031097         0.8462
  68   0.0000       0.058635         1.5955
  69   0.0000       0.111526         3.0348
  70   0.0000       0.123822         3.3694
  71   0.0000       0.131033         3.5656

MULLIKEN ATOMIC CHARGES
-----------------------
   0 S :    0.142673
   1 C :   -0.129889
   2 C :   -0.067609
   3 C :    0.028647
   4 C :   -0.182277
   5 H :    0.018894
   6 C :    0.044581
   7 H :    0.031035
   8 H :    0.044152
   9 C :   -0.057769
  10 H :    0.027835
  11 H :    0.025925
  12 C :   -0.096115
  13 H :    0.033306
  14 H :    0.032587
  15 H :    0.050349
  16 S :    0.118336
  17 C :   -0.087432
  18 C :   -0.065073
  19 C :   -0.028713
  20 C :   -0.191544
  21 H :    0.011586
  22 C :    0.105119
  23 H :    0.015869
  24 H :    0.040146
  25 C :   -0.129983
  26 H :    0.040420
  27 H :    0.047407
  28 C :   -0.034453
  29 H :    0.030403
  30 H :    0.040544
  31 H :    0.038336
  32 H :    0.041497
  33 H :    0.061212
Sum of atomic charges:    0.0000000

LOEWDIN ATOMIC CHARGES
----------------------
   0 S :    0.431947
   1 C :   -0.205439
   2 C :   -0.075471
   3 C :   -0.065306
   4 C :   -0.207215
   5 H :    0.035054
   6 C :   -0.029081
   7 H :    0.031349
   8 H :    0.042248
   9 C :   -0.041201
  10 H :    0.019395
  11 H :    0.025393
  12 C :   -0.078149
  13 H :    0.022300
  14 H :    0.026105
  15 H :    0.033220
  16 S :    0.418454
  17 C :   -0.196783
  18 C :   -0.072054
  19 C :   -0.057198
  20 C :   -0.204199
  21 H :    0.026337
  22 C :   -0.036823
  23 H :    0.032204
  24 H :    0.042140
  25 C :   -0.042203
  26 H :    0.022538
  27 H :    0.031005
  28 C :   -0.071261
  29 H :    0.021975
  30 H :    0.028171
  31 H :    0.035373
  32 H :    0.023026
  33 H :    0.034148

  Mayer bond orders larger than 0.100000
B(  0-S ,  1-C ) :   1.1719 B(  0-S ,  4-C ) :   1.1714 B(  1-C ,  2-C ) :   1.5405
B(  1-C ,  4-C ) :   0.1165 B(  1-C , 32-H ) :   0.9690 B(  2-C ,  3-C ) :   1.3274
B(  2-C ,  6-C ) :   1.0087 B(  3-C ,  4-C ) :   1.5239 B(  3-C ,  5-H ) :   0.9827
B(  4-C , 20-C ) :   1.0325 B(  6-C ,  7-H ) :   0.9438 B(  6-C ,  8-H ) :   0.9499
B(  6-C ,  9-C ) :   1.0620 B(  9-C , 10-H ) :   0.9625 B(  9-C , 11-H ) :   0.9552
B(  9-C , 12-C ) :   1.0693 B( 12-C , 13-H ) :   0.9754 B( 12-C , 14-H ) :   0.9765
B( 12-C , 15-H ) :   0.9757 B( 16-S , 17-C ) :   1.1542 B( 16-S , 20-C ) :   1.1680
B( 17-C , 18-C ) :   1.5784 B( 17-C , 20-C ) :   0.1087 B( 17-C , 33-H ) :   0.9609
B( 18-C , 19-C ) :   1.2764 B( 18-C , 21-H ) :   0.9819 B( 19-C , 20-C ) :   1.5702
B( 19-C , 22-C ) :   1.0480 B( 22-C , 23-H ) :   0.9183 B( 22-C , 24-H ) :   0.9128
B( 22-C , 25-C ) :   1.0697 B( 25-C , 26-H ) :   0.9437 B( 25-C , 27-H ) :   0.9575
B( 25-C , 28-C ) :   1.0773 B( 28-C , 29-H ) :   0.9746 B( 28-C , 30-H ) :   0.9739
B( 28-C , 31-H ) :   0.9736

Dispersion correction           -0.013656179
FINAL SINGLE POINT ENERGY     -1339.871820904832

DIPOLE MOMENT
-------------
                                X             Y             Z
Electronic contribution:     -3.86009      24.87503      10.63113
Nuclear contribution   :      3.88438     -25.28730     -10.98285
                        -----------------------------------------
Total Dipole Moment    :      0.02429      -0.41227      -0.35172
                        -----------------------------------------
Magnitude (a.u.)       :      0.54246
Magnitude (Debye)      :      1.37883

Rotational constants in cm-1:     0.018182     0.008094     0.006167
Rotational constants in MHz :   545.072055   242.664003   184.881403

                             ****ORCA TERMINATED NORMALLY****
TOTAL RUN TIME: 0 days 0 hours 0 minutes 33 seconds 597 msec
