                         Program Version 4.2.1 -  RELEASE  -
|  1> ! wB97X-D3 SP def2-SVP
|  2> %pal
|  3> nprocs 16
|  4> end
|  5>
|  6> * xyz 0 1
|  7> S 	 -78.4393 	 50.346 	 123.197
|  8> C 	 -80.0736 	 50.0828 	 123.86
|  9> C 	 -80.4533 	 48.7428 	 123.769
| 10> C 	 -79.4132 	 48.0025 	 123.185
| 11> C 	 -78.2486 	 48.6896 	 123.009
| 12> H 	 -79.3453 	 46.9382 	 122.881
| 13> C 	 -81.7771 	 48.1058 	 124.078
| 14> H 	 -82.1686 	 47.6695 	 123.187
| 15> H 	 -82.3968 	 49.0438 	 124.244
| 16> C 	 -81.873 	 47.04 	 125.156
| 17> H 	 -82.9311 	 46.868 	 125.42
| 18> H 	 -81.5559 	 46.0839 	 124.74
| 19> C 	 -81.2039 	 47.3691 	 126.464
| 20> H 	 -81.6794 	 48.2151 	 126.939
| 21> H 	 -81.4564 	 46.4482 	 127.079
| 22> H 	 -80.1436 	 47.4296 	 126.352
| 23> S 	 -76.1184 	 48.7926 	 121.312
| 24> C 	 -74.7353 	 47.7399 	 121.557
| 25> C 	 -74.9885 	 46.8486 	 122.624
| 26> C 	 -76.2046 	 47.0769 	 123.303
| 27> C 	 -76.8633 	 48.1655 	 122.777
| 28> H 	 -74.2168 	 46.1228 	 122.846
| 29> C 	 -76.6526 	 46.0574 	 124.442
| 30> H 	 -76.9281 	 45.175 	 123.943
| 31> H 	 -77.5746 	 46.4297 	 124.87
| 32> C 	 -75.7065 	 45.7487 	 125.64
| 33> H 	 -75.1428 	 46.7006 	 125.946
| 34> H 	 -74.9114 	 45.1401 	 125.164
| 35> C 	 -76.5059 	 45.0249 	 126.732
| 36> H 	 -76.8542 	 44.0386 	 126.354
| 37> H 	 -77.4075 	 45.5853 	 127.127
| 38> H 	 -75.8942 	 44.9543 	 127.628
| 39> H 	 -80.5636 	 50.8769 	 124.351
| 40> H 	 -73.8712 	 47.702 	 120.958
| 41> *
| 42>
| 43>                          ****END OF INPUT****

CARTESIAN COORDINATES (ANGSTROEM)
---------------------------------
  S    -78.439300   50.346000  123.197000
  C    -80.073600   50.082800  123.860000
  C    -80.453300   48.742800  123.769000
  C    -79.413200   48.002500  123.185000
  C    -78.248600   48.689600  123.009000
  H    -79.345300   46.938200  122.881000
  C    -81.777100   48.105800  124.078000
  H    -82.168600   47.669500  123.187000
  H    -82.396800   49.043800  124.244000
  C    -81.873000   47.040000  125.156000
  H    -82.931100   46.868000  125.420000
  H    -81.555900   46.083900  124.740000
  C    -81.203900   47.369100  126.464000
  H    -81.679400   48.215100  126.939000
  H    -81.456400   46.448200  127.079000
  H    -80.143600   47.429600  126.352000
  S    -76.118400   48.792600  121.312000
  C    -74.735300   47.739900  121.557000
  C    -74.988500   46.848600  122.624000
  C    -76.204600   47.076900  123.303000
  C    -76.863300   48.165500  122.777000
  H    -74.216800   46.122800  122.846000
  C    -76.652600   46.057400  124.442000
  H    -76.928100   45.175000  123.943000
  H    -77.574600   46.429700  124.870000
  C    -75.706500   45.748700  125.640000
  H    -75.142800   46.700600  125.946000
  H    -74.911400   45.140100  125.164000
  C    -76.505900   45.024900  126.732000
  H    -76.854200   44.038600  126.354000
  H    -77.407500   45.585300  127.127000
  H    -75.894200   44.954300  127.628000
  H    -80.563600   50.876900  124.351000
  H    -73.871200   47.702000  120.958000

 Total Charge           Charge          ....    0
 Multiplicity           Mult            ....    1
 Number of Electrons    NEL             ....  134
 Basis Dimension        Dim             ....  322

ORBITAL ENERGIES
----------------

  NO   OCC          E(Eh)            E(eV)
   0   2.0000     -88.966586     -2420.9039
   1   2.0000     -88.962072     -2420.7810
   2   2.0000     -10.328274      -281.0466
   3   2.0000     -10.319914      -280.8191
   4   2.0000     -10.316720      -280.7322
   5   2.0000     -10.312569      -280.6193
   6   2.0000     -10.307310      -280.4762
   7   2.0000     -10.301820      -280.3268
   8   2.0000     -10.298243      -280.2294
   9   2.0000     -10.294311      -280.1224
  10   2.0000     -10.292360      -280.0694
  11   2.0000     -10.290797      -280.0268
  12   2.0000     -10.290166      -280.0097
  13   2.0000     -10.286330      -279.9053
  14   2.0000     -10.286186      -279.9013
  15   2.0000     -10.276377      -279.6344
  16   2.0000      -8.081057      -219.8967
  17   2.0000      -8.078160      -219.8179
  18   2.0000      -6.039547      -164.3444
  19   2.0000      -6.036380      -164.2582
  20   2.0000      -6.035608      -164.2372
  21   2.0000      -6.032579      -164.1548
  22   2.0000      -6.031849      -164.1349
  23   2.0000      -6.029035      -164.0584
  24   2.0000      -1.010138       -27.4872
  25   2.0000      -0.984453       -26.7883
  26   2.0000      -0.917060       -24.9545
  27   2.0000      -0.903049       -24.5732
  28   2.0000      -0.866754       -23.5856
  29   2.0000      -0.850894       -23.1540
  30   2.0000      -0.844835       -22.9891
  31   2.0000      -0.811161       -22.0728
  32   2.0000      -0.785418       -21.3723
  33   2.0000      -0.776023       -21.1167
  34   2.0000      -0.703879       -19.1535
  35   2.0000      -0.697725       -18.9860
  36   2.0000      -0.692433       -18.8421
  37   2.0000      -0.657945       -17.9036
  38   2.0000      -0.643083       -17.4992
  39   2.0000      -0.616124       -16.7656
  40   2.0000      -0.594036       -16.1645
  41   2.0000      -0.563469       -15.3328
  42   2.0000      -0.562103       -15.2956
  43   2.0000      -0.556715       -15.1490
  44   2.0000      -0.549023       -14.9397
  45   2.0000      -0.526345       -14.3226
  46   2.0000      -0.524155       -14.2630
  47   2.0000      -0.513511       -13.9733
  48   2.0000      -0.495717       -13.4891
  49   2.0000      -0.492708       -13.4073
  50   2.0000      -0.487989       -13.2789
  51   2.0000      -0.483558       -13.1583
  52   2.0000      -0.471114       -12.8197
  53   2.0000      -0.464588       -12.6421
  54   2.0000      -0.459599       -12.5063
  55   2.0000      -0.446426       -12.1479
  56   2.0000      -0.440326       -11.9819
  57   2.0000      -0.434695       -11.8287
  58   2.0000      -0.429260       -11.6807
  59   2.0000      -0.429118       -11.6769
  60   2.0000      -0.423582       -11.5263
  61   2.0000      -0.413031       -11.2391
  62   2.0000      -0.411252       -11.1907
  63   2.0000      -0.339271        -9.2320
  64   2.0000      -0.335134        -9.1195
  65   2.0000      -0.329301        -8.9607
  66   2.0000      -0.292351        -7.9553
  67   0.0000       0.033542         0.9127
  68   0.0000       0.066821         1.8183
  69   0.0000       0.103729         2.8226
  70   0.0000       0.117694         3.2026
  71   0.0000       0.129747         3.5306

MULLIKEN ATOMIC CHARGES
-----------------------
   0 S :    0.108683
   1 C :   -0.125550
   2 C :   -0.087466
   3 C :    0.008305
   4 C :   -0.162094
   5 H :    0.020411
   6 C :    0.085203
   7 H :    0.028813
   8 H :    0.021464
   9 C :   -0.080995
  10 H :    0.029577
  11 H :    0.022602
  12 C :   -0.046967
  13 H :    0.035594
  14 H :    0.034701
  15 H :    0.047974
  16 S :    0.102732
  17 C :   -0.077928
  18 C :   -0.061712
  19 C :   -0.007510
  20 C :   -0.151416
  21 H :    0.020209
  22 C :    0.072464
  23 H :    0.024803
  24 H :    0.011218
  25 C :   -0.100681
  26 H :    0.051335
  27 H :    0.034381
  28 C :   -0.060712
  29 H :    0.042387
  30 H :    0.044863
  31 H :    0.039513
  32 H :    0.034971
  33 H :    0.040827
Sum of atomic charges:    0.0000000

LOEWDIN ATOMIC CHARGES
----------------------
   0 S :    0.422777
   1 C :   -0.184137
   2 C :   -0.061302
   3 C :   -0.078364
   4 C :   -0.215234
   5 H :    0.037384
   6 C :   -0.036979
   7 H :    0.032678
   8 H :    0.036037
   9 C :   -0.046188
  10 H :    0.030455
  11 H :    0.021967
  12 C :   -0.062194
  13 H :    0.025423
  14 H :    0.035685
  15 H :    0.020880
  16 S :    0.402158
  17 C :   -0.178712
  18 C :   -0.070110
  19 C :   -0.056448
  20 C :   -0.195551
  21 H :    0.029658
  22 C :   -0.024226
  23 H :    0.023813
  24 H :    0.022406
  25 C :   -0.049198
  26 H :    0.035146
  27 H :    0.024018
  28 C :   -0.070333
  29 H :    0.031542
  30 H :    0.034223
  31 H :    0.028128
  32 H :    0.015590
  33 H :    0.019009

  Mayer bond orders larger than 0.100000
B(  0-S ,  1-C ) :   1.1418 B(  0-S ,  4-C ) :   1.1820 B(  1-C ,  2-C ) :   1.5910
B(  1-C ,  4-C ) :   0.1010 B(  1-C , 32-H ) :   0.9764 B(  2-C ,  3-C ) :   1.2194
B(  2-C ,  6-C ) :   1.0203 B(  3-C ,  4-C ) :   1.5948 B(  3-C ,  5-H ) :   0.9951
B(  4-C , 20-C ) :   0.9571 B(  6-C ,  7-H ) :   0.9379 B(  6-C ,  8-H ) :   0.9384
B(  6-C ,  9-C ) :   1.0717 B(  9-C , 10-H ) :   0.9530 B(  9-C , 11-H ) :   0.9513
B(  9-C , 12-C ) :   1.0866 B( 12-C , 13-H ) :   0.9750 B( 12-C , 14-H ) :   0.9725
B( 12-C , 15-H ) :   0.9707 B( 16-S , 17-C ) :   1.1537 B( 16-S , 20-C ) :   1.1550
B( 17-C , 18-C ) :   1.6038 B( 17-C , 20-C ) :   0.1078 B( 17-C , 33-H ) :   0.9755
B( 18-C , 19-C ) :   1.2325 B( 18-C , 21-H ) :   0.9915 B( 19-C , 20-C ) :   1.6337
B( 19-C , 22-C ) :   1.0120 B( 22-C , 23-H ) :   0.9373 B( 22-C , 24-H ) :   0.9427
B( 22-C , 25-C ) :   1.0486 B( 25-C , 26-H ) :   0.9608 B( 25-C , 27-H ) :   0.9520
B( 25-C , 28-C ) :   1.0776 B( 28-C , 29-H ) :   0.9717 B( 28-C , 30-H ) :   0.9743
B( 28-C , 31-H ) :   0.9737

Dispersion correction           -0.014448076
FINAL SINGLE POINT ENERGY     -1339.864426314975

DIPOLE MOMENT
-------------
                                X             Y             Z
Electronic contribution:     10.39470      19.92532     -22.46564
Nuclear contribution   :    -10.58126     -20.60927      22.83468
                        -----------------------------------------
Total Dipole Moment    :     -0.18656      -0.68396       0.36904
                        -----------------------------------------
Magnitude (a.u.)       :      0.79925
Magnitude (Debye)      :      2.03152

Rotational constants in cm-1:     0.015934     0.010417     0.006929
Rotational constants in MHz :   477.684373   312.283894   207.720592

                             ****ORCA TERMINATED NORMALLY****
TOTAL RUN TIME: 0 days 0 hours 0 minutes 34 seconds 868 msec
