                         Program Version 4.2.1 -  RELEASE  -
|  1> ! wB97X-D3 SP def2-SVP
|  2> %pal
|  3> nprocs 16
|  4> end
|  5>
|  6> * xyz 0 1
|  7> S 	 7.19804 	 -11.9967 	 62.6503
|  8> C 	 7.46118 	 -10.2614 	 62.7013
|  9> C 	 7.17287 	 -9.79209 	 63.9801
| 10> C 	 6.71397 	 -10.8022 	 64.8772
| 11> C 	 6.4964 	 -12.0129 	 64.2404
| 12> H 	 6.49476 	 -10.6245 	 65.9044
| 13> C 	 7.21584 	 -8.33885 	 64.3082
| 14> H 	 6.30368 	 -7.95845 	 64.7459
| 15> H 	 7.30886 	 -7.69137 	 63.4065
| 16> C 	 8.42633 	 -7.877 	 65.1305
| 17> H 	 9.39481 	 -8.12786 	 64.6134
| 18> H 	 8.49397 	 -6.77305 	 65.1201
| 19> C 	 8.33181 	 -8.23225 	 66.5879
| 20> H 	 7.35914 	 -8.06425 	 67.055
| 21> H 	 8.62118 	 -9.27763 	 66.623
| 22> H 	 8.95858 	 -7.61454 	 67.2114
| 23> S 	 6.33479 	 -14.3623 	 65.76
| 24> C 	 4.83369 	 -15.1221 	 66.063
| 25> C 	 3.83306 	 -14.2725 	 65.6963
| 26> C 	 4.23219 	 -13.1206 	 64.9257
| 27> C 	 5.64514 	 -13.0751 	 64.7461
| 28> H 	 2.77027 	 -14.5321 	 65.9722
| 29> C 	 3.23245 	 -12.2645 	 64.1717
| 30> H 	 3.54211 	 -11.2317 	 64.1762
| 31> H 	 2.33445 	 -12.2381 	 64.8124
| 32> C 	 2.99456 	 -12.5601 	 62.7074
| 33> H 	 2.4522 	 -13.5103 	 62.7336
| 34> H 	 3.86277 	 -12.8698 	 62.1305
| 35> C 	 2.15469 	 -11.5345 	 61.92
| 36> H 	 1.19295 	 -11.4129 	 62.4136
| 37> H 	 1.94265 	 -11.7123 	 60.8843
| 38> H 	 2.63193 	 -10.5493 	 61.9447
| 39> H 	 7.76551 	 -9.66167 	 61.8468
| 40> H 	 4.61628 	 -16.0002 	 66.6861
| 41> *
| 42>
| 43>                          ****END OF INPUT****

CARTESIAN COORDINATES (ANGSTROEM)
---------------------------------
  S      7.198040  -11.996700   62.650300
  C      7.461180  -10.261400   62.701300
  C      7.172870   -9.792090   63.980100
  C      6.713970  -10.802200   64.877200
  C      6.496400  -12.012900   64.240400
  H      6.494760  -10.624500   65.904400
  C      7.215840   -8.338850   64.308200
  H      6.303680   -7.958450   64.745900
  H      7.308860   -7.691370   63.406500
  C      8.426330   -7.877000   65.130500
  H      9.394810   -8.127860   64.613400
  H      8.493970   -6.773050   65.120100
  C      8.331810   -8.232250   66.587900
  H      7.359140   -8.064250   67.055000
  H      8.621180   -9.277630   66.623000
  H      8.958580   -7.614540   67.211400
  S      6.334790  -14.362300   65.760000
  C      4.833690  -15.122100   66.063000
  C      3.833060  -14.272500   65.696300
  C      4.232190  -13.120600   64.925700
  C      5.645140  -13.075100   64.746100
  H      2.770270  -14.532100   65.972200
  C      3.232450  -12.264500   64.171700
  H      3.542110  -11.231700   64.176200
  H      2.334450  -12.238100   64.812400
  C      2.994560  -12.560100   62.707400
  H      2.452200  -13.510300   62.733600
  H      3.862770  -12.869800   62.130500
  C      2.154690  -11.534500   61.920000
  H      1.192950  -11.412900   62.413600
  H      1.942650  -11.712300   60.884300
  H      2.631930  -10.549300   61.944700
  H      7.765510   -9.661670   61.846800
  H      4.616280  -16.000200   66.686100

 Total Charge           Charge          ....    0
 Multiplicity           Mult            ....    1
 Number of Electrons    NEL             ....  134
 Basis Dimension        Dim             ....  322

ORBITAL ENERGIES
----------------

  NO   OCC          E(Eh)            E(eV)
   0   2.0000     -88.966920     -2420.9130
   1   2.0000     -88.962756     -2420.7997
   2   2.0000     -10.330562      -281.1089
   3   2.0000     -10.329803      -281.0882
   4   2.0000     -10.317977      -280.7664
   5   2.0000     -10.315214      -280.6912
   6   2.0000     -10.309925      -280.5473
   7   2.0000     -10.301927      -280.3297
   8   2.0000     -10.295805      -280.1631
   9   2.0000     -10.295537      -280.1558
  10   2.0000     -10.290660      -280.0231
  11   2.0000     -10.288758      -279.9713
  12   2.0000     -10.287455      -279.9359
  13   2.0000     -10.281230      -279.7665
  14   2.0000     -10.274608      -279.5863
  15   2.0000     -10.272653      -279.5331
  16   2.0000      -8.081691      -219.9140
  17   2.0000      -8.077785      -219.8077
  18   2.0000      -6.040120      -164.3600
  19   2.0000      -6.036239      -164.2544
  20   2.0000      -6.036123      -164.2513
  21   2.0000      -6.032582      -164.1549
  22   2.0000      -6.032122      -164.1424
  23   2.0000      -6.028695      -164.0491
  24   2.0000      -1.006459       -27.3872
  25   2.0000      -0.986248       -26.8372
  26   2.0000      -0.915009       -24.8986
  27   2.0000      -0.907248       -24.6875
  28   2.0000      -0.870703       -23.6930
  29   2.0000      -0.848972       -23.1017
  30   2.0000      -0.844937       -22.9919
  31   2.0000      -0.815790       -22.1988
  32   2.0000      -0.784557       -21.3489
  33   2.0000      -0.771504       -20.9937
  34   2.0000      -0.708747       -19.2860
  35   2.0000      -0.696309       -18.9475
  36   2.0000      -0.694975       -18.9112
  37   2.0000      -0.650420       -17.6988
  38   2.0000      -0.645668       -17.5695
  39   2.0000      -0.620940       -16.8966
  40   2.0000      -0.596773       -16.2390
  41   2.0000      -0.574856       -15.6426
  42   2.0000      -0.553882       -15.0719
  43   2.0000      -0.549796       -14.9607
  44   2.0000      -0.541802       -14.7432
  45   2.0000      -0.521349       -14.1866
  46   2.0000      -0.518567       -14.1109
  47   2.0000      -0.514267       -13.9939
  48   2.0000      -0.508356       -13.8331
  49   2.0000      -0.501089       -13.6353
  50   2.0000      -0.492849       -13.4111
  51   2.0000      -0.488879       -13.3031
  52   2.0000      -0.471451       -12.8288
  53   2.0000      -0.464293       -12.6341
  54   2.0000      -0.457937       -12.4611
  55   2.0000      -0.452280       -12.3072
  56   2.0000      -0.443117       -12.0578
  57   2.0000      -0.438384       -11.9290
  58   2.0000      -0.435515       -11.8510
  59   2.0000      -0.417724       -11.3669
  60   2.0000      -0.412543       -11.2259
  61   2.0000      -0.404492       -11.0068
  62   2.0000      -0.401344       -10.9211
  63   2.0000      -0.333537        -9.0760
  64   2.0000      -0.327378        -8.9084
  65   2.0000      -0.318282        -8.6609
  66   2.0000      -0.312742        -8.5101
  67   0.0000       0.038132         1.0376
  68   0.0000       0.044789         1.2188
  69   0.0000       0.117071         3.1857
  70   0.0000       0.119080         3.2403
  71   0.0000       0.129569         3.5258

MULLIKEN ATOMIC CHARGES
-----------------------
   0 S :    0.119229
   1 C :   -0.126218
   2 C :   -0.072309
   3 C :    0.077587
   4 C :   -0.176002
   5 H :    0.009515
   6 C :    0.047972
   7 H :    0.026489
   8 H :    0.017989
   9 C :   -0.101219
  10 H :    0.035229
  11 H :    0.019369
  12 C :   -0.035716
  13 H :    0.024588
  14 H :    0.042109
  15 H :    0.025818
  16 S :    0.104786
  17 C :   -0.084547
  18 C :   -0.069490
  19 C :   -0.028118
  20 C :   -0.166385
  21 H :    0.035211
  22 C :    0.084219
  23 H :    0.008393
  24 H :    0.020497
  25 C :   -0.048620
  26 H :    0.012951
  27 H :    0.028488
  28 C :   -0.040505
  29 H :    0.022836
  30 H :    0.033455
  31 H :    0.028644
  32 H :    0.056327
  33 H :    0.067426
Sum of atomic charges:   -0.0000000

LOEWDIN ATOMIC CHARGES
----------------------
   0 S :    0.414671
   1 C :   -0.192606
   2 C :   -0.065625
   3 C :   -0.045866
   4 C :   -0.206029
   5 H :    0.030215
   6 C :   -0.036034
   7 H :    0.027993
   8 H :    0.035706
   9 C :   -0.047488
  10 H :    0.030201
  11 H :    0.021299
  12 C :   -0.070038
  13 H :    0.025173
  14 H :    0.027178
  15 H :    0.024500
  16 S :    0.414260
  17 C :   -0.203949
  18 C :   -0.086473
  19 C :   -0.046297
  20 C :   -0.199505
  21 H :    0.038000
  22 C :   -0.035624
  23 H :    0.025915
  24 H :    0.032584
  25 C :   -0.043727
  26 H :    0.023228
  27 H :    0.025003
  28 C :   -0.064739
  29 H :    0.024190
  30 H :    0.025957
  31 H :    0.025152
  32 H :    0.031999
  33 H :    0.040775

  Mayer bond orders larger than 0.100000
B(  0-S ,  1-C ) :   1.1433 B(  0-S ,  4-C ) :   1.1624 B(  1-C ,  2-C ) :   1.5940
B(  1-C , 32-H ) :   0.9714 B(  2-C ,  3-C ) :   1.2432 B(  2-C ,  6-C ) :   1.0306
B(  3-C ,  4-C ) :   1.5536 B(  3-C ,  5-H ) :   1.0029 B(  4-C , 20-C ) :   1.0230
B(  6-C ,  7-H ) :   0.9443 B(  6-C ,  8-H ) :   0.9388 B(  6-C ,  9-C ) :   1.0771
B(  9-C , 10-H ) :   0.9528 B(  9-C , 11-H ) :   0.9556 B(  9-C , 12-C ) :   1.0818
B( 12-C , 13-H ) :   0.9708 B( 12-C , 14-H ) :   0.9736 B( 12-C , 15-H ) :   0.9718
B( 16-S , 17-C ) :   1.1685 B( 16-S , 20-C ) :   1.1501 B( 17-C , 18-C ) :   1.6007
B( 17-C , 20-C ) :   0.1024 B( 17-C , 33-H ) :   0.9625 B( 18-C , 19-C ) :   1.2660
B( 18-C , 21-H ) :   0.9780 B( 19-C , 20-C ) :   1.5512 B( 19-C , 22-C ) :   1.0595
B( 22-C , 23-H ) :   0.9252 B( 22-C , 24-H ) :   0.9303 B( 22-C , 25-C ) :   1.0537
B( 25-C , 26-H ) :   0.9500 B( 25-C , 27-H ) :   0.9547 B( 25-C , 28-C ) :   1.0790
B( 28-C , 29-H ) :   0.9749 B( 28-C , 30-H ) :   0.9751 B( 28-C , 31-H ) :   0.9752

Dispersion correction           -0.014784045
FINAL SINGLE POINT ENERGY     -1339.870830154217

DIPOLE MOMENT
-------------
                                X             Y             Z
Electronic contribution:      9.10653     -20.28335       0.45290
Nuclear contribution   :     -9.50959      20.86281      -0.31771
                        -----------------------------------------
Total Dipole Moment    :     -0.40306       0.57946       0.13519
                        -----------------------------------------
Magnitude (a.u.)       :      0.71869
Magnitude (Debye)      :      1.82675

Rotational constants in cm-1:     0.017453     0.008913     0.007407
Rotational constants in MHz :   523.226972   267.215546   222.055828

                             ****ORCA TERMINATED NORMALLY****
TOTAL RUN TIME: 0 days 0 hours 0 minutes 30 seconds 154 msec
