                         Program Version 4.2.1 -  RELEASE  -
|  1> ! wB97X-D3 SP def2-SVP
|  2> %pal
|  3> nprocs 16
|  4> end
|  5>
|  6> * xyz 0 1
|  7> S 	 -15.6045 	 39.2367 	 32.9239
|  8> C 	 -13.9371 	 38.5868 	 33.1612
|  9> C 	 -13.1716 	 38.9214 	 32.0804
| 10> C 	 -13.7792 	 39.7231 	 31.0757
| 11> C 	 -15.1258 	 39.8884 	 31.3744
| 12> H 	 -13.2927 	 40.0941 	 30.1605
| 13> C 	 -11.6957 	 38.5108 	 32.0234
| 14> H 	 -11.7886 	 37.3941 	 31.8294
| 15> H 	 -11.2875 	 38.7577 	 33.0611
| 16> C 	 -10.8065 	 39.1543 	 30.873
| 17> H 	 -10.892 	 40.2748 	 30.9132
| 18> H 	 -9.83182 	 38.8651 	 31.248
| 19> C 	 -10.9441 	 38.5597 	 29.4374
| 20> H 	 -11.799 	 39.0083 	 28.9715
| 21> H 	 -10.1147 	 38.8423 	 28.7878
| 22> H 	 -11.0509 	 37.4698 	 29.4618
| 23> S 	 -17.7737 	 39.7646 	 30.3998
| 24> C 	 -18.2411 	 40.9284 	 29.1744
| 25> C 	 -17.3807 	 41.9741 	 29.0911
| 26> C 	 -16.1644 	 41.7495 	 29.7935
| 27> C 	 -16.1761 	 40.5602 	 30.5499
| 28> H 	 -17.6962 	 42.7195 	 28.3336
| 29> C 	 -15.0556 	 42.7552 	 29.603
| 30> H 	 -14.3931 	 42.3147 	 28.8263
| 31> H 	 -14.4586 	 42.7768 	 30.4657
| 32> C 	 -15.3739 	 44.2083 	 29.1854
| 33> H 	 -15.9606 	 44.682 	 30.0079
| 34> H 	 -16.0871 	 44.1263 	 28.3061
| 35> C 	 -14.1226 	 44.9932 	 28.7737
| 36> H 	 -14.4355 	 46.0691 	 28.6298
| 37> H 	 -13.5412 	 44.588 	 27.9469
| 38> H 	 -13.4758 	 45.0197 	 29.7045
| 39> H 	 -13.6335 	 37.9295 	 33.8812
| 40> H 	 -19.1425 	 40.7723 	 28.6616
| 41> *
| 42>
| 43>                          ****END OF INPUT****

CARTESIAN COORDINATES (ANGSTROEM)
---------------------------------
  S    -15.604500   39.236700   32.923900
  C    -13.937100   38.586800   33.161200
  C    -13.171600   38.921400   32.080400
  C    -13.779200   39.723100   31.075700
  C    -15.125800   39.888400   31.374400
  H    -13.292700   40.094100   30.160500
  C    -11.695700   38.510800   32.023400
  H    -11.788600   37.394100   31.829400
  H    -11.287500   38.757700   33.061100
  C    -10.806500   39.154300   30.873000
  H    -10.892000   40.274800   30.913200
  H     -9.831820   38.865100   31.248000
  C    -10.944100   38.559700   29.437400
  H    -11.799000   39.008300   28.971500
  H    -10.114700   38.842300   28.787800
  H    -11.050900   37.469800   29.461800
  S    -17.773700   39.764600   30.399800
  C    -18.241100   40.928400   29.174400
  C    -17.380700   41.974100   29.091100
  C    -16.164400   41.749500   29.793500
  C    -16.176100   40.560200   30.549900
  H    -17.696200   42.719500   28.333600
  C    -15.055600   42.755200   29.603000
  H    -14.393100   42.314700   28.826300
  H    -14.458600   42.776800   30.465700
  C    -15.373900   44.208300   29.185400
  H    -15.960600   44.682000   30.007900
  H    -16.087100   44.126300   28.306100
  C    -14.122600   44.993200   28.773700
  H    -14.435500   46.069100   28.629800
  H    -13.541200   44.588000   27.946900
  H    -13.475800   45.019700   29.704500
  H    -13.633500   37.929500   33.881200
  H    -19.142500   40.772300   28.661600

 Total Charge           Charge          ....    0
 Multiplicity           Mult            ....    1
 Number of Electrons    NEL             ....  134
 Basis Dimension        Dim             ....  322

ORBITAL ENERGIES
----------------

  NO   OCC          E(Eh)            E(eV)
   0   2.0000     -88.965132     -2420.8643
   1   2.0000     -88.961988     -2420.7788
   2   2.0000     -10.334916      -281.2273
   3   2.0000     -10.332269      -281.1553
   4   2.0000     -10.312150      -280.6079
   5   2.0000     -10.308877      -280.5188
   6   2.0000     -10.304526      -280.4004
   7   2.0000     -10.303311      -280.3673
   8   2.0000     -10.297829      -280.2182
   9   2.0000     -10.297018      -280.1961
  10   2.0000     -10.296483      -280.1815
  11   2.0000     -10.295450      -280.1534
  12   2.0000     -10.292753      -280.0801
  13   2.0000     -10.291508      -280.0462
  14   2.0000     -10.288910      -279.9755
  15   2.0000     -10.283587      -279.8306
  16   2.0000      -8.078955      -219.8395
  17   2.0000      -8.076521      -219.7733
  18   2.0000      -6.037573      -164.2907
  19   2.0000      -6.035046      -164.2220
  20   2.0000      -6.033639      -164.1837
  21   2.0000      -6.031124      -164.1152
  22   2.0000      -6.029618      -164.0743
  23   2.0000      -6.027207      -164.0087
  24   2.0000      -1.000335       -27.2205
  25   2.0000      -0.980512       -26.6811
  26   2.0000      -0.908895       -24.7323
  27   2.0000      -0.901617       -24.5343
  28   2.0000      -0.865272       -23.5452
  29   2.0000      -0.850178       -23.1345
  30   2.0000      -0.839109       -22.8333
  31   2.0000      -0.818295       -22.2669
  32   2.0000      -0.781580       -21.2679
  33   2.0000      -0.770863       -20.9763
  34   2.0000      -0.708254       -19.2726
  35   2.0000      -0.699760       -19.0414
  36   2.0000      -0.692750       -18.8507
  37   2.0000      -0.648047       -17.6343
  38   2.0000      -0.634894       -17.2763
  39   2.0000      -0.622187       -16.9306
  40   2.0000      -0.601714       -16.3735
  41   2.0000      -0.567664       -15.4469
  42   2.0000      -0.566248       -15.4084
  43   2.0000      -0.549177       -14.9439
  44   2.0000      -0.529804       -14.4167
  45   2.0000      -0.522994       -14.2314
  46   2.0000      -0.516046       -14.0423
  47   2.0000      -0.511723       -13.9247
  48   2.0000      -0.507517       -13.8102
  49   2.0000      -0.498367       -13.5613
  50   2.0000      -0.490390       -13.3442
  51   2.0000      -0.475957       -12.9514
  52   2.0000      -0.468615       -12.7517
  53   2.0000      -0.465118       -12.6565
  54   2.0000      -0.459150       -12.4941
  55   2.0000      -0.453153       -12.3309
  56   2.0000      -0.446627       -12.1533
  57   2.0000      -0.438170       -11.9232
  58   2.0000      -0.432871       -11.7790
  59   2.0000      -0.425938       -11.5904
  60   2.0000      -0.419897       -11.4260
  61   2.0000      -0.413054       -11.2398
  62   2.0000      -0.404760       -11.0141
  63   2.0000      -0.346282        -9.4228
  64   2.0000      -0.331109        -9.0099
  65   2.0000      -0.328770        -8.9463
  66   2.0000      -0.286350        -7.7920
  67   0.0000       0.026854         0.7307
  68   0.0000       0.068343         1.8597
  69   0.0000       0.105575         2.8728
  70   0.0000       0.128334         3.4922
  71   0.0000       0.133796         3.6408

MULLIKEN ATOMIC CHARGES
-----------------------
   0 S :    0.096651
   1 C :   -0.096497
   2 C :   -0.080961
   3 C :    0.011565
   4 C :   -0.126381
   5 H :    0.019352
   6 C :   -0.015179
   7 H :    0.054754
   8 H :    0.058771
   9 C :   -0.092545
  10 H :    0.045789
  11 H :    0.030136
  12 C :   -0.036643
  13 H :    0.022121
  14 H :    0.040393
  15 H :    0.041049
  16 S :    0.089620
  17 C :   -0.087457
  18 C :   -0.052355
  19 C :   -0.011831
  20 C :   -0.151658
  21 H :    0.039618
  22 C :    0.054455
  23 H :    0.037332
  24 H :    0.012937
  25 C :   -0.103726
  26 H :    0.045542
  27 H :    0.035308
  28 C :   -0.062045
  29 H :    0.048828
  30 H :    0.047363
  31 H :    0.036219
  32 H :    0.008459
  33 H :    0.041013
Sum of atomic charges:   -0.0000000

LOEWDIN ATOMIC CHARGES
----------------------
   0 S :    0.383520
   1 C :   -0.182950
   2 C :   -0.061553
   3 C :   -0.077569
   4 C :   -0.174751
   5 H :    0.036403
   6 C :   -0.041212
   7 H :    0.042096
   8 H :    0.042484
   9 C :   -0.048856
  10 H :    0.029481
  11 H :    0.025875
  12 C :   -0.063958
  13 H :    0.018385
  14 H :    0.030281
  15 H :    0.029771
  16 S :    0.380325
  17 C :   -0.162511
  18 C :   -0.083475
  19 C :   -0.049691
  20 C :   -0.192897
  21 H :    0.042380
  22 C :   -0.037975
  23 H :    0.036557
  24 H :    0.021242
  25 C :   -0.046807
  26 H :    0.031182
  27 H :    0.023473
  28 C :   -0.070783
  29 H :    0.036472
  30 H :    0.026856
  31 H :    0.031729
  32 H :    0.009656
  33 H :    0.016820

  Mayer bond orders larger than 0.100000
B(  0-S ,  1-C ) :   1.0943 B(  0-S ,  4-C ) :   1.1724 B(  1-C ,  2-C ) :   1.6479
B(  1-C , 32-H ) :   0.9850 B(  2-C ,  3-C ) :   1.2363 B(  2-C ,  6-C ) :   0.9812
B(  3-C ,  4-C ) :   1.5618 B(  3-C ,  5-H ) :   0.9844 B(  4-C , 20-C ) :   1.0302
B(  6-C ,  7-H ) :   0.9380 B(  6-C ,  8-H ) :   0.9529 B(  6-C ,  9-C ) :   1.0747
B(  9-C , 10-H ) :   0.9549 B(  9-C , 11-H ) :   0.9549 B(  9-C , 12-C ) :   1.0660
B( 12-C , 13-H ) :   0.9781 B( 12-C , 14-H ) :   0.9727 B( 12-C , 15-H ) :   0.9728
B( 16-S , 17-C ) :   1.1587 B( 16-S , 20-C ) :   1.1269 B( 17-C , 18-C ) :   1.6252
B( 17-C , 33-H ) :   0.9709 B( 18-C , 19-C ) :   1.2149 B( 18-C , 21-H ) :   0.9832
B( 19-C , 20-C ) :   1.5983 B( 19-C , 22-C ) :   1.0352 B( 22-C , 23-H ) :   0.9264
B( 22-C , 24-H ) :   0.9281 B( 22-C , 25-C ) :   1.0692 B( 25-C , 26-H ) :   0.9561
B( 25-C , 27-H ) :   0.9440 B( 25-C , 28-C ) :   1.0787 B( 28-C , 29-H ) :   0.9716
B( 28-C , 30-H ) :   0.9746 B( 28-C , 31-H ) :   0.9734

Dispersion correction           -0.013677199
FINAL SINGLE POINT ENERGY     -1339.867985950500

DIPOLE MOMENT
-------------
                                X             Y             Z
Electronic contribution:    -23.94568     -12.31010      12.46450
Nuclear contribution   :     24.50320      12.58631     -12.95825
                        -----------------------------------------
Total Dipole Moment    :      0.55752       0.27621      -0.49375
                        -----------------------------------------
Magnitude (a.u.)       :      0.79429
Magnitude (Debye)      :      2.01893

Rotational constants in cm-1:     0.015365     0.009288     0.006691
Rotational constants in MHz :   460.641617   278.451301   200.602501

                             ****ORCA TERMINATED NORMALLY****
TOTAL RUN TIME: 0 days 0 hours 0 minutes 32 seconds 828 msec
