                         Program Version 4.2.1 -  RELEASE  -
|  1> ! wB97X-D3 SP def2-SVP
|  2> %pal
|  3> nprocs 16
|  4> end
|  5>
|  6> * xyz 0 1
|  7> S 	 -2.73259 	 35.1642 	 47.8928
|  8> C 	 -1.28276 	 35.2434 	 48.8852
|  9> C 	 -1.41963 	 34.3646 	 49.9283
| 10> C 	 -2.53044 	 33.5198 	 49.827
| 11> C 	 -3.3898 	 33.8276 	 48.7825
| 12> H 	 -2.81828 	 32.8399 	 50.6204
| 13> C 	 -0.350778 	 34.1207 	 51.0006
| 14> H 	 0.0665242 	 33.1958 	 50.7569
| 15> H 	 -0.82223 	 33.9449 	 51.9669
| 16> C 	 0.675143 	 35.1648 	 51.3135
| 17> H 	 1.26143 	 35.4232 	 50.439
| 18> H 	 0.118922 	 36.0957 	 51.5439
| 19> C 	 1.49383 	 34.7599 	 52.5579
| 20> H 	 1.97836 	 35.6285 	 52.9059
| 21> H 	 0.955691 	 34.4046 	 53.3918
| 22> H 	 2.2609 	 34.0386 	 52.2903
| 23> S 	 -5.9269 	 33.6755 	 49.8877
| 24> C 	 -7.14141 	 33.0206 	 48.7745
| 25> C 	 -6.62922 	 32.4942 	 47.6481
| 26> C 	 -5.26915 	 32.6887 	 47.515
| 27> C 	 -4.70337 	 33.2918 	 48.6057
| 28> H 	 -7.2763 	 32.0669 	 46.9278
| 29> C 	 -4.45517 	 32.1549 	 46.3063
| 30> H 	 -3.97327 	 31.2466 	 46.6244
| 31> H 	 -3.60054 	 32.8245 	 46.1498
| 32> C 	 -5.20528 	 32.0613 	 44.9299
| 33> H 	 -6.14316 	 31.5644 	 45.0891
| 34> H 	 -4.69591 	 31.3788 	 44.2915
| 35> C 	 -5.52434 	 33.3674 	 44.2267
| 36> H 	 -6.08939 	 33.3626 	 43.2877
| 37> H 	 -4.59703 	 33.8806 	 44.0179
| 38> H 	 -6.09475 	 33.8656 	 44.9661
| 39> H 	 -0.421303 	 35.7685 	 48.7356
| 40> H 	 -8.21518 	 33.0896 	 48.9712
| 41> *
| 42>
| 43>                          ****END OF INPUT****

CARTESIAN COORDINATES (ANGSTROEM)
---------------------------------
  S     -2.732590   35.164200   47.892800
  C     -1.282760   35.243400   48.885200
  C     -1.419630   34.364600   49.928300
  C     -2.530440   33.519800   49.827000
  C     -3.389800   33.827600   48.782500
  H     -2.818280   32.839900   50.620400
  C     -0.350778   34.120700   51.000600
  H      0.066524   33.195800   50.756900
  H     -0.822230   33.944900   51.966900
  C      0.675143   35.164800   51.313500
  H      1.261430   35.423200   50.439000
  H      0.118922   36.095700   51.543900
  C      1.493830   34.759900   52.557900
  H      1.978360   35.628500   52.905900
  H      0.955691   34.404600   53.391800
  H      2.260900   34.038600   52.290300
  S     -5.926900   33.675500   49.887700
  C     -7.141410   33.020600   48.774500
  C     -6.629220   32.494200   47.648100
  C     -5.269150   32.688700   47.515000
  C     -4.703370   33.291800   48.605700
  H     -7.276300   32.066900   46.927800
  C     -4.455170   32.154900   46.306300
  H     -3.973270   31.246600   46.624400
  H     -3.600540   32.824500   46.149800
  C     -5.205280   32.061300   44.929900
  H     -6.143160   31.564400   45.089100
  H     -4.695910   31.378800   44.291500
  C     -5.524340   33.367400   44.226700
  H     -6.089390   33.362600   43.287700
  H     -4.597030   33.880600   44.017900
  H     -6.094750   33.865600   44.966100
  H     -0.421303   35.768500   48.735600
  H     -8.215180   33.089600   48.971200

 Total Charge           Charge          ....    0
 Multiplicity           Mult            ....    1
 Number of Electrons    NEL             ....  134
 Basis Dimension        Dim             ....  322

ORBITAL ENERGIES
----------------

  NO   OCC          E(Eh)            E(eV)
   0   2.0000     -88.966656     -2420.9058
   1   2.0000     -88.964678     -2420.8520
   2   2.0000     -10.323447      -280.9153
   3   2.0000     -10.322540      -280.8906
   4   2.0000     -10.317618      -280.7566
   5   2.0000     -10.303645      -280.3764
   6   2.0000     -10.301114      -280.3076
   7   2.0000     -10.294823      -280.1364
   8   2.0000     -10.293136      -280.0905
   9   2.0000     -10.285850      -279.8922
  10   2.0000     -10.285067      -279.8709
  11   2.0000     -10.284554      -279.8569
  12   2.0000     -10.282885      -279.8115
  13   2.0000     -10.280814      -279.7552
  14   2.0000     -10.272541      -279.5301
  15   2.0000     -10.271009      -279.4884
  16   2.0000      -8.080331      -219.8770
  17   2.0000      -8.078976      -219.8401
  18   2.0000      -6.038813      -164.3245
  19   2.0000      -6.037524      -164.2894
  20   2.0000      -6.035219      -164.2267
  21   2.0000      -6.033435      -164.1781
  22   2.0000      -6.030937      -164.1101
  23   2.0000      -6.029815      -164.0796
  24   2.0000      -1.008054       -27.4305
  25   2.0000      -0.986404       -26.8414
  26   2.0000      -0.915642       -24.9159
  27   2.0000      -0.904796       -24.6207
  28   2.0000      -0.873840       -23.7784
  29   2.0000      -0.852631       -23.2013
  30   2.0000      -0.847471       -23.0609
  31   2.0000      -0.814908       -22.1748
  32   2.0000      -0.786747       -21.4085
  33   2.0000      -0.774763       -21.0824
  34   2.0000      -0.716849       -19.5065
  35   2.0000      -0.703402       -19.1406
  36   2.0000      -0.699633       -19.0380
  37   2.0000      -0.661263       -17.9939
  38   2.0000      -0.638453       -17.3732
  39   2.0000      -0.610923       -16.6241
  40   2.0000      -0.601968       -16.3804
  41   2.0000      -0.577779       -15.7222
  42   2.0000      -0.570216       -15.5164
  43   2.0000      -0.555629       -15.1194
  44   2.0000      -0.542173       -14.7533
  45   2.0000      -0.525835       -14.3087
  46   2.0000      -0.519946       -14.1485
  47   2.0000      -0.514760       -14.0073
  48   2.0000      -0.499671       -13.5967
  49   2.0000      -0.495208       -13.4753
  50   2.0000      -0.490585       -13.3495
  51   2.0000      -0.480108       -13.0644
  52   2.0000      -0.473231       -12.8773
  53   2.0000      -0.466158       -12.6848
  54   2.0000      -0.462643       -12.5892
  55   2.0000      -0.452937       -12.3251
  56   2.0000      -0.447035       -12.1644
  57   2.0000      -0.442934       -12.0528
  58   2.0000      -0.431925       -11.7533
  59   2.0000      -0.423536       -11.5250
  60   2.0000      -0.418358       -11.3841
  61   2.0000      -0.415489       -11.3060
  62   2.0000      -0.412455       -11.2235
  63   2.0000      -0.340481        -9.2650
  64   2.0000      -0.332246        -9.0409
  65   2.0000      -0.328709        -8.9446
  66   2.0000      -0.297377        -8.0920
  67   0.0000       0.033012         0.8983
  68   0.0000       0.059595         1.6216
  69   0.0000       0.105789         2.8787
  70   0.0000       0.125389         3.4120
  71   0.0000       0.140389         3.8202

MULLIKEN ATOMIC CHARGES
-----------------------
   0 S :    0.120427
   1 C :   -0.095249
   2 C :   -0.069395
   3 C :    0.002395
   4 C :   -0.142234
   5 H :    0.011325
   6 C :    0.066337
   7 H :    0.020266
   8 H :    0.013383
   9 C :   -0.094943
  10 H :    0.028207
  11 H :    0.029927
  12 C :   -0.005460
  13 H :    0.018631
  14 H :    0.022503
  15 H :    0.033288
  16 S :    0.106789
  17 C :   -0.093649
  18 C :   -0.018394
  19 C :   -0.025228
  20 C :   -0.173289
  21 H :    0.003591
  22 C :    0.086228
  23 H :    0.042835
  24 H :    0.019117
  25 C :   -0.065233
  26 H :    0.012930
  27 H :    0.016752
  28 C :   -0.028027
  29 H :    0.041249
  30 H :    0.028566
  31 H :    0.023504
  32 H :    0.005285
  33 H :    0.057565
Sum of atomic charges:    0.0000000

LOEWDIN ATOMIC CHARGES
----------------------
   0 S :    0.416056
   1 C :   -0.190394
   2 C :   -0.058352
   3 C :   -0.070143
   4 C :   -0.199251
   5 H :    0.030418
   6 C :   -0.032678
   7 H :    0.024273
   8 H :    0.030730
   9 C :   -0.042282
  10 H :    0.019718
  11 H :    0.027814
  12 C :   -0.053440
  13 H :    0.023169
  14 H :    0.021150
  15 H :    0.027874
  16 S :    0.372660
  17 C :   -0.161459
  18 C :   -0.076008
  19 C :   -0.049086
  20 C :   -0.183916
  21 H :    0.028466
  22 C :   -0.022312
  23 H :    0.037260
  24 H :    0.027181
  25 C :   -0.039723
  26 H :    0.015926
  27 H :    0.019111
  28 C :   -0.060829
  29 H :    0.030719
  30 H :    0.024275
  31 H :    0.022292
  32 H :    0.009844
  33 H :    0.030940

  Mayer bond orders larger than 0.100000
B(  0-S ,  1-C ) :   1.1305 B(  0-S ,  4-C ) :   1.1509 B(  1-C ,  2-C ) :   1.5948
B(  1-C , 32-H ) :   0.9813 B(  2-C ,  3-C ) :   1.2755 B(  2-C ,  6-C ) :   1.0045
B(  3-C ,  4-C ) :   1.5317 B(  3-C ,  5-H ) :   1.0008 B(  4-C , 20-C ) :   1.0725
B(  6-C ,  7-H ) :   0.9380 B(  6-C ,  8-H ) :   0.9413 B(  6-C ,  9-C ) :   1.0746
B(  9-C , 10-H ) :   0.9468 B(  9-C , 11-H ) :   0.9577 B(  9-C , 12-C ) :   1.0873
B( 12-C , 13-H ) :   0.9714 B( 12-C , 14-H ) :   0.9737 B( 12-C , 15-H ) :   0.9750
B( 16-S , 17-C ) :   1.1503 B( 16-S , 20-C ) :   1.1098 B( 17-C , 18-C ) :   1.6297
B( 17-C , 33-H ) :   0.9600 B( 18-C , 19-C ) :   1.2312 B( 18-C , 21-H ) :   0.9945
B( 19-C , 20-C ) :   1.6179 B( 19-C , 22-C ) :   1.0174 B( 22-C , 23-H ) :   0.9369
B( 22-C , 24-H ) :   0.9284 B( 22-C , 25-C ) :   1.0648 B( 25-C , 26-H ) :   0.9549
B( 25-C , 27-H ) :   0.9523 B( 25-C , 28-C ) :   1.0694 B( 28-C , 29-H ) :   0.9744
B( 28-C , 30-H ) :   0.9746 B( 28-C , 31-H ) :   0.9769

Dispersion correction           -0.013942768
FINAL SINGLE POINT ENERGY     -1339.870377969680

DIPOLE MOMENT
-------------
                                X             Y             Z
Electronic contribution:    -13.79757       3.20893       2.76320
Nuclear contribution   :     13.95060      -3.47908      -2.77529
                        -----------------------------------------
Total Dipole Moment    :      0.15304      -0.27015      -0.01209
                        -----------------------------------------
Magnitude (a.u.)       :      0.31072
Magnitude (Debye)      :      0.78978

Rotational constants in cm-1:     0.025911     0.006782     0.005863
Rotational constants in MHz :   776.778051   203.323041   175.782729

                             ****ORCA TERMINATED NORMALLY****
TOTAL RUN TIME: 0 days 0 hours 0 minutes 31 seconds 115 msec
