                         Program Version 4.2.1 -  RELEASE  -
|  1> ! wB97X-D3 SP def2-SVP
|  2> %pal
|  3> nprocs 16
|  4> end
|  5>
|  6> * xyz 0 1
|  7> S 	 -67.7979 	 39.9641 	 141.618
|  8> C 	 -69.2417 	 39.289 	 140.856
|  9> C 	 -68.9797 	 38.3492 	 139.951
| 10> C 	 -67.5394 	 38.177 	 139.795
| 11> C 	 -66.7566 	 39.0162 	 140.553
| 12> H 	 -67.0599 	 37.4423 	 139.15
| 13> C 	 -70.0739 	 37.6352 	 139.173
| 14> H 	 -71.0486 	 37.9334 	 139.679
| 15> H 	 -69.7757 	 36.6065 	 139.274
| 16> C 	 -70.1591 	 37.8988 	 137.721
| 17> H 	 -70.7576 	 38.8 	 137.607
| 18> H 	 -69.0921 	 38.101 	 137.442
| 19> C 	 -70.8559 	 36.8257 	 136.883
| 20> H 	 -70.2033 	 35.936 	 136.716
| 21> H 	 -71.8766 	 36.5071 	 137.264
| 22> H 	 -71.128 	 36.9593 	 135.848
| 23> S 	 -64.4041 	 38.0104 	 141.736
| 24> C 	 -62.9528 	 38.6588 	 141.18
| 25> C 	 -63.0829 	 39.5362 	 140.152
| 26> C 	 -64.3901 	 39.6377 	 139.662
| 27> C 	 -65.2772 	 39.0708 	 140.536
| 28> H 	 -62.1904 	 40.1153 	 139.878
| 29> C 	 -64.7689 	 40.4081 	 138.412
| 30> H 	 -65.8623 	 40.2966 	 138.274
| 31> H 	 -64.2271 	 39.9974 	 137.651
| 32> C 	 -64.4335 	 41.8795 	 138.472
| 33> H 	 -64.8205 	 42.3918 	 137.61
| 34> H 	 -63.3283 	 41.9964 	 138.53
| 35> C 	 -65.0156 	 42.6206 	 139.673
| 36> H 	 -64.7792 	 43.6956 	 139.687
| 37> H 	 -64.6766 	 42.224 	 140.633
| 38> H 	 -66.0244 	 42.4019 	 139.689
| 39> H 	 -70.2455 	 39.5655 	 141.164
| 40> H 	 -62.0104 	 38.2991 	 141.482
| 41> *
| 42>
| 43>                          ****END OF INPUT****

CARTESIAN COORDINATES (ANGSTROEM)
---------------------------------
  S    -67.797900   39.964100  141.618000
  C    -69.241700   39.289000  140.856000
  C    -68.979700   38.349200  139.951000
  C    -67.539400   38.177000  139.795000
  C    -66.756600   39.016200  140.553000
  H    -67.059900   37.442300  139.150000
  C    -70.073900   37.635200  139.173000
  H    -71.048600   37.933400  139.679000
  H    -69.775700   36.606500  139.274000
  C    -70.159100   37.898800  137.721000
  H    -70.757600   38.800000  137.607000
  H    -69.092100   38.101000  137.442000
  C    -70.855900   36.825700  136.883000
  H    -70.203300   35.936000  136.716000
  H    -71.876600   36.507100  137.264000
  H    -71.128000   36.959300  135.848000
  S    -64.404100   38.010400  141.736000
  C    -62.952800   38.658800  141.180000
  C    -63.082900   39.536200  140.152000
  C    -64.390100   39.637700  139.662000
  C    -65.277200   39.070800  140.536000
  H    -62.190400   40.115300  139.878000
  C    -64.768900   40.408100  138.412000
  H    -65.862300   40.296600  138.274000
  H    -64.227100   39.997400  137.651000
  C    -64.433500   41.879500  138.472000
  H    -64.820500   42.391800  137.610000
  H    -63.328300   41.996400  138.530000
  C    -65.015600   42.620600  139.673000
  H    -64.779200   43.695600  139.687000
  H    -64.676600   42.224000  140.633000
  H    -66.024400   42.401900  139.689000
  H    -70.245500   39.565500  141.164000
  H    -62.010400   38.299100  141.482000

 Total Charge           Charge          ....    0
 Multiplicity           Mult            ....    1
 Number of Electrons    NEL             ....  134
 Basis Dimension        Dim             ....  322

ORBITAL ENERGIES
----------------

  NO   OCC          E(Eh)            E(eV)
   0   2.0000     -88.962903     -2420.8037
   1   2.0000     -88.961999     -2420.7791
   2   2.0000     -10.330985      -281.1204
   3   2.0000     -10.327512      -281.0259
   4   2.0000     -10.310899      -280.5738
   5   2.0000     -10.307311      -280.4762
   6   2.0000     -10.302146      -280.3356
   7   2.0000     -10.298411      -280.2340
   8   2.0000     -10.297683      -280.2142
   9   2.0000     -10.294143      -280.1179
  10   2.0000     -10.289469      -279.9907
  11   2.0000     -10.287213      -279.9293
  12   2.0000     -10.286342      -279.9056
  13   2.0000     -10.284751      -279.8623
  14   2.0000     -10.281891      -279.7845
  15   2.0000     -10.263016      -279.2709
  16   2.0000      -8.077446      -219.7985
  17   2.0000      -8.077361      -219.7962
  18   2.0000      -6.036003      -164.2480
  19   2.0000      -6.035696      -164.2396
  20   2.0000      -6.032041      -164.1402
  21   2.0000      -6.031959      -164.1380
  22   2.0000      -6.028235      -164.0366
  23   2.0000      -6.027926      -164.0282
  24   2.0000      -1.007599       -27.4182
  25   2.0000      -0.989258       -26.9191
  26   2.0000      -0.919729       -25.0271
  27   2.0000      -0.916557       -24.9408
  28   2.0000      -0.870718       -23.6934
  29   2.0000      -0.851277       -23.1644
  30   2.0000      -0.842719       -22.9315
  31   2.0000      -0.813776       -22.1440
  32   2.0000      -0.790818       -21.5192
  33   2.0000      -0.779615       -21.2144
  34   2.0000      -0.708218       -19.2716
  35   2.0000      -0.696481       -18.9522
  36   2.0000      -0.693894       -18.8818
  37   2.0000      -0.655619       -17.8403
  38   2.0000      -0.641398       -17.4533
  39   2.0000      -0.617594       -16.8056
  40   2.0000      -0.600033       -16.3277
  41   2.0000      -0.575213       -15.6523
  42   2.0000      -0.567792       -15.4504
  43   2.0000      -0.563318       -15.3287
  44   2.0000      -0.544238       -14.8095
  45   2.0000      -0.527762       -14.3611
  46   2.0000      -0.516617       -14.0579
  47   2.0000      -0.511018       -13.9055
  48   2.0000      -0.504587       -13.7305
  49   2.0000      -0.498840       -13.5741
  50   2.0000      -0.490027       -13.3343
  51   2.0000      -0.480695       -13.0804
  52   2.0000      -0.472818       -12.8660
  53   2.0000      -0.464987       -12.6529
  54   2.0000      -0.456230       -12.4146
  55   2.0000      -0.452902       -12.3241
  56   2.0000      -0.443115       -12.0578
  57   2.0000      -0.437992       -11.9184
  58   2.0000      -0.425765       -11.5857
  59   2.0000      -0.421322       -11.4648
  60   2.0000      -0.418588       -11.3904
  61   2.0000      -0.416395       -11.3307
  62   2.0000      -0.411368       -11.1939
  63   2.0000      -0.335962        -9.1420
  64   2.0000      -0.328905        -8.9500
  65   2.0000      -0.326503        -8.8846
  66   2.0000      -0.310747        -8.4559
  67   0.0000       0.048250         1.3129
  68   0.0000       0.054563         1.4847
  69   0.0000       0.113567         3.0903
  70   0.0000       0.121942         3.3182
  71   0.0000       0.129749         3.5306

MULLIKEN ATOMIC CHARGES
-----------------------
   0 S :    0.102216
   1 C :   -0.134135
   2 C :   -0.085222
   3 C :    0.041746
   4 C :   -0.174098
   5 H :    0.014578
   6 C :    0.091937
   7 H :    0.029401
   8 H :    0.022373
   9 C :   -0.050351
  10 H :    0.026636
  11 H :    0.036992
  12 C :   -0.073247
  13 H :    0.030118
  14 H :    0.035989
  15 H :    0.024879
  16 S :    0.106786
  17 C :   -0.057468
  18 C :   -0.063839
  19 C :   -0.023335
  20 C :   -0.208836
  21 H :    0.027834
  22 C :    0.154801
  23 H :    0.032399
  24 H :    0.008980
  25 C :   -0.097750
  26 H :    0.030307
  27 H :    0.027512
  28 C :   -0.030517
  29 H :    0.040098
  30 H :    0.027057
  31 H :    0.007541
  32 H :    0.041950
  33 H :    0.036667
Sum of atomic charges:    0.0000000

LOEWDIN ATOMIC CHARGES
----------------------
   0 S :    0.381788
   1 C :   -0.182161
   2 C :   -0.070303
   3 C :   -0.059208
   4 C :   -0.195265
   5 H :    0.030723
   6 C :   -0.028447
   7 H :    0.036661
   8 H :    0.031373
   9 C :   -0.048241
  10 H :    0.026091
  11 H :    0.031972
  12 C :   -0.082737
  13 H :    0.028551
  14 H :    0.033502
  15 H :    0.025813
  16 S :    0.398887
  17 C :   -0.186339
  18 C :   -0.084356
  19 C :   -0.042152
  20 C :   -0.183293
  21 H :    0.036474
  22 C :   -0.017004
  23 H :    0.035827
  24 H :    0.022852
  25 C :   -0.037692
  26 H :    0.023951
  27 H :    0.021782
  28 C :   -0.063267
  29 H :    0.029583
  30 H :    0.024984
  31 H :    0.012246
  32 H :    0.027330
  33 H :    0.020075

  Mayer bond orders larger than 0.100000
B(  0-S ,  1-C ) :   1.1204 B(  0-S ,  4-C ) :   1.1321 B(  1-C ,  2-C ) :   1.6782
B(  1-C , 32-H ) :   0.9620 B(  2-C ,  3-C ) :   1.1849 B(  2-C ,  6-C ) :   1.0179
B(  3-C ,  4-C ) :   1.6275 B(  3-C ,  5-H ) :   0.9926 B(  4-C , 20-C ) :   1.0135
B(  6-C ,  7-H ) :   0.9368 B(  6-C ,  8-H ) :   0.9301 B(  6-C ,  9-C ) :   1.0669
B(  9-C , 10-H ) :   0.9521 B(  9-C , 11-H ) :   0.9580 B(  9-C , 12-C ) :   1.0725
B( 12-C , 13-H ) :   0.9729 B( 12-C , 14-H ) :   0.9724 B( 12-C , 15-H ) :   0.9750
B( 16-S , 17-C ) :   1.1699 B( 16-S , 20-C ) :   1.1288 B( 17-C , 18-C ) :   1.6331
B( 17-C , 33-H ) :   0.9652 B( 18-C , 19-C ) :   1.2068 B( 18-C , 21-H ) :   0.9881
B( 19-C , 20-C ) :   1.6291 B( 19-C , 22-C ) :   1.0360 B( 22-C , 23-H ) :   0.9291
B( 22-C , 24-H ) :   0.9184 B( 22-C , 25-C ) :   1.0868 B( 25-C , 26-H ) :   0.9552
B( 25-C , 27-H ) :   0.9531 B( 25-C , 28-C ) :   1.0777 B( 28-C , 29-H ) :   0.9739
B( 28-C , 30-H ) :   0.9676 B( 28-C , 31-H ) :   0.9735

Dispersion correction           -0.014895137
FINAL SINGLE POINT ENERGY     -1339.865672876363

DIPOLE MOMENT
-------------
                                X             Y             Z
Electronic contribution:     10.17442      -4.03607      20.58458
Nuclear contribution   :    -10.24034       3.95919     -21.20541
                        -----------------------------------------
Total Dipole Moment    :     -0.06592      -0.07688      -0.62083
                        -----------------------------------------
Magnitude (a.u.)       :      0.62904
Magnitude (Debye)      :      1.59888

Rotational constants in cm-1:     0.019905     0.007759     0.007232
Rotational constants in MHz :   596.745587   232.612445   216.818731

                             ****ORCA TERMINATED NORMALLY****
TOTAL RUN TIME: 0 days 0 hours 0 minutes 35 seconds 105 msec
