                         Program Version 4.2.1 -  RELEASE  -
|  1> ! wB97X-D3 SP def2-SVP
|  2> %pal
|  3> nprocs 16
|  4> end
|  5>
|  6> * xyz 0 1
|  7> S 	 11.1752 	 -9.146 	 70.8095
|  8> C 	 9.53376 	 -8.53916 	 71.0346
|  9> C 	 8.88899 	 -8.53359 	 69.7859
| 10> C 	 9.74165 	 -8.97818 	 68.706
| 11> C 	 11.034 	 -9.34465 	 69.1372
| 12> H 	 9.39241 	 -9.0824 	 67.6906
| 13> C 	 7.41266 	 -8.28643 	 69.6419
| 14> H 	 7.23225 	 -8.22996 	 68.5817
| 15> H 	 7.13708 	 -7.25232 	 69.8624
| 16> C 	 6.47972 	 -9.2871 	 70.2857
| 17> H 	 6.57538 	 -10.2385 	 69.8265
| 18> H 	 6.60202 	 -9.34094 	 71.3256
| 19> C 	 5.04423 	 -8.92889 	 70.0881
| 20> H 	 4.7598 	 -9.04239 	 68.9997
| 21> H 	 4.37876 	 -9.69996 	 70.513
| 22> H 	 4.75094 	 -7.96704 	 70.4501
| 23> S 	 12.5643 	 -11.7329 	 69.1904
| 24> C 	 13.4419 	 -12.1571 	 67.7342
| 25> C 	 13.1503 	 -11.2964 	 66.7313
| 26> C 	 12.4649 	 -10.13 	 67.1107
| 27> C 	 12.0263 	 -10.1373 	 68.4683
| 28> H 	 13.5114 	 -11.5614 	 65.7678
| 29> C 	 12.2138 	 -9.02836 	 66.1535
| 30> H 	 12.0312 	 -8.18434 	 66.7793
| 31> H 	 11.2063 	 -9.23686 	 65.8686
| 32> C 	 13.249 	 -8.51956 	 65.0973
| 33> H 	 13.3473 	 -9.3091 	 64.3509
| 34> H 	 14.2047 	 -8.29176 	 65.5411
| 35> C 	 12.8297 	 -7.30227 	 64.3057
| 36> H 	 12.3869 	 -6.62587 	 65.0403
| 37> H 	 12.1161 	 -7.43094 	 63.4136
| 38> H 	 13.6502 	 -6.81672 	 63.911
| 39> H 	 9.13693 	 -8.08583 	 71.9445
| 40> H 	 13.7853 	 -13.1526 	 67.5464
| 41> *
| 42>
| 43>                          ****END OF INPUT****

CARTESIAN COORDINATES (ANGSTROEM)
---------------------------------
  S     11.175200   -9.146000   70.809500
  C      9.533760   -8.539160   71.034600
  C      8.888990   -8.533590   69.785900
  C      9.741650   -8.978180   68.706000
  C     11.034000   -9.344650   69.137200
  H      9.392410   -9.082400   67.690600
  C      7.412660   -8.286430   69.641900
  H      7.232250   -8.229960   68.581700
  H      7.137080   -7.252320   69.862400
  C      6.479720   -9.287100   70.285700
  H      6.575380  -10.238500   69.826500
  H      6.602020   -9.340940   71.325600
  C      5.044230   -8.928890   70.088100
  H      4.759800   -9.042390   68.999700
  H      4.378760   -9.699960   70.513000
  H      4.750940   -7.967040   70.450100
  S     12.564300  -11.732900   69.190400
  C     13.441900  -12.157100   67.734200
  C     13.150300  -11.296400   66.731300
  C     12.464900  -10.130000   67.110700
  C     12.026300  -10.137300   68.468300
  H     13.511400  -11.561400   65.767800
  C     12.213800   -9.028360   66.153500
  H     12.031200   -8.184340   66.779300
  H     11.206300   -9.236860   65.868600
  C     13.249000   -8.519560   65.097300
  H     13.347300   -9.309100   64.350900
  H     14.204700   -8.291760   65.541100
  C     12.829700   -7.302270   64.305700
  H     12.386900   -6.625870   65.040300
  H     12.116100   -7.430940   63.413600
  H     13.650200   -6.816720   63.911000
  H      9.136930   -8.085830   71.944500
  H     13.785300  -13.152600   67.546400

 Total Charge           Charge          ....    0
 Multiplicity           Mult            ....    1
 Number of Electrons    NEL             ....  134
 Basis Dimension        Dim             ....  322

ORBITAL ENERGIES
----------------

  NO   OCC          E(Eh)            E(eV)
   0   2.0000     -88.966024     -2420.8886
   1   2.0000     -88.962723     -2420.7988
   2   2.0000     -10.332363      -281.1579
   3   2.0000     -10.330075      -281.0956
   4   2.0000     -10.317066      -280.7416
   5   2.0000     -10.311477      -280.5896
   6   2.0000     -10.304865      -280.4096
   7   2.0000     -10.304608      -280.4026
   8   2.0000     -10.300196      -280.2826
   9   2.0000     -10.290798      -280.0268
  10   2.0000     -10.287768      -279.9444
  11   2.0000     -10.285270      -279.8764
  12   2.0000     -10.284522      -279.8561
  13   2.0000     -10.277785      -279.6728
  14   2.0000     -10.277231      -279.6577
  15   2.0000     -10.276532      -279.6387
  16   2.0000      -8.081490      -219.9085
  17   2.0000      -8.076256      -219.7661
  18   2.0000      -6.039892      -164.3538
  19   2.0000      -6.035605      -164.2372
  20   2.0000      -6.034813      -164.2156
  21   2.0000      -6.032585      -164.1550
  22   2.0000      -6.030996      -164.1117
  23   2.0000      -6.026938      -164.0013
  24   2.0000      -1.006446       -27.3868
  25   2.0000      -0.981012       -26.6947
  26   2.0000      -0.921559       -25.0769
  27   2.0000      -0.910575       -24.7780
  28   2.0000      -0.874598       -23.7990
  29   2.0000      -0.858708       -23.3666
  30   2.0000      -0.846148       -23.0249
  31   2.0000      -0.814373       -22.1602
  32   2.0000      -0.785495       -21.3744
  33   2.0000      -0.770845       -20.9758
  34   2.0000      -0.708952       -19.2916
  35   2.0000      -0.706175       -19.2160
  36   2.0000      -0.702534       -19.1169
  37   2.0000      -0.653489       -17.7823
  38   2.0000      -0.639314       -17.3966
  39   2.0000      -0.620414       -16.8823
  40   2.0000      -0.597264       -16.2524
  41   2.0000      -0.577278       -15.7085
  42   2.0000      -0.569745       -15.5036
  43   2.0000      -0.568484       -15.4692
  44   2.0000      -0.533823       -14.5261
  45   2.0000      -0.529563       -14.4101
  46   2.0000      -0.524350       -14.2683
  47   2.0000      -0.516267       -14.0483
  48   2.0000      -0.506090       -13.7714
  49   2.0000      -0.505693       -13.7606
  50   2.0000      -0.497848       -13.5471
  51   2.0000      -0.469003       -12.7622
  52   2.0000      -0.466642       -12.6980
  53   2.0000      -0.462107       -12.5746
  54   2.0000      -0.459098       -12.4927
  55   2.0000      -0.450568       -12.2606
  56   2.0000      -0.448264       -12.1979
  57   2.0000      -0.435440       -11.8489
  58   2.0000      -0.435144       -11.8409
  59   2.0000      -0.424299       -11.5458
  60   2.0000      -0.421532       -11.4705
  61   2.0000      -0.412461       -11.2236
  62   2.0000      -0.408698       -11.1212
  63   2.0000      -0.351480        -9.5643
  64   2.0000      -0.330979        -9.0064
  65   2.0000      -0.327010        -8.8984
  66   2.0000      -0.283661        -7.7188
  67   0.0000       0.019092         0.5195
  68   0.0000       0.066902         1.8205
  69   0.0000       0.116218         3.1625
  70   0.0000       0.120104         3.2682
  71   0.0000       0.126968         3.4550

MULLIKEN ATOMIC CHARGES
-----------------------
   0 S :    0.110675
   1 C :   -0.125849
   2 C :   -0.105026
   3 C :    0.039368
   4 C :   -0.163304
   5 H :    0.006992
   6 C :    0.065171
   7 H :   -0.006065
   8 H :    0.020660
   9 C :    0.003063
  10 H :    0.022965
  11 H :    0.018866
  12 C :   -0.074283
  13 H :    0.024838
  14 H :    0.031465
  15 H :    0.028074
  16 S :    0.082784
  17 C :   -0.074663
  18 C :   -0.038697
  19 C :   -0.066860
  20 C :   -0.108539
  21 H :    0.006299
  22 C :    0.079215
  23 H :    0.008463
  24 H :    0.026260
  25 C :   -0.031742
  26 H :    0.026990
  27 H :    0.038018
  28 C :   -0.049532
  29 H :    0.024265
  30 H :    0.045326
  31 H :    0.018071
  32 H :    0.060317
  33 H :    0.056414
Sum of atomic charges:    0.0000000

LOEWDIN ATOMIC CHARGES
----------------------
   0 S :    0.439975
   1 C :   -0.200942
   2 C :   -0.059407
   3 C :   -0.062341
   4 C :   -0.217608
   5 H :    0.027393
   6 C :   -0.038716
   7 H :    0.026394
   8 H :    0.031780
   9 C :   -0.031128
  10 H :    0.027223
  11 H :    0.018534
  12 C :   -0.065068
  13 H :    0.027402
  14 H :    0.029080
  15 H :    0.016924
  16 S :    0.371371
  17 C :   -0.178116
  18 C :   -0.071833
  19 C :   -0.047481
  20 C :   -0.185969
  21 H :    0.027407
  22 C :   -0.042826
  23 H :    0.029322
  24 H :    0.034114
  25 C :   -0.031815
  26 H :    0.022238
  27 H :    0.030359
  28 C :   -0.064242
  29 H :    0.025176
  30 H :    0.034650
  31 H :    0.016832
  32 H :    0.033227
  33 H :    0.028090

  Mayer bond orders larger than 0.100000
B(  0-S ,  1-C ) :   1.1481 B(  0-S ,  4-C ) :   1.1887 B(  1-C ,  2-C ) :   1.5559
B(  1-C , 32-H ) :   0.9733 B(  2-C ,  3-C ) :   1.3005 B(  2-C ,  6-C ) :   1.0306
B(  3-C ,  4-C ) :   1.4840 B(  3-C ,  5-H ) :   0.9927 B(  4-C , 20-C ) :   1.0673
B(  6-C ,  7-H ) :   0.9320 B(  6-C ,  8-H ) :   0.9322 B(  6-C ,  9-C ) :   1.0726
B(  9-C , 10-H ) :   0.9493 B(  9-C , 11-H ) :   0.9520 B(  9-C , 12-C ) :   1.0950
B( 12-C , 13-H ) :   0.9736 B( 12-C , 14-H ) :   0.9713 B( 12-C , 15-H ) :   0.9748
B( 16-S , 17-C ) :   1.1517 B( 16-S , 20-C ) :   1.1181 B( 17-C , 18-C ) :   1.6149
B( 17-C , 20-C ) :   0.1009 B( 17-C , 33-H ) :   0.9604 B( 18-C , 19-C ) :   1.2545
B( 18-C , 21-H ) :   0.9966 B( 19-C , 20-C ) :   1.5572 B( 19-C , 22-C ) :   1.0496
B( 22-C , 23-H ) :   0.9198 B( 22-C , 24-H ) :   0.9148 B( 22-C , 25-C ) :   1.0538
B( 25-C , 26-H ) :   0.9505 B( 25-C , 27-H ) :   0.9565 B( 25-C , 28-C ) :   1.0913
B( 28-C , 29-H ) :   0.9730 B( 28-C , 30-H ) :   0.9747 B( 28-C , 31-H ) :   0.9720

Dispersion correction           -0.013214384
FINAL SINGLE POINT ENERGY     -1339.854664595628

DIPOLE MOMENT
-------------
                                X             Y             Z
Electronic contribution:     17.03941     -11.88714      15.71853
Nuclear contribution   :    -17.53142      12.02702     -16.30811
                        -----------------------------------------
Total Dipole Moment    :     -0.49202       0.13988      -0.58958
                        -----------------------------------------
Magnitude (a.u.)       :      0.78055
Magnitude (Debye)      :      1.98399

Rotational constants in cm-1:     0.018264     0.007413     0.006103
Rotational constants in MHz :   547.531661   222.231058   182.950338

                             ****ORCA TERMINATED NORMALLY****
TOTAL RUN TIME: 0 days 0 hours 0 minutes 33 seconds 556 msec
