                         Program Version 4.2.1 -  RELEASE  -
|  1> ! wB97X-D3 SP def2-SVP
|  2> %pal
|  3> nprocs 16
|  4> end
|  5>
|  6> * xyz 0 1
|  7> S 	 -61.9997 	 34.9809 	 133.955
|  8> C 	 -60.347 	 35.2567 	 134.54
|  9> C 	 -60.0894 	 36.5941 	 134.888
| 10> C 	 -61.2099 	 37.3378 	 134.49
| 11> C 	 -62.2995 	 36.6668 	 134.042
| 12> H 	 -61.3194 	 38.4328 	 134.516
| 13> C 	 -58.8431 	 37.2858 	 135.312
| 14> H 	 -59.076 	 38.2834 	 135.606
| 15> H 	 -58.1519 	 37.3544 	 134.488
| 16> C 	 -58.0791 	 36.7248 	 136.5
| 17> H 	 -58.8505 	 36.5425 	 137.273
| 18> H 	 -57.5812 	 35.748 	 136.278
| 19> C 	 -57.0269 	 37.7305 	 136.96
| 20> H 	 -56.2731 	 37.9654 	 136.165
| 21> H 	 -57.4714 	 38.7467 	 137.202
| 22> H 	 -56.4524 	 37.4802 	 137.794
| 23> S 	 -64.6265 	 38.0112 	 134.456
| 24> C 	 -65.5984 	 38.5153 	 133.121
| 25> C 	 -65.1144 	 38.0806 	 131.928
| 26> C 	 -63.7965 	 37.4844 	 132.019
| 27> C 	 -63.4548 	 37.265 	 133.37
| 28> H 	 -65.5918 	 38.325 	 131.024
| 29> C 	 -62.9605 	 37.2529 	 130.774
| 30> H 	 -63.4993 	 37.658 	 129.996
| 31> H 	 -62.8832 	 36.2362 	 130.551
| 32> C 	 -61.5341 	 37.7855 	 130.758
| 33> H 	 -61.0359 	 37.4846 	 131.692
| 34> H 	 -61.6238 	 38.8997 	 130.802
| 35> C 	 -60.6371 	 37.5954 	 129.564
| 36> H 	 -61.2178 	 37.9413 	 128.742
| 37> H 	 -60.3773 	 36.5617 	 129.476
| 38> H 	 -59.7885 	 38.2135 	 129.55
| 39> H 	 -59.6 	 34.4847 	 134.743
| 40> H 	 -66.4539 	 39.146 	 133.293
| 41> *
| 42>
| 43>                          ****END OF INPUT****

CARTESIAN COORDINATES (ANGSTROEM)
---------------------------------
  S    -61.999700   34.980900  133.955000
  C    -60.347000   35.256700  134.540000
  C    -60.089400   36.594100  134.888000
  C    -61.209900   37.337800  134.490000
  C    -62.299500   36.666800  134.042000
  H    -61.319400   38.432800  134.516000
  C    -58.843100   37.285800  135.312000
  H    -59.076000   38.283400  135.606000
  H    -58.151900   37.354400  134.488000
  C    -58.079100   36.724800  136.500000
  H    -58.850500   36.542500  137.273000
  H    -57.581200   35.748000  136.278000
  C    -57.026900   37.730500  136.960000
  H    -56.273100   37.965400  136.165000
  H    -57.471400   38.746700  137.202000
  H    -56.452400   37.480200  137.794000
  S    -64.626500   38.011200  134.456000
  C    -65.598400   38.515300  133.121000
  C    -65.114400   38.080600  131.928000
  C    -63.796500   37.484400  132.019000
  C    -63.454800   37.265000  133.370000
  H    -65.591800   38.325000  131.024000
  C    -62.960500   37.252900  130.774000
  H    -63.499300   37.658000  129.996000
  H    -62.883200   36.236200  130.551000
  C    -61.534100   37.785500  130.758000
  H    -61.035900   37.484600  131.692000
  H    -61.623800   38.899700  130.802000
  C    -60.637100   37.595400  129.564000
  H    -61.217800   37.941300  128.742000
  H    -60.377300   36.561700  129.476000
  H    -59.788500   38.213500  129.550000
  H    -59.600000   34.484700  134.743000
  H    -66.453900   39.146000  133.293000

 Total Charge           Charge          ....    0
 Multiplicity           Mult            ....    1
 Number of Electrons    NEL             ....  134
 Basis Dimension        Dim             ....  322

ORBITAL ENERGIES
----------------

  NO   OCC          E(Eh)            E(eV)
   0   2.0000     -88.969179     -2420.9745
   1   2.0000     -88.960989     -2420.7516
   2   2.0000     -10.325553      -280.9726
   3   2.0000     -10.319030      -280.7951
   4   2.0000     -10.318304      -280.7753
   5   2.0000     -10.311910      -280.6013
   6   2.0000     -10.308230      -280.5012
   7   2.0000     -10.300500      -280.2909
   8   2.0000     -10.292180      -280.0644
   9   2.0000     -10.289153      -279.9821
  10   2.0000     -10.288176      -279.9555
  11   2.0000     -10.287031      -279.9243
  12   2.0000     -10.282637      -279.8048
  13   2.0000     -10.279446      -279.7180
  14   2.0000     -10.278717      -279.6981
  15   2.0000     -10.266277      -279.3596
  16   2.0000      -8.083785      -219.9710
  17   2.0000      -8.076248      -219.7659
  18   2.0000      -6.042222      -164.4172
  19   2.0000      -6.038272      -164.3097
  20   2.0000      -6.034665      -164.2116
  21   2.0000      -6.034615      -164.2102
  22   2.0000      -6.030634      -164.1019
  23   2.0000      -6.027188      -164.0081
  24   2.0000      -1.008043       -27.4302
  25   2.0000      -0.984882       -26.8000
  26   2.0000      -0.919996       -25.0344
  27   2.0000      -0.911268       -24.7969
  28   2.0000      -0.868388       -23.6300
  29   2.0000      -0.854907       -23.2632
  30   2.0000      -0.850694       -23.1486
  31   2.0000      -0.811265       -22.0756
  32   2.0000      -0.789999       -21.4970
  33   2.0000      -0.775266       -21.0961
  34   2.0000      -0.708890       -19.2899
  35   2.0000      -0.700721       -19.0676
  36   2.0000      -0.684190       -18.6178
  37   2.0000      -0.662017       -18.0144
  38   2.0000      -0.642383       -17.4801
  39   2.0000      -0.615567       -16.7504
  40   2.0000      -0.600073       -16.3288
  41   2.0000      -0.576262       -15.6809
  42   2.0000      -0.573589       -15.6081
  43   2.0000      -0.566529       -15.4160
  44   2.0000      -0.527074       -14.3424
  45   2.0000      -0.524189       -14.2639
  46   2.0000      -0.516483       -14.0542
  47   2.0000      -0.512449       -13.9444
  48   2.0000      -0.510990       -13.9047
  49   2.0000      -0.501742       -13.6531
  50   2.0000      -0.485007       -13.1977
  51   2.0000      -0.482155       -13.1201
  52   2.0000      -0.470362       -12.7992
  53   2.0000      -0.467212       -12.7135
  54   2.0000      -0.454831       -12.3766
  55   2.0000      -0.452256       -12.3065
  56   2.0000      -0.451706       -12.2916
  57   2.0000      -0.436211       -11.8699
  58   2.0000      -0.431345       -11.7375
  59   2.0000      -0.429563       -11.6890
  60   2.0000      -0.422843       -11.5061
  61   2.0000      -0.414841       -11.2884
  62   2.0000      -0.407404       -11.0860
  63   2.0000      -0.337247        -9.1770
  64   2.0000      -0.330505        -8.9935
  65   2.0000      -0.321914        -8.7597
  66   2.0000      -0.303388        -8.2556
  67   0.0000       0.039723         1.0809
  68   0.0000       0.063034         1.7153
  69   0.0000       0.116158         3.1608
  70   0.0000       0.116966         3.1828
  71   0.0000       0.127031         3.4567

MULLIKEN ATOMIC CHARGES
-----------------------
   0 S :    0.130728
   1 C :   -0.140758
   2 C :   -0.042349
   3 C :    0.016268
   4 C :   -0.167425
   5 H :    0.016014
   6 C :    0.081512
   7 H :    0.008101
   8 H :    0.038088
   9 C :   -0.094688
  10 H :    0.039097
  11 H :    0.037881
  12 C :   -0.053487
  13 H :    0.029849
  14 H :    0.031463
  15 H :    0.025101
  16 S :    0.104594
  17 C :   -0.090948
  18 C :   -0.004995
  19 C :   -0.044600
  20 C :   -0.205180
  21 H :    0.000799
  22 C :    0.191566
  23 H :   -0.023479
  24 H :    0.011788
  25 C :   -0.144214
  26 H :    0.045724
  27 H :    0.019573
  28 C :    0.017371
  29 H :    0.010199
  30 H :    0.028346
  31 H :    0.024005
  32 H :    0.047039
  33 H :    0.057016
Sum of atomic charges:    0.0000000

LOEWDIN ATOMIC CHARGES
----------------------
   0 S :    0.421928
   1 C :   -0.189723
   2 C :   -0.063893
   3 C :   -0.060389
   4 C :   -0.226496
   5 H :    0.033691
   6 C :   -0.029004
   7 H :    0.028108
   8 H :    0.034546
   9 C :   -0.042643
  10 H :    0.028588
  11 H :    0.026041
  12 C :   -0.070091
  13 H :    0.029769
  14 H :    0.030368
  15 H :    0.016913
  16 S :    0.410294
  17 C :   -0.185537
  18 C :   -0.068258
  19 C :   -0.041104
  20 C :   -0.200264
  21 H :    0.023124
  22 C :   -0.022194
  23 H :    0.017626
  24 H :    0.025850
  25 C :   -0.044409
  26 H :    0.025094
  27 H :    0.024509
  28 C :   -0.052940
  29 H :    0.022239
  30 H :    0.021422
  31 H :    0.023970
  32 H :    0.026291
  33 H :    0.026575

  Mayer bond orders larger than 0.100000
B(  0-S ,  1-C ) :   1.1596 B(  0-S ,  4-C ) :   1.1452 B(  1-C ,  2-C ) :   1.5744
B(  1-C , 32-H ) :   0.9657 B(  2-C ,  3-C ) :   1.2547 B(  2-C ,  6-C ) :   1.0262
B(  3-C ,  4-C ) :   1.6042 B(  3-C ,  5-H ) :   0.9849 B(  4-C , 20-C ) :   0.9937
B(  6-C ,  7-H ) :   0.9415 B(  6-C ,  8-H ) :   0.9306 B(  6-C ,  9-C ) :   1.0557
B(  9-C , 10-H ) :   0.9609 B(  9-C , 11-H ) :   0.9506 B(  9-C , 12-C ) :   1.0868
B( 12-C , 13-H ) :   0.9709 B( 12-C , 14-H ) :   0.9716 B( 12-C , 15-H ) :   0.9744
B( 16-S , 17-C ) :   1.1629 B( 16-S , 20-C ) :   1.1527 B( 17-C , 18-C ) :   1.6082
B( 17-C , 33-H ) :   0.9695 B( 18-C , 19-C ) :   1.2409 B( 18-C , 21-H ) :   0.9930
B( 19-C , 20-C ) :   1.5942 B( 19-C , 22-C ) :   1.0447 B( 22-C , 23-H ) :   0.9144
B( 22-C , 24-H ) :   0.9169 B( 22-C , 25-C ) :   1.0615 B( 25-C , 26-H ) :   0.9551
B( 25-C , 27-H ) :   0.9561 B( 25-C , 28-C ) :   1.0961 B( 28-C , 29-H ) :   0.9699
B( 28-C , 30-H ) :   0.9731 B( 28-C , 31-H ) :   0.9707

Dispersion correction           -0.014442980
FINAL SINGLE POINT ENERGY     -1339.872191902765

DIPOLE MOMENT
-------------
                                X             Y             Z
Electronic contribution:    -24.60459      -7.22531       5.52779
Nuclear contribution   :     25.10376       7.58726      -5.80397
                        -----------------------------------------
Total Dipole Moment    :      0.49917       0.36196      -0.27618
                        -----------------------------------------
Magnitude (a.u.)       :      0.67561
Magnitude (Debye)      :      1.71728

Rotational constants in cm-1:     0.019150     0.007983     0.006852
Rotational constants in MHz :   574.105494   239.316367   205.426869

                             ****ORCA TERMINATED NORMALLY****
TOTAL RUN TIME: 0 days 0 hours 0 minutes 34 seconds 300 msec
