                         Program Version 4.2.1 -  RELEASE  -
|  1> ! wB97X-D3 SP def2-SVP
|  2> %pal
|  3> nprocs 16
|  4> end
|  5>
|  6> * xyz 0 1
|  7> S 	 18.4112 	 8.12539 	 86.9233
|  8> C 	 19.2834 	 6.63401 	 87.1533
|  9> C 	 18.4988 	 5.52162 	 87.4093
| 10> C 	 17.1151 	 5.90382 	 87.3084
| 11> C 	 16.9079 	 7.30702 	 87.3059
| 12> H 	 16.3027 	 5.30766 	 87.5031
| 13> C 	 18.9688 	 4.0932 	 87.5204
| 14> H 	 18.9294 	 4.05148 	 88.6135
| 15> H 	 20.1038 	 4.14811 	 87.3679
| 16> C 	 18.3325 	 2.95181 	 86.742
| 17> H 	 17.2061 	 3.03622 	 86.596
| 18> H 	 18.779 	 2.9632 	 85.7018
| 19> C 	 18.6553 	 1.56563 	 87.2413
| 20> H 	 18.037 	 0.863765 	 86.7228
| 21> H 	 19.6932 	 1.31155 	 86.9981
| 22> H 	 18.4393 	 1.63105 	 88.3073
| 23> S 	 15.3912 	 9.19478 	 85.9013
| 24> C 	 13.6871 	 9.37278 	 86.4051
| 25> C 	 13.4013 	 8.75854 	 87.5992
| 26> C 	 14.505 	 7.97121 	 88.091
| 27> C 	 15.6206 	 8.00587 	 87.2527
| 28> H 	 12.3998 	 8.95437 	 88.0517
| 29> C 	 14.444 	 7.21608 	 89.396
| 30> H 	 15.246 	 6.38928 	 89.3579
| 31> H 	 13.455 	 6.7336 	 89.4039
| 32> C 	 14.5873 	 8.23807 	 90.5675
| 33> H 	 13.9355 	 9.11768 	 90.2735
| 34> H 	 15.6215 	 8.51473 	 90.6844
| 35> C 	 13.9719 	 7.73922 	 91.8517
| 36> H 	 14.3679 	 6.68443 	 91.9729
| 37> H 	 12.8805 	 7.82511 	 91.8414
| 38> H 	 14.2579 	 8.29062 	 92.7722
| 39> H 	 20.3445 	 6.49859 	 86.9597
| 40> H 	 12.919 	 9.91402 	 85.8493
| 41> *
| 42>
| 43>                          ****END OF INPUT****

CARTESIAN COORDINATES (ANGSTROEM)
---------------------------------
  S     18.411200    8.125390   86.923300
  C     19.283400    6.634010   87.153300
  C     18.498800    5.521620   87.409300
  C     17.115100    5.903820   87.308400
  C     16.907900    7.307020   87.305900
  H     16.302700    5.307660   87.503100
  C     18.968800    4.093200   87.520400
  H     18.929400    4.051480   88.613500
  H     20.103800    4.148110   87.367900
  C     18.332500    2.951810   86.742000
  H     17.206100    3.036220   86.596000
  H     18.779000    2.963200   85.701800
  C     18.655300    1.565630   87.241300
  H     18.037000    0.863765   86.722800
  H     19.693200    1.311550   86.998100
  H     18.439300    1.631050   88.307300
  S     15.391200    9.194780   85.901300
  C     13.687100    9.372780   86.405100
  C     13.401300    8.758540   87.599200
  C     14.505000    7.971210   88.091000
  C     15.620600    8.005870   87.252700
  H     12.399800    8.954370   88.051700
  C     14.444000    7.216080   89.396000
  H     15.246000    6.389280   89.357900
  H     13.455000    6.733600   89.403900
  C     14.587300    8.238070   90.567500
  H     13.935500    9.117680   90.273500
  H     15.621500    8.514730   90.684400
  C     13.971900    7.739220   91.851700
  H     14.367900    6.684430   91.972900
  H     12.880500    7.825110   91.841400
  H     14.257900    8.290620   92.772200
  H     20.344500    6.498590   86.959700
  H     12.919000    9.914020   85.849300

 Total Charge           Charge          ....    0
 Multiplicity           Mult            ....    1
 Number of Electrons    NEL             ....  134
 Basis Dimension        Dim             ....  322

ORBITAL ENERGIES
----------------

  NO   OCC          E(Eh)            E(eV)
   0   2.0000     -88.968106     -2420.9453
   1   2.0000     -88.964247     -2420.8402
   2   2.0000     -10.332027      -281.1488
   3   2.0000     -10.330848      -281.1167
   4   2.0000     -10.321078      -280.8508
   5   2.0000     -10.310624      -280.5663
   6   2.0000     -10.307150      -280.4718
   7   2.0000     -10.302897      -280.3561
   8   2.0000     -10.301608      -280.3210
   9   2.0000     -10.299402      -280.2610
  10   2.0000     -10.298664      -280.2409
  11   2.0000     -10.297747      -280.2159
  12   2.0000     -10.290844      -280.0281
  13   2.0000     -10.288788      -279.9722
  14   2.0000     -10.281714      -279.7796
  15   2.0000     -10.278717      -279.6981
  16   2.0000      -8.082632      -219.9396
  17   2.0000      -8.077662      -219.8044
  18   2.0000      -6.041125      -164.3874
  19   2.0000      -6.037291      -164.2830
  20   2.0000      -6.036301      -164.2561
  21   2.0000      -6.033327      -164.1752
  22   2.0000      -6.032630      -164.1562
  23   2.0000      -6.028087      -164.0326
  24   2.0000      -0.999450       -27.1964
  25   2.0000      -0.976955       -26.5843
  26   2.0000      -0.915153       -24.9026
  27   2.0000      -0.906633       -24.6707
  28   2.0000      -0.870474       -23.6868
  29   2.0000      -0.852986       -23.2109
  30   2.0000      -0.845183       -22.9986
  31   2.0000      -0.814080       -22.1522
  32   2.0000      -0.782027       -21.2800
  33   2.0000      -0.765671       -20.8350
  34   2.0000      -0.706149       -19.2153
  35   2.0000      -0.692060       -18.8319
  36   2.0000      -0.688653       -18.7392
  37   2.0000      -0.657211       -17.8836
  38   2.0000      -0.639286       -17.3958
  39   2.0000      -0.617455       -16.8018
  40   2.0000      -0.589141       -16.0314
  41   2.0000      -0.569416       -15.4946
  42   2.0000      -0.566309       -15.4101
  43   2.0000      -0.561215       -15.2714
  44   2.0000      -0.534533       -14.5454
  45   2.0000      -0.524028       -14.2595
  46   2.0000      -0.515996       -14.0410
  47   2.0000      -0.508484       -13.8365
  48   2.0000      -0.506768       -13.7898
  49   2.0000      -0.498128       -13.5548
  50   2.0000      -0.490131       -13.3371
  51   2.0000      -0.475598       -12.9417
  52   2.0000      -0.466364       -12.6904
  53   2.0000      -0.460814       -12.5394
  54   2.0000      -0.456138       -12.4122
  55   2.0000      -0.452545       -12.3144
  56   2.0000      -0.445674       -12.1274
  57   2.0000      -0.437308       -11.8998
  58   2.0000      -0.429381       -11.6840
  59   2.0000      -0.425010       -11.5651
  60   2.0000      -0.418789       -11.3958
  61   2.0000      -0.413722       -11.2579
  62   2.0000      -0.412104       -11.2139
  63   2.0000      -0.345537        -9.4026
  64   2.0000      -0.330320        -8.9885
  65   2.0000      -0.326998        -8.8981
  66   2.0000      -0.285557        -7.7704
  67   0.0000       0.026959         0.7336
  68   0.0000       0.065077         1.7708
  69   0.0000       0.101191         2.7536
  70   0.0000       0.120521         3.2795
  71   0.0000       0.133359         3.6289

MULLIKEN ATOMIC CHARGES
-----------------------
   0 S :    0.114125
   1 C :   -0.119616
   2 C :   -0.098684
   3 C :    0.059021
   4 C :   -0.173703
   5 H :   -0.014347
   6 C :    0.051265
   7 H :    0.038626
   8 H :    0.023609
   9 C :   -0.103075
  10 H :    0.048847
  11 H :    0.040729
  12 C :   -0.026392
  13 H :    0.032271
  14 H :    0.036432
  15 H :    0.033605
  16 S :    0.085180
  17 C :   -0.093769
  18 C :   -0.051348
  19 C :   -0.048819
  20 C :   -0.146580
  21 H :    0.039529
  22 C :    0.050018
  23 H :    0.040282
  24 H :    0.027923
  25 C :   -0.073084
  26 H :    0.037596
  27 H :    0.041743
  28 C :   -0.064186
  29 H :    0.038380
  30 H :    0.035487
  31 H :    0.036599
  32 H :    0.042775
  33 H :    0.059562
Sum of atomic charges:    0.0000000

LOEWDIN ATOMIC CHARGES
----------------------
   0 S :    0.407047
   1 C :   -0.208001
   2 C :   -0.061092
   3 C :   -0.052186
   4 C :   -0.190953
   5 H :    0.011071
   6 C :   -0.045410
   7 H :    0.037827
   8 H :    0.038742
   9 C :   -0.051897
  10 H :    0.031772
  11 H :    0.034121
  12 C :   -0.058602
  13 H :    0.025710
  14 H :    0.027248
  15 H :    0.025576
  16 S :    0.352682
  17 C :   -0.167619
  18 C :   -0.079754
  19 C :   -0.052575
  20 C :   -0.181232
  21 H :    0.042042
  22 C :   -0.036836
  23 H :    0.037171
  24 H :    0.030736
  25 C :   -0.039822
  26 H :    0.031503
  27 H :    0.027344
  28 C :   -0.075539
  29 H :    0.030460
  30 H :    0.024644
  31 H :    0.028221
  32 H :    0.025877
  33 H :    0.031725

  Mayer bond orders larger than 0.100000
B(  0-S ,  1-C ) :   1.1376 B(  0-S ,  4-C ) :   1.1502 B(  1-C ,  2-C ) :   1.6177
B(  1-C , 32-H ) :   0.9575 B(  2-C ,  3-C ) :   1.2464 B(  2-C ,  6-C ) :   1.0095
B(  3-C ,  4-C ) :   1.5628 B(  3-C ,  5-H ) :   0.9885 B(  4-C , 20-C ) :   1.0592
B(  6-C ,  7-H ) :   0.9292 B(  6-C ,  8-H ) :   0.9373 B(  6-C ,  9-C ) :   1.0496
B(  9-C , 10-H ) :   0.9572 B(  9-C , 11-H ) :   0.9529 B(  9-C , 12-C ) :   1.0804
B( 12-C , 13-H ) :   0.9722 B( 12-C , 14-H ) :   0.9769 B( 12-C , 15-H ) :   0.9784
B( 16-S , 17-C ) :   1.1326 B( 16-S , 20-C ) :   1.1022 B( 17-C , 18-C ) :   1.6655
B( 17-C , 33-H ) :   0.9624 B( 18-C , 19-C ) :   1.1934 B( 18-C , 21-H ) :   0.9801
B( 19-C , 20-C ) :   1.6346 B( 19-C , 22-C ) :   1.0440 B( 22-C , 23-H ) :   0.9246
B( 22-C , 24-H ) :   0.9374 B( 22-C , 25-C ) :   1.0490 B( 25-C , 26-H ) :   0.9637
B( 25-C , 27-H ) :   0.9545 B( 25-C , 28-C ) :   1.0760 B( 28-C , 29-H ) :   0.9714
B( 28-C , 30-H ) :   0.9776 B( 28-C , 31-H ) :   0.9733

Dispersion correction           -0.013421446
FINAL SINGLE POINT ENERGY     -1339.862674736334

DIPOLE MOMENT
-------------
                                X             Y             Z
Electronic contribution:      2.61086      21.97095     -16.30279
Nuclear contribution   :     -2.86655     -22.50990      16.61478
                        -----------------------------------------
Total Dipole Moment    :     -0.25569      -0.53895       0.31199
                        -----------------------------------------
Magnitude (a.u.)       :      0.67319
Magnitude (Debye)      :      1.71111

Rotational constants in cm-1:     0.017227     0.007859     0.006481
Rotational constants in MHz :   516.445402   235.603670   194.305885

                             ****ORCA TERMINATED NORMALLY****
TOTAL RUN TIME: 0 days 0 hours 0 minutes 33 seconds 965 msec
