                         Program Version 4.2.1 -  RELEASE  -
|  1> ! wB97X-D3 SP def2-SVP
|  2> %pal
|  3> nprocs 16
|  4> end
|  5>
|  6> * xyz 0 1
|  7> S 	 9.3634 	 24.0116 	 36.9149
|  8> C 	 7.77538 	 24.5853 	 36.394
|  9> C 	 6.76799 	 23.9056 	 37.0072
| 10> C 	 7.16978 	 22.9057 	 37.9355
| 11> C 	 8.58708 	 22.7405 	 37.9192
| 12> H 	 6.62391 	 22.2945 	 38.5673
| 13> C 	 5.35858 	 24.3502 	 36.8779
| 14> H 	 5.28423 	 25.2081 	 36.2105
| 15> H 	 4.96659 	 24.7136 	 37.8632
| 16> C 	 4.42165 	 23.2017 	 36.3548
| 17> H 	 4.80643 	 22.7206 	 35.4894
| 18> H 	 4.29636 	 22.363 	 37.0662
| 19> C 	 3.06058 	 23.7068 	 36.067
| 20> H 	 2.60703 	 23.9593 	 37.0414
| 21> H 	 3.03419 	 24.6925 	 35.5579
| 22> H 	 2.40195 	 22.8984 	 35.7715
| 23> S 	 10.4365 	 22.729 	 39.8747
| 24> C 	 10.7843 	 21.3496 	 40.7898
| 25> C 	 10.002 	 20.2948 	 40.4833
| 26> C 	 9.27585 	 20.59 	 39.2756
| 27> C 	 9.33482 	 21.9415 	 38.9031
| 28> H 	 10.1478 	 19.3356 	 41.01
| 29> C 	 8.35568 	 19.6058 	 38.602
| 30> H 	 8.3384 	 19.8663 	 37.5014
| 31> H 	 7.3573 	 19.8251 	 38.955
| 32> C 	 8.75737 	 18.1311 	 38.7648
| 33> H 	 8.60307 	 17.8118 	 39.786
| 34> H 	 9.82978 	 17.9981 	 38.5596
| 35> C 	 7.96654 	 17.1595 	 37.8529
| 36> H 	 7.78394 	 17.4012 	 36.8246
| 37> H 	 6.98626 	 17.2021 	 38.3338
| 38> H 	 8.34449 	 16.1159 	 37.8974
| 39> H 	 7.62963 	 25.5474 	 35.817
| 40> H 	 11.3552 	 21.4077 	 41.7424
| 41> *
| 42>
| 43>                          ****END OF INPUT****

CARTESIAN COORDINATES (ANGSTROEM)
---------------------------------
  S      9.363400   24.011600   36.914900
  C      7.775380   24.585300   36.394000
  C      6.767990   23.905600   37.007200
  C      7.169780   22.905700   37.935500
  C      8.587080   22.740500   37.919200
  H      6.623910   22.294500   38.567300
  C      5.358580   24.350200   36.877900
  H      5.284230   25.208100   36.210500
  H      4.966590   24.713600   37.863200
  C      4.421650   23.201700   36.354800
  H      4.806430   22.720600   35.489400
  H      4.296360   22.363000   37.066200
  C      3.060580   23.706800   36.067000
  H      2.607030   23.959300   37.041400
  H      3.034190   24.692500   35.557900
  H      2.401950   22.898400   35.771500
  S     10.436500   22.729000   39.874700
  C     10.784300   21.349600   40.789800
  C     10.002000   20.294800   40.483300
  C      9.275850   20.590000   39.275600
  C      9.334820   21.941500   38.903100
  H     10.147800   19.335600   41.010000
  C      8.355680   19.605800   38.602000
  H      8.338400   19.866300   37.501400
  H      7.357300   19.825100   38.955000
  C      8.757370   18.131100   38.764800
  H      8.603070   17.811800   39.786000
  H      9.829780   17.998100   38.559600
  C      7.966540   17.159500   37.852900
  H      7.783940   17.401200   36.824600
  H      6.986260   17.202100   38.333800
  H      8.344490   16.115900   37.897400
  H      7.629630   25.547400   35.817000
  H     11.355200   21.407700   41.742400

 Total Charge           Charge          ....    0
 Multiplicity           Mult            ....    1
 Number of Electrons    NEL             ....  134
 Basis Dimension        Dim             ....  322

ORBITAL ENERGIES
----------------

  NO   OCC          E(Eh)            E(eV)
   0   2.0000     -88.968183     -2420.9473
   1   2.0000     -88.961028     -2420.7526
   2   2.0000     -10.339028      -281.3392
   3   2.0000     -10.319107      -280.7972
   4   2.0000     -10.317812      -280.7619
   5   2.0000     -10.308667      -280.5131
   6   2.0000     -10.301964      -280.3307
   7   2.0000     -10.298701      -280.2419
   8   2.0000     -10.297360      -280.2054
   9   2.0000     -10.295483      -280.1543
  10   2.0000     -10.292474      -280.0725
  11   2.0000     -10.290618      -280.0220
  12   2.0000     -10.287444      -279.9356
  13   2.0000     -10.282844      -279.8104
  14   2.0000     -10.277398      -279.6622
  15   2.0000     -10.276171      -279.6288
  16   2.0000      -8.081800      -219.9170
  17   2.0000      -8.078696      -219.8325
  18   2.0000      -6.040356      -164.3664
  19   2.0000      -6.036936      -164.2734
  20   2.0000      -6.036494      -164.2613
  21   2.0000      -6.032600      -164.1554
  22   2.0000      -6.032558      -164.1542
  23   2.0000      -6.029735      -164.0774
  24   2.0000      -1.016945       -27.6725
  25   2.0000      -0.986055       -26.8319
  26   2.0000      -0.914108       -24.8741
  27   2.0000      -0.907907       -24.7054
  28   2.0000      -0.875212       -23.8157
  29   2.0000      -0.852958       -23.2102
  30   2.0000      -0.848771       -23.0962
  31   2.0000      -0.819813       -22.3083
  32   2.0000      -0.777875       -21.1671
  33   2.0000      -0.765286       -20.8245
  34   2.0000      -0.709163       -19.2973
  35   2.0000      -0.701277       -19.0827
  36   2.0000      -0.691608       -18.8196
  37   2.0000      -0.653219       -17.7750
  38   2.0000      -0.640499       -17.4289
  39   2.0000      -0.621512       -16.9122
  40   2.0000      -0.596080       -16.2202
  41   2.0000      -0.571849       -15.5608
  42   2.0000      -0.567218       -15.4348
  43   2.0000      -0.562711       -15.3121
  44   2.0000      -0.531670       -14.4675
  45   2.0000      -0.520956       -14.1759
  46   2.0000      -0.518803       -14.1174
  47   2.0000      -0.513732       -13.9794
  48   2.0000      -0.507767       -13.8170
  49   2.0000      -0.494586       -13.4584
  50   2.0000      -0.489709       -13.3257
  51   2.0000      -0.481303       -13.0969
  52   2.0000      -0.472087       -12.8461
  53   2.0000      -0.470614       -12.8061
  54   2.0000      -0.457569       -12.4511
  55   2.0000      -0.451362       -12.2822
  56   2.0000      -0.445049       -12.1104
  57   2.0000      -0.442327       -12.0363
  58   2.0000      -0.427499       -11.6328
  59   2.0000      -0.427088       -11.6217
  60   2.0000      -0.420433       -11.4406
  61   2.0000      -0.411599       -11.2002
  62   2.0000      -0.409834       -11.1521
  63   2.0000      -0.351054        -9.5527
  64   2.0000      -0.330865        -9.0033
  65   2.0000      -0.325687        -8.8624
  66   2.0000      -0.292093        -7.9483
  67   0.0000       0.028265         0.7691
  68   0.0000       0.074599         2.0299
  69   0.0000       0.110614         3.0100
  70   0.0000       0.127205         3.4614
  71   0.0000       0.130462         3.5501

MULLIKEN ATOMIC CHARGES
-----------------------
   0 S :    0.097410
   1 C :   -0.148782
   2 C :   -0.037987
   3 C :    0.057309
   4 C :   -0.151425
   5 H :   -0.008159
   6 C :    0.048276
   7 H :    0.010681
   8 H :    0.040502
   9 C :   -0.084063
  10 H :    0.023973
  11 H :    0.026084
  12 C :   -0.026779
  13 H :    0.006445
  14 H :    0.035912
  15 H :    0.035282
  16 S :    0.122932
  17 C :   -0.099368
  18 C :   -0.051376
  19 C :   -0.078053
  20 C :   -0.145613
  21 H :    0.039759
  22 C :    0.047490
  23 H :    0.041850
  24 H :    0.032530
  25 C :   -0.093718
  26 H :    0.029009
  27 H :    0.036014
  28 C :   -0.043412
  29 H :    0.032161
  30 H :    0.020781
  31 H :    0.041345
  32 H :    0.075646
  33 H :    0.067343
Sum of atomic charges:   -0.0000000

LOEWDIN ATOMIC CHARGES
----------------------
   0 S :    0.377649
   1 C :   -0.201702
   2 C :   -0.069217
   3 C :   -0.040200
   4 C :   -0.173185
   5 H :    0.020202
   6 C :   -0.027127
   7 H :    0.025758
   8 H :    0.036949
   9 C :   -0.043166
  10 H :    0.018353
  11 H :    0.026153
  12 C :   -0.073416
  13 H :    0.024125
  14 H :    0.028570
  15 H :    0.029041
  16 S :    0.465996
  17 C :   -0.210964
  18 C :   -0.081074
  19 C :   -0.058497
  20 C :   -0.237724
  21 H :    0.040913
  22 C :   -0.038851
  23 H :    0.040064
  24 H :    0.027531
  25 C :   -0.041446
  26 H :    0.021155
  27 H :    0.024370
  28 C :   -0.068046
  29 H :    0.020732
  30 H :    0.026113
  31 H :    0.030763
  32 H :    0.043824
  33 H :    0.036354

  Mayer bond orders larger than 0.100000
B(  0-S ,  1-C ) :   1.1189 B(  0-S ,  4-C ) :   1.1520 B(  1-C ,  2-C ) :   1.6259
B(  1-C , 32-H ) :   0.9557 B(  2-C ,  3-C ) :   1.2207 B(  2-C ,  6-C ) :   1.0441
B(  3-C ,  4-C ) :   1.5556 B(  3-C ,  5-H ) :   1.0044 B(  4-C , 20-C ) :   1.0372
B(  6-C ,  7-H ) :   0.9440 B(  6-C ,  8-H ) :   0.9361 B(  6-C ,  9-C ) :   1.0460
B(  9-C , 10-H ) :   0.9588 B(  9-C , 11-H ) :   0.9509 B(  9-C , 12-C ) :   1.1020
B( 12-C , 13-H ) :   0.9659 B( 12-C , 14-H ) :   0.9707 B( 12-C , 15-H ) :   0.9683
B( 16-S , 17-C ) :   1.1898 B( 16-S , 20-C ) :   1.1731 B( 17-C , 18-C ) :   1.5971
B( 17-C , 33-H ) :   0.9554 B( 18-C , 19-C ) :   1.2578 B( 18-C , 21-H ) :   0.9841
B( 19-C , 20-C ) :   1.5639 B( 19-C , 22-C ) :   1.0487 B( 22-C , 23-H ) :   0.9350
B( 22-C , 24-H ) :   0.9294 B( 22-C , 25-C ) :   1.0654 B( 25-C , 26-H ) :   0.9489
B( 25-C , 27-H ) :   0.9642 B( 25-C , 28-C ) :   1.0745 B( 28-C , 29-H ) :   0.9795
B( 28-C , 30-H ) :   0.9753 B( 28-C , 31-H ) :   0.9753

Dispersion correction           -0.013410326
FINAL SINGLE POINT ENERGY     -1339.871666058587

DIPOLE MOMENT
-------------
                                X             Y             Z
Electronic contribution:     24.69339      15.64789       6.45082
Nuclear contribution   :    -25.30499     -15.87536      -6.20106
                        -----------------------------------------
Total Dipole Moment    :     -0.61160      -0.22747       0.24976
                        -----------------------------------------
Magnitude (a.u.)       :      0.69870
Magnitude (Debye)      :      1.77595

Rotational constants in cm-1:     0.016685     0.008433     0.006219
Rotational constants in MHz :   500.213176   252.825385   186.450173

                             ****ORCA TERMINATED NORMALLY****
TOTAL RUN TIME: 0 days 0 hours 0 minutes 33 seconds 591 msec
