                         Program Version 4.2.1 -  RELEASE  -
|  1> ! wB97X-D3 SP def2-SVP
|  2> %pal
|  3> nprocs 16
|  4> end
|  5>
|  6> * xyz 0 1
|  7> S 	 3.73764 	 -22.416 	 59.1806
|  8> C 	 3.37197 	 -24.1311 	 59.3547
|  9> C 	 4.11854 	 -24.8809 	 58.4806
| 10> C 	 5.13463 	 -24.1684 	 57.7339
| 11> C 	 5.03012 	 -22.8229 	 58.0605
| 12> H 	 5.91327 	 -24.5585 	 57.0348
| 13> C 	 3.88188 	 -26.3405 	 58.1565
| 14> H 	 4.3946 	 -26.7686 	 57.2927
| 15> H 	 2.85107 	 -26.5405 	 57.911
| 16> C 	 4.26621 	 -27.2799 	 59.3789
| 17> H 	 5.05841 	 -26.8125 	 59.9246
| 18> H 	 3.3604 	 -27.277 	 60.023
| 19> C 	 4.45077 	 -28.779 	 59.1119
| 20> H 	 4.58521 	 -29.3159 	 60.0821
| 21> H 	 3.55366 	 -29.1765 	 58.6579
| 22> H 	 5.2798 	 -28.9025 	 58.5518
| 23> S 	 5.07684 	 -21.0003 	 56.0292
| 24> C 	 6.35518 	 -19.822 	 56.0191
| 25> C 	 7.34864 	 -20.0816 	 56.9901
| 26> C 	 6.98467 	 -21.1972 	 57.8165
| 27> C 	 5.77413 	 -21.7659 	 57.4475
| 28> H 	 8.19592 	 -19.4447 	 57.1232
| 29> C 	 7.75483 	 -21.513 	 59.0439
| 30> H 	 7.13484 	 -22.2505 	 59.5788
| 31> H 	 8.04639 	 -20.6429 	 59.6686
| 32> C 	 9.09283 	 -22.2327 	 58.7203
| 33> H 	 9.46741 	 -22.6408 	 59.6355
| 34> H 	 9.7901 	 -21.4374 	 58.339
| 35> C 	 8.87324 	 -23.2442 	 57.6147
| 36> H 	 9.80612 	 -23.8627 	 57.4756
| 37> H 	 8.6306 	 -22.6374 	 56.6779
| 38> H 	 8.06995 	 -23.9061 	 57.9059
| 39> H 	 2.58282 	 -24.5331 	 59.8967
| 40> H 	 6.38238 	 -18.9333 	 55.4387
| 41> *
| 42>
| 43>                          ****END OF INPUT****

CARTESIAN COORDINATES (ANGSTROEM)
---------------------------------
  S      3.737640  -22.416000   59.180600
  C      3.371970  -24.131100   59.354700
  C      4.118540  -24.880900   58.480600
  C      5.134630  -24.168400   57.733900
  C      5.030120  -22.822900   58.060500
  H      5.913270  -24.558500   57.034800
  C      3.881880  -26.340500   58.156500
  H      4.394600  -26.768600   57.292700
  H      2.851070  -26.540500   57.911000
  C      4.266210  -27.279900   59.378900
  H      5.058410  -26.812500   59.924600
  H      3.360400  -27.277000   60.023000
  C      4.450770  -28.779000   59.111900
  H      4.585210  -29.315900   60.082100
  H      3.553660  -29.176500   58.657900
  H      5.279800  -28.902500   58.551800
  S      5.076840  -21.000300   56.029200
  C      6.355180  -19.822000   56.019100
  C      7.348640  -20.081600   56.990100
  C      6.984670  -21.197200   57.816500
  C      5.774130  -21.765900   57.447500
  H      8.195920  -19.444700   57.123200
  C      7.754830  -21.513000   59.043900
  H      7.134840  -22.250500   59.578800
  H      8.046390  -20.642900   59.668600
  C      9.092830  -22.232700   58.720300
  H      9.467410  -22.640800   59.635500
  H      9.790100  -21.437400   58.339000
  C      8.873240  -23.244200   57.614700
  H      9.806120  -23.862700   57.475600
  H      8.630600  -22.637400   56.677900
  H      8.069950  -23.906100   57.905900
  H      2.582820  -24.533100   59.896700
  H      6.382380  -18.933300   55.438700

 Total Charge           Charge          ....    0
 Multiplicity           Mult            ....    1
 Number of Electrons    NEL             ....  134
 Basis Dimension        Dim             ....  322

ORBITAL ENERGIES
----------------

  NO   OCC          E(Eh)            E(eV)
   0   2.0000     -88.969229     -2420.9758
   1   2.0000     -88.966833     -2420.9106
   2   2.0000     -10.327080      -281.0141
   3   2.0000     -10.318324      -280.7759
   4   2.0000     -10.317173      -280.7445
   5   2.0000     -10.310172      -280.5540
   6   2.0000     -10.303276      -280.3664
   7   2.0000     -10.301942      -280.3301
   8   2.0000     -10.299320      -280.2588
   9   2.0000     -10.293686      -280.1054
  10   2.0000     -10.289802      -279.9998
  11   2.0000     -10.286831      -279.9189
  12   2.0000     -10.283636      -279.8320
  13   2.0000     -10.282079      -279.7896
  14   2.0000     -10.277336      -279.6605
  15   2.0000     -10.272336      -279.5245
  16   2.0000      -8.083490      -219.9629
  17   2.0000      -8.081550      -219.9102
  18   2.0000      -6.041950      -164.4098
  19   2.0000      -6.039994      -164.3566
  20   2.0000      -6.038196      -164.3077
  21   2.0000      -6.036001      -164.2479
  22   2.0000      -6.034179      -164.1984
  23   2.0000      -6.032451      -164.1513
  24   2.0000      -1.006405       -27.3857
  25   2.0000      -0.981131       -26.6979
  26   2.0000      -0.912847       -24.8398
  27   2.0000      -0.905459       -24.6388
  28   2.0000      -0.869062       -23.6484
  29   2.0000      -0.850396       -23.1405
  30   2.0000      -0.844408       -22.9775
  31   2.0000      -0.812078       -22.0978
  32   2.0000      -0.780594       -21.2410
  33   2.0000      -0.769090       -20.9280
  34   2.0000      -0.706037       -19.2122
  35   2.0000      -0.696868       -18.9627
  36   2.0000      -0.688526       -18.7358
  37   2.0000      -0.659564       -17.9476
  38   2.0000      -0.646824       -17.6010
  39   2.0000      -0.613996       -16.7077
  40   2.0000      -0.592058       -16.1107
  41   2.0000      -0.566720       -15.4212
  42   2.0000      -0.565062       -15.3761
  43   2.0000      -0.553953       -15.0738
  44   2.0000      -0.546040       -14.8585
  45   2.0000      -0.520885       -14.1740
  46   2.0000      -0.518385       -14.1060
  47   2.0000      -0.515793       -14.0354
  48   2.0000      -0.503057       -13.6889
  49   2.0000      -0.499696       -13.5974
  50   2.0000      -0.493051       -13.4166
  51   2.0000      -0.480807       -13.0834
  52   2.0000      -0.470580       -12.8051
  53   2.0000      -0.460295       -12.5253
  54   2.0000      -0.456142       -12.4122
  55   2.0000      -0.449260       -12.2250
  56   2.0000      -0.445173       -12.1138
  57   2.0000      -0.431552       -11.7431
  58   2.0000      -0.430340       -11.7101
  59   2.0000      -0.425379       -11.5752
  60   2.0000      -0.419019       -11.4021
  61   2.0000      -0.412458       -11.2236
  62   2.0000      -0.405837       -11.0434
  63   2.0000      -0.336939        -9.1686
  64   2.0000      -0.327602        -8.9145
  65   2.0000      -0.316062        -8.6005
  66   2.0000      -0.309592        -8.4244
  67   0.0000       0.041533         1.1302
  68   0.0000       0.051880         1.4117
  69   0.0000       0.108589         2.9549
  70   0.0000       0.115885         3.1534
  71   0.0000       0.123901         3.3715

MULLIKEN ATOMIC CHARGES
-----------------------
   0 S :    0.126950
   1 C :   -0.082788
   2 C :   -0.077290
   3 C :    0.039656
   4 C :   -0.202653
   5 H :    0.051089
   6 C :    0.066407
   7 H :    0.015238
   8 H :    0.023704
   9 C :   -0.128989
  10 H :    0.034169
  11 H :    0.024466
  12 C :   -0.004957
  13 H :    0.038879
  14 H :    0.027985
  15 H :    0.013945
  16 S :    0.130342
  17 C :   -0.082490
  18 C :   -0.034811
  19 C :   -0.029318
  20 C :   -0.197049
  21 H :    0.013095
  22 C :    0.063883
  23 H :    0.030931
  24 H :    0.045252
  25 C :   -0.098540
  26 H :    0.028930
  27 H :    0.030299
  28 C :   -0.060766
  29 H :    0.040207
  30 H :    0.066023
  31 H :    0.020395
  32 H :    0.021046
  33 H :    0.046760
Sum of atomic charges:    0.0000000

LOEWDIN ATOMIC CHARGES
----------------------
   0 S :    0.406844
   1 C :   -0.185256
   2 C :   -0.056594
   3 C :   -0.056637
   4 C :   -0.195401
   5 H :    0.046970
   6 C :   -0.034181
   7 H :    0.025647
   8 H :    0.027565
   9 C :   -0.040786
  10 H :    0.017668
  11 H :    0.022687
  12 C :   -0.055534
  13 H :    0.036046
  14 H :    0.025717
  15 H :    0.005845
  16 S :    0.415106
  17 C :   -0.181678
  18 C :   -0.067710
  19 C :   -0.052968
  20 C :   -0.215210
  21 H :    0.027239
  22 C :   -0.034676
  23 H :    0.030629
  24 H :    0.036745
  25 C :   -0.040966
  26 H :    0.018220
  27 H :    0.022549
  28 C :   -0.073496
  29 H :    0.028854
  30 H :    0.040559
  31 H :    0.017989
  32 H :    0.016046
  33 H :    0.022170

  Mayer bond orders larger than 0.100000
B(  0-S ,  1-C ) :   1.1176 B(  0-S ,  4-C ) :   1.1578 B(  1-C ,  2-C ) :   1.6372
B(  1-C , 32-H ) :   0.9767 B(  2-C ,  3-C ) :   1.2072 B(  2-C ,  6-C ) :   1.0268
B(  3-C ,  4-C ) :   1.5933 B(  3-C ,  5-H ) :   0.9823 B(  4-C , 20-C ) :   1.0211
B(  6-C ,  7-H ) :   0.9561 B(  6-C ,  8-H ) :   0.9394 B(  6-C ,  9-C ) :   1.0368
B(  9-C , 10-H ) :   0.9674 B(  9-C , 11-H ) :   0.9598 B(  9-C , 12-C ) :   1.0848
B( 12-C , 13-H ) :   0.9724 B( 12-C , 14-H ) :   0.9730 B( 12-C , 15-H ) :   0.9774
B( 16-S , 17-C ) :   1.1638 B( 16-S , 20-C ) :   1.1450 B( 17-C , 18-C ) :   1.6010
B( 17-C , 33-H ) :   0.9703 B( 18-C , 19-C ) :   1.2255 B( 18-C , 21-H ) :   0.9932
B( 19-C , 20-C ) :   1.5933 B( 19-C , 22-C ) :   1.0576 B( 22-C , 23-H ) :   0.9216
B( 22-C , 24-H ) :   0.9468 B( 22-C , 25-C ) :   1.0584 B( 25-C , 26-H ) :   0.9585
B( 25-C , 27-H ) :   0.9566 B( 25-C , 28-C ) :   1.0896 B( 28-C , 29-H ) :   0.9699
B( 28-C , 30-H ) :   0.9565 B( 28-C , 31-H ) :   0.9718

Dispersion correction           -0.015247236
FINAL SINGLE POINT ENERGY     -1339.870417981586

DIPOLE MOMENT
-------------
                                X             Y             Z
Electronic contribution:    -12.44330      22.61989      -6.36602
Nuclear contribution   :     12.65860     -22.90782       6.45088
                        -----------------------------------------
Total Dipole Moment    :      0.21530      -0.28794       0.08486
                        -----------------------------------------
Magnitude (a.u.)       :      0.36941
Magnitude (Debye)      :      0.93897

Rotational constants in cm-1:     0.021584     0.008107     0.006925
Rotational constants in MHz :   647.085807   243.041340   207.595269

                             ****ORCA TERMINATED NORMALLY****
TOTAL RUN TIME: 0 days 0 hours 0 minutes 34 seconds 681 msec
