                         Program Version 4.2.1 -  RELEASE  -
|  1> ! wB97X-D3 SP def2-SVP
|  2> %pal
|  3> nprocs 16
|  4> end
|  5>
|  6> * xyz 0 1
|  7> S 	 5.39527 	 -10.6801 	 74.0239
|  8> C 	 3.91848 	 -9.76751 	 73.7802
|  9> C 	 3.90701 	 -9.08446 	 72.5908
| 10> C 	 5.16162 	 -9.19973 	 71.8846
| 11> C 	 6.08084 	 -9.95561 	 72.5871
| 12> H 	 5.42201 	 -8.71759 	 70.9629
| 13> C 	 2.75541 	 -8.45099 	 71.9895
| 14> H 	 1.89875 	 -8.63653 	 72.7009
| 15> H 	 2.53808 	 -8.952 	 71.1059
| 16> C 	 2.74167 	 -6.94871 	 71.8026
| 17> H 	 3.02146 	 -6.42436 	 72.7133
| 18> H 	 3.57113 	 -6.68011 	 71.1161
| 19> C 	 1.50518 	 -6.46203 	 71.0642
| 20> H 	 1.24844 	 -7.11404 	 70.1676
| 21> H 	 0.664804 	 -6.36589 	 71.7259
| 22> H 	 1.58614 	 -5.48328 	 70.6162
| 23> S 	 8.774 	 -9.50672 	 72.0581
| 24> C 	 9.62062 	 -10.707 	 71.0168
| 25> C 	 8.91997 	 -11.8773 	 70.9516
| 26> C 	 7.57016 	 -11.7522 	 71.4311
| 27> C 	 7.28808 	 -10.4885 	 71.9806
| 28> H 	 9.38548 	 -12.7775 	 70.5497
| 29> C 	 6.683 	 -12.8655 	 71.2044
| 30> H 	 6.79206 	 -13.3631 	 70.222
| 31> H 	 5.68277 	 -12.4629 	 71.1553
| 32> C 	 6.74008 	 -13.8786 	 72.3047
| 33> H 	 6.21528 	 -13.5481 	 73.2913
| 34> H 	 7.75796 	 -14.0421 	 72.7178
| 35> C 	 6.05282 	 -15.156 	 71.8406
| 36> H 	 5.00472 	 -14.9872 	 71.8731
| 37> H 	 6.28654 	 -16.013 	 72.4886
| 38> H 	 6.39922 	 -15.3931 	 70.8015
| 39> H 	 2.92536 	 -9.95485 	 74.3036
| 40> H 	 10.6303 	 -10.6168 	 70.6162
| 41> *
| 42>
| 43>                          ****END OF INPUT****

CARTESIAN COORDINATES (ANGSTROEM)
---------------------------------
  S      5.395270  -10.680100   74.023900
  C      3.918480   -9.767510   73.780200
  C      3.907010   -9.084460   72.590800
  C      5.161620   -9.199730   71.884600
  C      6.080840   -9.955610   72.587100
  H      5.422010   -8.717590   70.962900
  C      2.755410   -8.450990   71.989500
  H      1.898750   -8.636530   72.700900
  H      2.538080   -8.952000   71.105900
  C      2.741670   -6.948710   71.802600
  H      3.021460   -6.424360   72.713300
  H      3.571130   -6.680110   71.116100
  C      1.505180   -6.462030   71.064200
  H      1.248440   -7.114040   70.167600
  H      0.664804   -6.365890   71.725900
  H      1.586140   -5.483280   70.616200
  S      8.774000   -9.506720   72.058100
  C      9.620620  -10.707000   71.016800
  C      8.919970  -11.877300   70.951600
  C      7.570160  -11.752200   71.431100
  C      7.288080  -10.488500   71.980600
  H      9.385480  -12.777500   70.549700
  C      6.683000  -12.865500   71.204400
  H      6.792060  -13.363100   70.222000
  H      5.682770  -12.462900   71.155300
  C      6.740080  -13.878600   72.304700
  H      6.215280  -13.548100   73.291300
  H      7.757960  -14.042100   72.717800
  C      6.052820  -15.156000   71.840600
  H      5.004720  -14.987200   71.873100
  H      6.286540  -16.013000   72.488600
  H      6.399220  -15.393100   70.801500
  H      2.925360   -9.954850   74.303600
  H     10.630300  -10.616800   70.616200

 Total Charge           Charge          ....    0
 Multiplicity           Mult            ....    1
 Number of Electrons    NEL             ....  134
 Basis Dimension        Dim             ....  322

ORBITAL ENERGIES
----------------

  NO   OCC          E(Eh)            E(eV)
   0   2.0000     -88.969551     -2420.9846
   1   2.0000     -88.961445     -2420.7640
   2   2.0000     -10.327847      -281.0350
   3   2.0000     -10.326748      -281.0051
   4   2.0000     -10.317895      -280.7642
   5   2.0000     -10.317724      -280.7595
   6   2.0000     -10.299592      -280.2662
   7   2.0000     -10.296971      -280.1948
   8   2.0000     -10.295861      -280.1646
   9   2.0000     -10.291239      -280.0388
  10   2.0000     -10.287321      -279.9322
  11   2.0000     -10.286884      -279.9203
  12   2.0000     -10.284934      -279.8673
  13   2.0000     -10.281322      -279.7690
  14   2.0000     -10.281185      -279.7653
  15   2.0000     -10.275689      -279.6157
  16   2.0000      -8.083884      -219.9737
  17   2.0000      -8.075039      -219.7330
  18   2.0000      -6.042390      -164.4218
  19   2.0000      -6.038513      -164.3163
  20   2.0000      -6.034577      -164.2092
  21   2.0000      -6.033698      -164.1853
  22   2.0000      -6.029896      -164.0818
  23   2.0000      -6.025522      -163.9628
  24   2.0000      -1.004938       -27.3458
  25   2.0000      -0.980546       -26.6820
  26   2.0000      -0.921433       -25.0735
  27   2.0000      -0.916211       -24.9314
  28   2.0000      -0.870791       -23.6954
  29   2.0000      -0.852703       -23.2032
  30   2.0000      -0.846855       -23.0441
  31   2.0000      -0.816009       -22.2047
  32   2.0000      -0.782498       -21.2929
  33   2.0000      -0.764598       -20.8058
  34   2.0000      -0.709260       -19.2999
  35   2.0000      -0.697881       -18.9903
  36   2.0000      -0.690644       -18.7934
  37   2.0000      -0.660284       -17.9672
  38   2.0000      -0.640018       -17.4158
  39   2.0000      -0.620154       -16.8753
  40   2.0000      -0.600725       -16.3465
  41   2.0000      -0.578966       -15.7545
  42   2.0000      -0.563917       -15.3450
  43   2.0000      -0.556681       -15.1481
  44   2.0000      -0.527008       -14.3406
  45   2.0000      -0.523473       -14.2444
  46   2.0000      -0.518927       -14.1207
  47   2.0000      -0.510937       -13.9033
  48   2.0000      -0.509528       -13.8650
  49   2.0000      -0.503494       -13.7008
  50   2.0000      -0.491422       -13.3723
  51   2.0000      -0.473762       -12.8917
  52   2.0000      -0.467183       -12.7127
  53   2.0000      -0.457656       -12.4534
  54   2.0000      -0.455272       -12.3886
  55   2.0000      -0.453354       -12.3364
  56   2.0000      -0.444424       -12.0934
  57   2.0000      -0.441228       -12.0064
  58   2.0000      -0.440066       -11.9748
  59   2.0000      -0.433184       -11.7875
  60   2.0000      -0.418976       -11.4009
  61   2.0000      -0.405101       -11.0234
  62   2.0000      -0.401557       -10.9269
  63   2.0000      -0.336016        -9.1435
  64   2.0000      -0.328942        -8.9510
  65   2.0000      -0.320844        -8.7306
  66   2.0000      -0.304559        -8.2875
  67   0.0000       0.035804         0.9743
  68   0.0000       0.057895         1.5754
  69   0.0000       0.104947         2.8557
  70   0.0000       0.111073         3.0224
  71   0.0000       0.129788         3.5317

MULLIKEN ATOMIC CHARGES
-----------------------
   0 S :    0.120198
   1 C :   -0.131204
   2 C :   -0.091154
   3 C :    0.047870
   4 C :   -0.147451
   5 H :    0.016840
   6 C :    0.082198
   7 H :    0.010028
   8 H :    0.016106
   9 C :   -0.073787
  10 H :    0.032523
  11 H :    0.020616
  12 C :   -0.045926
  13 H :    0.035624
  14 H :    0.029101
  15 H :    0.028558
  16 S :    0.087875
  17 C :   -0.094347
  18 C :   -0.030026
  19 C :   -0.014933
  20 C :   -0.183039
  21 H :    0.026002
  22 C :    0.079953
  23 H :    0.026385
  24 H :    0.016200
  25 C :   -0.125974
  26 H :    0.034549
  27 H :    0.030250
  28 C :   -0.025321
  29 H :    0.029783
  30 H :    0.035293
  31 H :    0.029045
  32 H :    0.070003
  33 H :    0.058163
Sum of atomic charges:    0.0000000

LOEWDIN ATOMIC CHARGES
----------------------
   0 S :    0.414529
   1 C :   -0.208681
   2 C :   -0.067345
   3 C :   -0.040662
   4 C :   -0.201863
   5 H :    0.032283
   6 C :   -0.034327
   7 H :    0.033720
   8 H :    0.025393
   9 C :   -0.042886
  10 H :    0.027360
  11 H :    0.023423
  12 C :   -0.067551
  13 H :    0.034645
  14 H :    0.020517
  15 H :    0.025645
  16 S :    0.365251
  17 C :   -0.168476
  18 C :   -0.068324
  19 C :   -0.051376
  20 C :   -0.195052
  21 H :    0.035053
  22 C :   -0.042670
  23 H :    0.033654
  24 H :    0.033076
  25 C :   -0.049966
  26 H :    0.027746
  27 H :    0.021479
  28 C :   -0.063729
  29 H :    0.022244
  30 H :    0.027332
  31 H :    0.025021
  32 H :    0.043402
  33 H :    0.031135

  Mayer bond orders larger than 0.100000
B(  0-S ,  1-C ) :   1.1282 B(  0-S ,  4-C ) :   1.1483 B(  1-C ,  2-C ) :   1.6428
B(  1-C , 32-H ) :   0.9478 B(  2-C ,  3-C ) :   1.2161 B(  2-C ,  6-C ) :   1.0464
B(  3-C ,  4-C ) :   1.5882 B(  3-C ,  5-H ) :   0.9963 B(  4-C , 20-C ) :   1.0214
B(  6-C ,  7-H ) :   0.9333 B(  6-C ,  8-H ) :   0.9264 B(  6-C ,  9-C ) :   1.0663
B(  9-C , 10-H ) :   0.9539 B(  9-C , 11-H ) :   0.9547 B(  9-C , 12-C ) :   1.0776
B( 12-C , 13-H ) :   0.9709 B( 12-C , 14-H ) :   0.9764 B( 12-C , 15-H ) :   0.9734
B( 16-S , 17-C ) :   1.1323 B( 16-S , 20-C ) :   1.1188 B( 17-C , 18-C ) :   1.6447
B( 17-C , 33-H ) :   0.9645 B( 18-C , 19-C ) :   1.2103 B( 18-C , 21-H ) :   0.9864
B( 19-C , 20-C ) :   1.6086 B( 19-C , 22-C ) :   1.0656 B( 22-C , 23-H ) :   0.9442
B( 22-C , 24-H ) :   0.9090 B( 22-C , 25-C ) :   1.0490 B( 25-C , 26-H ) :   0.9409
B( 25-C , 27-H ) :   0.9650 B( 25-C , 28-C ) :   1.0746 B( 28-C , 29-H ) :   0.9732
B( 28-C , 30-H ) :   0.9732 B( 28-C , 31-H ) :   0.9763

Dispersion correction           -0.014299574
FINAL SINGLE POINT ENERGY     -1339.867166082453

DIPOLE MOMENT
-------------
                                X             Y             Z
Electronic contribution:     18.45864       4.07672       8.80631
Nuclear contribution   :    -18.90881      -4.30754      -9.25956
                        -----------------------------------------
Total Dipole Moment    :     -0.45017      -0.23082      -0.45325
                        -----------------------------------------
Magnitude (a.u.)       :      0.67924
Magnitude (Debye)      :      1.72649

Rotational constants in cm-1:     0.019731     0.007787     0.006549
Rotational constants in MHz :   591.534461   233.445208   196.341293

                             ****ORCA TERMINATED NORMALLY****
TOTAL RUN TIME: 0 days 0 hours 0 minutes 30 seconds 227 msec
