                         Program Version 4.2.1 -  RELEASE  -
|  1> ! wB97X-D3 SP def2-SVP
|  2> %pal
|  3> nprocs 16
|  4> end
|  5>
|  6> * xyz 0 1
|  7> S 	 39.766 	 18.595 	 48.4479
|  8> C 	 39.2487 	 17.0468 	 47.7065
|  9> C 	 39.9696 	 16.7192 	 46.5762
| 10> C 	 40.6513 	 17.8887 	 46.1098
| 11> C 	 40.6286 	 18.9296 	 46.9832
| 12> H 	 41.3025 	 18.024 	 45.2932
| 13> C 	 40.0631 	 15.3253 	 45.9903
| 14> H 	 39.3683 	 14.7277 	 46.5854
| 15> H 	 41.101 	 14.8972 	 46.12
| 16> C 	 39.7874 	 15.1051 	 44.5177
| 17> H 	 40.4875 	 15.6621 	 43.8809
| 18> H 	 39.7805 	 13.9749 	 44.3135
| 19> C 	 38.2491 	 15.3515 	 44.2015
| 20> H 	 37.8796 	 16.4123 	 44.3421
| 21> H 	 38.0818 	 14.9975 	 43.1553
| 22> H 	 37.7417 	 14.7068 	 44.7852
| 23> S 	 42.2801 	 20.8926 	 47.9397
| 24> C 	 42.8846 	 22.1389 	 46.9512
| 25> C 	 42.5704 	 21.9572 	 45.6696
| 26> C 	 41.7835 	 20.7528 	 45.4408
| 27> C 	 41.4146 	 20.1205 	 46.6643
| 28> H 	 42.895 	 22.6531 	 44.8733
| 29> C 	 41.2673 	 20.4467 	 44.087
| 30> H 	 40.8363 	 21.4085 	 43.7431
| 31> H 	 40.3986 	 19.7924 	 44.0758
| 32> C 	 42.2724 	 19.9928 	 42.9971
| 33> H 	 42.8977 	 20.8637 	 42.5741
| 34> H 	 41.7272 	 19.6434 	 42.0959
| 35> C 	 43.1128 	 18.7621 	 43.3294
| 36> H 	 43.5768 	 18.8962 	 44.3264
| 37> H 	 43.8521 	 18.6456 	 42.4824
| 38> H 	 42.5961 	 17.8626 	 43.4386
| 39> H 	 38.7389 	 16.2745 	 48.2611
| 40> H 	 43.5358 	 22.8958 	 47.2705
| 41> *
| 42>
| 43>                          ****END OF INPUT****

CARTESIAN COORDINATES (ANGSTROEM)
---------------------------------
  S     39.766000   18.595000   48.447900
  C     39.248700   17.046800   47.706500
  C     39.969600   16.719200   46.576200
  C     40.651300   17.888700   46.109800
  C     40.628600   18.929600   46.983200
  H     41.302500   18.024000   45.293200
  C     40.063100   15.325300   45.990300
  H     39.368300   14.727700   46.585400
  H     41.101000   14.897200   46.120000
  C     39.787400   15.105100   44.517700
  H     40.487500   15.662100   43.880900
  H     39.780500   13.974900   44.313500
  C     38.249100   15.351500   44.201500
  H     37.879600   16.412300   44.342100
  H     38.081800   14.997500   43.155300
  H     37.741700   14.706800   44.785200
  S     42.280100   20.892600   47.939700
  C     42.884600   22.138900   46.951200
  C     42.570400   21.957200   45.669600
  C     41.783500   20.752800   45.440800
  C     41.414600   20.120500   46.664300
  H     42.895000   22.653100   44.873300
  C     41.267300   20.446700   44.087000
  H     40.836300   21.408500   43.743100
  H     40.398600   19.792400   44.075800
  C     42.272400   19.992800   42.997100
  H     42.897700   20.863700   42.574100
  H     41.727200   19.643400   42.095900
  C     43.112800   18.762100   43.329400
  H     43.576800   18.896200   44.326400
  H     43.852100   18.645600   42.482400
  H     42.596100   17.862600   43.438600
  H     38.738900   16.274500   48.261100
  H     43.535800   22.895800   47.270500

 Total Charge           Charge          ....    0
 Multiplicity           Mult            ....    1
 Number of Electrons    NEL             ....  134
 Basis Dimension        Dim             ....  322

ORBITAL ENERGIES
----------------

  NO   OCC          E(Eh)            E(eV)
   0   2.0000     -88.972258     -2421.0582
   1   2.0000     -88.960963     -2420.7509
   2   2.0000     -10.329131      -281.0699
   3   2.0000     -10.327770      -281.0329
   4   2.0000     -10.315810      -280.7075
   5   2.0000     -10.306485      -280.4537
   6   2.0000     -10.306077      -280.4426
   7   2.0000     -10.305325      -280.4222
   8   2.0000     -10.299663      -280.2681
   9   2.0000     -10.298928      -280.2481
  10   2.0000     -10.295953      -280.1671
  11   2.0000     -10.291925      -280.0575
  12   2.0000     -10.290600      -280.0215
  13   2.0000     -10.286691      -279.9151
  14   2.0000     -10.278664      -279.6967
  15   2.0000     -10.277254      -279.6583
  16   2.0000      -8.086372      -220.0414
  17   2.0000      -8.077448      -219.7985
  18   2.0000      -6.044945      -164.4913
  19   2.0000      -6.041302      -164.3922
  20   2.0000      -6.036756      -164.2685
  21   2.0000      -6.035886      -164.2448
  22   2.0000      -6.031661      -164.1298
  23   2.0000      -6.028239      -164.0367
  24   2.0000      -1.012910       -27.5627
  25   2.0000      -0.989835       -26.9348
  26   2.0000      -0.914156       -24.8755
  27   2.0000      -0.909558       -24.7503
  28   2.0000      -0.873988       -23.7824
  29   2.0000      -0.852544       -23.1989
  30   2.0000      -0.845992       -23.0206
  31   2.0000      -0.820034       -22.3143
  32   2.0000      -0.785095       -21.3635
  33   2.0000      -0.775176       -21.0936
  34   2.0000      -0.711532       -19.3618
  35   2.0000      -0.693734       -18.8775
  36   2.0000      -0.693014       -18.8579
  37   2.0000      -0.656257       -17.8577
  38   2.0000      -0.639123       -17.3914
  39   2.0000      -0.624252       -16.9868
  40   2.0000      -0.598962       -16.2986
  41   2.0000      -0.569963       -15.5095
  42   2.0000      -0.554088       -15.0775
  43   2.0000      -0.551535       -15.0080
  44   2.0000      -0.542361       -14.7584
  45   2.0000      -0.538746       -14.6600
  46   2.0000      -0.518564       -14.1108
  47   2.0000      -0.514773       -14.0077
  48   2.0000      -0.502992       -13.6871
  49   2.0000      -0.498036       -13.5522
  50   2.0000      -0.491524       -13.3750
  51   2.0000      -0.481721       -13.1083
  52   2.0000      -0.473523       -12.8852
  53   2.0000      -0.469018       -12.7626
  54   2.0000      -0.463575       -12.6145
  55   2.0000      -0.450686       -12.2638
  56   2.0000      -0.444978       -12.1085
  57   2.0000      -0.437913       -11.9162
  58   2.0000      -0.433356       -11.7922
  59   2.0000      -0.431160       -11.7325
  60   2.0000      -0.415725       -11.3124
  61   2.0000      -0.410712       -11.1760
  62   2.0000      -0.407458       -11.0875
  63   2.0000      -0.359579        -9.7846
  64   2.0000      -0.334029        -9.0894
  65   2.0000      -0.325366        -8.8537
  66   2.0000      -0.287413        -7.8209
  67   0.0000       0.026094         0.7101
  68   0.0000       0.075731         2.0608
  69   0.0000       0.107651         2.9293
  70   0.0000       0.119829         3.2607
  71   0.0000       0.127442         3.4679

MULLIKEN ATOMIC CHARGES
-----------------------
   0 S :    0.117119
   1 C :   -0.115051
   2 C :   -0.061096
   3 C :    0.028000
   4 C :   -0.097250
   5 H :   -0.059136
   6 C :    0.068398
   7 H :    0.008486
   8 H :    0.055562
   9 C :   -0.118717
  10 H :    0.047991
  11 H :    0.044155
  12 C :   -0.048565
  13 H :    0.057133
  14 H :    0.034620
  15 H :    0.001715
  16 S :    0.095397
  17 C :   -0.053462
  18 C :   -0.039150
  19 C :   -0.054489
  20 C :   -0.150766
  21 H :    0.029050
  22 C :    0.031515
  23 H :    0.034369
  24 H :    0.029599
  25 C :   -0.104527
  26 H :    0.041981
  27 H :    0.029557
  28 C :   -0.057802
  29 H :    0.045540
  30 H :    0.045987
  31 H :    0.033444
  32 H :    0.043390
  33 H :    0.037004
Sum of atomic charges:   -0.0000000

LOEWDIN ATOMIC CHARGES
----------------------
   0 S :    0.393935
   1 C :   -0.185100
   2 C :   -0.051636
   3 C :   -0.059939
   4 C :   -0.191972
   5 H :    0.020882
   6 C :   -0.037658
   7 H :    0.028310
   8 H :    0.044246
   9 C :   -0.044373
  10 H :    0.021955
  11 H :    0.038984
  12 C :   -0.063349
  13 H :    0.032235
  14 H :    0.029417
  15 H :    0.004526
  16 S :    0.425121
  17 C :   -0.192205
  18 C :   -0.072888
  19 C :   -0.064949
  20 C :   -0.198245
  21 H :    0.038317
  22 C :   -0.047408
  23 H :    0.040316
  24 H :    0.030833
  25 C :   -0.049213
  26 H :    0.030166
  27 H :    0.028465
  28 C :   -0.072733
  29 H :    0.028651
  30 H :    0.037988
  31 H :    0.011798
  32 H :    0.022488
  33 H :    0.023035

  Mayer bond orders larger than 0.100000
B(  0-S ,  1-C ) :   1.1130 B(  0-S ,  4-C ) :   1.1323 B(  1-C ,  2-C ) :   1.6456
B(  1-C , 32-H ) :   0.9578 B(  2-C ,  3-C ) :   1.1882 B(  2-C ,  6-C ) :   1.0304
B(  3-C ,  4-C ) :   1.6008 B(  3-C ,  5-H ) :   0.9956 B(  4-C , 20-C ) :   1.0603
B(  6-C ,  7-H ) :   0.9328 B(  6-C ,  8-H ) :   0.9340 B(  6-C ,  9-C ) :   1.0792
B(  9-C , 10-H ) :   0.9565 B(  9-C , 11-H ) :   0.9559 B(  9-C , 12-C ) :   1.0568
B( 12-C , 13-H ) :   0.9771 B( 12-C , 14-H ) :   0.9781 B( 12-C , 15-H ) :   0.9761
B( 16-S , 17-C ) :   1.1523 B( 16-S , 20-C ) :   1.1502 B( 17-C , 18-C ) :   1.6203
B( 17-C , 33-H ) :   0.9724 B( 18-C , 19-C ) :   1.2384 B( 18-C , 21-H ) :   0.9870
B( 19-C , 20-C ) :   1.5567 B( 19-C , 22-C ) :   1.0521 B( 22-C , 23-H ) :   0.9335
B( 22-C , 24-H ) :   0.9387 B( 22-C , 25-C ) :   1.0711 B( 25-C , 26-H ) :   0.9582
B( 25-C , 27-H ) :   0.9527 B( 25-C , 28-C ) :   1.0820 B( 28-C , 29-H ) :   0.9687
B( 28-C , 30-H ) :   0.9681 B( 28-C , 31-H ) :   0.9606

Dispersion correction           -0.015064161
FINAL SINGLE POINT ENERGY     -1339.861675486816

DIPOLE MOMENT
-------------
                                X             Y             Z
Electronic contribution:      1.24070      15.60846      26.47087
Nuclear contribution   :     -1.06947     -15.95289     -27.07623
                        -----------------------------------------
Total Dipole Moment    :      0.17123      -0.34442      -0.60536
                        -----------------------------------------
Magnitude (a.u.)       :      0.71722
Magnitude (Debye)      :      1.82304

Rotational constants in cm-1:     0.018678     0.010006     0.007060
Rotational constants in MHz :   559.946995   299.972852   211.663037

                             ****ORCA TERMINATED NORMALLY****
TOTAL RUN TIME: 0 days 0 hours 0 minutes 36 seconds 224 msec
