                         Program Version 4.2.1 -  RELEASE  -
|  1> ! wB97X-D3 SP def2-SVP
|  2> %pal
|  3> nprocs 16
|  4> end
|  5>
|  6> * xyz 0 1
|  7> S 	 -40.8894 	 54.1288 	 109.471
|  8> C 	 -42.6192 	 54.1476 	 109.681
|  9> C 	 -43.1722 	 54.4218 	 108.431
| 10> C 	 -42.3093 	 54.743 	 107.346
| 11> C 	 -40.9978 	 54.8322 	 107.795
| 12> H 	 -42.6112 	 54.9104 	 106.343
| 13> C 	 -44.6629 	 54.515 	 108.241
| 14> H 	 -45.0299 	 53.468 	 108.28
| 15> H 	 -44.8675 	 54.8117 	 107.238
| 16> C 	 -45.3179 	 55.4078 	 109.314
| 17> H 	 -45.0912 	 54.9024 	 110.259
| 18> H 	 -44.8642 	 56.3591 	 109.318
| 19> C 	 -46.8043 	 55.5823 	 109.053
| 20> H 	 -47.3097 	 56.1937 	 109.775
| 21> H 	 -46.8826 	 56.0519 	 108.128
| 22> H 	 -47.2831 	 54.5899 	 108.89
| 23> S 	 -38.5872 	 53.9697 	 106.661
| 24> C 	 -37.7147 	 55.0611 	 105.613
| 25> C 	 -38.3179 	 56.282 	 105.502
| 26> C 	 -39.5947 	 56.3279 	 106.196
| 27> C 	 -39.8097 	 55.2131 	 107.021
| 28> H 	 -37.8811 	 56.9796 	 104.818
| 29> C 	 -40.4226 	 57.6145 	 106.236
| 30> H 	 -40.268 	 57.963 	 107.342
| 31> H 	 -41.4882 	 57.3696 	 106.147
| 32> C 	 -40.1831 	 58.7249 	 105.233
| 33> H 	 -40.4862 	 58.3331 	 104.259
| 34> H 	 -39.1366 	 59.0109 	 105.2
| 35> C 	 -40.8479 	 60.0847 	 105.643
| 36> H 	 -41.9152 	 59.9445 	 105.778
| 37> H 	 -40.7911 	 60.7065 	 104.769
| 38> H 	 -40.4308 	 60.5636 	 106.45
| 39> H 	 -43.2329 	 54.0872 	 110.608
| 40> H 	 -36.7558 	 54.8503 	 105.179
| 41> *
| 42>
| 43>                          ****END OF INPUT****

CARTESIAN COORDINATES (ANGSTROEM)
---------------------------------
  S    -40.889400   54.128800  109.471000
  C    -42.619200   54.147600  109.681000
  C    -43.172200   54.421800  108.431000
  C    -42.309300   54.743000  107.346000
  C    -40.997800   54.832200  107.795000
  H    -42.611200   54.910400  106.343000
  C    -44.662900   54.515000  108.241000
  H    -45.029900   53.468000  108.280000
  H    -44.867500   54.811700  107.238000
  C    -45.317900   55.407800  109.314000
  H    -45.091200   54.902400  110.259000
  H    -44.864200   56.359100  109.318000
  C    -46.804300   55.582300  109.053000
  H    -47.309700   56.193700  109.775000
  H    -46.882600   56.051900  108.128000
  H    -47.283100   54.589900  108.890000
  S    -38.587200   53.969700  106.661000
  C    -37.714700   55.061100  105.613000
  C    -38.317900   56.282000  105.502000
  C    -39.594700   56.327900  106.196000
  C    -39.809700   55.213100  107.021000
  H    -37.881100   56.979600  104.818000
  C    -40.422600   57.614500  106.236000
  H    -40.268000   57.963000  107.342000
  H    -41.488200   57.369600  106.147000
  C    -40.183100   58.724900  105.233000
  H    -40.486200   58.333100  104.259000
  H    -39.136600   59.010900  105.200000
  C    -40.847900   60.084700  105.643000
  H    -41.915200   59.944500  105.778000
  H    -40.791100   60.706500  104.769000
  H    -40.430800   60.563600  106.450000
  H    -43.232900   54.087200  110.608000
  H    -36.755800   54.850300  105.179000

 Total Charge           Charge          ....    0
 Multiplicity           Mult            ....    1
 Number of Electrons    NEL             ....  134
 Basis Dimension        Dim             ....  322

ORBITAL ENERGIES
----------------

  NO   OCC          E(Eh)            E(eV)
   0   2.0000     -88.964741     -2420.8537
   1   2.0000     -88.963121     -2420.8096
   2   2.0000     -10.336992      -281.2839
   3   2.0000     -10.328515      -281.0532
   4   2.0000     -10.315892      -280.7097
   5   2.0000     -10.314876      -280.6820
   6   2.0000     -10.310655      -280.5672
   7   2.0000     -10.296982      -280.1951
   8   2.0000     -10.296837      -280.1912
   9   2.0000     -10.295922      -280.1663
  10   2.0000     -10.292611      -280.0762
  11   2.0000     -10.290079      -280.0073
  12   2.0000     -10.285473      -279.8820
  13   2.0000     -10.283817      -279.8369
  14   2.0000     -10.274361      -279.5796
  15   2.0000     -10.272756      -279.5359
  16   2.0000      -8.078363      -219.8234
  17   2.0000      -8.077600      -219.8027
  18   2.0000      -6.037042      -164.2763
  19   2.0000      -6.036159      -164.2522
  20   2.0000      -6.033039      -164.1673
  21   2.0000      -6.032155      -164.1433
  22   2.0000      -6.028979      -164.0569
  23   2.0000      -6.028300      -164.0384
  24   2.0000      -0.999090       -27.1866
  25   2.0000      -0.979876       -26.6638
  26   2.0000      -0.913074       -24.8460
  27   2.0000      -0.906892       -24.6778
  28   2.0000      -0.868681       -23.6380
  29   2.0000      -0.851547       -23.1718
  30   2.0000      -0.845948       -23.0194
  31   2.0000      -0.817580       -22.2475
  32   2.0000      -0.781384       -21.2625
  33   2.0000      -0.764424       -20.8010
  34   2.0000      -0.713286       -19.4095
  35   2.0000      -0.704688       -19.1755
  36   2.0000      -0.694820       -18.9070
  37   2.0000      -0.650186       -17.6924
  38   2.0000      -0.637609       -17.3502
  39   2.0000      -0.616348       -16.7717
  40   2.0000      -0.595760       -16.2115
  41   2.0000      -0.573179       -15.5970
  42   2.0000      -0.571098       -15.5404
  43   2.0000      -0.563436       -15.3319
  44   2.0000      -0.528106       -14.3705
  45   2.0000      -0.524656       -14.2766
  46   2.0000      -0.522372       -14.2145
  47   2.0000      -0.514231       -13.9929
  48   2.0000      -0.508412       -13.8346
  49   2.0000      -0.501567       -13.6483
  50   2.0000      -0.487636       -13.2692
  51   2.0000      -0.481587       -13.1046
  52   2.0000      -0.476220       -12.9586
  53   2.0000      -0.462003       -12.5717
  54   2.0000      -0.454428       -12.3656
  55   2.0000      -0.449440       -12.2299
  56   2.0000      -0.448594       -12.2069
  57   2.0000      -0.437117       -11.8946
  58   2.0000      -0.433406       -11.7936
  59   2.0000      -0.426204       -11.5976
  60   2.0000      -0.420482       -11.4419
  61   2.0000      -0.412188       -11.2162
  62   2.0000      -0.411221       -11.1899
  63   2.0000      -0.346627        -9.4322
  64   2.0000      -0.328153        -8.9295
  65   2.0000      -0.322568        -8.7775
  66   2.0000      -0.290080        -7.8935
  67   0.0000       0.025821         0.7026
  68   0.0000       0.059322         1.6142
  69   0.0000       0.113650         3.0926
  70   0.0000       0.124634         3.3915
  71   0.0000       0.130041         3.5386

MULLIKEN ATOMIC CHARGES
-----------------------
   0 S :    0.101085
   1 C :   -0.131689
   2 C :   -0.118331
   3 C :    0.065573
   4 C :   -0.164609
   5 H :    0.012821
   6 C :    0.060295
   7 H :    0.038439
   8 H :   -0.004722
   9 C :   -0.080811
  10 H :    0.025058
  11 H :    0.027950
  12 C :    0.003165
  13 H :    0.035015
  14 H :    0.007659
  15 H :    0.025853
  16 S :    0.099891
  17 C :   -0.078721
  18 C :   -0.036899
  19 C :   -0.036388
  20 C :   -0.131261
  21 H :    0.019843
  22 C :    0.006819
  23 H :    0.060791
  24 H :    0.024676
  25 C :   -0.087294
  26 H :    0.034219
  27 H :    0.030432
  28 C :   -0.007830
  29 H :    0.021151
  30 H :    0.025528
  31 H :    0.028719
  32 H :    0.073216
  33 H :    0.050356
Sum of atomic charges:    0.0000000

LOEWDIN ATOMIC CHARGES
----------------------
   0 S :    0.381873
   1 C :   -0.215386
   2 C :   -0.063796
   3 C :   -0.052042
   4 C :   -0.166507
   5 H :    0.030420
   6 C :   -0.032422
   7 H :    0.035876
   8 H :    0.016398
   9 C :   -0.031190
  10 H :    0.020183
  11 H :    0.020976
  12 C :   -0.058906
  13 H :    0.024099
  14 H :    0.016972
  15 H :    0.029659
  16 S :    0.392960
  17 C :   -0.176421
  18 C :   -0.076819
  19 C :   -0.049873
  20 C :   -0.201897
  21 H :    0.030603
  22 C :   -0.047077
  23 H :    0.049272
  24 H :    0.028611
  25 C :   -0.040676
  26 H :    0.026049
  27 H :    0.021653
  28 C :   -0.048634
  29 H :    0.023103
  30 H :    0.027591
  31 H :    0.015737
  32 H :    0.042379
  33 H :    0.027231

  Mayer bond orders larger than 0.100000
B(  0-S ,  1-C ) :   1.1248 B(  0-S ,  4-C ) :   1.1464 B(  1-C ,  2-C ) :   1.5944
B(  1-C ,  4-C ) :   0.1035 B(  1-C , 32-H ) :   0.9652 B(  2-C ,  3-C ) :   1.2465
B(  2-C ,  6-C ) :   1.0271 B(  3-C ,  4-C ) :   1.5545 B(  3-C ,  5-H ) :   0.9968
B(  4-C , 20-C ) :   1.0380 B(  6-C ,  7-H ) :   0.9280 B(  6-C ,  8-H ) :   0.9480
B(  6-C ,  9-C ) :   1.0601 B(  9-C , 10-H ) :   0.9507 B(  9-C , 11-H ) :   0.9603
B(  9-C , 12-C ) :   1.0904 B( 12-C , 13-H ) :   0.9731 B( 12-C , 14-H ) :   0.9707
B( 12-C , 15-H ) :   0.9716 B( 16-S , 17-C ) :   1.1568 B( 16-S , 20-C ) :   1.1291
B( 17-C , 18-C ) :   1.6343 B( 17-C , 33-H ) :   0.9617 B( 18-C , 19-C ) :   1.2184
B( 18-C , 21-H ) :   0.9882 B( 19-C , 20-C ) :   1.6061 B( 19-C , 22-C ) :   1.0320
B( 22-C , 23-H ) :   0.9424 B( 22-C , 24-H ) :   0.9304 B( 22-C , 25-C ) :   1.0755
B( 25-C , 26-H ) :   0.9569 B( 25-C , 27-H ) :   0.9476 B( 25-C , 28-C ) :   1.0818
B( 28-C , 29-H ) :   0.9749 B( 28-C , 30-H ) :   0.9724 B( 28-C , 31-H ) :   0.9786

Dispersion correction           -0.013365303
FINAL SINGLE POINT ENERGY     -1339.863701956373

DIPOLE MOMENT
-------------
                                X             Y             Z
Electronic contribution:     22.61053     -20.17165       4.48488
Nuclear contribution   :    -23.08273      20.75892      -4.90240
                        -----------------------------------------
Total Dipole Moment    :     -0.47221       0.58726      -0.41752
                        -----------------------------------------
Magnitude (a.u.)       :      0.86150
Magnitude (Debye)      :      2.18976

Rotational constants in cm-1:     0.017108     0.008226     0.005997
Rotational constants in MHz :   512.882757   246.620204   179.793264

                             ****ORCA TERMINATED NORMALLY****
TOTAL RUN TIME: 0 days 0 hours 0 minutes 29 seconds 377 msec
