                         Program Version 4.2.1 -  RELEASE  -
|  1> ! wB97X-D3 SP def2-SVP
|  2> %pal
|  3> nprocs 16
|  4> end
|  5>
|  6> * xyz 0 1
|  7> S 	 -106.926 	 53.1387 	 122.634
|  8> C 	 -107.86 	 51.7058 	 122.555
|  9> C 	 -107.219 	 50.6914 	 121.833
| 10> C 	 -106.054 	 51.2105 	 121.137
| 11> C 	 -105.863 	 52.5467 	 121.39
| 12> H 	 -105.468 	 50.7114 	 120.387
| 13> C 	 -107.779 	 49.3326 	 121.526
| 14> H 	 -108.74 	 49.3144 	 121.857
| 15> H 	 -107.111 	 48.55 	 121.989
| 16> C 	 -108 	 49.1025 	 120.1
| 17> H 	 -108.552 	 49.941 	 119.737
| 18> H 	 -107.021 	 49.094 	 119.573
| 19> C 	 -108.858 	 47.8332 	 119.836
| 20> H 	 -109.774 	 47.7687 	 120.44
| 21> H 	 -109.206 	 47.8312 	 118.816
| 22> H 	 -108.237 	 46.9576 	 119.766
| 23> S 	 -103.509 	 53.7839 	 121.978
| 24> C 	 -102.589 	 54.5382 	 120.724
| 25> C 	 -103.043 	 54.1548 	 119.491
| 26> C 	 -104.238 	 53.4092 	 119.563
| 27> C 	 -104.673 	 53.2169 	 120.863
| 28> H 	 -102.542 	 54.5327 	 118.606
| 29> C 	 -105.046 	 53.0313 	 118.332
| 30> H 	 -105.132 	 53.8896 	 117.7
| 31> H 	 -106.06 	 52.9983 	 118.683
| 32> C 	 -104.646 	 51.7299 	 117.583
| 33> H 	 -105.453 	 51.4502 	 116.94
| 34> H 	 -104.613 	 50.764 	 118.197
| 35> C 	 -103.376 	 51.9365 	 116.712
| 36> H 	 -103.555 	 52.7966 	 116.174
| 37> H 	 -103.131 	 51.0616 	 116.076
| 38> H 	 -102.533 	 51.9594 	 117.351
| 39> H 	 -108.818 	 51.5617 	 122.998
| 40> H 	 -101.731 	 55.1166 	 120.788
| 41> *
| 42>
| 43>                          ****END OF INPUT****

CARTESIAN COORDINATES (ANGSTROEM)
---------------------------------
  S    -106.926000   53.138700  122.634000
  C    -107.860000   51.705800  122.555000
  C    -107.219000   50.691400  121.833000
  C    -106.054000   51.210500  121.137000
  C    -105.863000   52.546700  121.390000
  H    -105.468000   50.711400  120.387000
  C    -107.779000   49.332600  121.526000
  H    -108.740000   49.314400  121.857000
  H    -107.111000   48.550000  121.989000
  C    -108.000000   49.102500  120.100000
  H    -108.552000   49.941000  119.737000
  H    -107.021000   49.094000  119.573000
  C    -108.858000   47.833200  119.836000
  H    -109.774000   47.768700  120.440000
  H    -109.206000   47.831200  118.816000
  H    -108.237000   46.957600  119.766000
  S    -103.509000   53.783900  121.978000
  C    -102.589000   54.538200  120.724000
  C    -103.043000   54.154800  119.491000
  C    -104.238000   53.409200  119.563000
  C    -104.673000   53.216900  120.863000
  H    -102.542000   54.532700  118.606000
  C    -105.046000   53.031300  118.332000
  H    -105.132000   53.889600  117.700000
  H    -106.060000   52.998300  118.683000
  C    -104.646000   51.729900  117.583000
  H    -105.453000   51.450200  116.940000
  H    -104.613000   50.764000  118.197000
  C    -103.376000   51.936500  116.712000
  H    -103.555000   52.796600  116.174000
  H    -103.131000   51.061600  116.076000
  H    -102.533000   51.959400  117.351000
  H    -108.818000   51.561700  122.998000
  H    -101.731000   55.116600  120.788000

 Total Charge           Charge          ....    0
 Multiplicity           Mult            ....    1
 Number of Electrons    NEL             ....  134
 Basis Dimension        Dim             ....  322

ORBITAL ENERGIES
----------------

  NO   OCC          E(Eh)            E(eV)
   0   2.0000     -88.969431     -2420.9813
   1   2.0000     -88.962096     -2420.7817
   2   2.0000     -10.324967      -280.9566
   3   2.0000     -10.318969      -280.7934
   4   2.0000     -10.312822      -280.6262
   5   2.0000     -10.303703      -280.3780
   6   2.0000     -10.301509      -280.3183
   7   2.0000     -10.294669      -280.1322
   8   2.0000     -10.292475      -280.0725
   9   2.0000     -10.291889      -280.0565
  10   2.0000     -10.285979      -279.8957
  11   2.0000     -10.285498      -279.8826
  12   2.0000     -10.282614      -279.8042
  13   2.0000     -10.280941      -279.7586
  14   2.0000     -10.278991      -279.7056
  15   2.0000     -10.271317      -279.4967
  16   2.0000      -8.084746      -219.9971
  17   2.0000      -8.077946      -219.8121
  18   2.0000      -6.043190      -164.4435
  19   2.0000      -6.039258      -164.3366
  20   2.0000      -6.036338      -164.2571
  21   2.0000      -6.035455      -164.2331
  22   2.0000      -6.032282      -164.1467
  23   2.0000      -6.028784      -164.0515
  24   2.0000      -1.012749       -27.5583
  25   2.0000      -0.990253       -26.9462
  26   2.0000      -0.926538       -25.2124
  27   2.0000      -0.904942       -24.6247
  28   2.0000      -0.873011       -23.7558
  29   2.0000      -0.851560       -23.1721
  30   2.0000      -0.846684       -23.0394
  31   2.0000      -0.817509       -22.2456
  32   2.0000      -0.785037       -21.3619
  33   2.0000      -0.774795       -21.0832
  34   2.0000      -0.710172       -19.3248
  35   2.0000      -0.701416       -19.0865
  36   2.0000      -0.692784       -18.8516
  37   2.0000      -0.660527       -17.9738
  38   2.0000      -0.644451       -17.5364
  39   2.0000      -0.625394       -17.0178
  40   2.0000      -0.593209       -16.1421
  41   2.0000      -0.581295       -15.8178
  42   2.0000      -0.570865       -15.5340
  43   2.0000      -0.554498       -15.0886
  44   2.0000      -0.541593       -14.7375
  45   2.0000      -0.524538       -14.2734
  46   2.0000      -0.516935       -14.0665
  47   2.0000      -0.512839       -13.9551
  48   2.0000      -0.506297       -13.7770
  49   2.0000      -0.500892       -13.6300
  50   2.0000      -0.493716       -13.4347
  51   2.0000      -0.478359       -13.0168
  52   2.0000      -0.475393       -12.9361
  53   2.0000      -0.469078       -12.7643
  54   2.0000      -0.464427       -12.6377
  55   2.0000      -0.446698       -12.1553
  56   2.0000      -0.445343       -12.1184
  57   2.0000      -0.437403       -11.9023
  58   2.0000      -0.431610       -11.7447
  59   2.0000      -0.426650       -11.6097
  60   2.0000      -0.419135       -11.4052
  61   2.0000      -0.417678       -11.3656
  62   2.0000      -0.410220       -11.1627
  63   2.0000      -0.346487        -9.4284
  64   2.0000      -0.329831        -8.9752
  65   2.0000      -0.326898        -8.8954
  66   2.0000      -0.293960        -7.9991
  67   0.0000       0.036761         1.0003
  68   0.0000       0.070448         1.9170
  69   0.0000       0.118417         3.2223
  70   0.0000       0.125909         3.4262
  71   0.0000       0.132831         3.6145

MULLIKEN ATOMIC CHARGES
-----------------------
   0 S :    0.132362
   1 C :   -0.106548
   2 C :   -0.098971
   3 C :    0.036492
   4 C :   -0.155916
   5 H :    0.002084
   6 C :    0.142927
   7 H :   -0.027389
   8 H :    0.047374
   9 C :   -0.113293
  10 H :    0.024114
  11 H :    0.028359
  12 C :   -0.025710
  13 H :    0.040862
  14 H :    0.017445
  15 H :    0.027033
  16 S :    0.118287
  17 C :   -0.062770
  18 C :   -0.048018
  19 C :   -0.026523
  20 C :   -0.168876
  21 H :    0.016184
  22 C :    0.062681
  23 H :    0.018963
  24 H :    0.016578
  25 C :   -0.082955
  26 H :    0.020272
  27 H :    0.033262
  28 C :   -0.010598
  29 H :    0.020350
  30 H :    0.032050
  31 H :    0.028579
  32 H :    0.038503
  33 H :    0.022806
Sum of atomic charges:    0.0000000

LOEWDIN ATOMIC CHARGES
----------------------
   0 S :    0.426054
   1 C :   -0.204886
   2 C :   -0.055178
   3 C :   -0.048884
   4 C :   -0.203874
   5 H :    0.027285
   6 C :   -0.033009
   7 H :    0.014808
   8 H :    0.040775
   9 C :   -0.039012
  10 H :    0.022194
  11 H :    0.022646
  12 C :   -0.066652
  13 H :    0.029544
  14 H :    0.026511
  15 H :    0.025998
  16 S :    0.429547
  17 C :   -0.187501
  18 C :   -0.070937
  19 C :   -0.064943
  20 C :   -0.206692
  21 H :    0.032184
  22 C :   -0.032214
  23 H :    0.028990
  24 H :    0.031197
  25 C :   -0.040710
  26 H :    0.019257
  27 H :    0.027162
  28 C :   -0.056473
  29 H :    0.014397
  30 H :    0.031099
  31 H :    0.021302
  32 H :    0.023771
  33 H :    0.016244

  Mayer bond orders larger than 0.100000
B(  0-S ,  1-C ) :   1.1455 B(  0-S ,  4-C ) :   1.1481 B(  1-C ,  2-C ) :   1.6064
B(  1-C , 32-H ) :   0.9691 B(  2-C ,  3-C ) :   1.2184 B(  2-C ,  6-C ) :   1.0429
B(  3-C ,  4-C ) :   1.5766 B(  3-C ,  5-H ) :   0.9954 B(  4-C , 20-C ) :   1.0231
B(  6-C ,  7-H ) :   0.9298 B(  6-C ,  8-H ) :   0.9247 B(  6-C ,  9-C ) :   1.0747
B(  9-C , 10-H ) :   0.9561 B(  9-C , 11-H ) :   0.9465 B(  9-C , 12-C ) :   1.0934
B( 12-C , 13-H ) :   0.9725 B( 12-C , 14-H ) :   0.9699 B( 12-C , 15-H ) :   0.9720
B( 16-S , 17-C ) :   1.1528 B( 16-S , 20-C ) :   1.1655 B( 17-C , 18-C ) :   1.6103
B( 17-C , 33-H ) :   0.9733 B( 18-C , 19-C ) :   1.2523 B( 18-C , 21-H ) :   0.9915
B( 19-C , 20-C ) :   1.5980 B( 19-C , 22-C ) :   1.0310 B( 22-C , 23-H ) :   0.9423
B( 22-C , 24-H ) :   0.9254 B( 22-C , 25-C ) :   1.0657 B( 25-C , 26-H ) :   0.9536
B( 25-C , 27-H ) :   0.9528 B( 25-C , 28-C ) :   1.0717 B( 28-C , 29-H ) :   0.9760
B( 28-C , 30-H ) :   0.9716 B( 28-C , 31-H ) :   0.9769

Dispersion correction           -0.014787139
FINAL SINGLE POINT ENERGY     -1339.860016161387

DIPOLE MOMENT
-------------
                                X             Y             Z
Electronic contribution:      6.73734      20.23972      22.92511
Nuclear contribution   :     -6.97510     -20.65599     -23.51648
                        -----------------------------------------
Total Dipole Moment    :     -0.23776      -0.41628      -0.59136
                        -----------------------------------------
Magnitude (a.u.)       :      0.76127
Magnitude (Debye)      :      1.93499

Rotational constants in cm-1:     0.017698     0.009665     0.006712
Rotational constants in MHz :   530.558251   289.737738   201.205772

                             ****ORCA TERMINATED NORMALLY****
TOTAL RUN TIME: 0 days 0 hours 0 minutes 34 seconds 777 msec
