                         Program Version 4.2.1 -  RELEASE  -
|  1> ! wB97X-D3 SP def2-SVP
|  2> %pal
|  3> nprocs 16
|  4> end
|  5>
|  6> * xyz 0 1
|  7> S 	 36.402 	 29.6367 	 94.8005
|  8> C 	 35.7505 	 29.9126 	 93.2516
|  9> C 	 35.3526 	 28.719 	 92.7273
| 10> C 	 35.3267 	 27.6639 	 93.6712
| 11> C 	 35.8335 	 28.0434 	 94.8891
| 12> H 	 34.95 	 26.6688 	 93.5271
| 13> C 	 34.921 	 28.4573 	 91.2995
| 14> H 	 35.4882 	 27.6123 	 90.8758
| 15> H 	 35.1556 	 29.384 	 90.7203
| 16> C 	 33.4238 	 28.2482 	 90.9298
| 17> H 	 32.8518 	 29.0988 	 91.2199
| 18> H 	 33.2746 	 28.0797 	 89.8603
| 19> C 	 32.8797 	 26.8412 	 91.3318
| 20> H 	 31.8046 	 26.7223 	 91.2591
| 21> H 	 33.4196 	 25.9263 	 90.9065
| 22> H 	 33.0841 	 26.7855 	 92.3613
| 23> S 	 36.1306 	 28.1571 	 97.6153
| 24> C 	 36.1523 	 26.7457 	 98.5942
| 25> C 	 35.8513 	 25.6388 	 97.8164
| 26> C 	 35.8377 	 25.9172 	 96.4598
| 27> C 	 35.8698 	 27.2758 	 96.1342
| 28> H 	 35.7584 	 24.667 	 98.3621
| 29> C 	 35.8354 	 24.753 	 95.4427
| 30> H 	 36.8169 	 24.3944 	 95.5453
| 31> H 	 35.6946 	 25.0146 	 94.4344
| 32> C 	 34.9972 	 23.6323 	 95.7394
| 33> H 	 34.0074 	 24.0358 	 96.1321
| 34> H 	 35.3644 	 23.1803 	 96.6559
| 35> C 	 34.8306 	 22.5351 	 94.6831
| 36> H 	 35.8901 	 22.2818 	 94.5588
| 37> H 	 34.375 	 22.9181 	 93.7744
| 38> H 	 34.2936 	 21.8172 	 95.1558
| 39> H 	 35.7527 	 30.7599 	 92.6485
| 40> H 	 36.3156 	 26.6648 	 99.5967
| 41> *
| 42>
| 43>                          ****END OF INPUT****

CARTESIAN COORDINATES (ANGSTROEM)
---------------------------------
  S     36.402000   29.636700   94.800500
  C     35.750500   29.912600   93.251600
  C     35.352600   28.719000   92.727300
  C     35.326700   27.663900   93.671200
  C     35.833500   28.043400   94.889100
  H     34.950000   26.668800   93.527100
  C     34.921000   28.457300   91.299500
  H     35.488200   27.612300   90.875800
  H     35.155600   29.384000   90.720300
  C     33.423800   28.248200   90.929800
  H     32.851800   29.098800   91.219900
  H     33.274600   28.079700   89.860300
  C     32.879700   26.841200   91.331800
  H     31.804600   26.722300   91.259100
  H     33.419600   25.926300   90.906500
  H     33.084100   26.785500   92.361300
  S     36.130600   28.157100   97.615300
  C     36.152300   26.745700   98.594200
  C     35.851300   25.638800   97.816400
  C     35.837700   25.917200   96.459800
  C     35.869800   27.275800   96.134200
  H     35.758400   24.667000   98.362100
  C     35.835400   24.753000   95.442700
  H     36.816900   24.394400   95.545300
  H     35.694600   25.014600   94.434400
  C     34.997200   23.632300   95.739400
  H     34.007400   24.035800   96.132100
  H     35.364400   23.180300   96.655900
  C     34.830600   22.535100   94.683100
  H     35.890100   22.281800   94.558800
  H     34.375000   22.918100   93.774400
  H     34.293600   21.817200   95.155800
  H     35.752700   30.759900   92.648500
  H     36.315600   26.664800   99.596700

 Total Charge           Charge          ....    0
 Multiplicity           Mult            ....    1
 Number of Electrons    NEL             ....  134
 Basis Dimension        Dim             ....  322

ORBITAL ENERGIES
----------------

  NO   OCC          E(Eh)            E(eV)
   0   2.0000     -88.966593     -2420.9041
   1   2.0000     -88.966337     -2420.8971
   2   2.0000     -10.329348      -281.0758
   3   2.0000     -10.327122      -281.0153
   4   2.0000     -10.311067      -280.5784
   5   2.0000     -10.304975      -280.4126
   6   2.0000     -10.304831      -280.4087
   7   2.0000     -10.296605      -280.1849
   8   2.0000     -10.295888      -280.1654
   9   2.0000     -10.294226      -280.1201
  10   2.0000     -10.287303      -279.9317
  11   2.0000     -10.286663      -279.9143
  12   2.0000     -10.278810      -279.7007
  13   2.0000     -10.277709      -279.6707
  14   2.0000     -10.277255      -279.6583
  15   2.0000     -10.275506      -279.6107
  16   2.0000      -8.083059      -219.9512
  17   2.0000      -8.081625      -219.9122
  18   2.0000      -6.041482      -164.3971
  19   2.0000      -6.040036      -164.3577
  20   2.0000      -6.037334      -164.2842
  21   2.0000      -6.035900      -164.2452
  22   2.0000      -6.033765      -164.1871
  23   2.0000      -6.032601      -164.1554
  24   2.0000      -1.021296       -27.7909
  25   2.0000      -0.998373       -27.1671
  26   2.0000      -0.928499       -25.2657
  27   2.0000      -0.909400       -24.7460
  28   2.0000      -0.875423       -23.8215
  29   2.0000      -0.858058       -23.3490
  30   2.0000      -0.846730       -23.0407
  31   2.0000      -0.821850       -22.3637
  32   2.0000      -0.792175       -21.5562
  33   2.0000      -0.778929       -21.1957
  34   2.0000      -0.710297       -19.3282
  35   2.0000      -0.704856       -19.1801
  36   2.0000      -0.697787       -18.9878
  37   2.0000      -0.658357       -17.9148
  38   2.0000      -0.642696       -17.4886
  39   2.0000      -0.624908       -17.0046
  40   2.0000      -0.607878       -16.5412
  41   2.0000      -0.580339       -15.7918
  42   2.0000      -0.577683       -15.7195
  43   2.0000      -0.552647       -15.0383
  44   2.0000      -0.542594       -14.7647
  45   2.0000      -0.538004       -14.6398
  46   2.0000      -0.519823       -14.1451
  47   2.0000      -0.516408       -14.0522
  48   2.0000      -0.515103       -14.0167
  49   2.0000      -0.508729       -13.8432
  50   2.0000      -0.494827       -13.4649
  51   2.0000      -0.484941       -13.1959
  52   2.0000      -0.480688       -13.0802
  53   2.0000      -0.475004       -12.9255
  54   2.0000      -0.464490       -12.6394
  55   2.0000      -0.453504       -12.3405
  56   2.0000      -0.447202       -12.1690
  57   2.0000      -0.439867       -11.9694
  58   2.0000      -0.435776       -11.8581
  59   2.0000      -0.425986       -11.5917
  60   2.0000      -0.415800       -11.3145
  61   2.0000      -0.398489       -10.8434
  62   2.0000      -0.393654       -10.7119
  63   2.0000      -0.362777        -9.8717
  64   2.0000      -0.335839        -9.1387
  65   2.0000      -0.329291        -8.9605
  66   2.0000      -0.284697        -7.7470
  67   0.0000       0.021678         0.5899
  68   0.0000       0.091097         2.4789
  69   0.0000       0.105633         2.8744
  70   0.0000       0.120840         3.2882
  71   0.0000       0.130317         3.5461

MULLIKEN ATOMIC CHARGES
-----------------------
   0 S :    0.121024
   1 C :   -0.078779
   2 C :   -0.076140
   3 C :   -0.012186
   4 C :   -0.102712
   5 H :    0.005398
   6 C :    0.032376
   7 H :    0.038029
   8 H :    0.021485
   9 C :   -0.051973
  10 H :    0.031081
  11 H :    0.034546
  12 C :   -0.075889
  13 H :    0.037140
  14 H :    0.039264
  15 H :    0.008652
  16 S :    0.103497
  17 C :   -0.045466
  18 C :   -0.084129
  19 C :   -0.050363
  20 C :   -0.128769
  21 H :    0.040571
  22 C :    0.175113
  23 H :    0.013192
  24 H :   -0.011654
  25 C :   -0.185994
  26 H :    0.021139
  27 H :    0.014737
  28 C :    0.048868
  29 H :    0.025283
  30 H :    0.037865
  31 H :    0.019688
  32 H :    0.016068
  33 H :    0.019038
Sum of atomic charges:    0.0000000

LOEWDIN ATOMIC CHARGES
----------------------
   0 S :    0.447305
   1 C :   -0.203976
   2 C :   -0.064692
   3 C :   -0.071078
   4 C :   -0.201035
   5 H :    0.024508
   6 C :   -0.034880
   7 H :    0.034893
   8 H :    0.033529
   9 C :   -0.037505
  10 H :    0.021855
  11 H :    0.028658
  12 C :   -0.076804
  13 H :    0.026366
  14 H :    0.033353
  15 H :    0.010716
  16 S :    0.426270
  17 C :   -0.177615
  18 C :   -0.080273
  19 C :   -0.052090
  20 C :   -0.200032
  21 H :    0.042110
  22 C :   -0.027868
  23 H :    0.031784
  24 H :    0.017217
  25 C :   -0.052614
  26 H :    0.020900
  27 H :    0.016276
  28 C :   -0.041547
  29 H :    0.031225
  30 H :    0.026126
  31 H :    0.016271
  32 H :    0.020107
  33 H :    0.012539

  Mayer bond orders larger than 0.100000
B(  0-S ,  1-C ) :   1.1370 B(  0-S ,  4-C ) :   1.1721 B(  1-C ,  2-C ) :   1.5981
B(  1-C , 32-H ) :   0.9745 B(  2-C ,  3-C ) :   1.2479 B(  2-C ,  6-C ) :   1.0301
B(  3-C ,  4-C ) :   1.5525 B(  3-C ,  5-H ) :   0.9903 B(  4-C , 20-C ) :   1.0719
B(  6-C ,  7-H ) :   0.9420 B(  6-C ,  8-H ) :   0.9369 B(  6-C ,  9-C ) :   1.0783
B(  9-C , 10-H ) :   0.9569 B(  9-C , 11-H ) :   0.9599 B(  9-C , 12-C ) :   1.0563
B( 12-C , 13-H ) :   0.9707 B( 12-C , 14-H ) :   0.9757 B( 12-C , 15-H ) :   0.9744
B( 16-S , 17-C ) :   1.1817 B( 16-S , 20-C ) :   1.1448 B( 17-C , 18-C ) :   1.5698
B( 17-C , 20-C ) :   0.1089 B( 17-C , 33-H ) :   0.9767 B( 18-C , 19-C ) :   1.2853
B( 18-C , 21-H ) :   0.9841 B( 19-C , 20-C ) :   1.5580 B( 19-C , 22-C ) :   1.0170
B( 22-C , 23-H ) :   0.9052 B( 22-C , 24-H ) :   0.9387 B( 22-C , 25-C ) :   1.0749
B( 25-C , 26-H ) :   0.9560 B( 25-C , 27-H ) :   0.9407 B( 25-C , 28-C ) :   1.0731
B( 28-C , 29-H ) :   0.9721 B( 28-C , 30-H ) :   0.9746 B( 28-C , 31-H ) :   0.9695

Dispersion correction           -0.013774949
FINAL SINGLE POINT ENERGY     -1339.840256153918

DIPOLE MOMENT
-------------
                                X             Y             Z
Electronic contribution:     12.68686      22.18879      18.86990
Nuclear contribution   :    -12.80420     -22.76325     -19.10316
                        -----------------------------------------
Total Dipole Moment    :     -0.11734      -0.57445      -0.23326
                        -----------------------------------------
Magnitude (a.u.)       :      0.63101
Magnitude (Debye)      :      1.60391

Rotational constants in cm-1:     0.015985     0.010256     0.006589
Rotational constants in MHz :   479.209055   307.454764   197.519200

                             ****ORCA TERMINATED NORMALLY****
TOTAL RUN TIME: 0 days 0 hours 0 minutes 30 seconds 634 msec
