                         Program Version 4.2.1 -  RELEASE  -
|  1> ! wB97X-D3 SP def2-SVP
|  2> %pal
|  3> nprocs 16
|  4> end
|  5>
|  6> * xyz 0 1
|  7> S 	 -45.0578 	 26.2433 	 85.552
|  8> C 	 -45.9773 	 25.5359 	 86.8161
|  9> C 	 -45.2362 	 24.476 	 87.3318
| 10> C 	 -43.9599 	 24.3148 	 86.7307
| 11> C 	 -43.6642 	 25.1984 	 85.7829
| 12> H 	 -43.1889 	 23.5351 	 86.843
| 13> C 	 -45.7212 	 23.4354 	 88.3339
| 14> H 	 -46.1485 	 22.5014 	 87.8205
| 15> H 	 -46.5456 	 23.8679 	 88.8518
| 16> C 	 -44.587 	 22.958 	 89.3138
| 17> H 	 -45.1328 	 22.3 	 89.9621
| 18> H 	 -43.8202 	 22.41 	 88.8197
| 19> C 	 -43.9926 	 23.8997 	 90.316
| 20> H 	 -43.2744 	 24.6035 	 89.8909
| 21> H 	 -44.7741 	 24.5516 	 90.6507
| 22> H 	 -43.4256 	 23.3911 	 91.0933
| 23> S 	 -42.9578 	 25.4472 	 83.1582
| 24> C 	 -41.2531 	 25.2962 	 82.7303
| 25> C 	 -40.454 	 25.0988 	 83.8408
| 26> C 	 -41.2078 	 24.969 	 85.0773
| 27> C 	 -42.5536 	 25.1886 	 84.8862
| 28> H 	 -39.3451 	 24.9932 	 83.7558
| 29> C 	 -40.6299 	 24.7266 	 86.4852
| 30> H 	 -41.5128 	 24.8427 	 87.1098
| 31> H 	 -39.8499 	 25.3596 	 86.8242
| 32> C 	 -40.0399 	 23.3176 	 86.6035
| 33> H 	 -39.2383 	 23.2807 	 85.8081
| 34> H 	 -40.7133 	 22.4897 	 86.3484
| 35> C 	 -39.3422 	 23.2682 	 87.9741
| 36> H 	 -38.3772 	 23.7999 	 87.8832
| 37> H 	 -39.1524 	 22.1992 	 88.272
| 38> H 	 -39.9297 	 23.704 	 88.7873
| 39> H 	 -46.8879 	 25.9344 	 87.2606
| 40> H 	 -40.7227 	 25.1941 	 81.8138
| 41> *
| 42>
| 43>                          ****END OF INPUT****

CARTESIAN COORDINATES (ANGSTROEM)
---------------------------------
  S    -45.057800   26.243300   85.552000
  C    -45.977300   25.535900   86.816100
  C    -45.236200   24.476000   87.331800
  C    -43.959900   24.314800   86.730700
  C    -43.664200   25.198400   85.782900
  H    -43.188900   23.535100   86.843000
  C    -45.721200   23.435400   88.333900
  H    -46.148500   22.501400   87.820500
  H    -46.545600   23.867900   88.851800
  C    -44.587000   22.958000   89.313800
  H    -45.132800   22.300000   89.962100
  H    -43.820200   22.410000   88.819700
  C    -43.992600   23.899700   90.316000
  H    -43.274400   24.603500   89.890900
  H    -44.774100   24.551600   90.650700
  H    -43.425600   23.391100   91.093300
  S    -42.957800   25.447200   83.158200
  C    -41.253100   25.296200   82.730300
  C    -40.454000   25.098800   83.840800
  C    -41.207800   24.969000   85.077300
  C    -42.553600   25.188600   84.886200
  H    -39.345100   24.993200   83.755800
  C    -40.629900   24.726600   86.485200
  H    -41.512800   24.842700   87.109800
  H    -39.849900   25.359600   86.824200
  C    -40.039900   23.317600   86.603500
  H    -39.238300   23.280700   85.808100
  H    -40.713300   22.489700   86.348400
  C    -39.342200   23.268200   87.974100
  H    -38.377200   23.799900   87.883200
  H    -39.152400   22.199200   88.272000
  H    -39.929700   23.704000   88.787300
  H    -46.887900   25.934400   87.260600
  H    -40.722700   25.194100   81.813800

 Total Charge           Charge          ....    0
 Multiplicity           Mult            ....    1
 Number of Electrons    NEL             ....  134
 Basis Dimension        Dim             ....  322

ORBITAL ENERGIES
----------------

  NO   OCC          E(Eh)            E(eV)
   0   2.0000     -88.968444     -2420.9545
   1   2.0000     -88.962776     -2420.8002
   2   2.0000     -10.328182      -281.0441
   3   2.0000     -10.323164      -280.9076
   4   2.0000     -10.316904      -280.7372
   5   2.0000     -10.316027      -280.7134
   6   2.0000     -10.305980      -280.4400
   7   2.0000     -10.301637      -280.3218
   8   2.0000     -10.299719      -280.2696
   9   2.0000     -10.298308      -280.2312
  10   2.0000     -10.292747      -280.0799
  11   2.0000     -10.290051      -280.0065
  12   2.0000     -10.288296      -279.9588
  13   2.0000     -10.286114      -279.8994
  14   2.0000     -10.281389      -279.7708
  15   2.0000     -10.272309      -279.5237
  16   2.0000      -8.082073      -219.9244
  17   2.0000      -8.078190      -219.8187
  18   2.0000      -6.040872      -164.3805
  19   2.0000      -6.036827      -164.2704
  20   2.0000      -6.036795      -164.2696
  21   2.0000      -6.032469      -164.1518
  22   2.0000      -6.032454      -164.1514
  23   2.0000      -6.028922      -164.0553
  24   2.0000      -1.013887       -27.5893
  25   2.0000      -0.983145       -26.7527
  26   2.0000      -0.913290       -24.8519
  27   2.0000      -0.910144       -24.7663
  28   2.0000      -0.879185       -23.9238
  29   2.0000      -0.852278       -23.1917
  30   2.0000      -0.842788       -22.9334
  31   2.0000      -0.821135       -22.3442
  32   2.0000      -0.780987       -21.2517
  33   2.0000      -0.769819       -20.9478
  34   2.0000      -0.711185       -19.3523
  35   2.0000      -0.699489       -19.0341
  36   2.0000      -0.695646       -18.9295
  37   2.0000      -0.658762       -17.9258
  38   2.0000      -0.646658       -17.5965
  39   2.0000      -0.623621       -16.9696
  40   2.0000      -0.594320       -16.1723
  41   2.0000      -0.571670       -15.5559
  42   2.0000      -0.564439       -15.3592
  43   2.0000      -0.554639       -15.0925
  44   2.0000      -0.533927       -14.5289
  45   2.0000      -0.524264       -14.2659
  46   2.0000      -0.522456       -14.2167
  47   2.0000      -0.516357       -14.0508
  48   2.0000      -0.506998       -13.7961
  49   2.0000      -0.502239       -13.6666
  50   2.0000      -0.491161       -13.3652
  51   2.0000      -0.488705       -13.2983
  52   2.0000      -0.470034       -12.7903
  53   2.0000      -0.465106       -12.6562
  54   2.0000      -0.452688       -12.3183
  55   2.0000      -0.452531       -12.3140
  56   2.0000      -0.446559       -12.1515
  57   2.0000      -0.441807       -12.0222
  58   2.0000      -0.430595       -11.7171
  59   2.0000      -0.428293       -11.6544
  60   2.0000      -0.420146       -11.4328
  61   2.0000      -0.413424       -11.2498
  62   2.0000      -0.401234       -10.9181
  63   2.0000      -0.361337        -9.8325
  64   2.0000      -0.332044        -9.0354
  65   2.0000      -0.327549        -8.9131
  66   2.0000      -0.288657        -7.8548
  67   0.0000       0.028845         0.7849
  68   0.0000       0.069461         1.8901
  69   0.0000       0.110391         3.0039
  70   0.0000       0.118993         3.2380
  71   0.0000       0.122793         3.3414

MULLIKEN ATOMIC CHARGES
-----------------------
   0 S :    0.099619
   1 C :   -0.113516
   2 C :   -0.090843
   3 C :    0.004689
   4 C :   -0.143314
   5 H :    0.020097
   6 C :    0.068775
   7 H :    0.060099
   8 H :    0.003093
   9 C :   -0.084477
  10 H :    0.020028
  11 H :    0.026987
  12 C :   -0.029500
  13 H :    0.021135
  14 H :    0.020251
  15 H :    0.038732
  16 S :    0.108202
  17 C :   -0.059439
  18 C :   -0.066176
  19 C :   -0.039635
  20 C :   -0.143613
  21 H :    0.035939
  22 C :    0.076717
  23 H :    0.024458
  24 H :    0.021707
  25 C :   -0.119135
  26 H :    0.031632
  27 H :    0.039401
  28 C :   -0.052682
  29 H :    0.042785
  30 H :    0.039518
  31 H :    0.036765
  32 H :    0.057990
  33 H :    0.043712
Sum of atomic charges:    0.0000000

LOEWDIN ATOMIC CHARGES
----------------------
   0 S :    0.410184
   1 C :   -0.209095
   2 C :   -0.069370
   3 C :   -0.073118
   4 C :   -0.190566
   5 H :    0.038443
   6 C :   -0.028157
   7 H :    0.046706
   8 H :    0.020500
   9 C :   -0.043072
  10 H :    0.025368
  11 H :    0.016790
  12 C :   -0.064665
  13 H :    0.020917
  14 H :    0.024261
  15 H :    0.029685
  16 S :    0.383120
  17 C :   -0.183479
  18 C :   -0.073521
  19 C :   -0.053822
  20 C :   -0.178172
  21 H :    0.037139
  22 C :   -0.025557
  23 H :    0.027500
  24 H :    0.026956
  25 C :   -0.045159
  26 H :    0.027266
  27 H :    0.021600
  28 C :   -0.070849
  29 H :    0.030660
  30 H :    0.030285
  31 H :    0.024273
  32 H :    0.036259
  33 H :    0.030692

  Mayer bond orders larger than 0.100000
B(  0-S ,  1-C ) :   1.1413 B(  0-S ,  4-C ) :   1.1347 B(  1-C ,  2-C ) :   1.5949
B(  1-C , 32-H ) :   0.9711 B(  2-C ,  3-C ) :   1.2287 B(  2-C ,  6-C ) :   1.0265
B(  3-C ,  4-C ) :   1.5928 B(  3-C ,  5-H ) :   0.9855 B(  4-C , 20-C ) :   1.0576
B(  6-C ,  7-H ) :   0.9401 B(  6-C ,  8-H ) :   0.9358 B(  6-C ,  9-C ) :   1.0772
B(  9-C , 10-H ) :   0.9535 B(  9-C , 11-H ) :   0.9521 B(  9-C , 12-C ) :   1.0833
B( 12-C , 13-H ) :   0.9693 B( 12-C , 14-H ) :   0.9707 B( 12-C , 15-H ) :   0.9737
B( 16-S , 17-C ) :   1.1261 B( 16-S , 20-C ) :   1.1087 B( 17-C , 18-C ) :   1.6580
B( 17-C , 33-H ) :   0.9646 B( 18-C , 19-C ) :   1.2057 B( 18-C , 21-H ) :   0.9768
B( 19-C , 20-C ) :   1.6369 B( 19-C , 22-C ) :   1.0298 B( 22-C , 23-H ) :   0.9312
B( 22-C , 24-H ) :   0.9412 B( 22-C , 25-C ) :   1.0469 B( 25-C , 26-H ) :   0.9602
B( 25-C , 27-H ) :   0.9583 B( 25-C , 28-C ) :   1.0691 B( 28-C , 29-H ) :   0.9729
B( 28-C , 30-H ) :   0.9744 B( 28-C , 31-H ) :   0.9743

Dispersion correction           -0.014680571
FINAL SINGLE POINT ENERGY     -1339.868663781626

DIPOLE MOMENT
-------------
                                X             Y             Z
Electronic contribution:    -11.74922      14.80960     -25.97889
Nuclear contribution   :     12.08283     -15.29356      26.48089
                        -----------------------------------------
Total Dipole Moment    :      0.33361      -0.48396       0.50200
                        -----------------------------------------
Magnitude (a.u.)       :      0.77299
Magnitude (Debye)      :      1.96480

Rotational constants in cm-1:     0.016361     0.011088     0.007036
Rotational constants in MHz :   490.478594   332.407723   210.936187

                             ****ORCA TERMINATED NORMALLY****
TOTAL RUN TIME: 0 days 0 hours 0 minutes 31 seconds 350 msec
