                         Program Version 4.2.1 -  RELEASE  -
|  1> ! wB97X-D3 SP def2-SVP
|  2> %pal
|  3> nprocs 16
|  4> end
|  5>
|  6> * xyz 0 1
|  7> S 	 -25.5333 	 -2.69458 	 100.664
|  8> C 	 -25.4624 	 -3.113 	 102.377
|  9> C 	 -26.5786 	 -2.89758 	 103.1
| 10> C 	 -27.5681 	 -2.21062 	 102.312
| 11> C 	 -27.1387 	 -1.9784 	 101.036
| 12> H 	 -28.4991 	 -1.9155 	 102.713
| 13> C 	 -26.7532 	 -3.19593 	 104.571
| 14> H 	 -27.7673 	 -2.80136 	 104.842
| 15> H 	 -25.984 	 -2.6997 	 105.154
| 16> C 	 -26.6734 	 -4.67508 	 104.901
| 17> H 	 -25.6635 	 -4.9547 	 104.552
| 18> H 	 -26.566 	 -4.71833 	 105.93
| 19> C 	 -27.7913 	 -5.63769 	 104.317
| 20> H 	 -27.8383 	 -5.62781 	 103.228
| 21> H 	 -27.7086 	 -6.69163 	 104.686
| 22> H 	 -28.7502 	 -5.29655 	 104.671
| 23> S 	 -27.3048 	 -0.0524112 	 99.1093
| 24> C 	 -28.7481 	 0.0568985 	 98.1438
| 25> C 	 -29.6858 	 -0.922931 	 98.535
| 26> C 	 -29.2259 	 -1.80533 	 99.4937
| 27> C 	 -27.9634 	 -1.48604 	 99.9402
| 28> H 	 -30.6536 	 -0.950106 	 98.0309
| 29> C 	 -30.2274 	 -2.90519 	 99.9109
| 30> H 	 -29.7076 	 -3.42694 	 100.669
| 31> H 	 -30.2794 	 -3.62736 	 99.1008
| 32> C 	 -31.5559 	 -2.45754 	 100.429
| 33> H 	 -32.0778 	 -1.88927 	 99.7235
| 34> H 	 -31.3991 	 -1.73375 	 101.213
| 35> C 	 -32.5281 	 -3.55677 	 100.778
| 36> H 	 -33.0908 	 -3.21229 	 101.574
| 37> H 	 -31.9557 	 -4.41091 	 101.191
| 38> H 	 -32.9202 	 -4.10899 	 99.8672
| 39> H 	 -24.5495 	 -3.39021 	 102.89
| 40> H 	 -28.8986 	 0.683016 	 97.2737
| 41> *
| 42>
| 43>                          ****END OF INPUT****

CARTESIAN COORDINATES (ANGSTROEM)
---------------------------------
  S    -25.533300   -2.694580  100.664000
  C    -25.462400   -3.113000  102.377000
  C    -26.578600   -2.897580  103.100000
  C    -27.568100   -2.210620  102.312000
  C    -27.138700   -1.978400  101.036000
  H    -28.499100   -1.915500  102.713000
  C    -26.753200   -3.195930  104.571000
  H    -27.767300   -2.801360  104.842000
  H    -25.984000   -2.699700  105.154000
  C    -26.673400   -4.675080  104.901000
  H    -25.663500   -4.954700  104.552000
  H    -26.566000   -4.718330  105.930000
  C    -27.791300   -5.637690  104.317000
  H    -27.838300   -5.627810  103.228000
  H    -27.708600   -6.691630  104.686000
  H    -28.750200   -5.296550  104.671000
  S    -27.304800   -0.052411   99.109300
  C    -28.748100    0.056898   98.143800
  C    -29.685800   -0.922931   98.535000
  C    -29.225900   -1.805330   99.493700
  C    -27.963400   -1.486040   99.940200
  H    -30.653600   -0.950106   98.030900
  C    -30.227400   -2.905190   99.910900
  H    -29.707600   -3.426940  100.669000
  H    -30.279400   -3.627360   99.100800
  C    -31.555900   -2.457540  100.429000
  H    -32.077800   -1.889270   99.723500
  H    -31.399100   -1.733750  101.213000
  C    -32.528100   -3.556770  100.778000
  H    -33.090800   -3.212290  101.574000
  H    -31.955700   -4.410910  101.191000
  H    -32.920200   -4.108990   99.867200
  H    -24.549500   -3.390210  102.890000
  H    -28.898600    0.683016   97.273700

 Total Charge           Charge          ....    0
 Multiplicity           Mult            ....    1
 Number of Electrons    NEL             ....  134
 Basis Dimension        Dim             ....  322

ORBITAL ENERGIES
----------------

  NO   OCC          E(Eh)            E(eV)
   0   2.0000     -88.966545     -2420.9028
   1   2.0000     -88.964883     -2420.8575
   2   2.0000     -10.327912      -281.0368
   3   2.0000     -10.323963      -280.9293
   4   2.0000     -10.316471      -280.7254
   5   2.0000     -10.307974      -280.4942
   6   2.0000     -10.298536      -280.2374
   7   2.0000     -10.295109      -280.1442
   8   2.0000     -10.293728      -280.1066
   9   2.0000     -10.292111      -280.0626
  10   2.0000     -10.287759      -279.9441
  11   2.0000     -10.286088      -279.8987
  12   2.0000     -10.285585      -279.8850
  13   2.0000     -10.284352      -279.8514
  14   2.0000     -10.278910      -279.7034
  15   2.0000     -10.277153      -279.6556
  16   2.0000      -8.080515      -219.8820
  17   2.0000      -8.079271      -219.8481
  18   2.0000      -6.039060      -164.3312
  19   2.0000      -6.037673      -164.2934
  20   2.0000      -6.035479      -164.2337
  21   2.0000      -6.033753      -164.1868
  22   2.0000      -6.030943      -164.1103
  23   2.0000      -6.030235      -164.0910
  24   2.0000      -1.003637       -27.3104
  25   2.0000      -0.982246       -26.7283
  26   2.0000      -0.917923       -24.9779
  27   2.0000      -0.911367       -24.7995
  28   2.0000      -0.862697       -23.4752
  29   2.0000      -0.857329       -23.3291
  30   2.0000      -0.845284       -23.0013
  31   2.0000      -0.808461       -21.9993
  32   2.0000      -0.786966       -21.4144
  33   2.0000      -0.775537       -21.1034
  34   2.0000      -0.709454       -19.3052
  35   2.0000      -0.708888       -19.2898
  36   2.0000      -0.696842       -18.9620
  37   2.0000      -0.661490       -18.0001
  38   2.0000      -0.636356       -17.3161
  39   2.0000      -0.615747       -16.7553
  40   2.0000      -0.595961       -16.2169
  41   2.0000      -0.573318       -15.6008
  42   2.0000      -0.569538       -15.4979
  43   2.0000      -0.551359       -15.0033
  44   2.0000      -0.539220       -14.6729
  45   2.0000      -0.537457       -14.6250
  46   2.0000      -0.513784       -13.9808
  47   2.0000      -0.507634       -13.8134
  48   2.0000      -0.502863       -13.6836
  49   2.0000      -0.492714       -13.4074
  50   2.0000      -0.491227       -13.3670
  51   2.0000      -0.474480       -12.9113
  52   2.0000      -0.471659       -12.8345
  53   2.0000      -0.464158       -12.6304
  54   2.0000      -0.459518       -12.5041
  55   2.0000      -0.451154       -12.2765
  56   2.0000      -0.444474       -12.0947
  57   2.0000      -0.439264       -11.9530
  58   2.0000      -0.437995       -11.9185
  59   2.0000      -0.428262       -11.6536
  60   2.0000      -0.419057       -11.4031
  61   2.0000      -0.417292       -11.3551
  62   2.0000      -0.408624       -11.1192
  63   2.0000      -0.338456        -9.2099
  64   2.0000      -0.333788        -9.0828
  65   2.0000      -0.330074        -8.9818
  66   2.0000      -0.295586        -8.0433
  67   0.0000       0.030561         0.8316
  68   0.0000       0.066954         1.8219
  69   0.0000       0.104273         2.8374
  70   0.0000       0.118962         3.2371
  71   0.0000       0.129313         3.5188

MULLIKEN ATOMIC CHARGES
-----------------------
   0 S :    0.109628
   1 C :   -0.121203
   2 C :   -0.095964
   3 C :    0.047655
   4 C :   -0.132661
   5 H :   -0.006948
   6 C :    0.060784
   7 H :    0.017691
   8 H :    0.038802
   9 C :   -0.042262
  10 H :    0.013944
  11 H :    0.008717
  12 C :   -0.051402
  13 H :    0.048765
  14 H :    0.045459
  15 H :    0.018760
  16 S :    0.109705
  17 C :   -0.088526
  18 C :   -0.075841
  19 C :   -0.005454
  20 C :   -0.200117
  21 H :    0.024678
  22 C :    0.117830
  23 H :   -0.004024
  24 H :    0.027665
  25 C :   -0.064425
  26 H :    0.011144
  27 H :    0.020016
  28 C :   -0.012045
  29 H :    0.029837
  30 H :    0.008391
  31 H :    0.045249
  32 H :    0.039201
  33 H :    0.056949
Sum of atomic charges:    0.0000000

LOEWDIN ATOMIC CHARGES
----------------------
   0 S :    0.375891
   1 C :   -0.186542
   2 C :   -0.067735
   3 C :   -0.047256
   4 C :   -0.179152
   5 H :    0.025120
   6 C :   -0.028065
   7 H :    0.028531
   8 H :    0.036067
   9 C :   -0.035208
  10 H :    0.022497
  11 H :    0.013386
  12 C :   -0.065005
  13 H :    0.028681
  14 H :    0.034204
  15 H :    0.019778
  16 S :    0.403307
  17 C :   -0.188803
  18 C :   -0.074791
  19 C :   -0.055605
  20 C :   -0.196329
  21 H :    0.031962
  22 C :   -0.022964
  23 H :    0.020997
  24 H :    0.032414
  25 C :   -0.042012
  26 H :    0.015561
  27 H :    0.025652
  28 C :   -0.064222
  29 H :    0.022803
  30 H :    0.025069
  31 H :    0.039658
  32 H :    0.023409
  33 H :    0.028703

  Mayer bond orders larger than 0.100000
B(  0-S ,  1-C ) :   1.1169 B(  0-S ,  4-C ) :   1.1301 B(  1-C ,  2-C ) :   1.6701
B(  1-C , 32-H ) :   0.9567 B(  2-C ,  3-C ) :   1.2078 B(  2-C ,  6-C ) :   1.0115
B(  3-C ,  4-C ) :   1.6074 B(  3-C ,  5-H ) :   1.0074 B(  4-C , 20-C ) :   1.0095
B(  6-C ,  7-H ) :   0.9424 B(  6-C ,  8-H ) :   0.9368 B(  6-C ,  9-C ) :   1.0835
B(  9-C , 10-H ) :   0.9532 B(  9-C , 11-H ) :   0.9555 B(  9-C , 12-C ) :   1.0573
B( 12-C , 13-H ) :   0.9776 B( 12-C , 14-H ) :   0.9768 B( 12-C , 15-H ) :   0.9760
B( 16-S , 17-C ) :   1.1678 B( 16-S , 20-C ) :   1.1459 B( 17-C , 18-C ) :   1.5840
B( 17-C , 20-C ) :   0.1131 B( 17-C , 33-H ) :   0.9672 B( 18-C , 19-C ) :   1.2584
B( 18-C , 21-H ) :   0.9880 B( 19-C , 20-C ) :   1.5941 B( 19-C , 22-C ) :   1.0222
B( 22-C , 23-H ) :   0.9199 B( 22-C , 24-H ) :   0.9311 B( 22-C , 25-C ) :   1.0752
B( 25-C , 26-H ) :   0.9463 B( 25-C , 27-H ) :   0.9512 B( 25-C , 28-C ) :   1.0869
B( 28-C , 29-H ) :   0.9704 B( 28-C , 30-H ) :   0.9712 B( 28-C , 31-H ) :   0.9690

Dispersion correction           -0.014246278
FINAL SINGLE POINT ENERGY     -1339.862545033058

DIPOLE MOMENT
-------------
                                X             Y             Z
Electronic contribution:     19.31045      16.93793     -16.53097
Nuclear contribution   :    -19.81932     -17.20734      16.95163
                        -----------------------------------------
Total Dipole Moment    :     -0.50887      -0.26941       0.42066
                        -----------------------------------------
Magnitude (a.u.)       :      0.71309
Magnitude (Debye)      :      1.81252

Rotational constants in cm-1:     0.016836     0.009584     0.006597
Rotational constants in MHz :   504.723681   287.330853   197.764576

                             ****ORCA TERMINATED NORMALLY****
TOTAL RUN TIME: 0 days 0 hours 0 minutes 30 seconds 67 msec
