                         Program Version 4.2.1 -  RELEASE  -
|  1> ! wB97X-D3 SP def2-SVP
|  2> %pal
|  3> nprocs 16
|  4> end
|  5>
|  6> * xyz 0 1
|  7> S 	 -51.5126 	 36.3046 	 87.3151
|  8> C 	 -52.363 	 35.4459 	 86.1403
|  9> C 	 -53.7281 	 35.6474 	 86.2424
| 10> C 	 -54.0943 	 36.2679 	 87.4682
| 11> C 	 -53.0056 	 36.6659 	 88.1885
| 12> H 	 -55.106 	 36.4893 	 87.7845
| 13> C 	 -54.763 	 35.1605 	 85.2415
| 14> H 	 -55.7795 	 35.0623 	 85.6627
| 15> H 	 -54.4158 	 34.2119 	 84.8368
| 16> C 	 -54.9228 	 36.0515 	 83.9806
| 17> H 	 -53.9762 	 36.1147 	 83.4183
| 18> H 	 -55.6457 	 35.6736 	 83.1963
| 19> C 	 -55.5106 	 37.3313 	 84.3153
| 20> H 	 -54.8483 	 37.9414 	 84.7598
| 21> H 	 -55.8819 	 37.9916 	 83.5057
| 22> H 	 -56.342 	 37.2113 	 84.9401
| 23> S 	 -51.4837 	 37.6314 	 90.1972
| 24> C 	 -52.194 	 38.4411 	 91.5794
| 25> C 	 -53.5825 	 38.3809 	 91.5449
| 26> C 	 -54.0816 	 37.7973 	 90.2963
| 27> C 	 -53.0303 	 37.3047 	 89.5225
| 28> H 	 -54.2519 	 38.6226 	 92.3915
| 29> C 	 -55.5455 	 37.4426 	 90.2207
| 30> H 	 -55.8499 	 37.6918 	 89.2204
| 31> H 	 -56.017 	 38.0375 	 90.9942
| 32> C 	 -56.0236 	 35.9331 	 90.4181
| 33> H 	 -55.4376 	 35.4397 	 91.1974
| 34> H 	 -55.8057 	 35.3237 	 89.4905
| 35> C 	 -57.5719 	 35.7632 	 90.5602
| 36> H 	 -57.9566 	 36.3422 	 91.3423
| 37> H 	 -57.8192 	 34.7047 	 90.613
| 38> H 	 -58.0412 	 35.9296 	 89.6099
| 39> H 	 -52.0061 	 35.1513 	 85.1706
| 40> H 	 -51.7339 	 38.7141 	 92.5149
| 41> *
| 42>
| 43>                          ****END OF INPUT****

CARTESIAN COORDINATES (ANGSTROEM)
---------------------------------
  S    -51.512600   36.304600   87.315100
  C    -52.363000   35.445900   86.140300
  C    -53.728100   35.647400   86.242400
  C    -54.094300   36.267900   87.468200
  C    -53.005600   36.665900   88.188500
  H    -55.106000   36.489300   87.784500
  C    -54.763000   35.160500   85.241500
  H    -55.779500   35.062300   85.662700
  H    -54.415800   34.211900   84.836800
  C    -54.922800   36.051500   83.980600
  H    -53.976200   36.114700   83.418300
  H    -55.645700   35.673600   83.196300
  C    -55.510600   37.331300   84.315300
  H    -54.848300   37.941400   84.759800
  H    -55.881900   37.991600   83.505700
  H    -56.342000   37.211300   84.940100
  S    -51.483700   37.631400   90.197200
  C    -52.194000   38.441100   91.579400
  C    -53.582500   38.380900   91.544900
  C    -54.081600   37.797300   90.296300
  C    -53.030300   37.304700   89.522500
  H    -54.251900   38.622600   92.391500
  C    -55.545500   37.442600   90.220700
  H    -55.849900   37.691800   89.220400
  H    -56.017000   38.037500   90.994200
  C    -56.023600   35.933100   90.418100
  H    -55.437600   35.439700   91.197400
  H    -55.805700   35.323700   89.490500
  C    -57.571900   35.763200   90.560200
  H    -57.956600   36.342200   91.342300
  H    -57.819200   34.704700   90.613000
  H    -58.041200   35.929600   89.609900
  H    -52.006100   35.151300   85.170600
  H    -51.733900   38.714100   92.514900

 Total Charge           Charge          ....    0
 Multiplicity           Mult            ....    1
 Number of Electrons    NEL             ....  134
 Basis Dimension        Dim             ....  322

ORBITAL ENERGIES
----------------

  NO   OCC          E(Eh)            E(eV)
   0   2.0000     -88.970921     -2421.0218
   1   2.0000     -88.969375     -2420.9798
   2   2.0000     -10.332046      -281.1493
   3   2.0000     -10.330349      -281.1031
   4   2.0000     -10.317303      -280.7481
   5   2.0000     -10.308060      -280.4966
   6   2.0000     -10.304694      -280.4050
   7   2.0000     -10.300882      -280.3013
   8   2.0000     -10.300413      -280.2885
   9   2.0000     -10.296092      -280.1709
  10   2.0000     -10.295754      -280.1617
  11   2.0000     -10.295533      -280.1557
  12   2.0000     -10.291636      -280.0496
  13   2.0000     -10.285136      -279.8728
  14   2.0000     -10.277542      -279.6661
  15   2.0000     -10.256120      -279.0832
  16   2.0000      -8.086252      -220.0381
  17   2.0000      -8.084499      -219.9904
  18   2.0000      -6.044813      -164.4877
  19   2.0000      -6.043102      -164.4412
  20   2.0000      -6.040714      -164.3762
  21   2.0000      -6.038929      -164.3276
  22   2.0000      -6.036889      -164.2721
  23   2.0000      -6.035175      -164.2254
  24   2.0000      -1.013886       -27.5892
  25   2.0000      -0.989135       -26.9157
  26   2.0000      -0.919103       -25.0101
  27   2.0000      -0.903526       -24.5862
  28   2.0000      -0.872621       -23.7452
  29   2.0000      -0.859290       -23.3825
  30   2.0000      -0.850605       -23.1462
  31   2.0000      -0.819986       -22.3129
  32   2.0000      -0.783898       -21.3309
  33   2.0000      -0.773256       -21.0414
  34   2.0000      -0.708457       -19.2781
  35   2.0000      -0.701240       -19.0817
  36   2.0000      -0.691438       -18.8150
  37   2.0000      -0.670526       -18.2459
  38   2.0000      -0.638075       -17.3629
  39   2.0000      -0.620472       -16.8839
  40   2.0000      -0.589947       -16.0533
  41   2.0000      -0.580496       -15.7961
  42   2.0000      -0.569822       -15.5056
  43   2.0000      -0.554110       -15.0781
  44   2.0000      -0.547582       -14.9005
  45   2.0000      -0.524444       -14.2708
  46   2.0000      -0.514554       -14.0017
  47   2.0000      -0.512120       -13.9355
  48   2.0000      -0.507801       -13.8180
  49   2.0000      -0.502877       -13.6840
  50   2.0000      -0.493363       -13.4251
  51   2.0000      -0.485780       -13.2188
  52   2.0000      -0.474786       -12.9196
  53   2.0000      -0.466486       -12.6937
  54   2.0000      -0.462404       -12.5827
  55   2.0000      -0.455575       -12.3968
  56   2.0000      -0.442587       -12.0434
  57   2.0000      -0.434068       -11.8116
  58   2.0000      -0.432031       -11.7562
  59   2.0000      -0.425835       -11.5876
  60   2.0000      -0.422782       -11.5045
  61   2.0000      -0.417323       -11.3559
  62   2.0000      -0.408543       -11.1170
  63   2.0000      -0.366697        -9.9783
  64   2.0000      -0.336783        -9.1643
  65   2.0000      -0.325854        -8.8669
  66   2.0000      -0.282488        -7.6869
  67   0.0000       0.017784         0.4839
  68   0.0000       0.086489         2.3535
  69   0.0000       0.090345         2.4584
  70   0.0000       0.112072         3.0496
  71   0.0000       0.128592         3.4992

MULLIKEN ATOMIC CHARGES
-----------------------
   0 S :    0.120589
   1 C :   -0.080786
   2 C :   -0.111342
   3 C :   -0.013283
   4 C :   -0.077953
   5 H :   -0.006957
   6 C :    0.066263
   7 H :    0.028559
   8 H :    0.027613
   9 C :   -0.092963
  10 H :    0.023839
  11 H :    0.031639
  12 C :    0.007550
  13 H :    0.006140
  14 H :    0.023879
  15 H :    0.001424
  16 S :    0.102223
  17 C :   -0.070328
  18 C :   -0.057809
  19 C :   -0.073634
  20 C :   -0.119528
  21 H :    0.036935
  22 C :    0.053727
  23 H :    0.028319
  24 H :    0.018968
  25 C :   -0.105609
  26 H :    0.037609
  27 H :    0.033355
  28 C :   -0.017096
  29 H :    0.034700
  30 H :    0.029161
  31 H :    0.017302
  32 H :    0.042759
  33 H :    0.054736
Sum of atomic charges:   -0.0000000

LOEWDIN ATOMIC CHARGES
----------------------
   0 S :    0.423481
   1 C :   -0.220090
   2 C :   -0.060159
   3 C :   -0.066113
   4 C :   -0.179571
   5 H :    0.028890
   6 C :   -0.026591
   7 H :    0.031241
   8 H :    0.032800
   9 C :   -0.047451
  10 H :    0.021197
  11 H :    0.030558
  12 C :   -0.063490
  13 H :    0.010149
  14 H :    0.031349
  15 H :    0.017008
  16 S :    0.418866
  17 C :   -0.194427
  18 C :   -0.065801
  19 C :   -0.066289
  20 C :   -0.194470
  21 H :    0.036826
  22 C :   -0.032526
  23 H :    0.024975
  24 H :    0.028882
  25 C :   -0.041402
  26 H :    0.022505
  27 H :    0.028197
  28 C :   -0.060450
  29 H :    0.015862
  30 H :    0.032794
  31 H :    0.024533
  32 H :    0.027933
  33 H :    0.030782

  Mayer bond orders larger than 0.100000
B(  0-S ,  1-C ) :   1.1488 B(  0-S ,  4-C ) :   1.1451 B(  1-C ,  2-C ) :   1.6116
B(  1-C , 32-H ) :   0.9548 B(  2-C ,  3-C ) :   1.2534 B(  2-C ,  6-C ) :   1.0219
B(  3-C ,  4-C ) :   1.5722 B(  3-C ,  5-H ) :   0.9891 B(  4-C , 20-C ) :   1.0703
B(  6-C ,  7-H ) :   0.9499 B(  6-C ,  8-H ) :   0.9381 B(  6-C ,  9-C ) :   1.0699
B(  9-C , 10-H ) :   0.9548 B(  9-C , 11-H ) :   0.9575 B(  9-C , 12-C ) :   1.0803
B( 12-C , 13-H ) :   0.9688 B( 12-C , 14-H ) :   0.9666 B( 12-C , 15-H ) :   0.9669
B( 16-S , 17-C ) :   1.1446 B( 16-S , 20-C ) :   1.1434 B( 17-C , 18-C ) :   1.6252
B( 17-C , 33-H ) :   0.9637 B( 18-C , 19-C ) :   1.2432 B( 18-C , 21-H ) :   0.9752
B( 19-C , 20-C ) :   1.5711 B( 19-C , 22-C ) :   1.0638 B( 22-C , 23-H ) :   0.9242
B( 22-C , 24-H ) :   0.9369 B( 22-C , 25-C ) :   1.0463 B( 25-C , 26-H ) :   0.9614
B( 25-C , 27-H ) :   0.9508 B( 25-C , 28-C ) :   1.0766 B( 28-C , 29-H ) :   0.9804
B( 28-C , 30-H ) :   0.9699 B( 28-C , 31-H ) :   0.9727

Dispersion correction           -0.014515190
FINAL SINGLE POINT ENERGY     -1339.856139854191

DIPOLE MOMENT
-------------
                                X             Y             Z
Electronic contribution:     28.36612       4.36121       9.18688
Nuclear contribution   :    -29.04695      -4.47116      -9.22095
                        -----------------------------------------
Total Dipole Moment    :     -0.68083      -0.10995      -0.03407
                        -----------------------------------------
Magnitude (a.u.)       :      0.69049
Magnitude (Debye)      :      1.75509

Rotational constants in cm-1:     0.017315     0.009804     0.006987
Rotational constants in MHz :   519.083606   293.904515   209.474845

                             ****ORCA TERMINATED NORMALLY****
TOTAL RUN TIME: 0 days 0 hours 0 minutes 29 seconds 513 msec
