                         Program Version 4.2.1 -  RELEASE  -
|  1> ! wB97X-D3 SP def2-SVP
|  2> %pal
|  3> nprocs 16
|  4> end
|  5>
|  6> * xyz 0 1
|  7> S 	 -31.5078 	 74.7146 	 165.953
|  8> C 	 -31.1224 	 74.031 	 164.432
|  9> C 	 -32.152 	 74.1476 	 163.587
| 10> C 	 -33.4056 	 74.668 	 164.179
| 11> C 	 -33.1804 	 74.8321 	 165.569
| 12> H 	 -34.3092 	 74.9622 	 163.651
| 13> C 	 -32.0881 	 74.0596 	 162.052
| 14> H 	 -33.0471 	 73.7968 	 161.667
| 15> H 	 -31.6108 	 73.1077 	 161.69
| 16> C 	 -31.8062 	 75.3638 	 161.237
| 17> H 	 -32.1996 	 75.1678 	 160.215
| 18> H 	 -32.4027 	 76.1428 	 161.62
| 19> C 	 -30.3269 	 75.7852 	 161.341
| 20> H 	 -30.1145 	 76.7395 	 161.783
| 21> H 	 -29.697 	 75.0504 	 161.901
| 22> H 	 -29.8992 	 75.8891 	 160.355
| 23> S 	 -33.5083 	 76.8971 	 167.278
| 24> C 	 -35.1738 	 77.4484 	 167.715
| 25> C 	 -36.1147 	 76.542 	 167.262
| 26> C 	 -35.5116 	 75.4551 	 166.554
| 27> C 	 -34.0886 	 75.5021 	 166.492
| 28> H 	 -37.172 	 76.6025 	 167.527
| 29> C 	 -36.4772 	 74.5742 	 165.737
| 30> H 	 -35.8779 	 73.7498 	 165.298
| 31> H 	 -36.8031 	 75.1658 	 164.905
| 32> C 	 -37.7099 	 74.1172 	 166.527
| 33> H 	 -38.4048 	 73.6902 	 165.771
| 34> H 	 -38.3786 	 74.8124 	 166.933
| 35> C 	 -37.3817 	 73.0226 	 167.654
| 36> H 	 -38.1845 	 72.3882 	 167.965
| 37> H 	 -36.7819 	 73.4202 	 168.431
| 38> H 	 -36.7449 	 72.1908 	 167.222
| 39> H 	 -30.127 	 73.8404 	 164.024
| 40> H 	 -35.3722 	 78.2971 	 168.327
| 41> *
| 42>
| 43>                          ****END OF INPUT****

CARTESIAN COORDINATES (ANGSTROEM)
---------------------------------
  S    -31.507800   74.714600  165.953000
  C    -31.122400   74.031000  164.432000
  C    -32.152000   74.147600  163.587000
  C    -33.405600   74.668000  164.179000
  C    -33.180400   74.832100  165.569000
  H    -34.309200   74.962200  163.651000
  C    -32.088100   74.059600  162.052000
  H    -33.047100   73.796800  161.667000
  H    -31.610800   73.107700  161.690000
  C    -31.806200   75.363800  161.237000
  H    -32.199600   75.167800  160.215000
  H    -32.402700   76.142800  161.620000
  C    -30.326900   75.785200  161.341000
  H    -30.114500   76.739500  161.783000
  H    -29.697000   75.050400  161.901000
  H    -29.899200   75.889100  160.355000
  S    -33.508300   76.897100  167.278000
  C    -35.173800   77.448400  167.715000
  C    -36.114700   76.542000  167.262000
  C    -35.511600   75.455100  166.554000
  C    -34.088600   75.502100  166.492000
  H    -37.172000   76.602500  167.527000
  C    -36.477200   74.574200  165.737000
  H    -35.877900   73.749800  165.298000
  H    -36.803100   75.165800  164.905000
  C    -37.709900   74.117200  166.527000
  H    -38.404800   73.690200  165.771000
  H    -38.378600   74.812400  166.933000
  C    -37.381700   73.022600  167.654000
  H    -38.184500   72.388200  167.965000
  H    -36.781900   73.420200  168.431000
  H    -36.744900   72.190800  167.222000
  H    -30.127000   73.840400  164.024000
  H    -35.372200   78.297100  168.327000

 Total Charge           Charge          ....    0
 Multiplicity           Mult            ....    1
 Number of Electrons    NEL             ....  134
 Basis Dimension        Dim             ....  322

ORBITAL ENERGIES
----------------

  NO   OCC          E(Eh)            E(eV)
   0   2.0000     -88.966834     -2420.9106
   1   2.0000     -88.965406     -2420.8718
   2   2.0000     -10.333351      -281.1848
   3   2.0000     -10.327294      -281.0200
   4   2.0000     -10.320804      -280.8434
   5   2.0000     -10.308378      -280.5052
   6   2.0000     -10.304350      -280.3956
   7   2.0000     -10.303038      -280.3599
   8   2.0000     -10.301554      -280.3195
   9   2.0000     -10.295982      -280.1679
  10   2.0000     -10.295064      -280.1429
  11   2.0000     -10.291684      -280.0510
  12   2.0000     -10.291427      -280.0440
  13   2.0000     -10.290780      -280.0264
  14   2.0000     -10.276396      -279.6350
  15   2.0000     -10.275186      -279.6020
  16   2.0000      -8.082874      -219.9462
  17   2.0000      -8.080181      -219.8729
  18   2.0000      -6.041385      -164.3944
  19   2.0000      -6.038792      -164.3239
  20   2.0000      -6.037388      -164.2857
  21   2.0000      -6.034594      -164.2096
  22   2.0000      -6.033361      -164.1761
  23   2.0000      -6.030903      -164.1092
  24   2.0000      -1.011961       -27.5368
  25   2.0000      -0.984333       -26.7851
  26   2.0000      -0.907894       -24.7051
  27   2.0000      -0.901649       -24.5351
  28   2.0000      -0.872546       -23.7432
  29   2.0000      -0.846112       -23.0239
  30   2.0000      -0.837833       -22.7986
  31   2.0000      -0.812057       -22.0972
  32   2.0000      -0.783722       -21.3262
  33   2.0000      -0.774089       -21.0640
  34   2.0000      -0.714202       -19.4344
  35   2.0000      -0.702536       -19.1170
  36   2.0000      -0.697494       -18.9798
  37   2.0000      -0.661230       -17.9930
  38   2.0000      -0.638027       -17.3616
  39   2.0000      -0.615948       -16.7608
  40   2.0000      -0.595776       -16.2119
  41   2.0000      -0.571884       -15.5617
  42   2.0000      -0.552799       -15.0424
  43   2.0000      -0.542896       -14.7729
  44   2.0000      -0.537624       -14.6295
  45   2.0000      -0.529603       -14.4112
  46   2.0000      -0.519436       -14.1346
  47   2.0000      -0.506863       -13.7924
  48   2.0000      -0.503997       -13.7145
  49   2.0000      -0.499340       -13.5877
  50   2.0000      -0.497691       -13.5429
  51   2.0000      -0.482847       -13.1389
  52   2.0000      -0.467406       -12.7188
  53   2.0000      -0.459097       -12.4927
  54   2.0000      -0.452893       -12.3239
  55   2.0000      -0.450967       -12.2714
  56   2.0000      -0.444930       -12.1072
  57   2.0000      -0.434903       -11.8343
  58   2.0000      -0.430892       -11.7252
  59   2.0000      -0.429395       -11.6844
  60   2.0000      -0.421576       -11.4717
  61   2.0000      -0.407777       -11.0962
  62   2.0000      -0.405102       -11.0234
  63   2.0000      -0.358881        -9.7657
  64   2.0000      -0.328324        -8.9342
  65   2.0000      -0.323939        -8.8148
  66   2.0000      -0.289622        -7.8810
  67   0.0000       0.024130         0.6566
  68   0.0000       0.075337         2.0500
  69   0.0000       0.096917         2.6372
  70   0.0000       0.118662         3.2290
  71   0.0000       0.131741         3.5848

MULLIKEN ATOMIC CHARGES
-----------------------
   0 S :    0.101757
   1 C :   -0.082944
   2 C :   -0.094581
   3 C :    0.006902
   4 C :   -0.135005
   5 H :    0.032792
   6 C :    0.019662
   7 H :   -0.006356
   8 H :    0.032985
   9 C :   -0.032977
  10 H :    0.039076
  11 H :    0.019498
  12 C :   -0.048686
  13 H :    0.029135
  14 H :    0.027410
  15 H :    0.026878
  16 S :    0.088520
  17 C :   -0.092688
  18 C :   -0.026588
  19 C :   -0.085099
  20 C :   -0.103494
  21 H :    0.034295
  22 C :    0.060922
  23 H :    0.037107
  24 H :    0.038104
  25 C :   -0.074746
  26 H :    0.020859
  27 H :    0.021723
  28 C :   -0.051592
  29 H :    0.030373
  30 H :    0.042382
  31 H :    0.021884
  32 H :    0.051539
  33 H :    0.050956
Sum of atomic charges:   -0.0000000

LOEWDIN ATOMIC CHARGES
----------------------
   0 S :    0.428431
   1 C :   -0.212199
   2 C :   -0.063893
   3 C :   -0.057099
   4 C :   -0.197225
   5 H :    0.034366
   6 C :   -0.044848
   7 H :    0.022146
   8 H :    0.035310
   9 C :   -0.031397
  10 H :    0.030973
  11 H :    0.020702
  12 C :   -0.072414
  13 H :    0.024324
  14 H :    0.026294
  15 H :    0.026465
  16 S :    0.402318
  17 C :   -0.163457
  18 C :   -0.067883
  19 C :   -0.061830
  20 C :   -0.220582
  21 H :    0.036603
  22 C :   -0.030031
  23 H :    0.034513
  24 H :    0.030267
  25 C :   -0.040853
  26 H :    0.030011
  27 H :    0.014304
  28 C :   -0.069074
  29 H :    0.023491
  30 H :    0.021624
  31 H :    0.032383
  32 H :    0.035210
  33 H :    0.023050

  Mayer bond orders larger than 0.100000
B(  0-S ,  1-C ) :   1.1206 B(  0-S ,  4-C ) :   1.1722 B(  1-C ,  2-C ) :   1.6585
B(  1-C , 32-H ) :   0.9615 B(  2-C ,  3-C ) :   1.2227 B(  2-C ,  6-C ) :   1.0303
B(  3-C ,  4-C ) :   1.5306 B(  3-C ,  5-H ) :   0.9930 B(  4-C , 20-C ) :   1.0402
B(  6-C ,  7-H ) :   0.9319 B(  6-C ,  8-H ) :   0.9441 B(  6-C ,  9-C ) :   1.0744
B(  9-C , 10-H ) :   0.9625 B(  9-C , 11-H ) :   0.9555 B(  9-C , 12-C ) :   1.0523
B( 12-C , 13-H ) :   0.9775 B( 12-C , 14-H ) :   0.9825 B( 12-C , 15-H ) :   0.9752
B( 16-S , 17-C ) :   1.1485 B( 16-S , 20-C ) :   1.1482 B( 17-C , 18-C ) :   1.5967
B( 17-C , 33-H ) :   0.9727 B( 18-C , 19-C ) :   1.2575 B( 18-C , 21-H ) :   0.9856
B( 19-C , 20-C ) :   1.5735 B( 19-C , 22-C ) :   1.0365 B( 22-C , 23-H ) :   0.9370
B( 22-C , 24-H ) :   0.9371 B( 22-C , 25-C ) :   1.0703 B( 25-C , 26-H ) :   0.9502
B( 25-C , 27-H ) :   0.9578 B( 25-C , 28-C ) :   1.0590 B( 28-C , 29-H ) :   0.9777
B( 28-C , 30-H ) :   0.9792 B( 28-C , 31-H ) :   0.9739

Dispersion correction           -0.014382100
FINAL SINGLE POINT ENERGY     -1339.844748438933

DIPOLE MOMENT
-------------
                                X             Y             Z
Electronic contribution:     10.06020       7.64599      16.03173
Nuclear contribution   :    -10.54300      -7.49532     -16.65453
                        -----------------------------------------
Total Dipole Moment    :     -0.48280       0.15067      -0.62280
                        -----------------------------------------
Magnitude (a.u.)       :      0.80230
Magnitude (Debye)      :      2.03928

Rotational constants in cm-1:     0.021614     0.007752     0.006818
Rotational constants in MHz :   647.986114   232.392451   204.387941

                             ****ORCA TERMINATED NORMALLY****
TOTAL RUN TIME: 0 days 0 hours 0 minutes 36 seconds 763 msec
