                         Program Version 4.2.1 -  RELEASE  -
|  1> ! wB97X-D3 SP def2-SVP
|  2> %pal
|  3> nprocs 16
|  4> end
|  5>
|  6> * xyz 0 1
|  7> S 	 4.95661 	 -10.4458 	 76.3236
|  8> C 	 3.24293 	 -10.4017 	 76.782
|  9> C 	 2.49612 	 -9.76459 	 75.8367
| 10> C 	 3.32015 	 -9.07146 	 74.9443
| 11> C 	 4.64828 	 -9.42701 	 74.9598
| 12> H 	 2.92674 	 -8.35764 	 74.1781
| 13> C 	 0.986392 	 -9.51018 	 75.8217
| 14> H 	 0.817451 	 -9.09292 	 74.8134
| 15> H 	 0.68712 	 -8.74964 	 76.4894
| 16> C 	 0.174312 	 -10.8491 	 75.9816
| 17> H 	 0.547301 	 -11.6223 	 75.3936
| 18> H 	 0.389572 	 -11.1403 	 77.0372
| 19> C 	 -1.28465 	 -10.8019 	 75.6138
| 20> H 	 -1.75075 	 -9.81515 	 75.7977
| 21> H 	 -1.4601 	 -10.9927 	 74.519
| 22> H 	 -1.75417 	 -11.611 	 76.1481
| 23> S 	 6.68069 	 -7.39045 	 74.9787
| 24> C 	 7.6117 	 -7.08385 	 73.5076
| 25> C 	 7.27793 	 -8.03062 	 72.5302
| 26> C 	 6.22512 	 -8.95164 	 72.9015
| 27> C 	 5.77586 	 -8.7537 	 74.2414
| 28> H 	 7.89793 	 -8.09981 	 71.696
| 29> C 	 6.03389 	 -10.2228 	 72.092
| 30> H 	 6.57061 	 -11.0769 	 72.6194
| 31> H 	 6.4921 	 -10.1199 	 71.0887
| 32> C 	 4.59617 	 -10.7794 	 71.696
| 33> H 	 3.99032 	 -10.0134 	 71.2293
| 34> H 	 4.03238 	 -11.028 	 72.5578
| 35> C 	 4.61097 	 -11.9373 	 70.6802
| 36> H 	 4.85587 	 -11.7337 	 69.6581
| 37> H 	 3.63681 	 -12.403 	 70.5506
| 38> H 	 5.16418 	 -12.7875 	 71
| 39> H 	 2.80335 	 -10.9049 	 77.6587
| 40> H 	 8.34889 	 -6.22072 	 73.4402
| 41> *
| 42>
| 43>                          ****END OF INPUT****

CARTESIAN COORDINATES (ANGSTROEM)
---------------------------------
  S      4.956610  -10.445800   76.323600
  C      3.242930  -10.401700   76.782000
  C      2.496120   -9.764590   75.836700
  C      3.320150   -9.071460   74.944300
  C      4.648280   -9.427010   74.959800
  H      2.926740   -8.357640   74.178100
  C      0.986392   -9.510180   75.821700
  H      0.817451   -9.092920   74.813400
  H      0.687120   -8.749640   76.489400
  C      0.174312  -10.849100   75.981600
  H      0.547301  -11.622300   75.393600
  H      0.389572  -11.140300   77.037200
  C     -1.284650  -10.801900   75.613800
  H     -1.750750   -9.815150   75.797700
  H     -1.460100  -10.992700   74.519000
  H     -1.754170  -11.611000   76.148100
  S      6.680690   -7.390450   74.978700
  C      7.611700   -7.083850   73.507600
  C      7.277930   -8.030620   72.530200
  C      6.225120   -8.951640   72.901500
  C      5.775860   -8.753700   74.241400
  H      7.897930   -8.099810   71.696000
  C      6.033890  -10.222800   72.092000
  H      6.570610  -11.076900   72.619400
  H      6.492100  -10.119900   71.088700
  C      4.596170  -10.779400   71.696000
  H      3.990320  -10.013400   71.229300
  H      4.032380  -11.028000   72.557800
  C      4.610970  -11.937300   70.680200
  H      4.855870  -11.733700   69.658100
  H      3.636810  -12.403000   70.550600
  H      5.164180  -12.787500   71.000000
  H      2.803350  -10.904900   77.658700
  H      8.348890   -6.220720   73.440200

 Total Charge           Charge          ....    0
 Multiplicity           Mult            ....    1
 Number of Electrons    NEL             ....  134
 Basis Dimension        Dim             ....  322

ORBITAL ENERGIES
----------------

  NO   OCC          E(Eh)            E(eV)
   0   2.0000     -88.966667     -2420.9061
   1   2.0000     -88.966317     -2420.8966
   2   2.0000     -10.335187      -281.2347
   3   2.0000     -10.328238      -281.0456
   4   2.0000     -10.327980      -281.0386
   5   2.0000     -10.316769      -280.7336
   6   2.0000     -10.311193      -280.5818
   7   2.0000     -10.299781      -280.2713
   8   2.0000     -10.296465      -280.1811
   9   2.0000     -10.294233      -280.1203
  10   2.0000     -10.294150      -280.1181
  11   2.0000     -10.293363      -280.0966
  12   2.0000     -10.285724      -279.8888
  13   2.0000     -10.282232      -279.7937
  14   2.0000     -10.281867      -279.7838
  15   2.0000     -10.270697      -279.4799
  16   2.0000      -8.081343      -219.9045
  17   2.0000      -8.079882      -219.8648
  18   2.0000      -6.039829      -164.3521
  19   2.0000      -6.038435      -164.3142
  20   2.0000      -6.035832      -164.2433
  21   2.0000      -6.034362      -164.2033
  22   2.0000      -6.032146      -164.1430
  23   2.0000      -6.030847      -164.1077
  24   2.0000      -1.004327       -27.3291
  25   2.0000      -0.976545       -26.5731
  26   2.0000      -0.910463       -24.7749
  27   2.0000      -0.895054       -24.3557
  28   2.0000      -0.866032       -23.5659
  29   2.0000      -0.848286       -23.0830
  30   2.0000      -0.847225       -23.0542
  31   2.0000      -0.810368       -22.0512
  32   2.0000      -0.783484       -21.3197
  33   2.0000      -0.769191       -20.9307
  34   2.0000      -0.711059       -19.3489
  35   2.0000      -0.702960       -19.1285
  36   2.0000      -0.683798       -18.6071
  37   2.0000      -0.656036       -17.8517
  38   2.0000      -0.638928       -17.3861
  39   2.0000      -0.616180       -16.7671
  40   2.0000      -0.590138       -16.0585
  41   2.0000      -0.566976       -15.4282
  42   2.0000      -0.562432       -15.3046
  43   2.0000      -0.558457       -15.1964
  44   2.0000      -0.530400       -14.4329
  45   2.0000      -0.517277       -14.0758
  46   2.0000      -0.516795       -14.0627
  47   2.0000      -0.507739       -13.8163
  48   2.0000      -0.501489       -13.6462
  49   2.0000      -0.498207       -13.5569
  50   2.0000      -0.490680       -13.3521
  51   2.0000      -0.474066       -12.9000
  52   2.0000      -0.472954       -12.8697
  53   2.0000      -0.463439       -12.6108
  54   2.0000      -0.461570       -12.5600
  55   2.0000      -0.450956       -12.2711
  56   2.0000      -0.448564       -12.2061
  57   2.0000      -0.435502       -11.8506
  58   2.0000      -0.424096       -11.5402
  59   2.0000      -0.423318       -11.5191
  60   2.0000      -0.419864       -11.4251
  61   2.0000      -0.411858       -11.2072
  62   2.0000      -0.408864       -11.1258
  63   2.0000      -0.337296        -9.1783
  64   2.0000      -0.328507        -8.9391
  65   2.0000      -0.322052        -8.7635
  66   2.0000      -0.306315        -8.3353
  67   0.0000       0.036145         0.9836
  68   0.0000       0.050717         1.3801
  69   0.0000       0.111887         3.0446
  70   0.0000       0.119713         3.2576
  71   0.0000       0.126003         3.4287

MULLIKEN ATOMIC CHARGES
-----------------------
   0 S :    0.109245
   1 C :   -0.145857
   2 C :   -0.078939
   3 C :    0.017066
   4 C :   -0.164452
   5 H :    0.032622
   6 C :    0.075545
   7 H :    0.015258
   8 H :    0.041785
   9 C :   -0.085711
  10 H :    0.019976
  11 H :    0.029697
  12 C :   -0.044467
  13 H :    0.033789
  14 H :    0.038714
  15 H :    0.035938
  16 S :    0.108227
  17 C :   -0.136678
  18 C :   -0.006403
  19 C :    0.009355
  20 C :   -0.157965
  21 H :    0.004803
  22 C :   -0.008975
  23 H :    0.059918
  24 H :    0.026329
  25 C :   -0.047899
  26 H :    0.019175
  27 H :    0.031868
  28 C :   -0.042115
  29 H :    0.025648
  30 H :    0.016696
  31 H :    0.017446
  32 H :    0.058612
  33 H :    0.091748
Sum of atomic charges:   -0.0000000

LOEWDIN ATOMIC CHARGES
----------------------
   0 S :    0.408407
   1 C :   -0.187016
   2 C :   -0.071871
   3 C :   -0.058267
   4 C :   -0.211561
   5 H :    0.039677
   6 C :   -0.022032
   7 H :    0.028494
   8 H :    0.027462
   9 C :   -0.040634
  10 H :    0.019672
  11 H :    0.024324
  12 C :   -0.068257
  13 H :    0.025492
  14 H :    0.031723
  15 H :    0.028704
  16 S :    0.389060
  17 C :   -0.188987
  18 C :   -0.068276
  19 C :   -0.055614
  20 C :   -0.194371
  21 H :    0.021689
  22 C :   -0.037743
  23 H :    0.044280
  24 H :    0.031331
  25 C :   -0.037129
  26 H :    0.023003
  27 H :    0.018292
  28 C :   -0.069864
  29 H :    0.021560
  30 H :    0.030199
  31 H :    0.019611
  32 H :    0.032161
  33 H :    0.046480

  Mayer bond orders larger than 0.100000
B(  0-S ,  1-C ) :   1.1485 B(  0-S ,  4-C ) :   1.1534 B(  1-C ,  2-C ) :   1.5988
B(  1-C , 32-H ) :   0.9657 B(  2-C ,  3-C ) :   1.2649 B(  2-C ,  6-C ) :   1.0084
B(  3-C ,  4-C ) :   1.5896 B(  3-C ,  5-H ) :   0.9816 B(  4-C , 20-C ) :   1.0002
B(  6-C ,  7-H ) :   0.9444 B(  6-C ,  8-H ) :   0.9418 B(  6-C ,  9-C ) :   1.0528
B(  9-C , 10-H ) :   0.9610 B(  9-C , 11-H ) :   0.9588 B(  9-C , 12-C ) :   1.0820
B( 12-C , 13-H ) :   0.9761 B( 12-C , 14-H ) :   0.9756 B( 12-C , 15-H ) :   0.9710
B( 16-S , 17-C ) :   1.1644 B( 16-S , 20-C ) :   1.1443 B( 17-C , 18-C ) :   1.5874
B( 17-C , 20-C ) :   0.1042 B( 17-C , 33-H ) :   0.9581 B( 18-C , 19-C ) :   1.2573
B( 18-C , 21-H ) :   0.9958 B( 19-C , 20-C ) :   1.5704 B( 19-C , 22-C ) :   1.0418
B( 22-C , 23-H ) :   0.9409 B( 22-C , 24-H ) :   0.9464 B( 22-C , 25-C ) :   1.0481
B( 25-C , 26-H ) :   0.9563 B( 25-C , 27-H ) :   0.9559 B( 25-C , 28-C ) :   1.0868
B( 28-C , 29-H ) :   0.9751 B( 28-C , 30-H ) :   0.9684 B( 28-C , 31-H ) :   0.9741

Dispersion correction           -0.013845829
FINAL SINGLE POINT ENERGY     -1339.861060622555

DIPOLE MOMENT
-------------
                                X             Y             Z
Electronic contribution:     22.77027      13.18377      13.52855
Nuclear contribution   :    -23.20981     -13.31014     -13.82430
                        -----------------------------------------
Total Dipole Moment    :     -0.43954      -0.12638      -0.29575
                        -----------------------------------------
Magnitude (a.u.)       :      0.54464
Magnitude (Debye)      :      1.38437

Rotational constants in cm-1:     0.018326     0.008013     0.006410
Rotational constants in MHz :   549.408504   240.219222   192.162946

                             ****ORCA TERMINATED NORMALLY****
TOTAL RUN TIME: 0 days 0 hours 0 minutes 29 seconds 790 msec
