                         Program Version 4.2.1 -  RELEASE  -
|  1> ! wB97X-D3 SP def2-SVP
|  2> %pal
|  3> nprocs 16
|  4> end
|  5>
|  6> * xyz 0 1
|  7> S 	 1.93819 	 27.8054 	 67.077
|  8> C 	 2.15549 	 26.0786 	 67.3155
|  9> C 	 3.13329 	 25.6228 	 66.4492
| 10> C 	 3.74566 	 26.7005 	 65.6312
| 11> C 	 3.13601 	 27.9185 	 65.8219
| 12> H 	 4.566 	 26.481 	 65.0154
| 13> C 	 3.48158 	 24.1486 	 66.2531
| 14> H 	 3.62037 	 24.0177 	 65.1878
| 15> H 	 2.71313 	 23.4966 	 66.6663
| 16> C 	 4.71535 	 23.6433 	 66.9279
| 17> H 	 5.06629 	 22.7081 	 66.4814
| 18> H 	 5.52924 	 24.4162 	 66.7476
| 19> C 	 4.50017 	 23.4372 	 68.4112
| 20> H 	 4.4088 	 24.4376 	 68.8054
| 21> H 	 3.60956 	 22.9422 	 68.7684
| 22> H 	 5.36605 	 23.023 	 68.9134
| 23> S 	 2.17816 	 30.2244 	 64.8062
| 24> C 	 3.13921 	 31.1897 	 63.8586
| 25> C 	 4.42321 	 30.823 	 63.9312
| 26> C 	 4.67344 	 29.6164 	 64.6244
| 27> C 	 3.46171 	 29.1336 	 65.1392
| 28> H 	 5.24943 	 31.3544 	 63.4729
| 29> C 	 6.06 	 29.0385 	 64.8521
| 30> H 	 5.99667 	 28.301 	 65.6806
| 31> H 	 6.71713 	 29.8855 	 65.1415
| 32> C 	 6.73858 	 28.1705 	 63.8034
| 33> H 	 6.99751 	 28.7761 	 62.9552
| 34> H 	 5.95306 	 27.4461 	 63.4157
| 35> C 	 8.17799 	 27.6417 	 64.2784
| 36> H 	 8.21963 	 27.0438 	 65.19
| 37> H 	 8.77903 	 28.558 	 64.4067
| 38> H 	 8.63049 	 27.0857 	 63.5404
| 39> H 	 1.53647 	 25.4227 	 67.8708
| 40> H 	 2.81227 	 32.1942 	 63.4998
| 41> *
| 42>
| 43>                          ****END OF INPUT****

CARTESIAN COORDINATES (ANGSTROEM)
---------------------------------
  S      1.938190   27.805400   67.077000
  C      2.155490   26.078600   67.315500
  C      3.133290   25.622800   66.449200
  C      3.745660   26.700500   65.631200
  C      3.136010   27.918500   65.821900
  H      4.566000   26.481000   65.015400
  C      3.481580   24.148600   66.253100
  H      3.620370   24.017700   65.187800
  H      2.713130   23.496600   66.666300
  C      4.715350   23.643300   66.927900
  H      5.066290   22.708100   66.481400
  H      5.529240   24.416200   66.747600
  C      4.500170   23.437200   68.411200
  H      4.408800   24.437600   68.805400
  H      3.609560   22.942200   68.768400
  H      5.366050   23.023000   68.913400
  S      2.178160   30.224400   64.806200
  C      3.139210   31.189700   63.858600
  C      4.423210   30.823000   63.931200
  C      4.673440   29.616400   64.624400
  C      3.461710   29.133600   65.139200
  H      5.249430   31.354400   63.472900
  C      6.060000   29.038500   64.852100
  H      5.996670   28.301000   65.680600
  H      6.717130   29.885500   65.141500
  C      6.738580   28.170500   63.803400
  H      6.997510   28.776100   62.955200
  H      5.953060   27.446100   63.415700
  C      8.177990   27.641700   64.278400
  H      8.219630   27.043800   65.190000
  H      8.779030   28.558000   64.406700
  H      8.630490   27.085700   63.540400
  H      1.536470   25.422700   67.870800
  H      2.812270   32.194200   63.499800

 Total Charge           Charge          ....    0
 Multiplicity           Mult            ....    1
 Number of Electrons    NEL             ....  134
 Basis Dimension        Dim             ....  322

ORBITAL ENERGIES
----------------

  NO   OCC          E(Eh)            E(eV)
   0   2.0000     -88.964638     -2420.8509
   1   2.0000     -88.964149     -2420.8376
   2   2.0000     -10.330464      -281.1062
   3   2.0000     -10.324012      -280.9307
   4   2.0000     -10.313015      -280.6314
   5   2.0000     -10.310543      -280.5641
   6   2.0000     -10.304891      -280.4103
   7   2.0000     -10.303314      -280.3674
   8   2.0000     -10.296593      -280.1845
   9   2.0000     -10.296340      -280.1777
  10   2.0000     -10.294289      -280.1218
  11   2.0000     -10.288146      -279.9547
  12   2.0000     -10.287134      -279.9272
  13   2.0000     -10.286734      -279.9162
  14   2.0000     -10.283786      -279.8360
  15   2.0000     -10.269806      -279.4556
  16   2.0000      -8.081725      -219.9149
  17   2.0000      -8.079508      -219.8546
  18   2.0000      -6.039922      -164.3546
  19   2.0000      -6.038259      -164.3094
  20   2.0000      -6.035789      -164.2422
  21   2.0000      -6.033938      -164.1918
  22   2.0000      -6.032675      -164.1574
  23   2.0000      -6.030068      -164.0865
  24   2.0000      -1.021693       -27.8017
  25   2.0000      -0.989231       -26.9183
  26   2.0000      -0.919625       -25.0243
  27   2.0000      -0.910711       -24.7817
  28   2.0000      -0.876499       -23.8508
  29   2.0000      -0.856150       -23.2970
  30   2.0000      -0.842159       -22.9163
  31   2.0000      -0.816386       -22.2150
  32   2.0000      -0.787914       -21.4402
  33   2.0000      -0.778694       -21.1893
  34   2.0000      -0.712360       -19.3843
  35   2.0000      -0.697025       -18.9670
  36   2.0000      -0.693621       -18.8744
  37   2.0000      -0.663428       -18.0528
  38   2.0000      -0.638008       -17.3611
  39   2.0000      -0.628374       -17.0989
  40   2.0000      -0.604326       -16.4445
  41   2.0000      -0.570442       -15.5225
  42   2.0000      -0.568560       -15.4713
  43   2.0000      -0.557201       -15.1622
  44   2.0000      -0.543455       -14.7882
  45   2.0000      -0.525170       -14.2906
  46   2.0000      -0.522185       -14.2094
  47   2.0000      -0.513468       -13.9722
  48   2.0000      -0.510188       -13.8829
  49   2.0000      -0.500075       -13.6077
  50   2.0000      -0.489268       -13.3137
  51   2.0000      -0.482848       -13.1390
  52   2.0000      -0.473767       -12.8919
  53   2.0000      -0.469441       -12.7741
  54   2.0000      -0.460601       -12.5336
  55   2.0000      -0.455026       -12.3819
  56   2.0000      -0.446158       -12.1406
  57   2.0000      -0.438145       -11.9225
  58   2.0000      -0.433488       -11.7958
  59   2.0000      -0.428898       -11.6709
  60   2.0000      -0.422206       -11.4888
  61   2.0000      -0.415886       -11.3168
  62   2.0000      -0.404922       -11.0185
  63   2.0000      -0.360586        -9.8120
  64   2.0000      -0.333907        -9.0861
  65   2.0000      -0.325439        -8.8557
  66   2.0000      -0.290776        -7.9124
  67   0.0000       0.026196         0.7128
  68   0.0000       0.084302         2.2940
  69   0.0000       0.114497         3.1156
  70   0.0000       0.118680         3.2295
  71   0.0000       0.123606         3.3635

MULLIKEN ATOMIC CHARGES
-----------------------
   0 S :    0.097025
   1 C :   -0.095559
   2 C :   -0.119401
   3 C :    0.025797
   4 C :   -0.084814
   5 H :   -0.025865
   6 C :    0.078165
   7 H :    0.029117
   8 H :    0.015952
   9 C :   -0.075804
  10 H :    0.029764
  11 H :    0.027756
  12 C :   -0.048701
  13 H :    0.023912
  14 H :    0.024877
  15 H :    0.032314
  16 S :    0.122139
  17 C :   -0.077755
  18 C :   -0.036322
  19 C :   -0.022825
  20 C :   -0.161197
  21 H :    0.008378
  22 C :    0.024413
  23 H :    0.027053
  24 H :    0.034147
  25 C :   -0.086284
  26 H :    0.017405
  27 H :    0.045002
  28 C :   -0.032299
  29 H :    0.038594
  30 H :    0.033840
  31 H :    0.023456
  32 H :    0.035477
  33 H :    0.072243
Sum of atomic charges:   -0.0000000

LOEWDIN ATOMIC CHARGES
----------------------
   0 S :    0.397520
   1 C :   -0.194897
   2 C :   -0.053332
   3 C :   -0.062229
   4 C :   -0.188620
   5 H :    0.018045
   6 C :   -0.032810
   7 H :    0.032398
   8 H :    0.029428
   9 C :   -0.043421
  10 H :    0.021149
  11 H :    0.028025
  12 C :   -0.071658
  13 H :    0.027349
  14 H :    0.021497
  15 H :    0.026294
  16 S :    0.458653
  17 C :   -0.219519
  18 C :   -0.075177
  19 C :   -0.055211
  20 C :   -0.206011
  21 H :    0.029942
  22 C :   -0.040858
  23 H :    0.033509
  24 H :    0.034988
  25 C :   -0.042864
  26 H :    0.017678
  27 H :    0.027756
  28 C :   -0.056246
  29 H :    0.024973
  30 H :    0.032423
  31 H :    0.016211
  32 H :    0.023831
  33 H :    0.041184

  Mayer bond orders larger than 0.100000
B(  0-S ,  1-C ) :   1.1120 B(  0-S ,  4-C ) :   1.1411 B(  1-C ,  2-C ) :   1.6332
B(  1-C , 32-H ) :   0.9721 B(  2-C ,  3-C ) :   1.2191 B(  2-C ,  6-C ) :   1.0332
B(  3-C ,  4-C ) :   1.5574 B(  3-C ,  5-H ) :   1.0034 B(  4-C , 20-C ) :   1.0680
B(  6-C ,  7-H ) :   0.9360 B(  6-C ,  8-H ) :   0.9433 B(  6-C ,  9-C ) :   1.0717
B(  9-C , 10-H ) :   0.9556 B(  9-C , 11-H ) :   0.9529 B(  9-C , 12-C ) :   1.0746
B( 12-C , 13-H ) :   0.9723 B( 12-C , 14-H ) :   0.9755 B( 12-C , 15-H ) :   0.9723
B( 16-S , 17-C ) :   1.1774 B( 16-S , 20-C ) :   1.1716 B( 17-C , 18-C ) :   1.5711
B( 17-C , 33-H ) :   0.9591 B( 18-C , 19-C ) :   1.2897 B( 18-C , 21-H ) :   0.9909
B( 19-C , 20-C ) :   1.5368 B( 19-C , 22-C ) :   1.0415 B( 22-C , 23-H ) :   0.9338
B( 22-C , 24-H ) :   0.9337 B( 22-C , 25-C ) :   1.0634 B( 25-C , 26-H ) :   0.9512
B( 25-C , 27-H ) :   0.9518 B( 25-C , 28-C ) :   1.0623 B( 28-C , 29-H ) :   0.9795
B( 28-C , 30-H ) :   0.9742 B( 28-C , 31-H ) :   0.9767

Dispersion correction           -0.014212306
FINAL SINGLE POINT ENERGY     -1339.876983756607

DIPOLE MOMENT
-------------
                                X             Y             Z
Electronic contribution:    -24.09494      20.07939      -0.45239
Nuclear contribution   :     24.69805     -20.28711       0.23331
                        -----------------------------------------
Total Dipole Moment    :      0.60311      -0.20772      -0.21908
                        -----------------------------------------
Magnitude (a.u.)       :      0.67445
Magnitude (Debye)      :      1.71431

Rotational constants in cm-1:     0.017741     0.009508     0.006522
Rotational constants in MHz :   531.870029   285.042052   195.531544

                             ****ORCA TERMINATED NORMALLY****
TOTAL RUN TIME: 0 days 0 hours 0 minutes 35 seconds 486 msec
