                         Program Version 4.2.1 -  RELEASE  -
|  1> ! wB97X-D3 SP def2-SVP
|  2> %pal
|  3> nprocs 16
|  4> end
|  5>
|  6> * xyz 0 1
|  7> S 	 -27.6276 	 55.692 	 112.213
|  8> C 	 -28.3418 	 54.4303 	 113.194
|  9> C 	 -29.313 	 54.9192 	 114.045
| 10> C 	 -29.4499 	 56.3404 	 113.965
| 11> C 	 -28.5257 	 56.9018 	 113.094
| 12> H 	 -30.1742 	 56.8787 	 114.522
| 13> C 	 -30.1181 	 54.0721 	 115.041
| 14> H 	 -30.5536 	 53.1729 	 114.497
| 15> H 	 -31.0103 	 54.6937 	 115.322
| 16> C 	 -29.3132 	 53.8018 	 116.289
| 17> H 	 -29.9844 	 53.4079 	 117.038
| 18> H 	 -28.4928 	 53.071 	 116.154
| 19> C 	 -28.7461 	 54.9767 	 117.037
| 20> H 	 -29.5809 	 55.6756 	 117.237
| 21> H 	 -28.1655 	 54.6265 	 117.942
| 22> H 	 -28.1262 	 55.6079 	 116.373
| 23> S 	 -28.0494 	 58.7744 	 111.093
| 24> C 	 -28.7213 	 60.424 	 111.232
| 25> C 	 -29.0064 	 60.6526 	 112.531
| 26> C 	 -29.0161 	 59.4609 	 113.339
| 27> C 	 -28.5302 	 58.297 	 112.709
| 28> H 	 -29.241 	 61.6279 	 112.948
| 29> C 	 -29.4347 	 59.631 	 114.783
| 30> H 	 -29.5588 	 58.6703 	 115.261
| 31> H 	 -30.4031 	 60.23 	 114.961
| 32> C 	 -28.4939 	 60.3772 	 115.738
| 33> H 	 -29.0185 	 60.7522 	 116.624
| 34> H 	 -28.178 	 61.2898 	 115.153
| 35> C 	 -27.2787 	 59.5397 	 116.156
| 36> H 	 -27.4692 	 58.6216 	 116.658
| 37> H 	 -26.8196 	 60.0774 	 116.879
| 38> H 	 -26.6291 	 59.3916 	 115.318
| 39> H 	 -28.1372 	 53.3488 	 113.109
| 40> H 	 -28.8159 	 61.0864 	 110.418
| 41> *
| 42>
| 43>                          ****END OF INPUT****

CARTESIAN COORDINATES (ANGSTROEM)
---------------------------------
  S    -27.627600   55.692000  112.213000
  C    -28.341800   54.430300  113.194000
  C    -29.313000   54.919200  114.045000
  C    -29.449900   56.340400  113.965000
  C    -28.525700   56.901800  113.094000
  H    -30.174200   56.878700  114.522000
  C    -30.118100   54.072100  115.041000
  H    -30.553600   53.172900  114.497000
  H    -31.010300   54.693700  115.322000
  C    -29.313200   53.801800  116.289000
  H    -29.984400   53.407900  117.038000
  H    -28.492800   53.071000  116.154000
  C    -28.746100   54.976700  117.037000
  H    -29.580900   55.675600  117.237000
  H    -28.165500   54.626500  117.942000
  H    -28.126200   55.607900  116.373000
  S    -28.049400   58.774400  111.093000
  C    -28.721300   60.424000  111.232000
  C    -29.006400   60.652600  112.531000
  C    -29.016100   59.460900  113.339000
  C    -28.530200   58.297000  112.709000
  H    -29.241000   61.627900  112.948000
  C    -29.434700   59.631000  114.783000
  H    -29.558800   58.670300  115.261000
  H    -30.403100   60.230000  114.961000
  C    -28.493900   60.377200  115.738000
  H    -29.018500   60.752200  116.624000
  H    -28.178000   61.289800  115.153000
  C    -27.278700   59.539700  116.156000
  H    -27.469200   58.621600  116.658000
  H    -26.819600   60.077400  116.879000
  H    -26.629100   59.391600  115.318000
  H    -28.137200   53.348800  113.109000
  H    -28.815900   61.086400  110.418000

 Total Charge           Charge          ....    0
 Multiplicity           Mult            ....    1
 Number of Electrons    NEL             ....  134
 Basis Dimension        Dim             ....  322

ORBITAL ENERGIES
----------------

  NO   OCC          E(Eh)            E(eV)
   0   2.0000     -88.972084     -2421.0535
   1   2.0000     -88.961644     -2420.7694
   2   2.0000     -10.334291      -281.2104
   3   2.0000     -10.333676      -281.1936
   4   2.0000     -10.318206      -280.7727
   5   2.0000     -10.315716      -280.7049
   6   2.0000     -10.305677      -280.4317
   7   2.0000     -10.303200      -280.3643
   8   2.0000     -10.300854      -280.3005
   9   2.0000     -10.294733      -280.1339
  10   2.0000     -10.294141      -280.1178
  11   2.0000     -10.291054      -280.0338
  12   2.0000     -10.287904      -279.9481
  13   2.0000     -10.284246      -279.8486
  14   2.0000     -10.281558      -279.7754
  15   2.0000     -10.258717      -279.1539
  16   2.0000      -8.086637      -220.0486
  17   2.0000      -8.076279      -219.7667
  18   2.0000      -6.045316      -164.5014
  19   2.0000      -6.041210      -164.3897
  20   2.0000      -6.037213      -164.2809
  21   2.0000      -6.035029      -164.2215
  22   2.0000      -6.030829      -164.1072
  23   2.0000      -6.026760      -163.9965
  24   2.0000      -1.008578       -27.4448
  25   2.0000      -0.984789       -26.7975
  26   2.0000      -0.917575       -24.9685
  27   2.0000      -0.907252       -24.6876
  28   2.0000      -0.874312       -23.7912
  29   2.0000      -0.852944       -23.2098
  30   2.0000      -0.842155       -22.9162
  31   2.0000      -0.816998       -22.2317
  32   2.0000      -0.782844       -21.3023
  33   2.0000      -0.774711       -21.0810
  34   2.0000      -0.708794       -19.2873
  35   2.0000      -0.697282       -18.9740
  36   2.0000      -0.690720       -18.7955
  37   2.0000      -0.661687       -18.0054
  38   2.0000      -0.637030       -17.3345
  39   2.0000      -0.617889       -16.8136
  40   2.0000      -0.601406       -16.3651
  41   2.0000      -0.575991       -15.6735
  42   2.0000      -0.557679       -15.1752
  43   2.0000      -0.556261       -15.1366
  44   2.0000      -0.549569       -14.9545
  45   2.0000      -0.530926       -14.4472
  46   2.0000      -0.515918       -14.0388
  47   2.0000      -0.511343       -13.9143
  48   2.0000      -0.502927       -13.6853
  49   2.0000      -0.501161       -13.6373
  50   2.0000      -0.494561       -13.4577
  51   2.0000      -0.478824       -13.0295
  52   2.0000      -0.470669       -12.8076
  53   2.0000      -0.466182       -12.6854
  54   2.0000      -0.461682       -12.5630
  55   2.0000      -0.452761       -12.3203
  56   2.0000      -0.448210       -12.1964
  57   2.0000      -0.441429       -12.0119
  58   2.0000      -0.422081       -11.4854
  59   2.0000      -0.420430       -11.4405
  60   2.0000      -0.415336       -11.3019
  61   2.0000      -0.407136       -11.0787
  62   2.0000      -0.405732       -11.0405
  63   2.0000      -0.364758        -9.9256
  64   2.0000      -0.337523        -9.1845
  65   2.0000      -0.323059        -8.7909
  66   2.0000      -0.281312        -7.6549
  67   0.0000       0.016926         0.4606
  68   0.0000       0.076806         2.0900
  69   0.0000       0.098587         2.6827
  70   0.0000       0.112428         3.0593
  71   0.0000       0.130206         3.5431

MULLIKEN ATOMIC CHARGES
-----------------------
   0 S :    0.115806
   1 C :   -0.124716
   2 C :   -0.108745
   3 C :   -0.006796
   4 C :   -0.098528
   5 H :    0.009867
   6 C :    0.052081
   7 H :    0.050750
   8 H :    0.024426
   9 C :   -0.054235
  10 H :    0.025243
  11 H :    0.033229
  12 C :   -0.086992
  13 H :    0.018336
  14 H :    0.057031
  15 H :    0.048019
  16 S :    0.067367
  17 C :   -0.075270
  18 C :   -0.000622
  19 C :   -0.068723
  20 C :   -0.094682
  21 H :    0.024910
  22 C :    0.026938
  23 H :    0.000401
  24 H :    0.039335
  25 C :   -0.101156
  26 H :    0.028162
  27 H :    0.022919
  28 C :    0.010385
  29 H :    0.021075
  30 H :    0.000694
  31 H :    0.039979
  32 H :    0.055122
  33 H :    0.048391
Sum of atomic charges:    0.0000000

LOEWDIN ATOMIC CHARGES
----------------------
   0 S :    0.411744
   1 C :   -0.203720
   2 C :   -0.064278
   3 C :   -0.057847
   4 C :   -0.186632
   5 H :    0.024820
   6 C :   -0.035591
   7 H :    0.041615
   8 H :    0.033003
   9 C :   -0.049750
  10 H :    0.024436
  11 H :    0.025201
  12 C :   -0.071331
  13 H :    0.022290
  14 H :    0.038314
  15 H :    0.024286
  16 S :    0.375556
  17 C :   -0.158193
  18 C :   -0.064917
  19 C :   -0.063598
  20 C :   -0.188912
  21 H :    0.033119
  22 C :   -0.045982
  23 H :    0.019384
  24 H :    0.040032
  25 C :   -0.037794
  26 H :    0.022692
  27 H :    0.024384
  28 C :   -0.056387
  29 H :    0.022878
  30 H :    0.013445
  31 H :    0.028845
  32 H :    0.035053
  33 H :    0.023834

  Mayer bond orders larger than 0.100000
B(  0-S ,  1-C ) :   1.1295 B(  0-S ,  4-C ) :   1.1525 B(  1-C ,  2-C ) :   1.6158
B(  1-C , 32-H ) :   0.9640 B(  2-C ,  3-C ) :   1.2607 B(  2-C ,  6-C ) :   1.0141
B(  3-C ,  4-C ) :   1.5356 B(  3-C ,  5-H ) :   0.9923 B(  4-C , 20-C ) :   1.0892
B(  6-C ,  7-H ) :   0.9424 B(  6-C ,  8-H ) :   0.9389 B(  6-C ,  9-C ) :   1.0726
B(  9-C , 10-H ) :   0.9538 B(  9-C , 11-H ) :   0.9546 B(  9-C , 12-C ) :   1.0799
B( 12-C , 13-H ) :   0.9718 B( 12-C , 14-H ) :   0.9701 B( 12-C , 15-H ) :   0.9677
B( 16-S , 17-C ) :   1.1376 B( 16-S , 20-C ) :   1.1173 B( 17-C , 18-C ) :   1.5996
B( 17-C , 33-H ) :   0.9794 B( 18-C , 19-C ) :   1.2413 B( 18-C , 21-H ) :   0.9875
B( 19-C , 20-C ) :   1.5749 B( 19-C , 22-C ) :   1.0559 B( 22-C , 23-H ) :   0.9346
B( 22-C , 24-H ) :   0.9370 B( 22-C , 25-C ) :   1.0699 B( 25-C , 26-H ) :   0.9558
B( 25-C , 27-H ) :   0.9529 B( 25-C , 28-C ) :   1.0831 B( 28-C , 29-H ) :   0.9703
B( 28-C , 30-H ) :   0.9667 B( 28-C , 31-H ) :   0.9758

Dispersion correction           -0.015339144
FINAL SINGLE POINT ENERGY     -1339.868787612371

DIPOLE MOMENT
-------------
                                X             Y             Z
Electronic contribution:      4.64010       0.36268     -28.36872
Nuclear contribution   :     -5.02439      -0.29710      28.95519
                        -----------------------------------------
Total Dipole Moment    :     -0.38429       0.06558       0.58647
                        -----------------------------------------
Magnitude (a.u.)       :      0.70422
Magnitude (Debye)      :      1.78998

Rotational constants in cm-1:     0.019249     0.009972     0.007330
Rotational constants in MHz :   577.080678   298.963729   219.746499

                             ****ORCA TERMINATED NORMALLY****
TOTAL RUN TIME: 0 days 0 hours 0 minutes 32 seconds 97 msec
