                         Program Version 4.2.1 -  RELEASE  -
|  1> ! wB97X-D3 SP def2-SVP
|  2> %pal
|  3> nprocs 16
|  4> end
|  5>
|  6> * xyz 0 1
|  7> S 	 8.82887 	 -6.27152 	 62.6661
|  8> C 	 8.94263 	 -4.54265 	 62.5299
|  9> C 	 10.0723 	 -4.13694 	 63.1729
| 10> C 	 10.9115 	 -5.17775 	 63.6363
| 11> C 	 10.4229 	 -6.4438 	 63.458
| 12> H 	 11.9227 	 -4.98777 	 64.0072
| 13> C 	 10.5922 	 -2.63776 	 63.2892
| 14> H 	 10.8846 	 -2.17139 	 62.3007
| 15> H 	 11.6255 	 -2.56 	 63.7318
| 16> C 	 9.67616 	 -1.62646 	 64.0464
| 17> H 	 10.1049 	 -0.622951 	 63.7881
| 18> H 	 8.63509 	 -1.57643 	 63.6115
| 19> C 	 9.40245 	 -2.03622 	 65.4649
| 20> H 	 8.75623 	 -2.91153 	 65.2752
| 21> H 	 10.3088 	 -2.33958 	 66.0842
| 22> H 	 8.74004 	 -1.29612 	 65.9868
| 23> S 	 11.1311 	 -8.81174 	 62.3546
| 24> C 	 12.2378 	 -9.84474 	 63.2629
| 25> C 	 12.57 	 -9.32251 	 64.4698
| 26> C 	 12.0066 	 -8.02615 	 64.694
| 27> C 	 11.2392 	 -7.64774 	 63.6289
| 28> H 	 13.1571 	 -9.94897 	 65.0671
| 29> C 	 12.3263 	 -7.26534 	 66.0092
| 30> H 	 12.1104 	 -6.22998 	 65.7641
| 31> H 	 13.428 	 -7.42545 	 66.0832
| 32> C 	 11.5618 	 -7.57832 	 67.3334
| 33> H 	 11.4954 	 -8.69486 	 67.2621
| 34> H 	 10.5237 	 -7.27215 	 67.3862
| 35> C 	 12.3217 	 -7.19385 	 68.6638
| 36> H 	 13.1783 	 -7.83806 	 68.8689
| 37> H 	 11.6479 	 -7.17418 	 69.562
| 38> H 	 12.6652 	 -6.16394 	 68.6479
| 39> H 	 8.09915 	 -3.87718 	 62.0847
| 40> H 	 12.5446 	 -10.8657 	 62.9472
| 41> *
| 42>
| 43>                          ****END OF INPUT****

CARTESIAN COORDINATES (ANGSTROEM)
---------------------------------
  S      8.828870   -6.271520   62.666100
  C      8.942630   -4.542650   62.529900
  C     10.072300   -4.136940   63.172900
  C     10.911500   -5.177750   63.636300
  C     10.422900   -6.443800   63.458000
  H     11.922700   -4.987770   64.007200
  C     10.592200   -2.637760   63.289200
  H     10.884600   -2.171390   62.300700
  H     11.625500   -2.560000   63.731800
  C      9.676160   -1.626460   64.046400
  H     10.104900   -0.622951   63.788100
  H      8.635090   -1.576430   63.611500
  C      9.402450   -2.036220   65.464900
  H      8.756230   -2.911530   65.275200
  H     10.308800   -2.339580   66.084200
  H      8.740040   -1.296120   65.986800
  S     11.131100   -8.811740   62.354600
  C     12.237800   -9.844740   63.262900
  C     12.570000   -9.322510   64.469800
  C     12.006600   -8.026150   64.694000
  C     11.239200   -7.647740   63.628900
  H     13.157100   -9.948970   65.067100
  C     12.326300   -7.265340   66.009200
  H     12.110400   -6.229980   65.764100
  H     13.428000   -7.425450   66.083200
  C     11.561800   -7.578320   67.333400
  H     11.495400   -8.694860   67.262100
  H     10.523700   -7.272150   67.386200
  C     12.321700   -7.193850   68.663800
  H     13.178300   -7.838060   68.868900
  H     11.647900   -7.174180   69.562000
  H     12.665200   -6.163940   68.647900
  H      8.099150   -3.877180   62.084700
  H     12.544600  -10.865700   62.947200

 Total Charge           Charge          ....    0
 Multiplicity           Mult            ....    1
 Number of Electrons    NEL             ....  134
 Basis Dimension        Dim             ....  322

ORBITAL ENERGIES
----------------

  NO   OCC          E(Eh)            E(eV)
   0   2.0000     -88.967638     -2420.9325
   1   2.0000     -88.966395     -2420.8987
   2   2.0000     -10.331329      -281.1298
   3   2.0000     -10.327360      -281.0217
   4   2.0000     -10.323692      -280.9219
   5   2.0000     -10.317032      -280.7407
   6   2.0000     -10.305301      -280.4215
   7   2.0000     -10.303781      -280.3801
   8   2.0000     -10.303532      -280.3733
   9   2.0000     -10.299323      -280.2588
  10   2.0000     -10.294991      -280.1409
  11   2.0000     -10.293015      -280.0872
  12   2.0000     -10.291450      -280.0446
  13   2.0000     -10.288854      -279.9739
  14   2.0000     -10.286007      -279.8965
  15   2.0000     -10.283280      -279.8223
  16   2.0000      -8.081891      -219.9194
  17   2.0000      -8.081500      -219.9088
  18   2.0000      -6.040588      -164.3727
  19   2.0000      -6.039987      -164.3564
  20   2.0000      -6.036355      -164.2576
  21   2.0000      -6.036059      -164.2495
  22   2.0000      -6.032552      -164.1541
  23   2.0000      -6.032154      -164.1433
  24   2.0000      -1.011036       -27.5117
  25   2.0000      -0.988586       -26.9008
  26   2.0000      -0.903047       -24.5732
  27   2.0000      -0.898581       -24.4516
  28   2.0000      -0.874208       -23.7884
  29   2.0000      -0.851158       -23.1612
  30   2.0000      -0.842376       -22.9222
  31   2.0000      -0.815043       -22.1784
  32   2.0000      -0.779675       -21.2160
  33   2.0000      -0.771794       -21.0016
  34   2.0000      -0.707827       -19.2609
  35   2.0000      -0.695196       -18.9172
  36   2.0000      -0.684709       -18.6319
  37   2.0000      -0.665658       -18.1135
  38   2.0000      -0.635435       -17.2911
  39   2.0000      -0.615571       -16.7505
  40   2.0000      -0.588942       -16.0259
  41   2.0000      -0.573224       -15.5982
  42   2.0000      -0.560164       -15.2428
  43   2.0000      -0.544290       -14.8109
  44   2.0000      -0.534614       -14.5476
  45   2.0000      -0.523381       -14.2419
  46   2.0000      -0.513508       -13.9733
  47   2.0000      -0.508125       -13.8268
  48   2.0000      -0.501361       -13.6427
  49   2.0000      -0.493791       -13.4367
  50   2.0000      -0.489360       -13.3162
  51   2.0000      -0.479486       -13.0475
  52   2.0000      -0.470197       -12.7947
  53   2.0000      -0.468136       -12.7386
  54   2.0000      -0.459166       -12.4946
  55   2.0000      -0.451834       -12.2950
  56   2.0000      -0.441916       -12.0252
  57   2.0000      -0.433018       -11.7830
  58   2.0000      -0.430738       -11.7210
  59   2.0000      -0.424050       -11.5390
  60   2.0000      -0.417842       -11.3701
  61   2.0000      -0.406046       -11.0491
  62   2.0000      -0.402557       -10.9541
  63   2.0000      -0.358325        -9.7505
  64   2.0000      -0.335436        -9.1277
  65   2.0000      -0.330922        -9.0048
  66   2.0000      -0.293145        -7.9769
  67   0.0000       0.027672         0.7530
  68   0.0000       0.076061         2.0697
  69   0.0000       0.111064         3.0222
  70   0.0000       0.122381         3.3302
  71   0.0000       0.130811         3.5596

MULLIKEN ATOMIC CHARGES
-----------------------
   0 S :    0.099689
   1 C :   -0.168858
   2 C :   -0.047264
   3 C :    0.000443
   4 C :   -0.125923
   5 H :    0.031927
   6 C :    0.003563
   7 H :    0.041962
   8 H :    0.024993
   9 C :   -0.092576
  10 H :    0.030870
  11 H :    0.025876
  12 C :   -0.068092
  13 H :    0.043779
  14 H :    0.046025
  15 H :    0.044287
  16 S :    0.111709
  17 C :   -0.108688
  18 C :   -0.014630
  19 C :   -0.048877
  20 C :   -0.161688
  21 H :   -0.003056
  22 C :    0.079896
  23 H :    0.010319
  24 H :    0.041743
  25 C :   -0.063069
  26 H :    0.025938
  27 H :    0.040393
  28 C :   -0.068956
  29 H :    0.040662
  30 H :    0.039608
  31 H :    0.029954
  32 H :    0.095104
  33 H :    0.062937
Sum of atomic charges:    0.0000000

LOEWDIN ATOMIC CHARGES
----------------------
   0 S :    0.392135
   1 C :   -0.211347
   2 C :   -0.075416
   3 C :   -0.067081
   4 C :   -0.183841
   5 H :    0.033779
   6 C :   -0.041951
   7 H :    0.036014
   8 H :    0.031446
   9 C :   -0.055651
  10 H :    0.022847
  11 H :    0.026124
  12 C :   -0.077866
  13 H :    0.033682
  14 H :    0.029218
  15 H :    0.031240
  16 S :    0.404327
  17 C :   -0.180868
  18 C :   -0.065510
  19 C :   -0.058874
  20 C :   -0.194536
  21 H :    0.025056
  22 C :   -0.031686
  23 H :    0.024441
  24 H :    0.039484
  25 C :   -0.042151
  26 H :    0.026442
  27 H :    0.027804
  28 C :   -0.070958
  29 H :    0.025680
  30 H :    0.033533
  31 H :    0.022998
  32 H :    0.056247
  33 H :    0.035238

  Mayer bond orders larger than 0.100000
B(  0-S ,  1-C ) :   1.1359 B(  0-S ,  4-C ) :   1.1392 B(  1-C ,  2-C ) :   1.6045
B(  1-C , 32-H ) :   0.9563 B(  2-C ,  3-C ) :   1.2694 B(  2-C ,  6-C ) :   0.9877
B(  3-C ,  4-C ) :   1.5667 B(  3-C ,  5-H ) :   0.9803 B(  4-C , 20-C ) :   1.0445
B(  6-C ,  7-H ) :   0.9499 B(  6-C ,  8-H ) :   0.9505 B(  6-C ,  9-C ) :   1.0711
B(  9-C , 10-H ) :   0.9557 B(  9-C , 11-H ) :   0.9596 B(  9-C , 12-C ) :   1.0544
B( 12-C , 13-H ) :   0.9700 B( 12-C , 14-H ) :   0.9764 B( 12-C , 15-H ) :   0.9724
B( 16-S , 17-C ) :   1.1323 B( 16-S , 20-C ) :   1.1384 B( 17-C , 18-C ) :   1.6608
B( 17-C , 33-H ) :   0.9606 B( 18-C , 19-C ) :   1.1959 B( 18-C , 21-H ) :   1.0000
B( 19-C , 20-C ) :   1.6345 B( 19-C , 22-C ) :   1.0245 B( 22-C , 23-H ) :   0.9228
B( 22-C , 24-H ) :   0.9429 B( 22-C , 25-C ) :   1.0511 B( 25-C , 26-H ) :   0.9626
B( 25-C , 27-H ) :   0.9594 B( 25-C , 28-C ) :   1.0666 B( 28-C , 29-H ) :   0.9782
B( 28-C , 30-H ) :   0.9759 B( 28-C , 31-H ) :   0.9779

Dispersion correction           -0.013890406
FINAL SINGLE POINT ENERGY     -1339.863417056155

DIPOLE MOMENT
-------------
                                X             Y             Z
Electronic contribution:     -5.50711     -18.27751     -22.98594
Nuclear contribution   :      5.81641      18.53701      23.35333
                        -----------------------------------------
Total Dipole Moment    :      0.30930       0.25950       0.36739
                        -----------------------------------------
Magnitude (a.u.)       :      0.54587
Magnitude (Debye)      :      1.38750

Rotational constants in cm-1:     0.016739     0.009192     0.006513
Rotational constants in MHz :   501.809080   275.560022   195.269672

                             ****ORCA TERMINATED NORMALLY****
TOTAL RUN TIME: 0 days 0 hours 0 minutes 34 seconds 677 msec
