                         Program Version 4.2.1 -  RELEASE  -
|  1> ! wB97X-D3 SP def2-SVP
|  2> %pal
|  3> nprocs 16
|  4> end
|  5>
|  6> * xyz 0 1
|  7> S 	 -5.97049 	 28.249 	 46.8525
|  8> C 	 -4.83975 	 27.2609 	 45.9692
|  9> C 	 -4.24207 	 28.0204 	 44.9929
| 10> C 	 -4.68788 	 29.3913 	 44.9328
| 11> C 	 -5.65942 	 29.6653 	 45.9
| 12> H 	 -4.4461 	 30.091 	 44.2092
| 13> C 	 -3.16442 	 27.4022 	 44.0404
| 14> H 	 -3.08997 	 26.2988 	 44.1026
| 15> H 	 -2.14666 	 27.8821 	 44.2718
| 16> C 	 -3.43781 	 27.6172 	 42.5034
| 17> H 	 -4.28938 	 26.9425 	 42.2579
| 18> H 	 -3.77229 	 28.6413 	 42.4632
| 19> C 	 -2.22615 	 27.323 	 41.5259
| 20> H 	 -1.48811 	 28.0519 	 41.6775
| 21> H 	 -1.72869 	 26.3719 	 41.6581
| 22> H 	 -2.55169 	 27.508 	 40.4885
| 23> S 	 -8.17213 	 30.7622 	 45.8118
| 24> C 	 -8.36796 	 32.5287 	 46.045
| 25> C 	 -7.13281 	 33.1453 	 46.0637
| 26> C 	 -6.03071 	 32.178 	 46.1657
| 27> C 	 -6.45883 	 30.9 	 46.0224
| 28> H 	 -6.98409 	 34.1681 	 46.3715
| 29> C 	 -4.63889 	 32.6886 	 46.5086
| 30> H 	 -3.95021 	 31.8221 	 46.673
| 31> H 	 -4.72019 	 33.2122 	 47.4944
| 32> C 	 -4.01133 	 33.6687 	 45.436
| 33> H 	 -4.68354 	 34.5184 	 45.327
| 34> H 	 -3.89236 	 33.1458 	 44.4545
| 35> C 	 -2.61399 	 34.2397 	 45.8134
| 36> H 	 -1.78265 	 33.5502 	 45.9588
| 37> H 	 -2.73698 	 34.6806 	 46.8017
| 38> H 	 -2.45116 	 34.9664 	 45.0624
| 39> H 	 -4.74753 	 26.1718 	 46.0925
| 40> H 	 -9.38046 	 32.9858 	 46.1835
| 41> *
| 42>
| 43>                          ****END OF INPUT****

CARTESIAN COORDINATES (ANGSTROEM)
---------------------------------
  S     -5.970490   28.249000   46.852500
  C     -4.839750   27.260900   45.969200
  C     -4.242070   28.020400   44.992900
  C     -4.687880   29.391300   44.932800
  C     -5.659420   29.665300   45.900000
  H     -4.446100   30.091000   44.209200
  C     -3.164420   27.402200   44.040400
  H     -3.089970   26.298800   44.102600
  H     -2.146660   27.882100   44.271800
  C     -3.437810   27.617200   42.503400
  H     -4.289380   26.942500   42.257900
  H     -3.772290   28.641300   42.463200
  C     -2.226150   27.323000   41.525900
  H     -1.488110   28.051900   41.677500
  H     -1.728690   26.371900   41.658100
  H     -2.551690   27.508000   40.488500
  S     -8.172130   30.762200   45.811800
  C     -8.367960   32.528700   46.045000
  C     -7.132810   33.145300   46.063700
  C     -6.030710   32.178000   46.165700
  C     -6.458830   30.900000   46.022400
  H     -6.984090   34.168100   46.371500
  C     -4.638890   32.688600   46.508600
  H     -3.950210   31.822100   46.673000
  H     -4.720190   33.212200   47.494400
  C     -4.011330   33.668700   45.436000
  H     -4.683540   34.518400   45.327000
  H     -3.892360   33.145800   44.454500
  C     -2.613990   34.239700   45.813400
  H     -1.782650   33.550200   45.958800
  H     -2.736980   34.680600   46.801700
  H     -2.451160   34.966400   45.062400
  H     -4.747530   26.171800   46.092500
  H     -9.380460   32.985800   46.183500

 Total Charge           Charge          ....    0
 Multiplicity           Mult            ....    1
 Number of Electrons    NEL             ....  134
 Basis Dimension        Dim             ....  322

ORBITAL ENERGIES
----------------

  NO   OCC          E(Eh)            E(eV)
   0   2.0000     -88.964901     -2420.8580
   1   2.0000     -88.963530     -2420.8207
   2   2.0000     -10.331623      -281.1378
   3   2.0000     -10.328299      -281.0473
   4   2.0000     -10.324222      -280.9364
   5   2.0000     -10.315625      -280.7024
   6   2.0000     -10.306416      -280.4518
   7   2.0000     -10.303352      -280.3685
   8   2.0000     -10.302250      -280.3385
   9   2.0000     -10.300134      -280.2809
  10   2.0000     -10.298567      -280.2383
  11   2.0000     -10.295460      -280.1537
  12   2.0000     -10.294905      -280.1386
  13   2.0000     -10.290959      -280.0312
  14   2.0000     -10.279676      -279.7242
  15   2.0000     -10.277358      -279.6611
  16   2.0000      -8.080077      -219.8701
  17   2.0000      -8.078376      -219.8238
  18   2.0000      -6.038552      -164.3174
  19   2.0000      -6.037031      -164.2760
  20   2.0000      -6.034316      -164.2021
  21   2.0000      -6.032958      -164.1651
  22   2.0000      -6.031044      -164.1130
  23   2.0000      -6.028859      -164.0536
  24   2.0000      -1.006757       -27.3953
  25   2.0000      -0.983271       -26.7562
  26   2.0000      -0.900765       -24.5111
  27   2.0000      -0.897725       -24.4283
  28   2.0000      -0.867686       -23.6109
  29   2.0000      -0.850219       -23.1356
  30   2.0000      -0.842224       -22.9181
  31   2.0000      -0.815968       -22.2036
  32   2.0000      -0.779413       -21.2089
  33   2.0000      -0.770906       -20.9774
  34   2.0000      -0.703627       -19.1467
  35   2.0000      -0.694710       -18.9040
  36   2.0000      -0.686783       -18.6883
  37   2.0000      -0.663265       -18.0484
  38   2.0000      -0.644858       -17.5475
  39   2.0000      -0.619041       -16.8450
  40   2.0000      -0.594019       -16.1641
  41   2.0000      -0.562020       -15.2933
  42   2.0000      -0.559602       -15.2276
  43   2.0000      -0.558059       -15.1855
  44   2.0000      -0.534215       -14.5367
  45   2.0000      -0.520054       -14.1514
  46   2.0000      -0.515332       -14.0229
  47   2.0000      -0.507896       -13.8206
  48   2.0000      -0.506415       -13.7803
  49   2.0000      -0.502840       -13.6830
  50   2.0000      -0.488003       -13.2792
  51   2.0000      -0.480888       -13.0856
  52   2.0000      -0.471186       -12.8216
  53   2.0000      -0.466679       -12.6990
  54   2.0000      -0.461168       -12.5490
  55   2.0000      -0.451712       -12.2917
  56   2.0000      -0.445619       -12.1259
  57   2.0000      -0.431923       -11.7532
  58   2.0000      -0.425910       -11.5896
  59   2.0000      -0.424727       -11.5574
  60   2.0000      -0.419402       -11.4125
  61   2.0000      -0.416470       -11.3327
  62   2.0000      -0.410898       -11.1811
  63   2.0000      -0.345475        -9.4008
  64   2.0000      -0.330090        -8.9822
  65   2.0000      -0.327364        -8.9080
  66   2.0000      -0.302371        -8.2279
  67   0.0000       0.033366         0.9079
  68   0.0000       0.072530         1.9736
  69   0.0000       0.113109         3.0779
  70   0.0000       0.119923         3.2633
  71   0.0000       0.124724         3.3939

MULLIKEN ATOMIC CHARGES
-----------------------
   0 S :    0.109625
   1 C :   -0.134766
   2 C :   -0.066256
   3 C :    0.072925
   4 C :   -0.178764
   5 H :   -0.009422
   6 C :    0.013808
   7 H :    0.027895
   8 H :    0.047588
   9 C :   -0.110928
  10 H :    0.040100
  11 H :    0.024764
  12 C :   -0.025011
  13 H :    0.013100
  14 H :    0.037168
  15 H :    0.040357
  16 S :    0.099782
  17 C :   -0.120942
  18 C :   -0.002420
  19 C :   -0.047179
  20 C :   -0.141732
  21 H :    0.028567
  22 C :    0.028045
  23 H :    0.038101
  24 H :    0.040685
  25 C :   -0.116344
  26 H :    0.032028
  27 H :    0.041131
  28 C :   -0.023134
  29 H :    0.037243
  30 H :    0.020028
  31 H :    0.036189
  32 H :    0.064332
  33 H :    0.083438
Sum of atomic charges:    0.0000000

LOEWDIN ATOMIC CHARGES
----------------------
   0 S :    0.415489
   1 C :   -0.204085
   2 C :   -0.063832
   3 C :   -0.054716
   4 C :   -0.194881
   5 H :    0.019467
   6 C :   -0.037660
   7 H :    0.027460
   8 H :    0.035560
   9 C :   -0.042190
  10 H :    0.026613
  11 H :    0.016827
  12 C :   -0.063550
  13 H :    0.016964
  14 H :    0.025583
  15 H :    0.033402
  16 S :    0.388891
  17 C :   -0.168998
  18 C :   -0.069924
  19 C :   -0.058852
  20 C :   -0.208074
  21 H :    0.029712
  22 C :   -0.038100
  23 H :    0.033569
  24 H :    0.035644
  25 C :   -0.037753
  26 H :    0.021696
  27 H :    0.026833
  28 C :   -0.062915
  29 H :    0.025612
  30 H :    0.023977
  31 H :    0.024409
  32 H :    0.037527
  33 H :    0.040298

  Mayer bond orders larger than 0.100000
B(  0-S ,  1-C ) :   1.1362 B(  0-S ,  4-C ) :   1.1749 B(  1-C ,  2-C ) :   1.6135
B(  1-C , 32-H ) :   0.9690 B(  2-C ,  3-C ) :   1.2366 B(  2-C ,  6-C ) :   1.0130
B(  3-C ,  4-C ) :   1.5594 B(  3-C ,  5-H ) :   1.0045 B(  4-C , 20-C ) :   1.0055
B(  6-C ,  7-H ) :   0.9546 B(  6-C ,  8-H ) :   0.9468 B(  6-C ,  9-C ) :   1.0424
B(  9-C , 10-H ) :   0.9618 B(  9-C , 11-H ) :   0.9635 B(  9-C , 12-C ) :   1.0713
B( 12-C , 13-H ) :   0.9737 B( 12-C , 14-H ) :   0.9780 B( 12-C , 15-H ) :   0.9749
B( 16-S , 17-C ) :   1.1363 B( 16-S , 20-C ) :   1.1271 B( 17-C , 18-C ) :   1.6422
B( 17-C , 33-H ) :   0.9631 B( 18-C , 19-C ) :   1.2017 B( 18-C , 21-H ) :   0.9770
B( 19-C , 20-C ) :   1.6616 B( 19-C , 22-C ) :   1.0474 B( 22-C , 23-H ) :   0.9375
B( 22-C , 24-H ) :   0.9358 B( 22-C , 25-C ) :   1.0545 B( 25-C , 26-H ) :   0.9566
B( 25-C , 27-H ) :   0.9578 B( 25-C , 28-C ) :   1.0777 B( 28-C , 29-H ) :   0.9772
B( 28-C , 30-H ) :   0.9730 B( 28-C , 31-H ) :   0.9759

Dispersion correction           -0.013532526
FINAL SINGLE POINT ENERGY     -1339.881732889388

DIPOLE MOMENT
-------------
                                X             Y             Z
Electronic contribution:    -25.02744      -6.56398      14.51096
Nuclear contribution   :     25.45385       6.87477     -14.72374
                        -----------------------------------------
Total Dipole Moment    :      0.42641       0.31079      -0.21278
                        -----------------------------------------
Magnitude (a.u.)       :      0.56894
Magnitude (Debye)      :      1.44613

Rotational constants in cm-1:     0.015739     0.008477     0.006496
Rotational constants in MHz :   471.853785   254.119246   194.757818

                             ****ORCA TERMINATED NORMALLY****
TOTAL RUN TIME: 0 days 0 hours 0 minutes 32 seconds 813 msec
