                         Program Version 4.2.1 -  RELEASE  -
|  1> ! wB97X-D3 SP def2-SVP
|  2> %pal
|  3> nprocs 16
|  4> end
|  5>
|  6> * xyz 0 1
|  7> S 	 53.4995 	 1.55524 	 84.4352
|  8> C 	 53.7714 	 2.34593 	 82.8407
|  9> C 	 54.6783 	 1.5564 	 82.0739
| 10> C 	 55.0206 	 0.336227 	 82.699
| 11> C 	 54.5663 	 0.181661 	 84.014
| 12> H 	 55.5985 	 -0.426393 	 82.2312
| 13> C 	 55.1371 	 1.91865 	 80.699
| 14> H 	 56.1838 	 1.95486 	 80.6315
| 15> H 	 54.7636 	 2.92139 	 80.5485
| 16> C 	 54.5915 	 1.05997 	 79.6101
| 17> H 	 54.9203 	 0.0593286 	 79.7117
| 18> H 	 53.5324 	 1.05376 	 79.7415
| 19> C 	 54.9737 	 1.45894 	 78.2204
| 20> H 	 54.5065 	 2.43111 	 77.9595
| 21> H 	 55.9933 	 1.46165 	 78.0093
| 22> H 	 54.461 	 0.837837 	 77.5295
| 23> S 	 53.2013 	 -1.62101 	 85.5212
| 24> C 	 54.0143 	 -2.81943 	 86.4435
| 25> C 	 55.3827 	 -2.73429 	 86.1587
| 26> C 	 55.7649 	 -1.80489 	 85.1386
| 27> C 	 54.6899 	 -1.00362 	 84.8059
| 28> H 	 56.1261 	 -3.39269 	 86.6367
| 29> C 	 57.2221 	 -1.58079 	 84.8067
| 30> H 	 57.1166 	 -1.0812 	 83.8776
| 31> H 	 57.6882 	 -2.45945 	 84.3726
| 32> C 	 58.0242 	 -0.845505 	 85.8304
| 33> H 	 57.7333 	 -1.19047 	 86.8507
| 34> H 	 57.764 	 0.174845 	 85.6581
| 35> C 	 59.5985 	 -1.2057 	 85.7853
| 36> H 	 59.8636 	 -1.19747 	 84.7633
| 37> H 	 59.8447 	 -2.24342 	 86.0438
| 38> H 	 60.2843 	 -0.491776 	 86.3056
| 39> H 	 53.2957 	 3.20668 	 82.5393
| 40> H 	 53.6294 	 -3.58978 	 87.1474
| 41> *
| 42>
| 43>                          ****END OF INPUT****

CARTESIAN COORDINATES (ANGSTROEM)
---------------------------------
  S     53.499500    1.555240   84.435200
  C     53.771400    2.345930   82.840700
  C     54.678300    1.556400   82.073900
  C     55.020600    0.336227   82.699000
  C     54.566300    0.181661   84.014000
  H     55.598500   -0.426393   82.231200
  C     55.137100    1.918650   80.699000
  H     56.183800    1.954860   80.631500
  H     54.763600    2.921390   80.548500
  C     54.591500    1.059970   79.610100
  H     54.920300    0.059329   79.711700
  H     53.532400    1.053760   79.741500
  C     54.973700    1.458940   78.220400
  H     54.506500    2.431110   77.959500
  H     55.993300    1.461650   78.009300
  H     54.461000    0.837837   77.529500
  S     53.201300   -1.621010   85.521200
  C     54.014300   -2.819430   86.443500
  C     55.382700   -2.734290   86.158700
  C     55.764900   -1.804890   85.138600
  C     54.689900   -1.003620   84.805900
  H     56.126100   -3.392690   86.636700
  C     57.222100   -1.580790   84.806700
  H     57.116600   -1.081200   83.877600
  H     57.688200   -2.459450   84.372600
  C     58.024200   -0.845505   85.830400
  H     57.733300   -1.190470   86.850700
  H     57.764000    0.174845   85.658100
  C     59.598500   -1.205700   85.785300
  H     59.863600   -1.197470   84.763300
  H     59.844700   -2.243420   86.043800
  H     60.284300   -0.491776   86.305600
  H     53.295700    3.206680   82.539300
  H     53.629400   -3.589780   87.147400

 Total Charge           Charge          ....    0
 Multiplicity           Mult            ....    1
 Number of Electrons    NEL             ....  134
 Basis Dimension        Dim             ....  322

ORBITAL ENERGIES
----------------

  NO   OCC          E(Eh)            E(eV)
   0   2.0000     -88.969926     -2420.9948
   1   2.0000     -88.965605     -2420.8772
   2   2.0000     -10.334281      -281.2101
   3   2.0000     -10.327518      -281.0260
   4   2.0000     -10.319274      -280.8017
   5   2.0000     -10.319267      -280.8015
   6   2.0000     -10.304465      -280.3988
   7   2.0000     -10.302042      -280.3328
   8   2.0000     -10.293613      -280.1035
   9   2.0000     -10.293033      -280.0877
  10   2.0000     -10.290493      -280.0186
  11   2.0000     -10.284022      -279.8425
  12   2.0000     -10.283042      -279.8158
  13   2.0000     -10.281610      -279.7768
  14   2.0000     -10.274770      -279.5907
  15   2.0000     -10.270303      -279.4691
  16   2.0000      -8.082872      -219.9461
  17   2.0000      -8.080591      -219.8840
  18   2.0000      -6.041493      -164.3974
  19   2.0000      -6.039166      -164.3341
  20   2.0000      -6.037554      -164.2902
  21   2.0000      -6.034887      -164.2176
  22   2.0000      -6.033684      -164.1849
  23   2.0000      -6.031408      -164.1229
  24   2.0000      -1.006087       -27.3770
  25   2.0000      -0.978712       -26.6321
  26   2.0000      -0.923569       -25.1316
  27   2.0000      -0.912331       -24.8258
  28   2.0000      -0.871892       -23.7254
  29   2.0000      -0.852010       -23.1844
  30   2.0000      -0.842739       -22.9321
  31   2.0000      -0.813783       -22.1442
  32   2.0000      -0.785876       -21.3848
  33   2.0000      -0.774951       -21.0875
  34   2.0000      -0.714344       -19.4383
  35   2.0000      -0.705221       -19.1900
  36   2.0000      -0.701518       -19.0893
  37   2.0000      -0.660195       -17.9648
  38   2.0000      -0.645613       -17.5680
  39   2.0000      -0.623583       -16.9686
  40   2.0000      -0.596737       -16.2380
  41   2.0000      -0.584526       -15.9058
  42   2.0000      -0.561252       -15.2724
  43   2.0000      -0.557334       -15.1658
  44   2.0000      -0.530299       -14.4302
  45   2.0000      -0.526576       -14.3289
  46   2.0000      -0.520126       -14.1533
  47   2.0000      -0.517498       -14.0818
  48   2.0000      -0.508100       -13.8261
  49   2.0000      -0.504785       -13.7359
  50   2.0000      -0.498558       -13.5664
  51   2.0000      -0.478980       -13.0337
  52   2.0000      -0.469492       -12.7755
  53   2.0000      -0.462935       -12.5971
  54   2.0000      -0.458672       -12.4811
  55   2.0000      -0.453208       -12.3324
  56   2.0000      -0.445141       -12.1129
  57   2.0000      -0.436372       -11.8743
  58   2.0000      -0.434708       -11.8290
  59   2.0000      -0.425619       -11.5817
  60   2.0000      -0.419368       -11.4116
  61   2.0000      -0.416216       -11.3258
  62   2.0000      -0.406762       -11.0686
  63   2.0000      -0.349725        -9.5165
  64   2.0000      -0.333719        -9.0810
  65   2.0000      -0.327762        -8.9189
  66   2.0000      -0.286949        -7.8083
  67   0.0000       0.020757         0.5648
  68   0.0000       0.070515         1.9188
  69   0.0000       0.112361         3.0575
  70   0.0000       0.117306         3.1921
  71   0.0000       0.134359         3.6561

MULLIKEN ATOMIC CHARGES
-----------------------
   0 S :    0.102544
   1 C :   -0.099030
   2 C :   -0.092075
   3 C :    0.027006
   4 C :   -0.144450
   5 H :    0.015082
   6 C :    0.125635
   7 H :    0.014157
   8 H :   -0.000505
   9 C :   -0.073856
  10 H :    0.014192
  11 H :    0.019202
  12 C :    0.001118
  13 H :    0.017730
  14 H :    0.023955
  15 H :    0.018857
  16 S :    0.115943
  17 C :   -0.095567
  18 C :   -0.060714
  19 C :   -0.067954
  20 C :   -0.164986
  21 H :    0.022825
  22 C :    0.117299
  23 H :   -0.024414
  24 H :    0.012311
  25 C :   -0.035001
  26 H :    0.041952
  27 H :    0.039664
  28 C :   -0.065954
  29 H :    0.013668
  30 H :    0.033989
  31 H :    0.049617
  32 H :    0.023679
  33 H :    0.074085
Sum of atomic charges:    0.0000000

LOEWDIN ATOMIC CHARGES
----------------------
   0 S :    0.378082
   1 C :   -0.172329
   2 C :   -0.051859
   3 C :   -0.058974
   4 C :   -0.183336
   5 H :    0.025413
   6 C :   -0.027025
   7 H :    0.023564
   8 H :    0.028395
   9 C :   -0.036899
  10 H :    0.017474
  11 H :    0.024400
  12 C :   -0.055268
  13 H :    0.027490
  14 H :    0.016856
  15 H :    0.025648
  16 S :    0.418808
  17 C :   -0.210725
  18 C :   -0.074101
  19 C :   -0.055729
  20 C :   -0.193069
  21 H :    0.030257
  22 C :   -0.041768
  23 H :    0.024223
  24 H :    0.030813
  25 C :   -0.029540
  26 H :    0.029149
  27 H :    0.028987
  28 C :   -0.069465
  29 H :    0.014851
  30 H :    0.027478
  31 H :    0.032720
  32 H :    0.010904
  33 H :    0.044574

  Mayer bond orders larger than 0.100000
B(  0-S ,  1-C ) :   1.1316 B(  0-S ,  4-C ) :   1.1410 B(  1-C ,  2-C ) :   1.5692
B(  1-C ,  4-C ) :   0.1072 B(  1-C , 32-H ) :   0.9807 B(  2-C ,  3-C ) :   1.2651
B(  2-C ,  6-C ) :   1.0419 B(  3-C ,  4-C ) :   1.5453 B(  3-C ,  5-H ) :   0.9854
B(  4-C , 20-C ) :   1.0808 B(  6-C ,  7-H ) :   0.9287 B(  6-C ,  8-H ) :   0.9298
B(  6-C ,  9-C ) :   1.0756 B(  9-C , 10-H ) :   0.9489 B(  9-C , 11-H ) :   0.9493
B(  9-C , 12-C ) :   1.1057 B( 12-C , 13-H ) :   0.9689 B( 12-C , 14-H ) :   0.9730
B( 12-C , 15-H ) :   0.9676 B( 16-S , 17-C ) :   1.1496 B( 16-S , 20-C ) :   1.1465
B( 17-C , 18-C ) :   1.5947 B( 17-C , 33-H ) :   0.9650 B( 18-C , 19-C ) :   1.2572
B( 18-C , 21-H ) :   0.9804 B( 19-C , 20-C ) :   1.5678 B( 19-C , 22-C ) :   1.0539
B( 22-C , 23-H ) :   0.9059 B( 22-C , 24-H ) :   0.9220 B( 22-C , 25-C ) :   1.0394
B( 25-C , 26-H ) :   0.9694 B( 25-C , 27-H ) :   0.9566 B( 25-C , 28-C ) :   1.0561
B( 28-C , 29-H ) :   0.9770 B( 28-C , 30-H ) :   0.9780 B( 28-C , 31-H ) :   0.9777

Dispersion correction           -0.013591001
FINAL SINGLE POINT ENERGY     -1339.859498739301

DIPOLE MOMENT
-------------
                                X             Y             Z
Electronic contribution:    -21.01140      -1.10624      16.90252
Nuclear contribution   :     21.48773       0.95955     -17.38738
                        -----------------------------------------
Total Dipole Moment    :      0.47633      -0.14669      -0.48486
                        -----------------------------------------
Magnitude (a.u.)       :      0.69534
Magnitude (Debye)      :      1.76742

Rotational constants in cm-1:     0.017444     0.007989     0.006507
Rotational constants in MHz :   522.950866   239.504072   195.061794

                             ****ORCA TERMINATED NORMALLY****
TOTAL RUN TIME: 0 days 0 hours 0 minutes 27 seconds 835 msec
