                         Program Version 4.2.1 -  RELEASE  -
|  1> ! wB97X-D3 SP def2-SVP
|  2> %pal
|  3> nprocs 16
|  4> end
|  5>
|  6> * xyz 0 1
|  7> S 	 16.5695 	 19.3094 	 38.6301
|  8> C 	 17.227 	 19.8552 	 37.0707
|  9> C 	 16.2111 	 20.3056 	 36.2231
| 10> C 	 14.9411 	 20.229 	 36.8353
| 11> C 	 14.9655 	 19.7207 	 38.1212
| 12> H 	 13.979 	 20.4377 	 36.4516
| 13> C 	 16.3102 	 20.7792 	 34.7968
| 14> H 	 15.3031 	 20.5342 	 34.3079
| 15> H 	 16.9725 	 20.1875 	 34.072
| 16> C 	 16.4962 	 22.3021 	 34.6405
| 17> H 	 16.2176 	 22.4989 	 33.5867
| 18> H 	 15.8509 	 22.8134 	 35.3678
| 19> C 	 17.926 	 22.7998 	 34.8519
| 20> H 	 18.6044 	 22.4843 	 34.0386
| 21> H 	 17.9693 	 23.8475 	 35.0545
| 22> H 	 18.3692 	 22.306 	 35.7579
| 23> S 	 14.3382 	 20.2941 	 40.8099
| 24> C 	 12.6706 	 20.4009 	 41.3008
| 25> C 	 11.9176 	 19.8516 	 40.3098
| 26> C 	 12.5906 	 19.5408 	 39.0938
| 27> C 	 13.9392 	 19.873 	 39.1289
| 28> H 	 10.8144 	 19.7543 	 40.4747
| 29> C 	 11.9708 	 18.6877 	 38.0257
| 30> H 	 11.5819 	 17.7688 	 38.5771
| 31> H 	 12.786 	 18.3443 	 37.3646
| 32> C 	 10.835 	 19.371 	 37.2062
| 33> H 	 10.0821 	 19.6514 	 37.9273
| 34> H 	 10.3469 	 18.6384 	 36.56
| 35> C 	 11.2087 	 20.5681 	 36.3839
| 36> H 	 11.9771 	 20.2647 	 35.5752
| 37> H 	 11.7668 	 21.3625 	 36.8877
| 38> H 	 10.3545 	 21.057 	 35.8434
| 39> H 	 18.2283 	 19.6094 	 36.7552
| 40> H 	 12.3554 	 20.6367 	 42.2517
| 41> *
| 42>
| 43>                          ****END OF INPUT****

CARTESIAN COORDINATES (ANGSTROEM)
---------------------------------
  S     16.569500   19.309400   38.630100
  C     17.227000   19.855200   37.070700
  C     16.211100   20.305600   36.223100
  C     14.941100   20.229000   36.835300
  C     14.965500   19.720700   38.121200
  H     13.979000   20.437700   36.451600
  C     16.310200   20.779200   34.796800
  H     15.303100   20.534200   34.307900
  H     16.972500   20.187500   34.072000
  C     16.496200   22.302100   34.640500
  H     16.217600   22.498900   33.586700
  H     15.850900   22.813400   35.367800
  C     17.926000   22.799800   34.851900
  H     18.604400   22.484300   34.038600
  H     17.969300   23.847500   35.054500
  H     18.369200   22.306000   35.757900
  S     14.338200   20.294100   40.809900
  C     12.670600   20.400900   41.300800
  C     11.917600   19.851600   40.309800
  C     12.590600   19.540800   39.093800
  C     13.939200   19.873000   39.128900
  H     10.814400   19.754300   40.474700
  C     11.970800   18.687700   38.025700
  H     11.581900   17.768800   38.577100
  H     12.786000   18.344300   37.364600
  C     10.835000   19.371000   37.206200
  H     10.082100   19.651400   37.927300
  H     10.346900   18.638400   36.560000
  C     11.208700   20.568100   36.383900
  H     11.977100   20.264700   35.575200
  H     11.766800   21.362500   36.887700
  H     10.354500   21.057000   35.843400
  H     18.228300   19.609400   36.755200
  H     12.355400   20.636700   42.251700

 Total Charge           Charge          ....    0
 Multiplicity           Mult            ....    1
 Number of Electrons    NEL             ....  134
 Basis Dimension        Dim             ....  322

ORBITAL ENERGIES
----------------

  NO   OCC          E(Eh)            E(eV)
   0   2.0000     -88.968644     -2420.9599
   1   2.0000     -88.961573     -2420.7675
   2   2.0000     -10.329006      -281.0666
   3   2.0000     -10.328669      -281.0574
   4   2.0000     -10.320046      -280.8227
   5   2.0000     -10.311834      -280.5993
   6   2.0000     -10.307173      -280.4724
   7   2.0000     -10.303532      -280.3734
   8   2.0000     -10.299642      -280.2675
   9   2.0000     -10.298254      -280.2297
  10   2.0000     -10.294447      -280.1262
  11   2.0000     -10.292014      -280.0600
  12   2.0000     -10.290052      -280.0065
  13   2.0000     -10.288066      -279.9525
  14   2.0000     -10.287960      -279.9496
  15   2.0000     -10.276243      -279.6308
  16   2.0000      -8.083335      -219.9587
  17   2.0000      -8.076274      -219.7666
  18   2.0000      -6.041829      -164.4065
  19   2.0000      -6.037797      -164.2968
  20   2.0000      -6.034929      -164.2188
  21   2.0000      -6.034173      -164.1982
  22   2.0000      -6.030877      -164.1085
  23   2.0000      -6.026762      -163.9965
  24   2.0000      -1.010329       -27.4924
  25   2.0000      -0.986327       -26.8393
  26   2.0000      -0.911768       -24.8105
  27   2.0000      -0.909287       -24.7430
  28   2.0000      -0.871172       -23.7058
  29   2.0000      -0.853637       -23.2286
  30   2.0000      -0.844938       -22.9919
  31   2.0000      -0.814574       -22.1657
  32   2.0000      -0.781453       -21.2644
  33   2.0000      -0.774091       -21.0641
  34   2.0000      -0.709374       -19.3031
  35   2.0000      -0.701760       -19.0959
  36   2.0000      -0.693347       -18.8669
  37   2.0000      -0.655926       -17.8487
  38   2.0000      -0.645644       -17.5689
  39   2.0000      -0.620592       -16.8872
  40   2.0000      -0.598957       -16.2985
  41   2.0000      -0.572973       -15.5914
  42   2.0000      -0.551741       -15.0136
  43   2.0000      -0.543926       -14.8010
  44   2.0000      -0.540304       -14.7024
  45   2.0000      -0.538203       -14.6452
  46   2.0000      -0.524563       -14.2741
  47   2.0000      -0.515528       -14.0282
  48   2.0000      -0.510325       -13.8866
  49   2.0000      -0.492652       -13.4057
  50   2.0000      -0.489919       -13.3314
  51   2.0000      -0.481522       -13.1029
  52   2.0000      -0.470695       -12.8083
  53   2.0000      -0.463461       -12.6114
  54   2.0000      -0.459080       -12.4922
  55   2.0000      -0.446058       -12.1378
  56   2.0000      -0.444169       -12.0865
  57   2.0000      -0.440255       -11.9799
  58   2.0000      -0.433268       -11.7898
  59   2.0000      -0.422031       -11.4841
  60   2.0000      -0.415350       -11.3023
  61   2.0000      -0.414011       -11.2658
  62   2.0000      -0.406797       -11.0695
  63   2.0000      -0.356968        -9.7136
  64   2.0000      -0.335825        -9.1383
  65   2.0000      -0.325830        -8.8663
  66   2.0000      -0.287017        -7.8101
  67   0.0000       0.020750         0.5646
  68   0.0000       0.069862         1.9010
  69   0.0000       0.097843         2.6625
  70   0.0000       0.120321         3.2741
  71   0.0000       0.126030         3.4294

MULLIKEN ATOMIC CHARGES
-----------------------
   0 S :    0.099062
   1 C :   -0.118826
   2 C :   -0.042682
   3 C :    0.065108
   4 C :   -0.150118
   5 H :   -0.057056
   6 C :   -0.017247
   7 H :    0.032359
   8 H :    0.042299
   9 C :   -0.053395
  10 H :    0.035097
  11 H :    0.035992
  12 C :   -0.053451
  13 H :    0.031377
  14 H :    0.036988
  15 H :    0.023935
  16 S :    0.084363
  17 C :   -0.056274
  18 C :   -0.042957
  19 C :   -0.052478
  20 C :   -0.120196
  21 H :    0.034088
  22 C :    0.017629
  23 H :    0.053086
  24 H :    0.032898
  25 C :   -0.034562
  26 H :    0.020751
  27 H :    0.031553
  28 C :   -0.097445
  29 H :    0.041997
  30 H :    0.048559
  31 H :    0.047808
  32 H :    0.052694
  33 H :    0.029041
Sum of atomic charges:   -0.0000000

LOEWDIN ATOMIC CHARGES
----------------------
   0 S :    0.405549
   1 C :   -0.186637
   2 C :   -0.060842
   3 C :   -0.053781
   4 C :   -0.191622
   5 H :    0.021286
   6 C :   -0.045649
   7 H :    0.038045
   8 H :    0.036147
   9 C :   -0.039529
  10 H :    0.027708
  11 H :    0.028364
  12 C :   -0.072351
  13 H :    0.025694
  14 H :    0.023469
  15 H :    0.027890
  16 S :    0.387527
  17 C :   -0.171273
  18 C :   -0.075536
  19 C :   -0.071657
  20 C :   -0.185801
  21 H :    0.036296
  22 C :   -0.033240
  23 H :    0.045859
  24 H :    0.029777
  25 C :   -0.044470
  26 H :    0.020782
  27 H :    0.026991
  28 C :   -0.078864
  29 H :    0.028079
  30 H :    0.024447
  31 H :    0.035469
  32 H :    0.025645
  33 H :    0.016228

  Mayer bond orders larger than 0.100000
B(  0-S ,  1-C ) :   1.1376 B(  0-S ,  4-C ) :   1.1516 B(  1-C ,  2-C ) :   1.5829
B(  1-C , 32-H ) :   0.9693 B(  2-C ,  3-C ) :   1.2576 B(  2-C ,  6-C ) :   1.0173
B(  3-C ,  4-C ) :   1.5524 B(  3-C ,  5-H ) :   0.9889 B(  4-C , 20-C ) :   1.0594
B(  6-C ,  7-H ) :   0.9438 B(  6-C ,  8-H ) :   0.9473 B(  6-C ,  9-C ) :   1.0647
B(  9-C , 10-H ) :   0.9550 B(  9-C , 11-H ) :   0.9546 B(  9-C , 12-C ) :   1.0816
B( 12-C , 13-H ) :   0.9746 B( 12-C , 14-H ) :   0.9751 B( 12-C , 15-H ) :   0.9714
B( 16-S , 17-C ) :   1.1447 B( 16-S , 20-C ) :   1.1283 B( 17-C , 18-C ) :   1.6101
B( 17-C , 33-H ) :   0.9817 B( 18-C , 19-C ) :   1.2452 B( 18-C , 21-H ) :   0.9808
B( 19-C , 20-C ) :   1.5690 B( 19-C , 22-C ) :   1.0408 B( 22-C , 23-H ) :   0.9402
B( 22-C , 24-H ) :   0.9357 B( 22-C , 25-C ) :   1.0628 B( 25-C , 26-H ) :   0.9550
B( 25-C , 27-H ) :   0.9533 B( 25-C , 28-C ) :   1.0855 B( 28-C , 29-H ) :   0.9590
B( 28-C , 30-H ) :   0.9664 B( 28-C , 31-H ) :   0.9658

Dispersion correction           -0.014994386
FINAL SINGLE POINT ENERGY     -1339.880589659064

DIPOLE MOMENT
-------------
                                X             Y             Z
Electronic contribution:      7.15186      -8.06794      24.20193
Nuclear contribution   :     -7.58248       8.02386     -24.67347
                        -----------------------------------------
Total Dipole Moment    :     -0.43063      -0.04408      -0.47154
                        -----------------------------------------
Magnitude (a.u.)       :      0.64010
Magnitude (Debye)      :      1.62701

Rotational constants in cm-1:     0.019583     0.008990     0.007044
Rotational constants in MHz :   587.076378   269.514793   211.174224

                             ****ORCA TERMINATED NORMALLY****
TOTAL RUN TIME: 0 days 0 hours 0 minutes 36 seconds 57 msec
