                         Program Version 4.2.1 -  RELEASE  -
|  1> ! wB97X-D3 SP def2-SVP
|  2> %pal
|  3> nprocs 16
|  4> end
|  5>
|  6> * xyz 0 1
|  7> S 	 -4.89173 	 -16.9762 	 91.5454
|  8> C 	 -6.54956 	 -17.3804 	 91.5544
|  9> C 	 -7.31898 	 -16.439 	 90.892
| 10> C 	 -6.54014 	 -15.3827 	 90.322
| 11> C 	 -5.17246 	 -15.689 	 90.3515
| 12> H 	 -6.76131 	 -14.4799 	 89.7899
| 13> C 	 -8.83343 	 -16.3518 	 90.7959
| 14> H 	 -9.44811 	 -17.2286 	 90.8614
| 15> H 	 -9.16525 	 -16.0627 	 89.7229
| 16> C 	 -9.40375 	 -15.3309 	 91.7561
| 17> H 	 -9.08396 	 -14.3094 	 91.4255
| 18> H 	 -10.4895 	 -15.3123 	 91.554
| 19> C 	 -9.18078 	 -15.6368 	 93.2035
| 20> H 	 -9.5313 	 -14.9355 	 93.9033
| 21> H 	 -9.68619 	 -16.5622 	 93.45
| 22> H 	 -8.09514 	 -15.8344 	 93.3937
| 23> S 	 -2.77595 	 -14.3317 	 90.8906
| 24> C 	 -1.96147 	 -13.402 	 89.7091
| 25> C 	 -2.75314 	 -13.4812 	 88.5347
| 26> C 	 -3.86411 	 -14.3912 	 88.5968
| 27> C 	 -4.09 	 -14.9047 	 89.8282
| 28> H 	 -2.51462 	 -12.8837 	 87.6751
| 29> C 	 -4.77614 	 -14.776 	 87.3973
| 30> H 	 -5.33717 	 -15.6792 	 87.6075
| 31> H 	 -4.05992 	 -15.1427 	 86.6582
| 32> C 	 -5.7783 	 -13.759 	 86.8074
| 33> H 	 -6.59521 	 -13.2943 	 87.5162
| 34> H 	 -6.2999 	 -14.2941 	 86.0496
| 35> C 	 -5.00402 	 -12.5857 	 86.1834
| 36> H 	 -4.29353 	 -12.9422 	 85.4339
| 37> H 	 -4.39813 	 -11.9948 	 86.8678
| 38> H 	 -5.53728 	 -11.8136 	 85.7453
| 39> H 	 -6.95811 	 -18.2678 	 92.1256
| 40> H 	 -1.14998 	 -12.6556 	 89.8131
| 41> *
| 42>
| 43>                          ****END OF INPUT****

CARTESIAN COORDINATES (ANGSTROEM)
---------------------------------
  S     -4.891730  -16.976200   91.545400
  C     -6.549560  -17.380400   91.554400
  C     -7.318980  -16.439000   90.892000
  C     -6.540140  -15.382700   90.322000
  C     -5.172460  -15.689000   90.351500
  H     -6.761310  -14.479900   89.789900
  C     -8.833430  -16.351800   90.795900
  H     -9.448110  -17.228600   90.861400
  H     -9.165250  -16.062700   89.722900
  C     -9.403750  -15.330900   91.756100
  H     -9.083960  -14.309400   91.425500
  H    -10.489500  -15.312300   91.554000
  C     -9.180780  -15.636800   93.203500
  H     -9.531300  -14.935500   93.903300
  H     -9.686190  -16.562200   93.450000
  H     -8.095140  -15.834400   93.393700
  S     -2.775950  -14.331700   90.890600
  C     -1.961470  -13.402000   89.709100
  C     -2.753140  -13.481200   88.534700
  C     -3.864110  -14.391200   88.596800
  C     -4.090000  -14.904700   89.828200
  H     -2.514620  -12.883700   87.675100
  C     -4.776140  -14.776000   87.397300
  H     -5.337170  -15.679200   87.607500
  H     -4.059920  -15.142700   86.658200
  C     -5.778300  -13.759000   86.807400
  H     -6.595210  -13.294300   87.516200
  H     -6.299900  -14.294100   86.049600
  C     -5.004020  -12.585700   86.183400
  H     -4.293530  -12.942200   85.433900
  H     -4.398130  -11.994800   86.867800
  H     -5.537280  -11.813600   85.745300
  H     -6.958110  -18.267800   92.125600
  H     -1.149980  -12.655600   89.813100

 Total Charge           Charge          ....    0
 Multiplicity           Mult            ....    1
 Number of Electrons    NEL             ....  134
 Basis Dimension        Dim             ....  322

ORBITAL ENERGIES
----------------

  NO   OCC          E(Eh)            E(eV)
   0   2.0000     -88.966429     -2420.8996
   1   2.0000     -88.962042     -2420.7802
   2   2.0000     -10.331358      -281.1306
   3   2.0000     -10.324174      -280.9351
   4   2.0000     -10.323520      -280.9172
   5   2.0000     -10.319615      -280.8110
   6   2.0000     -10.306807      -280.4625
   7   2.0000     -10.302567      -280.3471
   8   2.0000     -10.299317      -280.2587
   9   2.0000     -10.298643      -280.2403
  10   2.0000     -10.295732      -280.1611
  11   2.0000     -10.295654      -280.1590
  12   2.0000     -10.293540      -280.1015
  13   2.0000     -10.285899      -279.8936
  14   2.0000     -10.270562      -279.4762
  15   2.0000     -10.269851      -279.4569
  16   2.0000      -8.081657      -219.9131
  17   2.0000      -8.077039      -219.7874
  18   2.0000      -6.040062      -164.3584
  19   2.0000      -6.036197      -164.2533
  20   2.0000      -6.035558      -164.2359
  21   2.0000      -6.032378      -164.1494
  22   2.0000      -6.031359      -164.1216
  23   2.0000      -6.027866      -164.0266
  24   2.0000      -1.009232       -27.4626
  25   2.0000      -0.987019       -26.8581
  26   2.0000      -0.915672       -24.9167
  27   2.0000      -0.906323       -24.6623
  28   2.0000      -0.873894       -23.7799
  29   2.0000      -0.850603       -23.1461
  30   2.0000      -0.842725       -22.9317
  31   2.0000      -0.810297       -22.0493
  32   2.0000      -0.787105       -21.4182
  33   2.0000      -0.778264       -21.1777
  34   2.0000      -0.708968       -19.2920
  35   2.0000      -0.698277       -19.0011
  36   2.0000      -0.690059       -18.7775
  37   2.0000      -0.662099       -18.0166
  38   2.0000      -0.646015       -17.5790
  39   2.0000      -0.621190       -16.9034
  40   2.0000      -0.591152       -16.0861
  41   2.0000      -0.570739       -15.5306
  42   2.0000      -0.552865       -15.0442
  43   2.0000      -0.550740       -14.9864
  44   2.0000      -0.538348       -14.6492
  45   2.0000      -0.536507       -14.5991
  46   2.0000      -0.518881       -14.1195
  47   2.0000      -0.516093       -14.0436
  48   2.0000      -0.506212       -13.7747
  49   2.0000      -0.499525       -13.5928
  50   2.0000      -0.489433       -13.3181
  51   2.0000      -0.482625       -13.1329
  52   2.0000      -0.471840       -12.8394
  53   2.0000      -0.467863       -12.7312
  54   2.0000      -0.459399       -12.5009
  55   2.0000      -0.444258       -12.0889
  56   2.0000      -0.442233       -12.0338
  57   2.0000      -0.438202       -11.9241
  58   2.0000      -0.432887       -11.7794
  59   2.0000      -0.423477       -11.5234
  60   2.0000      -0.414661       -11.2835
  61   2.0000      -0.411460       -11.1964
  62   2.0000      -0.402825       -10.9614
  63   2.0000      -0.352646        -9.5960
  64   2.0000      -0.330245        -8.9864
  65   2.0000      -0.326695        -8.8898
  66   2.0000      -0.291083        -7.9208
  67   0.0000       0.025556         0.6954
  68   0.0000       0.064958         1.7676
  69   0.0000       0.109376         2.9763
  70   0.0000       0.120813         3.2875
  71   0.0000       0.129815         3.5325

MULLIKEN ATOMIC CHARGES
-----------------------
   0 S :    0.112137
   1 C :   -0.125135
   2 C :   -0.056492
   3 C :    0.048291
   4 C :   -0.184036
   5 H :    0.009180
   6 C :    0.032550
   7 H :    0.013919
   8 H :    0.032367
   9 C :   -0.083376
  10 H :    0.029003
  11 H :    0.024258
  12 C :   -0.021360
  13 H :    0.028706
  14 H :    0.012393
  15 H :    0.043745
  16 S :    0.097441
  17 C :   -0.089951
  18 C :   -0.062679
  19 C :   -0.037434
  20 C :   -0.136713
  21 H :    0.014248
  22 C :    0.040428
  23 H :    0.029495
  24 H :    0.033086
  25 C :   -0.048395
  26 H :    0.050766
  27 H :    0.028938
  28 C :   -0.041978
  29 H :    0.020278
  30 H :    0.023394
  31 H :    0.009455
  32 H :    0.074458
  33 H :    0.079012
Sum of atomic charges:   -0.0000000

LOEWDIN ATOMIC CHARGES
----------------------
   0 S :    0.411712
   1 C :   -0.214088
   2 C :   -0.068040
   3 C :   -0.042825
   4 C :   -0.182582
   5 H :    0.031831
   6 C :   -0.039882
   7 H :    0.023781
   8 H :    0.039665
   9 C :   -0.046284
  10 H :    0.022596
  11 H :    0.024980
  12 C :   -0.066050
  13 H :    0.020981
  14 H :    0.023493
  15 H :    0.032208
  16 S :    0.403900
  17 C :   -0.205586
  18 C :   -0.077515
  19 C :   -0.061297
  20 C :   -0.192387
  21 H :    0.023004
  22 C :   -0.031513
  23 H :    0.030521
  24 H :    0.035859
  25 C :   -0.036649
  26 H :    0.035274
  27 H :    0.022692
  28 C :   -0.071163
  29 H :    0.024428
  30 H :    0.025154
  31 H :    0.014437
  32 H :    0.043747
  33 H :    0.045599

  Mayer bond orders larger than 0.100000
B(  0-S ,  1-C ) :   1.1513 B(  0-S ,  4-C ) :   1.1421 B(  1-C ,  2-C ) :   1.5973
B(  1-C , 32-H ) :   0.9614 B(  2-C ,  3-C ) :   1.2138 B(  2-C ,  6-C ) :   1.0251
B(  3-C ,  4-C ) :   1.5634 B(  3-C ,  5-H ) :   0.9965 B(  4-C , 20-C ) :   1.0754
B(  6-C ,  7-H ) :   0.9481 B(  6-C ,  8-H ) :   0.9413 B(  6-C ,  9-C ) :   1.0775
B(  9-C , 10-H ) :   0.9554 B(  9-C , 11-H ) :   0.9510 B(  9-C , 12-C ) :   1.0750
B( 12-C , 13-H ) :   0.9722 B( 12-C , 14-H ) :   0.9681 B( 12-C , 15-H ) :   0.9720
B( 16-S , 17-C ) :   1.1683 B( 16-S , 20-C ) :   1.1224 B( 17-C , 18-C ) :   1.5791
B( 17-C , 33-H ) :   0.9640 B( 18-C , 19-C ) :   1.2530 B( 18-C , 21-H ) :   0.9876
B( 19-C , 20-C ) :   1.6135 B( 19-C , 22-C ) :   1.0259 B( 22-C , 23-H ) :   0.9341
B( 22-C , 24-H ) :   0.9371 B( 22-C , 25-C ) :   1.0682 B( 25-C , 26-H ) :   0.9530
B( 25-C , 27-H ) :   0.9516 B( 25-C , 28-C ) :   1.0748 B( 28-C , 29-H ) :   0.9744
B( 28-C , 30-H ) :   0.9694 B( 28-C , 31-H ) :   0.9698

Dispersion correction           -0.014938463
FINAL SINGLE POINT ENERGY     -1339.862749513969

DIPOLE MOMENT
-------------
                                X             Y             Z
Electronic contribution:     21.07762      -7.69827      10.69196
Nuclear contribution   :    -21.62566       7.95047     -11.09426
                        -----------------------------------------
Total Dipole Moment    :     -0.54804       0.25220      -0.40230
                        -----------------------------------------
Magnitude (a.u.)       :      0.72512
Magnitude (Debye)      :      1.84311

Rotational constants in cm-1:     0.019696     0.008800     0.006930
Rotational constants in MHz :   590.479146   263.817879   207.769471

                             ****ORCA TERMINATED NORMALLY****
TOTAL RUN TIME: 0 days 0 hours 0 minutes 34 seconds 849 msec
