                         Program Version 4.2.1 -  RELEASE  -
|  1> ! wB97X-D3 SP def2-SVP
|  2> %pal
|  3> nprocs 16
|  4> end
|  5>
|  6> * xyz 0 1
|  7> S 	 42.3216 	 17.1596 	 49.6709
|  8> C 	 41.2781 	 16.3334 	 48.5991
|  9> C 	 41.0452 	 17.01 	 47.357
| 10> C 	 41.7611 	 18.2004 	 47.402
| 11> C 	 42.6535 	 18.3198 	 48.4419
| 12> H 	 41.6832 	 19.0376 	 46.7216
| 13> C 	 40.0671 	 16.7011 	 46.2524
| 14> H 	 39.8641 	 17.5439 	 45.6883
| 15> H 	 39.1703 	 16.3536 	 46.7144
| 16> C 	 40.6428 	 15.6371 	 45.2242
| 17> H 	 40.7556 	 14.6371 	 45.7221
| 18> H 	 39.9033 	 15.4366 	 44.4046
| 19> C 	 42.0048 	 16.0978 	 44.6923
| 20> H 	 42.1257 	 15.5691 	 43.8271
| 21> H 	 41.9907 	 17.177 	 44.3224
| 22> H 	 42.7358 	 15.9002 	 45.34
| 23> S 	 45.2191 	 19.4177 	 47.9879
| 24> C 	 45.6303 	 20.9705 	 48.7623
| 25> C 	 44.6126 	 21.3492 	 49.6259
| 26> C 	 43.4148 	 20.6045 	 49.4674
| 27> C 	 43.5755 	 19.4444 	 48.653
| 28> H 	 44.6797 	 22.1837 	 50.2127
| 29> C 	 42.1418 	 20.8363 	 50.2055
| 30> H 	 42.3856 	 21.0317 	 51.2538
| 31> H 	 41.5022 	 19.9736 	 50.2759
| 32> C 	 41.4232 	 22.0574 	 49.6597
| 33> H 	 42.1592 	 22.8386 	 49.4039
| 34> H 	 40.9611 	 22.5124 	 50.5162
| 35> C 	 40.4775 	 21.8703 	 48.4148
| 36> H 	 41.0628 	 21.5812 	 47.5887
| 37> H 	 40.0246 	 22.7902 	 48.0795
| 38> H 	 39.8211 	 21.0323 	 48.5017
| 39> H 	 40.6491 	 15.4329 	 48.8319
| 40> H 	 46.5904 	 21.4049 	 48.6721
| 41> *
| 42>
| 43>                          ****END OF INPUT****

CARTESIAN COORDINATES (ANGSTROEM)
---------------------------------
  S     42.321600   17.159600   49.670900
  C     41.278100   16.333400   48.599100
  C     41.045200   17.010000   47.357000
  C     41.761100   18.200400   47.402000
  C     42.653500   18.319800   48.441900
  H     41.683200   19.037600   46.721600
  C     40.067100   16.701100   46.252400
  H     39.864100   17.543900   45.688300
  H     39.170300   16.353600   46.714400
  C     40.642800   15.637100   45.224200
  H     40.755600   14.637100   45.722100
  H     39.903300   15.436600   44.404600
  C     42.004800   16.097800   44.692300
  H     42.125700   15.569100   43.827100
  H     41.990700   17.177000   44.322400
  H     42.735800   15.900200   45.340000
  S     45.219100   19.417700   47.987900
  C     45.630300   20.970500   48.762300
  C     44.612600   21.349200   49.625900
  C     43.414800   20.604500   49.467400
  C     43.575500   19.444400   48.653000
  H     44.679700   22.183700   50.212700
  C     42.141800   20.836300   50.205500
  H     42.385600   21.031700   51.253800
  H     41.502200   19.973600   50.275900
  C     41.423200   22.057400   49.659700
  H     42.159200   22.838600   49.403900
  H     40.961100   22.512400   50.516200
  C     40.477500   21.870300   48.414800
  H     41.062800   21.581200   47.588700
  H     40.024600   22.790200   48.079500
  H     39.821100   21.032300   48.501700
  H     40.649100   15.432900   48.831900
  H     46.590400   21.404900   48.672100

 Total Charge           Charge          ....    0
 Multiplicity           Mult            ....    1
 Number of Electrons    NEL             ....  134
 Basis Dimension        Dim             ....  322

ORBITAL ENERGIES
----------------

  NO   OCC          E(Eh)            E(eV)
   0   2.0000     -88.973176     -2421.0832
   1   2.0000     -88.962566     -2420.7945
   2   2.0000     -10.325258      -280.9646
   3   2.0000     -10.320267      -280.8287
   4   2.0000     -10.318804      -280.7889
   5   2.0000     -10.318336      -280.7762
   6   2.0000     -10.300891      -280.3015
   7   2.0000     -10.300236      -280.2837
   8   2.0000     -10.293731      -280.1067
   9   2.0000     -10.289442      -279.9900
  10   2.0000     -10.287330      -279.9325
  11   2.0000     -10.287200      -279.9290
  12   2.0000     -10.283757      -279.8353
  13   2.0000     -10.282868      -279.8111
  14   2.0000     -10.270114      -279.4640
  15   2.0000     -10.262569      -279.2587
  16   2.0000      -8.088230      -220.0919
  17   2.0000      -8.076305      -219.7674
  18   2.0000      -6.046388      -164.5306
  19   2.0000      -6.042752      -164.4316
  20   2.0000      -6.039289      -164.3374
  21   2.0000      -6.034773      -164.2145
  22   2.0000      -6.030885      -164.1087
  23   2.0000      -6.027251      -164.0098
  24   2.0000      -1.007901       -27.4264
  25   2.0000      -0.980202       -26.6727
  26   2.0000      -0.910986       -24.7892
  27   2.0000      -0.906734       -24.6735
  28   2.0000      -0.863376       -23.4937
  29   2.0000      -0.854362       -23.2484
  30   2.0000      -0.841192       -22.8900
  31   2.0000      -0.813520       -22.1370
  32   2.0000      -0.788557       -21.4577
  33   2.0000      -0.772089       -21.0096
  34   2.0000      -0.703858       -19.1530
  35   2.0000      -0.699945       -19.0465
  36   2.0000      -0.693900       -18.8820
  37   2.0000      -0.658033       -17.9060
  38   2.0000      -0.642139       -17.4735
  39   2.0000      -0.615097       -16.7376
  40   2.0000      -0.600747       -16.3472
  41   2.0000      -0.576689       -15.6925
  42   2.0000      -0.553871       -15.0716
  43   2.0000      -0.553604       -15.0643
  44   2.0000      -0.545199       -14.8356
  45   2.0000      -0.531801       -14.4710
  46   2.0000      -0.524257       -14.2658
  47   2.0000      -0.506855       -13.7922
  48   2.0000      -0.494197       -13.4478
  49   2.0000      -0.490775       -13.3547
  50   2.0000      -0.486798       -13.2465
  51   2.0000      -0.475969       -12.9518
  52   2.0000      -0.472689       -12.8625
  53   2.0000      -0.465204       -12.6588
  54   2.0000      -0.464174       -12.6308
  55   2.0000      -0.450545       -12.2600
  56   2.0000      -0.442161       -12.0318
  57   2.0000      -0.437112       -11.8944
  58   2.0000      -0.434022       -11.8103
  59   2.0000      -0.428219       -11.6524
  60   2.0000      -0.422406       -11.4943
  61   2.0000      -0.421034       -11.4569
  62   2.0000      -0.403966       -10.9925
  63   2.0000      -0.337513        -9.1842
  64   2.0000      -0.330427        -8.9914
  65   2.0000      -0.311456        -8.4752
  66   2.0000      -0.303676        -8.2634
  67   0.0000       0.039605         1.0777
  68   0.0000       0.050743         1.3808
  69   0.0000       0.103735         2.8228
  70   0.0000       0.118930         3.2362
  71   0.0000       0.134403         3.6573

MULLIKEN ATOMIC CHARGES
-----------------------
   0 S :    0.154210
   1 C :   -0.134764
   2 C :   -0.105162
   3 C :    0.036514
   4 C :   -0.202967
   5 H :    0.011162
   6 C :    0.132024
   7 H :    0.007088
   8 H :    0.020311
   9 C :   -0.137601
  10 H :    0.034559
  11 H :    0.037671
  12 C :    0.018399
  13 H :    0.007453
  14 H :    0.031669
  15 H :    0.028215
  16 S :    0.098081
  17 C :   -0.087977
  18 C :    0.022652
  19 C :   -0.039936
  20 C :   -0.174877
  21 H :   -0.014414
  22 C :    0.081899
  23 H :    0.021704
  24 H :    0.020648
  25 C :   -0.082860
  26 H :    0.019974
  27 H :    0.014142
  28 C :    0.007832
  29 H :    0.005628
  30 H :    0.033306
  31 H :    0.025145
  32 H :    0.058865
  33 H :    0.051405
Sum of atomic charges:   -0.0000000

LOEWDIN ATOMIC CHARGES
----------------------
   0 S :    0.454979
   1 C :   -0.221651
   2 C :   -0.062603
   3 C :   -0.053228
   4 C :   -0.220914
   5 H :    0.029728
   6 C :   -0.020054
   7 H :    0.020479
   8 H :    0.026774
   9 C :   -0.036754
  10 H :    0.025597
  11 H :    0.024271
  12 C :   -0.050082
  13 H :    0.016716
  14 H :    0.034653
  15 H :    0.011282
  16 S :    0.385915
  17 C :   -0.164013
  18 C :   -0.058929
  19 C :   -0.049857
  20 C :   -0.204948
  21 H :    0.015758
  22 C :   -0.033890
  23 H :    0.034959
  24 H :    0.023492
  25 C :   -0.038287
  26 H :    0.025266
  27 H :    0.018059
  28 C :   -0.059643
  29 H :    0.019741
  30 H :    0.028022
  31 H :    0.022070
  32 H :    0.034941
  33 H :    0.022153

  Mayer bond orders larger than 0.100000
B(  0-S ,  1-C ) :   1.1869 B(  0-S ,  4-C ) :   1.1645 B(  1-C ,  2-C ) :   1.5421
B(  1-C ,  4-C ) :   0.1098 B(  1-C , 32-H ) :   0.9569 B(  2-C ,  3-C ) :   1.2905
B(  2-C ,  6-C ) :   1.0237 B(  3-C ,  4-C ) :   1.5557 B(  3-C ,  5-H ) :   0.9910
B(  4-C , 20-C ) :   1.0222 B(  6-C ,  7-H ) :   0.9437 B(  6-C ,  8-H ) :   0.9378
B(  6-C ,  9-C ) :   1.0602 B(  9-C , 10-H ) :   0.9583 B(  9-C , 11-H ) :   0.9644
B(  9-C , 12-C ) :   1.0677 B( 12-C , 13-H ) :   0.9681 B( 12-C , 14-H ) :   0.9745
B( 12-C , 15-H ) :   0.9729 B( 16-S , 17-C ) :   1.1622 B( 16-S , 20-C ) :   1.1449
B( 17-C , 18-C ) :   1.5765 B( 17-C , 20-C ) :   0.1073 B( 17-C , 33-H ) :   0.9747
B( 18-C , 19-C ) :   1.2671 B( 18-C , 21-H ) :   0.9952 B( 19-C , 20-C ) :   1.5607
B( 19-C , 22-C ) :   1.0567 B( 22-C , 23-H ) :   0.9327 B( 22-C , 24-H ) :   0.9321
B( 22-C , 25-C ) :   1.0622 B( 25-C , 26-H ) :   0.9592 B( 25-C , 27-H ) :   0.9558
B( 25-C , 28-C ) :   1.0661 B( 28-C , 29-H ) :   0.9694 B( 28-C , 30-H ) :   0.9723
B( 28-C , 31-H ) :   0.9762

Dispersion correction           -0.015817842
FINAL SINGLE POINT ENERGY     -1339.854240603045

DIPOLE MOMENT
-------------
                                X             Y             Z
Electronic contribution:     16.41264      -3.76588      11.06918
Nuclear contribution   :    -16.84084       3.94487     -11.13003
                        -----------------------------------------
Total Dipole Moment    :     -0.42820       0.17899      -0.06085
                        -----------------------------------------
Magnitude (a.u.)       :      0.46807
Magnitude (Debye)      :      1.18975

Rotational constants in cm-1:     0.019921     0.008827     0.007858
Rotational constants in MHz :   597.230149   264.635287   235.585646

                             ****ORCA TERMINATED NORMALLY****
TOTAL RUN TIME: 0 days 0 hours 0 minutes 33 seconds 599 msec
