                         Program Version 4.2.1 -  RELEASE  -
|  1> ! wB97X-D3 SP def2-SVP
|  2> %pal
|  3> nprocs 16
|  4> end
|  5>
|  6> * xyz 0 1
|  7> S 	 -63.7562 	 46.3319 	 125.085
|  8> C 	 -63.6012 	 44.9788 	 123.972
|  9> C 	 -62.7808 	 45.2933 	 122.885
| 10> C 	 -62.2476 	 46.6233 	 122.953
| 11> C 	 -62.7231 	 47.3289 	 124.045
| 12> H 	 -61.5929 	 47.072 	 122.253
| 13> C 	 -62.4382 	 44.2763 	 121.772
| 14> H 	 -62.6753 	 43.2634 	 122.075
| 15> H 	 -61.295 	 44.1039 	 121.707
| 16> C 	 -63.2533 	 44.6639 	 120.484
| 17> H 	 -64.3264 	 44.3906 	 120.727
| 18> H 	 -63.1585 	 45.731 	 120.249
| 19> C 	 -62.8121 	 43.931 	 119.258
| 20> H 	 -63.1057 	 42.8915 	 119.23
| 21> H 	 -62.9909 	 44.3702 	 118.314
| 22> H 	 -61.7707 	 43.8474 	 119.284
| 23> S 	 -64.0271 	 49.4605 	 124.807
| 24> C 	 -63.1938 	 51.0293 	 124.991
| 25> C 	 -61.8227 	 50.9831 	 124.726
| 26> C 	 -61.4441 	 49.6129 	 124.372
| 27> C 	 -62.5228 	 48.6825 	 124.419
| 28> H 	 -61.1586 	 51.8461 	 124.898
| 29> C 	 -60.031 	 49.2931 	 124.068
| 30> H 	 -60.1135 	 48.223 	 123.963
| 31> H 	 -59.4365 	 49.5159 	 124.928
| 32> C 	 -59.4895 	 49.9404 	 122.827
| 33> H 	 -59.3986 	 51.0631 	 122.822
| 34> H 	 -60.2648 	 49.7788 	 122.064
| 35> C 	 -58.2436 	 49.2816 	 122.282
| 36> H 	 -58.405 	 48.2292 	 122.074
| 37> H 	 -57.5158 	 49.2396 	 123.029
| 38> H 	 -57.7419 	 49.7519 	 121.489
| 39> H 	 -64.1349 	 44.0145 	 124.123
| 40> H 	 -63.6693 	 51.9605 	 125.349
| 41> *
| 42>
| 43>                          ****END OF INPUT****

CARTESIAN COORDINATES (ANGSTROEM)
---------------------------------
  S    -63.756200   46.331900  125.085000
  C    -63.601200   44.978800  123.972000
  C    -62.780800   45.293300  122.885000
  C    -62.247600   46.623300  122.953000
  C    -62.723100   47.328900  124.045000
  H    -61.592900   47.072000  122.253000
  C    -62.438200   44.276300  121.772000
  H    -62.675300   43.263400  122.075000
  H    -61.295000   44.103900  121.707000
  C    -63.253300   44.663900  120.484000
  H    -64.326400   44.390600  120.727000
  H    -63.158500   45.731000  120.249000
  C    -62.812100   43.931000  119.258000
  H    -63.105700   42.891500  119.230000
  H    -62.990900   44.370200  118.314000
  H    -61.770700   43.847400  119.284000
  S    -64.027100   49.460500  124.807000
  C    -63.193800   51.029300  124.991000
  C    -61.822700   50.983100  124.726000
  C    -61.444100   49.612900  124.372000
  C    -62.522800   48.682500  124.419000
  H    -61.158600   51.846100  124.898000
  C    -60.031000   49.293100  124.068000
  H    -60.113500   48.223000  123.963000
  H    -59.436500   49.515900  124.928000
  C    -59.489500   49.940400  122.827000
  H    -59.398600   51.063100  122.822000
  H    -60.264800   49.778800  122.064000
  C    -58.243600   49.281600  122.282000
  H    -58.405000   48.229200  122.074000
  H    -57.515800   49.239600  123.029000
  H    -57.741900   49.751900  121.489000
  H    -64.134900   44.014500  124.123000
  H    -63.669300   51.960500  125.349000

 Total Charge           Charge          ....    0
 Multiplicity           Mult            ....    1
 Number of Electrons    NEL             ....  134
 Basis Dimension        Dim             ....  322

ORBITAL ENERGIES
----------------

  NO   OCC          E(Eh)            E(eV)
   0   2.0000     -88.966678     -2420.9064
   1   2.0000     -88.966542     -2420.9027
   2   2.0000     -10.330930      -281.1189
   3   2.0000     -10.325901      -280.9821
   4   2.0000     -10.322546      -280.8908
   5   2.0000     -10.318864      -280.7906
   6   2.0000     -10.308101      -280.4977
   7   2.0000     -10.306904      -280.4651
   8   2.0000     -10.303038      -280.3599
   9   2.0000     -10.301454      -280.3168
  10   2.0000     -10.295798      -280.1629
  11   2.0000     -10.293162      -280.0912
  12   2.0000     -10.287696      -279.9424
  13   2.0000     -10.282873      -279.8112
  14   2.0000     -10.266864      -279.3756
  15   2.0000     -10.264331      -279.3066
  16   2.0000      -8.081055      -219.8967
  17   2.0000      -8.080892      -219.8922
  18   2.0000      -6.039601      -164.3459
  19   2.0000      -6.039558      -164.3447
  20   2.0000      -6.035616      -164.2375
  21   2.0000      -6.035408      -164.2318
  22   2.0000      -6.031782      -164.1331
  23   2.0000      -6.031520      -164.1260
  24   2.0000      -1.005919       -27.3725
  25   2.0000      -0.975670       -26.5493
  26   2.0000      -0.918907       -25.0047
  27   2.0000      -0.907554       -24.6958
  28   2.0000      -0.872453       -23.7407
  29   2.0000      -0.854714       -23.2579
  30   2.0000      -0.847466       -23.0607
  31   2.0000      -0.817048       -22.2330
  32   2.0000      -0.782607       -21.2958
  33   2.0000      -0.766118       -20.8471
  34   2.0000      -0.710482       -19.3332
  35   2.0000      -0.700067       -19.0498
  36   2.0000      -0.693017       -18.8580
  37   2.0000      -0.664119       -18.0716
  38   2.0000      -0.641331       -17.4515
  39   2.0000      -0.623068       -16.9545
  40   2.0000      -0.591447       -16.0941
  41   2.0000      -0.571148       -15.5417
  42   2.0000      -0.559141       -15.2150
  43   2.0000      -0.557776       -15.1779
  44   2.0000      -0.532390       -14.4871
  45   2.0000      -0.527354       -14.3500
  46   2.0000      -0.519291       -14.1306
  47   2.0000      -0.517121       -14.0716
  48   2.0000      -0.506265       -13.7762
  49   2.0000      -0.501528       -13.6473
  50   2.0000      -0.495808       -13.4916
  51   2.0000      -0.478739       -13.0271
  52   2.0000      -0.470348       -12.7988
  53   2.0000      -0.460280       -12.5249
  54   2.0000      -0.458071       -12.4647
  55   2.0000      -0.453052       -12.3282
  56   2.0000      -0.447348       -12.1730
  57   2.0000      -0.436509       -11.8780
  58   2.0000      -0.432859       -11.7787
  59   2.0000      -0.422469       -11.4960
  60   2.0000      -0.419019       -11.4021
  61   2.0000      -0.414404       -11.2765
  62   2.0000      -0.411548       -11.1988
  63   2.0000      -0.351856        -9.5745
  64   2.0000      -0.332145        -9.0381
  65   2.0000      -0.327610        -8.9147
  66   2.0000      -0.285134        -7.7589
  67   0.0000       0.025486         0.6935
  68   0.0000       0.069262         1.8847
  69   0.0000       0.105654         2.8750
  70   0.0000       0.115374         3.1395
  71   0.0000       0.122990         3.3467

MULLIKEN ATOMIC CHARGES
-----------------------
   0 S :    0.103948
   1 C :   -0.130641
   2 C :   -0.085580
   3 C :    0.056823
   4 C :   -0.159298
   5 H :   -0.002922
   6 C :    0.021462
   7 H :    0.010747
   8 H :    0.045688
   9 C :   -0.093702
  10 H :    0.045934
  11 H :    0.042440
  12 C :    0.018905
  13 H :    0.017601
  14 H :    0.024146
  15 H :   -0.002487
  16 S :    0.101386
  17 C :   -0.100567
  18 C :   -0.032655
  19 C :   -0.084230
  20 C :   -0.126252
  21 H :    0.038416
  22 C :    0.109364
  23 H :    0.007016
  24 H :    0.029501
  25 C :   -0.102305
  26 H :    0.036262
  27 H :    0.023078
  28 C :    0.017649
  29 H :    0.018735
  30 H :   -0.000723
  31 H :    0.022592
  32 H :    0.064752
  33 H :    0.064918
Sum of atomic charges:   -0.0000000

LOEWDIN ATOMIC CHARGES
----------------------
   0 S :    0.390437
   1 C :   -0.202683
   2 C :   -0.058775
   3 C :   -0.057842
   4 C :   -0.186176
   5 H :    0.026324
   6 C :   -0.039173
   7 H :    0.024318
   8 H :    0.038763
   9 C :   -0.039267
  10 H :    0.035238
  11 H :    0.027928
  12 C :   -0.067388
  13 H :    0.024615
  14 H :    0.022522
  15 H :    0.018005
  16 S :    0.403083
  17 C :   -0.179307
  18 C :   -0.069896
  19 C :   -0.047838
  20 C :   -0.210744
  21 H :    0.040124
  22 C :   -0.034726
  23 H :    0.031077
  24 H :    0.030145
  25 C :   -0.045548
  26 H :    0.028960
  27 H :    0.024649
  28 C :   -0.058988
  29 H :    0.025949
  30 H :    0.016497
  31 H :    0.021562
  32 H :    0.035919
  33 H :    0.032235

  Mayer bond orders larger than 0.100000
B(  0-S ,  1-C ) :   1.1262 B(  0-S ,  4-C ) :   1.1424 B(  1-C ,  2-C ) :   1.6217
B(  1-C , 32-H ) :   0.9631 B(  2-C ,  3-C ) :   1.2298 B(  2-C ,  6-C ) :   1.0235
B(  3-C ,  4-C ) :   1.5707 B(  3-C ,  5-H ) :   1.0007 B(  4-C , 20-C ) :   1.0526
B(  6-C ,  7-H ) :   0.9443 B(  6-C ,  8-H ) :   0.9483 B(  6-C ,  9-C ) :   1.0361
B(  9-C , 10-H ) :   0.9549 B(  9-C , 11-H ) :   0.9667 B(  9-C , 12-C ) :   1.0823
B( 12-C , 13-H ) :   0.9684 B( 12-C , 14-H ) :   0.9731 B( 12-C , 15-H ) :   0.9669
B( 16-S , 17-C ) :   1.1442 B( 16-S , 20-C ) :   1.1309 B( 17-C , 18-C ) :   1.6262
B( 17-C , 33-H ) :   0.9618 B( 18-C , 19-C ) :   1.2145 B( 18-C , 21-H ) :   0.9846
B( 19-C , 20-C ) :   1.5839 B( 19-C , 22-C ) :   1.0594 B( 22-C , 23-H ) :   0.9308
B( 22-C , 24-H ) :   0.9213 B( 22-C , 25-C ) :   1.0564 B( 25-C , 26-H ) :   0.9507
B( 25-C , 27-H ) :   0.9551 B( 25-C , 28-C ) :   1.0933 B( 28-C , 29-H ) :   0.9704
B( 28-C , 30-H ) :   0.9662 B( 28-C , 31-H ) :   0.9722

Dispersion correction           -0.013842331
FINAL SINGLE POINT ENERGY     -1339.866851743114

DIPOLE MOMENT
-------------
                                X             Y             Z
Electronic contribution:    -18.16405       7.39205      22.37291
Nuclear contribution   :     18.66346      -7.43948     -22.77293
                        -----------------------------------------
Total Dipole Moment    :      0.49941      -0.04742      -0.40002
                        -----------------------------------------
Magnitude (a.u.)       :      0.64162
Magnitude (Debye)      :      1.63087

Rotational constants in cm-1:     0.016779     0.008811     0.006519
Rotational constants in MHz :   503.016436   264.155684   195.442324

                             ****ORCA TERMINATED NORMALLY****
TOTAL RUN TIME: 0 days 0 hours 0 minutes 33 seconds 271 msec
