                         Program Version 4.2.1 -  RELEASE  -
|  1> ! wB97X-D3 SP def2-SVP
|  2> %pal
|  3> nprocs 16
|  4> end
|  5>
|  6> * xyz 0 1
|  7> S 	 18.8734 	 28.6551 	 65.0324
|  8> C 	 18.5523 	 29.927 	 63.8126
|  9> C 	 17.8319 	 30.9571 	 64.3767
| 10> C 	 17.6905 	 30.7717 	 65.8111
| 11> C 	 18.2826 	 29.6382 	 66.3155
| 12> H 	 17.2521 	 31.5161 	 66.4618
| 13> C 	 17.425 	 32.2262 	 63.5525
| 14> H 	 18.3657 	 32.7965 	 63.3595
| 15> H 	 16.7023 	 32.8345 	 64.223
| 16> C 	 16.7278 	 32.0406 	 62.2104
| 17> H 	 17.279 	 31.474 	 61.4536
| 18> H 	 15.7738 	 31.4845 	 62.4229
| 19> C 	 16.3919 	 33.4581 	 61.6697
| 20> H 	 15.5465 	 33.8469 	 62.1949
| 21> H 	 17.1969 	 34.1602 	 61.7628
| 22> H 	 16.1857 	 33.2995 	 60.6568
| 23> S 	 17.2426 	 29.2721 	 68.7738
| 24> C 	 18.255 	 28.5739 	 70.1191
| 25> C 	 19.5508 	 28.5769 	 69.6827
| 26> C 	 19.8051 	 28.8244 	 68.328
| 27> C 	 18.6231 	 29.2933 	 67.6803
| 28> H 	 20.3087 	 28.3711 	 70.4775
| 29> C 	 21.2453 	 28.8065 	 67.8376
| 30> H 	 21.2231 	 28.8698 	 66.8137
| 31> H 	 21.6997 	 27.8199 	 68.0254
| 32> C 	 22.2106 	 29.9633 	 68.326
| 33> H 	 23.1977 	 29.5761 	 68.2966
| 34> H 	 22.0575 	 30.098 	 69.3568
| 35> C 	 22.0113 	 31.4002 	 67.6604
| 36> H 	 21.0186 	 31.8412 	 67.6456
| 37> H 	 22.3901 	 31.3808 	 66.6455
| 38> H 	 22.547 	 32.1622 	 68.2166
| 39> H 	 18.9019 	 29.7859 	 62.7909
| 40> H 	 18.0125 	 28.3695 	 71.1836
| 41> *
| 42>
| 43>                          ****END OF INPUT****

CARTESIAN COORDINATES (ANGSTROEM)
---------------------------------
  S     18.873400   28.655100   65.032400
  C     18.552300   29.927000   63.812600
  C     17.831900   30.957100   64.376700
  C     17.690500   30.771700   65.811100
  C     18.282600   29.638200   66.315500
  H     17.252100   31.516100   66.461800
  C     17.425000   32.226200   63.552500
  H     18.365700   32.796500   63.359500
  H     16.702300   32.834500   64.223000
  C     16.727800   32.040600   62.210400
  H     17.279000   31.474000   61.453600
  H     15.773800   31.484500   62.422900
  C     16.391900   33.458100   61.669700
  H     15.546500   33.846900   62.194900
  H     17.196900   34.160200   61.762800
  H     16.185700   33.299500   60.656800
  S     17.242600   29.272100   68.773800
  C     18.255000   28.573900   70.119100
  C     19.550800   28.576900   69.682700
  C     19.805100   28.824400   68.328000
  C     18.623100   29.293300   67.680300
  H     20.308700   28.371100   70.477500
  C     21.245300   28.806500   67.837600
  H     21.223100   28.869800   66.813700
  H     21.699700   27.819900   68.025400
  C     22.210600   29.963300   68.326000
  H     23.197700   29.576100   68.296600
  H     22.057500   30.098000   69.356800
  C     22.011300   31.400200   67.660400
  H     21.018600   31.841200   67.645600
  H     22.390100   31.380800   66.645500
  H     22.547000   32.162200   68.216600
  H     18.901900   29.785900   62.790900
  H     18.012500   28.369500   71.183600

 Total Charge           Charge          ....    0
 Multiplicity           Mult            ....    1
 Number of Electrons    NEL             ....  134
 Basis Dimension        Dim             ....  322

ORBITAL ENERGIES
----------------

  NO   OCC          E(Eh)            E(eV)
   0   2.0000     -88.965898     -2420.8852
   1   2.0000     -88.962506     -2420.7929
   2   2.0000     -10.335291      -281.2376
   3   2.0000     -10.327860      -281.0354
   4   2.0000     -10.321039      -280.8497
   5   2.0000     -10.315902      -280.7100
   6   2.0000     -10.307653      -280.4855
   7   2.0000     -10.307159      -280.4721
   8   2.0000     -10.306176      -280.4453
   9   2.0000     -10.296330      -280.1774
  10   2.0000     -10.292009      -280.0598
  11   2.0000     -10.292006      -280.0597
  12   2.0000     -10.286777      -279.9174
  13   2.0000     -10.286138      -279.9000
  14   2.0000     -10.276553      -279.6392
  15   2.0000     -10.271932      -279.5135
  16   2.0000      -8.079186      -219.8458
  17   2.0000      -8.077180      -219.7912
  18   2.0000      -6.037892      -164.2994
  19   2.0000      -6.035753      -164.2412
  20   2.0000      -6.033840      -164.1891
  21   2.0000      -6.031629      -164.1290
  22   2.0000      -6.029866      -164.0810
  23   2.0000      -6.027919      -164.0280
  24   2.0000      -1.003884       -27.3171
  25   2.0000      -0.977921       -26.6106
  26   2.0000      -0.910113       -24.7654
  27   2.0000      -0.896658       -24.3993
  28   2.0000      -0.871305       -23.7094
  29   2.0000      -0.846514       -23.0348
  30   2.0000      -0.836035       -22.7497
  31   2.0000      -0.812900       -22.1201
  32   2.0000      -0.782645       -21.2969
  33   2.0000      -0.770483       -20.9659
  34   2.0000      -0.711636       -19.3646
  35   2.0000      -0.699840       -19.0436
  36   2.0000      -0.697518       -18.9804
  37   2.0000      -0.657390       -17.8885
  38   2.0000      -0.637520       -17.3478
  39   2.0000      -0.612301       -16.6616
  40   2.0000      -0.592876       -16.1330
  41   2.0000      -0.574348       -15.6288
  42   2.0000      -0.562398       -15.3036
  43   2.0000      -0.541955       -14.7474
  44   2.0000      -0.531191       -14.4544
  45   2.0000      -0.523234       -14.2379
  46   2.0000      -0.516925       -14.0662
  47   2.0000      -0.508202       -13.8289
  48   2.0000      -0.507205       -13.8018
  49   2.0000      -0.494198       -13.4478
  50   2.0000      -0.491726       -13.3805
  51   2.0000      -0.478451       -13.0193
  52   2.0000      -0.467408       -12.7188
  53   2.0000      -0.464667       -12.6442
  54   2.0000      -0.454011       -12.3543
  55   2.0000      -0.445941       -12.1347
  56   2.0000      -0.444094       -12.0844
  57   2.0000      -0.435762       -11.8577
  58   2.0000      -0.431371       -11.7382
  59   2.0000      -0.425742       -11.5850
  60   2.0000      -0.421735       -11.4760
  61   2.0000      -0.416277       -11.3275
  62   2.0000      -0.410205       -11.1623
  63   2.0000      -0.348408        -9.4807
  64   2.0000      -0.330583        -8.9956
  65   2.0000      -0.326471        -8.8837
  66   2.0000      -0.290423        -7.9028
  67   0.0000       0.023054         0.6273
  68   0.0000       0.074658         2.0316
  69   0.0000       0.104265         2.8372
  70   0.0000       0.114307         3.1104
  71   0.0000       0.128340         3.4923

MULLIKEN ATOMIC CHARGES
-----------------------
   0 S :    0.102129
   1 C :   -0.158578
   2 C :   -0.042425
   3 C :    0.028254
   4 C :   -0.127677
   5 H :    0.007922
   6 C :   -0.002076
   7 H :    0.053683
   8 H :    0.038831
   9 C :   -0.115553
  10 H :    0.035639
  11 H :    0.044317
  12 C :    0.000841
  13 H :    0.029741
  14 H :    0.023072
  15 H :    0.021390
  16 S :    0.092036
  17 C :   -0.105789
  18 C :   -0.063322
  19 C :   -0.026283
  20 C :   -0.159589
  21 H :    0.036025
  22 C :    0.103176
  23 H :   -0.013702
  24 H :    0.030535
  25 C :   -0.034784
  26 H :    0.021615
  27 H :    0.007786
  28 C :   -0.057660
  29 H :    0.040609
  30 H :    0.036425
  31 H :    0.025838
  32 H :    0.058241
  33 H :    0.069332
Sum of atomic charges:   -0.0000000

LOEWDIN ATOMIC CHARGES
----------------------
   0 S :    0.405191
   1 C :   -0.184780
   2 C :   -0.063513
   3 C :   -0.069319
   4 C :   -0.204728
   5 H :    0.028457
   6 C :   -0.038570
   7 H :    0.037042
   8 H :    0.038009
   9 C :   -0.044215
  10 H :    0.020143
  11 H :    0.032587
  12 C :   -0.051885
  13 H :    0.024286
  14 H :    0.021621
  15 H :    0.020511
  16 S :    0.381162
  17 C :   -0.181224
  18 C :   -0.074529
  19 C :   -0.060204
  20 C :   -0.186954
  21 H :    0.038734
  22 C :   -0.026453
  23 H :    0.008369
  24 H :    0.036693
  25 C :   -0.026541
  26 H :    0.022864
  27 H :    0.014229
  28 C :   -0.065949
  29 H :    0.029785
  30 H :    0.024129
  31 H :    0.026024
  32 H :    0.027235
  33 H :    0.041795

  Mayer bond orders larger than 0.100000
B(  0-S ,  1-C ) :   1.1300 B(  0-S ,  4-C ) :   1.1534 B(  1-C ,  2-C ) :   1.6090
B(  1-C , 32-H ) :   0.9760 B(  2-C ,  3-C ) :   1.2439 B(  2-C ,  6-C ) :   0.9954
B(  3-C ,  4-C ) :   1.5690 B(  3-C ,  5-H ) :   0.9942 B(  4-C , 20-C ) :   1.0282
B(  6-C ,  7-H ) :   0.9431 B(  6-C ,  8-H ) :   0.9509 B(  6-C ,  9-C ) :   1.0670
B(  9-C , 10-H ) :   0.9582 B(  9-C , 11-H ) :   0.9566 B(  9-C , 12-C ) :   1.0745
B( 12-C , 13-H ) :   0.9759 B( 12-C , 14-H ) :   0.9755 B( 12-C , 15-H ) :   0.9737
B( 16-S , 17-C ) :   1.1207 B( 16-S , 20-C ) :   1.1533 B( 17-C , 18-C ) :   1.6405
B( 17-C , 20-C ) :   0.1094 B( 17-C , 33-H ) :   0.9608 B( 18-C , 19-C ) :   1.2412
B( 18-C , 21-H ) :   0.9728 B( 19-C , 20-C ) :   1.5480 B( 19-C , 22-C ) :   1.0559
B( 22-C , 23-H ) :   0.9248 B( 22-C , 24-H ) :   0.9314 B( 22-C , 25-C ) :   1.0586
B( 25-C , 26-H ) :   0.9563 B( 25-C , 27-H ) :   0.9610 B( 25-C , 28-C ) :   1.0639
B( 28-C , 29-H ) :   0.9783 B( 28-C , 30-H ) :   0.9791 B( 28-C , 31-H ) :   0.9750

Dispersion correction           -0.014072237
FINAL SINGLE POINT ENERGY     -1339.861874174502

DIPOLE MOMENT
-------------
                                X             Y             Z
Electronic contribution:     -8.06023     -17.60958      11.78705
Nuclear contribution   :      8.42601      18.06401     -11.90780
                        -----------------------------------------
Total Dipole Moment    :      0.36578       0.45443      -0.12075
                        -----------------------------------------
Magnitude (a.u.)       :      0.59572
Magnitude (Debye)      :      1.51420

Rotational constants in cm-1:     0.022375     0.007156     0.006388
Rotational constants in MHz :   670.787932   214.521953   191.521098

                             ****ORCA TERMINATED NORMALLY****
TOTAL RUN TIME: 0 days 0 hours 0 minutes 31 seconds 449 msec
