                         Program Version 4.2.1 -  RELEASE  -
|  1> ! wB97X-D3 SP def2-SVP
|  2> %pal
|  3> nprocs 16
|  4> end
|  5>
|  6> * xyz 0 1
|  7> S 	 28.4884 	 32.1233 	 58.1522
|  8> C 	 27.1344 	 31.0394 	 57.797
|  9> C 	 25.8788 	 31.605 	 58.1917
| 10> C 	 26.0967 	 32.8693 	 58.8327
| 11> C 	 27.3943 	 33.3559 	 58.7384
| 12> H 	 25.3886 	 33.5317 	 59.2944
| 13> C 	 24.5685 	 30.879 	 58.2704
| 14> H 	 24.7786 	 30.0486 	 58.9643
| 15> H 	 24.3411 	 30.4481 	 57.3175
| 16> C 	 23.3817 	 31.5624 	 58.9221
| 17> H 	 23.7246 	 31.85 	 59.9031
| 18> H 	 23.2537 	 32.5049 	 58.4138
| 19> C 	 22.0301 	 30.8528 	 58.8729
| 20> H 	 21.7328 	 30.7197 	 57.8653
| 21> H 	 22.1005 	 29.8268 	 59.1277
| 22> H 	 21.2621 	 31.2667 	 59.5098
| 23> S 	 29.1974 	 34.4586 	 60.509
| 24> C 	 29.3031 	 36.1553 	 60.6222
| 25> C 	 28.5758 	 36.8178 	 59.6577
| 26> C 	 27.7804 	 35.9024 	 58.8396
| 27> C 	 27.8565 	 34.6341 	 59.273
| 28> H 	 28.5609 	 37.8815 	 59.5615
| 29> C 	 26.8863 	 36.456 	 57.7439
| 30> H 	 26.4339 	 35.6993 	 57.1525
| 31> H 	 27.3631 	 37.1725 	 57.1135
| 32> C 	 25.5774 	 37.1461 	 58.104
| 33> H 	 24.969 	 37.3205 	 57.1966
| 34> H 	 25.8097 	 38.1473 	 58.4377
| 35> C 	 24.7174 	 36.5297 	 59.1315
| 36> H 	 24.3738 	 35.5654 	 58.8093
| 37> H 	 23.801 	 37.0684 	 59.2177
| 38> H 	 25.3058 	 36.3887 	 60.0562
| 39> H 	 27.3146 	 30.0465 	 57.35
| 40> H 	 30.0178 	 36.6863 	 61.2014
| 41> *
| 42>
| 43>                          ****END OF INPUT****

CARTESIAN COORDINATES (ANGSTROEM)
---------------------------------
  S     28.488400   32.123300   58.152200
  C     27.134400   31.039400   57.797000
  C     25.878800   31.605000   58.191700
  C     26.096700   32.869300   58.832700
  C     27.394300   33.355900   58.738400
  H     25.388600   33.531700   59.294400
  C     24.568500   30.879000   58.270400
  H     24.778600   30.048600   58.964300
  H     24.341100   30.448100   57.317500
  C     23.381700   31.562400   58.922100
  H     23.724600   31.850000   59.903100
  H     23.253700   32.504900   58.413800
  C     22.030100   30.852800   58.872900
  H     21.732800   30.719700   57.865300
  H     22.100500   29.826800   59.127700
  H     21.262100   31.266700   59.509800
  S     29.197400   34.458600   60.509000
  C     29.303100   36.155300   60.622200
  C     28.575800   36.817800   59.657700
  C     27.780400   35.902400   58.839600
  C     27.856500   34.634100   59.273000
  H     28.560900   37.881500   59.561500
  C     26.886300   36.456000   57.743900
  H     26.433900   35.699300   57.152500
  H     27.363100   37.172500   57.113500
  C     25.577400   37.146100   58.104000
  H     24.969000   37.320500   57.196600
  H     25.809700   38.147300   58.437700
  C     24.717400   36.529700   59.131500
  H     24.373800   35.565400   58.809300
  H     23.801000   37.068400   59.217700
  H     25.305800   36.388700   60.056200
  H     27.314600   30.046500   57.350000
  H     30.017800   36.686300   61.201400

 Total Charge           Charge          ....    0
 Multiplicity           Mult            ....    1
 Number of Electrons    NEL             ....  134
 Basis Dimension        Dim             ....  322

ORBITAL ENERGIES
----------------

  NO   OCC          E(Eh)            E(eV)
   0   2.0000     -88.968527     -2420.9567
   1   2.0000     -88.961600     -2420.7682
   2   2.0000     -10.327371      -281.0220
   3   2.0000     -10.326410      -280.9959
   4   2.0000     -10.321607      -280.8652
   5   2.0000     -10.313996      -280.6581
   6   2.0000     -10.309397      -280.5329
   7   2.0000     -10.306651      -280.4582
   8   2.0000     -10.293045      -280.0880
   9   2.0000     -10.292327      -280.0685
  10   2.0000     -10.289679      -279.9964
  11   2.0000     -10.284168      -279.8464
  12   2.0000     -10.284021      -279.8424
  13   2.0000     -10.279088      -279.7082
  14   2.0000     -10.274334      -279.5788
  15   2.0000     -10.268168      -279.4111
  16   2.0000      -8.082615      -219.9391
  17   2.0000      -8.076594      -219.7753
  18   2.0000      -6.041080      -164.3861
  19   2.0000      -6.037175      -164.2799
  20   2.0000      -6.035126      -164.2241
  21   2.0000      -6.033496      -164.1798
  22   2.0000      -6.031254      -164.1188
  23   2.0000      -6.027108      -164.0060
  24   2.0000      -1.003401       -27.3039
  25   2.0000      -0.979811       -26.6620
  26   2.0000      -0.918194       -24.9853
  27   2.0000      -0.916656       -24.9435
  28   2.0000      -0.869022       -23.6473
  29   2.0000      -0.854461       -23.2511
  30   2.0000      -0.846163       -23.0253
  31   2.0000      -0.813648       -22.1405
  32   2.0000      -0.792790       -21.5729
  33   2.0000      -0.778106       -21.1733
  34   2.0000      -0.716113       -19.4864
  35   2.0000      -0.694219       -18.8907
  36   2.0000      -0.687318       -18.7029
  37   2.0000      -0.660215       -17.9654
  38   2.0000      -0.643196       -17.5023
  39   2.0000      -0.617665       -16.8075
  40   2.0000      -0.600943       -16.3525
  41   2.0000      -0.574841       -15.6422
  42   2.0000      -0.565363       -15.3843
  43   2.0000      -0.558970       -15.2103
  44   2.0000      -0.554627       -15.0922
  45   2.0000      -0.528394       -14.3783
  46   2.0000      -0.512834       -13.9549
  47   2.0000      -0.505182       -13.7467
  48   2.0000      -0.503122       -13.6906
  49   2.0000      -0.499625       -13.5955
  50   2.0000      -0.496439       -13.5088
  51   2.0000      -0.482251       -13.1227
  52   2.0000      -0.477587       -12.9958
  53   2.0000      -0.463529       -12.6133
  54   2.0000      -0.457849       -12.4587
  55   2.0000      -0.452383       -12.3100
  56   2.0000      -0.447357       -12.1732
  57   2.0000      -0.440729       -11.9928
  58   2.0000      -0.433224       -11.7886
  59   2.0000      -0.430357       -11.7106
  60   2.0000      -0.419198       -11.4070
  61   2.0000      -0.413933       -11.2637
  62   2.0000      -0.400543       -10.8993
  63   2.0000      -0.340227        -9.2581
  64   2.0000      -0.333707        -9.0806
  65   2.0000      -0.323925        -8.8145
  66   2.0000      -0.295871        -8.0511
  67   0.0000       0.033180         0.9029
  68   0.0000       0.057352         1.5606
  69   0.0000       0.107165         2.9161
  70   0.0000       0.122043         3.3210
  71   0.0000       0.127293         3.4638

MULLIKEN ATOMIC CHARGES
-----------------------
   0 S :    0.122674
   1 C :   -0.153776
   2 C :   -0.056465
   3 C :    0.003522
   4 C :   -0.142686
   5 H :    0.005936
   6 C :    0.048133
   7 H :    0.042571
   8 H :    0.023419
   9 C :   -0.090071
  10 H :    0.026672
  11 H :    0.021940
  12 C :    0.026246
  13 H :    0.014381
  14 H :    0.003779
  15 H :    0.041979
  16 S :    0.084345
  17 C :   -0.050748
  18 C :   -0.036943
  19 C :   -0.012168
  20 C :   -0.189641
  21 H :    0.011508
  22 C :    0.114964
  23 H :    0.014773
  24 H :    0.023385
  25 C :   -0.112472
  26 H :    0.026556
  27 H :    0.008254
  28 C :   -0.012668
  29 H :    0.005680
  30 H :    0.025007
  31 H :    0.051059
  32 H :    0.064059
  33 H :    0.046796
Sum of atomic charges:    0.0000000

LOEWDIN ATOMIC CHARGES
----------------------
   0 S :    0.407271
   1 C :   -0.200635
   2 C :   -0.055337
   3 C :   -0.064629
   4 C :   -0.200441
   5 H :    0.027350
   6 C :   -0.035906
   7 H :    0.041733
   8 H :    0.026432
   9 C :   -0.042169
  10 H :    0.022177
  11 H :    0.019447
  12 C :   -0.057078
  13 H :    0.024322
  14 H :    0.020353
  15 H :    0.031754
  16 S :    0.379869
  17 C :   -0.182401
  18 C :   -0.071007
  19 C :   -0.045037
  20 C :   -0.171832
  21 H :    0.026275
  22 C :   -0.026866
  23 H :    0.028991
  24 H :    0.032498
  25 C :   -0.042351
  26 H :    0.027388
  27 H :    0.012218
  28 C :   -0.063361
  29 H :    0.015305
  30 H :    0.026842
  31 H :    0.032678
  32 H :    0.031306
  33 H :    0.024840

  Mayer bond orders larger than 0.100000
B(  0-S ,  1-C ) :   1.1516 B(  0-S ,  4-C ) :   1.1577 B(  1-C ,  2-C ) :   1.5700
B(  1-C ,  4-C ) :   0.1058 B(  1-C , 32-H ) :   0.9705 B(  2-C ,  3-C ) :   1.2541
B(  2-C ,  6-C ) :   1.0159 B(  3-C ,  4-C ) :   1.5652 B(  3-C ,  5-H ) :   0.9838
B(  4-C , 20-C ) :   1.0323 B(  6-C ,  7-H ) :   0.9329 B(  6-C ,  8-H ) :   0.9347
B(  6-C ,  9-C ) :   1.0957 B(  9-C , 10-H ) :   0.9410 B(  9-C , 11-H ) :   0.9531
B(  9-C , 12-C ) :   1.0810 B( 12-C , 13-H ) :   0.9678 B( 12-C , 14-H ) :   0.9692
B( 12-C , 15-H ) :   0.9722 B( 16-S , 17-C ) :   1.1551 B( 16-S , 20-C ) :   1.0966
B( 17-C , 18-C ) :   1.6412 B( 17-C , 33-H ) :   0.9657 B( 18-C , 19-C ) :   1.1782
B( 18-C , 21-H ) :   0.9960 B( 19-C , 20-C ) :   1.6666 B( 19-C , 22-C ) :   1.0586
B( 22-C , 23-H ) :   0.9323 B( 22-C , 24-H ) :   0.9327 B( 22-C , 25-C ) :   1.0638
B( 25-C , 26-H ) :   0.9544 B( 25-C , 27-H ) :   0.9493 B( 25-C , 28-C ) :   1.1021
B( 28-C , 29-H ) :   0.9644 B( 28-C , 30-H ) :   0.9616 B( 28-C , 31-H ) :   0.9665

Dispersion correction           -0.014779353
FINAL SINGLE POINT ENERGY     -1339.865129241965

DIPOLE MOMENT
-------------
                                X             Y             Z
Electronic contribution:     29.62706      -3.24108       3.66665
Nuclear contribution   :    -30.18824       3.40421      -3.81391
                        -----------------------------------------
Total Dipole Moment    :     -0.56117       0.16313      -0.14727
                        -----------------------------------------
Magnitude (a.u.)       :      0.60267
Magnitude (Debye)      :      1.53187

Rotational constants in cm-1:     0.018266     0.009129     0.006952
Rotational constants in MHz :   547.588304   273.695068   208.413800

                             ****ORCA TERMINATED NORMALLY****
TOTAL RUN TIME: 0 days 0 hours 0 minutes 34 seconds 99 msec
