                         Program Version 4.2.1 -  RELEASE  -
|  1> ! wB97X-D3 SP def2-SVP
|  2> %pal
|  3> nprocs 16
|  4> end
|  5>
|  6> * xyz 0 1
|  7> S 	 -70.8699 	 47.9207 	 123.474
|  8> C 	 -70.5943 	 48.5458 	 121.894
|  9> C 	 -70.3938 	 49.9467 	 121.905
| 10> C 	 -70.68 	 50.4791 	 123.221
| 11> C 	 -70.863 	 49.5074 	 124.151
| 12> H 	 -70.7893 	 51.5005 	 123.566
| 13> C 	 -70.0385 	 50.8065 	 120.657
| 14> H 	 -71.0371 	 51.1758 	 120.219
| 15> H 	 -69.5561 	 50.1819 	 119.891
| 16> C 	 -69.1702 	 52.0204 	 120.883
| 17> H 	 -69.0643 	 52.5948 	 120.003
| 18> H 	 -69.5405 	 52.6319 	 121.687
| 19> C 	 -67.784 	 51.7023 	 121.286
| 20> H 	 -67.2912 	 52.626 	 121.586
| 21> H 	 -67.6977 	 51.0193 	 122.16
| 22> H 	 -67.1459 	 51.3812 	 120.461
| 23> S 	 -72.6367 	 50.8468 	 125.677
| 24> C 	 -72.6778 	 50.5463 	 127.378
| 25> C 	 -71.7509 	 49.6442 	 127.8
| 26> C 	 -70.8522 	 49.2886 	 126.783
| 27> C 	 -71.2277 	 49.79 	 125.553
| 28> H 	 -71.7042 	 49.452 	 128.814
| 29> C 	 -69.688 	 48.3665 	 127.024
| 30> H 	 -69.7754 	 47.4228 	 126.424
| 31> H 	 -69.9359 	 47.9537 	 128.083
| 32> C 	 -68.2335 	 48.9916 	 126.953
| 33> H 	 -68.2443 	 49.4145 	 125.932
| 34> H 	 -67.4512 	 48.2447 	 127.107
| 35> C 	 -67.9289 	 49.9996 	 128.098
| 36> H 	 -67.735 	 49.5854 	 129.062
| 37> H 	 -68.8045 	 50.6261 	 128.324
| 38> H 	 -67.0607 	 50.6447 	 128.017
| 39> H 	 -70.3256 	 48.0306 	 120.988
| 40> H 	 -73.2941 	 51.1014 	 128.053
| 41> *
| 42>
| 43>                          ****END OF INPUT****

CARTESIAN COORDINATES (ANGSTROEM)
---------------------------------
  S    -70.869900   47.920700  123.474000
  C    -70.594300   48.545800  121.894000
  C    -70.393800   49.946700  121.905000
  C    -70.680000   50.479100  123.221000
  C    -70.863000   49.507400  124.151000
  H    -70.789300   51.500500  123.566000
  C    -70.038500   50.806500  120.657000
  H    -71.037100   51.175800  120.219000
  H    -69.556100   50.181900  119.891000
  C    -69.170200   52.020400  120.883000
  H    -69.064300   52.594800  120.003000
  H    -69.540500   52.631900  121.687000
  C    -67.784000   51.702300  121.286000
  H    -67.291200   52.626000  121.586000
  H    -67.697700   51.019300  122.160000
  H    -67.145900   51.381200  120.461000
  S    -72.636700   50.846800  125.677000
  C    -72.677800   50.546300  127.378000
  C    -71.750900   49.644200  127.800000
  C    -70.852200   49.288600  126.783000
  C    -71.227700   49.790000  125.553000
  H    -71.704200   49.452000  128.814000
  C    -69.688000   48.366500  127.024000
  H    -69.775400   47.422800  126.424000
  H    -69.935900   47.953700  128.083000
  C    -68.233500   48.991600  126.953000
  H    -68.244300   49.414500  125.932000
  H    -67.451200   48.244700  127.107000
  C    -67.928900   49.999600  128.098000
  H    -67.735000   49.585400  129.062000
  H    -68.804500   50.626100  128.324000
  H    -67.060700   50.644700  128.017000
  H    -70.325600   48.030600  120.988000
  H    -73.294100   51.101400  128.053000

 Total Charge           Charge          ....    0
 Multiplicity           Mult            ....    1
 Number of Electrons    NEL             ....  134
 Basis Dimension        Dim             ....  322

ORBITAL ENERGIES
----------------

  NO   OCC          E(Eh)            E(eV)
   0   2.0000     -88.970065     -2420.9986
   1   2.0000     -88.965740     -2420.8809
   2   2.0000     -10.325188      -280.9627
   3   2.0000     -10.324967      -280.9566
   4   2.0000     -10.312558      -280.6190
   5   2.0000     -10.311039      -280.5776
   6   2.0000     -10.309131      -280.5257
   7   2.0000     -10.301745      -280.3247
   8   2.0000     -10.301503      -280.3181
   9   2.0000     -10.300754      -280.2978
  10   2.0000     -10.294778      -280.1351
  11   2.0000     -10.292555      -280.0747
  12   2.0000     -10.285070      -279.8710
  13   2.0000     -10.276693      -279.6430
  14   2.0000     -10.272822      -279.5377
  15   2.0000     -10.270179      -279.4658
  16   2.0000      -8.085120      -220.0073
  17   2.0000      -8.080736      -219.8880
  18   2.0000      -6.043631      -164.4556
  19   2.0000      -6.039590      -164.3456
  20   2.0000      -6.039048      -164.3309
  21   2.0000      -6.035863      -164.2442
  22   2.0000      -6.035247      -164.2274
  23   2.0000      -6.031649      -164.1295
  24   2.0000      -1.012089       -27.5404
  25   2.0000      -0.989130       -26.9156
  26   2.0000      -0.916849       -24.9487
  27   2.0000      -0.900262       -24.4974
  28   2.0000      -0.873707       -23.7748
  29   2.0000      -0.852366       -23.1940
  30   2.0000      -0.846348       -23.0303
  31   2.0000      -0.816355       -22.2142
  32   2.0000      -0.782694       -21.2982
  33   2.0000      -0.771239       -20.9865
  34   2.0000      -0.711120       -19.3506
  35   2.0000      -0.695281       -18.9196
  36   2.0000      -0.686183       -18.6720
  37   2.0000      -0.670026       -18.2323
  38   2.0000      -0.637405       -17.3447
  39   2.0000      -0.620338       -16.8803
  40   2.0000      -0.590464       -16.0674
  41   2.0000      -0.574111       -15.6224
  42   2.0000      -0.554999       -15.1023
  43   2.0000      -0.549738       -14.9591
  44   2.0000      -0.546333       -14.8665
  45   2.0000      -0.538943       -14.6654
  46   2.0000      -0.515143       -14.0178
  47   2.0000      -0.512414       -13.9435
  48   2.0000      -0.495767       -13.4905
  49   2.0000      -0.489636       -13.3237
  50   2.0000      -0.484058       -13.1719
  51   2.0000      -0.478592       -13.0231
  52   2.0000      -0.475879       -12.9493
  53   2.0000      -0.465256       -12.6603
  54   2.0000      -0.461768       -12.5653
  55   2.0000      -0.449401       -12.2288
  56   2.0000      -0.447700       -12.1825
  57   2.0000      -0.434592       -11.8259
  58   2.0000      -0.429963       -11.6999
  59   2.0000      -0.421781       -11.4773
  60   2.0000      -0.418511       -11.3883
  61   2.0000      -0.416437       -11.3318
  62   2.0000      -0.411946       -11.2096
  63   2.0000      -0.344530        -9.3751
  64   2.0000      -0.336308        -9.1514
  65   2.0000      -0.329117        -8.9557
  66   2.0000      -0.294279        -8.0077
  67   0.0000       0.031945         0.8693
  68   0.0000       0.071891         1.9562
  69   0.0000       0.100217         2.7271
  70   0.0000       0.122843         3.3427
  71   0.0000       0.128953         3.5090

MULLIKEN ATOMIC CHARGES
-----------------------
   0 S :    0.134950
   1 C :   -0.104508
   2 C :   -0.108357
   3 C :   -0.011645
   4 C :   -0.117400
   5 H :    0.018352
   6 C :    0.056555
   7 H :    0.055844
   8 H :    0.020003
   9 C :   -0.037469
  10 H :    0.020203
  11 H :    0.025416
  12 C :   -0.073796
  13 H :    0.020521
  14 H :    0.045867
  15 H :    0.023991
  16 S :    0.109970
  17 C :   -0.083654
  18 C :   -0.009056
  19 C :   -0.027392
  20 C :   -0.170918
  21 H :   -0.007719
  22 C :   -0.010408
  23 H :    0.047726
  24 H :    0.021230
  25 C :   -0.027755
  26 H :    0.050624
  27 H :    0.039431
  28 C :   -0.058146
  29 H :    0.010852
  30 H :    0.026740
  31 H :    0.032041
  32 H :    0.042367
  33 H :    0.045539
Sum of atomic charges:    0.0000000

LOEWDIN ATOMIC CHARGES
----------------------
   0 S :    0.433980
   1 C :   -0.214371
   2 C :   -0.055590
   3 C :   -0.074224
   4 C :   -0.207841
   5 H :    0.028870
   6 C :   -0.033877
   7 H :    0.043779
   8 H :    0.028553
   9 C :   -0.046153
  10 H :    0.025342
  11 H :    0.023806
  12 C :   -0.068980
  13 H :    0.025524
  14 H :    0.029029
  15 H :    0.021648
  16 S :    0.416393
  17 C :   -0.180276
  18 C :   -0.065127
  19 C :   -0.065669
  20 C :   -0.186844
  21 H :    0.022056
  22 C :   -0.043869
  23 H :    0.034466
  24 H :    0.033628
  25 C :   -0.032601
  26 H :    0.031845
  27 H :    0.028504
  28 C :   -0.076125
  29 H :    0.020671
  30 H :    0.025662
  31 H :    0.026975
  32 H :    0.027603
  33 H :    0.023211

  Mayer bond orders larger than 0.100000
B(  0-S ,  1-C ) :   1.1455 B(  0-S ,  4-C ) :   1.1518 B(  1-C ,  2-C ) :   1.6183
B(  1-C , 32-H ) :   0.9624 B(  2-C ,  3-C ) :   1.2151 B(  2-C ,  6-C ) :   1.0164
B(  3-C ,  4-C ) :   1.5785 B(  3-C ,  5-H ) :   0.9951 B(  4-C , 20-C ) :   1.0202
B(  6-C ,  7-H ) :   0.9372 B(  6-C ,  8-H ) :   0.9433 B(  6-C ,  9-C ) :   1.0832
B(  9-C , 10-H ) :   0.9480 B(  9-C , 11-H ) :   0.9515 B(  9-C , 12-C ) :   1.0926
B( 12-C , 13-H ) :   0.9703 B( 12-C , 14-H ) :   0.9731 B( 12-C , 15-H ) :   0.9724
B( 16-S , 17-C ) :   1.1620 B( 16-S , 20-C ) :   1.1462 B( 17-C , 18-C ) :   1.6151
B( 17-C , 33-H ) :   0.9648 B( 18-C , 19-C ) :   1.2451 B( 18-C , 21-H ) :   0.9994
B( 19-C , 20-C ) :   1.5890 B( 19-C , 22-C ) :   1.0312 B( 22-C , 23-H ) :   0.9400
B( 22-C , 24-H ) :   0.9399 B( 22-C , 25-C ) :   1.0472 B( 25-C , 26-H ) :   0.9607
B( 25-C , 27-H ) :   0.9596 B( 25-C , 28-C ) :   1.0591 B( 28-C , 29-H ) :   0.9732
B( 28-C , 30-H ) :   0.9792 B( 28-C , 31-H ) :   0.9759

Dispersion correction           -0.014688081
FINAL SINGLE POINT ENERGY     -1339.872195073352

DIPOLE MOMENT
-------------
                                X             Y             Z
Electronic contribution:    -20.66883      -7.61290       1.38807
Nuclear contribution   :     20.96834       7.84921      -1.34501
                        -----------------------------------------
Total Dipole Moment    :      0.29951       0.23631       0.04306
                        -----------------------------------------
Magnitude (a.u.)       :      0.38393
Magnitude (Debye)      :      0.97587

Rotational constants in cm-1:     0.018906     0.008560     0.007812
Rotational constants in MHz :   566.795555   256.628372   234.206654

                             ****ORCA TERMINATED NORMALLY****
TOTAL RUN TIME: 0 days 0 hours 0 minutes 32 seconds 213 msec
