                         Program Version 4.2.1 -  RELEASE  -
|  1> ! wB97X-D3 SP def2-SVP
|  2> %pal
|  3> nprocs 16
|  4> end
|  5>
|  6> * xyz 0 1
|  7> S 	 4.85585 	 -5.3342 	 72.957
|  8> C 	 3.25293 	 -5.37079 	 72.3691
|  9> C 	 2.42157 	 -4.54728 	 73.1396
| 10> C 	 3.05658 	 -4.04048 	 74.3488
| 11> C 	 4.32617 	 -4.47856 	 74.4534
| 12> H 	 2.58082 	 -3.42486 	 75.0856
| 13> C 	 0.888363 	 -4.3927 	 72.9408
| 14> H 	 0.457314 	 -5.14536 	 72.2685
| 15> H 	 0.586884 	 -3.39467 	 72.5202
| 16> C 	 0.0411823 	 -4.4001 	 74.2677
| 17> H 	 0.489973 	 -3.87088 	 75.1458
| 18> H 	 -0.8706 	 -3.82503 	 74.0263
| 19> C 	 -0.370994 	 -5.82684 	 74.7193
| 20> H 	 -1.16637 	 -5.72063 	 75.478
| 21> H 	 -0.882231 	 -6.37743 	 73.8575
| 22> H 	 0.463383 	 -6.41904 	 75.0695
| 23> S 	 6.79505 	 -3.71067 	 75.5436
| 24> C 	 7.01493 	 -3.45666 	 77.3144
| 25> C 	 5.86035 	 -3.77151 	 77.9598
| 26> C 	 4.81286 	 -4.27644 	 77.1041
| 27> C 	 5.12241 	 -4.2845 	 75.681
| 28> H 	 5.71053 	 -3.7597 	 79.0499
| 29> C 	 3.38127 	 -4.61148 	 77.6382
| 30> H 	 3.46558 	 -5.20204 	 78.5104
| 31> H 	 2.9378 	 -5.24778 	 76.8942
| 32> C 	 2.60653 	 -3.33409 	 77.9443
| 33> H 	 1.53205 	 -3.42347 	 77.6195
| 34> H 	 3.07346 	 -2.60548 	 77.3759
| 35> C 	 2.62201 	 -2.83111 	 79.4074
| 36> H 	 3.60776 	 -2.73447 	 79.7932
| 37> H 	 2.06801 	 -3.56258 	 80.048
| 38> H 	 2.08432 	 -1.93962 	 79.5285
| 39> H 	 2.94788 	 -5.86785 	 71.453
| 40> H 	 7.83105 	 -3.1684 	 77.8879
| 41> *
| 42>
| 43>                          ****END OF INPUT****

CARTESIAN COORDINATES (ANGSTROEM)
---------------------------------
  S      4.855850   -5.334200   72.957000
  C      3.252930   -5.370790   72.369100
  C      2.421570   -4.547280   73.139600
  C      3.056580   -4.040480   74.348800
  C      4.326170   -4.478560   74.453400
  H      2.580820   -3.424860   75.085600
  C      0.888363   -4.392700   72.940800
  H      0.457314   -5.145360   72.268500
  H      0.586884   -3.394670   72.520200
  C      0.041182   -4.400100   74.267700
  H      0.489973   -3.870880   75.145800
  H     -0.870600   -3.825030   74.026300
  C     -0.370994   -5.826840   74.719300
  H     -1.166370   -5.720630   75.478000
  H     -0.882231   -6.377430   73.857500
  H      0.463383   -6.419040   75.069500
  S      6.795050   -3.710670   75.543600
  C      7.014930   -3.456660   77.314400
  C      5.860350   -3.771510   77.959800
  C      4.812860   -4.276440   77.104100
  C      5.122410   -4.284500   75.681000
  H      5.710530   -3.759700   79.049900
  C      3.381270   -4.611480   77.638200
  H      3.465580   -5.202040   78.510400
  H      2.937800   -5.247780   76.894200
  C      2.606530   -3.334090   77.944300
  H      1.532050   -3.423470   77.619500
  H      3.073460   -2.605480   77.375900
  C      2.622010   -2.831110   79.407400
  H      3.607760   -2.734470   79.793200
  H      2.068010   -3.562580   80.048000
  H      2.084320   -1.939620   79.528500
  H      2.947880   -5.867850   71.453000
  H      7.831050   -3.168400   77.887900

 Total Charge           Charge          ....    0
 Multiplicity           Mult            ....    1
 Number of Electrons    NEL             ....  134
 Basis Dimension        Dim             ....  322

ORBITAL ENERGIES
----------------

  NO   OCC          E(Eh)            E(eV)
   0   2.0000     -88.969549     -2420.9845
   1   2.0000     -88.965798     -2420.8824
   2   2.0000     -10.339114      -281.3416
   3   2.0000     -10.336196      -281.2622
   4   2.0000     -10.319074      -280.7963
   5   2.0000     -10.318661      -280.7850
   6   2.0000     -10.312912      -280.6286
   7   2.0000     -10.309604      -280.5386
   8   2.0000     -10.302173      -280.3364
   9   2.0000     -10.297802      -280.2174
  10   2.0000     -10.297250      -280.2024
  11   2.0000     -10.295882      -280.1652
  12   2.0000     -10.287631      -279.9407
  13   2.0000     -10.285522      -279.8833
  14   2.0000     -10.284422      -279.8534
  15   2.0000     -10.277750      -279.6718
  16   2.0000      -8.084304      -219.9851
  17   2.0000      -8.079163      -219.8452
  18   2.0000      -6.042980      -164.4378
  19   2.0000      -6.038918      -164.3273
  20   2.0000      -6.037935      -164.3006
  21   2.0000      -6.034751      -164.2139
  22   2.0000      -6.033738      -164.1864
  23   2.0000      -6.029828      -164.0800
  24   2.0000      -1.002513       -27.2798
  25   2.0000      -0.977753       -26.6060
  26   2.0000      -0.908702       -24.7270
  27   2.0000      -0.901538       -24.5321
  28   2.0000      -0.875886       -23.8341
  29   2.0000      -0.847530       -23.0625
  30   2.0000      -0.838286       -22.8109
  31   2.0000      -0.819925       -22.3113
  32   2.0000      -0.780306       -21.2332
  33   2.0000      -0.769457       -20.9380
  34   2.0000      -0.710385       -19.3306
  35   2.0000      -0.699610       -19.0374
  36   2.0000      -0.690602       -18.7922
  37   2.0000      -0.658218       -17.9110
  38   2.0000      -0.644162       -17.5286
  39   2.0000      -0.627673       -17.0799
  40   2.0000      -0.595957       -16.2168
  41   2.0000      -0.568180       -15.4610
  42   2.0000      -0.555261       -15.1094
  43   2.0000      -0.544868       -14.8266
  44   2.0000      -0.544117       -14.8062
  45   2.0000      -0.530695       -14.4410
  46   2.0000      -0.518820       -14.1178
  47   2.0000      -0.510334       -13.8869
  48   2.0000      -0.509782       -13.8719
  49   2.0000      -0.502435       -13.6719
  50   2.0000      -0.494636       -13.4597
  51   2.0000      -0.480641       -13.0789
  52   2.0000      -0.473389       -12.8816
  53   2.0000      -0.464447       -12.6382
  54   2.0000      -0.456128       -12.4119
  55   2.0000      -0.449986       -12.2448
  56   2.0000      -0.448060       -12.1923
  57   2.0000      -0.432924       -11.7805
  58   2.0000      -0.430149       -11.7050
  59   2.0000      -0.424788       -11.5591
  60   2.0000      -0.424446       -11.5498
  61   2.0000      -0.415302       -11.3009
  62   2.0000      -0.408246       -11.1089
  63   2.0000      -0.359233        -9.7752
  64   2.0000      -0.333803        -9.0832
  65   2.0000      -0.323361        -8.7991
  66   2.0000      -0.289603        -7.8805
  67   0.0000       0.022644         0.6162
  68   0.0000       0.066967         1.8223
  69   0.0000       0.105987         2.8840
  70   0.0000       0.121024         3.2932
  71   0.0000       0.123624         3.3640

MULLIKEN ATOMIC CHARGES
-----------------------
   0 S :    0.120113
   1 C :   -0.119955
   2 C :   -0.060240
   3 C :    0.014742
   4 C :   -0.100716
   5 H :    0.005562
   6 C :    0.045340
   7 H :    0.025168
   8 H :    0.043655
   9 C :   -0.125022
  10 H :    0.037132
  11 H :    0.028904
  12 C :   -0.068440
  13 H :    0.037109
  14 H :    0.033271
  15 H :    0.049029
  16 S :    0.084065
  17 C :   -0.046730
  18 C :   -0.035455
  19 C :   -0.117181
  20 C :   -0.144726
  21 H :    0.033244
  22 C :    0.092076
  23 H :    0.011822
  24 H :    0.029143
  25 C :   -0.093167
  26 H :    0.039893
  27 H :    0.035188
  28 C :   -0.017748
  29 H :    0.021060
  30 H :    0.027528
  31 H :    0.026183
  32 H :    0.056575
  33 H :    0.032579
Sum of atomic charges:   -0.0000000

LOEWDIN ATOMIC CHARGES
----------------------
   0 S :    0.398944
   1 C :   -0.204283
   2 C :   -0.063154
   3 C :   -0.049563
   4 C :   -0.178002
   5 H :    0.031830
   6 C :   -0.036450
   7 H :    0.029288
   8 H :    0.037301
   9 C :   -0.048620
  10 H :    0.023993
  11 H :    0.025306
  12 C :   -0.071381
  13 H :    0.026994
  14 H :    0.029241
  15 H :    0.024101
  16 S :    0.377700
  17 C :   -0.162118
  18 C :   -0.077563
  19 C :   -0.051943
  20 C :   -0.190554
  21 H :    0.035736
  22 C :   -0.027898
  23 H :    0.022147
  24 H :    0.029802
  25 C :   -0.041455
  26 H :    0.028917
  27 H :    0.013895
  28 C :   -0.055485
  29 H :    0.017156
  30 H :    0.028343
  31 H :    0.021461
  32 H :    0.033073
  33 H :    0.023240

  Mayer bond orders larger than 0.100000
B(  0-S ,  1-C ) :   1.1400 B(  0-S ,  4-C ) :   1.1222 B(  1-C ,  2-C ) :   1.6207
B(  1-C , 32-H ) :   0.9686 B(  2-C ,  3-C ) :   1.2069 B(  2-C ,  6-C ) :   1.0215
B(  3-C ,  4-C ) :   1.5914 B(  3-C ,  5-H ) :   0.9988 B(  4-C , 20-C ) :   1.0509
B(  6-C ,  7-H ) :   0.9536 B(  6-C ,  8-H ) :   0.9405 B(  6-C ,  9-C ) :   1.0608
B(  9-C , 10-H ) :   0.9521 B(  9-C , 11-H ) :   0.9574 B(  9-C , 12-C ) :   1.0746
B( 12-C , 13-H ) :   0.9752 B( 12-C , 14-H ) :   0.9737 B( 12-C , 15-H ) :   0.9778
B( 16-S , 17-C ) :   1.1372 B( 16-S , 20-C ) :   1.1313 B( 17-C , 18-C ) :   1.6120
B( 17-C , 20-C ) :   0.1021 B( 17-C , 33-H ) :   0.9725 B( 18-C , 19-C ) :   1.2673
B( 18-C , 21-H ) :   0.9754 B( 19-C , 20-C ) :   1.5601 B( 19-C , 22-C ) :   1.0525
B( 22-C , 23-H ) :   0.9389 B( 22-C , 24-H ) :   0.9368 B( 22-C , 25-C ) :   1.0371
B( 25-C , 26-H ) :   0.9535 B( 25-C , 27-H ) :   0.9554 B( 25-C , 28-C ) :   1.0848
B( 28-C , 29-H ) :   0.9738 B( 28-C , 30-H ) :   0.9735 B( 28-C , 31-H ) :   0.9710

Dispersion correction           -0.015483670
FINAL SINGLE POINT ENERGY     -1339.862910345690

DIPOLE MOMENT
-------------
                                X             Y             Z
Electronic contribution:     28.88548      -1.88731     -14.20709
Nuclear contribution   :    -29.65880       1.99433      14.58857
                        -----------------------------------------
Total Dipole Moment    :     -0.77332       0.10701       0.38147
                        -----------------------------------------
Magnitude (a.u.)       :      0.86890
Magnitude (Debye)      :      2.20858

Rotational constants in cm-1:     0.016697     0.010695     0.006921
Rotational constants in MHz :   500.575428   320.625578   207.482934

                             ****ORCA TERMINATED NORMALLY****
TOTAL RUN TIME: 0 days 0 hours 0 minutes 36 seconds 991 msec
