                         Program Version 4.2.1 -  RELEASE  -
|  1> ! wB97X-D3 SP def2-SVP
|  2> %pal
|  3> nprocs 16
|  4> end
|  5>
|  6> * xyz 0 1
|  7> S 	 -107.42 	 56.2822 	 114.321
|  8> C 	 -107.978 	 56.379 	 112.66
|  9> C 	 -106.957 	 56.3656 	 111.751
| 10> C 	 -105.752 	 55.9993 	 112.328
| 11> C 	 -105.831 	 55.681 	 113.692
| 12> H 	 -104.883 	 55.7272 	 111.724
| 13> C 	 -107.208 	 56.5071 	 110.262
| 14> H 	 -106.26 	 56.7916 	 109.837
| 15> H 	 -107.904 	 57.3232 	 110.067
| 16> C 	 -107.491 	 55.1961 	 109.504
| 17> H 	 -108.38 	 54.6829 	 109.922
| 18> H 	 -107.792 	 55.5326 	 108.496
| 19> C 	 -106.32 	 54.2746 	 109.434
| 20> H 	 -106.012 	 53.8277 	 110.447
| 21> H 	 -106.654 	 53.5242 	 108.808
| 22> H 	 -105.521 	 54.7666 	 108.853
| 23> S 	 -104.418 	 55.6316 	 116.155
| 24> C 	 -103.292 	 54.3515 	 116.408
| 25> C 	 -103.292 	 53.4254 	 115.441
| 26> C 	 -104.211 	 53.789 	 114.41
| 27> C 	 -104.886 	 54.9614 	 114.585
| 28> H 	 -102.712 	 52.5501 	 115.633
| 29> C 	 -104.462 	 52.7429 	 113.294
| 30> H 	 -103.544 	 52.6093 	 112.737
| 31> H 	 -105.243 	 53.2277 	 112.627
| 32> C 	 -104.896 	 51.295 	 113.754
| 33> H 	 -104.16 	 50.9842 	 114.462
| 34> H 	 -104.706 	 50.7166 	 112.867
| 35> C 	 -106.366 	 51.2164 	 114.203
| 36> H 	 -106.647 	 50.1995 	 113.951
| 37> H 	 -106.992 	 51.9424 	 113.678
| 38> H 	 -106.643 	 51.3454 	 115.238
| 39> H 	 -109.1 	 56.4192 	 112.45
| 40> H 	 -102.648 	 54.2933 	 117.233
| 41> *
| 42>
| 43>                          ****END OF INPUT****

CARTESIAN COORDINATES (ANGSTROEM)
---------------------------------
  S    -107.420000   56.282200  114.321000
  C    -107.978000   56.379000  112.660000
  C    -106.957000   56.365600  111.751000
  C    -105.752000   55.999300  112.328000
  C    -105.831000   55.681000  113.692000
  H    -104.883000   55.727200  111.724000
  C    -107.208000   56.507100  110.262000
  H    -106.260000   56.791600  109.837000
  H    -107.904000   57.323200  110.067000
  C    -107.491000   55.196100  109.504000
  H    -108.380000   54.682900  109.922000
  H    -107.792000   55.532600  108.496000
  C    -106.320000   54.274600  109.434000
  H    -106.012000   53.827700  110.447000
  H    -106.654000   53.524200  108.808000
  H    -105.521000   54.766600  108.853000
  S    -104.418000   55.631600  116.155000
  C    -103.292000   54.351500  116.408000
  C    -103.292000   53.425400  115.441000
  C    -104.211000   53.789000  114.410000
  C    -104.886000   54.961400  114.585000
  H    -102.712000   52.550100  115.633000
  C    -104.462000   52.742900  113.294000
  H    -103.544000   52.609300  112.737000
  H    -105.243000   53.227700  112.627000
  C    -104.896000   51.295000  113.754000
  H    -104.160000   50.984200  114.462000
  H    -104.706000   50.716600  112.867000
  C    -106.366000   51.216400  114.203000
  H    -106.647000   50.199500  113.951000
  H    -106.992000   51.942400  113.678000
  H    -106.643000   51.345400  115.238000
  H    -109.100000   56.419200  112.450000
  H    -102.648000   54.293300  117.233000

 Total Charge           Charge          ....    0
 Multiplicity           Mult            ....    1
 Number of Electrons    NEL             ....  134
 Basis Dimension        Dim             ....  322

ORBITAL ENERGIES
----------------

  NO   OCC          E(Eh)            E(eV)
   0   2.0000     -88.963670     -2420.8245
   1   2.0000     -88.960261     -2420.7318
   2   2.0000     -10.338104      -281.3141
   3   2.0000     -10.327703      -281.0311
   4   2.0000     -10.316731      -280.7325
   5   2.0000     -10.307672      -280.4860
   6   2.0000     -10.300556      -280.2924
   7   2.0000     -10.297015      -280.1960
   8   2.0000     -10.294961      -280.1401
   9   2.0000     -10.292443      -280.0716
  10   2.0000     -10.288930      -279.9760
  11   2.0000     -10.288871      -279.9744
  12   2.0000     -10.286575      -279.9119
  13   2.0000     -10.285384      -279.8795
  14   2.0000     -10.279903      -279.7304
  15   2.0000     -10.273232      -279.5489
  16   2.0000      -8.077865      -219.8099
  17   2.0000      -8.075724      -219.7516
  18   2.0000      -6.036308      -164.2563
  19   2.0000      -6.034232      -164.1998
  20   2.0000      -6.032697      -164.1580
  21   2.0000      -6.030234      -164.0910
  22   2.0000      -6.028478      -164.0432
  23   2.0000      -6.026343      -163.9851
  24   2.0000      -1.005585       -27.3634
  25   2.0000      -0.987640       -26.8751
  26   2.0000      -0.915928       -24.9237
  27   2.0000      -0.899736       -24.4831
  28   2.0000      -0.870373       -23.6841
  29   2.0000      -0.850486       -23.1429
  30   2.0000      -0.843769       -22.9601
  31   2.0000      -0.818035       -22.2599
  32   2.0000      -0.784260       -21.3408
  33   2.0000      -0.771939       -21.0055
  34   2.0000      -0.706122       -19.2146
  35   2.0000      -0.697260       -18.9734
  36   2.0000      -0.695425       -18.9235
  37   2.0000      -0.657213       -17.8837
  38   2.0000      -0.633615       -17.2415
  39   2.0000      -0.620491       -16.8844
  40   2.0000      -0.592685       -16.1278
  41   2.0000      -0.579515       -15.7694
  42   2.0000      -0.557512       -15.1707
  43   2.0000      -0.550311       -14.9747
  44   2.0000      -0.544465       -14.8156
  45   2.0000      -0.533457       -14.5161
  46   2.0000      -0.514286       -13.9944
  47   2.0000      -0.509863       -13.8741
  48   2.0000      -0.501058       -13.6345
  49   2.0000      -0.499409       -13.5896
  50   2.0000      -0.493523       -13.4295
  51   2.0000      -0.480589       -13.0775
  52   2.0000      -0.466968       -12.7068
  53   2.0000      -0.463630       -12.6160
  54   2.0000      -0.451912       -12.2971
  55   2.0000      -0.447740       -12.1836
  56   2.0000      -0.442129       -12.0309
  57   2.0000      -0.439453       -11.9581
  58   2.0000      -0.431488       -11.7414
  59   2.0000      -0.426786       -11.6134
  60   2.0000      -0.421602       -11.4724
  61   2.0000      -0.415048       -11.2940
  62   2.0000      -0.406082       -11.0500
  63   2.0000      -0.348506        -9.4833
  64   2.0000      -0.334904        -9.1132
  65   2.0000      -0.327967        -8.9244
  66   2.0000      -0.285878        -7.7791
  67   0.0000       0.027136         0.7384
  68   0.0000       0.064896         1.7659
  69   0.0000       0.106961         2.9105
  70   0.0000       0.124208         3.3799
  71   0.0000       0.131737         3.5847

MULLIKEN ATOMIC CHARGES
-----------------------
   0 S :    0.095172
   1 C :   -0.160410
   2 C :   -0.086538
   3 C :    0.044527
   4 C :   -0.172198
   5 H :    0.020651
   6 C :    0.085531
   7 H :   -0.000097
   8 H :    0.033698
   9 C :   -0.077978
  10 H :    0.025843
  11 H :    0.027252
  12 C :   -0.042598
  13 H :    0.065922
  14 H :    0.017684
  15 H :    0.030024
  16 S :    0.091781
  17 C :   -0.062263
  18 C :   -0.033882
  19 C :   -0.029740
  20 C :   -0.135327
  21 H :    0.015806
  22 C :   -0.001555
  23 H :    0.026271
  24 H :    0.044283
  25 C :   -0.041624
  26 H :    0.020658
  27 H :    0.025772
  28 C :   -0.034222
  29 H :    0.027598
  30 H :    0.032319
  31 H :    0.039366
  32 H :    0.076028
  33 H :    0.032243
Sum of atomic charges:   -0.0000000

LOEWDIN ATOMIC CHARGES
----------------------
   0 S :    0.369739
   1 C :   -0.192117
   2 C :   -0.076420
   3 C :   -0.058935
   4 C :   -0.166268
   5 H :    0.035204
   6 C :   -0.030558
   7 H :    0.025574
   8 H :    0.031292
   9 C :   -0.039296
  10 H :    0.022235
  11 H :    0.026461
  12 C :   -0.067777
  13 H :    0.038146
  14 H :    0.019998
  15 H :    0.028886
  16 S :    0.392870
  17 C :   -0.168796
  18 C :   -0.076228
  19 C :   -0.057932
  20 C :   -0.199252
  21 H :    0.032915
  22 C :   -0.034042
  23 H :    0.026053
  24 H :    0.028224
  25 C :   -0.031903
  26 H :    0.018514
  27 H :    0.025073
  28 C :   -0.065505
  29 H :    0.027401
  30 H :    0.028931
  31 H :    0.027706
  32 H :    0.040683
  33 H :    0.019125

  Mayer bond orders larger than 0.100000
B(  0-S ,  1-C ) :   1.1423 B(  0-S ,  4-C ) :   1.1410 B(  1-C ,  2-C ) :   1.6077
B(  1-C ,  4-C ) :   0.1105 B(  1-C , 32-H ) :   0.9611 B(  2-C ,  3-C ) :   1.2499
B(  2-C ,  6-C ) :   1.0269 B(  3-C ,  4-C ) :   1.5619 B(  3-C ,  5-H ) :   0.9929
B(  4-C , 20-C ) :   1.0318 B(  6-C ,  7-H ) :   0.9316 B(  6-C ,  8-H ) :   0.9432
B(  6-C ,  9-C ) :   1.0631 B(  9-C , 10-H ) :   0.9536 B(  9-C , 11-H ) :   0.9510
B(  9-C , 12-C ) :   1.0943 B( 12-C , 13-H ) :   0.9633 B( 12-C , 14-H ) :   0.9634
B( 12-C , 15-H ) :   0.9661 B( 16-S , 17-C ) :   1.1555 B( 16-S , 20-C ) :   1.1100
B( 17-C , 18-C ) :   1.6535 B( 17-C , 33-H ) :   0.9663 B( 18-C , 19-C ) :   1.1924
B( 18-C , 21-H ) :   0.9981 B( 19-C , 20-C ) :   1.6495 B( 19-C , 22-C ) :   1.0286
B( 22-C , 23-H ) :   0.9348 B( 22-C , 24-H ) :   0.9370 B( 22-C , 25-C ) :   1.0817
B( 25-C , 26-H ) :   0.9526 B( 25-C , 27-H ) :   0.9580 B( 25-C , 28-C ) :   1.0548
B( 28-C , 29-H ) :   0.9767 B( 28-C , 30-H ) :   0.9791 B( 28-C , 31-H ) :   0.9779

Dispersion correction           -0.015347896
FINAL SINGLE POINT ENERGY     -1339.861979796561

DIPOLE MOMENT
-------------
                                X             Y             Z
Electronic contribution:      2.58667      17.75948      21.96066
Nuclear contribution   :     -2.52245     -18.35684     -22.58272
                        -----------------------------------------
Total Dipole Moment    :      0.06422      -0.59736      -0.62206
                        -----------------------------------------
Magnitude (a.u.)       :      0.86483
Magnitude (Debye)      :      2.19822

Rotational constants in cm-1:     0.018597     0.009753     0.007597
Rotational constants in MHz :   557.515117   292.380364   227.767296

                             ****ORCA TERMINATED NORMALLY****
TOTAL RUN TIME: 0 days 0 hours 0 minutes 35 seconds 337 msec
