                         Program Version 4.2.1 -  RELEASE  -
|  1> ! wB97X-D3 SP def2-SVP
|  2> %pal
|  3> nprocs 16
|  4> end
|  5>
|  6> * xyz 0 1
|  7> S 	 -68.4349 	 53.0711 	 137.419
|  8> C 	 -68.8046 	 54.0214 	 138.811
|  9> C 	 -70.2179 	 54.1853 	 138.985
| 10> C 	 -70.9696 	 53.6937 	 137.91
| 11> C 	 -70.1695 	 53.0528 	 136.947
| 12> H 	 -72.0375 	 53.7373 	 137.714
| 13> C 	 -70.8189 	 54.9688 	 140.093
| 14> H 	 -71.8681 	 55.0338 	 140.037
| 15> H 	 -70.4286 	 55.9614 	 139.99
| 16> C 	 -70.5383 	 54.366 	 141.519
| 17> H 	 -71.4232 	 53.7514 	 141.691
| 18> H 	 -69.6945 	 53.763 	 141.605
| 19> C 	 -70.4709 	 55.4515 	 142.672
| 20> H 	 -70.552 	 54.8894 	 143.59
| 21> H 	 -69.5892 	 56.0035 	 142.551
| 22> H 	 -71.3447 	 56.0728 	 142.585
| 23> S 	 -69.5104 	 52.1487 	 134.45
| 24> C 	 -70.7521 	 51.7108 	 133.301
| 25> C 	 -71.9917 	 51.8026 	 133.82
| 26> C 	 -72.0254 	 52.4143 	 135.137
| 27> C 	 -70.7147 	 52.5681 	 135.675
| 28> H 	 -72.752 	 51.4974 	 133.175
| 29> C 	 -73.3725 	 52.6497 	 135.771
| 30> H 	 -74.1362 	 52.8655 	 135.038
| 31> H 	 -73.4409 	 53.6787 	 136.134
| 32> C 	 -73.9422 	 51.6046 	 136.682
| 33> H 	 -75.0255 	 51.8668 	 136.954
| 34> H 	 -73.3742 	 51.521 	 137.645
| 35> C 	 -73.8689 	 50.1982 	 136.053
| 36> H 	 -74.3412 	 50.0791 	 135.044
| 37> H 	 -74.2586 	 49.4003 	 136.734
| 38> H 	 -72.8615 	 49.8414 	 135.908
| 39> H 	 -68.1254 	 54.442 	 139.475
| 40> H 	 -70.6362 	 51.3494 	 132.341
| 41> *
| 42>
| 43>                          ****END OF INPUT****

CARTESIAN COORDINATES (ANGSTROEM)
---------------------------------
  S    -68.434900   53.071100  137.419000
  C    -68.804600   54.021400  138.811000
  C    -70.217900   54.185300  138.985000
  C    -70.969600   53.693700  137.910000
  C    -70.169500   53.052800  136.947000
  H    -72.037500   53.737300  137.714000
  C    -70.818900   54.968800  140.093000
  H    -71.868100   55.033800  140.037000
  H    -70.428600   55.961400  139.990000
  C    -70.538300   54.366000  141.519000
  H    -71.423200   53.751400  141.691000
  H    -69.694500   53.763000  141.605000
  C    -70.470900   55.451500  142.672000
  H    -70.552000   54.889400  143.590000
  H    -69.589200   56.003500  142.551000
  H    -71.344700   56.072800  142.585000
  S    -69.510400   52.148700  134.450000
  C    -70.752100   51.710800  133.301000
  C    -71.991700   51.802600  133.820000
  C    -72.025400   52.414300  135.137000
  C    -70.714700   52.568100  135.675000
  H    -72.752000   51.497400  133.175000
  C    -73.372500   52.649700  135.771000
  H    -74.136200   52.865500  135.038000
  H    -73.440900   53.678700  136.134000
  C    -73.942200   51.604600  136.682000
  H    -75.025500   51.866800  136.954000
  H    -73.374200   51.521000  137.645000
  C    -73.868900   50.198200  136.053000
  H    -74.341200   50.079100  135.044000
  H    -74.258600   49.400300  136.734000
  H    -72.861500   49.841400  135.908000
  H    -68.125400   54.442000  139.475000
  H    -70.636200   51.349400  132.341000

 Total Charge           Charge          ....    0
 Multiplicity           Mult            ....    1
 Number of Electrons    NEL             ....  134
 Basis Dimension        Dim             ....  322

ORBITAL ENERGIES
----------------

  NO   OCC          E(Eh)            E(eV)
   0   2.0000     -88.975662     -2421.1509
   1   2.0000     -88.963459     -2420.8188
   2   2.0000     -10.337143      -281.2880
   3   2.0000     -10.335194      -281.2349
   4   2.0000     -10.312141      -280.6076
   5   2.0000     -10.310600      -280.5657
   6   2.0000     -10.305864      -280.4368
   7   2.0000     -10.301698      -280.3235
   8   2.0000     -10.297224      -280.2017
   9   2.0000     -10.293229      -280.0930
  10   2.0000     -10.291106      -280.0352
  11   2.0000     -10.286658      -279.9142
  12   2.0000     -10.284287      -279.8497
  13   2.0000     -10.282242      -279.7940
  14   2.0000     -10.278729      -279.6984
  15   2.0000     -10.274158      -279.5740
  16   2.0000      -8.089076      -220.1149
  17   2.0000      -8.078208      -219.8192
  18   2.0000      -6.047628      -164.5643
  19   2.0000      -6.043743      -164.4586
  20   2.0000      -6.039920      -164.3546
  21   2.0000      -6.036871      -164.2716
  22   2.0000      -6.032764      -164.1599
  23   2.0000      -6.028768      -164.0511
  24   2.0000      -1.001817       -27.2608
  25   2.0000      -0.980888       -26.6913
  26   2.0000      -0.913157       -24.8483
  27   2.0000      -0.908107       -24.7108
  28   2.0000      -0.870198       -23.6793
  29   2.0000      -0.855023       -23.2664
  30   2.0000      -0.840515       -22.8716
  31   2.0000      -0.816862       -22.2279
  32   2.0000      -0.785226       -21.3671
  33   2.0000      -0.772029       -21.0080
  34   2.0000      -0.712324       -19.3833
  35   2.0000      -0.704660       -19.1748
  36   2.0000      -0.689566       -18.7640
  37   2.0000      -0.666346       -18.1322
  38   2.0000      -0.639226       -17.3942
  39   2.0000      -0.618295       -16.8247
  40   2.0000      -0.599208       -16.3053
  41   2.0000      -0.580634       -15.7998
  42   2.0000      -0.559004       -15.2113
  43   2.0000      -0.550806       -14.9882
  44   2.0000      -0.544912       -14.8278
  45   2.0000      -0.524005       -14.2589
  46   2.0000      -0.520869       -14.1736
  47   2.0000      -0.514417       -13.9980
  48   2.0000      -0.505713       -13.7611
  49   2.0000      -0.493246       -13.4219
  50   2.0000      -0.486006       -13.2249
  51   2.0000      -0.483964       -13.1693
  52   2.0000      -0.480366       -13.0714
  53   2.0000      -0.463803       -12.6207
  54   2.0000      -0.459142       -12.4939
  55   2.0000      -0.450629       -12.2622
  56   2.0000      -0.441934       -12.0256
  57   2.0000      -0.438228       -11.9248
  58   2.0000      -0.432510       -11.7692
  59   2.0000      -0.424858       -11.5610
  60   2.0000      -0.420529       -11.4432
  61   2.0000      -0.413950       -11.2642
  62   2.0000      -0.403476       -10.9791
  63   2.0000      -0.363697        -9.8967
  64   2.0000      -0.337026        -9.1709
  65   2.0000      -0.326767        -8.8918
  66   2.0000      -0.273260        -7.4358
  67   0.0000       0.012902         0.3511
  68   0.0000       0.085473         2.3258
  69   0.0000       0.095429         2.5968
  70   0.0000       0.119859         3.2615
  71   0.0000       0.134235         3.6527

MULLIKEN ATOMIC CHARGES
-----------------------
   0 S :    0.132732
   1 C :   -0.093350
   2 C :   -0.074323
   3 C :   -0.011302
   4 C :   -0.107310
   5 H :    0.003106
   6 C :    0.089747
   7 H :    0.008006
   8 H :    0.033064
   9 C :   -0.102105
  10 H :    0.028328
  11 H :    0.024541
  12 C :   -0.026983
  13 H :    0.034679
  14 H :    0.031257
  15 H :    0.024682
  16 S :    0.082190
  17 C :   -0.045432
  18 C :   -0.019186
  19 C :   -0.060190
  20 C :   -0.123342
  21 H :   -0.003538
  22 C :    0.047615
  23 H :    0.006695
  24 H :    0.025711
  25 C :   -0.052506
  26 H :    0.042292
  27 H :    0.038889
  28 C :   -0.089469
  29 H :    0.032333
  30 H :    0.036477
  31 H :    0.042131
  32 H :    0.023538
  33 H :    0.021023
Sum of atomic charges:    0.0000000

LOEWDIN ATOMIC CHARGES
----------------------
   0 S :    0.409327
   1 C :   -0.201726
   2 C :   -0.054267
   3 C :   -0.061188
   4 C :   -0.181803
   5 H :    0.034182
   6 C :   -0.029168
   7 H :    0.023725
   8 H :    0.030901
   9 C :   -0.028265
  10 H :    0.024684
  11 H :    0.010221
  12 C :   -0.052259
  13 H :    0.027109
  14 H :    0.016457
  15 H :    0.021199
  16 S :    0.388672
  17 C :   -0.173994
  18 C :   -0.060357
  19 C :   -0.057460
  20 C :   -0.175992
  21 H :    0.024543
  22 C :   -0.054661
  23 H :    0.034445
  24 H :    0.032301
  25 C :   -0.043360
  26 H :    0.033361
  27 H :    0.027928
  28 C :   -0.077638
  29 H :    0.025109
  30 H :    0.030943
  31 H :    0.026099
  32 H :    0.014585
  33 H :    0.016350

  Mayer bond orders larger than 0.100000
B(  0-S ,  1-C ) :   1.1515 B(  0-S ,  4-C ) :   1.1464 B(  1-C ,  2-C ) :   1.5407
B(  1-C ,  4-C ) :   0.1099 B(  1-C , 32-H ) :   0.9766 B(  2-C ,  3-C ) :   1.2862
B(  2-C ,  6-C ) :   1.0336 B(  3-C ,  4-C ) :   1.5302 B(  3-C ,  5-H ) :   0.9869
B(  4-C , 20-C ) :   1.1089 B(  6-C ,  7-H ) :   0.9439 B(  6-C ,  8-H ) :   0.9453
B(  6-C ,  9-C ) :   1.0312 B(  9-C , 10-H ) :   0.9632 B(  9-C , 11-H ) :   0.9731
B(  9-C , 12-C ) :   1.0735 B( 12-C , 13-H ) :   0.9764 B( 12-C , 14-H ) :   0.9816
B( 12-C , 15-H ) :   0.9777 B( 16-S , 17-C ) :   1.1303 B( 16-S , 20-C ) :   1.1303
B( 17-C , 18-C ) :   1.6654 B( 17-C , 33-H ) :   0.9687 B( 18-C , 19-C ) :   1.2095
B( 18-C , 21-H ) :   0.9960 B( 19-C , 20-C ) :   1.5681 B( 19-C , 22-C ) :   1.0459
B( 22-C , 23-H ) :   0.9177 B( 22-C , 24-H ) :   0.9200 B( 22-C , 25-C ) :   1.0731
B( 25-C , 26-H ) :   0.9539 B( 25-C , 27-H ) :   0.9512 B( 25-C , 28-C ) :   1.0763
B( 28-C , 29-H ) :   0.9746 B( 28-C , 30-H ) :   0.9729 B( 28-C , 31-H ) :   0.9678

Dispersion correction           -0.014323686
FINAL SINGLE POINT ENERGY     -1339.856782304085

DIPOLE MOMENT
-------------
                                X             Y             Z
Electronic contribution:     20.05086      -2.51072     -19.41964
Nuclear contribution   :    -20.66593       2.67532      19.64683
                        -----------------------------------------
Total Dipole Moment    :     -0.61507       0.16460       0.22719
                        -----------------------------------------
Magnitude (a.u.)       :      0.67603
Magnitude (Debye)      :      1.71833

Rotational constants in cm-1:     0.021610     0.007917     0.006151
Rotational constants in MHz :   647.865942   237.350143   184.399122

                             ****ORCA TERMINATED NORMALLY****
TOTAL RUN TIME: 0 days 0 hours 0 minutes 34 seconds 713 msec
