                         Program Version 4.2.1 -  RELEASE  -
|  1> ! wB97X-D3 SP def2-SVP
|  2> %pal
|  3> nprocs 16
|  4> end
|  5>
|  6> * xyz 0 1
|  7> S 	 5.03463 	 -6.18279 	 100.596
|  8> C 	 4.79638 	 -5.66651 	 98.9168
|  9> C 	 5.55362 	 -6.41997 	 97.9987
| 10> C 	 6.36359 	 -7.40729 	 98.6314
| 11> C 	 6.29223 	 -7.36011 	 100.03
| 12> H 	 6.98072 	 -8.09509 	 98.0183
| 13> C 	 5.50233 	 -6.30293 	 96.4806
| 14> H 	 6.45025 	 -6.5068 	 96.0035
| 15> H 	 5.35864 	 -5.25232 	 96.1417
| 16> C 	 4.4621 	 -7.14469 	 95.7983
| 17> H 	 4.63117 	 -8.23709 	 96.1502
| 18> H 	 3.43277 	 -6.76809 	 96.1283
| 19> C 	 4.51247 	 -7.15779 	 94.2264
| 20> H 	 4.32551 	 -6.13074 	 93.7988
| 21> H 	 5.4959 	 -7.60441 	 94.0196
| 22> H 	 3.76636 	 -7.96759 	 93.9669
| 23> S 	 5.96951 	 -8.89134 	 102.24
| 24> C 	 7.26488 	 -9.78332 	 102.805
| 25> C 	 8.38485 	 -9.62106 	 102.032
| 26> C 	 8.22115 	 -8.75304 	 100.916
| 27> C 	 6.94037 	 -8.22505 	 100.93
| 28> H 	 9.28076 	 -9.99364 	 102.408
| 29> C 	 9.31776 	 -8.40417 	 99.9541
| 30> H 	 8.87016 	 -8.05511 	 99.0643
| 31> H 	 9.83831 	 -9.35714 	 99.7503
| 32> C 	 10.1905 	 -7.32948 	 100.518
| 33> H 	 10.4241 	 -7.52121 	 101.577
| 34> H 	 9.73534 	 -6.34559 	 100.603
| 35> C 	 11.5397 	 -7.1196 	 99.8582
| 36> H 	 11.4557 	 -6.47616 	 99.0085
| 37> H 	 11.9517 	 -8.13688 	 99.574
| 38> H 	 12.2401 	 -6.62558 	 100.548
| 39> H 	 4.11366 	 -4.94066 	 98.5584
| 40> H 	 7.19761 	 -10.4607 	 103.693
| 41> *
| 42>
| 43>                          ****END OF INPUT****

CARTESIAN COORDINATES (ANGSTROEM)
---------------------------------
  S      5.034630   -6.182790  100.596000
  C      4.796380   -5.666510   98.916800
  C      5.553620   -6.419970   97.998700
  C      6.363590   -7.407290   98.631400
  C      6.292230   -7.360110  100.030000
  H      6.980720   -8.095090   98.018300
  C      5.502330   -6.302930   96.480600
  H      6.450250   -6.506800   96.003500
  H      5.358640   -5.252320   96.141700
  C      4.462100   -7.144690   95.798300
  H      4.631170   -8.237090   96.150200
  H      3.432770   -6.768090   96.128300
  C      4.512470   -7.157790   94.226400
  H      4.325510   -6.130740   93.798800
  H      5.495900   -7.604410   94.019600
  H      3.766360   -7.967590   93.966900
  S      5.969510   -8.891340  102.240000
  C      7.264880   -9.783320  102.805000
  C      8.384850   -9.621060  102.032000
  C      8.221150   -8.753040  100.916000
  C      6.940370   -8.225050  100.930000
  H      9.280760   -9.993640  102.408000
  C      9.317760   -8.404170   99.954100
  H      8.870160   -8.055110   99.064300
  H      9.838310   -9.357140   99.750300
  C     10.190500   -7.329480  100.518000
  H     10.424100   -7.521210  101.577000
  H      9.735340   -6.345590  100.603000
  C     11.539700   -7.119600   99.858200
  H     11.455700   -6.476160   99.008500
  H     11.951700   -8.136880   99.574000
  H     12.240100   -6.625580  100.548000
  H      4.113660   -4.940660   98.558400
  H      7.197610  -10.460700  103.693000

 Total Charge           Charge          ....    0
 Multiplicity           Mult            ....    1
 Number of Electrons    NEL             ....  134
 Basis Dimension        Dim             ....  322

ORBITAL ENERGIES
----------------

  NO   OCC          E(Eh)            E(eV)
   0   2.0000     -88.971862     -2421.0474
   1   2.0000     -88.963508     -2420.8201
   2   2.0000     -10.332977      -281.1746
   3   2.0000     -10.319467      -280.8070
   4   2.0000     -10.315570      -280.7009
   5   2.0000     -10.312402      -280.6147
   6   2.0000     -10.303430      -280.3706
   7   2.0000     -10.300696      -280.2962
   8   2.0000     -10.298997      -280.2500
   9   2.0000     -10.297231      -280.2019
  10   2.0000     -10.292593      -280.0757
  11   2.0000     -10.291622      -280.0493
  12   2.0000     -10.288402      -279.9616
  13   2.0000     -10.284496      -279.8554
  14   2.0000     -10.279273      -279.7132
  15   2.0000     -10.277280      -279.6590
  16   2.0000      -8.084888      -220.0010
  17   2.0000      -8.079886      -219.8649
  18   2.0000      -6.043481      -164.4515
  19   2.0000      -6.039816      -164.3517
  20   2.0000      -6.038189      -164.3075
  21   2.0000      -6.035484      -164.2339
  22   2.0000      -6.034150      -164.1976
  23   2.0000      -6.030775      -164.1057
  24   2.0000      -1.011537       -27.5253
  25   2.0000      -0.978944       -26.6384
  26   2.0000      -0.919296       -25.0153
  27   2.0000      -0.910229       -24.7686
  28   2.0000      -0.871595       -23.7173
  29   2.0000      -0.857002       -23.3202
  30   2.0000      -0.844485       -22.9796
  31   2.0000      -0.809599       -22.0303
  32   2.0000      -0.787426       -21.4269
  33   2.0000      -0.769987       -20.9524
  34   2.0000      -0.707312       -19.2469
  35   2.0000      -0.695020       -18.9125
  36   2.0000      -0.684388       -18.6231
  37   2.0000      -0.664450       -18.0806
  38   2.0000      -0.634093       -17.2546
  39   2.0000      -0.624668       -16.9981
  40   2.0000      -0.601407       -16.3651
  41   2.0000      -0.569844       -15.5062
  42   2.0000      -0.567039       -15.4299
  43   2.0000      -0.555664       -15.1204
  44   2.0000      -0.531457       -14.4617
  45   2.0000      -0.522355       -14.2140
  46   2.0000      -0.519910       -14.1475
  47   2.0000      -0.513344       -13.9688
  48   2.0000      -0.501235       -13.6393
  49   2.0000      -0.499680       -13.5970
  50   2.0000      -0.496671       -13.5151
  51   2.0000      -0.481646       -13.1062
  52   2.0000      -0.471556       -12.8317
  53   2.0000      -0.461549       -12.5594
  54   2.0000      -0.457967       -12.4619
  55   2.0000      -0.450332       -12.2542
  56   2.0000      -0.447049       -12.1648
  57   2.0000      -0.437148       -11.8954
  58   2.0000      -0.431251       -11.7349
  59   2.0000      -0.421368       -11.4660
  60   2.0000      -0.418790       -11.3958
  61   2.0000      -0.412823       -11.2335
  62   2.0000      -0.409744       -11.1497
  63   2.0000      -0.355323        -9.6688
  64   2.0000      -0.333250        -9.0682
  65   2.0000      -0.332276        -9.0417
  66   2.0000      -0.279259        -7.5990
  67   0.0000       0.022289         0.6065
  68   0.0000       0.071678         1.9505
  69   0.0000       0.103608         2.8193
  70   0.0000       0.118203         3.2165
  71   0.0000       0.137152         3.7321

MULLIKEN ATOMIC CHARGES
-----------------------
   0 S :    0.107191
   1 C :   -0.095556
   2 C :   -0.072692
   3 C :    0.002177
   4 C :   -0.141388
   5 H :    0.037086
   6 C :    0.061568
   7 H :    0.006082
   8 H :    0.018656
   9 C :   -0.143035
  10 H :    0.038065
  11 H :    0.036859
  12 C :   -0.056659
  13 H :    0.057445
  14 H :    0.032138
  15 H :    0.053432
  16 S :    0.114910
  17 C :   -0.103188
  18 C :   -0.024744
  19 C :   -0.059389
  20 C :   -0.152982
  21 H :   -0.009367
  22 C :    0.159096
  23 H :   -0.008019
  24 H :    0.029077
  25 C :   -0.093007
  26 H :    0.018861
  27 H :    0.029933
  28 C :   -0.038429
  29 H :    0.028589
  30 H :    0.029720
  31 H :    0.034432
  32 H :    0.030767
  33 H :    0.072373
Sum of atomic charges:    0.0000000

LOEWDIN ATOMIC CHARGES
----------------------
   0 S :    0.376180
   1 C :   -0.187988
   2 C :   -0.056972
   3 C :   -0.063799
   4 C :   -0.171288
   5 H :    0.037457
   6 C :   -0.046526
   7 H :    0.023633
   8 H :    0.031242
   9 C :   -0.051861
  10 H :    0.029782
  11 H :    0.025263
  12 C :   -0.073792
  13 H :    0.032943
  14 H :    0.024597
  15 H :    0.038583
  16 S :    0.430286
  17 C :   -0.212107
  18 C :   -0.072088
  19 C :   -0.045190
  20 C :   -0.200908
  21 H :    0.019134
  22 C :   -0.024517
  23 H :    0.022567
  24 H :    0.037191
  25 C :   -0.047439
  26 H :    0.024380
  27 H :    0.029744
  28 C :   -0.064658
  29 H :    0.018642
  30 H :    0.027667
  31 H :    0.028955
  32 H :    0.020756
  33 H :    0.040131

  Mayer bond orders larger than 0.100000
B(  0-S ,  1-C ) :   1.1228 B(  0-S ,  4-C ) :   1.1263 B(  1-C ,  2-C ) :   1.6145
B(  1-C ,  4-C ) :   0.1041 B(  1-C , 32-H ) :   0.9692 B(  2-C ,  3-C ) :   1.2615
B(  2-C ,  6-C ) :   1.0285 B(  3-C ,  4-C ) :   1.5517 B(  3-C ,  5-H ) :   0.9745
B(  4-C , 20-C ) :   1.1024 B(  6-C ,  7-H ) :   0.9381 B(  6-C ,  8-H ) :   0.9353
B(  6-C ,  9-C ) :   1.0627 B(  9-C , 10-H ) :   0.9560 B(  9-C , 11-H ) :   0.9546
B(  9-C , 12-C ) :   1.0668 B( 12-C , 13-H ) :   0.9732 B( 12-C , 14-H ) :   0.9734
B( 12-C , 15-H ) :   0.9749 B( 16-S , 17-C ) :   1.1747 B( 16-S , 20-C ) :   1.1398
B( 17-C , 18-C ) :   1.5955 B( 17-C , 33-H ) :   0.9608 B( 18-C , 19-C ) :   1.2437
B( 18-C , 21-H ) :   1.0003 B( 19-C , 20-C ) :   1.5731 B( 19-C , 22-C ) :   1.0515
B( 22-C , 23-H ) :   0.9121 B( 22-C , 24-H ) :   0.9255 B( 22-C , 25-C ) :   1.0729
B( 25-C , 26-H ) :   0.9605 B( 25-C , 27-H ) :   0.9472 B( 25-C , 28-C ) :   1.0834
B( 28-C , 29-H ) :   0.9757 B( 28-C , 30-H ) :   0.9746 B( 28-C , 31-H ) :   0.9746

Dispersion correction           -0.013644116
FINAL SINGLE POINT ENERGY     -1339.876733924492

DIPOLE MOMENT
-------------
                                X             Y             Z
Electronic contribution:    -13.39753      -2.08916      23.95193
Nuclear contribution   :     13.76992       1.98722     -24.36361
                        -----------------------------------------
Total Dipole Moment    :      0.37239      -0.10193      -0.41169
                        -----------------------------------------
Magnitude (a.u.)       :      0.56440
Magnitude (Debye)      :      1.43460

Rotational constants in cm-1:     0.017708     0.008124     0.006560
Rotational constants in MHz :   530.871358   243.547145   196.660202

                             ****ORCA TERMINATED NORMALLY****
TOTAL RUN TIME: 0 days 0 hours 0 minutes 31 seconds 269 msec
