                         Program Version 4.2.1 -  RELEASE  -
|  1> ! wB97X-D3 SP def2-SVP
|  2> %pal
|  3> nprocs 16
|  4> end
|  5>
|  6> * xyz 0 1
|  7> S 	 41.3493 	 20.537 	 83.0099
|  8> C 	 40.7903 	 22.1947 	 83.212
|  9> C 	 41.8058 	 23.0841 	 82.9523
| 10> C 	 42.9787 	 22.3953 	 82.4179
| 11> C 	 42.9849 	 21.0314 	 82.5292
| 12> H 	 43.8838 	 22.8589 	 81.9452
| 13> C 	 41.7065 	 24.5827 	 82.8383
| 14> H 	 40.8355 	 24.6965 	 82.1896
| 15> H 	 42.4437 	 25.0938 	 82.1988
| 16> C 	 41.4067 	 25.2169 	 84.2111
| 17> H 	 40.3688 	 24.9307 	 84.3706
| 18> H 	 42.0413 	 24.8604 	 84.9936
| 19> C 	 41.4843 	 26.7176 	 84.1626
| 20> H 	 41.2499 	 27.2476 	 85.1134
| 21> H 	 42.544 	 27.0813 	 84.1338
| 22> H 	 40.8249 	 27.1382 	 83.3625
| 23> S 	 43.6496 	 18.9523 	 80.8377
| 24> C 	 45.2496 	 18.3377 	 80.8345
| 25> C 	 45.9824 	 18.8615 	 81.9043
| 26> C 	 45.2844 	 19.8358 	 82.6927
| 27> C 	 44.0202 	 20.0802 	 82.17
| 28> H 	 47.0111 	 18.489 	 82.0225
| 29> C 	 45.9602 	 20.6692 	 83.7845
| 30> H 	 46.5439 	 20.0334 	 84.5198
| 31> H 	 45.1808 	 21.103 	 84.4285
| 32> C 	 46.9162 	 21.8156 	 83.199
| 33> H 	 46.3476 	 22.3723 	 82.4073
| 34> H 	 47.8051 	 21.3913 	 82.8253
| 35> C 	 47.2313 	 22.9116 	 84.2775
| 36> H 	 47.8981 	 23.6644 	 83.8361
| 37> H 	 47.9095 	 22.6253 	 85.0618
| 38> H 	 46.3572 	 23.3599 	 84.8105
| 39> H 	 39.8024 	 22.4224 	 83.5927
| 40> H 	 45.6343 	 17.5462 	 80.2752
| 41> *
| 42>
| 43>                          ****END OF INPUT****

CARTESIAN COORDINATES (ANGSTROEM)
---------------------------------
  S     41.349300   20.537000   83.009900
  C     40.790300   22.194700   83.212000
  C     41.805800   23.084100   82.952300
  C     42.978700   22.395300   82.417900
  C     42.984900   21.031400   82.529200
  H     43.883800   22.858900   81.945200
  C     41.706500   24.582700   82.838300
  H     40.835500   24.696500   82.189600
  H     42.443700   25.093800   82.198800
  C     41.406700   25.216900   84.211100
  H     40.368800   24.930700   84.370600
  H     42.041300   24.860400   84.993600
  C     41.484300   26.717600   84.162600
  H     41.249900   27.247600   85.113400
  H     42.544000   27.081300   84.133800
  H     40.824900   27.138200   83.362500
  S     43.649600   18.952300   80.837700
  C     45.249600   18.337700   80.834500
  C     45.982400   18.861500   81.904300
  C     45.284400   19.835800   82.692700
  C     44.020200   20.080200   82.170000
  H     47.011100   18.489000   82.022500
  C     45.960200   20.669200   83.784500
  H     46.543900   20.033400   84.519800
  H     45.180800   21.103000   84.428500
  C     46.916200   21.815600   83.199000
  H     46.347600   22.372300   82.407300
  H     47.805100   21.391300   82.825300
  C     47.231300   22.911600   84.277500
  H     47.898100   23.664400   83.836100
  H     47.909500   22.625300   85.061800
  H     46.357200   23.359900   84.810500
  H     39.802400   22.422400   83.592700
  H     45.634300   17.546200   80.275200

 Total Charge           Charge          ....    0
 Multiplicity           Mult            ....    1
 Number of Electrons    NEL             ....  134
 Basis Dimension        Dim             ....  322

ORBITAL ENERGIES
----------------

  NO   OCC          E(Eh)            E(eV)
   0   2.0000     -88.965745     -2420.8810
   1   2.0000     -88.961118     -2420.7551
   2   2.0000     -10.328995      -281.0662
   3   2.0000     -10.328165      -281.0436
   4   2.0000     -10.317246      -280.7465
   5   2.0000     -10.313196      -280.6363
   6   2.0000     -10.309165      -280.5266
   7   2.0000     -10.304522      -280.4003
   8   2.0000     -10.301341      -280.3137
   9   2.0000     -10.297541      -280.2103
  10   2.0000     -10.296565      -280.1838
  11   2.0000     -10.295640      -280.1586
  12   2.0000     -10.292098      -280.0622
  13   2.0000     -10.285631      -279.8862
  14   2.0000     -10.284202      -279.8474
  15   2.0000     -10.281671      -279.7785
  16   2.0000      -8.080564      -219.8833
  17   2.0000      -8.075573      -219.7475
  18   2.0000      -6.038969      -164.3287
  19   2.0000      -6.035049      -164.2220
  20   2.0000      -6.034231      -164.1998
  21   2.0000      -6.031415      -164.1231
  22   2.0000      -6.030082      -164.0869
  23   2.0000      -6.026215      -163.9816
  24   2.0000      -1.003319       -27.3017
  25   2.0000      -0.981848       -26.7174
  26   2.0000      -0.915027       -24.8992
  27   2.0000      -0.897603       -24.4250
  28   2.0000      -0.870064       -23.6756
  29   2.0000      -0.848443       -23.0873
  30   2.0000      -0.842357       -22.9217
  31   2.0000      -0.813376       -22.1331
  32   2.0000      -0.779115       -21.2008
  33   2.0000      -0.769280       -20.9332
  34   2.0000      -0.707022       -19.2390
  35   2.0000      -0.702801       -19.1242
  36   2.0000      -0.697227       -18.9725
  37   2.0000      -0.657533       -17.8924
  38   2.0000      -0.645204       -17.5569
  39   2.0000      -0.612225       -16.6595
  40   2.0000      -0.592274       -16.1166
  41   2.0000      -0.568602       -15.4724
  42   2.0000      -0.567678       -15.4473
  43   2.0000      -0.560227       -15.2446
  44   2.0000      -0.524753       -14.2793
  45   2.0000      -0.521718       -14.1967
  46   2.0000      -0.517345       -14.0777
  47   2.0000      -0.514654       -14.0044
  48   2.0000      -0.505847       -13.7648
  49   2.0000      -0.499954       -13.6045
  50   2.0000      -0.490568       -13.3490
  51   2.0000      -0.475063       -12.9271
  52   2.0000      -0.465002       -12.6533
  53   2.0000      -0.461263       -12.5516
  54   2.0000      -0.460768       -12.5381
  55   2.0000      -0.446710       -12.1556
  56   2.0000      -0.442595       -12.0436
  57   2.0000      -0.437173       -11.8961
  58   2.0000      -0.432846       -11.7783
  59   2.0000      -0.423865       -11.5339
  60   2.0000      -0.418957       -11.4004
  61   2.0000      -0.418215       -11.3802
  62   2.0000      -0.405614       -11.0373
  63   2.0000      -0.339659        -9.2426
  64   2.0000      -0.331325        -9.0158
  65   2.0000      -0.323557        -8.8044
  66   2.0000      -0.299988        -8.1631
  67   0.0000       0.033376         0.9082
  68   0.0000       0.061767         1.6808
  69   0.0000       0.116540         3.1712
  70   0.0000       0.122330         3.3288
  71   0.0000       0.130270         3.5448

MULLIKEN ATOMIC CHARGES
-----------------------
   0 S :    0.094184
   1 C :   -0.124308
   2 C :   -0.058176
   3 C :    0.003760
   4 C :   -0.151820
   5 H :    0.033136
   6 C :    0.028390
   7 H :    0.031813
   8 H :    0.028361
   9 C :   -0.047903
  10 H :    0.026468
  11 H :    0.034646
  12 C :   -0.073938
  13 H :    0.029207
  14 H :    0.032413
  15 H :    0.040594
  16 S :    0.117547
  17 C :   -0.062028
  18 C :   -0.070492
  19 C :    0.015596
  20 C :   -0.190328
  21 H :    0.025796
  22 C :    0.033104
  23 H :    0.036769
  24 H :    0.033020
  25 C :   -0.051713
  26 H :    0.041611
  27 H :    0.028509
  28 C :   -0.072918
  29 H :    0.029125
  30 H :    0.018267
  31 H :    0.047406
  32 H :    0.056263
  33 H :    0.037638
Sum of atomic charges:   -0.0000000

LOEWDIN ATOMIC CHARGES
----------------------
   0 S :    0.382879
   1 C :   -0.187931
   2 C :   -0.062472
   3 C :   -0.065304
   4 C :   -0.194112
   5 H :    0.038004
   6 C :   -0.038257
   7 H :    0.036177
   8 H :    0.030487
   9 C :   -0.036574
  10 H :    0.025516
  11 H :    0.023854
  12 C :   -0.080191
  13 H :    0.027962
  14 H :    0.029589
  15 H :    0.029509
  16 S :    0.412585
  17 C :   -0.188100
  18 C :   -0.076219
  19 C :   -0.050507
  20 C :   -0.193596
  21 H :    0.033443
  22 C :   -0.035582
  23 H :    0.036054
  24 H :    0.031346
  25 C :   -0.026587
  26 H :    0.029322
  27 H :    0.018341
  28 C :   -0.079150
  29 H :    0.028993
  30 H :    0.020010
  31 H :    0.031601
  32 H :    0.028576
  33 H :    0.020337

  Mayer bond orders larger than 0.100000
B(  0-S ,  1-C ) :   1.1356 B(  0-S ,  4-C ) :   1.1278 B(  1-C ,  2-C ) :   1.6208
B(  1-C , 32-H ) :   0.9682 B(  2-C ,  3-C ) :   1.2102 B(  2-C ,  6-C ) :   1.0124
B(  3-C ,  4-C ) :   1.6202 B(  3-C ,  5-H ) :   0.9825 B(  4-C , 20-C ) :   1.0367
B(  6-C ,  7-H ) :   0.9401 B(  6-C ,  8-H ) :   0.9584 B(  6-C ,  9-C ) :   1.0347
B(  9-C , 10-H ) :   0.9534 B(  9-C , 11-H ) :   0.9653 B(  9-C , 12-C ) :   1.0987
B( 12-C , 13-H ) :   0.9704 B( 12-C , 14-H ) :   0.9717 B( 12-C , 15-H ) :   0.9700
B( 16-S , 17-C ) :   1.1633 B( 16-S , 20-C ) :   1.1425 B( 17-C , 18-C ) :   1.6123
B( 17-C , 20-C ) :   0.1032 B( 17-C , 33-H ) :   0.9726 B( 18-C , 19-C ) :   1.2276
B( 18-C , 21-H ) :   0.9869 B( 19-C , 20-C ) :   1.5871 B( 19-C , 22-C ) :   1.0602
B( 22-C , 23-H ) :   0.9378 B( 22-C , 24-H ) :   0.9365 B( 22-C , 25-C ) :   1.0432
B( 25-C , 26-H ) :   0.9596 B( 25-C , 27-H ) :   0.9567 B( 25-C , 28-C ) :   1.0790
B( 28-C , 29-H ) :   0.9723 B( 28-C , 30-H ) :   0.9736 B( 28-C , 31-H ) :   0.9766

Dispersion correction           -0.013952529
FINAL SINGLE POINT ENERGY     -1339.872034244038

DIPOLE MOMENT
-------------
                                X             Y             Z
Electronic contribution:    -10.23734     -27.73750     -12.23542
Nuclear contribution   :     10.66204      28.26852      12.39635
                        -----------------------------------------
Total Dipole Moment    :      0.42470       0.53102       0.16093
                        -----------------------------------------
Magnitude (a.u.)       :      0.69875
Magnitude (Debye)      :      1.77608

Rotational constants in cm-1:     0.018396     0.008526     0.006286
Rotational constants in MHz :   551.511217   255.592440   188.446907

                             ****ORCA TERMINATED NORMALLY****
TOTAL RUN TIME: 0 days 0 hours 0 minutes 29 seconds 950 msec
