                         Program Version 4.2.1 -  RELEASE  -
|  1> ! wB97X-D3 SP def2-SVP
|  2> %pal
|  3> nprocs 16
|  4> end
|  5>
|  6> * xyz 0 1
|  7> S 	 -55.9345 	 52.6527 	 137.759
|  8> C 	 -54.9659 	 54.0071 	 138.388
|  9> C 	 -55.7903 	 55.1249 	 138.607
| 10> C 	 -57.1377 	 54.7615 	 138.158
| 11> C 	 -57.3562 	 53.5491 	 137.562
| 12> H 	 -58.0083 	 55.409 	 138.257
| 13> C 	 -55.3678 	 56.4362 	 139.131
| 14> H 	 -54.278 	 56.5511 	 138.849
| 15> H 	 -55.2742 	 56.4815 	 140.189
| 16> C 	 -56.1095 	 57.629 	 138.647
| 17> H 	 -56.2356 	 57.5233 	 137.543
| 18> H 	 -57.1391 	 57.5792 	 139.11
| 19> C 	 -55.5092 	 59.0432 	 138.994
| 20> H 	 -54.7716 	 59.5089 	 138.322
| 21> H 	 -56.2166 	 59.7294 	 139.232
| 22> H 	 -54.9732 	 58.8815 	 139.918
| 23> S 	 -58.6551 	 51.1331 	 136.976
| 24> C 	 -60.2283 	 51.27 	 136.267
| 25> C 	 -60.6849 	 52.5688 	 136.216
| 26> C 	 -59.7415 	 53.4961 	 136.646
| 27> C 	 -58.5842 	 52.9084 	 137.152
| 28> H 	 -61.6561 	 52.7042 	 135.671
| 29> C 	 -59.967 	 54.995 	 136.549
| 30> H 	 -60.7048 	 55.2948 	 135.792
| 31> H 	 -59.1086 	 55.4599 	 136.092
| 32> C 	 -60.4475 	 55.5988 	 137.874
| 33> H 	 -60.2015 	 56.6338 	 137.809
| 34> H 	 -59.9281 	 55.2166 	 138.794
| 35> C 	 -61.8939 	 55.3298 	 138.185
| 36> H 	 -62.5427 	 55.9667 	 137.628
| 37> H 	 -62.0182 	 55.663 	 139.194
| 38> H 	 -62.1223 	 54.2221 	 138.216
| 39> H 	 -53.8319 	 53.9887 	 138.264
| 40> H 	 -60.933 	 50.5209 	 136.024
| 41> *
| 42>
| 43>                          ****END OF INPUT****

CARTESIAN COORDINATES (ANGSTROEM)
---------------------------------
  S    -55.934500   52.652700  137.759000
  C    -54.965900   54.007100  138.388000
  C    -55.790300   55.124900  138.607000
  C    -57.137700   54.761500  138.158000
  C    -57.356200   53.549100  137.562000
  H    -58.008300   55.409000  138.257000
  C    -55.367800   56.436200  139.131000
  H    -54.278000   56.551100  138.849000
  H    -55.274200   56.481500  140.189000
  C    -56.109500   57.629000  138.647000
  H    -56.235600   57.523300  137.543000
  H    -57.139100   57.579200  139.110000
  C    -55.509200   59.043200  138.994000
  H    -54.771600   59.508900  138.322000
  H    -56.216600   59.729400  139.232000
  H    -54.973200   58.881500  139.918000
  S    -58.655100   51.133100  136.976000
  C    -60.228300   51.270000  136.267000
  C    -60.684900   52.568800  136.216000
  C    -59.741500   53.496100  136.646000
  C    -58.584200   52.908400  137.152000
  H    -61.656100   52.704200  135.671000
  C    -59.967000   54.995000  136.549000
  H    -60.704800   55.294800  135.792000
  H    -59.108600   55.459900  136.092000
  C    -60.447500   55.598800  137.874000
  H    -60.201500   56.633800  137.809000
  H    -59.928100   55.216600  138.794000
  C    -61.893900   55.329800  138.185000
  H    -62.542700   55.966700  137.628000
  H    -62.018200   55.663000  139.194000
  H    -62.122300   54.222100  138.216000
  H    -53.831900   53.988700  138.264000
  H    -60.933000   50.520900  136.024000

 Total Charge           Charge          ....    0
 Multiplicity           Mult            ....    1
 Number of Electrons    NEL             ....  134
 Basis Dimension        Dim             ....  322

ORBITAL ENERGIES
----------------

  NO   OCC          E(Eh)            E(eV)
   0   2.0000     -88.972262     -2421.0583
   1   2.0000     -88.958543     -2420.6850
   2   2.0000     -10.330795      -281.1152
   3   2.0000     -10.324714      -280.9498
   4   2.0000     -10.321539      -280.8634
   5   2.0000     -10.312451      -280.6161
   6   2.0000     -10.309588      -280.5382
   7   2.0000     -10.302609      -280.3482
   8   2.0000     -10.294317      -280.1226
   9   2.0000     -10.292670      -280.0778
  10   2.0000     -10.291349      -280.0418
  11   2.0000     -10.290847      -280.0282
  12   2.0000     -10.290514      -280.0191
  13   2.0000     -10.285819      -279.8914
  14   2.0000     -10.276012      -279.6245
  15   2.0000     -10.275051      -279.5984
  16   2.0000      -8.086357      -220.0410
  17   2.0000      -8.074380      -219.7150
  18   2.0000      -6.044895      -164.4899
  19   2.0000      -6.041029      -164.3848
  20   2.0000      -6.037057      -164.2767
  21   2.0000      -6.032978      -164.1657
  22   2.0000      -6.028686      -164.0489
  23   2.0000      -6.025017      -163.9491
  24   2.0000      -1.011499       -27.5243
  25   2.0000      -0.986261       -26.8375
  26   2.0000      -0.920800       -25.0563
  27   2.0000      -0.915499       -24.9120
  28   2.0000      -0.871444       -23.7132
  29   2.0000      -0.856449       -23.3052
  30   2.0000      -0.840052       -22.8590
  31   2.0000      -0.814651       -22.1678
  32   2.0000      -0.791372       -21.5343
  33   2.0000      -0.779826       -21.2201
  34   2.0000      -0.715148       -19.4602
  35   2.0000      -0.699649       -19.0384
  36   2.0000      -0.688017       -18.7219
  37   2.0000      -0.659816       -17.9545
  38   2.0000      -0.640021       -17.4159
  39   2.0000      -0.615622       -16.7519
  40   2.0000      -0.603811       -16.4305
  41   2.0000      -0.576928       -15.6990
  42   2.0000      -0.562164       -15.2973
  43   2.0000      -0.554574       -15.0907
  44   2.0000      -0.547637       -14.9020
  45   2.0000      -0.528428       -14.3793
  46   2.0000      -0.517165       -14.0728
  47   2.0000      -0.508997       -13.8505
  48   2.0000      -0.506569       -13.7844
  49   2.0000      -0.501238       -13.6394
  50   2.0000      -0.492479       -13.4010
  51   2.0000      -0.482609       -13.1324
  52   2.0000      -0.480361       -13.0713
  53   2.0000      -0.466088       -12.6829
  54   2.0000      -0.458766       -12.4837
  55   2.0000      -0.451163       -12.2768
  56   2.0000      -0.445679       -12.1275
  57   2.0000      -0.437691       -11.9102
  58   2.0000      -0.427175       -11.6240
  59   2.0000      -0.421518       -11.4701
  60   2.0000      -0.416207       -11.3256
  61   2.0000      -0.412939       -11.2366
  62   2.0000      -0.409202       -11.1349
  63   2.0000      -0.359474        -9.7818
  64   2.0000      -0.339749        -9.2450
  65   2.0000      -0.322850        -8.7852
  66   2.0000      -0.281071        -7.6483
  67   0.0000       0.018481         0.5029
  68   0.0000       0.079369         2.1597
  69   0.0000       0.098101         2.6695
  70   0.0000       0.121233         3.2989
  71   0.0000       0.136631         3.7179

MULLIKEN ATOMIC CHARGES
-----------------------
   0 S :    0.066894
   1 C :   -0.155164
   2 C :   -0.066387
   3 C :   -0.028564
   4 C :   -0.081260
   5 H :   -0.018151
   6 C :    0.086573
   7 H :    0.020831
   8 H :    0.032274
   9 C :   -0.147686
  10 H :    0.042532
  11 H :    0.045411
  12 C :    0.008847
  13 H :    0.044022
  14 H :    0.010637
  15 H :    0.009759
  16 S :    0.117073
  17 C :   -0.070470
  18 C :   -0.066619
  19 C :   -0.049590
  20 C :   -0.119113
  21 H :    0.038737
  22 C :    0.060995
  23 H :    0.015835
  24 H :    0.030888
  25 C :   -0.121995
  26 H :    0.023644
  27 H :    0.052608
  28 C :    0.002852
  29 H :    0.020986
  30 H :    0.015267
  31 H :    0.053085
  32 H :    0.085394
  33 H :    0.039857
Sum of atomic charges:    0.0000000

LOEWDIN ATOMIC CHARGES
----------------------
   0 S :    0.404233
   1 C :   -0.202697
   2 C :   -0.054533
   3 C :   -0.078983
   4 C :   -0.202762
   5 H :    0.024760
   6 C :   -0.045416
   7 H :    0.039273
   8 H :    0.030565
   9 C :   -0.045826
  10 H :    0.028229
  11 H :    0.029851
  12 C :   -0.059458
  13 H :    0.031767
  14 H :    0.013534
  15 H :    0.025503
  16 S :    0.404989
  17 C :   -0.187226
  18 C :   -0.081640
  19 C :   -0.052482
  20 C :   -0.184165
  21 H :    0.043644
  22 C :   -0.036904
  23 H :    0.033334
  24 H :    0.030321
  25 C :   -0.047961
  26 H :    0.020300
  27 H :    0.030666
  28 C :   -0.062363
  29 H :    0.018779
  30 H :    0.025033
  31 H :    0.038408
  32 H :    0.044149
  33 H :    0.025077

  Mayer bond orders larger than 0.100000
B(  0-S ,  1-C ) :   1.1428 B(  0-S ,  4-C ) :   1.1420 B(  1-C ,  2-C ) :   1.5842
B(  1-C , 32-H ) :   0.9554 B(  2-C ,  3-C ) :   1.2458 B(  2-C ,  6-C ) :   1.0375
B(  3-C ,  4-C ) :   1.5531 B(  3-C ,  5-H ) :   0.9866 B(  4-C , 20-C ) :   1.0866
B(  6-C ,  7-H ) :   0.9334 B(  6-C ,  8-H ) :   0.9150 B(  6-C ,  9-C ) :   1.0820
B(  9-C , 10-H ) :   0.9631 B(  9-C , 11-H ) :   0.9431 B(  9-C , 12-C ) :   1.0689
B( 12-C , 13-H ) :   0.9756 B( 12-C , 14-H ) :   0.9733 B( 12-C , 15-H ) :   0.9713
B( 16-S , 17-C ) :   1.1583 B( 16-S , 20-C ) :   1.1236 B( 17-C , 18-C ) :   1.6181
B( 17-C , 20-C ) :   0.1014 B( 17-C , 33-H ) :   0.9619 B( 18-C , 19-C ) :   1.2696
B( 18-C , 21-H ) :   0.9802 B( 19-C , 20-C ) :   1.5751 B( 19-C , 22-C ) :   1.0441
B( 22-C , 23-H ) :   0.9344 B( 22-C , 24-H ) :   0.9289 B( 22-C , 25-C ) :   1.0540
B( 25-C , 26-H ) :   0.9517 B( 25-C , 27-H ) :   0.9535 B( 25-C , 28-C ) :   1.0821
B( 28-C , 29-H ) :   0.9687 B( 28-C , 30-H ) :   0.9686 B( 28-C , 31-H ) :   0.9690

Dispersion correction           -0.014529800
FINAL SINGLE POINT ENERGY     -1339.857098874739

DIPOLE MOMENT
-------------
                                X             Y             Z
Electronic contribution:      6.47992     -30.52169      -6.46470
Nuclear contribution   :     -6.81338      31.30684       6.47432
                        -----------------------------------------
Total Dipole Moment    :     -0.33346       0.78515       0.00962
                        -----------------------------------------
Magnitude (a.u.)       :      0.85308
Magnitude (Debye)      :      2.16835

Rotational constants in cm-1:     0.019018     0.009405     0.006550
Rotational constants in MHz :   570.158262   281.947394   196.356528

                             ****ORCA TERMINATED NORMALLY****
TOTAL RUN TIME: 0 days 0 hours 0 minutes 34 seconds 759 msec
