                         Program Version 4.2.1 -  RELEASE  -
|  1> ! wB97X-D3 SP def2-SVP
|  2> %pal
|  3> nprocs 16
|  4> end
|  5>
|  6> * xyz 0 1
|  7> S 	 -13.3722 	 34.6745 	 38.2029
|  8> C 	 -13.3844 	 36.1795 	 39.1247
|  9> C 	 -13.4172 	 37.2578 	 38.2038
| 10> C 	 -13.6901 	 36.8105 	 36.8934
| 11> C 	 -13.8301 	 35.4507 	 36.7402
| 12> H 	 -13.7737 	 37.4042 	 36.037
| 13> C 	 -13.1746 	 38.6828 	 38.5573
| 14> H 	 -12.3636 	 39.0835 	 38.0342
| 15> H 	 -12.6696 	 38.6442 	 39.5474
| 16> C 	 -14.3446 	 39.6914 	 38.5537
| 17> H 	 -15.1382 	 39.6223 	 39.2731
| 18> H 	 -13.9426 	 40.6726 	 38.5916
| 19> C 	 -15.1307 	 39.6028 	 37.1743
| 20> H 	 -15.9255 	 40.2817 	 36.9737
| 21> H 	 -14.4031 	 39.6873 	 36.3783
| 22> H 	 -15.6518 	 38.6469 	 37.0557
| 23> S 	 -13.5637 	 32.9902 	 35.5362
| 24> C 	 -13.9447 	 32.7773 	 33.8719
| 25> C 	 -14.3709 	 33.9479 	 33.3168
| 26> C 	 -14.3918 	 35.0736 	 34.2362
| 27> C 	 -13.969 	 34.6877 	 35.467
| 28> H 	 -14.7605 	 34.0113 	 32.4103
| 29> C 	 -14.8575 	 36.4857 	 33.8499
| 30> H 	 -15.4976 	 36.9058 	 34.6404
| 31> H 	 -15.5239 	 36.4029 	 33.0094
| 32> C 	 -13.7206 	 37.405 	 33.3538
| 33> H 	 -13.4279 	 36.9151 	 32.4068
| 34> H 	 -12.8593 	 37.4519 	 34.0744
| 35> C 	 -14.0886 	 38.8202 	 32.9926
| 36> H 	 -13.2017 	 39.2952 	 32.4686
| 37> H 	 -14.1672 	 39.4362 	 33.9253
| 38> H 	 -14.836 	 39.0791 	 32.2481
| 39> H 	 -13.2017 	 36.364 	 40.2103
| 40> H 	 -13.9114 	 31.8346 	 33.4027
| 41> *
| 42>
| 43>                          ****END OF INPUT****

CARTESIAN COORDINATES (ANGSTROEM)
---------------------------------
  S    -13.372200   34.674500   38.202900
  C    -13.384400   36.179500   39.124700
  C    -13.417200   37.257800   38.203800
  C    -13.690100   36.810500   36.893400
  C    -13.830100   35.450700   36.740200
  H    -13.773700   37.404200   36.037000
  C    -13.174600   38.682800   38.557300
  H    -12.363600   39.083500   38.034200
  H    -12.669600   38.644200   39.547400
  C    -14.344600   39.691400   38.553700
  H    -15.138200   39.622300   39.273100
  H    -13.942600   40.672600   38.591600
  C    -15.130700   39.602800   37.174300
  H    -15.925500   40.281700   36.973700
  H    -14.403100   39.687300   36.378300
  H    -15.651800   38.646900   37.055700
  S    -13.563700   32.990200   35.536200
  C    -13.944700   32.777300   33.871900
  C    -14.370900   33.947900   33.316800
  C    -14.391800   35.073600   34.236200
  C    -13.969000   34.687700   35.467000
  H    -14.760500   34.011300   32.410300
  C    -14.857500   36.485700   33.849900
  H    -15.497600   36.905800   34.640400
  H    -15.523900   36.402900   33.009400
  C    -13.720600   37.405000   33.353800
  H    -13.427900   36.915100   32.406800
  H    -12.859300   37.451900   34.074400
  C    -14.088600   38.820200   32.992600
  H    -13.201700   39.295200   32.468600
  H    -14.167200   39.436200   33.925300
  H    -14.836000   39.079100   32.248100
  H    -13.201700   36.364000   40.210300
  H    -13.911400   31.834600   33.402700

 Total Charge           Charge          ....    0
 Multiplicity           Mult            ....    1
 Number of Electrons    NEL             ....  134
 Basis Dimension        Dim             ....  322

ORBITAL ENERGIES
----------------

  NO   OCC          E(Eh)            E(eV)
   0   2.0000     -88.967063     -2420.9169
   1   2.0000     -88.963002     -2420.8064
   2   2.0000     -10.327888      -281.0361
   3   2.0000     -10.327120      -281.0152
   4   2.0000     -10.320697      -280.8404
   5   2.0000     -10.312626      -280.6208
   6   2.0000     -10.302296      -280.3397
   7   2.0000     -10.301422      -280.3160
   8   2.0000     -10.296006      -280.1686
   9   2.0000     -10.295731      -280.1611
  10   2.0000     -10.291299      -280.0405
  11   2.0000     -10.289394      -279.9886
  12   2.0000     -10.285958      -279.8951
  13   2.0000     -10.285461      -279.8816
  14   2.0000     -10.284014      -279.8423
  15   2.0000     -10.274368      -279.5798
  16   2.0000      -8.081787      -219.9166
  17   2.0000      -8.078838      -219.8363
  18   2.0000      -6.040367      -164.3667
  19   2.0000      -6.037363      -164.2850
  20   2.0000      -6.036351      -164.2574
  21   2.0000      -6.033278      -164.1738
  22   2.0000      -6.032417      -164.1504
  23   2.0000      -6.029442      -164.0695
  24   2.0000      -1.011823       -27.5331
  25   2.0000      -0.988376       -26.8951
  26   2.0000      -0.912838       -24.8396
  27   2.0000      -0.911345       -24.7989
  28   2.0000      -0.867372       -23.6024
  29   2.0000      -0.856279       -23.3005
  30   2.0000      -0.841317       -22.8934
  31   2.0000      -0.820225       -22.3195
  32   2.0000      -0.788091       -21.4451
  33   2.0000      -0.777566       -21.1586
  34   2.0000      -0.711173       -19.3520
  35   2.0000      -0.699500       -19.0344
  36   2.0000      -0.692870       -18.8540
  37   2.0000      -0.674927       -18.3657
  38   2.0000      -0.640877       -17.4391
  39   2.0000      -0.622329       -16.9344
  40   2.0000      -0.601946       -16.3798
  41   2.0000      -0.578174       -15.7329
  42   2.0000      -0.572880       -15.5889
  43   2.0000      -0.548660       -14.9298
  44   2.0000      -0.541775       -14.7425
  45   2.0000      -0.524129       -14.2623
  46   2.0000      -0.517649       -14.0859
  47   2.0000      -0.510525       -13.8921
  48   2.0000      -0.506550       -13.7839
  49   2.0000      -0.500924       -13.6308
  50   2.0000      -0.495785       -13.4910
  51   2.0000      -0.481393       -13.0994
  52   2.0000      -0.475185       -12.9305
  53   2.0000      -0.464244       -12.6327
  54   2.0000      -0.459011       -12.4903
  55   2.0000      -0.458342       -12.4721
  56   2.0000      -0.450385       -12.2556
  57   2.0000      -0.436114       -11.8673
  58   2.0000      -0.427880       -11.6432
  59   2.0000      -0.423548       -11.5253
  60   2.0000      -0.421195       -11.4613
  61   2.0000      -0.415524       -11.3070
  62   2.0000      -0.407720       -11.0946
  63   2.0000      -0.360612        -9.8127
  64   2.0000      -0.335610        -9.1324
  65   2.0000      -0.326158        -8.8752
  66   2.0000      -0.285151        -7.7593
  67   0.0000       0.023394         0.6366
  68   0.0000       0.083575         2.2742
  69   0.0000       0.100103         2.7239
  70   0.0000       0.116604         3.1730
  71   0.0000       0.130774         3.5585

MULLIKEN ATOMIC CHARGES
-----------------------
   0 S :    0.093726
   1 C :   -0.113785
   2 C :   -0.100664
   3 C :    0.026242
   4 C :   -0.074801
   5 H :   -0.061462
   6 C :    0.079411
   7 H :    0.019893
   8 H :    0.009503
   9 C :   -0.008756
  10 H :    0.032221
  11 H :    0.022926
  12 C :   -0.106748
  13 H :    0.026290
  14 H :    0.029980
  15 H :    0.047609
  16 S :    0.091082
  17 C :   -0.058167
  18 C :    0.041150
  19 C :   -0.093953
  20 C :   -0.113083
  21 H :   -0.046890
  22 C :    0.067093
  23 H :    0.037532
  24 H :    0.006722
  25 C :   -0.084516
  26 H :    0.028451
  27 H :    0.052047
  28 C :   -0.062461
  29 H :    0.030615
  30 H :    0.034956
  31 H :    0.038488
  32 H :    0.064415
  33 H :    0.044932
Sum of atomic charges:    0.0000000

LOEWDIN ATOMIC CHARGES
----------------------
   0 S :    0.412225
   1 C :   -0.203470
   2 C :   -0.060310
   3 C :   -0.065108
   4 C :   -0.191907
   5 H :    0.016321
   6 C :   -0.036462
   7 H :    0.029652
   8 H :    0.036289
   9 C :   -0.023204
  10 H :    0.023011
  11 H :    0.021622
  12 C :   -0.069545
  13 H :    0.020221
  14 H :    0.015001
  15 H :    0.027234
  16 S :    0.406373
  17 C :   -0.177526
  18 C :   -0.051291
  19 C :   -0.057397
  20 C :   -0.185422
  21 H :    0.004826
  22 C :   -0.035046
  23 H :    0.030333
  24 H :    0.027763
  25 C :   -0.046238
  26 H :    0.029512
  27 H :    0.031279
  28 C :   -0.081609
  29 H :    0.036031
  30 H :    0.027375
  31 H :    0.025529
  32 H :    0.040792
  33 H :    0.023148

  Mayer bond orders larger than 0.100000
B(  0-S ,  1-C ) :   1.1431 B(  0-S ,  4-C ) :   1.1592 B(  1-C ,  2-C ) :   1.5768
B(  1-C ,  4-C ) :   0.1028 B(  1-C , 32-H ) :   0.9614 B(  2-C ,  3-C ) :   1.2624
B(  2-C ,  6-C ) :   1.0365 B(  3-C ,  4-C ) :   1.5369 B(  3-C ,  5-H ) :   1.0036
B(  4-C , 20-C ) :   1.0475 B(  6-C ,  7-H ) :   0.9342 B(  6-C ,  8-H ) :   0.9276
B(  6-C ,  9-C ) :   1.0668 B(  9-C , 10-H ) :   0.9628 B(  9-C , 11-H ) :   0.9545
B(  9-C , 12-C ) :   1.0778 B( 12-C , 13-H ) :   0.9725 B( 12-C , 14-H ) :   0.9702
B( 12-C , 15-H ) :   0.9682 B( 16-S , 17-C ) :   1.1486 B( 16-S , 20-C ) :   1.1335
B( 17-C , 18-C ) :   1.6037 B( 17-C , 33-H ) :   0.9770 B( 18-C , 19-C ) :   1.2363
B( 18-C , 21-H ) :   1.0098 B( 19-C , 20-C ) :   1.6386 B( 19-C , 22-C ) :   1.0448
B( 22-C , 23-H ) :   0.9372 B( 22-C , 24-H ) :   0.9252 B( 22-C , 25-C ) :   1.0503
B( 25-C , 26-H ) :   0.9508 B( 25-C , 27-H ) :   0.9527 B( 25-C , 28-C ) :   1.0899
B( 28-C , 29-H ) :   0.9663 B( 28-C , 30-H ) :   0.9706 B( 28-C , 31-H ) :   0.9718

Dispersion correction           -0.015523044
FINAL SINGLE POINT ENERGY     -1339.862961600303

DIPOLE MOMENT
-------------
                                X             Y             Z
Electronic contribution:      4.85843     -31.00733       8.43578
Nuclear contribution   :     -4.90292      31.67150      -8.81911
                        -----------------------------------------
Total Dipole Moment    :     -0.04449       0.66417      -0.38333
                        -----------------------------------------
Magnitude (a.u.)       :      0.76814
Magnitude (Debye)      :      1.95246

Rotational constants in cm-1:     0.017557     0.011000     0.007084
Rotational constants in MHz :   526.333137   329.761254   212.372178

                             ****ORCA TERMINATED NORMALLY****
TOTAL RUN TIME: 0 days 0 hours 0 minutes 34 seconds 741 msec
