                         Program Version 4.2.1 -  RELEASE  -
|  1> ! wB97X-D3 SP def2-SVP
|  2> %pal
|  3> nprocs 16
|  4> end
|  5>
|  6> * xyz 0 1
|  7> S 	 -96.3775 	 47.0251 	 122.398
|  8> C 	 -95.6149 	 46.134 	 123.73
|  9> C 	 -96.4583 	 46.148 	 124.782
| 10> C 	 -97.7239 	 46.7083 	 124.562
| 11> C 	 -97.8763 	 47.3176 	 123.289
| 12> H 	 -98.5861 	 46.7395 	 125.284
| 13> C 	 -96.1098 	 45.4604 	 126.114
| 14> H 	 -96.8037 	 45.8189 	 126.885
| 15> H 	 -95.1404 	 45.8801 	 126.476
| 16> C 	 -96.3147 	 43.9441 	 126.126
| 17> H 	 -97.3346 	 43.6698 	 125.775
| 18> H 	 -95.5658 	 43.4317 	 125.446
| 19> C 	 -96.2936 	 43.2448 	 127.492
| 20> H 	 -96.6089 	 43.9648 	 128.318
| 21> H 	 -96.9765 	 42.4041 	 127.575
| 22> H 	 -95.2881 	 43.0199 	 127.787
| 23> S 	 -98.7226 	 49.4648 	 121.804
| 24> C 	 -100.435 	 49.6597 	 121.616
| 25> C 	 -101.218 	 48.6798 	 122.158
| 26> C 	 -100.38 	 47.6937 	 122.786
| 27> C 	 -99.0436 	 48.0295 	 122.692
| 28> H 	 -102.281 	 48.6852 	 122.09
| 29> C 	 -100.959 	 46.4943 	 123.506
| 30> H 	 -100.387 	 45.601 	 123.283
| 31> H 	 -101.853 	 46.2125 	 122.978
| 32> C 	 -101.364 	 46.6648 	 124.956
| 33> H 	 -102.292 	 47.1331 	 125.086
| 34> H 	 -100.608 	 47.2548 	 125.395
| 35> C 	 -101.458 	 45.3578 	 125.708
| 36> H 	 -100.521 	 44.8166 	 125.549
| 37> H 	 -102.292 	 44.7209 	 125.307
| 38> H 	 -101.701 	 45.5335 	 126.791
| 39> H 	 -94.6809 	 45.6659 	 123.741
| 40> H 	 -100.786 	 50.5456 	 121.241
| 41> *
| 42>
| 43>                          ****END OF INPUT****

CARTESIAN COORDINATES (ANGSTROEM)
---------------------------------
  S    -96.377500   47.025100  122.398000
  C    -95.614900   46.134000  123.730000
  C    -96.458300   46.148000  124.782000
  C    -97.723900   46.708300  124.562000
  C    -97.876300   47.317600  123.289000
  H    -98.586100   46.739500  125.284000
  C    -96.109800   45.460400  126.114000
  H    -96.803700   45.818900  126.885000
  H    -95.140400   45.880100  126.476000
  C    -96.314700   43.944100  126.126000
  H    -97.334600   43.669800  125.775000
  H    -95.565800   43.431700  125.446000
  C    -96.293600   43.244800  127.492000
  H    -96.608900   43.964800  128.318000
  H    -96.976500   42.404100  127.575000
  H    -95.288100   43.019900  127.787000
  S    -98.722600   49.464800  121.804000
  C    -100.435000   49.659700  121.616000
  C    -101.218000   48.679800  122.158000
  C    -100.380000   47.693700  122.786000
  C    -99.043600   48.029500  122.692000
  H    -102.281000   48.685200  122.090000
  C    -100.959000   46.494300  123.506000
  H    -100.387000   45.601000  123.283000
  H    -101.853000   46.212500  122.978000
  C    -101.364000   46.664800  124.956000
  H    -102.292000   47.133100  125.086000
  H    -100.608000   47.254800  125.395000
  C    -101.458000   45.357800  125.708000
  H    -100.521000   44.816600  125.549000
  H    -102.292000   44.720900  125.307000
  H    -101.701000   45.533500  126.791000
  H    -94.680900   45.665900  123.741000
  H    -100.786000   50.545600  121.241000

 Total Charge           Charge          ....    0
 Multiplicity           Mult            ....    1
 Number of Electrons    NEL             ....  134
 Basis Dimension        Dim             ....  322

ORBITAL ENERGIES
----------------

  NO   OCC          E(Eh)            E(eV)
   0   2.0000     -88.969121     -2420.9729
   1   2.0000     -88.964426     -2420.8451
   2   2.0000     -10.336396      -281.2676
   3   2.0000     -10.327468      -281.0247
   4   2.0000     -10.310033      -280.5502
   5   2.0000     -10.308411      -280.5061
   6   2.0000     -10.304135      -280.3898
   7   2.0000     -10.298004      -280.2229
   8   2.0000     -10.295565      -280.1566
   9   2.0000     -10.295425      -280.1528
  10   2.0000     -10.294885      -280.1381
  11   2.0000     -10.293513      -280.1007
  12   2.0000     -10.286506      -279.9101
  13   2.0000     -10.284870      -279.8655
  14   2.0000     -10.279980      -279.7325
  15   2.0000     -10.277494      -279.6648
  16   2.0000      -8.085010      -220.0043
  17   2.0000      -8.078390      -219.8242
  18   2.0000      -6.043256      -164.4453
  19   2.0000      -6.039575      -164.3452
  20   2.0000      -6.036994      -164.2750
  21   2.0000      -6.035762      -164.2414
  22   2.0000      -6.032875      -164.1629
  23   2.0000      -6.029221      -164.0634
  24   2.0000      -1.009634       -27.4735
  25   2.0000      -0.986749       -26.8508
  26   2.0000      -0.918451       -24.9923
  27   2.0000      -0.906633       -24.6707
  28   2.0000      -0.869471       -23.6595
  29   2.0000      -0.858724       -23.3671
  30   2.0000      -0.842363       -22.9219
  31   2.0000      -0.816555       -22.2196
  32   2.0000      -0.783008       -21.3067
  33   2.0000      -0.772778       -21.0284
  34   2.0000      -0.706972       -19.2377
  35   2.0000      -0.699551       -19.0357
  36   2.0000      -0.693818       -18.8798
  37   2.0000      -0.671167       -18.2634
  38   2.0000      -0.639092       -17.3906
  39   2.0000      -0.616279       -16.7698
  40   2.0000      -0.603848       -16.4315
  41   2.0000      -0.576491       -15.6871
  42   2.0000      -0.570092       -15.5130
  43   2.0000      -0.558175       -15.1887
  44   2.0000      -0.531517       -14.4633
  45   2.0000      -0.528016       -14.3680
  46   2.0000      -0.524088       -14.2612
  47   2.0000      -0.513087       -13.9618
  48   2.0000      -0.502407       -13.6712
  49   2.0000      -0.495780       -13.4909
  50   2.0000      -0.489570       -13.3219
  51   2.0000      -0.484620       -13.1872
  52   2.0000      -0.470595       -12.8055
  53   2.0000      -0.464331       -12.6351
  54   2.0000      -0.460661       -12.5352
  55   2.0000      -0.455038       -12.3822
  56   2.0000      -0.444552       -12.0969
  57   2.0000      -0.439336       -11.9549
  58   2.0000      -0.431419       -11.7395
  59   2.0000      -0.429542       -11.6884
  60   2.0000      -0.413790       -11.2598
  61   2.0000      -0.410955       -11.1827
  62   2.0000      -0.409229       -11.1357
  63   2.0000      -0.353014        -9.6060
  64   2.0000      -0.336323        -9.1518
  65   2.0000      -0.331670        -9.0252
  66   2.0000      -0.290400        -7.9022
  67   0.0000       0.029306         0.7975
  68   0.0000       0.072528         1.9736
  69   0.0000       0.108180         2.9437
  70   0.0000       0.121668         3.3108
  71   0.0000       0.131311         3.5732

MULLIKEN ATOMIC CHARGES
-----------------------
   0 S :    0.092301
   1 C :   -0.095556
   2 C :   -0.073658
   3 C :    0.007427
   4 C :   -0.137812
   5 H :    0.015195
   6 C :    0.056540
   7 H :    0.009041
   8 H :    0.039897
   9 C :   -0.085564
  10 H :    0.033181
  11 H :    0.038236
  12 C :   -0.052623
  13 H :    0.022989
  14 H :    0.042109
  15 H :    0.027109
  16 S :    0.123108
  17 C :   -0.054336
  18 C :   -0.006432
  19 C :   -0.057465
  20 C :   -0.152692
  21 H :    0.011185
  22 C :    0.066053
  23 H :    0.026868
  24 H :    0.002233
  25 C :   -0.008849
  26 H :    0.014799
  27 H :    0.019179
  28 C :   -0.084244
  29 H :    0.034873
  30 H :    0.034313
  31 H :    0.046572
  32 H :    0.025117
  33 H :    0.020906
Sum of atomic charges:   -0.0000000

LOEWDIN ATOMIC CHARGES
----------------------
   0 S :    0.386971
   1 C :   -0.179665
   2 C :   -0.069975
   3 C :   -0.077753
   4 C :   -0.181178
   5 H :    0.037217
   6 C :   -0.035844
   7 H :    0.027463
   8 H :    0.034305
   9 C :   -0.048526
  10 H :    0.030274
  11 H :    0.027067
  12 C :   -0.070756
  13 H :    0.029581
  14 H :    0.027085
  15 H :    0.019812
  16 S :    0.428219
  17 C :   -0.167477
  18 C :   -0.057216
  19 C :   -0.051158
  20 C :   -0.209043
  21 H :    0.031282
  22 C :   -0.036864
  23 H :    0.033451
  24 H :    0.029638
  25 C :   -0.034662
  26 H :    0.019576
  27 H :    0.013876
  28 C :   -0.066531
  29 H :    0.022061
  30 H :    0.027887
  31 H :    0.032488
  32 H :    0.021972
  33 H :    0.006422

  Mayer bond orders larger than 0.100000
B(  0-S ,  1-C ) :   1.1222 B(  0-S ,  4-C ) :   1.1666 B(  1-C ,  2-C ) :   1.6069
B(  1-C ,  4-C ) :   0.1077 B(  1-C , 32-H ) :   0.9802 B(  2-C ,  3-C ) :   1.2706
B(  2-C ,  6-C ) :   1.0198 B(  3-C ,  4-C ) :   1.5447 B(  3-C ,  5-H ) :   0.9814
B(  4-C , 20-C ) :   1.0234 B(  6-C ,  7-H ) :   0.9351 B(  6-C ,  8-H ) :   0.9442
B(  6-C ,  9-C ) :   1.0624 B(  9-C , 10-H ) :   0.9590 B(  9-C , 11-H ) :   0.9575
B(  9-C , 12-C ) :   1.0705 B( 12-C , 13-H ) :   0.9720 B( 12-C , 14-H ) :   0.9803
B( 12-C , 15-H ) :   0.9756 B( 16-S , 17-C ) :   1.1585 B( 16-S , 20-C ) :   1.1509
B( 17-C , 18-C ) :   1.6132 B( 17-C , 33-H ) :   0.9760 B( 18-C , 19-C ) :   1.2276
B( 18-C , 21-H ) :   0.9997 B( 19-C , 20-C ) :   1.6085 B( 19-C , 22-C ) :   1.0552
B( 22-C , 23-H ) :   0.9342 B( 22-C , 24-H ) :   0.9172 B( 22-C , 25-C ) :   1.0529
B( 25-C , 26-H ) :   0.9443 B( 25-C , 27-H ) :   0.9559 B( 25-C , 28-C ) :   1.0894
B( 28-C , 29-H ) :   0.9745 B( 28-C , 30-H ) :   0.9730 B( 28-C , 31-H ) :   0.9719

Dispersion correction           -0.014513373
FINAL SINGLE POINT ENERGY     -1339.876219900367

DIPOLE MOMENT
-------------
                                X             Y             Z
Electronic contribution:      7.69773      21.64241     -25.00309
Nuclear contribution   :     -8.17016     -21.89534      25.48023
                        -----------------------------------------
Total Dipole Moment    :     -0.47243      -0.25294       0.47714
                        -----------------------------------------
Magnitude (a.u.)       :      0.71752
Magnitude (Debye)      :      1.82379

Rotational constants in cm-1:     0.019229     0.009064     0.006453
Rotational constants in MHz :   576.465213   271.742085   193.458134

                             ****ORCA TERMINATED NORMALLY****
TOTAL RUN TIME: 0 days 0 hours 0 minutes 34 seconds 991 msec
