                         Program Version 4.2.1 -  RELEASE  -
|  1> ! wB97X-D3 SP def2-SVP
|  2> %pal
|  3> nprocs 16
|  4> end
|  5>
|  6> * xyz 0 1
|  7> S 	 -8.39813 	 59.8459 	 54.2753
|  8> C 	 -7.14456 	 59.0697 	 55.1793
|  9> C 	 -7.47259 	 58.8468 	 56.493
| 10> C 	 -8.83985 	 59.258 	 56.7821
| 11> C 	 -9.42627 	 59.9435 	 55.7378
| 12> H 	 -9.38386 	 59.1101 	 57.7365
| 13> C 	 -6.51588 	 58.3249 	 57.542
| 14> H 	 -7.09626 	 58.0856 	 58.3795
| 15> H 	 -5.89589 	 59.1527 	 57.7828
| 16> C 	 -5.62941 	 57.0948 	 57.3998
| 17> H 	 -4.89452 	 56.8353 	 58.1837
| 18> H 	 -6.19352 	 56.1644 	 57.3179
| 19> C 	 -4.96954 	 56.9219 	 56.0557
| 20> H 	 -5.76079 	 57.06 	 55.3374
| 21> H 	 -4.27956 	 57.7508 	 55.9214
| 22> H 	 -4.46261 	 55.8867 	 55.8556
| 23> S 	 -12.079 	 59.7323 	 56.1344
| 24> C 	 -13.1518 	 61.1031 	 55.667
| 25> C 	 -12.3581 	 62.2847 	 55.403
| 26> C 	 -10.9371 	 61.9956 	 55.3052
| 27> C 	 -10.6722 	 60.633 	 55.7091
| 28> H 	 -12.8998 	 63.2053 	 55.2399
| 29> C 	 -10.0214 	 63.105 	 54.9113
| 30> H 	 -10.5036 	 63.5979 	 54.012
| 31> H 	 -9.07249 	 62.6684 	 54.5629
| 32> C 	 -10.014 	 64.2474 	 56.0179
| 33> H 	 -11.0315 	 64.6444 	 56.1332
| 34> H 	 -9.34331 	 65.0223 	 55.5715
| 35> C 	 -9.22353 	 63.744 	 57.2908
| 36> H 	 -8.65844 	 64.5842 	 57.7829
| 37> H 	 -8.41838 	 63.07 	 56.8957
| 38> H 	 -9.93063 	 63.3765 	 58.0581
| 39> H 	 -6.14982 	 59.009 	 54.7903
| 40> H 	 -14.223 	 61.062 	 55.7755
| 41> *
| 42>
| 43>                          ****END OF INPUT****

CARTESIAN COORDINATES (ANGSTROEM)
---------------------------------
  S     -8.398130   59.845900   54.275300
  C     -7.144560   59.069700   55.179300
  C     -7.472590   58.846800   56.493000
  C     -8.839850   59.258000   56.782100
  C     -9.426270   59.943500   55.737800
  H     -9.383860   59.110100   57.736500
  C     -6.515880   58.324900   57.542000
  H     -7.096260   58.085600   58.379500
  H     -5.895890   59.152700   57.782800
  C     -5.629410   57.094800   57.399800
  H     -4.894520   56.835300   58.183700
  H     -6.193520   56.164400   57.317900
  C     -4.969540   56.921900   56.055700
  H     -5.760790   57.060000   55.337400
  H     -4.279560   57.750800   55.921400
  H     -4.462610   55.886700   55.855600
  S    -12.079000   59.732300   56.134400
  C    -13.151800   61.103100   55.667000
  C    -12.358100   62.284700   55.403000
  C    -10.937100   61.995600   55.305200
  C    -10.672200   60.633000   55.709100
  H    -12.899800   63.205300   55.239900
  C    -10.021400   63.105000   54.911300
  H    -10.503600   63.597900   54.012000
  H     -9.072490   62.668400   54.562900
  C    -10.014000   64.247400   56.017900
  H    -11.031500   64.644400   56.133200
  H     -9.343310   65.022300   55.571500
  C     -9.223530   63.744000   57.290800
  H     -8.658440   64.584200   57.782900
  H     -8.418380   63.070000   56.895700
  H     -9.930630   63.376500   58.058100
  H     -6.149820   59.009000   54.790300
  H    -14.223000   61.062000   55.775500

 Total Charge           Charge          ....    0
 Multiplicity           Mult            ....    1
 Number of Electrons    NEL             ....  134
 Basis Dimension        Dim             ....  322

ORBITAL ENERGIES
----------------

  NO   OCC          E(Eh)            E(eV)
   0   2.0000     -88.970377     -2421.0070
   1   2.0000     -88.965424     -2420.8723
   2   2.0000     -10.330054      -281.0951
   3   2.0000     -10.327983      -281.0387
   4   2.0000     -10.327295      -281.0200
   5   2.0000     -10.312248      -280.6105
   6   2.0000     -10.308245      -280.5016
   7   2.0000     -10.306397      -280.4513
   8   2.0000     -10.305271      -280.4207
   9   2.0000     -10.300808      -280.2992
  10   2.0000     -10.298180      -280.2277
  11   2.0000     -10.297649      -280.2133
  12   2.0000     -10.287451      -279.9358
  13   2.0000     -10.285396      -279.8799
  14   2.0000     -10.283385      -279.8251
  15   2.0000     -10.275973      -279.6234
  16   2.0000      -8.084299      -219.9850
  17   2.0000      -8.079794      -219.8624
  18   2.0000      -6.042811      -164.4333
  19   2.0000      -6.038880      -164.3263
  20   2.0000      -6.038349      -164.3118
  21   2.0000      -6.035157      -164.2250
  22   2.0000      -6.034369      -164.2035
  23   2.0000      -6.030508      -164.0985
  24   2.0000      -1.002690       -27.2846
  25   2.0000      -0.975835       -26.5538
  26   2.0000      -0.916183       -24.9306
  27   2.0000      -0.903228       -24.5781
  28   2.0000      -0.868630       -23.6366
  29   2.0000      -0.851701       -23.1760
  30   2.0000      -0.838698       -22.8221
  31   2.0000      -0.808908       -22.0115
  32   2.0000      -0.785497       -21.3745
  33   2.0000      -0.767309       -20.8795
  34   2.0000      -0.706438       -19.2232
  35   2.0000      -0.695599       -18.9282
  36   2.0000      -0.687806       -18.7161
  37   2.0000      -0.662107       -18.0168
  38   2.0000      -0.641086       -17.4448
  39   2.0000      -0.613421       -16.6920
  40   2.0000      -0.591920       -16.1070
  41   2.0000      -0.569187       -15.4884
  42   2.0000      -0.555660       -15.1203
  43   2.0000      -0.546033       -14.8583
  44   2.0000      -0.541740       -14.7415
  45   2.0000      -0.532068       -14.4783
  46   2.0000      -0.524837       -14.2815
  47   2.0000      -0.519344       -14.1321
  48   2.0000      -0.498902       -13.5758
  49   2.0000      -0.494711       -13.4618
  50   2.0000      -0.486611       -13.2414
  51   2.0000      -0.482674       -13.1342
  52   2.0000      -0.465717       -12.6728
  53   2.0000      -0.463282       -12.6065
  54   2.0000      -0.457544       -12.4504
  55   2.0000      -0.445601       -12.1254
  56   2.0000      -0.440440       -11.9850
  57   2.0000      -0.437585       -11.9073
  58   2.0000      -0.433389       -11.7931
  59   2.0000      -0.422489       -11.4965
  60   2.0000      -0.416295       -11.3280
  61   2.0000      -0.409100       -11.1322
  62   2.0000      -0.402315       -10.9475
  63   2.0000      -0.343837        -9.3563
  64   2.0000      -0.331442        -9.0190
  65   2.0000      -0.322660        -8.7800
  66   2.0000      -0.288017        -7.8373
  67   0.0000       0.025283         0.6880
  68   0.0000       0.065290         1.7766
  69   0.0000       0.098335         2.6758
  70   0.0000       0.107509         2.9255
  71   0.0000       0.127635         3.4731

MULLIKEN ATOMIC CHARGES
-----------------------
   0 S :    0.112537
   1 C :   -0.130133
   2 C :   -0.121202
   3 C :    0.013521
   4 C :   -0.146332
   5 H :    0.029873
   6 C :    0.134759
   7 H :    0.011181
   8 H :    0.040241
   9 C :   -0.076831
  10 H :    0.036024
  11 H :    0.019172
  12 C :   -0.108915
  13 H :    0.037308
  14 H :    0.020148
  15 H :    0.052998
  16 S :    0.117610
  17 C :   -0.113189
  18 C :   -0.050763
  19 C :   -0.014316
  20 C :   -0.164613
  21 H :    0.030612
  22 C :    0.024401
  23 H :    0.039841
  24 H :    0.028422
  25 C :   -0.092849
  26 H :    0.044764
  27 H :    0.040274
  28 C :   -0.073695
  29 H :    0.035950
  30 H :    0.051000
  31 H :    0.056122
  32 H :    0.054024
  33 H :    0.062058
Sum of atomic charges:   -0.0000000

LOEWDIN ATOMIC CHARGES
----------------------
   0 S :    0.399554
   1 C :   -0.206333
   2 C :   -0.057492
   3 C :   -0.065563
   4 C :   -0.180590
   5 H :    0.037984
   6 C :   -0.026928
   7 H :    0.029540
   8 H :    0.035419
   9 C :   -0.050471
  10 H :    0.029687
  11 H :    0.026666
  12 C :   -0.076025
  13 H :    0.019832
  14 H :    0.011551
  15 H :    0.038089
  16 S :    0.410823
  17 C :   -0.177214
  18 C :   -0.061833
  19 C :   -0.050078
  20 C :   -0.220732
  21 H :    0.030802
  22 C :   -0.043354
  23 H :    0.039725
  24 H :    0.022369
  25 C :   -0.037877
  26 H :    0.024423
  27 H :    0.028984
  28 C :   -0.075440
  29 H :    0.027937
  30 H :    0.036585
  31 H :    0.031293
  32 H :    0.024166
  33 H :    0.024502

  Mayer bond orders larger than 0.100000
B(  0-S ,  1-C ) :   1.1296 B(  0-S ,  4-C ) :   1.1296 B(  1-C ,  2-C ) :   1.6320
B(  1-C , 32-H ) :   0.9593 B(  2-C ,  3-C ) :   1.2278 B(  2-C ,  6-C ) :   1.0092
B(  3-C ,  4-C ) :   1.5920 B(  3-C ,  5-H ) :   0.9849 B(  4-C , 20-C ) :   1.0704
B(  6-C ,  7-H ) :   0.9332 B(  6-C ,  8-H ) :   0.9333 B(  6-C ,  9-C ) :   1.0647
B(  9-C , 10-H ) :   0.9576 B(  9-C , 11-H ) :   0.9579 B(  9-C , 12-C ) :   1.0734
B( 12-C , 13-H ) :   0.9651 B( 12-C , 14-H ) :   0.9755 B( 12-C , 15-H ) :   0.9711
B( 16-S , 17-C ) :   1.1524 B( 16-S , 20-C ) :   1.1580 B( 17-C , 18-C ) :   1.5898
B( 17-C , 20-C ) :   0.1086 B( 17-C , 33-H ) :   0.9704 B( 18-C , 19-C ) :   1.2396
B( 18-C , 21-H ) :   0.9852 B( 19-C , 20-C ) :   1.5173 B( 19-C , 22-C ) :   1.0515
B( 22-C , 23-H ) :   0.9319 B( 22-C , 24-H ) :   0.9327 B( 22-C , 25-C ) :   1.0676
B( 25-C , 26-H ) :   0.9588 B( 25-C , 27-H ) :   0.9595 B( 25-C , 28-C ) :   1.0479
B( 28-C , 29-H ) :   0.9791 B( 28-C , 30-H ) :   0.9751 B( 28-C , 31-H ) :   0.9773

Dispersion correction           -0.014790159
FINAL SINGLE POINT ENERGY     -1339.848022131842

DIPOLE MOMENT
-------------
                                X             Y             Z
Electronic contribution:    -17.62105      -4.18440      -8.32468
Nuclear contribution   :     17.72634       4.56873       8.65272
                        -----------------------------------------
Total Dipole Moment    :      0.10529       0.38434       0.32805
                        -----------------------------------------
Magnitude (a.u.)       :      0.51616
Magnitude (Debye)      :      1.31196

Rotational constants in cm-1:     0.023738     0.007617     0.006839
Rotational constants in MHz :   711.648468   228.355061   205.026331

                             ****ORCA TERMINATED NORMALLY****
TOTAL RUN TIME: 0 days 0 hours 0 minutes 31 seconds 790 msec
