                         Program Version 4.2.1 -  RELEASE  -
|  1> ! wB97X-D3 SP def2-SVP
|  2> %pal
|  3> nprocs 16
|  4> end
|  5>
|  6> * xyz 0 1
|  7> S 	 -114.551 	 56.0507 	 109.641
|  8> C 	 -113.523 	 54.595 	 109.797
|  9> C 	 -112.201 	 54.9412 	 110.182
| 10> C 	 -112.164 	 56.3251 	 110.571
| 11> C 	 -113.2 	 57.1056 	 110.123
| 12> H 	 -111.252 	 56.8078 	 111.039
| 13> C 	 -111.005 	 54.0075 	 110.212
| 14> H 	 -111.306 	 52.9931 	 110.648
| 15> H 	 -110.341 	 54.3077 	 110.96
| 16> C 	 -110.251 	 53.8141 	 108.891
| 17> H 	 -109.36 	 53.2763 	 108.988
| 18> H 	 -110.895 	 53.3684 	 108.12
| 19> C 	 -109.812 	 55.0897 	 108.195
| 20> H 	 -109.022 	 55.5499 	 108.689
| 21> H 	 -109.419 	 54.874 	 107.212
| 22> H 	 -110.669 	 55.7298 	 108.006
| 23> S 	 -112.704 	 59.606 	 109.258
| 24> C 	 -113.128 	 61.0299 	 110.074
| 25> C 	 -113.949 	 60.6915 	 111.209
| 26> C 	 -114.193 	 59.2618 	 111.275
| 27> C 	 -113.499 	 58.5459 	 110.313
| 28> H 	 -114.214 	 61.3721 	 112.001
| 29> C 	 -115.012 	 58.7285 	 112.474
| 30> H 	 -115.924 	 58.3057 	 112.027
| 31> H 	 -115.326 	 59.4783 	 113.16
| 32> C 	 -114.313 	 57.6633 	 113.427
| 33> H 	 -114.03 	 56.7194 	 112.938
| 34> H 	 -115.046 	 57.5587 	 114.156
| 35> C 	 -113.067 	 58.1571 	 114.245
| 36> H 	 -112.197 	 58.3116 	 113.618
| 37> H 	 -112.847 	 57.4136 	 115.007
| 38> H 	 -113.269 	 59.0163 	 114.811
| 39> H 	 -113.823 	 53.6242 	 109.507
| 40> H 	 -112.796 	 61.9901 	 109.791
| 41> *
| 42>
| 43>                          ****END OF INPUT****

CARTESIAN COORDINATES (ANGSTROEM)
---------------------------------
  S    -114.551000   56.050700  109.641000
  C    -113.523000   54.595000  109.797000
  C    -112.201000   54.941200  110.182000
  C    -112.164000   56.325100  110.571000
  C    -113.200000   57.105600  110.123000
  H    -111.252000   56.807800  111.039000
  C    -111.005000   54.007500  110.212000
  H    -111.306000   52.993100  110.648000
  H    -110.341000   54.307700  110.960000
  C    -110.251000   53.814100  108.891000
  H    -109.360000   53.276300  108.988000
  H    -110.895000   53.368400  108.120000
  C    -109.812000   55.089700  108.195000
  H    -109.022000   55.549900  108.689000
  H    -109.419000   54.874000  107.212000
  H    -110.669000   55.729800  108.006000
  S    -112.704000   59.606000  109.258000
  C    -113.128000   61.029900  110.074000
  C    -113.949000   60.691500  111.209000
  C    -114.193000   59.261800  111.275000
  C    -113.499000   58.545900  110.313000
  H    -114.214000   61.372100  112.001000
  C    -115.012000   58.728500  112.474000
  H    -115.924000   58.305700  112.027000
  H    -115.326000   59.478300  113.160000
  C    -114.313000   57.663300  113.427000
  H    -114.030000   56.719400  112.938000
  H    -115.046000   57.558700  114.156000
  C    -113.067000   58.157100  114.245000
  H    -112.197000   58.311600  113.618000
  H    -112.847000   57.413600  115.007000
  H    -113.269000   59.016300  114.811000
  H    -113.823000   53.624200  109.507000
  H    -112.796000   61.990100  109.791000

 Total Charge           Charge          ....    0
 Multiplicity           Mult            ....    1
 Number of Electrons    NEL             ....  134
 Basis Dimension        Dim             ....  322

ORBITAL ENERGIES
----------------

  NO   OCC          E(Eh)            E(eV)
   0   2.0000     -88.966467     -2420.9006
   1   2.0000     -88.965161     -2420.8651
   2   2.0000     -10.334111      -281.2055
   3   2.0000     -10.322752      -280.8964
   4   2.0000     -10.321060      -280.8503
   5   2.0000     -10.316696      -280.7316
   6   2.0000     -10.310495      -280.5628
   7   2.0000     -10.305859      -280.4367
   8   2.0000     -10.303756      -280.3795
   9   2.0000     -10.298602      -280.2392
  10   2.0000     -10.296529      -280.1828
  11   2.0000     -10.292194      -280.0648
  12   2.0000     -10.281341      -279.7695
  13   2.0000     -10.281304      -279.7685
  14   2.0000     -10.268890      -279.4307
  15   2.0000     -10.263446      -279.2826
  16   2.0000      -8.081569      -219.9107
  17   2.0000      -8.079946      -219.8665
  18   2.0000      -6.039848      -164.3526
  19   2.0000      -6.038548      -164.3172
  20   2.0000      -6.035413      -164.2319
  21   2.0000      -6.034614      -164.2102
  22   2.0000      -6.032909      -164.1638
  23   2.0000      -6.030693      -164.1035
  24   2.0000      -1.007642       -27.4193
  25   2.0000      -0.981134       -26.6980
  26   2.0000      -0.912545       -24.8316
  27   2.0000      -0.897199       -24.4140
  28   2.0000      -0.864719       -23.5302
  29   2.0000      -0.846715       -23.0403
  30   2.0000      -0.843309       -22.9476
  31   2.0000      -0.812911       -22.1204
  32   2.0000      -0.784543       -21.3485
  33   2.0000      -0.775733       -21.1088
  34   2.0000      -0.701430       -19.0869
  35   2.0000      -0.701165       -19.0797
  36   2.0000      -0.686048       -18.6683
  37   2.0000      -0.669482       -18.2175
  38   2.0000      -0.641214       -17.4483
  39   2.0000      -0.611145       -16.6301
  40   2.0000      -0.591181       -16.0869
  41   2.0000      -0.581906       -15.8345
  42   2.0000      -0.553833       -15.0706
  43   2.0000      -0.551733       -15.0134
  44   2.0000      -0.543568       -14.7912
  45   2.0000      -0.536237       -14.5918
  46   2.0000      -0.515156       -14.0181
  47   2.0000      -0.513393       -13.9701
  48   2.0000      -0.502552       -13.6751
  49   2.0000      -0.494459       -13.4549
  50   2.0000      -0.489696       -13.3253
  51   2.0000      -0.475058       -12.9270
  52   2.0000      -0.467849       -12.7308
  53   2.0000      -0.465234       -12.6597
  54   2.0000      -0.461905       -12.5691
  55   2.0000      -0.442487       -12.0407
  56   2.0000      -0.441938       -12.0257
  57   2.0000      -0.437562       -11.9067
  58   2.0000      -0.434071       -11.8117
  59   2.0000      -0.423441       -11.5224
  60   2.0000      -0.419224       -11.4077
  61   2.0000      -0.411623       -11.2008
  62   2.0000      -0.404488       -11.0067
  63   2.0000      -0.336462        -9.1556
  64   2.0000      -0.326798        -8.8926
  65   2.0000      -0.323050        -8.7906
  66   2.0000      -0.307034        -8.3548
  67   0.0000       0.036317         0.9882
  68   0.0000       0.058190         1.5834
  69   0.0000       0.106957         2.9105
  70   0.0000       0.119599         3.2545
  71   0.0000       0.125772         3.4224

MULLIKEN ATOMIC CHARGES
-----------------------
   0 S :    0.096161
   1 C :   -0.097864
   2 C :   -0.120186
   3 C :    0.029695
   4 C :   -0.157808
   5 H :    0.039341
   6 C :    0.088101
   7 H :    0.035519
   8 H :    0.003853
   9 C :   -0.043693
  10 H :    0.020562
  11 H :    0.027890
  12 C :   -0.047438
  13 H :    0.013289
  14 H :    0.019438
  15 H :    0.044797
  16 S :    0.133614
  17 C :   -0.088210
  18 C :   -0.051257
  19 C :   -0.018476
  20 C :   -0.188595
  21 H :    0.024193
  22 C :    0.074376
  23 H :    0.040928
  24 H :    0.005159
  25 C :   -0.068015
  26 H :    0.053035
  27 H :    0.014508
  28 C :   -0.043772
  29 H :    0.037324
  30 H :    0.028799
  31 H :    0.009426
  32 H :    0.037005
  33 H :    0.048302
Sum of atomic charges:   -0.0000000

LOEWDIN ATOMIC CHARGES
----------------------
   0 S :    0.381100
   1 C :   -0.172930
   2 C :   -0.061187
   3 C :   -0.062254
   4 C :   -0.191551
   5 H :    0.041899
   6 C :   -0.034418
   7 H :    0.041269
   8 H :    0.021793
   9 C :   -0.034391
  10 H :    0.018949
  11 H :    0.027268
  12 C :   -0.059437
  13 H :    0.011729
  14 H :    0.025628
  15 H :    0.027775
  16 S :    0.471424
  17 C :   -0.202671
  18 C :   -0.072576
  19 C :   -0.054150
  20 C :   -0.239590
  21 H :    0.028553
  22 C :   -0.026727
  23 H :    0.036386
  24 H :    0.023241
  25 C :   -0.029211
  26 H :    0.027181
  27 H :    0.015509
  28 C :   -0.061340
  29 H :    0.022658
  30 H :    0.028052
  31 H :    0.013812
  32 H :    0.017988
  33 H :    0.020220

  Mayer bond orders larger than 0.100000
B(  0-S ,  1-C ) :   1.1471 B(  0-S ,  4-C ) :   1.1288 B(  1-C ,  2-C ) :   1.6005
B(  1-C ,  4-C ) :   0.1084 B(  1-C , 32-H ) :   0.9739 B(  2-C ,  3-C ) :   1.2283
B(  2-C ,  6-C ) :   1.0258 B(  3-C ,  4-C ) :   1.6309 B(  3-C ,  5-H ) :   0.9740
B(  4-C , 20-C ) :   0.9750 B(  6-C ,  7-H ) :   0.9405 B(  6-C ,  8-H ) :   0.9358
B(  6-C ,  9-C ) :   1.0669 B(  9-C , 10-H ) :   0.9564 B(  9-C , 11-H ) :   0.9588
B(  9-C , 12-C ) :   1.0891 B( 12-C , 13-H ) :   0.9766 B( 12-C , 14-H ) :   0.9708
B( 12-C , 15-H ) :   0.9710 B( 16-S , 17-C ) :   1.2120 B( 16-S , 20-C ) :   1.1860
B( 17-C , 18-C ) :   1.5167 B( 17-C , 20-C ) :   0.1056 B( 17-C , 33-H ) :   0.9800
B( 18-C , 19-C ) :   1.2975 B( 18-C , 21-H ) :   0.9912 B( 19-C , 20-C ) :   1.5545
B( 19-C , 22-C ) :   1.0336 B( 22-C , 23-H ) :   0.9340 B( 22-C , 24-H ) :   0.9408
B( 22-C , 25-C ) :   1.0678 B( 25-C , 26-H ) :   0.9592 B( 25-C , 27-H ) :   0.9561
B( 25-C , 28-C ) :   1.0767 B( 28-C , 29-H ) :   0.9779 B( 28-C , 30-H ) :   0.9748
B( 28-C , 31-H ) :   0.9742

Dispersion correction           -0.015865984
FINAL SINGLE POINT ENERGY     -1339.861721528399

DIPOLE MOMENT
-------------
                                X             Y             Z
Electronic contribution:    -10.89564       9.65455     -11.12599
Nuclear contribution   :     11.24963      -9.81241      11.53343
                        -----------------------------------------
Total Dipole Moment    :      0.35399      -0.15786       0.40744
                        -----------------------------------------
Magnitude (a.u.)       :      0.56235
Magnitude (Debye)      :      1.42939

Rotational constants in cm-1:     0.019853     0.009054     0.007831
Rotational constants in MHz :   595.169673   271.422923   234.768723

                             ****ORCA TERMINATED NORMALLY****
TOTAL RUN TIME: 0 days 0 hours 0 minutes 34 seconds 627 msec
