                         Program Version 4.2.1 -  RELEASE  -
|  1> ! wB97X-D3 SP def2-SVP
|  2> %pal
|  3> nprocs 16
|  4> end
|  5>
|  6> * xyz 0 1
|  7> S 	 -86.7713 	 47.7044 	 128.958
|  8> C 	 -87.0532 	 45.9976 	 129.468
|  9> C 	 -86.3688 	 45.0655 	 128.678
| 10> C 	 -85.5356 	 45.7491 	 127.682
| 11> C 	 -85.6612 	 47.1533 	 127.72
| 12> H 	 -84.993 	 45.2672 	 126.865
| 13> C 	 -86.6004 	 43.5526 	 128.629
| 14> H 	 -86.6726 	 43.1415 	 127.636
| 15> H 	 -87.5164 	 43.2925 	 129.127
| 16> C 	 -85.5197 	 42.7426 	 129.385
| 17> H 	 -85.4451 	 43.0554 	 130.427
| 18> H 	 -85.9414 	 41.737 	 129.375
| 19> C 	 -84.167 	 42.6177 	 128.692
| 20> H 	 -83.7479 	 41.6868 	 129.057
| 21> H 	 -84.1457 	 42.5754 	 127.62
| 22> H 	 -83.4828 	 43.4489 	 128.987
| 23> S 	 -84.5416 	 49.6755 	 127.816
| 24> C 	 -83.6352 	 50.3132 	 126.433
| 25> C 	 -83.5906 	 49.3453 	 125.467
| 26> C 	 -84.2774 	 48.1611 	 125.708
| 27> C 	 -84.8831 	 48.164 	 126.968
| 28> H 	 -82.9813 	 49.5812 	 124.62
| 29> C 	 -84.497 	 47.0969 	 124.666
| 30> H 	 -85.2589 	 46.3914 	 125.014
| 31> H 	 -83.5855 	 46.5745 	 124.623
| 32> C 	 -85.0596 	 47.6379 	 123.33
| 33> H 	 -85.4148 	 46.9127 	 122.632
| 34> H 	 -84.1677 	 48.0804 	 122.961
| 35> C 	 -86.1042 	 48.7517 	 123.531
| 36> H 	 -85.7641 	 49.6421 	 124.028
| 37> H 	 -86.9381 	 48.3377 	 124.103
| 38> H 	 -86.4354 	 49.0239 	 122.501
| 39> H 	 -87.6095 	 45.7157 	 130.319
| 40> H 	 -83.0853 	 51.2237 	 126.319
| 41> *
| 42>
| 43>                          ****END OF INPUT****

CARTESIAN COORDINATES (ANGSTROEM)
---------------------------------
  S    -86.771300   47.704400  128.958000
  C    -87.053200   45.997600  129.468000
  C    -86.368800   45.065500  128.678000
  C    -85.535600   45.749100  127.682000
  C    -85.661200   47.153300  127.720000
  H    -84.993000   45.267200  126.865000
  C    -86.600400   43.552600  128.629000
  H    -86.672600   43.141500  127.636000
  H    -87.516400   43.292500  129.127000
  C    -85.519700   42.742600  129.385000
  H    -85.445100   43.055400  130.427000
  H    -85.941400   41.737000  129.375000
  C    -84.167000   42.617700  128.692000
  H    -83.747900   41.686800  129.057000
  H    -84.145700   42.575400  127.620000
  H    -83.482800   43.448900  128.987000
  S    -84.541600   49.675500  127.816000
  C    -83.635200   50.313200  126.433000
  C    -83.590600   49.345300  125.467000
  C    -84.277400   48.161100  125.708000
  C    -84.883100   48.164000  126.968000
  H    -82.981300   49.581200  124.620000
  C    -84.497000   47.096900  124.666000
  H    -85.258900   46.391400  125.014000
  H    -83.585500   46.574500  124.623000
  C    -85.059600   47.637900  123.330000
  H    -85.414800   46.912700  122.632000
  H    -84.167700   48.080400  122.961000
  C    -86.104200   48.751700  123.531000
  H    -85.764100   49.642100  124.028000
  H    -86.938100   48.337700  124.103000
  H    -86.435400   49.023900  122.501000
  H    -87.609500   45.715700  130.319000
  H    -83.085300   51.223700  126.319000

 Total Charge           Charge          ....    0
 Multiplicity           Mult            ....    1
 Number of Electrons    NEL             ....  134
 Basis Dimension        Dim             ....  322

ORBITAL ENERGIES
----------------

  NO   OCC          E(Eh)            E(eV)
   0   2.0000     -88.969918     -2420.9945
   1   2.0000     -88.966269     -2420.8953
   2   2.0000     -10.336638      -281.2742
   3   2.0000     -10.331557      -281.1359
   4   2.0000     -10.317538      -280.7545
   5   2.0000     -10.316151      -280.7167
   6   2.0000     -10.309642      -280.5396
   7   2.0000     -10.300696      -280.2962
   8   2.0000     -10.299820      -280.2723
   9   2.0000     -10.292843      -280.0825
  10   2.0000     -10.288041      -279.9518
  11   2.0000     -10.286024      -279.8969
  12   2.0000     -10.285951      -279.8950
  13   2.0000     -10.280677      -279.7514
  14   2.0000     -10.276272      -279.6316
  15   2.0000     -10.272748      -279.5357
  16   2.0000      -8.083615      -219.9664
  17   2.0000      -8.080235      -219.8744
  18   2.0000      -6.042209      -164.4169
  19   2.0000      -6.038820      -164.3246
  20   2.0000      -6.038389      -164.3129
  21   2.0000      -6.034796      -164.2152
  22   2.0000      -6.034220      -164.1995
  23   2.0000      -6.030998      -164.1118
  24   2.0000      -1.003243       -27.2996
  25   2.0000      -0.976515       -26.5723
  26   2.0000      -0.912897       -24.8412
  27   2.0000      -0.909740       -24.7553
  28   2.0000      -0.867261       -23.5994
  29   2.0000      -0.847318       -23.0567
  30   2.0000      -0.838755       -22.8237
  31   2.0000      -0.813748       -22.1432
  32   2.0000      -0.786576       -21.4038
  33   2.0000      -0.776290       -21.1239
  34   2.0000      -0.705897       -19.2084
  35   2.0000      -0.699910       -19.0455
  36   2.0000      -0.695157       -18.9162
  37   2.0000      -0.658988       -17.9320
  38   2.0000      -0.638954       -17.3868
  39   2.0000      -0.616335       -16.7713
  40   2.0000      -0.593745       -16.1566
  41   2.0000      -0.574578       -15.6351
  42   2.0000      -0.559392       -15.2218
  43   2.0000      -0.553548       -15.0628
  44   2.0000      -0.543846       -14.7988
  45   2.0000      -0.538419       -14.6511
  46   2.0000      -0.516518       -14.0552
  47   2.0000      -0.513392       -13.9701
  48   2.0000      -0.497666       -13.5422
  49   2.0000      -0.493525       -13.4295
  50   2.0000      -0.490437       -13.3455
  51   2.0000      -0.480254       -13.0684
  52   2.0000      -0.473605       -12.8874
  53   2.0000      -0.464659       -12.6440
  54   2.0000      -0.463203       -12.6044
  55   2.0000      -0.447460       -12.1760
  56   2.0000      -0.443410       -12.0658
  57   2.0000      -0.437939       -11.9169
  58   2.0000      -0.432873       -11.7791
  59   2.0000      -0.427701       -11.6383
  60   2.0000      -0.418224       -11.3805
  61   2.0000      -0.413776       -11.2594
  62   2.0000      -0.401043       -10.9129
  63   2.0000      -0.351725        -9.5709
  64   2.0000      -0.333436        -9.0732
  65   2.0000      -0.329080        -8.9547
  66   2.0000      -0.284265        -7.7352
  67   0.0000       0.019918         0.5420
  68   0.0000       0.078501         2.1361
  69   0.0000       0.091318         2.4849
  70   0.0000       0.116365         3.1665
  71   0.0000       0.145212         3.9514

MULLIKEN ATOMIC CHARGES
-----------------------
   0 S :    0.101207
   1 C :   -0.106312
   2 C :   -0.071923
   3 C :    0.012202
   4 C :   -0.131755
   5 H :    0.020781
   6 C :    0.068571
   7 H :    0.028585
   8 H :    0.015295
   9 C :   -0.087589
  10 H :    0.035299
  11 H :    0.024498
  12 C :   -0.051054
  13 H :    0.030650
  14 H :    0.023343
  15 H :    0.046509
  16 S :    0.092983
  17 C :   -0.078431
  18 C :   -0.062488
  19 C :   -0.054791
  20 C :   -0.138693
  21 H :    0.011295
  22 C :    0.087536
  23 H :    0.022777
  24 H :    0.029751
  25 C :   -0.067537
  26 H :    0.034484
  27 H :    0.012044
  28 C :   -0.036401
  29 H :    0.040341
  30 H :    0.033178
  31 H :    0.033593
  32 H :    0.033415
  33 H :    0.048639
Sum of atomic charges:    0.0000000

LOEWDIN ATOMIC CHARGES
----------------------
   0 S :    0.385082
   1 C :   -0.179027
   2 C :   -0.052160
   3 C :   -0.068112
   4 C :   -0.185636
   5 H :    0.030277
   6 C :   -0.026580
   7 H :    0.030202
   8 H :    0.028692
   9 C :   -0.038606
  10 H :    0.026393
  11 H :    0.022912
  12 C :   -0.070814
  13 H :    0.027825
  14 H :    0.019292
  15 H :    0.032300
  16 S :    0.389152
  17 C :   -0.179520
  18 C :   -0.071796
  19 C :   -0.062428
  20 C :   -0.184674
  21 H :    0.028666
  22 C :   -0.029023
  23 H :    0.027408
  24 H :    0.025814
  25 C :   -0.034676
  26 H :    0.023797
  27 H :    0.015639
  28 C :   -0.060485
  29 H :    0.024613
  30 H :    0.026666
  31 H :    0.029481
  32 H :    0.018322
  33 H :    0.031006

  Mayer bond orders larger than 0.100000
B(  0-S ,  1-C ) :   1.1177 B(  0-S ,  4-C ) :   1.1453 B(  1-C ,  2-C ) :   1.6370
B(  1-C , 32-H ) :   0.9698 B(  2-C ,  3-C ) :   1.2199 B(  2-C ,  6-C ) :   1.0187
B(  3-C ,  4-C ) :   1.5774 B(  3-C ,  5-H ) :   0.9799 B(  4-C , 20-C ) :   1.0494
B(  6-C ,  7-H ) :   0.9482 B(  6-C ,  8-H ) :   0.9422 B(  6-C ,  9-C ) :   1.0810
B(  9-C , 10-H ) :   0.9543 B(  9-C , 11-H ) :   0.9609 B(  9-C , 12-C ) :   1.0746
B( 12-C , 13-H ) :   0.9756 B( 12-C , 14-H ) :   0.9749 B( 12-C , 15-H ) :   0.9745
B( 16-S , 17-C ) :   1.1358 B( 16-S , 20-C ) :   1.1464 B( 17-C , 18-C ) :   1.6127
B( 17-C , 20-C ) :   0.1022 B( 17-C , 33-H ) :   0.9693 B( 18-C , 19-C ) :   1.2520
B( 18-C , 21-H ) :   0.9917 B( 19-C , 20-C ) :   1.5759 B( 19-C , 22-C ) :   1.0341
B( 22-C , 23-H ) :   0.9317 B( 22-C , 24-H ) :   0.9346 B( 22-C , 25-C ) :   1.0497
B( 25-C , 26-H ) :   0.9630 B( 25-C , 27-H ) :   0.9511 B( 25-C , 28-C ) :   1.0879
B( 28-C , 29-H ) :   0.9650 B( 28-C , 30-H ) :   0.9768 B( 28-C , 31-H ) :   0.9726

Dispersion correction           -0.014697701
FINAL SINGLE POINT ENERGY     -1339.873623142921

DIPOLE MOMENT
-------------
                                X             Y             Z
Electronic contribution:     -2.32064      19.92909      12.83928
Nuclear contribution   :      2.47764     -20.49851     -13.24897
                        -----------------------------------------
Total Dipole Moment    :      0.15700      -0.56942      -0.40969
                        -----------------------------------------
Magnitude (a.u.)       :      0.71884
Magnitude (Debye)      :      1.82715

Rotational constants in cm-1:     0.020281     0.008342     0.007092
Rotational constants in MHz :   607.994683   250.090278   212.601220

                             ****ORCA TERMINATED NORMALLY****
TOTAL RUN TIME: 0 days 0 hours 0 minutes 35 seconds 762 msec
