                         Program Version 4.2.1 -  RELEASE  -
|  1> ! wB97X-D3 SP def2-SVP
|  2> %pal
|  3> nprocs 16
|  4> end
|  5>
|  6> * xyz 0 1
|  7> S 	 -71.508 	 51.9096 	 137.251
|  8> C 	 -71.0227 	 53.575 	 137.703
|  9> C 	 -71.4321 	 54.4958 	 136.776
| 10> C 	 -72.1932 	 53.9459 	 135.689
| 11> C 	 -72.4722 	 52.6083 	 135.96
| 12> H 	 -72.6347 	 54.3158 	 134.759
| 13> C 	 -70.8792 	 55.9656 	 136.705
| 14> H 	 -70.4684 	 56.1321 	 135.715
| 15> H 	 -70.1171 	 55.93 	 137.426
| 16> C 	 -71.972 	 57.0262 	 137.057
| 17> H 	 -72.072 	 57.1406 	 138.118
| 18> H 	 -71.5351 	 57.9665 	 136.943
| 19> C 	 -73.3045 	 56.8654 	 136.306
| 20> H 	 -73.2796 	 56.6509 	 135.29
| 21> H 	 -73.8763 	 56.0829 	 136.804
| 22> H 	 -73.8549 	 57.8111 	 136.441
| 23> S 	 -72.2531 	 50.4685 	 134.425
| 24> C 	 -73.5282 	 49.9717 	 133.29
| 25> C 	 -74.5761 	 50.8485 	 133.31
| 26> C 	 -74.3659 	 51.842 	 134.359
| 27> C 	 -73.1496 	 51.7957 	 134.981
| 28> H 	 -75.4921 	 50.6871 	 132.716
| 29> C 	 -75.3934 	 52.9068 	 134.59
| 30> H 	 -76.2495 	 52.6855 	 133.979
| 31> H 	 -74.9854 	 53.8043 	 134.201
| 32> C 	 -75.7276 	 53.2328 	 136.059
| 33> H 	 -76.5052 	 54.0312 	 136.165
| 34> H 	 -74.8377 	 53.7109 	 136.495
| 35> C 	 -76.2104 	 51.9694 	 136.834
| 36> H 	 -77.0336 	 51.4005 	 136.298
| 37> H 	 -76.4375 	 52.1437 	 137.857
| 38> H 	 -75.3968 	 51.2909 	 136.834
| 39> H 	 -70.2999 	 53.7707 	 138.555
| 40> H 	 -73.5596 	 49.0217 	 132.777
| 41> *
| 42>
| 43>                          ****END OF INPUT****

CARTESIAN COORDINATES (ANGSTROEM)
---------------------------------
  S    -71.508000   51.909600  137.251000
  C    -71.022700   53.575000  137.703000
  C    -71.432100   54.495800  136.776000
  C    -72.193200   53.945900  135.689000
  C    -72.472200   52.608300  135.960000
  H    -72.634700   54.315800  134.759000
  C    -70.879200   55.965600  136.705000
  H    -70.468400   56.132100  135.715000
  H    -70.117100   55.930000  137.426000
  C    -71.972000   57.026200  137.057000
  H    -72.072000   57.140600  138.118000
  H    -71.535100   57.966500  136.943000
  C    -73.304500   56.865400  136.306000
  H    -73.279600   56.650900  135.290000
  H    -73.876300   56.082900  136.804000
  H    -73.854900   57.811100  136.441000
  S    -72.253100   50.468500  134.425000
  C    -73.528200   49.971700  133.290000
  C    -74.576100   50.848500  133.310000
  C    -74.365900   51.842000  134.359000
  C    -73.149600   51.795700  134.981000
  H    -75.492100   50.687100  132.716000
  C    -75.393400   52.906800  134.590000
  H    -76.249500   52.685500  133.979000
  H    -74.985400   53.804300  134.201000
  C    -75.727600   53.232800  136.059000
  H    -76.505200   54.031200  136.165000
  H    -74.837700   53.710900  136.495000
  C    -76.210400   51.969400  136.834000
  H    -77.033600   51.400500  136.298000
  H    -76.437500   52.143700  137.857000
  H    -75.396800   51.290900  136.834000
  H    -70.299900   53.770700  138.555000
  H    -73.559600   49.021700  132.777000

 Total Charge           Charge          ....    0
 Multiplicity           Mult            ....    1
 Number of Electrons    NEL             ....  134
 Basis Dimension        Dim             ....  322

ORBITAL ENERGIES
----------------

  NO   OCC          E(Eh)            E(eV)
   0   2.0000     -88.971267     -2421.0312
   1   2.0000     -88.959891     -2420.7217
   2   2.0000     -10.329656      -281.0842
   3   2.0000     -10.322697      -280.8949
   4   2.0000     -10.315916      -280.7104
   5   2.0000     -10.315639      -280.7028
   6   2.0000     -10.306918      -280.4655
   7   2.0000     -10.298904      -280.2474
   8   2.0000     -10.298876      -280.2467
   9   2.0000     -10.297869      -280.2192
  10   2.0000     -10.293095      -280.0893
  11   2.0000     -10.284586      -279.8578
  12   2.0000     -10.282053      -279.7889
  13   2.0000     -10.281161      -279.7646
  14   2.0000     -10.276285      -279.6319
  15   2.0000     -10.267219      -279.3852
  16   2.0000      -8.085149      -220.0081
  17   2.0000      -8.075583      -219.7478
  18   2.0000      -6.043656      -164.4562
  19   2.0000      -6.040046      -164.3580
  20   2.0000      -6.035677      -164.2391
  21   2.0000      -6.034153      -164.1976
  22   2.0000      -6.029910      -164.0822
  23   2.0000      -6.026246      -163.9825
  24   2.0000      -1.012203       -27.5435
  25   2.0000      -0.982557       -26.7367
  26   2.0000      -0.908241       -24.7145
  27   2.0000      -0.904479       -24.6121
  28   2.0000      -0.873864       -23.7791
  29   2.0000      -0.847144       -23.0520
  30   2.0000      -0.837754       -22.7964
  31   2.0000      -0.817628       -22.2488
  32   2.0000      -0.785065       -21.3627
  33   2.0000      -0.771539       -20.9947
  34   2.0000      -0.712788       -19.3959
  35   2.0000      -0.706827       -19.2337
  36   2.0000      -0.685760       -18.6605
  37   2.0000      -0.667492       -18.1634
  38   2.0000      -0.642206       -17.4753
  39   2.0000      -0.607521       -16.5315
  40   2.0000      -0.583857       -15.8876
  41   2.0000      -0.568547       -15.4710
  42   2.0000      -0.554234       -15.0815
  43   2.0000      -0.547502       -14.8983
  44   2.0000      -0.542431       -14.7603
  45   2.0000      -0.538332       -14.6488
  46   2.0000      -0.521274       -14.1846
  47   2.0000      -0.507614       -13.8129
  48   2.0000      -0.503024       -13.6880
  49   2.0000      -0.494788       -13.4639
  50   2.0000      -0.489503       -13.3201
  51   2.0000      -0.482509       -13.1297
  52   2.0000      -0.473143       -12.8749
  53   2.0000      -0.465544       -12.6681
  54   2.0000      -0.463095       -12.6015
  55   2.0000      -0.449761       -12.2386
  56   2.0000      -0.435808       -11.8589
  57   2.0000      -0.433276       -11.7900
  58   2.0000      -0.432891       -11.7796
  59   2.0000      -0.428046       -11.6477
  60   2.0000      -0.425037       -11.5659
  61   2.0000      -0.408678       -11.1207
  62   2.0000      -0.405606       -11.0371
  63   2.0000      -0.347878        -9.4662
  64   2.0000      -0.334279        -9.0962
  65   2.0000      -0.324217        -8.8224
  66   2.0000      -0.293293        -7.9809
  67   0.0000       0.027128         0.7382
  68   0.0000       0.071595         1.9482
  69   0.0000       0.097272         2.6469
  70   0.0000       0.125175         3.4062
  71   0.0000       0.130255         3.5444

MULLIKEN ATOMIC CHARGES
-----------------------
   0 S :    0.108631
   1 C :   -0.147185
   2 C :   -0.076418
   3 C :    0.005308
   4 C :   -0.142567
   5 H :    0.033388
   6 C :    0.100054
   7 H :    0.040169
   8 H :   -0.002338
   9 C :   -0.040781
  10 H :    0.011592
  11 H :    0.002867
  12 C :   -0.034989
  13 H :    0.021648
  14 H :    0.046930
  15 H :    0.035256
  16 S :    0.090183
  17 C :   -0.092238
  18 C :   -0.032233
  19 C :   -0.102934
  20 C :   -0.148307
  21 H :    0.036764
  22 C :    0.109144
  23 H :    0.003951
  24 H :    0.015913
  25 C :   -0.104168
  26 H :    0.029053
  27 H :    0.046398
  28 C :   -0.026456
  29 H :    0.032202
  30 H :    0.028269
  31 H :    0.021904
  32 H :    0.073939
  33 H :    0.057051
Sum of atomic charges:   -0.0000000

LOEWDIN ATOMIC CHARGES
----------------------
   0 S :    0.384777
   1 C :   -0.196667
   2 C :   -0.059309
   3 C :   -0.057036
   4 C :   -0.188698
   5 H :    0.039224
   6 C :   -0.013617
   7 H :    0.031937
   8 H :    0.019252
   9 C :   -0.039999
  10 H :    0.025615
  11 H :    0.014941
  12 C :   -0.059676
  13 H :    0.013489
  14 H :    0.030024
  15 H :    0.033408
  16 S :    0.409670
  17 C :   -0.176367
  18 C :   -0.071499
  19 C :   -0.064342
  20 C :   -0.217797
  21 H :    0.039880
  22 C :   -0.030207
  23 H :    0.024350
  24 H :    0.026412
  25 C :   -0.042617
  26 H :    0.024484
  27 H :    0.024443
  28 C :   -0.065167
  29 H :    0.031293
  30 H :    0.020102
  31 H :    0.018956
  32 H :    0.041530
  33 H :    0.029210

  Mayer bond orders larger than 0.100000
B(  0-S ,  1-C ) :   1.1092 B(  0-S ,  4-C ) :   1.1468 B(  1-C ,  2-C ) :   1.6594
B(  1-C , 32-H ) :   0.9556 B(  2-C ,  3-C ) :   1.1903 B(  2-C ,  6-C ) :   1.0040
B(  3-C ,  4-C ) :   1.5785 B(  3-C ,  5-H ) :   0.9912 B(  4-C , 20-C ) :   1.0457
B(  6-C ,  7-H ) :   0.9509 B(  6-C ,  8-H ) :   0.9392 B(  6-C ,  9-C ) :   1.0751
B(  9-C , 10-H ) :   0.9478 B(  9-C , 11-H ) :   0.9545 B(  9-C , 12-C ) :   1.0800
B( 12-C , 13-H ) :   0.9759 B( 12-C , 14-H ) :   0.9687 B( 12-C , 15-H ) :   0.9686
B( 16-S , 17-C ) :   1.1454 B( 16-S , 20-C ) :   1.1326 B( 17-C , 18-C ) :   1.6299
B( 17-C , 33-H ) :   0.9669 B( 18-C , 19-C ) :   1.2253 B( 18-C , 21-H ) :   0.9838
B( 19-C , 20-C ) :   1.6187 B( 19-C , 22-C ) :   1.0425 B( 22-C , 23-H ) :   0.9309
B( 22-C , 24-H ) :   0.9300 B( 22-C , 25-C ) :   1.0717 B( 25-C , 26-H ) :   0.9577
B( 25-C , 27-H ) :   0.9425 B( 25-C , 28-C ) :   1.0724 B( 28-C , 29-H ) :   0.9761
B( 28-C , 30-H ) :   0.9755 B( 28-C , 31-H ) :   0.9705

Dispersion correction           -0.016580152
FINAL SINGLE POINT ENERGY     -1339.862185812851

DIPOLE MOMENT
-------------
                                X             Y             Z
Electronic contribution:     14.10497     -21.16971      -3.80534
Nuclear contribution   :    -14.21576      21.74332       3.69803
                        -----------------------------------------
Total Dipole Moment    :     -0.11079       0.57362      -0.10731
                        -----------------------------------------
Magnitude (a.u.)       :      0.59399
Magnitude (Debye)      :      1.50981

Rotational constants in cm-1:     0.020031     0.010115     0.008261
Rotational constants in MHz :   600.512460   303.253018   247.669813

                             ****ORCA TERMINATED NORMALLY****
TOTAL RUN TIME: 0 days 0 hours 0 minutes 36 seconds 791 msec
