                         Program Version 4.2.1 -  RELEASE  -
|  1> ! wB97X-D3 SP def2-SVP
|  2> %pal
|  3> nprocs 16
|  4> end
|  5>
|  6> * xyz 0 1
|  7> S 	 45.8108 	 15.6184 	 83.4056
|  8> C 	 44.5224 	 16.8815 	 83.6216
|  9> C 	 43.2817 	 16.3333 	 83.8895
| 10> C 	 43.3639 	 14.8906 	 83.9964
| 11> C 	 44.6328 	 14.3451 	 83.8019
| 12> H 	 42.5507 	 14.144 	 84.0557
| 13> C 	 42.0638 	 17.179 	 83.9853
| 14> H 	 42.4052 	 18.212 	 84.2708
| 15> H 	 41.3827 	 16.7937 	 84.7346
| 16> C 	 41.1826 	 17.1573 	 82.7311
| 17> H 	 41.7324 	 16.849 	 81.883
| 18> H 	 40.4663 	 16.3688 	 82.92
| 19> C 	 40.3448 	 18.4044 	 82.5264
| 20> H 	 40.9577 	 19.2504 	 82.6269
| 21> H 	 39.6567 	 18.4005 	 81.6115
| 22> H 	 39.8382 	 18.4794 	 83.5462
| 23> S 	 44.8656 	 12.0042 	 82.3517
| 24> C 	 45.7115 	 10.6885 	 83.0936
| 25> C 	 46.111 	 10.9869 	 84.4129
| 26> C 	 45.7523 	 12.3028 	 84.8145
| 27> C 	 45.0816 	 12.9882 	 83.879
| 28> H 	 46.7223 	 10.3192 	 85.069
| 29> C 	 46.2735 	 12.7991 	 86.1363
| 30> H 	 46.2604 	 13.887 	 85.9197
| 31> H 	 47.2582 	 12.4943 	 86.0771
| 32> C 	 45.4835 	 12.4555 	 87.3541
| 33> H 	 45.9617 	 12.9491 	 88.1937
| 34> H 	 45.6924 	 11.3957 	 87.5533
| 35> C 	 43.9812 	 12.8245 	 87.2736
| 36> H 	 43.7966 	 13.8622 	 87.203
| 37> H 	 43.4385 	 12.5911 	 88.2537
| 38> H 	 43.3898 	 12.2889 	 86.556
| 39> H 	 44.7415 	 17.9467 	 83.4899
| 40> H 	 45.8156 	 9.71158 	 82.6065
| 41> *
| 42>
| 43>                          ****END OF INPUT****

CARTESIAN COORDINATES (ANGSTROEM)
---------------------------------
  S     45.810800   15.618400   83.405600
  C     44.522400   16.881500   83.621600
  C     43.281700   16.333300   83.889500
  C     43.363900   14.890600   83.996400
  C     44.632800   14.345100   83.801900
  H     42.550700   14.144000   84.055700
  C     42.063800   17.179000   83.985300
  H     42.405200   18.212000   84.270800
  H     41.382700   16.793700   84.734600
  C     41.182600   17.157300   82.731100
  H     41.732400   16.849000   81.883000
  H     40.466300   16.368800   82.920000
  C     40.344800   18.404400   82.526400
  H     40.957700   19.250400   82.626900
  H     39.656700   18.400500   81.611500
  H     39.838200   18.479400   83.546200
  S     44.865600   12.004200   82.351700
  C     45.711500   10.688500   83.093600
  C     46.111000   10.986900   84.412900
  C     45.752300   12.302800   84.814500
  C     45.081600   12.988200   83.879000
  H     46.722300   10.319200   85.069000
  C     46.273500   12.799100   86.136300
  H     46.260400   13.887000   85.919700
  H     47.258200   12.494300   86.077100
  C     45.483500   12.455500   87.354100
  H     45.961700   12.949100   88.193700
  H     45.692400   11.395700   87.553300
  C     43.981200   12.824500   87.273600
  H     43.796600   13.862200   87.203000
  H     43.438500   12.591100   88.253700
  H     43.389800   12.288900   86.556000
  H     44.741500   17.946700   83.489900
  H     45.815600    9.711580   82.606500

 Total Charge           Charge          ....    0
 Multiplicity           Mult            ....    1
 Number of Electrons    NEL             ....  134
 Basis Dimension        Dim             ....  322

ORBITAL ENERGIES
----------------

  NO   OCC          E(Eh)            E(eV)
   0   2.0000     -88.964401     -2420.8444
   1   2.0000     -88.963092     -2420.8088
   2   2.0000     -10.329858      -281.0897
   3   2.0000     -10.322550      -280.8909
   4   2.0000     -10.321077      -280.8508
   5   2.0000     -10.320729      -280.8413
   6   2.0000     -10.306703      -280.4596
   7   2.0000     -10.302025      -280.3324
   8   2.0000     -10.296229      -280.1746
   9   2.0000     -10.295365      -280.1511
  10   2.0000     -10.295328      -280.1501
  11   2.0000     -10.287618      -279.9403
  12   2.0000     -10.285328      -279.8780
  13   2.0000     -10.280075      -279.7351
  14   2.0000     -10.278673      -279.6969
  15   2.0000     -10.276505      -279.6379
  16   2.0000      -8.077654      -219.8041
  17   2.0000      -8.077364      -219.7963
  18   2.0000      -6.036277      -164.2554
  19   2.0000      -6.035843      -164.2436
  20   2.0000      -6.032377      -164.1493
  21   2.0000      -6.032033      -164.1400
  22   2.0000      -6.028351      -164.0398
  23   2.0000      -6.028089      -164.0326
  24   2.0000      -1.001034       -27.2395
  25   2.0000      -0.976315       -26.5669
  26   2.0000      -0.918083       -24.9823
  27   2.0000      -0.913648       -24.8616
  28   2.0000      -0.869851       -23.6699
  29   2.0000      -0.848671       -23.0935
  30   2.0000      -0.841484       -22.8979
  31   2.0000      -0.808359       -21.9966
  32   2.0000      -0.787334       -21.4244
  33   2.0000      -0.772033       -21.0081
  34   2.0000      -0.712674       -19.3928
  35   2.0000      -0.701351       -19.0847
  36   2.0000      -0.691088       -18.8055
  37   2.0000      -0.666453       -18.1351
  38   2.0000      -0.642349       -17.4792
  39   2.0000      -0.608036       -16.5455
  40   2.0000      -0.588707       -16.0195
  41   2.0000      -0.579331       -15.7644
  42   2.0000      -0.558900       -15.2084
  43   2.0000      -0.550412       -14.9775
  44   2.0000      -0.546310       -14.8658
  45   2.0000      -0.526001       -14.3132
  46   2.0000      -0.516335       -14.0502
  47   2.0000      -0.514862       -14.0101
  48   2.0000      -0.499013       -13.5788
  49   2.0000      -0.495798       -13.4913
  50   2.0000      -0.494116       -13.4456
  51   2.0000      -0.474863       -12.9217
  52   2.0000      -0.466293       -12.6885
  53   2.0000      -0.461702       -12.5636
  54   2.0000      -0.458901       -12.4873
  55   2.0000      -0.447808       -12.1855
  56   2.0000      -0.439855       -11.9691
  57   2.0000      -0.437103       -11.8942
  58   2.0000      -0.432476       -11.7683
  59   2.0000      -0.429036       -11.6747
  60   2.0000      -0.421768       -11.4769
  61   2.0000      -0.410510       -11.1705
  62   2.0000      -0.405924       -11.0458
  63   2.0000      -0.336016        -9.1435
  64   2.0000      -0.328242        -8.9319
  65   2.0000      -0.319260        -8.6875
  66   2.0000      -0.309695        -8.4272
  67   0.0000       0.039850         1.0844
  68   0.0000       0.050691         1.3794
  69   0.0000       0.106076         2.8865
  70   0.0000       0.112331         3.0567
  71   0.0000       0.124016         3.3746

MULLIKEN ATOMIC CHARGES
-----------------------
   0 S :    0.098531
   1 C :   -0.141519
   2 C :   -0.076271
   3 C :    0.057774
   4 C :   -0.196589
   5 H :    0.023740
   6 C :    0.046889
   7 H :    0.030698
   8 H :    0.027170
   9 C :   -0.047508
  10 H :    0.026502
  11 H :    0.020263
  12 C :   -0.053163
  13 H :    0.013541
  14 H :    0.068053
  15 H :    0.021854
  16 S :    0.100862
  17 C :   -0.095608
  18 C :   -0.051368
  19 C :   -0.034350
  20 C :   -0.207050
  21 H :    0.030412
  22 C :    0.103973
  23 H :    0.018568
  24 H :    0.010531
  25 C :   -0.015831
  26 H :    0.028935
  27 H :    0.019802
  28 C :   -0.054703
  29 H :    0.031253
  30 H :    0.027768
  31 H :    0.040438
  32 H :    0.057186
  33 H :    0.069217
Sum of atomic charges:    0.0000000

LOEWDIN ATOMIC CHARGES
----------------------
   0 S :    0.366032
   1 C :   -0.174354
   2 C :   -0.062487
   3 C :   -0.059482
   4 C :   -0.187401
   5 H :    0.037055
   6 C :   -0.032382
   7 H :    0.033749
   8 H :    0.032629
   9 C :   -0.040158
  10 H :    0.014377
  11 H :    0.023160
  12 C :   -0.069384
  13 H :    0.012473
  14 H :    0.041322
  15 H :    0.033998
  16 S :    0.379828
  17 C :   -0.184025
  18 C :   -0.081066
  19 C :   -0.049430
  20 C :   -0.192000
  21 H :    0.035868
  22 C :   -0.027874
  23 H :    0.030829
  24 H :    0.023613
  25 C :   -0.035690
  26 H :    0.028325
  27 H :    0.024421
  28 C :   -0.064841
  29 H :    0.022107
  30 H :    0.034972
  31 H :    0.023970
  32 H :    0.029543
  33 H :    0.032302

  Mayer bond orders larger than 0.100000
B(  0-S ,  1-C ) :   1.1228 B(  0-S ,  4-C ) :   1.1285 B(  1-C ,  2-C ) :   1.6303
B(  1-C , 32-H ) :   0.9670 B(  2-C ,  3-C ) :   1.1924 B(  2-C ,  6-C ) :   1.0491
B(  3-C ,  4-C ) :   1.6251 B(  3-C ,  5-H ) :   0.9846 B(  4-C , 20-C ) :   1.0314
B(  6-C ,  7-H ) :   0.9474 B(  6-C ,  8-H ) :   0.9329 B(  6-C ,  9-C ) :   1.0356
B(  9-C , 10-H ) :   0.9642 B(  9-C , 11-H ) :   0.9553 B(  9-C , 12-C ) :   1.0764
B( 12-C , 13-H ) :   0.9782 B( 12-C , 14-H ) :   0.9715 B( 12-C , 15-H ) :   0.9676
B( 16-S , 17-C ) :   1.1686 B( 16-S , 20-C ) :   1.1093 B( 17-C , 18-C ) :   1.5976
B( 17-C , 33-H ) :   0.9644 B( 18-C , 19-C ) :   1.2267 B( 18-C , 21-H ) :   0.9812
B( 19-C , 20-C ) :   1.6476 B( 19-C , 22-C ) :   1.0064 B( 22-C , 23-H ) :   0.9233
B( 22-C , 24-H ) :   0.9329 B( 22-C , 25-C ) :   1.0804 B( 25-C , 26-H ) :   0.9513
B( 25-C , 27-H ) :   0.9522 B( 25-C , 28-C ) :   1.0723 B( 28-C , 29-H ) :   0.9750
B( 28-C , 30-H ) :   0.9711 B( 28-C , 31-H ) :   0.9746

Dispersion correction           -0.014982518
FINAL SINGLE POINT ENERGY     -1339.864380476793

DIPOLE MOMENT
-------------
                                X             Y             Z
Electronic contribution:     15.67845      -9.49440     -12.77640
Nuclear contribution   :    -15.93225       9.54118      13.12710
                        -----------------------------------------
Total Dipole Moment    :     -0.25380       0.04679       0.35070
                        -----------------------------------------
Magnitude (a.u.)       :      0.43543
Magnitude (Debye)      :      1.10676

Rotational constants in cm-1:     0.021825     0.007680     0.006951
Rotational constants in MHz :   654.289902   230.225856   208.386036

                             ****ORCA TERMINATED NORMALLY****
TOTAL RUN TIME: 0 days 0 hours 0 minutes 31 seconds 829 msec
