                         Program Version 4.2.1 -  RELEASE  -
|  1> ! wB97X-D3 SP def2-SVP
|  2> %pal
|  3> nprocs 16
|  4> end
|  5>
|  6> * xyz 0 1
|  7> S 	 7.61324 	 -15.5821 	 66.098
|  8> C 	 7.67501 	 -15.3522 	 64.3374
|  9> C 	 8.2251 	 -14.1235 	 63.9856
| 10> C 	 8.79432 	 -13.4387 	 65.1103
| 11> C 	 8.49925 	 -14.0264 	 66.3488
| 12> H 	 9.37806 	 -12.5215 	 65.0892
| 13> C 	 8.26466 	 -13.5009 	 62.5854
| 14> H 	 8.47593 	 -14.3281 	 61.8781
| 15> H 	 9.05747 	 -12.7851 	 62.3214
| 16> C 	 6.83674 	 -12.94 	 62.0312
| 17> H 	 6.74406 	 -11.9391 	 62.254
| 18> H 	 6.81781 	 -13.0262 	 60.9302
| 19> C 	 5.52479 	 -13.5608 	 62.4234
| 20> H 	 4.80544 	 -12.7074 	 62.3348
| 21> H 	 5.3044 	 -14.4274 	 61.8367
| 22> H 	 5.40241 	 -13.8285 	 63.4423
| 23> S 	 9.60548 	 -14.6583 	 68.8785
| 24> C 	 10.2201 	 -13.3743 	 69.9294
| 25> C 	 9.79957 	 -12.1535 	 69.4613
| 26> C 	 9.0768 	 -12.2484 	 68.215
| 27> C 	 8.91879 	 -13.536 	 67.6684
| 28> H 	 10.2107 	 -11.3025 	 70.0285
| 29> C 	 8.46103 	 -10.9659 	 67.5952
| 30> H 	 7.6037 	 -11.3105 	 67.0817
| 31> H 	 9.12448 	 -10.7226 	 66.7741
| 32> C 	 8.19669 	 -9.73477 	 68.415
| 33> H 	 8.31124 	 -8.84973 	 67.7636
| 34> H 	 8.95084 	 -9.67036 	 69.1921
| 35> C 	 6.72851 	 -9.75498 	 69.0625
| 36> H 	 6.64294 	 -8.93056 	 69.7524
| 37> H 	 6.54298 	 -10.6967 	 69.7105
| 38> H 	 5.94532 	 -9.65019 	 68.3527
| 39> H 	 7.2095 	 -15.9435 	 63.5167
| 40> H 	 10.8314 	 -13.5246 	 70.7966
| 41> *
| 42>
| 43>                          ****END OF INPUT****

CARTESIAN COORDINATES (ANGSTROEM)
---------------------------------
  S      7.613240  -15.582100   66.098000
  C      7.675010  -15.352200   64.337400
  C      8.225100  -14.123500   63.985600
  C      8.794320  -13.438700   65.110300
  C      8.499250  -14.026400   66.348800
  H      9.378060  -12.521500   65.089200
  C      8.264660  -13.500900   62.585400
  H      8.475930  -14.328100   61.878100
  H      9.057470  -12.785100   62.321400
  C      6.836740  -12.940000   62.031200
  H      6.744060  -11.939100   62.254000
  H      6.817810  -13.026200   60.930200
  C      5.524790  -13.560800   62.423400
  H      4.805440  -12.707400   62.334800
  H      5.304400  -14.427400   61.836700
  H      5.402410  -13.828500   63.442300
  S      9.605480  -14.658300   68.878500
  C     10.220100  -13.374300   69.929400
  C      9.799570  -12.153500   69.461300
  C      9.076800  -12.248400   68.215000
  C      8.918790  -13.536000   67.668400
  H     10.210700  -11.302500   70.028500
  C      8.461030  -10.965900   67.595200
  H      7.603700  -11.310500   67.081700
  H      9.124480  -10.722600   66.774100
  C      8.196690   -9.734770   68.415000
  H      8.311240   -8.849730   67.763600
  H      8.950840   -9.670360   69.192100
  C      6.728510   -9.754980   69.062500
  H      6.642940   -8.930560   69.752400
  H      6.542980  -10.696700   69.710500
  H      5.945320   -9.650190   68.352700
  H      7.209500  -15.943500   63.516700
  H     10.831400  -13.524600   70.796600

 Total Charge           Charge          ....    0
 Multiplicity           Mult            ....    1
 Number of Electrons    NEL             ....  134
 Basis Dimension        Dim             ....  322

ORBITAL ENERGIES
----------------

  NO   OCC          E(Eh)            E(eV)
   0   2.0000     -88.973316     -2421.0870
   1   2.0000     -88.961449     -2420.7641
   2   2.0000     -10.341597      -281.4092
   3   2.0000     -10.334704      -281.2216
   4   2.0000     -10.322628      -280.8930
   5   2.0000     -10.320301      -280.8297
   6   2.0000     -10.313019      -280.6315
   7   2.0000     -10.307859      -280.4911
   8   2.0000     -10.303563      -280.3742
   9   2.0000     -10.299935      -280.2755
  10   2.0000     -10.297904      -280.2202
  11   2.0000     -10.293148      -280.0908
  12   2.0000     -10.284981      -279.8686
  13   2.0000     -10.283629      -279.8318
  14   2.0000     -10.282923      -279.8126
  15   2.0000     -10.272084      -279.5176
  16   2.0000      -8.086204      -220.0368
  17   2.0000      -8.075563      -219.7472
  18   2.0000      -6.044982      -164.4923
  19   2.0000      -6.041046      -164.3852
  20   2.0000      -6.036695      -164.2668
  21   2.0000      -6.034211      -164.1992
  22   2.0000      -6.030064      -164.0864
  23   2.0000      -6.026280      -163.9834
  24   2.0000      -0.996744       -27.1228
  25   2.0000      -0.976514       -26.5723
  26   2.0000      -0.904170       -24.6037
  27   2.0000      -0.902416       -24.5560
  28   2.0000      -0.869296       -23.6547
  29   2.0000      -0.850273       -23.1371
  30   2.0000      -0.835468       -22.7342
  31   2.0000      -0.815252       -22.1841
  32   2.0000      -0.783046       -21.3078
  33   2.0000      -0.773765       -21.0552
  34   2.0000      -0.710756       -19.3406
  35   2.0000      -0.701483       -19.0883
  36   2.0000      -0.696075       -18.9412
  37   2.0000      -0.649495       -17.6737
  38   2.0000      -0.635483       -17.2924
  39   2.0000      -0.616718       -16.7818
  40   2.0000      -0.596499       -16.2316
  41   2.0000      -0.569667       -15.5014
  42   2.0000      -0.562664       -15.3109
  43   2.0000      -0.549679       -14.9575
  44   2.0000      -0.537386       -14.6230
  45   2.0000      -0.527677       -14.3588
  46   2.0000      -0.520368       -14.1599
  47   2.0000      -0.513804       -13.9813
  48   2.0000      -0.504119       -13.7178
  49   2.0000      -0.493294       -13.4232
  50   2.0000      -0.485409       -13.2086
  51   2.0000      -0.476998       -12.9798
  52   2.0000      -0.468443       -12.7470
  53   2.0000      -0.461751       -12.5649
  54   2.0000      -0.456073       -12.4104
  55   2.0000      -0.450520       -12.2593
  56   2.0000      -0.442673       -12.0457
  57   2.0000      -0.436538       -11.8788
  58   2.0000      -0.430580       -11.7167
  59   2.0000      -0.422688       -11.5019
  60   2.0000      -0.420003       -11.4289
  61   2.0000      -0.415500       -11.3063
  62   2.0000      -0.406524       -11.0621
  63   2.0000      -0.353640        -9.6230
  64   2.0000      -0.331980        -9.0336
  65   2.0000      -0.324948        -8.8423
  66   2.0000      -0.287158        -7.8140
  67   0.0000       0.019373         0.5272
  68   0.0000       0.068198         1.8558
  69   0.0000       0.101227         2.7545
  70   0.0000       0.120027         3.2661
  71   0.0000       0.132665         3.6100

MULLIKEN ATOMIC CHARGES
-----------------------
   0 S :    0.112088
   1 C :   -0.115699
   2 C :   -0.089569
   3 C :    0.023402
   4 C :   -0.145262
   5 H :    0.018145
   6 C :    0.046871
   7 H :    0.026528
   8 H :    0.038333
   9 C :   -0.078351
  10 H :    0.015022
  11 H :    0.030748
  12 C :   -0.049820
  13 H :    0.034695
  14 H :    0.031102
  15 H :    0.032864
  16 S :    0.080788
  17 C :   -0.094865
  18 C :   -0.053576
  19 C :   -0.064460
  20 C :   -0.125349
  21 H :    0.041109
  22 C :    0.073229
  23 H :    0.016929
  24 H :    0.027482
  25 C :   -0.046178
  26 H :    0.033675
  27 H :    0.022570
  28 C :   -0.075066
  29 H :    0.028239
  30 H :    0.052806
  31 H :    0.033870
  32 H :    0.061381
  33 H :    0.056317
Sum of atomic charges:   -0.0000000

LOEWDIN ATOMIC CHARGES
----------------------
   0 S :    0.378222
   1 C :   -0.196681
   2 C :   -0.064242
   3 C :   -0.056356
   4 C :   -0.174393
   5 H :    0.033426
   6 C :   -0.039072
   7 H :    0.033648
   8 H :    0.035231
   9 C :   -0.036682
  10 H :    0.009784
  11 H :    0.030207
  12 C :   -0.066132
  13 H :    0.039402
  14 H :    0.019482
  15 H :    0.019662
  16 S :    0.377006
  17 C :   -0.167169
  18 C :   -0.087955
  19 C :   -0.047041
  20 C :   -0.196538
  21 H :    0.040487
  22 C :   -0.038239
  23 H :    0.026052
  24 H :    0.030772
  25 C :   -0.035662
  26 H :    0.030990
  27 H :    0.020466
  28 C :   -0.066486
  29 H :    0.020835
  30 H :    0.038830
  31 H :    0.018477
  32 H :    0.040123
  33 H :    0.029546

  Mayer bond orders larger than 0.100000
B(  0-S ,  1-C ) :   1.1216 B(  0-S ,  4-C ) :   1.1247 B(  1-C ,  2-C ) :   1.6303
B(  1-C , 32-H ) :   0.9547 B(  2-C ,  3-C ) :   1.2263 B(  2-C ,  6-C ) :   1.0275
B(  3-C ,  4-C ) :   1.5787 B(  3-C ,  5-H ) :   0.9910 B(  4-C , 20-C ) :   1.0697
B(  6-C ,  7-H ) :   0.9411 B(  6-C ,  8-H ) :   0.9548 B(  6-C ,  9-C ) :   1.0332
B(  9-C , 10-H ) :   0.9684 B(  9-C , 11-H ) :   0.9604 B(  9-C , 12-C ) :   1.0919
B( 12-C , 13-H ) :   0.9719 B( 12-C , 14-H ) :   0.9792 B( 12-C , 15-H ) :   0.9653
B( 16-S , 17-C ) :   1.1625 B( 16-S , 20-C ) :   1.1098 B( 17-C , 18-C ) :   1.6187
B( 17-C , 33-H ) :   0.9667 B( 18-C , 19-C ) :   1.2262 B( 18-C , 21-H ) :   0.9841
B( 19-C , 20-C ) :   1.5941 B( 19-C , 22-C ) :   1.0156 B( 22-C , 23-H ) :   0.9395
B( 22-C , 24-H ) :   0.9251 B( 22-C , 25-C ) :   1.0738 B( 25-C , 26-H ) :   0.9527
B( 25-C , 27-H ) :   0.9526 B( 25-C , 28-C ) :   1.0726 B( 28-C , 29-H ) :   0.9778
B( 28-C , 30-H ) :   0.9780 B( 28-C , 31-H ) :   0.9779

Dispersion correction           -0.014085363
FINAL SINGLE POINT ENERGY     -1339.851544822807

DIPOLE MOMENT
-------------
                                X             Y             Z
Electronic contribution:     11.08208     -21.35144      13.00493
Nuclear contribution   :    -11.04222      22.12825     -13.36098
                        -----------------------------------------
Total Dipole Moment    :      0.03986       0.77681      -0.35606
                        -----------------------------------------
Magnitude (a.u.)       :      0.85545
Magnitude (Debye)      :      2.17439

Rotational constants in cm-1:     0.018799     0.008278     0.006427
Rotational constants in MHz :   563.574968   248.156444   192.680276

                             ****ORCA TERMINATED NORMALLY****
TOTAL RUN TIME: 0 days 0 hours 0 minutes 34 seconds 226 msec
