                         Program Version 4.2.1 -  RELEASE  -
|  1> ! wB97X-D3 SP def2-SVP
|  2> %pal
|  3> nprocs 16
|  4> end
|  5>
|  6> * xyz 0 1
|  7> S 	 0.58062 	 -11.4643 	 79.9371
|  8> C 	 -0.0680196 	 -12.4496 	 81.3326
|  9> C 	 0.411413 	 -11.9624 	 82.5321
| 10> C 	 1.3555 	 -10.9351 	 82.3621
| 11> C 	 1.62039 	 -10.6031 	 81.0154
| 12> H 	 1.84133 	 -10.457 	 83.2053
| 13> C 	 0.155058 	 -12.6571 	 83.9154
| 14> H 	 -0.569934 	 -13.4957 	 83.7526
| 15> H 	 -0.362177 	 -11.9717 	 84.5812
| 16> C 	 1.51197 	 -13.2295 	 84.5526
| 17> H 	 1.87326 	 -14.1564 	 84.0741
| 18> H 	 2.31694 	 -12.4933 	 84.3727
| 19> C 	 1.31341 	 -13.4214 	 85.9776
| 20> H 	 2.01932 	 -14.2167 	 86.2158
| 21> H 	 1.52894 	 -12.5068 	 86.4646
| 22> H 	 0.28229 	 -13.6931 	 86.2451
| 23> S 	 1.90641 	 -8.41063 	 79.3926
| 24> C 	 3.13472 	 -7.25624 	 79.6753
| 25> C 	 4.12184 	 -7.90294 	 80.4471
| 26> C 	 3.72821 	 -9.13118 	 81.0677
| 27> C 	 2.4863 	 -9.51328 	 80.6155
| 28> H 	 5.01149 	 -7.33819 	 80.7004
| 29> C 	 4.54826 	 -9.84743 	 82.0745
| 30> H 	 4.60669 	 -10.9004 	 81.8167
| 31> H 	 4.09298 	 -9.71098 	 83.0254
| 32> C 	 6.10708 	 -9.36081 	 82.1813
| 33> H 	 6.10731 	 -8.35266 	 82.6555
| 34> H 	 6.56099 	 -9.31256 	 81.1398
| 35> C 	 7.057 	 -10.2522 	 83.0485
| 36> H 	 6.68458 	 -10.491 	 84.0312
| 37> H 	 7.95843 	 -9.62843 	 83.1173
| 38> H 	 7.32288 	 -11.2129 	 82.684
| 39> H 	 -0.75739 	 -13.2531 	 81.3452
| 40> H 	 3.29204 	 -6.29471 	 79.1665
| 41> *
| 42>
| 43>                          ****END OF INPUT****

CARTESIAN COORDINATES (ANGSTROEM)
---------------------------------
  S      0.580620  -11.464300   79.937100
  C     -0.068020  -12.449600   81.332600
  C      0.411413  -11.962400   82.532100
  C      1.355500  -10.935100   82.362100
  C      1.620390  -10.603100   81.015400
  H      1.841330  -10.457000   83.205300
  C      0.155058  -12.657100   83.915400
  H     -0.569934  -13.495700   83.752600
  H     -0.362177  -11.971700   84.581200
  C      1.511970  -13.229500   84.552600
  H      1.873260  -14.156400   84.074100
  H      2.316940  -12.493300   84.372700
  C      1.313410  -13.421400   85.977600
  H      2.019320  -14.216700   86.215800
  H      1.528940  -12.506800   86.464600
  H      0.282290  -13.693100   86.245100
  S      1.906410   -8.410630   79.392600
  C      3.134720   -7.256240   79.675300
  C      4.121840   -7.902940   80.447100
  C      3.728210   -9.131180   81.067700
  C      2.486300   -9.513280   80.615500
  H      5.011490   -7.338190   80.700400
  C      4.548260   -9.847430   82.074500
  H      4.606690  -10.900400   81.816700
  H      4.092980   -9.710980   83.025400
  C      6.107080   -9.360810   82.181300
  H      6.107310   -8.352660   82.655500
  H      6.560990   -9.312560   81.139800
  C      7.057000  -10.252200   83.048500
  H      6.684580  -10.491000   84.031200
  H      7.958430   -9.628430   83.117300
  H      7.322880  -11.212900   82.684000
  H     -0.757390  -13.253100   81.345200
  H      3.292040   -6.294710   79.166500

 Total Charge           Charge          ....    0
 Multiplicity           Mult            ....    1
 Number of Electrons    NEL             ....  134
 Basis Dimension        Dim             ....  322

ORBITAL ENERGIES
----------------

  NO   OCC          E(Eh)            E(eV)
   0   2.0000     -88.970598     -2421.0131
   1   2.0000     -88.962716     -2420.7986
   2   2.0000     -10.331812      -281.1429
   3   2.0000     -10.322779      -280.8971
   4   2.0000     -10.317887      -280.7640
   5   2.0000     -10.313735      -280.6510
   6   2.0000     -10.304233      -280.3924
   7   2.0000     -10.303704      -280.3780
   8   2.0000     -10.300743      -280.2975
   9   2.0000     -10.299400      -280.2609
  10   2.0000     -10.293685      -280.1054
  11   2.0000     -10.292889      -280.0838
  12   2.0000     -10.291929      -280.0576
  13   2.0000     -10.288485      -279.9639
  14   2.0000     -10.279362      -279.7157
  15   2.0000     -10.271220      -279.4941
  16   2.0000      -8.084104      -219.9797
  17   2.0000      -8.078349      -219.8231
  18   2.0000      -6.042701      -164.4303
  19   2.0000      -6.038880      -164.3263
  20   2.0000      -6.036794      -164.2695
  21   2.0000      -6.034755      -164.2140
  22   2.0000      -6.032662      -164.1571
  23   2.0000      -6.029183      -164.0624
  24   2.0000      -1.008615       -27.4458
  25   2.0000      -0.981269       -26.7017
  26   2.0000      -0.913163       -24.8484
  27   2.0000      -0.901846       -24.5405
  28   2.0000      -0.873805       -23.7774
  29   2.0000      -0.854469       -23.2513
  30   2.0000      -0.841516       -22.8988
  31   2.0000      -0.808672       -22.0051
  32   2.0000      -0.782629       -21.2964
  33   2.0000      -0.772105       -21.0101
  34   2.0000      -0.707833       -19.2611
  35   2.0000      -0.703177       -19.1344
  36   2.0000      -0.693552       -18.8725
  37   2.0000      -0.651503       -17.7283
  38   2.0000      -0.633153       -17.2290
  39   2.0000      -0.620557       -16.8862
  40   2.0000      -0.594880       -16.1875
  41   2.0000      -0.569181       -15.4882
  42   2.0000      -0.567498       -15.4424
  43   2.0000      -0.562468       -15.3055
  44   2.0000      -0.530161       -14.4264
  45   2.0000      -0.528270       -14.3749
  46   2.0000      -0.517527       -14.0826
  47   2.0000      -0.513737       -13.9795
  48   2.0000      -0.507378       -13.8065
  49   2.0000      -0.495053       -13.4711
  50   2.0000      -0.489130       -13.3099
  51   2.0000      -0.483910       -13.1679
  52   2.0000      -0.476986       -12.9795
  53   2.0000      -0.466698       -12.6995
  54   2.0000      -0.458641       -12.4803
  55   2.0000      -0.454837       -12.3767
  56   2.0000      -0.450733       -12.2651
  57   2.0000      -0.438192       -11.9238
  58   2.0000      -0.432387       -11.7658
  59   2.0000      -0.420255       -11.4357
  60   2.0000      -0.419157       -11.4058
  61   2.0000      -0.408992       -11.1293
  62   2.0000      -0.407732       -11.0949
  63   2.0000      -0.348885        -9.4936
  64   2.0000      -0.333960        -9.0875
  65   2.0000      -0.327478        -8.9111
  66   2.0000      -0.283084        -7.7031
  67   0.0000       0.025676         0.6987
  68   0.0000       0.070700         1.9238
  69   0.0000       0.101256         2.7553
  70   0.0000       0.125913         3.4263
  71   0.0000       0.134707         3.6656

MULLIKEN ATOMIC CHARGES
-----------------------
   0 S :    0.107314
   1 C :   -0.107252
   2 C :   -0.064635
   3 C :   -0.003001
   4 C :   -0.130144
   5 H :    0.008365
   6 C :    0.031331
   7 H :    0.028434
   8 H :    0.037971
   9 C :   -0.099950
  10 H :    0.037232
  11 H :    0.028827
  12 C :   -0.011876
  13 H :    0.032655
  14 H :    0.026694
  15 H :    0.032980
  16 S :    0.109421
  17 C :   -0.098480
  18 C :   -0.060821
  19 C :   -0.050086
  20 C :   -0.141316
  21 H :    0.019792
  22 C :    0.084959
  23 H :    0.042235
  24 H :    0.035498
  25 C :   -0.161001
  26 H :    0.045761
  27 H :    0.054473
  28 C :   -0.015707
  29 H :    0.021197
  30 H :    0.037426
  31 H :    0.025418
  32 H :    0.024509
  33 H :    0.071780
Sum of atomic charges:    0.0000000

LOEWDIN ATOMIC CHARGES
----------------------
   0 S :    0.388996
   1 C :   -0.178051
   2 C :   -0.061298
   3 C :   -0.068401
   4 C :   -0.193219
   5 H :    0.027132
   6 C :   -0.025922
   7 H :    0.032008
   8 H :    0.028548
   9 C :   -0.040915
  10 H :    0.026578
  11 H :    0.023818
  12 C :   -0.063720
  13 H :    0.031316
  14 H :    0.022277
  15 H :    0.026189
  16 S :    0.423310
  17 C :   -0.206441
  18 C :   -0.075709
  19 C :   -0.061918
  20 C :   -0.199067
  21 H :    0.026617
  22 C :   -0.030081
  23 H :    0.035819
  24 H :    0.027668
  25 C :   -0.042461
  26 H :    0.025971
  27 H :    0.032964
  28 C :   -0.065468
  29 H :    0.021378
  30 H :    0.033325
  31 H :    0.018975
  32 H :    0.020677
  33 H :    0.039106

  Mayer bond orders larger than 0.100000
B(  0-S ,  1-C ) :   1.1106 B(  0-S ,  4-C ) :   1.1526 B(  1-C ,  2-C ) :   1.6282
B(  1-C ,  4-C ) :   0.1017 B(  1-C , 32-H ) :   0.9674 B(  2-C ,  3-C ) :   1.2661
B(  2-C ,  6-C ) :   1.0138 B(  3-C ,  4-C ) :   1.5340 B(  3-C ,  5-H ) :   0.9883
B(  4-C , 20-C ) :   1.0699 B(  6-C ,  7-H ) :   0.9434 B(  6-C ,  8-H ) :   0.9481
B(  6-C ,  9-C ) :   1.0420 B(  9-C , 10-H ) :   0.9637 B(  9-C , 11-H ) :   0.9616
B(  9-C , 12-C ) :   1.0720 B( 12-C , 13-H ) :   0.9723 B( 12-C , 14-H ) :   0.9756
B( 12-C , 15-H ) :   0.9735 B( 16-S , 17-C ) :   1.1746 B( 16-S , 20-C ) :   1.1456
B( 17-C , 18-C ) :   1.5671 B( 17-C , 20-C ) :   0.1042 B( 17-C , 33-H ) :   0.9644
B( 18-C , 19-C ) :   1.2731 B( 18-C , 21-H ) :   0.9816 B( 19-C , 20-C ) :   1.5755
B( 19-C , 22-C ) :   1.0444 B( 22-C , 23-H ) :   0.9340 B( 22-C , 24-H ) :   0.9213
B( 22-C , 25-C ) :   1.0715 B( 25-C , 26-H ) :   0.9527 B( 25-C , 27-H ) :   0.9579
B( 25-C , 28-C ) :   1.0760 B( 28-C , 29-H ) :   0.9741 B( 28-C , 30-H ) :   0.9741
B( 28-C , 31-H ) :   0.9765

Dispersion correction           -0.013541236
FINAL SINGLE POINT ENERGY     -1339.861475792627

DIPOLE MOMENT
-------------
                                X             Y             Z
Electronic contribution:    -15.94732      10.24331     -26.86954
Nuclear contribution   :     16.37388     -10.35490      27.60553
                        -----------------------------------------
Total Dipole Moment    :      0.42656      -0.11159       0.73599
                        -----------------------------------------
Magnitude (a.u.)       :      0.85795
Magnitude (Debye)      :      2.18074

Rotational constants in cm-1:     0.015322     0.009466     0.006282
Rotational constants in MHz :   459.336702   283.770681   188.344233

                             ****ORCA TERMINATED NORMALLY****
TOTAL RUN TIME: 0 days 0 hours 0 minutes 32 seconds 556 msec
