                         Program Version 4.2.1 -  RELEASE  -
|  1> ! wB97X-D3 SP def2-SVP
|  2> %pal
|  3> nprocs 16
|  4> end
|  5>
|  6> * xyz 0 1
|  7> S 	 40.2133 	 13.5165 	 79.7056
|  8> C 	 40.17 	 11.7529 	 79.3844
|  9> C 	 41.1562 	 11.0487 	 80.0494
| 10> C 	 41.8873 	 11.8906 	 80.9263
| 11> C 	 41.5073 	 13.2 	 80.9628
| 12> H 	 42.6688 	 11.4947 	 81.6433
| 13> C 	 41.2701 	 9.53143 	 79.8252
| 14> H 	 40.2692 	 9.16905 	 79.9668
| 15> H 	 41.9107 	 9.22682 	 80.635
| 16> C 	 41.8605 	 9.02992 	 78.5133
| 17> H 	 42.0536 	 7.96322 	 78.673
| 18> H 	 41.1212 	 9.16131 	 77.6698
| 19> C 	 43.2521 	 9.64092 	 78.2887
| 20> H 	 43.1819 	 10.7686 	 78.1997
| 21> H 	 43.904 	 9.42007 	 79.158
| 22> H 	 43.6398 	 9.31262 	 77.3504
| 23> S 	 42.909 	 15.5235 	 81.0906
| 24> C 	 43.4053 	 16.1895 	 82.5863
| 25> C 	 42.629 	 15.6226 	 83.6002
| 26> C 	 41.8272 	 14.4985 	 83.1783
| 27> C 	 42.0363 	 14.2382 	 81.8143
| 28> H 	 42.6249 	 16.1083 	 84.5871
| 29> C 	 40.9225 	 13.8151 	 84.1597
| 30> H 	 40.3002 	 13.1632 	 83.592
| 31> H 	 40.3243 	 14.7062 	 84.5152
| 32> C 	 41.5714 	 13.0009 	 85.261
| 33> H 	 42.5019 	 12.6284 	 84.9928
| 34> H 	 41.0512 	 12.1063 	 85.3333
| 35> C 	 41.7056 	 13.6939 	 86.6326
| 36> H 	 40.7381 	 13.9438 	 87.0548
| 37> H 	 42.0687 	 14.7242 	 86.4942
| 38> H 	 42.3025 	 13.2555 	 87.4688
| 39> H 	 39.6184 	 11.259 	 78.618
| 40> H 	 43.9907 	 17.125 	 82.7584
| 41> *
| 42>
| 43>                          ****END OF INPUT****

CARTESIAN COORDINATES (ANGSTROEM)
---------------------------------
  S     40.213300   13.516500   79.705600
  C     40.170000   11.752900   79.384400
  C     41.156200   11.048700   80.049400
  C     41.887300   11.890600   80.926300
  C     41.507300   13.200000   80.962800
  H     42.668800   11.494700   81.643300
  C     41.270100    9.531430   79.825200
  H     40.269200    9.169050   79.966800
  H     41.910700    9.226820   80.635000
  C     41.860500    9.029920   78.513300
  H     42.053600    7.963220   78.673000
  H     41.121200    9.161310   77.669800
  C     43.252100    9.640920   78.288700
  H     43.181900   10.768600   78.199700
  H     43.904000    9.420070   79.158000
  H     43.639800    9.312620   77.350400
  S     42.909000   15.523500   81.090600
  C     43.405300   16.189500   82.586300
  C     42.629000   15.622600   83.600200
  C     41.827200   14.498500   83.178300
  C     42.036300   14.238200   81.814300
  H     42.624900   16.108300   84.587100
  C     40.922500   13.815100   84.159700
  H     40.300200   13.163200   83.592000
  H     40.324300   14.706200   84.515200
  C     41.571400   13.000900   85.261000
  H     42.501900   12.628400   84.992800
  H     41.051200   12.106300   85.333300
  C     41.705600   13.693900   86.632600
  H     40.738100   13.943800   87.054800
  H     42.068700   14.724200   86.494200
  H     42.302500   13.255500   87.468800
  H     39.618400   11.259000   78.618000
  H     43.990700   17.125000   82.758400

 Total Charge           Charge          ....    0
 Multiplicity           Mult            ....    1
 Number of Electrons    NEL             ....  134
 Basis Dimension        Dim             ....  322

ORBITAL ENERGIES
----------------

  NO   OCC          E(Eh)            E(eV)
   0   2.0000     -88.966508     -2420.9018
   1   2.0000     -88.962889     -2420.8033
   2   2.0000     -10.331886      -281.1449
   3   2.0000     -10.321971      -280.8751
   4   2.0000     -10.318164      -280.7715
   5   2.0000     -10.312890      -280.6280
   6   2.0000     -10.304423      -280.3976
   7   2.0000     -10.299863      -280.2735
   8   2.0000     -10.298560      -280.2381
   9   2.0000     -10.293935      -280.1122
  10   2.0000     -10.292668      -280.0777
  11   2.0000     -10.291245      -280.0390
  12   2.0000     -10.290735      -280.0251
  13   2.0000     -10.280975      -279.7596
  14   2.0000     -10.280147      -279.7370
  15   2.0000     -10.276422      -279.6357
  16   2.0000      -8.079347      -219.8502
  17   2.0000      -8.078958      -219.8396
  18   2.0000      -6.037971      -164.3016
  19   2.0000      -6.037368      -164.2851
  20   2.0000      -6.034323      -164.2023
  21   2.0000      -6.033234      -164.1726
  22   2.0000      -6.029882      -164.0814
  23   2.0000      -6.029780      -164.0787
  24   2.0000      -1.006832       -27.3973
  25   2.0000      -0.979636       -26.6572
  26   2.0000      -0.914220       -24.8772
  27   2.0000      -0.912266       -24.8240
  28   2.0000      -0.867863       -23.6157
  29   2.0000      -0.848961       -23.1014
  30   2.0000      -0.840989       -22.8845
  31   2.0000      -0.814551       -22.1651
  32   2.0000      -0.783778       -21.3277
  33   2.0000      -0.770909       -20.9775
  34   2.0000      -0.717302       -19.5188
  35   2.0000      -0.700455       -19.0603
  36   2.0000      -0.696471       -18.9519
  37   2.0000      -0.656709       -17.8700
  38   2.0000      -0.632915       -17.2225
  39   2.0000      -0.612981       -16.6801
  40   2.0000      -0.592066       -16.1109
  41   2.0000      -0.574236       -15.6257
  42   2.0000      -0.556426       -15.1411
  43   2.0000      -0.550650       -14.9840
  44   2.0000      -0.539401       -14.6778
  45   2.0000      -0.532611       -14.4931
  46   2.0000      -0.519780       -14.1439
  47   2.0000      -0.508259       -13.8304
  48   2.0000      -0.506917       -13.7939
  49   2.0000      -0.501305       -13.6412
  50   2.0000      -0.489058       -13.3079
  51   2.0000      -0.470757       -12.8099
  52   2.0000      -0.467794       -12.7293
  53   2.0000      -0.464638       -12.6434
  54   2.0000      -0.454922       -12.3791
  55   2.0000      -0.447355       -12.1731
  56   2.0000      -0.441874       -12.0240
  57   2.0000      -0.437891       -11.9156
  58   2.0000      -0.436086       -11.8665
  59   2.0000      -0.433305       -11.7908
  60   2.0000      -0.422228       -11.4894
  61   2.0000      -0.411778       -11.2050
  62   2.0000      -0.409920       -11.1545
  63   2.0000      -0.339200        -9.2301
  64   2.0000      -0.329023        -8.9532
  65   2.0000      -0.322972        -8.7885
  66   2.0000      -0.300073        -8.1654
  67   0.0000       0.036584         0.9955
  68   0.0000       0.052419         1.4264
  69   0.0000       0.109115         2.9692
  70   0.0000       0.109500         2.9796
  71   0.0000       0.130917         3.5624

MULLIKEN ATOMIC CHARGES
-----------------------
   0 S :    0.098427
   1 C :   -0.101074
   2 C :   -0.129081
   3 C :    0.028875
   4 C :   -0.163433
   5 H :    0.033261
   6 C :    0.087482
   7 H :    0.035766
   8 H :    0.006402
   9 C :   -0.074368
  10 H :    0.037296
  11 H :    0.040105
  12 C :   -0.068817
  13 H :    0.052741
  14 H :    0.037255
  15 H :    0.031904
  16 S :    0.121147
  17 C :   -0.101147
  18 C :   -0.073651
  19 C :   -0.030468
  20 C :   -0.194637
  21 H :    0.031035
  22 C :    0.059131
  23 H :    0.017574
  24 H :    0.051371
  25 C :    0.036910
  26 H :    0.004854
  27 H :    0.006141
  28 C :   -0.067525
  29 H :    0.017537
  30 H :    0.011357
  31 H :    0.048489
  32 H :    0.033894
  33 H :    0.075250
Sum of atomic charges:    0.0000000

LOEWDIN ATOMIC CHARGES
----------------------
   0 S :    0.349918
   1 C :   -0.174728
   2 C :   -0.069220
   3 C :   -0.063905
   4 C :   -0.174383
   5 H :    0.042931
   6 C :   -0.028483
   7 H :    0.032196
   8 H :    0.025249
   9 C :   -0.043593
  10 H :    0.028886
  11 H :    0.027154
  12 C :   -0.067318
  13 H :    0.034020
  14 H :    0.029026
  15 H :    0.020833
  16 S :    0.440500
  17 C :   -0.209090
  18 C :   -0.081121
  19 C :   -0.048494
  20 C :   -0.225428
  21 H :    0.031360
  22 C :   -0.026903
  23 H :    0.029580
  24 H :    0.047277
  25 C :   -0.032060
  26 H :    0.019580
  27 H :    0.019810
  28 C :   -0.073043
  29 H :    0.021554
  30 H :    0.021949
  31 H :    0.032827
  32 H :    0.020668
  33 H :    0.042451

  Mayer bond orders larger than 0.100000
B(  0-S ,  1-C ) :   1.1242 B(  0-S ,  4-C ) :   1.1055 B(  1-C ,  2-C ) :   1.6416
B(  1-C ,  4-C ) :   0.1003 B(  1-C , 32-H ) :   0.9666 B(  2-C ,  3-C ) :   1.2303
B(  2-C ,  6-C ) :   0.9953 B(  3-C ,  4-C ) :   1.6282 B(  3-C ,  5-H ) :   0.9788
B(  4-C , 20-C ) :   1.0446 B(  6-C ,  7-H ) :   0.9430 B(  6-C ,  8-H ) :   0.9353
B(  6-C ,  9-C ) :   1.0810 B(  9-C , 10-H ) :   0.9534 B(  9-C , 11-H ) :   0.9541
B(  9-C , 12-C ) :   1.0720 B( 12-C , 13-H ) :   0.9720 B( 12-C , 14-H ) :   0.9744
B( 12-C , 15-H ) :   0.9743 B( 16-S , 17-C ) :   1.1741 B( 16-S , 20-C ) :   1.1626
B( 17-C , 18-C ) :   1.5870 B( 17-C , 20-C ) :   0.1015 B( 17-C , 33-H ) :   0.9616
B( 18-C , 19-C ) :   1.2529 B( 18-C , 21-H ) :   0.9828 B( 19-C , 20-C ) :   1.5501
B( 19-C , 22-C ) :   1.0510 B( 22-C , 23-H ) :   0.9237 B( 22-C , 24-H ) :   0.9420
B( 22-C , 25-C ) :   1.0524 B( 25-C , 26-H ) :   0.9530 B( 25-C , 27-H ) :   0.9533
B( 25-C , 28-C ) :   1.0638 B( 28-C , 29-H ) :   0.9739 B( 28-C , 30-H ) :   0.9742
B( 28-C , 31-H ) :   0.9752

Dispersion correction           -0.014426486
FINAL SINGLE POINT ENERGY     -1339.864769312504

DIPOLE MOMENT
-------------
                                X             Y             Z
Electronic contribution:     -2.65251      18.35095     -11.26378
Nuclear contribution   :      2.67023     -18.79704      11.62928
                        -----------------------------------------
Total Dipole Moment    :      0.01772      -0.44609       0.36549
                        -----------------------------------------
Magnitude (a.u.)       :      0.57697
Magnitude (Debye)      :      1.46655

Rotational constants in cm-1:     0.020217     0.007714     0.006649
Rotational constants in MHz :   606.090765   231.261720   199.329216

                             ****ORCA TERMINATED NORMALLY****
TOTAL RUN TIME: 0 days 0 hours 0 minutes 29 seconds 592 msec
