                         Program Version 4.2.1 -  RELEASE  -
|  1> ! wB97X-D3 SP def2-SVP
|  2> %pal
|  3> nprocs 16
|  4> end
|  5>
|  6> * xyz 0 1
|  7> S 	 -26.2354 	 -7.16239 	 90.918
|  8> C 	 -27.3328 	 -8.37486 	 90.2798
|  9> C 	 -27.2331 	 -8.55162 	 88.8878
| 10> C 	 -26.0815 	 -7.82039 	 88.3385
| 11> C 	 -25.3491 	 -7.13928 	 89.336
| 12> H 	 -25.8047 	 -7.87976 	 87.3441
| 13> C 	 -28.1272 	 -9.44523 	 88.0385
| 14> H 	 -27.9328 	 -9.1329 	 86.9859
| 15> H 	 -29.1386 	 -9.11564 	 88.2634
| 16> C 	 -27.9428 	 -10.9983 	 88.3114
| 17> H 	 -28.3122 	 -11.3567 	 89.2921
| 18> H 	 -28.6265 	 -11.4775 	 87.5791
| 19> C 	 -26.5074 	 -11.6133 	 88.059
| 20> H 	 -26.3932 	 -12.6616 	 88.2015
| 21> H 	 -26.1611 	 -11.3871 	 87.0502
| 22> H 	 -25.8537 	 -11.03 	 88.7656
| 23> S 	 -22.9863 	 -6.24685 	 90.4559
| 24> C 	 -21.9728 	 -5.19421 	 89.5924
| 25> C 	 -22.6071 	 -4.71362 	 88.452
| 26> C 	 -23.8424 	 -5.43715 	 88.1904
| 27> C 	 -24.2587 	 -6.20845 	 89.2501
| 28> H 	 -22.1059 	 -4.01345 	 87.8738
| 29> C 	 -24.552 	 -5.18274 	 86.88
| 30> H 	 -24.4125 	 -4.13825 	 86.6464
| 31> H 	 -25.6375 	 -5.38497 	 87.0425
| 32> C 	 -23.9386 	 -5.98548 	 85.6784
| 33> H 	 -24.0762 	 -6.95761 	 86.0768
| 34> H 	 -22.8228 	 -5.72301 	 85.5812
| 35> C 	 -24.5933 	 -5.7679 	 84.3328
| 36> H 	 -24.1375 	 -6.31895 	 83.5063
| 37> H 	 -24.589 	 -4.71512 	 84.0166
| 38> H 	 -25.6809 	 -6.03817 	 84.3438
| 39> H 	 -28.067 	 -8.96071 	 90.8377
| 40> H 	 -21.0691 	 -4.60639 	 89.9381
| 41> *
| 42>
| 43>                          ****END OF INPUT****

CARTESIAN COORDINATES (ANGSTROEM)
---------------------------------
  S    -26.235400   -7.162390   90.918000
  C    -27.332800   -8.374860   90.279800
  C    -27.233100   -8.551620   88.887800
  C    -26.081500   -7.820390   88.338500
  C    -25.349100   -7.139280   89.336000
  H    -25.804700   -7.879760   87.344100
  C    -28.127200   -9.445230   88.038500
  H    -27.932800   -9.132900   86.985900
  H    -29.138600   -9.115640   88.263400
  C    -27.942800  -10.998300   88.311400
  H    -28.312200  -11.356700   89.292100
  H    -28.626500  -11.477500   87.579100
  C    -26.507400  -11.613300   88.059000
  H    -26.393200  -12.661600   88.201500
  H    -26.161100  -11.387100   87.050200
  H    -25.853700  -11.030000   88.765600
  S    -22.986300   -6.246850   90.455900
  C    -21.972800   -5.194210   89.592400
  C    -22.607100   -4.713620   88.452000
  C    -23.842400   -5.437150   88.190400
  C    -24.258700   -6.208450   89.250100
  H    -22.105900   -4.013450   87.873800
  C    -24.552000   -5.182740   86.880000
  H    -24.412500   -4.138250   86.646400
  H    -25.637500   -5.384970   87.042500
  C    -23.938600   -5.985480   85.678400
  H    -24.076200   -6.957610   86.076800
  H    -22.822800   -5.723010   85.581200
  C    -24.593300   -5.767900   84.332800
  H    -24.137500   -6.318950   83.506300
  H    -24.589000   -4.715120   84.016600
  H    -25.680900   -6.038170   84.343800
  H    -28.067000   -8.960710   90.837700
  H    -21.069100   -4.606390   89.938100

 Total Charge           Charge          ....    0
 Multiplicity           Mult            ....    1
 Number of Electrons    NEL             ....  134
 Basis Dimension        Dim             ....  322

ORBITAL ENERGIES
----------------

  NO   OCC          E(Eh)            E(eV)
   0   2.0000     -88.968192     -2420.9476
   1   2.0000     -88.964959     -2420.8596
   2   2.0000     -10.337872      -281.3078
   3   2.0000     -10.324504      -280.9440
   4   2.0000     -10.319317      -280.8029
   5   2.0000     -10.316635      -280.7299
   6   2.0000     -10.306558      -280.4557
   7   2.0000     -10.304785      -280.4075
   8   2.0000     -10.304093      -280.3886
   9   2.0000     -10.301299      -280.3126
  10   2.0000     -10.300107      -280.2802
  11   2.0000     -10.293021      -280.0873
  12   2.0000     -10.292675      -280.0779
  13   2.0000     -10.290849      -280.0282
  14   2.0000     -10.284157      -279.8461
  15   2.0000     -10.280374      -279.7432
  16   2.0000      -8.081764      -219.9160
  17   2.0000      -8.080589      -219.8840
  18   2.0000      -6.040396      -164.3675
  19   2.0000      -6.039218      -164.3355
  20   2.0000      -6.036583      -164.2638
  21   2.0000      -6.034764      -164.2143
  22   2.0000      -6.032312      -164.1475
  23   2.0000      -6.031357      -164.1216
  24   2.0000      -1.007370       -27.4119
  25   2.0000      -0.976121       -26.5616
  26   2.0000      -0.909347       -24.7446
  27   2.0000      -0.901812       -24.5396
  28   2.0000      -0.867408       -23.6034
  29   2.0000      -0.852221       -23.1901
  30   2.0000      -0.841581       -22.9006
  31   2.0000      -0.813473       -22.1357
  32   2.0000      -0.783743       -21.3267
  33   2.0000      -0.769995       -20.9526
  34   2.0000      -0.706320       -19.2200
  35   2.0000      -0.703137       -19.1333
  36   2.0000      -0.692170       -18.8349
  37   2.0000      -0.665196       -18.1009
  38   2.0000      -0.635271       -17.2866
  39   2.0000      -0.617416       -16.8008
  40   2.0000      -0.586735       -15.9659
  41   2.0000      -0.570358       -15.5202
  42   2.0000      -0.565892       -15.3987
  43   2.0000      -0.549049       -14.9404
  44   2.0000      -0.538834       -14.6624
  45   2.0000      -0.522330       -14.2133
  46   2.0000      -0.515595       -14.0301
  47   2.0000      -0.512155       -13.9364
  48   2.0000      -0.510672       -13.8961
  49   2.0000      -0.496973       -13.5233
  50   2.0000      -0.487820       -13.2743
  51   2.0000      -0.476446       -12.9648
  52   2.0000      -0.468046       -12.7362
  53   2.0000      -0.467285       -12.7155
  54   2.0000      -0.460746       -12.5375
  55   2.0000      -0.449119       -12.2212
  56   2.0000      -0.444886       -12.1060
  57   2.0000      -0.439107       -11.9487
  58   2.0000      -0.429371       -11.6838
  59   2.0000      -0.425084       -11.5671
  60   2.0000      -0.420258       -11.4358
  61   2.0000      -0.417980       -11.3738
  62   2.0000      -0.409560       -11.1447
  63   2.0000      -0.352188        -9.5835
  64   2.0000      -0.330376        -8.9900
  65   2.0000      -0.327121        -8.9014
  66   2.0000      -0.287956        -7.8357
  67   0.0000       0.020906         0.5689
  68   0.0000       0.072088         1.9616
  69   0.0000       0.096626         2.6293
  70   0.0000       0.118334         3.2200
  71   0.0000       0.127932         3.4812

MULLIKEN ATOMIC CHARGES
-----------------------
   0 S :    0.097001
   1 C :   -0.100191
   2 C :   -0.141132
   3 C :    0.045058
   4 C :   -0.122108
   5 H :   -0.022557
   6 C :    0.072664
   7 H :    0.030076
   8 H :    0.039005
   9 C :   -0.093043
  10 H :    0.037365
  11 H :    0.032864
  12 C :   -0.062142
  13 H :    0.040679
  14 H :    0.025681
  15 H :    0.051861
  16 S :    0.112949
  17 C :   -0.097493
  18 C :   -0.024692
  19 C :   -0.074232
  20 C :   -0.107086
  21 H :   -0.003995
  22 C :    0.030588
  23 H :    0.017932
  24 H :    0.040115
  25 C :   -0.080593
  26 H :    0.022070
  27 H :    0.044309
  28 C :   -0.036742
  29 H :    0.041394
  30 H :    0.028377
  31 H :    0.028605
  32 H :    0.046719
  33 H :    0.080695
Sum of atomic charges:   -0.0000000

LOEWDIN ATOMIC CHARGES
----------------------
   0 S :    0.381137
   1 C :   -0.200750
   2 C :   -0.062147
   3 C :   -0.053873
   4 C :   -0.162539
   5 H :    0.015019
   6 C :   -0.032393
   7 H :    0.034956
   8 H :    0.035887
   9 C :   -0.041065
  10 H :    0.025154
  11 H :    0.024043
  12 C :   -0.068103
  13 H :    0.023094
  14 H :    0.022157
  15 H :    0.034505
  16 S :    0.425695
  17 C :   -0.210438
  18 C :   -0.065972
  19 C :   -0.048259
  20 C :   -0.216039
  21 H :    0.018341
  22 C :   -0.033622
  23 H :    0.025069
  24 H :    0.032968
  25 C :   -0.041581
  26 H :    0.015170
  27 H :    0.035044
  28 C :   -0.073196
  29 H :    0.029099
  30 H :    0.026483
  31 H :    0.028364
  32 H :    0.028840
  33 H :    0.048953

  Mayer bond orders larger than 0.100000
B(  0-S ,  1-C ) :   1.1304 B(  0-S ,  4-C ) :   1.1351 B(  1-C ,  2-C ) :   1.6253
B(  1-C , 32-H ) :   0.9644 B(  2-C ,  3-C ) :   1.2260 B(  2-C ,  6-C ) :   1.0135
B(  3-C ,  4-C ) :   1.5665 B(  3-C ,  5-H ) :   1.0007 B(  4-C , 20-C ) :   1.0514
B(  6-C ,  7-H ) :   0.9464 B(  6-C ,  8-H ) :   0.9392 B(  6-C ,  9-C ) :   1.0572
B(  9-C , 10-H ) :   0.9613 B(  9-C , 11-H ) :   0.9587 B(  9-C , 12-C ) :   1.0613
B( 12-C , 13-H ) :   0.9777 B( 12-C , 14-H ) :   0.9776 B( 12-C , 15-H ) :   0.9756
B( 16-S , 17-C ) :   1.1753 B( 16-S , 20-C ) :   1.1161 B( 17-C , 18-C ) :   1.6115
B( 17-C , 33-H ) :   0.9513 B( 18-C , 19-C ) :   1.2286 B( 18-C , 21-H ) :   0.9979
B( 19-C , 20-C ) :   1.5993 B( 19-C , 22-C ) :   1.0548 B( 22-C , 23-H ) :   0.9320
B( 22-C , 24-H ) :   0.9373 B( 22-C , 25-C ) :   1.0464 B( 25-C , 26-H ) :   0.9568
B( 25-C , 27-H ) :   0.9529 B( 25-C , 28-C ) :   1.0882 B( 28-C , 29-H ) :   0.9735
B( 28-C , 30-H ) :   0.9713 B( 28-C , 31-H ) :   0.9706

Dispersion correction           -0.014566354
FINAL SINGLE POINT ENERGY     -1339.870594689262

DIPOLE MOMENT
-------------
                                X             Y             Z
Electronic contribution:      7.47656      10.66233      25.10582
Nuclear contribution   :     -7.61632     -10.67960     -25.80360
                        -----------------------------------------
Total Dipole Moment    :     -0.13976      -0.01727      -0.69778
                        -----------------------------------------
Magnitude (a.u.)       :      0.71185
Magnitude (Debye)      :      1.80938

Rotational constants in cm-1:     0.017158     0.009187     0.006840
Rotational constants in MHz :   514.382234   275.427116   205.065475

                             ****ORCA TERMINATED NORMALLY****
TOTAL RUN TIME: 0 days 0 hours 0 minutes 33 seconds 210 msec
