                         Program Version 4.2.1 -  RELEASE  -
|  1> ! wB97X-D3 SP def2-SVP
|  2> %pal
|  3> nprocs 16
|  4> end
|  5>
|  6> * xyz 0 1
|  7> S 	 44.9125 	 21.1147 	 89.0372
|  8> C 	 46.4418 	 21.7471 	 89.6462
|  9> C 	 47.3557 	 20.7761 	 90.0046
| 10> C 	 46.7924 	 19.4557 	 89.8605
| 11> C 	 45.5803 	 19.484 	 89.2369
| 12> H 	 47.2603 	 18.487 	 90.1142
| 13> C 	 48.8266 	 21.0017 	 90.3716
| 14> H 	 49.1308 	 20.1578 	 91.0368
| 15> H 	 48.7619 	 21.8326 	 91.0579
| 16> C 	 49.7992 	 21.1033 	 89.1547
| 17> H 	 49.585 	 20.2493 	 88.5574
| 18> H 	 49.4386 	 21.9102 	 88.4783
| 19> C 	 51.3133 	 21.3901 	 89.6606
| 20> H 	 51.9817 	 21.4224 	 88.7596
| 21> H 	 51.2299 	 22.2656 	 90.3234
| 22> H 	 51.6362 	 20.4902 	 90.2209
| 23> S 	 43.1235 	 18.1871 	 90.0411
| 24> C 	 42.8341 	 16.5851 	 89.4038
| 25> C 	 43.915 	 16.1317 	 88.6199
| 26> C 	 44.9351 	 17.1023 	 88.4315
| 27> C 	 44.7068 	 18.3075 	 89.1171
| 28> H 	 43.7627 	 15.2175 	 88.0672
| 29> C 	 46.0572 	 16.7921 	 87.4659
| 30> H 	 46.6795 	 17.6942 	 87.2353
| 31> H 	 45.6988 	 16.7514 	 86.4047
| 32> C 	 47.009 	 15.6349 	 87.8006
| 33> H 	 47.7812 	 15.6875 	 87.0794
| 34> H 	 46.3566 	 14.737 	 87.6884
| 35> C 	 47.5305 	 15.5891 	 89.2333
| 36> H 	 46.7083 	 15.4928 	 89.9448
| 37> H 	 48.1716 	 16.417 	 89.6185
| 38> H 	 48.1793 	 14.7196 	 89.3193
| 39> H 	 46.538 	 22.733 	 89.8463
| 40> H 	 41.9213 	 16.0417 	 89.5096
| 41> *
| 42>
| 43>                          ****END OF INPUT****

CARTESIAN COORDINATES (ANGSTROEM)
---------------------------------
  S     44.912500   21.114700   89.037200
  C     46.441800   21.747100   89.646200
  C     47.355700   20.776100   90.004600
  C     46.792400   19.455700   89.860500
  C     45.580300   19.484000   89.236900
  H     47.260300   18.487000   90.114200
  C     48.826600   21.001700   90.371600
  H     49.130800   20.157800   91.036800
  H     48.761900   21.832600   91.057900
  C     49.799200   21.103300   89.154700
  H     49.585000   20.249300   88.557400
  H     49.438600   21.910200   88.478300
  C     51.313300   21.390100   89.660600
  H     51.981700   21.422400   88.759600
  H     51.229900   22.265600   90.323400
  H     51.636200   20.490200   90.220900
  S     43.123500   18.187100   90.041100
  C     42.834100   16.585100   89.403800
  C     43.915000   16.131700   88.619900
  C     44.935100   17.102300   88.431500
  C     44.706800   18.307500   89.117100
  H     43.762700   15.217500   88.067200
  C     46.057200   16.792100   87.465900
  H     46.679500   17.694200   87.235300
  H     45.698800   16.751400   86.404700
  C     47.009000   15.634900   87.800600
  H     47.781200   15.687500   87.079400
  H     46.356600   14.737000   87.688400
  C     47.530500   15.589100   89.233300
  H     46.708300   15.492800   89.944800
  H     48.171600   16.417000   89.618500
  H     48.179300   14.719600   89.319300
  H     46.538000   22.733000   89.846300
  H     41.921300   16.041700   89.509600

 Total Charge           Charge          ....    0
 Multiplicity           Mult            ....    1
 Number of Electrons    NEL             ....  134
 Basis Dimension        Dim             ....  322

ORBITAL ENERGIES
----------------

  NO   OCC          E(Eh)            E(eV)
   0   2.0000     -88.967099     -2420.9178
   1   2.0000     -88.966306     -2420.8963
   2   2.0000     -10.332401      -281.1589
   3   2.0000     -10.327400      -281.0229
   4   2.0000     -10.318855      -280.7903
   5   2.0000     -10.308844      -280.5179
   6   2.0000     -10.305483      -280.4264
   7   2.0000     -10.303111      -280.3619
   8   2.0000     -10.296291      -280.1763
   9   2.0000     -10.295933      -280.1666
  10   2.0000     -10.295891      -280.1654
  11   2.0000     -10.294844      -280.1369
  12   2.0000     -10.293137      -280.0905
  13   2.0000     -10.291974      -280.0588
  14   2.0000     -10.288492      -279.9641
  15   2.0000     -10.279564      -279.7211
  16   2.0000      -8.081429      -219.9069
  17   2.0000      -8.079573      -219.8564
  18   2.0000      -6.039899      -164.3540
  19   2.0000      -6.038128      -164.3058
  20   2.0000      -6.036186      -164.2530
  21   2.0000      -6.034277      -164.2010
  22   2.0000      -6.032074      -164.1411
  23   2.0000      -6.030382      -164.0950
  24   2.0000      -0.998560       -27.1722
  25   2.0000      -0.975140       -26.5349
  26   2.0000      -0.906821       -24.6759
  27   2.0000      -0.901971       -24.5439
  28   2.0000      -0.863300       -23.4916
  29   2.0000      -0.846904       -23.0454
  30   2.0000      -0.843135       -22.9429
  31   2.0000      -0.808725       -22.0065
  32   2.0000      -0.783093       -21.3090
  33   2.0000      -0.770611       -20.9694
  34   2.0000      -0.708477       -19.2786
  35   2.0000      -0.705050       -19.1854
  36   2.0000      -0.691834       -18.8258
  37   2.0000      -0.652700       -17.7609
  38   2.0000      -0.647783       -17.6271
  39   2.0000      -0.614640       -16.7252
  40   2.0000      -0.598310       -16.2808
  41   2.0000      -0.561270       -15.2729
  42   2.0000      -0.553680       -15.0664
  43   2.0000      -0.549387       -14.9496
  44   2.0000      -0.539682       -14.6855
  45   2.0000      -0.525240       -14.2925
  46   2.0000      -0.519265       -14.1299
  47   2.0000      -0.508269       -13.8307
  48   2.0000      -0.499956       -13.6045
  49   2.0000      -0.491231       -13.3671
  50   2.0000      -0.489299       -13.3145
  51   2.0000      -0.475104       -12.9282
  52   2.0000      -0.465682       -12.6719
  53   2.0000      -0.461898       -12.5689
  54   2.0000      -0.460777       -12.5384
  55   2.0000      -0.448885       -12.2148
  56   2.0000      -0.444422       -12.0933
  57   2.0000      -0.443487       -12.0679
  58   2.0000      -0.433365       -11.7925
  59   2.0000      -0.423112       -11.5135
  60   2.0000      -0.419638       -11.4189
  61   2.0000      -0.418250       -11.3812
  62   2.0000      -0.400164       -10.8890
  63   2.0000      -0.341911        -9.3039
  64   2.0000      -0.331859        -9.0304
  65   2.0000      -0.326002        -8.8710
  66   2.0000      -0.294764        -8.0209
  67   0.0000       0.027717         0.7542
  68   0.0000       0.063555         1.7294
  69   0.0000       0.106284         2.8921
  70   0.0000       0.122351         3.3293
  71   0.0000       0.124380         3.3846

MULLIKEN ATOMIC CHARGES
-----------------------
   0 S :    0.101619
   1 C :   -0.081380
   2 C :   -0.098513
   3 C :    0.040816
   4 C :   -0.166658
   5 H :    0.015828
   6 C :    0.045377
   7 H :    0.023101
   8 H :    0.020248
   9 C :   -0.056939
  10 H :    0.020371
  11 H :    0.031196
  12 C :   -0.061829
  13 H :    0.055609
  14 H :    0.053590
  15 H :    0.039699
  16 S :    0.100906
  17 C :   -0.099212
  18 C :   -0.035246
  19 C :   -0.015472
  20 C :   -0.148742
  21 H :    0.024265
  22 C :    0.010818
  23 H :    0.014643
  24 H :    0.038763
  25 C :   -0.040084
  26 H :    0.026679
  27 H :    0.033731
  28 C :   -0.070859
  29 H :    0.046318
  30 H :    0.037171
  31 H :    0.031277
  32 H :    0.007440
  33 H :    0.055470
Sum of atomic charges:    0.0000000

LOEWDIN ATOMIC CHARGES
----------------------
   0 S :    0.388367
   1 C :   -0.169920
   2 C :   -0.059161
   3 C :   -0.051670
   4 C :   -0.188905
   5 H :    0.037936
   6 C :   -0.036984
   7 H :    0.031171
   8 H :    0.025207
   9 C :   -0.039119
  10 H :    0.019268
  11 H :    0.026599
  12 C :   -0.066669
  13 H :    0.034872
  14 H :    0.032396
  15 H :    0.027784
  16 S :    0.372928
  17 C :   -0.178444
  18 C :   -0.076008
  19 C :   -0.057277
  20 C :   -0.177253
  21 H :    0.031026
  22 C :   -0.050393
  23 H :    0.030115
  24 H :    0.039652
  25 C :   -0.034535
  26 H :    0.021577
  27 H :    0.029116
  28 C :   -0.072029
  29 H :    0.029524
  30 H :    0.023763
  31 H :    0.028257
  32 H :    0.002992
  33 H :    0.025816

  Mayer bond orders larger than 0.100000
B(  0-S ,  1-C ) :   1.1339 B(  0-S ,  4-C ) :   1.1312 B(  1-C ,  2-C ) :   1.6280
B(  1-C , 32-H ) :   0.9813 B(  2-C ,  3-C ) :   1.2173 B(  2-C ,  6-C ) :   1.0190
B(  3-C ,  4-C ) :   1.6075 B(  3-C ,  5-H ) :   0.9825 B(  4-C , 20-C ) :   1.0372
B(  6-C ,  7-H ) :   0.9431 B(  6-C ,  8-H ) :   0.9391 B(  6-C ,  9-C ) :   1.0447
B(  9-C , 10-H ) :   0.9576 B(  9-C , 11-H ) :   0.9593 B(  9-C , 12-C ) :   1.0511
B( 12-C , 13-H ) :   0.9762 B( 12-C , 14-H ) :   0.9765 B( 12-C , 15-H ) :   0.9790
B( 16-S , 17-C ) :   1.1616 B( 16-S , 20-C ) :   1.1172 B( 17-C , 18-C ) :   1.6063
B( 17-C , 20-C ) :   0.1015 B( 17-C , 33-H ) :   0.9679 B( 18-C , 19-C ) :   1.2361
B( 18-C , 21-H ) :   0.9876 B( 19-C , 20-C ) :   1.5994 B( 19-C , 22-C ) :   1.0450
B( 22-C , 23-H ) :   0.9292 B( 22-C , 24-H ) :   0.9395 B( 22-C , 25-C ) :   1.0659
B( 25-C , 26-H ) :   0.9549 B( 25-C , 27-H ) :   0.9534 B( 25-C , 28-C ) :   1.0857
B( 28-C , 29-H ) :   0.9678 B( 28-C , 30-H ) :   0.9685 B( 28-C , 31-H ) :   0.9693

Dispersion correction           -0.014850924
FINAL SINGLE POINT ENERGY     -1339.866804666276

DIPOLE MOMENT
-------------
                                X             Y             Z
Electronic contribution:    -29.29134       7.06796       2.74352
Nuclear contribution   :     29.88159      -7.32512      -2.87622
                        -----------------------------------------
Total Dipole Moment    :      0.59025      -0.25716      -0.13270
                        -----------------------------------------
Magnitude (a.u.)       :      0.65737
Magnitude (Debye)      :      1.67091

Rotational constants in cm-1:     0.019108     0.008744     0.006530
Rotational constants in MHz :   572.857229   262.135339   195.758417

                             ****ORCA TERMINATED NORMALLY****
TOTAL RUN TIME: 0 days 0 hours 0 minutes 28 seconds 563 msec
