                         Program Version 4.2.1 -  RELEASE  -
|  1> ! wB97X-D3 SP def2-SVP
|  2> %pal
|  3> nprocs 16
|  4> end
|  5>
|  6> * xyz 0 1
|  7> S 	 -35.8127 	 64.0254 	 111.738
|  8> C 	 -35.0406 	 62.7451 	 112.49
|  9> C 	 -34.8979 	 61.6947 	 111.565
| 10> C 	 -35.3931 	 61.972 	 110.231
| 11> C 	 -35.8582 	 63.2676 	 110.178
| 12> H 	 -35.387 	 61.277 	 109.38
| 13> C 	 -34.1958 	 60.4476 	 111.978
| 14> H 	 -34.376 	 59.7682 	 111.141
| 15> H 	 -34.6558 	 59.9395 	 112.835
| 16> C 	 -32.6938 	 60.4989 	 112.168
| 17> H 	 -32.5048 	 61.4955 	 112.656
| 18> H 	 -32.2597 	 59.6969 	 112.762
| 19> C 	 -31.875 	 60.3757 	 110.877
| 20> H 	 -30.8832 	 60.1141 	 111.112
| 21> H 	 -32.2136 	 59.4693 	 110.327
| 22> H 	 -31.8894 	 61.2671 	 110.235
| 23> S 	 -35.2118 	 64.4095 	 107.854
| 24> C 	 -36.4133 	 64.6724 	 106.624
| 25> C 	 -37.6144 	 64.0506 	 106.945
| 26> C 	 -37.6165 	 63.6917 	 108.327
| 27> C 	 -36.4335 	 63.8384 	 109.007
| 28> H 	 -38.4485 	 63.8738 	 106.246
| 29> C 	 -38.8516 	 63.0784 	 108.933
| 30> H 	 -38.4909 	 62.6582 	 109.844
| 31> H 	 -39.1418 	 62.2621 	 108.242
| 32> C 	 -39.9715 	 64.1439 	 109.126
| 33> H 	 -39.6524 	 64.8958 	 109.777
| 34> H 	 -40.7476 	 63.6059 	 109.577
| 35> C 	 -40.472 	 64.7928 	 107.89
| 36> H 	 -40.6368 	 64.1509 	 107.045
| 37> H 	 -39.766 	 65.6389 	 107.493
| 38> H 	 -41.3492 	 65.2571 	 108.236
| 39> H 	 -34.7819 	 62.6303 	 113.521
| 40> H 	 -36.1465 	 65.0545 	 105.649
| 41> *
| 42>
| 43>                          ****END OF INPUT****

CARTESIAN COORDINATES (ANGSTROEM)
---------------------------------
  S    -35.812700   64.025400  111.738000
  C    -35.040600   62.745100  112.490000
  C    -34.897900   61.694700  111.565000
  C    -35.393100   61.972000  110.231000
  C    -35.858200   63.267600  110.178000
  H    -35.387000   61.277000  109.380000
  C    -34.195800   60.447600  111.978000
  H    -34.376000   59.768200  111.141000
  H    -34.655800   59.939500  112.835000
  C    -32.693800   60.498900  112.168000
  H    -32.504800   61.495500  112.656000
  H    -32.259700   59.696900  112.762000
  C    -31.875000   60.375700  110.877000
  H    -30.883200   60.114100  111.112000
  H    -32.213600   59.469300  110.327000
  H    -31.889400   61.267100  110.235000
  S    -35.211800   64.409500  107.854000
  C    -36.413300   64.672400  106.624000
  C    -37.614400   64.050600  106.945000
  C    -37.616500   63.691700  108.327000
  C    -36.433500   63.838400  109.007000
  H    -38.448500   63.873800  106.246000
  C    -38.851600   63.078400  108.933000
  H    -38.490900   62.658200  109.844000
  H    -39.141800   62.262100  108.242000
  C    -39.971500   64.143900  109.126000
  H    -39.652400   64.895800  109.777000
  H    -40.747600   63.605900  109.577000
  C    -40.472000   64.792800  107.890000
  H    -40.636800   64.150900  107.045000
  H    -39.766000   65.638900  107.493000
  H    -41.349200   65.257100  108.236000
  H    -34.781900   62.630300  113.521000
  H    -36.146500   65.054500  105.649000

 Total Charge           Charge          ....    0
 Multiplicity           Mult            ....    1
 Number of Electrons    NEL             ....  134
 Basis Dimension        Dim             ....  322

ORBITAL ENERGIES
----------------

  NO   OCC          E(Eh)            E(eV)
   0   2.0000     -88.967360     -2420.9249
   1   2.0000     -88.957256     -2420.6500
   2   2.0000     -10.324196      -280.9357
   3   2.0000     -10.317756      -280.7604
   4   2.0000     -10.317551      -280.7548
   5   2.0000     -10.309180      -280.5271
   6   2.0000     -10.299602      -280.2664
   7   2.0000     -10.299276      -280.2575
   8   2.0000     -10.297491      -280.2090
   9   2.0000     -10.295163      -280.1456
  10   2.0000     -10.284918      -279.8669
  11   2.0000     -10.283802      -279.8365
  12   2.0000     -10.283461      -279.8272
  13   2.0000     -10.274471      -279.5826
  14   2.0000     -10.273979      -279.5692
  15   2.0000     -10.272249      -279.5221
  16   2.0000      -8.083393      -219.9603
  17   2.0000      -8.072402      -219.6612
  18   2.0000      -6.041725      -164.4037
  19   2.0000      -6.037451      -164.2874
  20   2.0000      -6.034514      -164.2075
  21   2.0000      -6.030897      -164.1091
  22   2.0000      -6.026897      -164.0002
  23   2.0000      -6.023088      -163.8966
  24   2.0000      -1.012590       -27.5540
  25   2.0000      -0.987428       -26.8693
  26   2.0000      -0.913734       -24.8640
  27   2.0000      -0.912229       -24.8230
  28   2.0000      -0.876717       -23.8567
  29   2.0000      -0.850528       -23.1440
  30   2.0000      -0.849251       -23.1093
  31   2.0000      -0.814878       -22.1739
  32   2.0000      -0.782024       -21.2800
  33   2.0000      -0.767765       -20.8920
  34   2.0000      -0.705431       -19.1958
  35   2.0000      -0.697310       -18.9748
  36   2.0000      -0.691533       -18.8176
  37   2.0000      -0.665612       -18.1122
  38   2.0000      -0.647606       -17.6222
  39   2.0000      -0.607757       -16.5379
  40   2.0000      -0.591086       -16.0843
  41   2.0000      -0.575324       -15.6554
  42   2.0000      -0.557679       -15.1752
  43   2.0000      -0.556553       -15.1446
  44   2.0000      -0.548007       -14.9120
  45   2.0000      -0.539688       -14.6856
  46   2.0000      -0.529587       -14.4108
  47   2.0000      -0.509443       -13.8626
  48   2.0000      -0.505532       -13.7562
  49   2.0000      -0.495522       -13.4838
  50   2.0000      -0.491201       -13.3662
  51   2.0000      -0.478607       -13.0236
  52   2.0000      -0.470004       -12.7895
  53   2.0000      -0.467004       -12.7078
  54   2.0000      -0.464233       -12.6324
  55   2.0000      -0.445878       -12.1330
  56   2.0000      -0.435851       -11.8601
  57   2.0000      -0.432390       -11.7659
  58   2.0000      -0.431462       -11.7407
  59   2.0000      -0.428019       -11.6470
  60   2.0000      -0.418590       -11.3904
  61   2.0000      -0.406996       -11.0749
  62   2.0000      -0.404607       -11.0099
  63   2.0000      -0.339585        -9.2406
  64   2.0000      -0.324002        -8.8165
  65   2.0000      -0.315233        -8.5779
  66   2.0000      -0.309351        -8.4179
  67   0.0000       0.048270         1.3135
  68   0.0000       0.049743         1.3536
  69   0.0000       0.107042         2.9128
  70   0.0000       0.122187         3.3249
  71   0.0000       0.134734         3.6663

MULLIKEN ATOMIC CHARGES
-----------------------
   0 S :    0.143502
   1 C :   -0.092709
   2 C :   -0.132507
   3 C :    0.057607
   4 C :   -0.189576
   5 H :    0.031317
   6 C :    0.064287
   7 H :    0.000186
   8 H :    0.035350
   9 C :   -0.072780
  10 H :    0.030347
  11 H :    0.027735
  12 C :   -0.050882
  13 H :    0.017883
  14 H :    0.020317
  15 H :    0.048989
  16 S :    0.088223
  17 C :   -0.079506
  18 C :   -0.036031
  19 C :   -0.070636
  20 C :   -0.162670
  21 H :    0.031105
  22 C :    0.077083
  23 H :    0.013571
  24 H :    0.030616
  25 C :   -0.007184
  26 H :    0.018342
  27 H :    0.017035
  28 C :   -0.061911
  29 H :    0.023103
  30 H :    0.052595
  31 H :    0.025830
  32 H :    0.045699
  33 H :    0.055667
Sum of atomic charges:    0.0000000

LOEWDIN ATOMIC CHARGES
----------------------
   0 S :    0.455859
   1 C :   -0.221161
   2 C :   -0.066718
   3 C :   -0.053163
   4 C :   -0.221463
   5 H :    0.040986
   6 C :   -0.045801
   7 H :    0.025132
   8 H :    0.033764
   9 C :   -0.043945
  10 H :    0.026582
  11 H :    0.025716
  12 C :   -0.065272
  13 H :    0.018139
  14 H :    0.026172
  15 H :    0.027556
  16 S :    0.398914
  17 C :   -0.177701
  18 C :   -0.075501
  19 C :   -0.050668
  20 C :   -0.205983
  21 H :    0.037104
  22 C :   -0.026674
  23 H :    0.023181
  24 H :    0.033111
  25 C :   -0.026931
  26 H :    0.023605
  27 H :    0.018546
  28 C :   -0.065651
  29 H :    0.016088
  30 H :    0.038419
  31 H :    0.023380
  32 H :    0.029600
  33 H :    0.024778

  Mayer bond orders larger than 0.100000
B(  0-S ,  1-C ) :   1.1675 B(  0-S ,  4-C ) :   1.1724 B(  1-C ,  2-C ) :   1.5580
B(  1-C , 32-H ) :   0.9741 B(  2-C ,  3-C ) :   1.2677 B(  2-C ,  6-C ) :   1.0372
B(  3-C ,  4-C ) :   1.5361 B(  3-C ,  5-H ) :   0.9957 B(  4-C , 20-C ) :   1.0146
B(  6-C ,  7-H ) :   0.9388 B(  6-C ,  8-H ) :   0.9371 B(  6-C ,  9-C ) :   1.0642
B(  9-C , 10-H ) :   0.9548 B(  9-C , 11-H ) :   0.9562 B(  9-C , 12-C ) :   1.0870
B( 12-C , 13-H ) :   0.9755 B( 12-C , 14-H ) :   0.9693 B( 12-C , 15-H ) :   0.9774
B( 16-S , 17-C ) :   1.1775 B( 16-S , 20-C ) :   1.1223 B( 17-C , 18-C ) :   1.5777
B( 17-C , 33-H ) :   0.9679 B( 18-C , 19-C ) :   1.2465 B( 18-C , 21-H ) :   0.9843
B( 19-C , 20-C ) :   1.6261 B( 19-C , 22-C ) :   1.0276 B( 22-C , 23-H ) :   0.9309
B( 22-C , 24-H ) :   0.9399 B( 22-C , 25-C ) :   1.0748 B( 25-C , 26-H ) :   0.9442
B( 25-C , 27-H ) :   0.9559 B( 25-C , 28-C ) :   1.0955 B( 28-C , 29-H ) :   0.9729
B( 28-C , 30-H ) :   0.9624 B( 28-C , 31-H ) :   0.9669

Dispersion correction           -0.014669275
FINAL SINGLE POINT ENERGY     -1339.863945881743

DIPOLE MOMENT
-------------
                                X             Y             Z
Electronic contribution:      3.80616      12.10272      -0.47704
Nuclear contribution   :     -4.08470     -12.63969       0.43218
                        -----------------------------------------
Total Dipole Moment    :     -0.27855      -0.53697      -0.04486
                        -----------------------------------------
Magnitude (a.u.)       :      0.60658
Magnitude (Debye)      :      1.54180

Rotational constants in cm-1:     0.024967     0.007572     0.006706
Rotational constants in MHz :   748.499220   227.016879   201.043450

                             ****ORCA TERMINATED NORMALLY****
TOTAL RUN TIME: 0 days 0 hours 0 minutes 32 seconds 30 msec
