                         Program Version 4.2.1 -  RELEASE  -
|  1> ! wB97X-D3 SP def2-SVP
|  2> %pal
|  3> nprocs 16
|  4> end
|  5>
|  6> * xyz 0 1
|  7> S 	 -57.6231 	 52.7354 	 136.581
|  8> C 	 -56.3203 	 53.0794 	 135.387
|  9> C 	 -55.9514 	 51.9787 	 134.634
| 10> C 	 -57.0593 	 51.0387 	 134.752
| 11> C 	 -58.0068 	 51.3494 	 135.697
| 12> H 	 -57.1044 	 50.1443 	 134.149
| 13> C 	 -54.8841 	 51.9458 	 133.526
| 14> H 	 -54.6742 	 50.9753 	 133.169
| 15> H 	 -53.956 	 52.2825 	 134.004
| 16> C 	 -55.2438 	 52.853 	 132.353
| 17> H 	 -56.0716 	 52.3857 	 131.814
| 18> H 	 -55.5668 	 53.8361 	 132.716
| 19> C 	 -54.0734 	 53.2479 	 131.397
| 20> H 	 -53.534 	 52.4267 	 130.944
| 21> H 	 -54.5383 	 53.8538 	 130.677
| 22> H 	 -53.3693 	 53.9769 	 131.841
| 23> S 	 -59.8566 	 49.7435 	 134.467
| 24> C 	 -61.4642 	 49.6399 	 135.123
| 25> C 	 -61.3997 	 49.9288 	 136.477
| 26> C 	 -60.2111 	 50.5179 	 136.884
| 27> C 	 -59.2354 	 50.5386 	 135.875
| 28> H 	 -62.2722 	 49.793 	 137.082
| 29> C 	 -60.0312 	 51.2188 	 138.221
| 30> H 	 -60.9922 	 51.3365 	 138.627
| 31> H 	 -59.686 	 52.2403 	 138.002
| 32> C 	 -59.0437 	 50.6852 	 139.321
| 33> H 	 -58.0292 	 50.7481 	 138.98
| 34> H 	 -59.1178 	 49.6033 	 139.441
| 35> C 	 -59.1206 	 51.4365 	 140.662
| 36> H 	 -59.0015 	 52.5061 	 140.574
| 37> H 	 -58.3978 	 51.0204 	 141.329
| 38> H 	 -60.1309 	 51.3117 	 141.048
| 39> H 	 -55.8271 	 53.9559 	 135.315
| 40> H 	 -62.275 	 49.2023 	 134.666
| 41> *
| 42>
| 43>                          ****END OF INPUT****

CARTESIAN COORDINATES (ANGSTROEM)
---------------------------------
  S    -57.623100   52.735400  136.581000
  C    -56.320300   53.079400  135.387000
  C    -55.951400   51.978700  134.634000
  C    -57.059300   51.038700  134.752000
  C    -58.006800   51.349400  135.697000
  H    -57.104400   50.144300  134.149000
  C    -54.884100   51.945800  133.526000
  H    -54.674200   50.975300  133.169000
  H    -53.956000   52.282500  134.004000
  C    -55.243800   52.853000  132.353000
  H    -56.071600   52.385700  131.814000
  H    -55.566800   53.836100  132.716000
  C    -54.073400   53.247900  131.397000
  H    -53.534000   52.426700  130.944000
  H    -54.538300   53.853800  130.677000
  H    -53.369300   53.976900  131.841000
  S    -59.856600   49.743500  134.467000
  C    -61.464200   49.639900  135.123000
  C    -61.399700   49.928800  136.477000
  C    -60.211100   50.517900  136.884000
  C    -59.235400   50.538600  135.875000
  H    -62.272200   49.793000  137.082000
  C    -60.031200   51.218800  138.221000
  H    -60.992200   51.336500  138.627000
  H    -59.686000   52.240300  138.002000
  C    -59.043700   50.685200  139.321000
  H    -58.029200   50.748100  138.980000
  H    -59.117800   49.603300  139.441000
  C    -59.120600   51.436500  140.662000
  H    -59.001500   52.506100  140.574000
  H    -58.397800   51.020400  141.329000
  H    -60.130900   51.311700  141.048000
  H    -55.827100   53.955900  135.315000
  H    -62.275000   49.202300  134.666000

 Total Charge           Charge          ....    0
 Multiplicity           Mult            ....    1
 Number of Electrons    NEL             ....  134
 Basis Dimension        Dim             ....  322

ORBITAL ENERGIES
----------------

  NO   OCC          E(Eh)            E(eV)
   0   2.0000     -88.970345     -2421.0062
   1   2.0000     -88.963520     -2420.8205
   2   2.0000     -10.326427      -280.9964
   3   2.0000     -10.325499      -280.9711
   4   2.0000     -10.310106      -280.5522
   5   2.0000     -10.308043      -280.4961
   6   2.0000     -10.305760      -280.4340
   7   2.0000     -10.299054      -280.2515
   8   2.0000     -10.293866      -280.1103
   9   2.0000     -10.290518      -280.0192
  10   2.0000     -10.289251      -279.9847
  11   2.0000     -10.288998      -279.9779
  12   2.0000     -10.288913      -279.9756
  13   2.0000     -10.282433      -279.7992
  14   2.0000     -10.277872      -279.6751
  15   2.0000     -10.273869      -279.5662
  16   2.0000      -8.084741      -219.9970
  17   2.0000      -8.078648      -219.8312
  18   2.0000      -6.043315      -164.4470
  19   2.0000      -6.039565      -164.3449
  20   2.0000      -6.037139      -164.2789
  21   2.0000      -6.035187      -164.2258
  22   2.0000      -6.033068      -164.1681
  23   2.0000      -6.029445      -164.0695
  24   2.0000      -1.010765       -27.5043
  25   2.0000      -0.987233       -26.8640
  26   2.0000      -0.913287       -24.8518
  27   2.0000      -0.902636       -24.5620
  28   2.0000      -0.867864       -23.6158
  29   2.0000      -0.855721       -23.2853
  30   2.0000      -0.845143       -22.9975
  31   2.0000      -0.811116       -22.0716
  32   2.0000      -0.789126       -21.4732
  33   2.0000      -0.775541       -21.1035
  34   2.0000      -0.707542       -19.2532
  35   2.0000      -0.702828       -19.1249
  36   2.0000      -0.695813       -18.9340
  37   2.0000      -0.671810       -18.2809
  38   2.0000      -0.635047       -17.2805
  39   2.0000      -0.617420       -16.8008
  40   2.0000      -0.596967       -16.2443
  41   2.0000      -0.579504       -15.7691
  42   2.0000      -0.562315       -15.3014
  43   2.0000      -0.557005       -15.1569
  44   2.0000      -0.529296       -14.4029
  45   2.0000      -0.527228       -14.3466
  46   2.0000      -0.519328       -14.1316
  47   2.0000      -0.513160       -13.9638
  48   2.0000      -0.507768       -13.8171
  49   2.0000      -0.497868       -13.5477
  50   2.0000      -0.493455       -13.4276
  51   2.0000      -0.479971       -13.0607
  52   2.0000      -0.474195       -12.9035
  53   2.0000      -0.469739       -12.7823
  54   2.0000      -0.461676       -12.5628
  55   2.0000      -0.448096       -12.1933
  56   2.0000      -0.441655       -12.0181
  57   2.0000      -0.436880       -11.8881
  58   2.0000      -0.434488       -11.8230
  59   2.0000      -0.426983       -11.6188
  60   2.0000      -0.423737       -11.5305
  61   2.0000      -0.420999       -11.4560
  62   2.0000      -0.408726       -11.1220
  63   2.0000      -0.354800        -9.6546
  64   2.0000      -0.333984        -9.0882
  65   2.0000      -0.327583        -8.9140
  66   2.0000      -0.277618        -7.5544
  67   0.0000       0.022384         0.6091
  68   0.0000       0.072137         1.9630
  69   0.0000       0.098796         2.6884
  70   0.0000       0.118055         3.2124
  71   0.0000       0.139824         3.8048

MULLIKEN ATOMIC CHARGES
-----------------------
   0 S :    0.100800
   1 C :   -0.094187
   2 C :   -0.053037
   3 C :   -0.045683
   4 C :   -0.070316
   5 H :    0.009648
   6 C :    0.100318
   7 H :    0.013847
   8 H :    0.024570
   9 C :   -0.096613
  10 H :    0.037017
  11 H :    0.025054
  12 C :   -0.031432
  13 H :    0.037703
  14 H :    0.020888
  15 H :    0.030680
  16 S :    0.088636
  17 C :   -0.063900
  18 C :   -0.032566
  19 C :   -0.066417
  20 C :   -0.101942
  21 H :    0.009706
  22 C :    0.054391
  23 H :   -0.004293
  24 H :    0.031087
  25 C :   -0.052649
  26 H :    0.015889
  27 H :    0.023906
  28 C :   -0.031034
  29 H :    0.028566
  30 H :    0.037242
  31 H :    0.023870
  32 H :   -0.000222
  33 H :    0.030472
Sum of atomic charges:    0.0000000

LOEWDIN ATOMIC CHARGES
----------------------
   0 S :    0.422049
   1 C :   -0.162592
   2 C :   -0.043714
   3 C :   -0.077473
   4 C :   -0.203998
   5 H :    0.021161
   6 C :   -0.027610
   7 H :    0.023919
   8 H :    0.033235
   9 C :   -0.034486
  10 H :    0.027147
  11 H :    0.025707
  12 C :   -0.064681
  13 H :    0.021833
  14 H :    0.022779
  15 H :    0.028707
  16 S :    0.426006
  17 C :   -0.176220
  18 C :   -0.066639
  19 C :   -0.066506
  20 C :   -0.192101
  21 H :    0.028620
  22 C :   -0.034689
  23 H :    0.020362
  24 H :    0.021715
  25 C :   -0.040025
  26 H :    0.015440
  27 H :    0.023458
  28 C :   -0.058027
  29 H :    0.024118
  30 H :    0.026851
  31 H :    0.023298
  32 H :   -0.001022
  33 H :    0.013379

  Mayer bond orders larger than 0.100000
B(  0-S ,  1-C ) :   1.1229 B(  0-S ,  4-C ) :   1.1334 B(  1-C ,  2-C ) :   1.6195
B(  1-C , 32-H ) :   0.9801 B(  2-C ,  3-C ) :   1.2134 B(  2-C ,  6-C ) :   1.0388
B(  3-C ,  4-C ) :   1.5713 B(  3-C ,  5-H ) :   0.9919 B(  4-C , 20-C ) :   1.0572
B(  6-C ,  7-H ) :   0.9408 B(  6-C ,  8-H ) :   0.9343 B(  6-C ,  9-C ) :   1.0631
B(  9-C , 10-H ) :   0.9588 B(  9-C , 11-H ) :   0.9583 B(  9-C , 12-C ) :   1.0785
B( 12-C , 13-H ) :   0.9768 B( 12-C , 14-H ) :   0.9718 B( 12-C , 15-H ) :   0.9743
B( 16-S , 17-C ) :   1.1696 B( 16-S , 20-C ) :   1.1570 B( 17-C , 18-C ) :   1.5623
B( 17-C , 20-C ) :   0.1045 B( 17-C , 33-H ) :   0.9770 B( 18-C , 19-C ) :   1.2979
B( 18-C , 21-H ) :   0.9934 B( 19-C , 20-C ) :   1.5271 B( 19-C , 22-C ) :   1.0409
B( 22-C , 23-H ) :   0.9302 B( 22-C , 24-H ) :   0.9272 B( 22-C , 25-C ) :   1.0505
B( 25-C , 26-H ) :   0.9515 B( 25-C , 27-H ) :   0.9558 B( 25-C , 28-C ) :   1.0823
B( 28-C , 29-H ) :   0.9753 B( 28-C , 30-H ) :   0.9735 B( 28-C , 31-H ) :   0.9766

Dispersion correction           -0.013769566
FINAL SINGLE POINT ENERGY     -1339.858557129141

DIPOLE MOMENT
-------------
                                X             Y             Z
Electronic contribution:    -11.37876      -6.25943      -2.02160
Nuclear contribution   :     11.49786       6.38509       1.90537
                        -----------------------------------------
Total Dipole Moment    :      0.11910       0.12566      -0.11623
                        -----------------------------------------
Magnitude (a.u.)       :      0.20853
Magnitude (Debye)      :      0.53005

Rotational constants in cm-1:     0.021651     0.007792     0.006025
Rotational constants in MHz :   649.067167   233.600265   180.638772

                             ****ORCA TERMINATED NORMALLY****
TOTAL RUN TIME: 0 days 0 hours 0 minutes 34 seconds 891 msec
