                         Program Version 4.2.1 -  RELEASE  -
|  1> ! wB97X-D3 SP def2-SVP
|  2> %pal
|  3> nprocs 16
|  4> end
|  5>
|  6> * xyz 0 1
|  7> S 	 -0.407036 	 10.5831 	 86.456
|  8> C 	 -1.85616 	 10.6933 	 85.4527
|  9> C 	 -1.60606 	 10.3365 	 84.1187
| 10> C 	 -0.181153 	 10.0023 	 84.0035
| 11> C 	 0.594779 	 10.4424 	 85.0658
| 12> H 	 0.210616 	 9.71527 	 83.0529
| 13> C 	 -2.65985 	 10.1967 	 83.0365
| 14> H 	 -2.20055 	 10.3511 	 82.0863
| 15> H 	 -3.28372 	 11.1286 	 83.1434
| 16> C 	 -3.60081 	 8.95835 	 82.9921
| 17> H 	 -3.07688 	 8.00554 	 83.0459
| 18> H 	 -4.25566 	 9.06587 	 83.8148
| 19> C 	 -4.55584 	 8.97128 	 81.769
| 20> H 	 -4.91978 	 9.98985 	 81.6754
| 21> H 	 -4.10138 	 8.67232 	 80.8427
| 22> H 	 -5.42154 	 8.35213 	 82.0084
| 23> S 	 2.62837 	 9.31911 	 86.4929
| 24> C 	 4.27233 	 9.5172 	 85.9269
| 25> C 	 4.37319 	 10.5897 	 85.0624
| 26> C 	 3.09375 	 11.0414 	 84.6138
| 27> C 	 2.04377 	 10.3167 	 85.2262
| 28> H 	 5.24991 	 11.0912 	 84.6597
| 29> C 	 2.93138 	 12.2523 	 83.6423
| 30> H 	 2.90363 	 13.1397 	 84.2216
| 31> H 	 1.94309 	 12.1291 	 83.1406
| 32> C 	 3.9248 	 12.3392 	 82.4745
| 33> H 	 3.60159 	 11.3988 	 81.9904
| 34> H 	 4.92987 	 12.2971 	 82.8405
| 35> C 	 3.67765 	 13.6136 	 81.54
| 36> H 	 3.96979 	 14.5558 	 81.9646
| 37> H 	 2.6297 	 13.5177 	 81.4427
| 38> H 	 4.17301 	 13.388 	 80.5842
| 39> H 	 -2.83243 	 10.8292 	 85.8195
| 40> H 	 5.17773 	 9.08929 	 86.3196
| 41> *
| 42>
| 43>                          ****END OF INPUT****

CARTESIAN COORDINATES (ANGSTROEM)
---------------------------------
  S     -0.407036   10.583100   86.456000
  C     -1.856160   10.693300   85.452700
  C     -1.606060   10.336500   84.118700
  C     -0.181153   10.002300   84.003500
  C      0.594779   10.442400   85.065800
  H      0.210616    9.715270   83.052900
  C     -2.659850   10.196700   83.036500
  H     -2.200550   10.351100   82.086300
  H     -3.283720   11.128600   83.143400
  C     -3.600810    8.958350   82.992100
  H     -3.076880    8.005540   83.045900
  H     -4.255660    9.065870   83.814800
  C     -4.555840    8.971280   81.769000
  H     -4.919780    9.989850   81.675400
  H     -4.101380    8.672320   80.842700
  H     -5.421540    8.352130   82.008400
  S      2.628370    9.319110   86.492900
  C      4.272330    9.517200   85.926900
  C      4.373190   10.589700   85.062400
  C      3.093750   11.041400   84.613800
  C      2.043770   10.316700   85.226200
  H      5.249910   11.091200   84.659700
  C      2.931380   12.252300   83.642300
  H      2.903630   13.139700   84.221600
  H      1.943090   12.129100   83.140600
  C      3.924800   12.339200   82.474500
  H      3.601590   11.398800   81.990400
  H      4.929870   12.297100   82.840500
  C      3.677650   13.613600   81.540000
  H      3.969790   14.555800   81.964600
  H      2.629700   13.517700   81.442700
  H      4.173010   13.388000   80.584200
  H     -2.832430   10.829200   85.819500
  H      5.177730    9.089290   86.319600

 Total Charge           Charge          ....    0
 Multiplicity           Mult            ....    1
 Number of Electrons    NEL             ....  134
 Basis Dimension        Dim             ....  322

ORBITAL ENERGIES
----------------

  NO   OCC          E(Eh)            E(eV)
   0   2.0000     -88.969234     -2420.9759
   1   2.0000     -88.964589     -2420.8495
   2   2.0000     -10.327833      -281.0346
   3   2.0000     -10.325191      -280.9627
   4   2.0000     -10.316513      -280.7266
   5   2.0000     -10.312100      -280.6065
   6   2.0000     -10.306100      -280.4432
   7   2.0000     -10.304794      -280.4077
   8   2.0000     -10.297166      -280.2001
   9   2.0000     -10.294863      -280.1375
  10   2.0000     -10.293499      -280.1003
  11   2.0000     -10.290236      -280.0116
  12   2.0000     -10.288599      -279.9670
  13   2.0000     -10.287716      -279.9430
  14   2.0000     -10.281168      -279.7648
  15   2.0000     -10.278966      -279.7049
  16   2.0000      -8.084344      -219.9862
  17   2.0000      -8.079787      -219.8622
  18   2.0000      -6.042881      -164.4351
  19   2.0000      -6.038919      -164.3273
  20   2.0000      -6.038328      -164.3113
  21   2.0000      -6.034931      -164.2188
  22   2.0000      -6.034436      -164.2053
  23   2.0000      -6.030282      -164.0923
  24   2.0000      -1.008817       -27.4513
  25   2.0000      -0.983182       -26.7537
  26   2.0000      -0.910051       -24.7638
  27   2.0000      -0.905360       -24.6361
  28   2.0000      -0.869254       -23.6536
  29   2.0000      -0.846682       -23.0394
  30   2.0000      -0.844495       -22.9799
  31   2.0000      -0.813030       -22.1237
  32   2.0000      -0.782226       -21.2855
  33   2.0000      -0.771112       -20.9830
  34   2.0000      -0.705975       -19.2106
  35   2.0000      -0.700570       -19.0635
  36   2.0000      -0.696710       -18.9584
  37   2.0000      -0.656056       -17.8522
  38   2.0000      -0.639731       -17.4080
  39   2.0000      -0.617594       -16.8056
  40   2.0000      -0.595785       -16.2121
  41   2.0000      -0.574517       -15.6334
  42   2.0000      -0.570371       -15.5206
  43   2.0000      -0.562060       -15.2944
  44   2.0000      -0.524995       -14.2859
  45   2.0000      -0.520826       -14.1724
  46   2.0000      -0.516377       -14.0513
  47   2.0000      -0.510437       -13.8897
  48   2.0000      -0.509819       -13.8729
  49   2.0000      -0.498571       -13.5668
  50   2.0000      -0.496476       -13.5098
  51   2.0000      -0.473623       -12.8879
  52   2.0000      -0.468950       -12.7608
  53   2.0000      -0.461623       -12.5614
  54   2.0000      -0.457340       -12.4449
  55   2.0000      -0.454852       -12.3771
  56   2.0000      -0.450658       -12.2630
  57   2.0000      -0.436133       -11.8678
  58   2.0000      -0.428794       -11.6681
  59   2.0000      -0.426474       -11.6050
  60   2.0000      -0.423985       -11.5372
  61   2.0000      -0.420897       -11.4532
  62   2.0000      -0.413488       -11.2516
  63   2.0000      -0.342956        -9.3323
  64   2.0000      -0.329585        -8.9685
  65   2.0000      -0.324581        -8.8323
  66   2.0000      -0.290970        -7.9177
  67   0.0000       0.030827         0.8389
  68   0.0000       0.057646         1.5686
  69   0.0000       0.098606         2.6832
  70   0.0000       0.117107         3.1867
  71   0.0000       0.131625         3.5817

MULLIKEN ATOMIC CHARGES
-----------------------
   0 S :    0.097195
   1 C :   -0.089882
   2 C :   -0.117583
   3 C :    0.058939
   4 C :   -0.152210
   5 H :    0.002729
   6 C :    0.047243
   7 H :    0.010077
   8 H :    0.032539
   9 C :   -0.037835
  10 H :    0.039489
  11 H :    0.014791
  12 C :   -0.049776
  13 H :    0.020808
  14 H :    0.036957
  15 H :    0.037689
  16 S :    0.123066
  17 C :   -0.072677
  18 C :   -0.028961
  19 C :   -0.068847
  20 C :   -0.162133
  21 H :    0.017720
  22 C :    0.075040
  23 H :    0.033659
  24 H :    0.026578
  25 C :   -0.140120
  26 H :    0.039994
  27 H :    0.032105
  28 C :   -0.011582
  29 H :    0.042993
  30 H :    0.018471
  31 H :    0.045048
  32 H :    0.027232
  33 H :    0.051245
Sum of atomic charges:    0.0000000

LOEWDIN ATOMIC CHARGES
----------------------
   0 S :    0.405227
   1 C :   -0.184619
   2 C :   -0.058640
   3 C :   -0.056107
   4 C :   -0.202124
   5 H :    0.021581
   6 C :   -0.039214
   7 H :    0.022336
   8 H :    0.040769
   9 C :   -0.031335
  10 H :    0.026002
  11 H :    0.018570
  12 C :   -0.059921
  13 H :    0.023500
  14 H :    0.021077
  15 H :    0.029620
  16 S :    0.426844
  17 C :   -0.188121
  18 C :   -0.068436
  19 C :   -0.054474
  20 C :   -0.215388
  21 H :    0.031464
  22 C :   -0.032210
  23 H :    0.023002
  24 H :    0.031932
  25 C :   -0.041255
  26 H :    0.031738
  27 H :    0.010499
  28 C :   -0.054150
  29 H :    0.024646
  30 H :    0.020765
  31 H :    0.032360
  32 H :    0.015422
  33 H :    0.028639

  Mayer bond orders larger than 0.100000
B(  0-S ,  1-C ) :   1.1385 B(  0-S ,  4-C ) :   1.1494 B(  1-C ,  2-C ) :   1.6044
B(  1-C , 32-H ) :   0.9757 B(  2-C ,  3-C ) :   1.2462 B(  2-C ,  6-C ) :   1.0279
B(  3-C ,  4-C ) :   1.5719 B(  3-C ,  5-H ) :   0.9876 B(  4-C , 20-C ) :   1.0330
B(  6-C ,  7-H ) :   0.9414 B(  6-C ,  8-H ) :   0.9354 B(  6-C ,  9-C ) :   1.0591
B(  9-C , 10-H ) :   0.9602 B(  9-C , 11-H ) :   0.9550 B(  9-C , 12-C ) :   1.0791
B( 12-C , 13-H ) :   0.9735 B( 12-C , 14-H ) :   0.9785 B( 12-C , 15-H ) :   0.9764
B( 16-S , 17-C ) :   1.1547 B( 16-S , 20-C ) :   1.1593 B( 17-C , 18-C ) :   1.5821
B( 17-C , 20-C ) :   0.1013 B( 17-C , 33-H ) :   0.9687 B( 18-C , 19-C ) :   1.2841
B( 18-C , 21-H ) :   0.9838 B( 19-C , 20-C ) :   1.5750 B( 19-C , 22-C ) :   1.0284
B( 22-C , 23-H ) :   0.9362 B( 22-C , 24-H ) :   0.9374 B( 22-C , 25-C ) :   1.0434
B( 25-C , 26-H ) :   0.9672 B( 25-C , 27-H ) :   0.9579 B( 25-C , 28-C ) :   1.0654
B( 28-C , 29-H ) :   0.9781 B( 28-C , 30-H ) :   0.9758 B( 28-C , 31-H ) :   0.9760

Dispersion correction           -0.013038315
FINAL SINGLE POINT ENERGY     -1339.853206146982

DIPOLE MOMENT
-------------
                                X             Y             Z
Electronic contribution:      9.07680      -7.11711      26.21838
Nuclear contribution   :     -9.19856       7.28074     -26.77798
                        -----------------------------------------
Total Dipole Moment    :     -0.12176       0.16363      -0.55960
                        -----------------------------------------
Magnitude (a.u.)       :      0.59561
Magnitude (Debye)      :      1.51393

Rotational constants in cm-1:     0.017754     0.007464     0.005845
Rotational constants in MHz :   532.241046   223.757601   175.220888

                             ****ORCA TERMINATED NORMALLY****
TOTAL RUN TIME: 0 days 0 hours 0 minutes 33 seconds 433 msec
