                         Program Version 4.2.1 -  RELEASE  -
|  1> ! wB97X-D3 SP def2-SVP
|  2> %pal
|  3> nprocs 16
|  4> end
|  5>
|  6> * xyz 0 1
|  7> S 	 -6.36636 	 55.7823 	 28.8758
|  8> C 	 -5.63166 	 54.3303 	 28.2608
|  9> C 	 -4.6073 	 53.9226 	 29.0848
| 10> C 	 -4.38119 	 54.7311 	 30.2235
| 11> C 	 -5.28064 	 55.8066 	 30.2332
| 12> H 	 -3.72571 	 54.6435 	 31.0563
| 13> C 	 -3.91064 	 52.5775 	 29.0027
| 14> H 	 -4.64013 	 51.9759 	 28.478
| 15> H 	 -3.75883 	 52.2009 	 30.061
| 16> C 	 -2.51027 	 52.6274 	 28.3033
| 17> H 	 -2.53595 	 53.2555 	 27.3813
| 18> H 	 -1.79003 	 53.0877 	 28.9197
| 19> C 	 -2.06344 	 51.2831 	 27.7384
| 20> H 	 -0.94064 	 51.3353 	 27.5728
| 21> H 	 -2.10781 	 50.554 	 28.528
| 22> H 	 -2.67389 	 50.9057 	 26.9034
| 23> S 	 -4.86373 	 58.4945 	 30.4367
| 24> C 	 -5.14618 	 59.2782 	 32.0217
| 25> C 	 -5.35247 	 58.3751 	 33.0061
| 26> C 	 -5.47239 	 56.9816 	 32.5277
| 27> C 	 -5.27213 	 56.9451 	 31.1491
| 28> H 	 -5.51832 	 58.7181 	 34.0178
| 29> C 	 -5.66114 	 55.9096 	 33.5583
| 30> H 	 -4.99109 	 55.8292 	 34.3959
| 31> H 	 -5.44181 	 54.9435 	 32.9997
| 32> C 	 -7.05537 	 55.6368 	 34.038
| 33> H 	 -7.01639 	 54.68 	 34.6042
| 34> H 	 -7.80193 	 55.5823 	 33.2844
| 35> C 	 -7.6801 	 56.6059 	 34.9638
| 36> H 	 -8.71962 	 56.3737 	 35.1887
| 37> H 	 -7.63538 	 57.6676 	 34.6111
| 38> H 	 -7.09196 	 56.5866 	 35.8775
| 39> H 	 -6.03014 	 53.7802 	 27.4965
| 40> H 	 -5.149 	 60.3483 	 32.0031
| 41> *
| 42>
| 43>                          ****END OF INPUT****

CARTESIAN COORDINATES (ANGSTROEM)
---------------------------------
  S     -6.366360   55.782300   28.875800
  C     -5.631660   54.330300   28.260800
  C     -4.607300   53.922600   29.084800
  C     -4.381190   54.731100   30.223500
  C     -5.280640   55.806600   30.233200
  H     -3.725710   54.643500   31.056300
  C     -3.910640   52.577500   29.002700
  H     -4.640130   51.975900   28.478000
  H     -3.758830   52.200900   30.061000
  C     -2.510270   52.627400   28.303300
  H     -2.535950   53.255500   27.381300
  H     -1.790030   53.087700   28.919700
  C     -2.063440   51.283100   27.738400
  H     -0.940640   51.335300   27.572800
  H     -2.107810   50.554000   28.528000
  H     -2.673890   50.905700   26.903400
  S     -4.863730   58.494500   30.436700
  C     -5.146180   59.278200   32.021700
  C     -5.352470   58.375100   33.006100
  C     -5.472390   56.981600   32.527700
  C     -5.272130   56.945100   31.149100
  H     -5.518320   58.718100   34.017800
  C     -5.661140   55.909600   33.558300
  H     -4.991090   55.829200   34.395900
  H     -5.441810   54.943500   32.999700
  C     -7.055370   55.636800   34.038000
  H     -7.016390   54.680000   34.604200
  H     -7.801930   55.582300   33.284400
  C     -7.680100   56.605900   34.963800
  H     -8.719620   56.373700   35.188700
  H     -7.635380   57.667600   34.611100
  H     -7.091960   56.586600   35.877500
  H     -6.030140   53.780200   27.496500
  H     -5.149000   60.348300   32.003100

 Total Charge           Charge          ....    0
 Multiplicity           Mult            ....    1
 Number of Electrons    NEL             ....  134
 Basis Dimension        Dim             ....  322

ORBITAL ENERGIES
----------------

  NO   OCC          E(Eh)            E(eV)
   0   2.0000     -88.966520     -2420.9021
   1   2.0000     -88.961832     -2420.7745
   2   2.0000     -10.329373      -281.0765
   3   2.0000     -10.326923      -281.0099
   4   2.0000     -10.316323      -280.7214
   5   2.0000     -10.309383      -280.5326
   6   2.0000     -10.306773      -280.4616
   7   2.0000     -10.298365      -280.2327
   8   2.0000     -10.295073      -280.1432
   9   2.0000     -10.295015      -280.1416
  10   2.0000     -10.293499      -280.1004
  11   2.0000     -10.292176      -280.0643
  12   2.0000     -10.284587      -279.8578
  13   2.0000     -10.280447      -279.7452
  14   2.0000     -10.276906      -279.6488
  15   2.0000     -10.270760      -279.4816
  16   2.0000      -8.081585      -219.9111
  17   2.0000      -8.076545      -219.7740
  18   2.0000      -6.039926      -164.3547
  19   2.0000      -6.035954      -164.2467
  20   2.0000      -6.035134      -164.2244
  21   2.0000      -6.032600      -164.1554
  22   2.0000      -6.031203      -164.1174
  23   2.0000      -6.027077      -164.0051
  24   2.0000      -1.006001       -27.3747
  25   2.0000      -0.981318       -26.7030
  26   2.0000      -0.917961       -24.9790
  27   2.0000      -0.907155       -24.6849
  28   2.0000      -0.869891       -23.6709
  29   2.0000      -0.853699       -23.2303
  30   2.0000      -0.847877       -23.0719
  31   2.0000      -0.816802       -22.2263
  32   2.0000      -0.784781       -21.3550
  33   2.0000      -0.769905       -20.9502
  34   2.0000      -0.705965       -19.2103
  35   2.0000      -0.697657       -18.9842
  36   2.0000      -0.684105       -18.6154
  37   2.0000      -0.664129       -18.0719
  38   2.0000      -0.650631       -17.7046
  39   2.0000      -0.616827       -16.7847
  40   2.0000      -0.604497       -16.4492
  41   2.0000      -0.568948       -15.4819
  42   2.0000      -0.559964       -15.2374
  43   2.0000      -0.555687       -15.1210
  44   2.0000      -0.543786       -14.7972
  45   2.0000      -0.527567       -14.3558
  46   2.0000      -0.521990       -14.2041
  47   2.0000      -0.513461       -13.9720
  48   2.0000      -0.504428       -13.7262
  49   2.0000      -0.498197       -13.5566
  50   2.0000      -0.493919       -13.4402
  51   2.0000      -0.485491       -13.2109
  52   2.0000      -0.472297       -12.8519
  53   2.0000      -0.466022       -12.6811
  54   2.0000      -0.459959       -12.5161
  55   2.0000      -0.444810       -12.1039
  56   2.0000      -0.438545       -11.9334
  57   2.0000      -0.435509       -11.8508
  58   2.0000      -0.433856       -11.8058
  59   2.0000      -0.419181       -11.4065
  60   2.0000      -0.415000       -11.2927
  61   2.0000      -0.410199       -11.1621
  62   2.0000      -0.403720       -10.9858
  63   2.0000      -0.343240        -9.3400
  64   2.0000      -0.328719        -8.9449
  65   2.0000      -0.327386        -8.9086
  66   2.0000      -0.298968        -8.1353
  67   0.0000       0.035807         0.9744
  68   0.0000       0.065079         1.7709
  69   0.0000       0.105613         2.8739
  70   0.0000       0.113560         3.0901
  71   0.0000       0.131221         3.5707

MULLIKEN ATOMIC CHARGES
-----------------------
   0 S :    0.120197
   1 C :   -0.089166
   2 C :   -0.065801
   3 C :    0.059222
   4 C :   -0.193755
   5 H :    0.007059
   6 C :    0.044244
   7 H :    0.016485
   8 H :    0.041444
   9 C :   -0.064473
  10 H :    0.033533
  11 H :    0.019511
  12 C :   -0.053482
  13 H :    0.039402
  14 H :    0.012376
  15 H :    0.047617
  16 S :    0.094770
  17 C :   -0.095599
  18 C :   -0.011146
  19 C :   -0.009086
  20 C :   -0.168017
  21 H :    0.024627
  22 C :    0.059149
  23 H :    0.031163
  24 H :    0.022435
  25 C :   -0.057131
  26 H :    0.028335
  27 H :    0.020306
  28 C :   -0.059284
  29 H :    0.036740
  30 H :    0.030299
  31 H :    0.009934
  32 H :    0.013879
  33 H :    0.054213
Sum of atomic charges:    0.0000000

LOEWDIN ATOMIC CHARGES
----------------------
   0 S :    0.422472
   1 C :   -0.191876
   2 C :   -0.060129
   3 C :   -0.056583
   4 C :   -0.198240
   5 H :    0.029389
   6 C :   -0.029531
   7 H :    0.026136
   8 H :    0.037700
   9 C :   -0.042182
  10 H :    0.029203
  11 H :    0.017410
  12 C :   -0.071113
  13 H :    0.036216
  14 H :    0.015781
  15 H :    0.028756
  16 S :    0.379373
  17 C :   -0.162086
  18 C :   -0.066207
  19 C :   -0.052886
  20 C :   -0.195312
  21 H :    0.031301
  22 C :   -0.040083
  23 H :    0.031978
  24 H :    0.042164
  25 C :   -0.043236
  26 H :    0.030072
  27 H :    0.021877
  28 C :   -0.070631
  29 H :    0.026865
  30 H :    0.024868
  31 H :    0.016742
  32 H :    0.009662
  33 H :    0.022129

  Mayer bond orders larger than 0.100000
B(  0-S ,  1-C ) :   1.1373 B(  0-S ,  4-C ) :   1.1823 B(  1-C ,  2-C ) :   1.5969
B(  1-C ,  4-C ) :   0.1008 B(  1-C , 32-H ) :   0.9818 B(  2-C ,  3-C ) :   1.2401
B(  2-C ,  6-C ) :   1.0148 B(  3-C ,  4-C ) :   1.5582 B(  3-C ,  5-H ) :   0.9992
B(  4-C , 20-C ) :   1.0101 B(  6-C ,  7-H ) :   0.9490 B(  6-C ,  8-H ) :   0.9452
B(  6-C ,  9-C ) :   1.0471 B(  9-C , 10-H ) :   0.9615 B(  9-C , 11-H ) :   0.9562
B(  9-C , 12-C ) :   1.0838 B( 12-C , 13-H ) :   0.9717 B( 12-C , 14-H ) :   0.9720
B( 12-C , 15-H ) :   0.9774 B( 16-S , 17-C ) :   1.1214 B( 16-S , 20-C ) :   1.1491
B( 17-C , 18-C ) :   1.6488 B( 17-C , 33-H ) :   0.9745 B( 18-C , 19-C ) :   1.1777
B( 18-C , 21-H ) :   0.9874 B( 19-C , 20-C ) :   1.6420 B( 19-C , 22-C ) :   1.0397
B( 22-C , 23-H ) :   0.9432 B( 22-C , 24-H ) :   0.9181 B( 22-C , 25-C ) :   1.0866
B( 25-C , 26-H ) :   0.9517 B( 25-C , 27-H ) :   0.9504 B( 25-C , 28-C ) :   1.0931
B( 28-C , 29-H ) :   0.9718 B( 28-C , 30-H ) :   0.9679 B( 28-C , 31-H ) :   0.9716

Dispersion correction           -0.013789443
FINAL SINGLE POINT ENERGY     -1339.866608349177

DIPOLE MOMENT
-------------
                                X             Y             Z
Electronic contribution:     -4.70102      19.52777     -10.07085
Nuclear contribution   :      4.82240     -19.93942      10.46074
                        -----------------------------------------
Total Dipole Moment    :      0.12139      -0.41165       0.38989
                        -----------------------------------------
Magnitude (a.u.)       :      0.57983
Magnitude (Debye)      :      1.47382

Rotational constants in cm-1:     0.021607     0.007122     0.006346
Rotational constants in MHz :   647.759997   213.498143   190.261549

                             ****ORCA TERMINATED NORMALLY****
TOTAL RUN TIME: 0 days 0 hours 0 minutes 33 seconds 14 msec
