                         Program Version 4.2.1 -  RELEASE  -
|  1> ! wB97X-D3 SP def2-SVP
|  2> %pal
|  3> nprocs 16
|  4> end
|  5>
|  6> * xyz 0 1
|  7> S 	 5.2148 	 -4.17602 	 99.5872
|  8> C 	 4.40416 	 -4.04317 	 98.0852
|  9> C 	 4.74122 	 -5.06714 	 97.1938
| 10> C 	 5.80759 	 -5.88264 	 97.6497
| 11> C 	 6.23866 	 -5.4459 	 98.9035
| 12> H 	 6.2527 	 -6.6403 	 97.0093
| 13> C 	 4.00285 	 -5.37028 	 95.9037
| 14> H 	 2.98586 	 -4.96916 	 95.984
| 15> H 	 3.80671 	 -6.44764 	 95.7931
| 16> C 	 4.69158 	 -4.86461 	 94.5913
| 17> H 	 4.91207 	 -3.80427 	 94.6342
| 18> H 	 5.70937 	 -5.28223 	 94.4945
| 19> C 	 3.87279 	 -5.13693 	 93.3584
| 20> H 	 3.91922 	 -6.15111 	 93.0917
| 21> H 	 2.84389 	 -4.77851 	 93.4186
| 22> H 	 4.43057 	 -4.74565 	 92.4743
| 23> S 	 7.19104 	 -5.95974 	 101.496
| 24> C 	 8.69813 	 -6.74396 	 101.78
| 25> C 	 9.37036 	 -6.86003 	 100.581
| 26> C 	 8.61845 	 -6.48137 	 99.4371
| 27> C 	 7.3404 	 -6.03859 	 99.7282
| 28> H 	 10.3436 	 -7.39514 	 100.608
| 29> C 	 9.19125 	 -6.58353 	 98.055
| 30> H 	 8.47808 	 -7.25744 	 97.517
| 31> H 	 10.2427 	 -7.00226 	 98.022
| 32> C 	 9.25521 	 -5.22815 	 97.4177
| 33> H 	 10.1416 	 -4.70792 	 97.9567
| 34> H 	 8.3771 	 -4.69146 	 97.591
| 35> C 	 9.57561 	 -5.28254 	 95.9394
| 36> H 	 10.6638 	 -5.5508 	 95.8762
| 37> H 	 9.56243 	 -4.26234 	 95.599
| 38> H 	 8.97468 	 -5.91963 	 95.3514
| 39> H 	 3.61666 	 -3.33964 	 97.858
| 40> H 	 9.14265 	 -7.04151 	 102.725
| 41> *
| 42>
| 43>                          ****END OF INPUT****

CARTESIAN COORDINATES (ANGSTROEM)
---------------------------------
  S      5.214800   -4.176020   99.587200
  C      4.404160   -4.043170   98.085200
  C      4.741220   -5.067140   97.193800
  C      5.807590   -5.882640   97.649700
  C      6.238660   -5.445900   98.903500
  H      6.252700   -6.640300   97.009300
  C      4.002850   -5.370280   95.903700
  H      2.985860   -4.969160   95.984000
  H      3.806710   -6.447640   95.793100
  C      4.691580   -4.864610   94.591300
  H      4.912070   -3.804270   94.634200
  H      5.709370   -5.282230   94.494500
  C      3.872790   -5.136930   93.358400
  H      3.919220   -6.151110   93.091700
  H      2.843890   -4.778510   93.418600
  H      4.430570   -4.745650   92.474300
  S      7.191040   -5.959740  101.496000
  C      8.698130   -6.743960  101.780000
  C      9.370360   -6.860030  100.581000
  C      8.618450   -6.481370   99.437100
  C      7.340400   -6.038590   99.728200
  H     10.343600   -7.395140  100.608000
  C      9.191250   -6.583530   98.055000
  H      8.478080   -7.257440   97.517000
  H     10.242700   -7.002260   98.022000
  C      9.255210   -5.228150   97.417700
  H     10.141600   -4.707920   97.956700
  H      8.377100   -4.691460   97.591000
  C      9.575610   -5.282540   95.939400
  H     10.663800   -5.550800   95.876200
  H      9.562430   -4.262340   95.599000
  H      8.974680   -5.919630   95.351400
  H      3.616660   -3.339640   97.858000
  H      9.142650   -7.041510  102.725000

 Total Charge           Charge          ....    0
 Multiplicity           Mult            ....    1
 Number of Electrons    NEL             ....  134
 Basis Dimension        Dim             ....  322

ORBITAL ENERGIES
----------------

  NO   OCC          E(Eh)            E(eV)
   0   2.0000     -88.973721     -2421.0980
   1   2.0000     -88.962995     -2420.8062
   2   2.0000     -10.339630      -281.3556
   3   2.0000     -10.329624      -281.0834
   4   2.0000     -10.315536      -280.7000
   5   2.0000     -10.312801      -280.6256
   6   2.0000     -10.300989      -280.3042
   7   2.0000     -10.300180      -280.2822
   8   2.0000     -10.298660      -280.2408
   9   2.0000     -10.295270      -280.1485
  10   2.0000     -10.292059      -280.0612
  11   2.0000     -10.291707      -280.0516
  12   2.0000     -10.287662      -279.9415
  13   2.0000     -10.277147      -279.6554
  14   2.0000     -10.276269      -279.6315
  15   2.0000     -10.271745      -279.5084
  16   2.0000      -8.088435      -220.0975
  17   2.0000      -8.077818      -219.8086
  18   2.0000      -6.046900      -164.5445
  19   2.0000      -6.043061      -164.4401
  20   2.0000      -6.039131      -164.3331
  21   2.0000      -6.036373      -164.2581
  22   2.0000      -6.032274      -164.1465
  23   2.0000      -6.028579      -164.0460
  24   2.0000      -1.007757       -27.4225
  25   2.0000      -0.987794       -26.8792
  26   2.0000      -0.915893       -24.9227
  27   2.0000      -0.909363       -24.7450
  28   2.0000      -0.866069       -23.5669
  29   2.0000      -0.858458       -23.3598
  30   2.0000      -0.848538       -23.0899
  31   2.0000      -0.815774       -22.1983
  32   2.0000      -0.779923       -21.2228
  33   2.0000      -0.769404       -20.9366
  34   2.0000      -0.706209       -19.2169
  35   2.0000      -0.700947       -19.0737
  36   2.0000      -0.684137       -18.6163
  37   2.0000      -0.662121       -18.0172
  38   2.0000      -0.638009       -17.3611
  39   2.0000      -0.627142       -17.0654
  40   2.0000      -0.593165       -16.1408
  41   2.0000      -0.572977       -15.5915
  42   2.0000      -0.566941       -15.4273
  43   2.0000      -0.560425       -15.2499
  44   2.0000      -0.529473       -14.4077
  45   2.0000      -0.524661       -14.2767
  46   2.0000      -0.514139       -13.9904
  47   2.0000      -0.511219       -13.9110
  48   2.0000      -0.505259       -13.7488
  49   2.0000      -0.499467       -13.5912
  50   2.0000      -0.494875       -13.4662
  51   2.0000      -0.489199       -13.3118
  52   2.0000      -0.472421       -12.8552
  53   2.0000      -0.467523       -12.7219
  54   2.0000      -0.462772       -12.5927
  55   2.0000      -0.451021       -12.2729
  56   2.0000      -0.440151       -11.9771
  57   2.0000      -0.435178       -11.8418
  58   2.0000      -0.430912       -11.7257
  59   2.0000      -0.426139       -11.5958
  60   2.0000      -0.417004       -11.3472
  61   2.0000      -0.412935       -11.2365
  62   2.0000      -0.410714       -11.1761
  63   2.0000      -0.355302        -9.6683
  64   2.0000      -0.336226        -9.1492
  65   2.0000      -0.327174        -8.9029
  66   2.0000      -0.283454        -7.7132
  67   0.0000       0.023338         0.6351
  68   0.0000       0.070619         1.9216
  69   0.0000       0.102931         2.8009
  70   0.0000       0.120558         3.2805
  71   0.0000       0.125865         3.4250

MULLIKEN ATOMIC CHARGES
-----------------------
   0 S :    0.126805
   1 C :   -0.104913
   2 C :   -0.088586
   3 C :    0.015188
   4 C :   -0.131636
   5 H :    0.018148
   6 C :    0.042798
   7 H :    0.015240
   8 H :    0.030196
   9 C :   -0.079343
  10 H :    0.025196
  11 H :    0.021633
  12 C :   -0.022237
  13 H :    0.013600
  14 H :    0.042639
  15 H :    0.028994
  16 S :    0.082490
  17 C :   -0.083984
  18 C :   -0.058740
  19 C :   -0.036385
  20 C :   -0.129537
  21 H :    0.030469
  22 C :    0.044817
  23 H :    0.034192
  24 H :    0.027604
  25 C :   -0.120299
  26 H :    0.036753
  27 H :    0.042483
  28 C :    0.002224
  29 H :    0.022813
  30 H :    0.027510
  31 H :    0.023529
  32 H :    0.042217
  33 H :    0.058126
Sum of atomic charges:   -0.0000000

LOEWDIN ATOMIC CHARGES
----------------------
   0 S :    0.422517
   1 C :   -0.211302
   2 C :   -0.062422
   3 C :   -0.061940
   4 C :   -0.179629
   5 H :    0.034453
   6 C :   -0.035481
   7 H :    0.028568
   8 H :    0.033060
   9 C :   -0.043954
  10 H :    0.022026
  11 H :    0.024365
  12 C :   -0.067317
  13 H :    0.017673
  14 H :    0.027747
  15 H :    0.034919
  16 S :    0.398326
  17 C :   -0.192357
  18 C :   -0.083625
  19 C :   -0.061586
  20 C :   -0.190142
  21 H :    0.037259
  22 C :   -0.037268
  23 H :    0.029747
  24 H :    0.035207
  25 C :   -0.042624
  26 H :    0.036233
  27 H :    0.014129
  28 C :   -0.059905
  29 H :    0.030205
  30 H :    0.026944
  31 H :    0.014154
  32 H :    0.027087
  33 H :    0.034935

  Mayer bond orders larger than 0.100000
B(  0-S ,  1-C ) :   1.1415 B(  0-S ,  4-C ) :   1.1615 B(  1-C ,  2-C ) :   1.6014
B(  1-C , 32-H ) :   0.9653 B(  2-C ,  3-C ) :   1.2666 B(  2-C ,  6-C ) :   1.0296
B(  3-C ,  4-C ) :   1.5309 B(  3-C ,  5-H ) :   0.9952 B(  4-C , 20-C ) :   1.0488
B(  6-C ,  7-H ) :   0.9403 B(  6-C ,  8-H ) :   0.9453 B(  6-C ,  9-C ) :   1.0512
B(  9-C , 10-H ) :   0.9565 B(  9-C , 11-H ) :   0.9527 B(  9-C , 12-C ) :   1.0948
B( 12-C , 13-H ) :   0.9707 B( 12-C , 14-H ) :   0.9737 B( 12-C , 15-H ) :   0.9670
B( 16-S , 17-C ) :   1.1670 B( 16-S , 20-C ) :   1.1270 B( 17-C , 18-C ) :   1.5969
B( 17-C , 20-C ) :   0.1003 B( 17-C , 33-H ) :   0.9666 B( 18-C , 19-C ) :   1.2674
B( 18-C , 21-H ) :   0.9843 B( 19-C , 20-C ) :   1.5788 B( 19-C , 22-C ) :   1.0327
B( 22-C , 23-H ) :   0.9353 B( 22-C , 24-H ) :   0.9373 B( 22-C , 25-C ) :   1.0620
B( 25-C , 26-H ) :   0.9496 B( 25-C , 27-H ) :   0.9615 B( 25-C , 28-C ) :   1.0881
B( 28-C , 29-H ) :   0.9696 B( 28-C , 30-H ) :   0.9708 B( 28-C , 31-H ) :   0.9753

Dispersion correction           -0.014580419
FINAL SINGLE POINT ENERGY     -1339.880246784808

DIPOLE MOMENT
-------------
                                X             Y             Z
Electronic contribution:     -3.70734       0.95745      32.13573
Nuclear contribution   :      3.86058      -1.10855     -32.74291
                        -----------------------------------------
Total Dipole Moment    :      0.15324      -0.15110      -0.60718
                        -----------------------------------------
Magnitude (a.u.)       :      0.64420
Magnitude (Debye)      :      1.63742

Rotational constants in cm-1:     0.020847     0.008718     0.006648
Rotational constants in MHz :   624.966550   261.355254   199.289256

                             ****ORCA TERMINATED NORMALLY****
TOTAL RUN TIME: 0 days 0 hours 0 minutes 35 seconds 3 msec
