                         Program Version 4.2.1 -  RELEASE  -
|  1> ! wB97X-D3 SP def2-SVP
|  2> %pal
|  3> nprocs 16
|  4> end
|  5>
|  6> * xyz 0 1
|  7> S 	 -32.2065 	 64.9062 	 117.322
|  8> C 	 -33.8245 	 64.2484 	 117.413
|  9> C 	 -34.4536 	 64.1578 	 116.214
| 10> C 	 -33.5935 	 64.5899 	 115.155
| 11> C 	 -32.3229 	 65.015 	 115.584
| 12> H 	 -33.7107 	 64.5765 	 114.091
| 13> C 	 -35.8824 	 63.6279 	 116.067
| 14> H 	 -36.5593 	 64.4499 	 116.014
| 15> H 	 -36.1137 	 63.1224 	 117.015
| 16> C 	 -36.2025 	 62.6219 	 114.939
| 17> H 	 -37.2501 	 62.4089 	 115.006
| 18> H 	 -36.0802 	 63.089 	 113.948
| 19> C 	 -35.4597 	 61.3578 	 115.243
| 20> H 	 -34.3758 	 61.5377 	 115.057
| 21> H 	 -35.515 	 60.8966 	 116.166
| 22> H 	 -35.8508 	 60.6166 	 114.548
| 23> S 	 -29.5696 	 64.5799 	 115.582
| 24> C 	 -28.5998 	 65.2822 	 114.257
| 25> C 	 -29.4056 	 65.8615 	 113.341
| 26> C 	 -30.7614 	 65.7983 	 113.626
| 27> C 	 -31.098 	 65.1744 	 114.809
| 28> H 	 -29.0076 	 66.4954 	 112.585
| 29> C 	 -31.8206 	 66.5492 	 112.804
| 30> H 	 -32.7133 	 65.8775 	 112.665
| 31> H 	 -31.3917 	 66.5547 	 111.838
| 32> C 	 -32.0693 	 67.9187 	 113.345
| 33> H 	 -31.1082 	 68.4489 	 113.182
| 34> H 	 -32.2071 	 67.9171 	 114.392
| 35> C 	 -33.2036 	 68.5849 	 112.609
| 36> H 	 -34.1191 	 67.9104 	 112.603
| 37> H 	 -32.9398 	 68.7267 	 111.588
| 38> H 	 -33.3051 	 69.5682 	 113.034
| 39> H 	 -34.1273 	 63.793 	 118.248
| 40> H 	 -27.5129 	 65.3268 	 114.15
| 41> *
| 42>
| 43>                          ****END OF INPUT****

CARTESIAN COORDINATES (ANGSTROEM)
---------------------------------
  S    -32.206500   64.906200  117.322000
  C    -33.824500   64.248400  117.413000
  C    -34.453600   64.157800  116.214000
  C    -33.593500   64.589900  115.155000
  C    -32.322900   65.015000  115.584000
  H    -33.710700   64.576500  114.091000
  C    -35.882400   63.627900  116.067000
  H    -36.559300   64.449900  116.014000
  H    -36.113700   63.122400  117.015000
  C    -36.202500   62.621900  114.939000
  H    -37.250100   62.408900  115.006000
  H    -36.080200   63.089000  113.948000
  C    -35.459700   61.357800  115.243000
  H    -34.375800   61.537700  115.057000
  H    -35.515000   60.896600  116.166000
  H    -35.850800   60.616600  114.548000
  S    -29.569600   64.579900  115.582000
  C    -28.599800   65.282200  114.257000
  C    -29.405600   65.861500  113.341000
  C    -30.761400   65.798300  113.626000
  C    -31.098000   65.174400  114.809000
  H    -29.007600   66.495400  112.585000
  C    -31.820600   66.549200  112.804000
  H    -32.713300   65.877500  112.665000
  H    -31.391700   66.554700  111.838000
  C    -32.069300   67.918700  113.345000
  H    -31.108200   68.448900  113.182000
  H    -32.207100   67.917100  114.392000
  C    -33.203600   68.584900  112.609000
  H    -34.119100   67.910400  112.603000
  H    -32.939800   68.726700  111.588000
  H    -33.305100   69.568200  113.034000
  H    -34.127300   63.793000  118.248000
  H    -27.512900   65.326800  114.150000

 Total Charge           Charge          ....    0
 Multiplicity           Mult            ....    1
 Number of Electrons    NEL             ....  134
 Basis Dimension        Dim             ....  322

ORBITAL ENERGIES
----------------

  NO   OCC          E(Eh)            E(eV)
   0   2.0000     -88.965030     -2420.8615
   1   2.0000     -88.963714     -2420.8257
   2   2.0000     -10.332067      -281.1498
   3   2.0000     -10.329176      -281.0712
   4   2.0000     -10.317902      -280.7644
   5   2.0000     -10.303657      -280.3768
   6   2.0000     -10.302391      -280.3423
   7   2.0000     -10.296804      -280.1903
   8   2.0000     -10.295910      -280.1660
   9   2.0000     -10.290899      -280.0296
  10   2.0000     -10.287236      -279.9299
  11   2.0000     -10.286520      -279.9104
  12   2.0000     -10.285329      -279.8780
  13   2.0000     -10.278369      -279.6886
  14   2.0000     -10.275429      -279.6086
  15   2.0000     -10.269487      -279.4469
  16   2.0000      -8.080157      -219.8723
  17   2.0000      -8.076967      -219.7855
  18   2.0000      -6.038564      -164.3177
  19   2.0000      -6.035695      -164.2396
  20   2.0000      -6.034649      -164.2112
  21   2.0000      -6.031680      -164.1304
  22   2.0000      -6.030949      -164.1105
  23   2.0000      -6.027550      -164.0180
  24   2.0000      -1.006071       -27.3766
  25   2.0000      -0.984207       -26.7816
  26   2.0000      -0.916707       -24.9449
  27   2.0000      -0.914867       -24.8948
  28   2.0000      -0.874658       -23.8007
  29   2.0000      -0.852000       -23.1841
  30   2.0000      -0.843650       -22.9569
  31   2.0000      -0.818706       -22.2781
  32   2.0000      -0.783731       -21.3264
  33   2.0000      -0.772543       -21.0220
  34   2.0000      -0.714211       -19.4347
  35   2.0000      -0.701650       -19.0929
  36   2.0000      -0.696486       -18.9523
  37   2.0000      -0.664208       -18.0740
  38   2.0000      -0.650503       -17.7011
  39   2.0000      -0.618875       -16.8405
  40   2.0000      -0.593612       -16.1530
  41   2.0000      -0.570280       -15.5181
  42   2.0000      -0.563632       -15.3372
  43   2.0000      -0.557002       -15.1568
  44   2.0000      -0.543229       -14.7820
  45   2.0000      -0.535773       -14.5791
  46   2.0000      -0.522718       -14.2239
  47   2.0000      -0.513075       -13.9615
  48   2.0000      -0.503908       -13.7120
  49   2.0000      -0.495182       -13.4746
  50   2.0000      -0.494200       -13.4479
  51   2.0000      -0.490019       -13.3341
  52   2.0000      -0.469797       -12.7838
  53   2.0000      -0.467304       -12.7160
  54   2.0000      -0.455187       -12.3863
  55   2.0000      -0.451668       -12.2905
  56   2.0000      -0.443192       -12.0599
  57   2.0000      -0.441605       -12.0167
  58   2.0000      -0.435178       -11.8418
  59   2.0000      -0.421940       -11.4816
  60   2.0000      -0.416695       -11.3388
  61   2.0000      -0.413331       -11.2473
  62   2.0000      -0.406562       -11.0631
  63   2.0000      -0.353448        -9.6178
  64   2.0000      -0.333710        -9.0807
  65   2.0000      -0.332438        -9.0461
  66   2.0000      -0.284956        -7.7541
  67   0.0000       0.018905         0.5144
  68   0.0000       0.074166         2.0181
  69   0.0000       0.107602         2.9280
  70   0.0000       0.125168         3.4060
  71   0.0000       0.135558         3.6887

MULLIKEN ATOMIC CHARGES
-----------------------
   0 S :    0.097414
   1 C :   -0.083360
   2 C :   -0.061609
   3 C :    0.024853
   4 C :   -0.140107
   5 H :   -0.003230
   6 C :    0.070053
   7 H :    0.033274
   8 H :    0.009282
   9 C :   -0.061298
  10 H :    0.020799
  11 H :    0.038396
  12 C :   -0.035159
  13 H :    0.045924
  14 H :    0.016372
  15 H :    0.026596
  16 S :    0.079713
  17 C :   -0.086997
  18 C :   -0.017989
  19 C :   -0.066944
  20 C :   -0.140440
  21 H :    0.007694
  22 C :    0.054849
  23 H :    0.020949
  24 H :    0.001501
  25 C :   -0.044572
  26 H :    0.019578
  27 H :    0.030199
  28 C :   -0.003209
  29 H :    0.039819
  30 H :    0.014073
  31 H :    0.033705
  32 H :    0.000966
  33 H :    0.058904
Sum of atomic charges:    0.0000000

LOEWDIN ATOMIC CHARGES
----------------------
   0 S :    0.406357
   1 C :   -0.174315
   2 C :   -0.057330
   3 C :   -0.061782
   4 C :   -0.190168
   5 H :    0.023751
   6 C :   -0.025506
   7 H :    0.027115
   8 H :    0.029902
   9 C :   -0.040311
  10 H :    0.023350
  11 H :    0.027682
  12 C :   -0.062827
  13 H :    0.034448
  14 H :    0.016236
  15 H :    0.026977
  16 S :    0.360324
  17 C :   -0.170333
  18 C :   -0.076896
  19 C :   -0.060543
  20 C :   -0.174321
  21 H :    0.029219
  22 C :   -0.029182
  23 H :    0.028011
  24 H :    0.021421
  25 C :   -0.038008
  26 H :    0.029923
  27 H :    0.021166
  28 C :   -0.059983
  29 H :    0.033687
  30 H :    0.019210
  31 H :    0.026562
  32 H :   -0.000014
  33 H :    0.036178

  Mayer bond orders larger than 0.100000
B(  0-S ,  1-C ) :   1.1371 B(  0-S ,  4-C ) :   1.1468 B(  1-C ,  2-C ) :   1.6201
B(  1-C , 32-H ) :   0.9777 B(  2-C ,  3-C ) :   1.2236 B(  2-C ,  6-C ) :   1.0094
B(  3-C ,  4-C ) :   1.5635 B(  3-C ,  5-H ) :   0.9950 B(  4-C , 20-C ) :   1.0734
B(  6-C ,  7-H ) :   0.9357 B(  6-C ,  8-H ) :   0.9423 B(  6-C ,  9-C ) :   1.0853
B(  9-C , 10-H ) :   0.9512 B(  9-C , 11-H ) :   0.9517 B(  9-C , 12-C ) :   1.0754
B( 12-C , 13-H ) :   0.9734 B( 12-C , 14-H ) :   0.9754 B( 12-C , 15-H ) :   0.9724
B( 16-S , 17-C ) :   1.1375 B( 16-S , 20-C ) :   1.1111 B( 17-C , 18-C ) :   1.6212
B( 17-C , 33-H ) :   0.9609 B( 18-C , 19-C ) :   1.2735 B( 18-C , 21-H ) :   0.9859
B( 19-C , 20-C ) :   1.6015 B( 19-C , 22-C ) :   1.0299 B( 22-C , 23-H ) :   0.9373
B( 22-C , 24-H ) :   0.9220 B( 22-C , 25-C ) :   1.0624 B( 25-C , 26-H ) :   0.9424
B( 25-C , 27-H ) :   0.9597 B( 25-C , 28-C ) :   1.0861 B( 28-C , 29-H ) :   0.9732
B( 28-C , 30-H ) :   0.9704 B( 28-C , 31-H ) :   0.9708

Dispersion correction           -0.014435247
FINAL SINGLE POINT ENERGY     -1339.864204824725

DIPOLE MOMENT
-------------
                                X             Y             Z
Electronic contribution:     20.10244      -1.54387      14.25339
Nuclear contribution   :    -20.49546       1.63188     -14.70564
                        -----------------------------------------
Total Dipole Moment    :     -0.39302       0.08801      -0.45225
                        -----------------------------------------
Magnitude (a.u.)       :      0.60559
Magnitude (Debye)      :      1.53928

Rotational constants in cm-1:     0.017988     0.008999     0.007318
Rotational constants in MHz :   539.271150   269.786021   219.379690

                             ****ORCA TERMINATED NORMALLY****
TOTAL RUN TIME: 0 days 0 hours 0 minutes 27 seconds 967 msec
