                         Program Version 4.2.1 -  RELEASE  -
|  1> ! wB97X-D3 SP def2-SVP
|  2> %pal
|  3> nprocs 16
|  4> end
|  5>
|  6> * xyz 0 1
|  7> S 	 -71.993 	 49.7007 	 138.71
|  8> C 	 -71.0399 	 51.169 	 138.45
|  9> C 	 -71.7866 	 52.2846 	 138.126
| 10> C 	 -73.1803 	 51.9021 	 138.116
| 11> C 	 -73.4611 	 50.6056 	 138.6
| 12> H 	 -73.9383 	 52.6181 	 137.875
| 13> C 	 -71.3249 	 53.7036 	 137.918
| 14> H 	 -70.9054 	 53.8102 	 136.912
| 15> H 	 -70.5285 	 53.8812 	 138.622
| 16> C 	 -72.3425 	 54.7523 	 138.182
| 17> H 	 -73.1309 	 54.746 	 137.409
| 18> H 	 -72.9465 	 54.5019 	 138.936
| 19> C 	 -71.7602 	 56.2218 	 138.369
| 20> H 	 -71.2291 	 56.6062 	 137.579
| 21> H 	 -72.5787 	 56.9444 	 138.587
| 22> H 	 -71.1864 	 56.285 	 139.23
| 23> S 	 -74.9722 	 48.2776 	 138.311
| 24> C 	 -76.668 	 48.3151 	 138.908
| 25> C 	 -77.0057 	 49.5174 	 139.45
| 26> C 	 -75.8733 	 50.3798 	 139.464
| 27> C 	 -74.7581 	 49.9656 	 138.752
| 28> H 	 -78.0078 	 49.8351 	 139.735
| 29> C 	 -76.0668 	 51.7206 	 140.067
| 30> H 	 -77.1075 	 51.9785 	 140.08
| 31> H 	 -75.6618 	 52.4939 	 139.4
| 32> C 	 -75.4565 	 51.8326 	 141.463
| 33> H 	 -75.4062 	 52.8843 	 141.77
| 34> H 	 -74.3691 	 51.4863 	 141.365
| 35> C 	 -76.1248 	 51.135 	 142.646
| 36> H 	 -75.7676 	 51.362 	 143.608
| 37> H 	 -76.1301 	 49.9894 	 142.485
| 38> H 	 -77.1389 	 51.4397 	 142.822
| 39> H 	 -69.9374 	 51.3503 	 138.457
| 40> H 	 -77.4042 	 47.5216 	 138.832
| 41> *
| 42>
| 43>                          ****END OF INPUT****

CARTESIAN COORDINATES (ANGSTROEM)
---------------------------------
  S    -71.993000   49.700700  138.710000
  C    -71.039900   51.169000  138.450000
  C    -71.786600   52.284600  138.126000
  C    -73.180300   51.902100  138.116000
  C    -73.461100   50.605600  138.600000
  H    -73.938300   52.618100  137.875000
  C    -71.324900   53.703600  137.918000
  H    -70.905400   53.810200  136.912000
  H    -70.528500   53.881200  138.622000
  C    -72.342500   54.752300  138.182000
  H    -73.130900   54.746000  137.409000
  H    -72.946500   54.501900  138.936000
  C    -71.760200   56.221800  138.369000
  H    -71.229100   56.606200  137.579000
  H    -72.578700   56.944400  138.587000
  H    -71.186400   56.285000  139.230000
  S    -74.972200   48.277600  138.311000
  C    -76.668000   48.315100  138.908000
  C    -77.005700   49.517400  139.450000
  C    -75.873300   50.379800  139.464000
  C    -74.758100   49.965600  138.752000
  H    -78.007800   49.835100  139.735000
  C    -76.066800   51.720600  140.067000
  H    -77.107500   51.978500  140.080000
  H    -75.661800   52.493900  139.400000
  C    -75.456500   51.832600  141.463000
  H    -75.406200   52.884300  141.770000
  H    -74.369100   51.486300  141.365000
  C    -76.124800   51.135000  142.646000
  H    -75.767600   51.362000  143.608000
  H    -76.130100   49.989400  142.485000
  H    -77.138900   51.439700  142.822000
  H    -69.937400   51.350300  138.457000
  H    -77.404200   47.521600  138.832000

 Total Charge           Charge          ....    0
 Multiplicity           Mult            ....    1
 Number of Electrons    NEL             ....  134
 Basis Dimension        Dim             ....  322

ORBITAL ENERGIES
----------------

  NO   OCC          E(Eh)            E(eV)
   0   2.0000     -88.971813     -2421.0461
   1   2.0000     -88.967521     -2420.9293
   2   2.0000     -10.332746      -281.1683
   3   2.0000     -10.327661      -281.0299
   4   2.0000     -10.321025      -280.8494
   5   2.0000     -10.316255      -280.7196
   6   2.0000     -10.301233      -280.3108
   7   2.0000     -10.296943      -280.1941
   8   2.0000     -10.295186      -280.1463
   9   2.0000     -10.293536      -280.1014
  10   2.0000     -10.292670      -280.0778
  11   2.0000     -10.287554      -279.9386
  12   2.0000     -10.284338      -279.8511
  13   2.0000     -10.282660      -279.8054
  14   2.0000     -10.276486      -279.6374
  15   2.0000     -10.274165      -279.5742
  16   2.0000      -8.086131      -220.0348
  17   2.0000      -8.081392      -219.9059
  18   2.0000      -6.044785      -164.4870
  19   2.0000      -6.040782      -164.3780
  20   2.0000      -6.040087      -164.3591
  21   2.0000      -6.036669      -164.2661
  22   2.0000      -6.036130      -164.2515
  23   2.0000      -6.031894      -164.1362
  24   2.0000      -1.006586       -27.3906
  25   2.0000      -0.983423       -26.7603
  26   2.0000      -0.921516       -25.0757
  27   2.0000      -0.906995       -24.6806
  28   2.0000      -0.872583       -23.7442
  29   2.0000      -0.846840       -23.0437
  30   2.0000      -0.844721       -22.9860
  31   2.0000      -0.814082       -22.1523
  32   2.0000      -0.790767       -21.5179
  33   2.0000      -0.775434       -21.1006
  34   2.0000      -0.725924       -19.7534
  35   2.0000      -0.703859       -19.1530
  36   2.0000      -0.684990       -18.6395
  37   2.0000      -0.665024       -18.0962
  38   2.0000      -0.634924       -17.2772
  39   2.0000      -0.622256       -16.9324
  40   2.0000      -0.595581       -16.2066
  41   2.0000      -0.575934       -15.6720
  42   2.0000      -0.568826       -15.4785
  43   2.0000      -0.548741       -14.9320
  44   2.0000      -0.541098       -14.7240
  45   2.0000      -0.524869       -14.2824
  46   2.0000      -0.514484       -13.9998
  47   2.0000      -0.509253       -13.8575
  48   2.0000      -0.505110       -13.7448
  49   2.0000      -0.497463       -13.5366
  50   2.0000      -0.488833       -13.3018
  51   2.0000      -0.485916       -13.2225
  52   2.0000      -0.470359       -12.7991
  53   2.0000      -0.467211       -12.7135
  54   2.0000      -0.461908       -12.5691
  55   2.0000      -0.452178       -12.3044
  56   2.0000      -0.451841       -12.2952
  57   2.0000      -0.442960       -12.0536
  58   2.0000      -0.431844       -11.7511
  59   2.0000      -0.423965       -11.5367
  60   2.0000      -0.421099       -11.4587
  61   2.0000      -0.412309       -11.2195
  62   2.0000      -0.404870       -11.0171
  63   2.0000      -0.350667        -9.5421
  64   2.0000      -0.333476        -9.0743
  65   2.0000      -0.331041        -9.0081
  66   2.0000      -0.285976        -7.7818
  67   0.0000       0.023405         0.6369
  68   0.0000       0.071397         1.9428
  69   0.0000       0.094733         2.5778
  70   0.0000       0.119006         3.2383
  71   0.0000       0.134377         3.6566

MULLIKEN ATOMIC CHARGES
-----------------------
   0 S :    0.123247
   1 C :   -0.122518
   2 C :   -0.126718
   3 C :    0.012297
   4 C :   -0.133794
   5 H :    0.003446
   6 C :    0.118358
   7 H :    0.045065
   8 H :    0.020207
   9 C :   -0.077888
  10 H :    0.022706
  11 H :   -0.006115
  12 C :   -0.002551
  13 H :    0.021751
  14 H :    0.028802
  15 H :    0.017252
  16 S :    0.089016
  17 C :   -0.081005
  18 C :   -0.012336
  19 C :   -0.080199
  20 C :   -0.119859
  21 H :    0.028744
  22 C :    0.090280
  23 H :    0.003061
  24 H :    0.017088
  25 C :   -0.090985
  26 H :    0.023680
  27 H :    0.050357
  28 C :   -0.038496
  29 H :    0.020118
  30 H :    0.047536
  31 H :    0.007638
  32 H :    0.048220
  33 H :    0.053596
Sum of atomic charges:   -0.0000000

LOEWDIN ATOMIC CHARGES
----------------------
   0 S :    0.413807
   1 C :   -0.204601
   2 C :   -0.060956
   3 C :   -0.060938
   4 C :   -0.199603
   5 H :    0.020696
   6 C :   -0.030337
   7 H :    0.038720
   8 H :    0.032498
   9 C :   -0.035716
  10 H :    0.025314
  11 H :    0.006934
  12 C :   -0.048412
  13 H :    0.014399
  14 H :    0.035036
  15 H :    0.016881
  16 S :    0.378261
  17 C :   -0.162968
  18 C :   -0.067304
  19 C :   -0.056992
  20 C :   -0.197829
  21 H :    0.037323
  22 C :   -0.034226
  23 H :    0.023149
  24 H :    0.031754
  25 C :   -0.043788
  26 H :    0.022765
  27 H :    0.035777
  28 C :   -0.073768
  29 H :    0.021235
  30 H :    0.035191
  31 H :    0.019239
  32 H :    0.038087
  33 H :    0.030371

  Mayer bond orders larger than 0.100000
B(  0-S ,  1-C ) :   1.1310 B(  0-S ,  4-C ) :   1.1431 B(  1-C ,  2-C ) :   1.6435
B(  1-C , 32-H ) :   0.9552 B(  2-C ,  3-C ) :   1.2623 B(  2-C ,  6-C ) :   1.0072
B(  3-C ,  4-C ) :   1.5461 B(  3-C ,  5-H ) :   0.9842 B(  4-C , 20-C ) :   1.0639
B(  6-C ,  7-H ) :   0.9208 B(  6-C ,  8-H ) :   0.9418 B(  6-C ,  9-C ) :   1.0918
B(  9-C , 10-H ) :   0.9373 B(  9-C , 11-H ) :   0.9512 B(  9-C , 12-C ) :   1.0779
B( 12-C , 13-H ) :   0.9792 B( 12-C , 14-H ) :   0.9728 B( 12-C , 15-H ) :   0.9752
B( 16-S , 17-C ) :   1.1427 B( 16-S , 20-C ) :   1.1054 B( 17-C , 18-C ) :   1.6222
B( 17-C , 33-H ) :   0.9630 B( 18-C , 19-C ) :   1.2371 B( 18-C , 21-H ) :   0.9863
B( 19-C , 20-C ) :   1.6139 B( 19-C , 22-C ) :   1.0453 B( 22-C , 23-H ) :   0.9341
B( 22-C , 24-H ) :   0.9337 B( 22-C , 25-C ) :   1.0620 B( 25-C , 26-H ) :   0.9538
B( 25-C , 27-H ) :   0.9564 B( 25-C , 28-C ) :   1.0827 B( 28-C , 29-H ) :   0.9719
B( 28-C , 30-H ) :   0.9733 B( 28-C , 31-H ) :   0.9675

Dispersion correction           -0.014561211
FINAL SINGLE POINT ENERGY     -1339.855222682038

DIPOLE MOMENT
-------------
                                X             Y             Z
Electronic contribution:      2.53176     -27.91804     -10.13811
Nuclear contribution   :     -2.77078      28.73148      10.29837
                        -----------------------------------------
Total Dipole Moment    :     -0.23902       0.81344       0.16026
                        -----------------------------------------
Magnitude (a.u.)       :      0.86284
Magnitude (Debye)      :      2.19317

Rotational constants in cm-1:     0.018931     0.008845     0.006928
Rotational constants in MHz :   567.525157   265.156887   207.693868

                             ****ORCA TERMINATED NORMALLY****
TOTAL RUN TIME: 0 days 0 hours 0 minutes 35 seconds 546 msec
