                         Program Version 4.2.1 -  RELEASE  -
|  1> ! wB97X-D3 SP def2-SVP
|  2> %pal
|  3> nprocs 16
|  4> end
|  5>
|  6> * xyz 0 1
|  7> S 	 -72.6515 	 36.0849 	 126.139
|  8> C 	 -70.8923 	 35.7966 	 125.898
|  9> C 	 -70.3257 	 36.9215 	 125.425
| 10> C 	 -71.2875 	 37.8742 	 124.978
| 11> C 	 -72.6338 	 37.5704 	 125.133
| 12> H 	 -70.921 	 38.8339 	 124.637
| 13> C 	 -68.8734 	 37.1256 	 125.231
| 14> H 	 -68.6338 	 38.1262 	 125.47
| 15> H 	 -68.6573 	 36.7984 	 124.186
| 16> C 	 -67.932 	 36.3599 	 126.116
| 17> H 	 -68.1949 	 36.4469 	 127.171
| 18> H 	 -68.1211 	 35.3103 	 125.956
| 19> C 	 -66.3808 	 36.5503 	 125.786
| 20> H 	 -66.0815 	 36.4508 	 124.754
| 21> H 	 -65.9948 	 37.4758 	 126.14
| 22> H 	 -65.8353 	 35.6667 	 126.215
| 23> S 	 -74.2494 	 39.1973 	 126.504
| 24> C 	 -75.3064 	 40.3172 	 125.599
| 25> C 	 -75.3677 	 39.996 	 124.28
| 26> C 	 -74.5055 	 38.9147 	 123.942
| 27> C 	 -73.7148 	 38.5331 	 125.019
| 28> H 	 -76.0013 	 40.6105 	 123.737
| 29> C 	 -74.2331 	 38.5967 	 122.55
| 30> H 	 -75.2271 	 38.4215 	 122.026
| 31> H 	 -73.783 	 37.5933 	 122.616
| 32> C 	 -73.3419 	 39.583 	 121.78
| 33> H 	 -72.3446 	 39.515 	 122.177
| 34> H 	 -73.6145 	 40.631 	 122.036
| 35> C 	 -73.3053 	 39.3493 	 120.282
| 36> H 	 -74.2275 	 39.568 	 119.703
| 37> H 	 -73.0982 	 38.2972 	 120.147
| 38> H 	 -72.5608 	 39.879 	 119.781
| 39> H 	 -70.3391 	 35.0202 	 126.274
| 40> H 	 -75.8849 	 41.0196 	 126.126
| 41> *
| 42>
| 43>                          ****END OF INPUT****

CARTESIAN COORDINATES (ANGSTROEM)
---------------------------------
  S    -72.651500   36.084900  126.139000
  C    -70.892300   35.796600  125.898000
  C    -70.325700   36.921500  125.425000
  C    -71.287500   37.874200  124.978000
  C    -72.633800   37.570400  125.133000
  H    -70.921000   38.833900  124.637000
  C    -68.873400   37.125600  125.231000
  H    -68.633800   38.126200  125.470000
  H    -68.657300   36.798400  124.186000
  C    -67.932000   36.359900  126.116000
  H    -68.194900   36.446900  127.171000
  H    -68.121100   35.310300  125.956000
  C    -66.380800   36.550300  125.786000
  H    -66.081500   36.450800  124.754000
  H    -65.994800   37.475800  126.140000
  H    -65.835300   35.666700  126.215000
  S    -74.249400   39.197300  126.504000
  C    -75.306400   40.317200  125.599000
  C    -75.367700   39.996000  124.280000
  C    -74.505500   38.914700  123.942000
  C    -73.714800   38.533100  125.019000
  H    -76.001300   40.610500  123.737000
  C    -74.233100   38.596700  122.550000
  H    -75.227100   38.421500  122.026000
  H    -73.783000   37.593300  122.616000
  C    -73.341900   39.583000  121.780000
  H    -72.344600   39.515000  122.177000
  H    -73.614500   40.631000  122.036000
  C    -73.305300   39.349300  120.282000
  H    -74.227500   39.568000  119.703000
  H    -73.098200   38.297200  120.147000
  H    -72.560800   39.879000  119.781000
  H    -70.339100   35.020200  126.274000
  H    -75.884900   41.019600  126.126000

 Total Charge           Charge          ....    0
 Multiplicity           Mult            ....    1
 Number of Electrons    NEL             ....  134
 Basis Dimension        Dim             ....  322

ORBITAL ENERGIES
----------------

  NO   OCC          E(Eh)            E(eV)
   0   2.0000     -88.962912     -2420.8039
   1   2.0000     -88.960652     -2420.7424
   2   2.0000     -10.333256      -281.1822
   3   2.0000     -10.323765      -280.9239
   4   2.0000     -10.312431      -280.6155
   5   2.0000     -10.309478      -280.5352
   6   2.0000     -10.298654      -280.2406
   7   2.0000     -10.294050      -280.1153
   8   2.0000     -10.293680      -280.1053
   9   2.0000     -10.289864      -280.0014
  10   2.0000     -10.288325      -279.9596
  11   2.0000     -10.287709      -279.9428
  12   2.0000     -10.287176      -279.9283
  13   2.0000     -10.286052      -279.8977
  14   2.0000     -10.285761      -279.8898
  15   2.0000     -10.271796      -279.5098
  16   2.0000      -8.076333      -219.7682
  17   2.0000      -8.076158      -219.7634
  18   2.0000      -6.035128      -164.2242
  19   2.0000      -6.034562      -164.2088
  20   2.0000      -6.031171      -164.1165
  21   2.0000      -6.030636      -164.1019
  22   2.0000      -6.026898      -164.0002
  23   2.0000      -6.026670      -163.9940
  24   2.0000      -1.008787       -27.4505
  25   2.0000      -0.985731       -26.8231
  26   2.0000      -0.917923       -24.9780
  27   2.0000      -0.910904       -24.7869
  28   2.0000      -0.874000       -23.7827
  29   2.0000      -0.853485       -23.2245
  30   2.0000      -0.842801       -22.9338
  31   2.0000      -0.820152       -22.3175
  32   2.0000      -0.783909       -21.3312
  33   2.0000      -0.770967       -20.9791
  34   2.0000      -0.720540       -19.6069
  35   2.0000      -0.706311       -19.2197
  36   2.0000      -0.697924       -18.9915
  37   2.0000      -0.666669       -18.1410
  38   2.0000      -0.639025       -17.3888
  39   2.0000      -0.618225       -16.8228
  40   2.0000      -0.596781       -16.2392
  41   2.0000      -0.583958       -15.8903
  42   2.0000      -0.573552       -15.6072
  43   2.0000      -0.556594       -15.1457
  44   2.0000      -0.528741       -14.3878
  45   2.0000      -0.524750       -14.2792
  46   2.0000      -0.520770       -14.1709
  47   2.0000      -0.515182       -14.0188
  48   2.0000      -0.510098       -13.8805
  49   2.0000      -0.501835       -13.6556
  50   2.0000      -0.501618       -13.6497
  51   2.0000      -0.474959       -12.9243
  52   2.0000      -0.466628       -12.6976
  53   2.0000      -0.466050       -12.6819
  54   2.0000      -0.453281       -12.3344
  55   2.0000      -0.450187       -12.2502
  56   2.0000      -0.441951       -12.0261
  57   2.0000      -0.440525       -11.9873
  58   2.0000      -0.432261       -11.7624
  59   2.0000      -0.425644       -11.5824
  60   2.0000      -0.423647       -11.5280
  61   2.0000      -0.413804       -11.2602
  62   2.0000      -0.410249       -11.1635
  63   2.0000      -0.342665        -9.3244
  64   2.0000      -0.325671        -8.8620
  65   2.0000      -0.323249        -8.7961
  66   2.0000      -0.304612        -8.2889
  67   0.0000       0.036334         0.9887
  68   0.0000       0.051342         1.3971
  69   0.0000       0.107778         2.9328
  70   0.0000       0.120060         3.2670
  71   0.0000       0.133108         3.6221

MULLIKEN ATOMIC CHARGES
-----------------------
   0 S :    0.083340
   1 C :   -0.088106
   2 C :   -0.089415
   3 C :    0.029053
   4 C :   -0.123241
   5 H :    0.008625
   6 C :    0.104602
   7 H :    0.019944
   8 H :    0.052064
   9 C :   -0.126505
  10 H :    0.033311
  11 H :    0.015911
  12 C :   -0.040433
  13 H :    0.025528
  14 H :    0.036796
  15 H :    0.037619
  16 S :    0.100643
  17 C :   -0.084155
  18 C :   -0.003070
  19 C :   -0.007109
  20 C :   -0.181706
  21 H :   -0.005818
  22 C :    0.035409
  23 H :    0.031242
  24 H :    0.032069
  25 C :   -0.045017
  26 H :    0.015545
  27 H :    0.023272
  28 C :   -0.012689
  29 H :    0.032399
  30 H :    0.022246
  31 H :    0.017486
  32 H :    0.013075
  33 H :    0.037082
Sum of atomic charges:    0.0000000

LOEWDIN ATOMIC CHARGES
----------------------
   0 S :    0.361481
   1 C :   -0.160430
   2 C :   -0.069311
   3 C :   -0.051374
   4 C :   -0.188209
   5 H :    0.026648
   6 C :   -0.033557
   7 H :    0.027336
   8 H :    0.045591
   9 C :   -0.043903
  10 H :    0.025498
  11 H :    0.016086
  12 C :   -0.062928
  13 H :    0.024656
  14 H :    0.019355
  15 H :    0.036160
  16 S :    0.402213
  17 C :   -0.155718
  18 C :   -0.057438
  19 C :   -0.058201
  20 C :   -0.205320
  21 H :    0.024807
  22 C :   -0.042600
  23 H :    0.037153
  24 H :    0.034203
  25 C :   -0.037299
  26 H :    0.023656
  27 H :    0.024254
  28 C :   -0.062339
  29 H :    0.028574
  30 H :    0.026361
  31 H :    0.018100
  32 H :    0.010957
  33 H :    0.015535

  Mayer bond orders larger than 0.100000
B(  0-S ,  1-C ) :   1.1184 B(  0-S ,  4-C ) :   1.1207 B(  1-C ,  2-C ) :   1.6258
B(  1-C , 32-H ) :   0.9742 B(  2-C ,  3-C ) :   1.2520 B(  2-C ,  6-C ) :   1.0216
B(  3-C ,  4-C ) :   1.5688 B(  3-C ,  5-H ) :   0.9906 B(  4-C , 20-C ) :   1.0426
B(  6-C ,  7-H ) :   0.9403 B(  6-C ,  8-H ) :   0.9298 B(  6-C ,  9-C ) :   1.0772
B(  9-C , 10-H ) :   0.9617 B(  9-C , 11-H ) :   0.9456 B(  9-C , 12-C ) :   1.0717
B( 12-C , 13-H ) :   0.9749 B( 12-C , 14-H ) :   0.9801 B( 12-C , 15-H ) :   0.9763
B( 16-S , 17-C ) :   1.1375 B( 16-S , 20-C ) :   1.1582 B( 17-C , 18-C ) :   1.6374
B( 17-C , 33-H ) :   0.9755 B( 18-C , 19-C ) :   1.1860 B( 18-C , 21-H ) :   1.0105
B( 19-C , 20-C ) :   1.5931 B( 19-C , 22-C ) :   1.0866 B( 22-C , 23-H ) :   0.9290
B( 22-C , 24-H ) :   0.9160 B( 22-C , 25-C ) :   1.0557 B( 25-C , 26-H ) :   0.9451
B( 25-C , 27-H ) :   0.9583 B( 25-C , 28-C ) :   1.0843 B( 28-C , 29-H ) :   0.9748
B( 28-C , 30-H ) :   0.9713 B( 28-C , 31-H ) :   0.9718

Dispersion correction           -0.013672700
FINAL SINGLE POINT ENERGY     -1339.853378921913

DIPOLE MOMENT
-------------
                                X             Y             Z
Electronic contribution:    -20.24962      -1.49788      17.13209
Nuclear contribution   :     20.75924       1.81449     -17.47565
                        -----------------------------------------
Total Dipole Moment    :      0.50962       0.31662      -0.34356
                        -----------------------------------------
Magnitude (a.u.)       :      0.69137
Magnitude (Debye)      :      1.75732

Rotational constants in cm-1:     0.019404     0.007550     0.006185
Rotational constants in MHz :   581.723059   226.346378   185.435478

                             ****ORCA TERMINATED NORMALLY****
TOTAL RUN TIME: 0 days 0 hours 0 minutes 34 seconds 519 msec
