                         Program Version 4.2.1 -  RELEASE  -
|  1> ! wB97X-D3 SP def2-SVP
|  2> %pal
|  3> nprocs 16
|  4> end
|  5>
|  6> * xyz 0 1
|  7> S 	 -5.96846 	 76.4712 	 48.4799
|  8> C 	 -6.48208 	 77.8521 	 49.3864
|  9> C 	 -7.85398 	 77.7977 	 49.5681
| 10> C 	 -8.45683 	 76.6001 	 49.0794
| 11> C 	 -7.60404 	 75.8023 	 48.3762
| 12> H 	 -9.48356 	 76.436 	 49.1521
| 13> C 	 -8.68247 	 78.8701 	 50.2668
| 14> H 	 -8.02373 	 79.7241 	 50.4902
| 15> H 	 -9.0338 	 78.5097 	 51.2115
| 16> C 	 -9.83743 	 79.3919 	 49.3808
| 17> H 	 -9.52157 	 79.728 	 48.4416
| 18> H 	 -10.4944 	 78.5283 	 49.0634
| 19> C 	 -10.6616 	 80.4338 	 50.1131
| 20> H 	 -11.0472 	 80.0121 	 51.0365
| 21> H 	 -9.97094 	 81.2933 	 50.3728
| 22> H 	 -11.5515 	 80.8085 	 49.5642
| 23> S 	 -6.47184 	 73.24 	 48.0469
| 24> C 	 -7.53134 	 71.8615 	 47.6347
| 25> C 	 -8.7863 	 72.3261 	 47.2435
| 26> C 	 -8.94815 	 73.7486 	 47.2972
| 27> C 	 -7.82238 	 74.4049 	 47.8389
| 28> H 	 -9.53697 	 71.5461 	 46.9635
| 29> C 	 -10.2522 	 74.4094 	 46.8507
| 30> H 	 -10.082 	 74.9553 	 45.9108
| 31> H 	 -10.509 	 75.2023 	 47.5665
| 32> C 	 -11.4848 	 73.537 	 46.3997
| 33> H 	 -11.8678 	 72.8514 	 47.2139
| 34> H 	 -11.143 	 72.7324 	 45.7137
| 35> C 	 -12.6679 	 74.4267 	 45.897
| 36> H 	 -13.058 	 75.0997 	 46.5941
| 37> H 	 -13.4919 	 73.7912 	 45.6585
| 38> H 	 -12.413 	 74.9056 	 44.9187
| 39> H 	 -5.84051 	 78.7503 	 49.6918
| 40> H 	 -7.09436 	 70.8823 	 47.5434
| 41> *
| 42>
| 43>                          ****END OF INPUT****

CARTESIAN COORDINATES (ANGSTROEM)
---------------------------------
  S     -5.968460   76.471200   48.479900
  C     -6.482080   77.852100   49.386400
  C     -7.853980   77.797700   49.568100
  C     -8.456830   76.600100   49.079400
  C     -7.604040   75.802300   48.376200
  H     -9.483560   76.436000   49.152100
  C     -8.682470   78.870100   50.266800
  H     -8.023730   79.724100   50.490200
  H     -9.033800   78.509700   51.211500
  C     -9.837430   79.391900   49.380800
  H     -9.521570   79.728000   48.441600
  H    -10.494400   78.528300   49.063400
  C    -10.661600   80.433800   50.113100
  H    -11.047200   80.012100   51.036500
  H     -9.970940   81.293300   50.372800
  H    -11.551500   80.808500   49.564200
  S     -6.471840   73.240000   48.046900
  C     -7.531340   71.861500   47.634700
  C     -8.786300   72.326100   47.243500
  C     -8.948150   73.748600   47.297200
  C     -7.822380   74.404900   47.838900
  H     -9.536970   71.546100   46.963500
  C    -10.252200   74.409400   46.850700
  H    -10.082000   74.955300   45.910800
  H    -10.509000   75.202300   47.566500
  C    -11.484800   73.537000   46.399700
  H    -11.867800   72.851400   47.213900
  H    -11.143000   72.732400   45.713700
  C    -12.667900   74.426700   45.897000
  H    -13.058000   75.099700   46.594100
  H    -13.491900   73.791200   45.658500
  H    -12.413000   74.905600   44.918700
  H     -5.840510   78.750300   49.691800
  H     -7.094360   70.882300   47.543400

 Total Charge           Charge          ....    0
 Multiplicity           Mult            ....    1
 Number of Electrons    NEL             ....  134
 Basis Dimension        Dim             ....  322

ORBITAL ENERGIES
----------------

  NO   OCC          E(Eh)            E(eV)
   0   2.0000     -88.964978     -2420.8601
   1   2.0000     -88.964443     -2420.8456
   2   2.0000     -10.339123      -281.3419
   3   2.0000     -10.336467      -281.2696
   4   2.0000     -10.322684      -280.8945
   5   2.0000     -10.319122      -280.7976
   6   2.0000     -10.313397      -280.6418
   7   2.0000     -10.302877      -280.3555
   8   2.0000     -10.302287      -280.3395
   9   2.0000     -10.299387      -280.2606
  10   2.0000     -10.299367      -280.2600
  11   2.0000     -10.293196      -280.0921
  12   2.0000     -10.289397      -279.9887
  13   2.0000     -10.286497      -279.9098
  14   2.0000     -10.284208      -279.8475
  15   2.0000     -10.282444      -279.7995
  16   2.0000      -8.079742      -219.8610
  17   2.0000      -8.078027      -219.8143
  18   2.0000      -6.038348      -164.3118
  19   2.0000      -6.036666      -164.2660
  20   2.0000      -6.034211      -164.1992
  21   2.0000      -6.032679      -164.1576
  22   2.0000      -6.030420      -164.0961
  23   2.0000      -6.028729      -164.0500
  24   2.0000      -1.002202       -27.2713
  25   2.0000      -0.978280       -26.6203
  26   2.0000      -0.911545       -24.8044
  27   2.0000      -0.900725       -24.5100
  28   2.0000      -0.864388       -23.5212
  29   2.0000      -0.851759       -23.1775
  30   2.0000      -0.843816       -22.9614
  31   2.0000      -0.815989       -22.2042
  32   2.0000      -0.780537       -21.2395
  33   2.0000      -0.768292       -20.9063
  34   2.0000      -0.710928       -19.3453
  35   2.0000      -0.704255       -19.1637
  36   2.0000      -0.691497       -18.8166
  37   2.0000      -0.653232       -17.7753
  38   2.0000      -0.637982       -17.3604
  39   2.0000      -0.627894       -17.0859
  40   2.0000      -0.600065       -16.3286
  41   2.0000      -0.568513       -15.4700
  42   2.0000      -0.560609       -15.2549
  43   2.0000      -0.556879       -15.1534
  44   2.0000      -0.529184       -14.3998
  45   2.0000      -0.523284       -14.2393
  46   2.0000      -0.515708       -14.0331
  47   2.0000      -0.507658       -13.8141
  48   2.0000      -0.503662       -13.7053
  49   2.0000      -0.498708       -13.5705
  50   2.0000      -0.488669       -13.2974
  51   2.0000      -0.480482       -13.0746
  52   2.0000      -0.478535       -13.0216
  53   2.0000      -0.463295       -12.6069
  54   2.0000      -0.459089       -12.4925
  55   2.0000      -0.450977       -12.2717
  56   2.0000      -0.448605       -12.2072
  57   2.0000      -0.442102       -12.0302
  58   2.0000      -0.432281       -11.7630
  59   2.0000      -0.423339       -11.5197
  60   2.0000      -0.416404       -11.3309
  61   2.0000      -0.415542       -11.3075
  62   2.0000      -0.412496       -11.2246
  63   2.0000      -0.355978        -9.6866
  64   2.0000      -0.333749        -9.0818
  65   2.0000      -0.325563        -8.8590
  66   2.0000      -0.286706        -7.8017
  67   0.0000       0.021564         0.5868
  68   0.0000       0.076308         2.0765
  69   0.0000       0.101901         2.7729
  70   0.0000       0.123854         3.3702
  71   0.0000       0.132907         3.6166

MULLIKEN ATOMIC CHARGES
-----------------------
   0 S :    0.094410
   1 C :   -0.140567
   2 C :   -0.108540
   3 C :    0.037992
   4 C :   -0.107835
   5 H :   -0.011516
   6 C :    0.080635
   7 H :    0.012456
   8 H :    0.031450
   9 C :   -0.084165
  10 H :    0.017801
  11 H :    0.023510
  12 C :   -0.048912
  13 H :    0.025373
  14 H :    0.036951
  15 H :    0.042631
  16 S :    0.080145
  17 C :   -0.096490
  18 C :   -0.062069
  19 C :   -0.019279
  20 C :   -0.127053
  21 H :    0.042895
  22 C :    0.054027
  23 H :    0.040870
  24 H :    0.023722
  25 C :   -0.130226
  26 H :    0.030802
  27 H :    0.038281
  28 C :   -0.015288
  29 H :    0.031657
  30 H :    0.022869
  31 H :    0.040742
  32 H :    0.078976
  33 H :    0.063746
Sum of atomic charges:    0.0000000

LOEWDIN ATOMIC CHARGES
----------------------
   0 S :    0.400375
   1 C :   -0.217383
   2 C :   -0.065837
   3 C :   -0.060021
   4 C :   -0.175960
   5 H :    0.018437
   6 C :   -0.025131
   7 H :    0.028880
   8 H :    0.028170
   9 C :   -0.042626
  10 H :    0.016725
  11 H :    0.024297
  12 C :   -0.068904
  13 H :    0.022450
  14 H :    0.030834
  15 H :    0.029741
  16 S :    0.371199
  17 C :   -0.170293
  18 C :   -0.079154
  19 C :   -0.057022
  20 C :   -0.180023
  21 H :    0.041488
  22 C :   -0.039234
  23 H :    0.040596
  24 H :    0.029626
  25 C :   -0.049237
  26 H :    0.023618
  27 H :    0.026577
  28 C :   -0.058880
  29 H :    0.020245
  30 H :    0.026701
  31 H :    0.032341
  32 H :    0.049790
  33 H :    0.027615

  Mayer bond orders larger than 0.100000
B(  0-S ,  1-C ) :   1.1365 B(  0-S ,  4-C ) :   1.1517 B(  1-C ,  2-C ) :   1.6166
B(  1-C , 32-H ) :   0.9549 B(  2-C ,  3-C ) :   1.2521 B(  2-C ,  6-C ) :   1.0288
B(  3-C ,  4-C ) :   1.5737 B(  3-C ,  5-H ) :   0.9969 B(  4-C , 20-C ) :   1.0292
B(  6-C ,  7-H ) :   0.9422 B(  6-C ,  8-H ) :   0.9392 B(  6-C ,  9-C ) :   1.0526
B(  9-C , 10-H ) :   0.9559 B(  9-C , 11-H ) :   0.9515 B(  9-C , 12-C ) :   1.0863
B( 12-C , 13-H ) :   0.9736 B( 12-C , 14-H ) :   0.9730 B( 12-C , 15-H ) :   0.9732
B( 16-S , 17-C ) :   1.1511 B( 16-S , 20-C ) :   1.1378 B( 17-C , 18-C ) :   1.5934
B( 17-C , 20-C ) :   0.1057 B( 17-C , 33-H ) :   0.9691 B( 18-C , 19-C ) :   1.2530
B( 18-C , 21-H ) :   0.9789 B( 19-C , 20-C ) :   1.5880 B( 19-C , 22-C ) :   1.0235
B( 22-C , 23-H ) :   0.9325 B( 22-C , 24-H ) :   0.9374 B( 22-C , 25-C ) :   1.0634
B( 25-C , 26-H ) :   0.9551 B( 25-C , 27-H ) :   0.9491 B( 25-C , 28-C ) :   1.0777
B( 28-C , 29-H ) :   0.9767 B( 28-C , 30-H ) :   0.9703 B( 28-C , 31-H ) :   0.9744

Dispersion correction           -0.013141069
FINAL SINGLE POINT ENERGY     -1339.876743090143

DIPOLE MOMENT
-------------
                                X             Y             Z
Electronic contribution:     29.76445     -13.64056       1.09867
Nuclear contribution   :    -30.56652      13.79778      -1.13565
                        -----------------------------------------
Total Dipole Moment    :     -0.80207       0.15723      -0.03698
                        -----------------------------------------
Magnitude (a.u.)       :      0.81817
Magnitude (Debye)      :      2.07963

Rotational constants in cm-1:     0.015463     0.008974     0.005906
Rotational constants in MHz :   463.573830   269.045883   177.062960

                             ****ORCA TERMINATED NORMALLY****
TOTAL RUN TIME: 0 days 0 hours 0 minutes 31 seconds 860 msec
