                         Program Version 4.2.1 -  RELEASE  -
|  1> ! wB97X-D3 SP def2-SVP
|  2> %pal
|  3> nprocs 16
|  4> end
|  5>
|  6> * xyz 0 1
|  7> S 	 11.2579 	 -8.91774 	 87.2348
|  8> C 	 11.5284 	 -8.1901 	 88.8049
|  9> C 	 10.5962 	 -8.64876 	 89.7384
| 10> C 	 9.51242 	 -9.35279 	 89.0864
| 11> C 	 9.68138 	 -9.53481 	 87.7667
| 12> H 	 8.59374 	 -9.87404 	 89.48
| 13> C 	 10.7386 	 -8.60005 	 91.1646
| 14> H 	 9.87045 	 -8.16529 	 91.631
| 15> H 	 11.4938 	 -7.87528 	 91.488
| 16> C 	 11.0817 	 -9.90089 	 91.9444
| 17> H 	 10.3032 	 -10.6088 	 91.7531
| 18> H 	 12.0138 	 -10.3742 	 91.6569
| 19> C 	 11.1933 	 -9.63756 	 93.433
| 20> H 	 11.1585 	 -10.5312 	 94.1284
| 21> H 	 12.0397 	 -9.09771 	 93.7229
| 22> H 	 10.3982 	 -9.00345 	 93.7716
| 23> S 	 9.21114 	 -11.3733 	 85.7173
| 24> C 	 7.67633 	 -11.4178 	 84.9754
| 25> C 	 6.79714 	 -10.445 	 85.4667
| 26> C 	 7.40734 	 -9.59838 	 86.4177
| 27> C 	 8.71498 	 -10.0339 	 86.7892
| 28> H 	 5.85654 	 -10.3635 	 84.9535
| 29> C 	 6.79996 	 -8.3326 	 86.8249
| 30> H 	 6.12102 	 -8.13999 	 86.0373
| 31> H 	 7.53501 	 -7.54496 	 86.7087
| 32> C 	 5.97533 	 -8.4717 	 88.0862
| 33> H 	 6.73982 	 -8.53925 	 88.8069
| 34> H 	 5.39687 	 -9.36628 	 88.1868
| 35> C 	 5.07812 	 -7.20374 	 88.4389
| 36> H 	 5.69471 	 -6.28161 	 88.3377
| 37> H 	 4.68188 	 -7.13262 	 89.4571
| 38> H 	 4.20575 	 -7.06114 	 87.7958
| 39> H 	 12.4759 	 -7.69654 	 88.9634
| 40> H 	 7.37782 	 -12.1253 	 84.2037
| 41> *
| 42>
| 43>                          ****END OF INPUT****

CARTESIAN COORDINATES (ANGSTROEM)
---------------------------------
  S     11.257900   -8.917740   87.234800
  C     11.528400   -8.190100   88.804900
  C     10.596200   -8.648760   89.738400
  C      9.512420   -9.352790   89.086400
  C      9.681380   -9.534810   87.766700
  H      8.593740   -9.874040   89.480000
  C     10.738600   -8.600050   91.164600
  H      9.870450   -8.165290   91.631000
  H     11.493800   -7.875280   91.488000
  C     11.081700   -9.900890   91.944400
  H     10.303200  -10.608800   91.753100
  H     12.013800  -10.374200   91.656900
  C     11.193300   -9.637560   93.433000
  H     11.158500  -10.531200   94.128400
  H     12.039700   -9.097710   93.722900
  H     10.398200   -9.003450   93.771600
  S      9.211140  -11.373300   85.717300
  C      7.676330  -11.417800   84.975400
  C      6.797140  -10.445000   85.466700
  C      7.407340   -9.598380   86.417700
  C      8.714980  -10.033900   86.789200
  H      5.856540  -10.363500   84.953500
  C      6.799960   -8.332600   86.824900
  H      6.121020   -8.139990   86.037300
  H      7.535010   -7.544960   86.708700
  C      5.975330   -8.471700   88.086200
  H      6.739820   -8.539250   88.806900
  H      5.396870   -9.366280   88.186800
  C      5.078120   -7.203740   88.438900
  H      5.694710   -6.281610   88.337700
  H      4.681880   -7.132620   89.457100
  H      4.205750   -7.061140   87.795800
  H     12.475900   -7.696540   88.963400
  H      7.377820  -12.125300   84.203700

 Total Charge           Charge          ....    0
 Multiplicity           Mult            ....    1
 Number of Electrons    NEL             ....  134
 Basis Dimension        Dim             ....  322

ORBITAL ENERGIES
----------------

  NO   OCC          E(Eh)            E(eV)
   0   2.0000     -88.966298     -2420.8960
   1   2.0000     -88.961093     -2420.7544
   2   2.0000     -10.328275      -281.0466
   3   2.0000     -10.326970      -281.0111
   4   2.0000     -10.318241      -280.7736
   5   2.0000     -10.316483      -280.7258
   6   2.0000     -10.304995      -280.4132
   7   2.0000     -10.304114      -280.3892
   8   2.0000     -10.296813      -280.1905
   9   2.0000     -10.291447      -280.0445
  10   2.0000     -10.287033      -279.9244
  11   2.0000     -10.285503      -279.8828
  12   2.0000     -10.283725      -279.8344
  13   2.0000     -10.281847      -279.7833
  14   2.0000     -10.280751      -279.7535
  15   2.0000     -10.274260      -279.5768
  16   2.0000      -8.081198      -219.9006
  17   2.0000      -8.076060      -219.7608
  18   2.0000      -6.039459      -164.3420
  19   2.0000      -6.035636      -164.2380
  20   2.0000      -6.034548      -164.2084
  21   2.0000      -6.032274      -164.1465
  22   2.0000      -6.030662      -164.1027
  23   2.0000      -6.026690      -163.9946
  24   2.0000      -1.005207       -27.3531
  25   2.0000      -0.984962       -26.8022
  26   2.0000      -0.917117       -24.9560
  27   2.0000      -0.915646       -24.9160
  28   2.0000      -0.869807       -23.6687
  29   2.0000      -0.851331       -23.1659
  30   2.0000      -0.847482       -23.0612
  31   2.0000      -0.816939       -22.2300
  32   2.0000      -0.782960       -21.3054
  33   2.0000      -0.767640       -20.8886
  34   2.0000      -0.714553       -19.4440
  35   2.0000      -0.709330       -19.3018
  36   2.0000      -0.692824       -18.8527
  37   2.0000      -0.660636       -17.9768
  38   2.0000      -0.651709       -17.7339
  39   2.0000      -0.618854       -16.8399
  40   2.0000      -0.596128       -16.2215
  41   2.0000      -0.574258       -15.6264
  42   2.0000      -0.565461       -15.3870
  43   2.0000      -0.554675       -15.0935
  44   2.0000      -0.527128       -14.3439
  45   2.0000      -0.521592       -14.1932
  46   2.0000      -0.517434       -14.0801
  47   2.0000      -0.513571       -13.9750
  48   2.0000      -0.507970       -13.8226
  49   2.0000      -0.502786       -13.6815
  50   2.0000      -0.495579       -13.4854
  51   2.0000      -0.472417       -12.8551
  52   2.0000      -0.468986       -12.7617
  53   2.0000      -0.463463       -12.6115
  54   2.0000      -0.457341       -12.4449
  55   2.0000      -0.453598       -12.3430
  56   2.0000      -0.448184       -12.1957
  57   2.0000      -0.439747       -11.9661
  58   2.0000      -0.435344       -11.8463
  59   2.0000      -0.429499       -11.6873
  60   2.0000      -0.423902       -11.5349
  61   2.0000      -0.414469       -11.2783
  62   2.0000      -0.408898       -11.1267
  63   2.0000      -0.344263        -9.3679
  64   2.0000      -0.330732        -8.9997
  65   2.0000      -0.326858        -8.8943
  66   2.0000      -0.290792        -7.9129
  67   0.0000       0.031330         0.8525
  68   0.0000       0.059958         1.6315
  69   0.0000       0.110670         3.0115
  70   0.0000       0.118819         3.2332
  71   0.0000       0.129084         3.5125

MULLIKEN ATOMIC CHARGES
-----------------------
   0 S :    0.091869
   1 C :   -0.115569
   2 C :   -0.050226
   3 C :    0.005984
   4 C :   -0.143448
   5 H :    0.047334
   6 C :    0.045792
   7 H :    0.016058
   8 H :    0.007759
   9 C :   -0.029383
  10 H :    0.022496
  11 H :    0.030224
  12 C :   -0.046536
  13 H :    0.041483
  14 H :    0.015383
  15 H :    0.009938
  16 S :    0.111723
  17 C :   -0.097555
  18 C :   -0.039895
  19 C :   -0.060944
  20 C :   -0.180849
  21 H :    0.017883
  22 C :    0.124707
  23 H :   -0.006958
  24 H :    0.039676
  25 C :   -0.038531
  26 H :    0.005286
  27 H :    0.030891
  28 C :   -0.064907
  29 H :    0.029046
  30 H :    0.033973
  31 H :    0.033480
  32 H :    0.053224
  33 H :    0.060592
Sum of atomic charges:    0.0000000

LOEWDIN ATOMIC CHARGES
----------------------
   0 S :    0.381659
   1 C :   -0.181883
   2 C :   -0.064012
   3 C :   -0.067778
   4 C :   -0.188456
   5 H :    0.047001
   6 C :   -0.041047
   7 H :    0.029890
   8 H :    0.031197
   9 C :   -0.028463
  10 H :    0.020088
  11 H :    0.025690
  12 C :   -0.067452
  13 H :    0.035644
  14 H :    0.016190
  15 H :    0.019674
  16 S :    0.414626
  17 C :   -0.196858
  18 C :   -0.077420
  19 C :   -0.044520
  20 C :   -0.201850
  21 H :    0.032118
  22 C :   -0.029535
  23 H :    0.024807
  24 H :    0.038639
  25 C :   -0.029399
  26 H :    0.016673
  27 H :    0.024907
  28 C :   -0.073789
  29 H :    0.028394
  30 H :    0.026195
  31 H :    0.022072
  32 H :    0.025699
  33 H :    0.031301

  Mayer bond orders larger than 0.100000
B(  0-S ,  1-C ) :   1.1382 B(  0-S ,  4-C ) :   1.1252 B(  1-C ,  2-C ) :   1.6062
B(  1-C , 32-H ) :   0.9726 B(  2-C ,  3-C ) :   1.1752 B(  2-C ,  6-C ) :   1.0695
B(  3-C ,  4-C ) :   1.6468 B(  3-C ,  5-H ) :   0.9764 B(  4-C , 20-C ) :   1.0281
B(  6-C ,  7-H ) :   0.9232 B(  6-C ,  8-H ) :   0.9349 B(  6-C ,  9-C ) :   1.0554
B(  9-C , 10-H ) :   0.9541 B(  9-C , 11-H ) :   0.9563 B(  9-C , 12-C ) :   1.0815
B( 12-C , 13-H ) :   0.9728 B( 12-C , 14-H ) :   0.9747 B( 12-C , 15-H ) :   0.9707
B( 16-S , 17-C ) :   1.1877 B( 16-S , 20-C ) :   1.1416 B( 17-C , 18-C ) :   1.5836
B( 17-C , 20-C ) :   0.1080 B( 17-C , 33-H ) :   0.9633 B( 18-C , 19-C ) :   1.2728
B( 18-C , 21-H ) :   0.9902 B( 19-C , 20-C ) :   1.5460 B( 19-C , 22-C ) :   1.0430
B( 22-C , 23-H ) :   0.9249 B( 22-C , 24-H ) :   0.9290 B( 22-C , 25-C ) :   1.0394
B( 25-C , 26-H ) :   0.9518 B( 25-C , 27-H ) :   0.9600 B( 25-C , 28-C ) :   1.0704
B( 28-C , 29-H ) :   0.9743 B( 28-C , 30-H ) :   0.9773 B( 28-C , 31-H ) :   0.9794

Dispersion correction           -0.014047698
FINAL SINGLE POINT ENERGY     -1339.865004353540

DIPOLE MOMENT
-------------
                                X             Y             Z
Electronic contribution:     11.22205      -9.49909     -24.25793
Nuclear contribution   :    -11.53505       9.65262      24.62914
                        -----------------------------------------
Total Dipole Moment    :     -0.31300       0.15353       0.37121
                        -----------------------------------------
Magnitude (a.u.)       :      0.50924
Magnitude (Debye)      :      1.29440

Rotational constants in cm-1:     0.017505     0.008403     0.006698
Rotational constants in MHz :   524.791981   251.910954   200.805629

                             ****ORCA TERMINATED NORMALLY****
TOTAL RUN TIME: 0 days 0 hours 0 minutes 33 seconds 125 msec
