                         Program Version 4.2.1 -  RELEASE  -
|  1> ! wB97X-D3 SP def2-SVP
|  2> %pal
|  3> nprocs 16
|  4> end
|  5>
|  6> * xyz 0 1
|  7> S 	 -1.24903 	 14.0824 	 87.9584
|  8> C 	 -2.71495 	 14.6433 	 87.2405
|  9> C 	 -3.13465 	 15.7486 	 87.9607
| 10> C 	 -2.36436 	 16.0667 	 89.09
| 11> C 	 -1.2027 	 15.2853 	 89.273
| 12> H 	 -2.50032 	 16.8582 	 89.8247
| 13> C 	 -4.33321 	 16.5427 	 87.4821
| 14> H 	 -4.35769 	 16.3332 	 86.4224
| 15> H 	 -4.20672 	 17.6387 	 87.5338
| 16> C 	 -5.66458 	 16.2643 	 88.2378
| 17> H 	 -6.44853 	 16.9016 	 87.8718
| 18> H 	 -6.01007 	 15.24 	 88.1379
| 19> C 	 -5.56193 	 16.5026 	 89.7438
| 20> H 	 -6.54116 	 16.5028 	 90.2798
| 21> H 	 -4.86412 	 15.7689 	 90.1255
| 22> H 	 -5.09245 	 17.4648 	 89.9678
| 23> S 	 -0.155613 	 16.7773 	 91.2643
| 24> C 	 1.03248 	 16.1423 	 92.3132
| 25> C 	 1.23221 	 14.8056 	 92.0505
| 26> C 	 0.398288 	 14.2792 	 91.0171
| 27> C 	 -0.343159 	 15.2332 	 90.3986
| 28> H 	 1.89301 	 14.253 	 92.7246
| 29> C 	 0.596317 	 12.8891 	 90.3844
| 30> H 	 -0.347992 	 12.5824 	 90.0336
| 31> H 	 0.718664 	 12.1718 	 91.1267
| 32> C 	 1.75195 	 12.6386 	 89.2869
| 33> H 	 1.55122 	 13.1479 	 88.3854
| 34> H 	 1.80237 	 11.4984 	 89.1058
| 35> C 	 3.20881 	 13.0397 	 89.8084
| 36> H 	 3.42341 	 14.0918 	 89.5714
| 37> H 	 3.96925 	 12.4076 	 89.313
| 38> H 	 3.30552 	 12.9223 	 90.9189
| 39> H 	 -3.2072 	 14.2848 	 86.3553
| 40> H 	 1.67528 	 16.6649 	 93.0219
| 41> *
| 42>
| 43>                          ****END OF INPUT****

CARTESIAN COORDINATES (ANGSTROEM)
---------------------------------
  S     -1.249030   14.082400   87.958400
  C     -2.714950   14.643300   87.240500
  C     -3.134650   15.748600   87.960700
  C     -2.364360   16.066700   89.090000
  C     -1.202700   15.285300   89.273000
  H     -2.500320   16.858200   89.824700
  C     -4.333210   16.542700   87.482100
  H     -4.357690   16.333200   86.422400
  H     -4.206720   17.638700   87.533800
  C     -5.664580   16.264300   88.237800
  H     -6.448530   16.901600   87.871800
  H     -6.010070   15.240000   88.137900
  C     -5.561930   16.502600   89.743800
  H     -6.541160   16.502800   90.279800
  H     -4.864120   15.768900   90.125500
  H     -5.092450   17.464800   89.967800
  S     -0.155613   16.777300   91.264300
  C      1.032480   16.142300   92.313200
  C      1.232210   14.805600   92.050500
  C      0.398288   14.279200   91.017100
  C     -0.343159   15.233200   90.398600
  H      1.893010   14.253000   92.724600
  C      0.596317   12.889100   90.384400
  H     -0.347992   12.582400   90.033600
  H      0.718664   12.171800   91.126700
  C      1.751950   12.638600   89.286900
  H      1.551220   13.147900   88.385400
  H      1.802370   11.498400   89.105800
  C      3.208810   13.039700   89.808400
  H      3.423410   14.091800   89.571400
  H      3.969250   12.407600   89.313000
  H      3.305520   12.922300   90.918900
  H     -3.207200   14.284800   86.355300
  H      1.675280   16.664900   93.021900

 Total Charge           Charge          ....    0
 Multiplicity           Mult            ....    1
 Number of Electrons    NEL             ....  134
 Basis Dimension        Dim             ....  322

ORBITAL ENERGIES
----------------

  NO   OCC          E(Eh)            E(eV)
   0   2.0000     -88.969200     -2420.9750
   1   2.0000     -88.965905     -2420.8854
   2   2.0000     -10.335986      -281.2565
   3   2.0000     -10.328684      -281.0578
   4   2.0000     -10.317081      -280.7421
   5   2.0000     -10.315555      -280.7005
   6   2.0000     -10.304191      -280.3913
   7   2.0000     -10.300963      -280.3035
   8   2.0000     -10.297417      -280.2070
   9   2.0000     -10.296740      -280.1885
  10   2.0000     -10.294897      -280.1384
  11   2.0000     -10.292302      -280.0678
  12   2.0000     -10.285812      -279.8912
  13   2.0000     -10.282914      -279.8123
  14   2.0000     -10.282524      -279.8017
  15   2.0000     -10.273889      -279.5667
  16   2.0000      -8.082831      -219.9450
  17   2.0000      -8.081096      -219.8978
  18   2.0000      -6.041414      -164.3952
  19   2.0000      -6.039687      -164.3482
  20   2.0000      -6.037138      -164.2789
  21   2.0000      -6.035522      -164.2349
  22   2.0000      -6.033905      -164.1909
  23   2.0000      -6.031758      -164.1325
  24   2.0000      -1.013317       -27.5738
  25   2.0000      -0.990084       -26.9416
  26   2.0000      -0.910660       -24.7803
  27   2.0000      -0.895688       -24.3729
  28   2.0000      -0.878576       -23.9073
  29   2.0000      -0.846114       -23.0239
  30   2.0000      -0.840476       -22.8705
  31   2.0000      -0.817621       -22.2486
  32   2.0000      -0.784042       -21.3349
  33   2.0000      -0.772502       -21.0208
  34   2.0000      -0.713411       -19.4129
  35   2.0000      -0.697070       -18.9682
  36   2.0000      -0.694245       -18.8914
  37   2.0000      -0.671148       -18.2629
  38   2.0000      -0.637270       -17.3410
  39   2.0000      -0.613824       -16.7030
  40   2.0000      -0.593341       -16.1456
  41   2.0000      -0.578259       -15.7352
  42   2.0000      -0.551714       -15.0129
  43   2.0000      -0.548630       -14.9290
  44   2.0000      -0.543706       -14.7950
  45   2.0000      -0.536678       -14.6037
  46   2.0000      -0.519482       -14.1358
  47   2.0000      -0.511147       -13.9090
  48   2.0000      -0.506060       -13.7706
  49   2.0000      -0.498005       -13.5514
  50   2.0000      -0.484758       -13.1909
  51   2.0000      -0.477574       -12.9954
  52   2.0000      -0.474832       -12.9208
  53   2.0000      -0.464176       -12.6309
  54   2.0000      -0.462531       -12.5861
  55   2.0000      -0.443594       -12.0708
  56   2.0000      -0.438412       -11.9298
  57   2.0000      -0.434827       -11.8322
  58   2.0000      -0.426464       -11.6047
  59   2.0000      -0.423311       -11.5189
  60   2.0000      -0.420172       -11.4334
  61   2.0000      -0.413278       -11.2459
  62   2.0000      -0.406804       -11.0697
  63   2.0000      -0.367401        -9.9975
  64   2.0000      -0.334402        -9.0995
  65   2.0000      -0.330569        -8.9952
  66   2.0000      -0.283687        -7.7195
  67   0.0000       0.015887         0.4323
  68   0.0000       0.078697         2.1415
  69   0.0000       0.111921         3.0455
  70   0.0000       0.122806         3.3417
  71   0.0000       0.126778         3.4498

MULLIKEN ATOMIC CHARGES
-----------------------
   0 S :    0.093993
   1 C :   -0.094700
   2 C :   -0.098896
   3 C :    0.004980
   4 C :   -0.122225
   5 H :    0.020034
   6 C :    0.056919
   7 H :    0.015267
   8 H :    0.034167
   9 C :   -0.039363
  10 H :    0.024823
  11 H :    0.023739
  12 C :   -0.084410
  13 H :    0.046333
  14 H :    0.045315
  15 H :    0.019473
  16 S :    0.087792
  17 C :   -0.072685
  18 C :   -0.060685
  19 C :   -0.054821
  20 C :   -0.125338
  21 H :    0.026410
  22 C :    0.096912
  23 H :    0.006916
  24 H :   -0.005353
  25 C :   -0.065190
  26 H :    0.031121
  27 H :    0.046516
  28 C :   -0.089756
  29 H :    0.046323
  30 H :    0.040325
  31 H :    0.034163
  32 H :    0.049504
  33 H :    0.062396
Sum of atomic charges:    0.0000000

LOEWDIN ATOMIC CHARGES
----------------------
   0 S :    0.428136
   1 C :   -0.202398
   2 C :   -0.069888
   3 C :   -0.069422
   4 C :   -0.182509
   5 H :    0.025768
   6 C :   -0.030730
   7 H :    0.027604
   8 H :    0.033727
   9 C :   -0.036933
  10 H :    0.019809
  11 H :    0.021737
  12 C :   -0.070232
  13 H :    0.032323
  14 H :    0.025209
  15 H :    0.018822
  16 S :    0.411206
  17 C :   -0.197007
  18 C :   -0.073614
  19 C :   -0.060875
  20 C :   -0.176983
  21 H :    0.032726
  22 C :   -0.034770
  23 H :    0.015582
  24 H :    0.021246
  25 C :   -0.029155
  26 H :    0.008963
  27 H :    0.036033
  28 C :   -0.075565
  29 H :    0.027721
  30 H :    0.027781
  31 H :    0.025199
  32 H :    0.032974
  33 H :    0.037514

  Mayer bond orders larger than 0.100000
B(  0-S ,  1-C ) :   1.1524 B(  0-S ,  4-C ) :   1.1503 B(  1-C ,  2-C ) :   1.5661
B(  1-C ,  4-C ) :   0.1055 B(  1-C , 32-H ) :   0.9707 B(  2-C ,  3-C ) :   1.2884
B(  2-C ,  6-C ) :   1.0201 B(  3-C ,  4-C ) :   1.5107 B(  3-C ,  5-H ) :   0.9854
B(  4-C , 20-C ) :   1.0983 B(  6-C ,  7-H ) :   0.9413 B(  6-C ,  8-H ) :   0.9472
B(  6-C ,  9-C ) :   1.0660 B(  9-C , 10-H ) :   0.9579 B(  9-C , 11-H ) :   0.9560
B(  9-C , 12-C ) :   1.0813 B( 12-C , 13-H ) :   0.9718 B( 12-C , 14-H ) :   0.9704
B( 12-C , 15-H ) :   0.9733 B( 16-S , 17-C ) :   1.1528 B( 16-S , 20-C ) :   1.1225
B( 17-C , 18-C ) :   1.6277 B( 17-C , 33-H ) :   0.9638 B( 18-C , 19-C ) :   1.2221
B( 18-C , 21-H ) :   0.9855 B( 19-C , 20-C ) :   1.5832 B( 19-C , 22-C ) :   1.0592
B( 22-C , 23-H ) :   0.9239 B( 22-C , 24-H ) :   0.9216 B( 22-C , 25-C ) :   1.0525
B( 25-C , 26-H ) :   0.9619 B( 25-C , 27-H ) :   0.9601 B( 25-C , 28-C ) :   1.0583
B( 28-C , 29-H ) :   0.9776 B( 28-C , 30-H ) :   0.9778 B( 28-C , 31-H ) :   0.9781

Dispersion correction           -0.014902403
FINAL SINGLE POINT ENERGY     -1339.874462954037

DIPOLE MOMENT
-------------
                                X             Y             Z
Electronic contribution:      5.04009       4.69880       1.78605
Nuclear contribution   :     -5.09788      -4.78635      -1.76859
                        -----------------------------------------
Total Dipole Moment    :     -0.05779      -0.08755       0.01746
                        -----------------------------------------
Magnitude (a.u.)       :      0.10635
Magnitude (Debye)      :      0.27031

Rotational constants in cm-1:     0.023493     0.008534     0.006748
Rotational constants in MHz :   704.296202   255.829938   202.312637

                             ****ORCA TERMINATED NORMALLY****
TOTAL RUN TIME: 0 days 0 hours 0 minutes 33 seconds 875 msec
