                         Program Version 4.2.1 -  RELEASE  -
|  1> ! wB97X-D3 SP def2-SVP
|  2> %pal
|  3> nprocs 16
|  4> end
|  5>
|  6> * xyz 0 1
|  7> S 	 -37.6912 	 22.8409 	 75.5888
|  8> C 	 -36.5597 	 23.3328 	 76.8193
|  9> C 	 -37.0862 	 24.2762 	 77.7052
| 10> C 	 -38.4823 	 24.3694 	 77.4901
| 11> C 	 -39.0151 	 23.5398 	 76.5025
| 12> H 	 -39.156 	 24.9083 	 78.1221
| 13> C 	 -36.3695 	 25.0264 	 78.8485
| 14> H 	 -36.4886 	 26.1084 	 78.646
| 15> H 	 -35.3156 	 24.8456 	 78.8817
| 16> C 	 -36.9349 	 24.7628 	 80.1855
| 17> H 	 -38.0112 	 25.16 	 80.1911
| 18> H 	 -36.8836 	 23.6608 	 80.4026
| 19> C 	 -36.0149 	 25.3741 	 81.2772
| 20> H 	 -36.1669 	 26.5205 	 81.3015
| 21> H 	 -36.2823 	 25.0185 	 82.3166
| 22> H 	 -34.9822 	 25.2007 	 81.152
| 23> S 	 -41.4841 	 22.7758 	 77.4781
| 24> C 	 -42.742 	 22.3698 	 76.2895
| 25> C 	 -42.3991 	 22.8825 	 75.0266
| 26> C 	 -41.0646 	 23.4007 	 75.0182
| 27> C 	 -40.4152 	 23.319 	 76.2138
| 28> H 	 -43.0107 	 22.6451 	 74.2029
| 29> C 	 -40.3826 	 23.8044 	 73.6725
| 30> H 	 -40.7222 	 23.0529 	 72.8957
| 31> H 	 -39.2752 	 23.8056 	 73.7453
| 32> C 	 -40.9421 	 25.1422 	 73.0728
| 33> H 	 -41.9786 	 25.2225 	 73.3503
| 34> H 	 -41.0195 	 25.0166 	 72.0181
| 35> C 	 -40.2151 	 26.4292 	 73.2711
| 36> H 	 -40.7413 	 26.9175 	 74.0819
| 37> H 	 -40.3472 	 27.0674 	 72.408
| 38> H 	 -39.1894 	 26.3064 	 73.4994
| 39> H 	 -35.4807 	 23.192 	 76.7052
| 40> H 	 -43.6308 	 21.8036 	 76.4436
| 41> *
| 42>
| 43>                          ****END OF INPUT****

CARTESIAN COORDINATES (ANGSTROEM)
---------------------------------
  S    -37.691200   22.840900   75.588800
  C    -36.559700   23.332800   76.819300
  C    -37.086200   24.276200   77.705200
  C    -38.482300   24.369400   77.490100
  C    -39.015100   23.539800   76.502500
  H    -39.156000   24.908300   78.122100
  C    -36.369500   25.026400   78.848500
  H    -36.488600   26.108400   78.646000
  H    -35.315600   24.845600   78.881700
  C    -36.934900   24.762800   80.185500
  H    -38.011200   25.160000   80.191100
  H    -36.883600   23.660800   80.402600
  C    -36.014900   25.374100   81.277200
  H    -36.166900   26.520500   81.301500
  H    -36.282300   25.018500   82.316600
  H    -34.982200   25.200700   81.152000
  S    -41.484100   22.775800   77.478100
  C    -42.742000   22.369800   76.289500
  C    -42.399100   22.882500   75.026600
  C    -41.064600   23.400700   75.018200
  C    -40.415200   23.319000   76.213800
  H    -43.010700   22.645100   74.202900
  C    -40.382600   23.804400   73.672500
  H    -40.722200   23.052900   72.895700
  H    -39.275200   23.805600   73.745300
  C    -40.942100   25.142200   73.072800
  H    -41.978600   25.222500   73.350300
  H    -41.019500   25.016600   72.018100
  C    -40.215100   26.429200   73.271100
  H    -40.741300   26.917500   74.081900
  H    -40.347200   27.067400   72.408000
  H    -39.189400   26.306400   73.499400
  H    -35.480700   23.192000   76.705200
  H    -43.630800   21.803600   76.443600

 Total Charge           Charge          ....    0
 Multiplicity           Mult            ....    1
 Number of Electrons    NEL             ....  134
 Basis Dimension        Dim             ....  322

ORBITAL ENERGIES
----------------

  NO   OCC          E(Eh)            E(eV)
   0   2.0000     -88.968502     -2420.9560
   1   2.0000     -88.966900     -2420.9124
   2   2.0000     -10.329009      -281.0666
   3   2.0000     -10.322253      -280.8828
   4   2.0000     -10.321577      -280.8644
   5   2.0000     -10.314390      -280.6688
   6   2.0000     -10.303748      -280.3792
   7   2.0000     -10.302381      -280.3420
   8   2.0000     -10.299321      -280.2588
   9   2.0000     -10.295425      -280.1528
  10   2.0000     -10.294222      -280.1200
  11   2.0000     -10.292617      -280.0764
  12   2.0000     -10.291080      -280.0345
  13   2.0000     -10.287408      -279.9346
  14   2.0000     -10.274144      -279.5737
  15   2.0000     -10.263508      -279.2842
  16   2.0000      -8.082791      -219.9439
  17   2.0000      -8.081268      -219.9025
  18   2.0000      -6.041306      -164.3923
  19   2.0000      -6.039909      -164.3543
  20   2.0000      -6.037481      -164.2882
  21   2.0000      -6.035862      -164.2442
  22   2.0000      -6.033453      -164.1786
  23   2.0000      -6.031857      -164.1352
  24   2.0000      -1.006767       -27.3955
  25   2.0000      -0.983326       -26.7577
  26   2.0000      -0.918054       -24.9815
  27   2.0000      -0.902424       -24.5562
  28   2.0000      -0.869700       -23.6657
  29   2.0000      -0.852567       -23.1995
  30   2.0000      -0.844543       -22.9812
  31   2.0000      -0.811086       -22.0708
  32   2.0000      -0.781868       -21.2757
  33   2.0000      -0.772379       -21.0175
  34   2.0000      -0.705650       -19.2017
  35   2.0000      -0.694247       -18.8914
  36   2.0000      -0.686620       -18.6839
  37   2.0000      -0.666364       -18.1327
  38   2.0000      -0.638308       -17.3692
  39   2.0000      -0.623037       -16.9537
  40   2.0000      -0.593203       -16.1419
  41   2.0000      -0.573310       -15.6006
  42   2.0000      -0.566558       -15.4168
  43   2.0000      -0.550117       -14.9694
  44   2.0000      -0.537705       -14.6317
  45   2.0000      -0.525547       -14.3009
  46   2.0000      -0.520226       -14.1561
  47   2.0000      -0.505578       -13.7575
  48   2.0000      -0.501163       -13.6373
  49   2.0000      -0.497641       -13.5415
  50   2.0000      -0.491993       -13.3878
  51   2.0000      -0.483651       -13.1608
  52   2.0000      -0.473427       -12.8826
  53   2.0000      -0.467682       -12.7263
  54   2.0000      -0.457143       -12.4395
  55   2.0000      -0.443617       -12.0714
  56   2.0000      -0.439993       -11.9728
  57   2.0000      -0.439209       -11.9515
  58   2.0000      -0.435012       -11.8373
  59   2.0000      -0.429558       -11.6889
  60   2.0000      -0.422409       -11.4943
  61   2.0000      -0.409433       -11.1412
  62   2.0000      -0.397819       -10.8252
  63   2.0000      -0.345616        -9.4047
  64   2.0000      -0.332083        -9.0364
  65   2.0000      -0.329930        -8.9779
  66   2.0000      -0.289598        -7.8804
  67   0.0000       0.030236         0.8228
  68   0.0000       0.059047         1.6068
  69   0.0000       0.101806         2.7703
  70   0.0000       0.118755         3.2315
  71   0.0000       0.126095         3.4312

MULLIKEN ATOMIC CHARGES
-----------------------
   0 S :    0.114413
   1 C :   -0.130116
   2 C :   -0.059252
   3 C :    0.016230
   4 C :   -0.165521
   5 H :   -0.001055
   6 C :    0.083560
   7 H :    0.037139
   8 H :    0.006180
   9 C :   -0.115109
  10 H :    0.052182
  11 H :    0.045622
  12 C :   -0.072453
  13 H :    0.036241
  14 H :    0.043618
  15 H :    0.029307
  16 S :    0.113450
  17 C :   -0.097367
  18 C :   -0.017081
  19 C :   -0.027920
  20 C :   -0.140548
  21 H :    0.012416
  22 C :    0.038012
  23 H :    0.037708
  24 H :    0.031099
  25 C :   -0.078564
  26 H :    0.013616
  27 H :    0.007975
  28 C :   -0.000956
  29 H :    0.026678
  30 H :    0.027233
  31 H :    0.028746
  32 H :    0.052439
  33 H :    0.052079
Sum of atomic charges:    0.0000000

LOEWDIN ATOMIC CHARGES
----------------------
   0 S :    0.418426
   1 C :   -0.203742
   2 C :   -0.058382
   3 C :   -0.062268
   4 C :   -0.187415
   5 H :    0.022060
   6 C :   -0.033342
   7 H :    0.037450
   8 H :    0.023608
   9 C :   -0.049473
  10 H :    0.033678
  11 H :    0.032087
  12 C :   -0.071795
  13 H :    0.031523
  14 H :    0.031721
  15 H :    0.016702
  16 S :    0.399509
  17 C :   -0.168553
  18 C :   -0.062214
  19 C :   -0.059129
  20 C :   -0.205949
  21 H :    0.025463
  22 C :   -0.030944
  23 H :    0.039855
  24 H :    0.016688
  25 C :   -0.046002
  26 H :    0.021620
  27 H :    0.017167
  28 C :   -0.059820
  29 H :    0.028674
  30 H :    0.027293
  31 H :    0.021695
  32 H :    0.027736
  33 H :    0.026074

  Mayer bond orders larger than 0.100000
B(  0-S ,  1-C ) :   1.1475 B(  0-S ,  4-C ) :   1.1451 B(  1-C ,  2-C ) :   1.6043
B(  1-C ,  4-C ) :   0.1013 B(  1-C , 32-H ) :   0.9608 B(  2-C ,  3-C ) :   1.2461
B(  2-C ,  6-C ) :   1.0181 B(  3-C ,  4-C ) :   1.5669 B(  3-C ,  5-H ) :   0.9949
B(  4-C , 20-C ) :   1.0534 B(  6-C ,  7-H ) :   0.9342 B(  6-C ,  8-H ) :   0.9438
B(  6-C ,  9-C ) :   1.0683 B(  9-C , 10-H ) :   0.9498 B(  9-C , 11-H ) :   0.9563
B(  9-C , 12-C ) :   1.0761 B( 12-C , 13-H ) :   0.9741 B( 12-C , 14-H ) :   0.9766
B( 12-C , 15-H ) :   0.9746 B( 16-S , 17-C ) :   1.1487 B( 16-S , 20-C ) :   1.1208
B( 17-C , 18-C ) :   1.6228 B( 17-C , 33-H ) :   0.9717 B( 18-C , 19-C ) :   1.2206
B( 18-C , 21-H ) :   0.9916 B( 19-C , 20-C ) :   1.6126 B( 19-C , 22-C ) :   1.0382
B( 22-C , 23-H ) :   0.9427 B( 22-C , 24-H ) :   0.9393 B( 22-C , 25-C ) :   1.0566
B( 25-C , 26-H ) :   0.9574 B( 25-C , 27-H ) :   0.9611 B( 25-C , 28-C ) :   1.0800
B( 28-C , 29-H ) :   0.9773 B( 28-C , 30-H ) :   0.9754 B( 28-C , 31-H ) :   0.9755

Dispersion correction           -0.013841863
FINAL SINGLE POINT ENERGY     -1339.864377852784

DIPOLE MOMENT
-------------
                                X             Y             Z
Electronic contribution:     -7.52193     -15.92259      -2.54540
Nuclear contribution   :      7.57192      16.14583       2.46500
                        -----------------------------------------
Total Dipole Moment    :      0.04999       0.22324      -0.08041
                        -----------------------------------------
Magnitude (a.u.)       :      0.24249
Magnitude (Debye)      :      0.61636

Rotational constants in cm-1:     0.020127     0.007841     0.006754
Rotational constants in MHz :   603.387175   235.053922   202.472943

                             ****ORCA TERMINATED NORMALLY****
TOTAL RUN TIME: 0 days 0 hours 0 minutes 27 seconds 753 msec
