                         Program Version 4.2.1 -  RELEASE  -
|  1> ! wB97X-D3 SP def2-SVP
|  2> %pal
|  3> nprocs 16
|  4> end
|  5>
|  6> * xyz 0 1
|  7> S 	 -73.6022 	 38.4691 	 123.656
|  8> C 	 -72.6171 	 38.0827 	 124.993
|  9> C 	 -71.2848 	 38.1356 	 124.591
| 10> C 	 -71.0563 	 38.4763 	 123.213
| 11> C 	 -72.2096 	 38.721 	 122.558
| 12> H 	 -70.1423 	 38.5156 	 122.622
| 13> C 	 -70.1397 	 37.8446 	 125.597
| 14> H 	 -70.2675 	 38.5246 	 126.38
| 15> H 	 -69.2348 	 38.2931 	 125.108
| 16> C 	 -69.9785 	 36.4831 	 126.178
| 17> H 	 -69.15 	 36.6697 	 126.881
| 18> H 	 -70.8914 	 36.18 	 126.673
| 19> C 	 -69.5148 	 35.4821 	 125.12
| 20> H 	 -70.3383 	 35.1726 	 124.514
| 21> H 	 -68.6287 	 35.8809 	 124.585
| 22> H 	 -69.1376 	 34.4853 	 125.49
| 23> S 	 -73.5256 	 40.7036 	 120.988
| 24> C 	 -73.2335 	 40.7469 	 119.237
| 25> C 	 -72.342 	 39.7397 	 118.897
| 26> C 	 -71.846 	 38.8873 	 119.994
| 27> C 	 -72.4647 	 39.2502 	 121.217
| 28> H 	 -72.0808 	 39.6502 	 117.833
| 29> C 	 -70.9887 	 37.6978 	 119.778
| 30> H 	 -71.5567 	 37.2192 	 119.028
| 31> H 	 -70.8945 	 37.0417 	 120.634
| 32> C 	 -69.5505 	 37.8894 	 119.162
| 33> H 	 -69.0813 	 38.6549 	 119.751
| 34> H 	 -69.5959 	 38.239 	 118.115
| 35> C 	 -68.6209 	 36.6386 	 119.369
| 36> H 	 -69.2327 	 35.7459 	 119.027
| 37> H 	 -68.3517 	 36.5698 	 120.413
| 38> H 	 -67.6155 	 36.6648 	 118.853
| 39> H 	 -72.8961 	 37.8384 	 126.058
| 40> H 	 -73.8726 	 41.346 	 118.539
| 41> *
| 42>
| 43>                          ****END OF INPUT****

CARTESIAN COORDINATES (ANGSTROEM)
---------------------------------
  S    -73.602200   38.469100  123.656000
  C    -72.617100   38.082700  124.993000
  C    -71.284800   38.135600  124.591000
  C    -71.056300   38.476300  123.213000
  C    -72.209600   38.721000  122.558000
  H    -70.142300   38.515600  122.622000
  C    -70.139700   37.844600  125.597000
  H    -70.267500   38.524600  126.380000
  H    -69.234800   38.293100  125.108000
  C    -69.978500   36.483100  126.178000
  H    -69.150000   36.669700  126.881000
  H    -70.891400   36.180000  126.673000
  C    -69.514800   35.482100  125.120000
  H    -70.338300   35.172600  124.514000
  H    -68.628700   35.880900  124.585000
  H    -69.137600   34.485300  125.490000
  S    -73.525600   40.703600  120.988000
  C    -73.233500   40.746900  119.237000
  C    -72.342000   39.739700  118.897000
  C    -71.846000   38.887300  119.994000
  C    -72.464700   39.250200  121.217000
  H    -72.080800   39.650200  117.833000
  C    -70.988700   37.697800  119.778000
  H    -71.556700   37.219200  119.028000
  H    -70.894500   37.041700  120.634000
  C    -69.550500   37.889400  119.162000
  H    -69.081300   38.654900  119.751000
  H    -69.595900   38.239000  118.115000
  C    -68.620900   36.638600  119.369000
  H    -69.232700   35.745900  119.027000
  H    -68.351700   36.569800  120.413000
  H    -67.615500   36.664800  118.853000
  H    -72.896100   37.838400  126.058000
  H    -73.872600   41.346000  118.539000

 Total Charge           Charge          ....    0
 Multiplicity           Mult            ....    1
 Number of Electrons    NEL             ....  134
 Basis Dimension        Dim             ....  322

ORBITAL ENERGIES
----------------

  NO   OCC          E(Eh)            E(eV)
   0   2.0000     -88.964310     -2420.8419
   1   2.0000     -88.963822     -2420.8287
   2   2.0000     -10.335454      -281.2420
   3   2.0000     -10.330069      -281.0955
   4   2.0000     -10.326765      -281.0056
   5   2.0000     -10.316832      -280.7353
   6   2.0000     -10.314296      -280.6663
   7   2.0000     -10.303181      -280.3638
   8   2.0000     -10.301848      -280.3275
   9   2.0000     -10.296544      -280.1832
  10   2.0000     -10.293509      -280.1006
  11   2.0000     -10.291445      -280.0445
  12   2.0000     -10.291340      -280.0416
  13   2.0000     -10.287111      -279.9265
  14   2.0000     -10.285102      -279.8719
  15   2.0000     -10.278790      -279.7001
  16   2.0000      -8.078704      -219.8327
  17   2.0000      -8.077656      -219.8042
  18   2.0000      -6.037264      -164.2823
  19   2.0000      -6.036403      -164.2589
  20   2.0000      -6.033065      -164.1680
  21   2.0000      -6.032339      -164.1483
  22   2.0000      -6.029499      -164.0710
  23   2.0000      -6.028238      -164.0367
  24   2.0000      -1.002862       -27.2893
  25   2.0000      -0.975820       -26.5534
  26   2.0000      -0.914668       -24.8894
  27   2.0000      -0.906931       -24.6788
  28   2.0000      -0.869801       -23.6685
  29   2.0000      -0.847751       -23.0685
  30   2.0000      -0.843898       -22.9636
  31   2.0000      -0.814631       -22.1672
  32   2.0000      -0.781852       -21.2753
  33   2.0000      -0.768721       -20.9180
  34   2.0000      -0.705269       -19.1913
  35   2.0000      -0.700530       -19.0624
  36   2.0000      -0.694106       -18.8876
  37   2.0000      -0.656056       -17.8522
  38   2.0000      -0.638976       -17.3874
  39   2.0000      -0.612478       -16.6664
  40   2.0000      -0.594512       -16.1775
  41   2.0000      -0.577548       -15.7159
  42   2.0000      -0.569317       -15.4919
  43   2.0000      -0.549572       -14.9546
  44   2.0000      -0.539917       -14.6919
  45   2.0000      -0.521240       -14.1837
  46   2.0000      -0.518132       -14.0991
  47   2.0000      -0.512733       -13.9522
  48   2.0000      -0.508225       -13.8295
  49   2.0000      -0.495862       -13.4931
  50   2.0000      -0.486872       -13.2485
  51   2.0000      -0.479067       -13.0361
  52   2.0000      -0.471811       -12.8386
  53   2.0000      -0.465981       -12.6800
  54   2.0000      -0.459145       -12.4940
  55   2.0000      -0.450491       -12.2585
  56   2.0000      -0.442701       -12.0465
  57   2.0000      -0.434282       -11.8174
  58   2.0000      -0.431041       -11.7292
  59   2.0000      -0.424793       -11.5592
  60   2.0000      -0.420935       -11.4542
  61   2.0000      -0.414241       -11.2721
  62   2.0000      -0.403447       -10.9784
  63   2.0000      -0.353959        -9.6317
  64   2.0000      -0.327968        -8.9245
  65   2.0000      -0.325223        -8.8498
  66   2.0000      -0.292187        -7.9508
  67   0.0000       0.025423         0.6918
  68   0.0000       0.070852         1.9280
  69   0.0000       0.109437         2.9779
  70   0.0000       0.118728         3.2308
  71   0.0000       0.126412         3.4398

MULLIKEN ATOMIC CHARGES
-----------------------
   0 S :    0.105849
   1 C :   -0.120588
   2 C :   -0.130663
   3 C :    0.053152
   4 C :   -0.177363
   5 H :    0.014760
   6 C :    0.048488
   7 H :    0.013218
   8 H :    0.016160
   9 C :   -0.023955
  10 H :    0.033307
  11 H :    0.028220
  12 C :   -0.066058
  13 H :    0.040135
  14 H :    0.030150
  15 H :    0.028613
  16 S :    0.091741
  17 C :   -0.118421
  18 C :   -0.041365
  19 C :   -0.018316
  20 C :   -0.133502
  21 H :    0.030162
  22 C :    0.052583
  23 H :    0.029218
  24 H :    0.028795
  25 C :   -0.079472
  26 H :    0.024664
  27 H :    0.039851
  28 C :   -0.090003
  29 H :    0.046567
  30 H :    0.034698
  31 H :    0.050219
  32 H :    0.072361
  33 H :    0.086794
Sum of atomic charges:    0.0000000

LOEWDIN ATOMIC CHARGES
----------------------
   0 S :    0.406824
   1 C :   -0.221885
   2 C :   -0.068457
   3 C :   -0.064243
   4 C :   -0.178590
   5 H :    0.037667
   6 C :   -0.038288
   7 H :    0.023251
   8 H :    0.031967
   9 C :   -0.038324
  10 H :    0.032125
  11 H :    0.023324
  12 C :   -0.071284
  13 H :    0.024187
  14 H :    0.027767
  15 H :    0.027991
  16 S :    0.365956
  17 C :   -0.185769
  18 C :   -0.074970
  19 C :   -0.047228
  20 C :   -0.185390
  21 H :    0.033212
  22 C :   -0.034851
  23 H :    0.034271
  24 H :    0.031545
  25 C :   -0.038501
  26 H :    0.018051
  27 H :    0.024579
  28 C :   -0.074263
  29 H :    0.031193
  30 H :    0.022300
  31 H :    0.034940
  32 H :    0.046418
  33 H :    0.044474

  Mayer bond orders larger than 0.100000
B(  0-S ,  1-C ) :   1.1424 B(  0-S ,  4-C ) :   1.1440 B(  1-C ,  2-C ) :   1.6088
B(  1-C , 32-H ) :   0.9635 B(  2-C ,  3-C ) :   1.2277 B(  2-C ,  6-C ) :   1.0000
B(  3-C ,  4-C ) :   1.5924 B(  3-C ,  5-H ) :   0.9935 B(  4-C , 20-C ) :   1.0395
B(  6-C ,  7-H ) :   0.9356 B(  6-C ,  8-H ) :   0.9427 B(  6-C ,  9-C ) :   1.0807
B(  9-C , 10-H ) :   0.9491 B(  9-C , 11-H ) :   0.9534 B(  9-C , 12-C ) :   1.0760
B( 12-C , 13-H ) :   0.9761 B( 12-C , 14-H ) :   0.9745 B( 12-C , 15-H ) :   0.9744
B( 16-S , 17-C ) :   1.1346 B( 16-S , 20-C ) :   1.1223 B( 17-C , 18-C ) :   1.6384
B( 17-C , 33-H ) :   0.9594 B( 18-C , 19-C ) :   1.2041 B( 18-C , 21-H ) :   0.9827
B( 19-C , 20-C ) :   1.5873 B( 19-C , 22-C ) :   1.0574 B( 22-C , 23-H ) :   0.9220
B( 22-C , 24-H ) :   0.9413 B( 22-C , 25-C ) :   1.0457 B( 25-C , 26-H ) :   0.9638
B( 25-C , 27-H ) :   0.9562 B( 25-C , 28-C ) :   1.0743 B( 28-C , 29-H ) :   0.9763
B( 28-C , 30-H ) :   0.9763 B( 28-C , 31-H ) :   0.9748

Dispersion correction           -0.014114880
FINAL SINGLE POINT ENERGY     -1339.868376665482

DIPOLE MOMENT
-------------
                                X             Y             Z
Electronic contribution:    -25.18666      18.11485      -1.08006
Nuclear contribution   :     25.77171     -18.44600       0.97734
                        -----------------------------------------
Total Dipole Moment    :      0.58505      -0.33115      -0.10272
                        -----------------------------------------
Magnitude (a.u.)       :      0.68007
Magnitude (Debye)      :      1.72859

Rotational constants in cm-1:     0.017122     0.009331     0.006408
Rotational constants in MHz :   513.301689   279.744077   192.109728

                             ****ORCA TERMINATED NORMALLY****
TOTAL RUN TIME: 0 days 0 hours 0 minutes 31 seconds 716 msec
