                         Program Version 4.2.1 -  RELEASE  -
|  1> ! wB97X-D3 SP def2-SVP
|  2> %pal
|  3> nprocs 16
|  4> end
|  5>
|  6> * xyz 0 1
|  7> S 	 5.44422 	 -6.50225 	 90.9972
|  8> C 	 6.26627 	 -6.01932 	 92.468
|  9> C 	 5.43475 	 -5.19583 	 93.2089
| 10> C 	 4.19256 	 -4.88632 	 92.5974
| 11> C 	 4.04514 	 -5.55998 	 91.3498
| 12> H 	 3.45635 	 -4.21403 	 92.9996
| 13> C 	 5.73617 	 -4.62476 	 94.6023
| 14> H 	 5.20816 	 -3.64495 	 94.5411
| 15> H 	 6.78672 	 -4.51674 	 94.6083
| 16> C 	 5.37133 	 -5.33739 	 95.9251
| 17> H 	 5.65389 	 -4.72119 	 96.8348
| 18> H 	 4.26571 	 -5.46011 	 96.0343
| 19> C 	 5.93037 	 -6.73959 	 96.1417
| 20> H 	 5.91496 	 -7.46038 	 95.3532
| 21> H 	 7.06443 	 -6.61866 	 96.2111
| 22> H 	 5.49103 	 -7.23411 	 97.0587
| 23> S 	 3.2378 	 -4.52622 	 88.895
| 24> C 	 1.53549 	 -4.65557 	 88.4467
| 25> C 	 0.783513 	 -5.34485 	 89.4115
| 26> C 	 1.5261 	 -5.70427 	 90.5712
| 27> C 	 2.8899 	 -5.43827 	 90.4539
| 28> H 	 -0.250707 	 -5.48892 	 89.2416
| 29> C 	 0.904702 	 -6.43092 	 91.763
| 30> H 	 -0.140578 	 -6.16271 	 91.7948
| 31> H 	 1.26414 	 -6.14357 	 92.7083
| 32> C 	 1.03207 	 -7.92445 	 91.6445
| 33> H 	 2.08509 	 -8.29337 	 91.4588
| 34> H 	 0.470052 	 -8.21539 	 90.7744
| 35> C 	 0.218049 	 -8.6386 	 92.7637
| 36> H 	 0.00636143 	 -9.57579 	 92.2556
| 37> H 	 -0.77202 	 -8.1494 	 92.9519
| 38> H 	 0.888736 	 -8.8921 	 93.618
| 39> H 	 7.21756 	 -6.37785 	 92.844
| 40> H 	 1.08725 	 -4.37523 	 87.4693
| 41> *
| 42>
| 43>                          ****END OF INPUT****

CARTESIAN COORDINATES (ANGSTROEM)
---------------------------------
  S      5.444220   -6.502250   90.997200
  C      6.266270   -6.019320   92.468000
  C      5.434750   -5.195830   93.208900
  C      4.192560   -4.886320   92.597400
  C      4.045140   -5.559980   91.349800
  H      3.456350   -4.214030   92.999600
  C      5.736170   -4.624760   94.602300
  H      5.208160   -3.644950   94.541100
  H      6.786720   -4.516740   94.608300
  C      5.371330   -5.337390   95.925100
  H      5.653890   -4.721190   96.834800
  H      4.265710   -5.460110   96.034300
  C      5.930370   -6.739590   96.141700
  H      5.914960   -7.460380   95.353200
  H      7.064430   -6.618660   96.211100
  H      5.491030   -7.234110   97.058700
  S      3.237800   -4.526220   88.895000
  C      1.535490   -4.655570   88.446700
  C      0.783513   -5.344850   89.411500
  C      1.526100   -5.704270   90.571200
  C      2.889900   -5.438270   90.453900
  H     -0.250707   -5.488920   89.241600
  C      0.904702   -6.430920   91.763000
  H     -0.140578   -6.162710   91.794800
  H      1.264140   -6.143570   92.708300
  C      1.032070   -7.924450   91.644500
  H      2.085090   -8.293370   91.458800
  H      0.470052   -8.215390   90.774400
  C      0.218049   -8.638600   92.763700
  H      0.006361   -9.575790   92.255600
  H     -0.772020   -8.149400   92.951900
  H      0.888736   -8.892100   93.618000
  H      7.217560   -6.377850   92.844000
  H      1.087250   -4.375230   87.469300

 Total Charge           Charge          ....    0
 Multiplicity           Mult            ....    1
 Number of Electrons    NEL             ....  134
 Basis Dimension        Dim             ....  322

ORBITAL ENERGIES
----------------

  NO   OCC          E(Eh)            E(eV)
   0   2.0000     -88.972101     -2421.0540
   1   2.0000     -88.964665     -2420.8516
   2   2.0000     -10.333481      -281.1883
   3   2.0000     -10.332312      -281.1565
   4   2.0000     -10.324101      -280.9331
   5   2.0000     -10.316323      -280.7214
   6   2.0000     -10.307971      -280.4942
   7   2.0000     -10.301557      -280.3196
   8   2.0000     -10.297280      -280.2032
   9   2.0000     -10.295937      -280.1667
  10   2.0000     -10.294186      -280.1190
  11   2.0000     -10.293957      -280.1128
  12   2.0000     -10.283998      -279.8418
  13   2.0000     -10.283924      -279.8398
  14   2.0000     -10.283281      -279.8223
  15   2.0000     -10.282616      -279.8042
  16   2.0000      -8.086655      -220.0491
  17   2.0000      -8.077933      -219.8117
  18   2.0000      -6.045134      -164.4965
  19   2.0000      -6.040958      -164.3828
  20   2.0000      -6.037679      -164.2936
  21   2.0000      -6.036510      -164.2618
  22   2.0000      -6.032663      -164.1571
  23   2.0000      -6.028688      -164.0489
  24   2.0000      -1.001689       -27.2574
  25   2.0000      -0.976768       -26.5792
  26   2.0000      -0.910791       -24.7839
  27   2.0000      -0.907160       -24.6851
  28   2.0000      -0.864189       -23.5158
  29   2.0000      -0.850238       -23.1361
  30   2.0000      -0.845482       -23.0067
  31   2.0000      -0.807772       -21.9806
  32   2.0000      -0.783275       -21.3140
  33   2.0000      -0.772529       -21.0216
  34   2.0000      -0.704861       -19.1802
  35   2.0000      -0.696006       -18.9393
  36   2.0000      -0.688945       -18.7471
  37   2.0000      -0.660932       -17.9849
  38   2.0000      -0.639415       -17.3994
  39   2.0000      -0.617775       -16.8105
  40   2.0000      -0.595240       -16.1973
  41   2.0000      -0.569522       -15.4975
  42   2.0000      -0.560602       -15.2548
  43   2.0000      -0.546647       -14.8750
  44   2.0000      -0.541553       -14.7364
  45   2.0000      -0.522416       -14.2157
  46   2.0000      -0.518407       -14.1066
  47   2.0000      -0.510139       -13.8816
  48   2.0000      -0.501284       -13.6406
  49   2.0000      -0.495961       -13.4958
  50   2.0000      -0.492033       -13.3889
  51   2.0000      -0.482458       -13.1284
  52   2.0000      -0.467611       -12.7244
  53   2.0000      -0.464442       -12.6381
  54   2.0000      -0.456573       -12.4240
  55   2.0000      -0.450836       -12.2679
  56   2.0000      -0.446997       -12.1634
  57   2.0000      -0.438535       -11.9331
  58   2.0000      -0.433992       -11.8095
  59   2.0000      -0.419654       -11.4194
  60   2.0000      -0.413274       -11.2457
  61   2.0000      -0.410549       -11.1716
  62   2.0000      -0.405382       -11.0310
  63   2.0000      -0.336734        -9.1630
  64   2.0000      -0.330446        -8.9919
  65   2.0000      -0.329004        -8.9527
  66   2.0000      -0.297806        -8.1037
  67   0.0000       0.029948         0.8149
  68   0.0000       0.056898         1.5483
  69   0.0000       0.111194         3.0257
  70   0.0000       0.118228         3.2171
  71   0.0000       0.124326         3.3831

MULLIKEN ATOMIC CHARGES
-----------------------
   0 S :    0.131616
   1 C :   -0.117566
   2 C :   -0.116162
   3 C :    0.054155
   4 C :   -0.172895
   5 H :    0.014664
   6 C :    0.085759
   7 H :    0.035240
   8 H :    0.011410
   9 C :   -0.062843
  10 H :    0.046334
  11 H :    0.025956
  12 C :   -0.089530
  13 H :    0.030585
  14 H :    0.020976
  15 H :    0.050682
  16 S :    0.092271
  17 C :   -0.099867
  18 C :   -0.039238
  19 C :   -0.010007
  20 C :   -0.174967
  21 H :    0.007715
  22 C :    0.124758
  23 H :    0.003061
  24 H :    0.006183
  25 C :   -0.104526
  26 H :    0.048992
  27 H :    0.011433
  28 C :   -0.050971
  29 H :    0.026869
  30 H :    0.043323
  31 H :    0.050909
  32 H :    0.045209
  33 H :    0.070473
Sum of atomic charges:    0.0000000

LOEWDIN ATOMIC CHARGES
----------------------
   0 S :    0.432177
   1 C :   -0.206507
   2 C :   -0.065560
   3 C :   -0.057208
   4 C :   -0.212454
   5 H :    0.031162
   6 C :   -0.030783
   7 H :    0.039637
   8 H :    0.022881
   9 C :   -0.049030
  10 H :    0.036200
  11 H :    0.023127
  12 C :   -0.079568
  13 H :    0.018443
  14 H :    0.026729
  15 H :    0.036016
  16 S :    0.366240
  17 C :   -0.182075
  18 C :   -0.072492
  19 C :   -0.044005
  20 C :   -0.176827
  21 H :    0.025904
  22 C :   -0.026855
  23 H :    0.026663
  24 H :    0.020806
  25 C :   -0.042406
  26 H :    0.033942
  27 H :    0.018237
  28 C :   -0.071232
  29 H :    0.026948
  30 H :    0.032632
  31 H :    0.031182
  32 H :    0.030327
  33 H :    0.037752

  Mayer bond orders larger than 0.100000
B(  0-S ,  1-C ) :   1.1383 B(  0-S ,  4-C ) :   1.1865 B(  1-C ,  2-C ) :   1.5831
B(  1-C ,  4-C ) :   0.1027 B(  1-C , 32-H ) :   0.9703 B(  2-C ,  3-C ) :   1.2764
B(  2-C ,  6-C ) :   1.0115 B(  3-C ,  4-C ) :   1.5180 B(  3-C ,  5-H ) :   0.9958
B(  4-C , 20-C ) :   1.0267 B(  6-C ,  7-H ) :   0.9389 B(  6-C ,  8-H ) :   0.9391
B(  6-C ,  9-C ) :   1.0682 B(  9-C , 10-H ) :   0.9529 B(  9-C , 11-H ) :   0.9560
B(  9-C , 12-C ) :   1.0696 B( 12-C , 13-H ) :   0.9771 B( 12-C , 14-H ) :   0.9730
B( 12-C , 15-H ) :   0.9737 B( 16-S , 17-C ) :   1.1557 B( 16-S , 20-C ) :   1.1185
B( 17-C , 18-C ) :   1.6190 B( 17-C , 20-C ) :   0.1086 B( 17-C , 33-H ) :   0.9593
B( 18-C , 19-C ) :   1.2287 B( 18-C , 21-H ) :   0.9924 B( 19-C , 20-C ) :   1.6126
B( 19-C , 22-C ) :   1.0424 B( 22-C , 23-H ) :   0.9257 B( 22-C , 24-H ) :   0.9317
B( 22-C , 25-C ) :   1.0737 B( 25-C , 26-H ) :   0.9549 B( 25-C , 27-H ) :   0.9598
B( 25-C , 28-C ) :   1.0668 B( 28-C , 29-H ) :   0.9807 B( 28-C , 30-H ) :   0.9701
B( 28-C , 31-H ) :   0.9756

Dispersion correction           -0.014194810
FINAL SINGLE POINT ENERGY     -1339.867446465385

DIPOLE MOMENT
-------------
                                X             Y             Z
Electronic contribution:      7.11822       9.77971     -25.59245
Nuclear contribution   :     -7.49999      -9.89906      26.07643
                        -----------------------------------------
Total Dipole Moment    :     -0.38177      -0.11934       0.48398
                        -----------------------------------------
Magnitude (a.u.)       :      0.62788
Magnitude (Debye)      :      1.59593

Rotational constants in cm-1:     0.018167     0.008705     0.006825
Rotational constants in MHz :   544.630328   260.956624   204.601504

                             ****ORCA TERMINATED NORMALLY****
TOTAL RUN TIME: 0 days 0 hours 0 minutes 33 seconds 293 msec
