                         Program Version 4.2.1 -  RELEASE  -
|  1> ! wB97X-D3 SP def2-SVP
|  2> %pal
|  3> nprocs 16
|  4> end
|  5>
|  6> * xyz 0 1
|  7> S 	 53.7497 	 9.83029 	 61.9398
|  8> C 	 54.8812 	 10.3007 	 63.1484
|  9> C 	 56.0162 	 10.8744 	 62.5514
| 10> C 	 55.7927 	 11.0114 	 61.1782
| 11> C 	 54.5314 	 10.673 	 60.6689
| 12> H 	 56.5297 	 11.3571 	 60.479
| 13> C 	 57.3656 	 11.1478 	 63.1645
| 14> H 	 58.1346 	 10.8999 	 62.48
| 15> H 	 57.4025 	 10.4663 	 63.9692
| 16> C 	 57.598 	 12.5728 	 63.8268
| 17> H 	 58.6484 	 12.5279 	 64.2281
| 18> H 	 57.5432 	 13.4045 	 63.1414
| 19> C 	 56.7716 	 12.8931 	 65.0739
| 20> H 	 55.72 	 12.691 	 64.8713
| 21> H 	 57.0214 	 12.1898 	 65.8918
| 22> H 	 56.8089 	 13.9493 	 65.3581
| 23> S 	 52.7187 	 11.7161 	 58.7892
| 24> C 	 52.9201 	 11.3104 	 57.0824
| 25> C 	 53.9699 	 10.4779 	 56.897
| 26> C 	 54.5843 	 10.0258 	 58.0889
| 27> C 	 54.0606 	 10.675 	 59.2349
| 28> H 	 54.2513 	 10.2511 	 55.8997
| 29> C 	 55.7458 	 9.05873 	 58.1025
| 30> H 	 56.3845 	 9.32565 	 59.0356
| 31> H 	 56.4018 	 9.23099 	 57.2845
| 32> C 	 55.3755 	 7.60828 	 58.4908
| 33> H 	 54.8807 	 7.59165 	 59.4666
| 34> H 	 56.1927 	 7.00102 	 58.6166
| 35> C 	 54.4233 	 6.94236 	 57.4254
| 36> H 	 53.5565 	 7.5147 	 57.2846
| 37> H 	 54.2295 	 5.92174 	 57.7023
| 38> H 	 54.7554 	 6.93122 	 56.3947
| 39> H 	 54.9103 	 10.0154 	 64.1967
| 40> H 	 52.3984 	 11.8697 	 56.3464
| 41> *
| 42>
| 43>                          ****END OF INPUT****

CARTESIAN COORDINATES (ANGSTROEM)
---------------------------------
  S     53.749700    9.830290   61.939800
  C     54.881200   10.300700   63.148400
  C     56.016200   10.874400   62.551400
  C     55.792700   11.011400   61.178200
  C     54.531400   10.673000   60.668900
  H     56.529700   11.357100   60.479000
  C     57.365600   11.147800   63.164500
  H     58.134600   10.899900   62.480000
  H     57.402500   10.466300   63.969200
  C     57.598000   12.572800   63.826800
  H     58.648400   12.527900   64.228100
  H     57.543200   13.404500   63.141400
  C     56.771600   12.893100   65.073900
  H     55.720000   12.691000   64.871300
  H     57.021400   12.189800   65.891800
  H     56.808900   13.949300   65.358100
  S     52.718700   11.716100   58.789200
  C     52.920100   11.310400   57.082400
  C     53.969900   10.477900   56.897000
  C     54.584300   10.025800   58.088900
  C     54.060600   10.675000   59.234900
  H     54.251300   10.251100   55.899700
  C     55.745800    9.058730   58.102500
  H     56.384500    9.325650   59.035600
  H     56.401800    9.230990   57.284500
  C     55.375500    7.608280   58.490800
  H     54.880700    7.591650   59.466600
  H     56.192700    7.001020   58.616600
  C     54.423300    6.942360   57.425400
  H     53.556500    7.514700   57.284600
  H     54.229500    5.921740   57.702300
  H     54.755400    6.931220   56.394700
  H     54.910300   10.015400   64.196700
  H     52.398400   11.869700   56.346400

 Total Charge           Charge          ....    0
 Multiplicity           Mult            ....    1
 Number of Electrons    NEL             ....  134
 Basis Dimension        Dim             ....  322

ORBITAL ENERGIES
----------------

  NO   OCC          E(Eh)            E(eV)
   0   2.0000     -88.968835     -2420.9651
   1   2.0000     -88.965525     -2420.8750
   2   2.0000     -10.334884      -281.2265
   3   2.0000     -10.330759      -281.1143
   4   2.0000     -10.315686      -280.7041
   5   2.0000     -10.315241      -280.6920
   6   2.0000     -10.307741      -280.4879
   7   2.0000     -10.298966      -280.2491
   8   2.0000     -10.294036      -280.1150
   9   2.0000     -10.292458      -280.0720
  10   2.0000     -10.292172      -280.0642
  11   2.0000     -10.291028      -280.0331
  12   2.0000     -10.289440      -279.9899
  13   2.0000     -10.282225      -279.7936
  14   2.0000     -10.278428      -279.6902
  15   2.0000     -10.264732      -279.3176
  16   2.0000      -8.084054      -219.9783
  17   2.0000      -8.080067      -219.8698
  18   2.0000      -6.042413      -164.4224
  19   2.0000      -6.038498      -164.3159
  20   2.0000      -6.038379      -164.3127
  21   2.0000      -6.035032      -164.2216
  22   2.0000      -6.034522      -164.2077
  23   2.0000      -6.031001      -164.1119
  24   2.0000      -1.008661       -27.4471
  25   2.0000      -0.989181       -26.9170
  26   2.0000      -0.909405       -24.7462
  27   2.0000      -0.903590       -24.5879
  28   2.0000      -0.866374       -23.5752
  29   2.0000      -0.849907       -23.1271
  30   2.0000      -0.844362       -22.9763
  31   2.0000      -0.815479       -22.1903
  32   2.0000      -0.786173       -21.3929
  33   2.0000      -0.774653       -21.0794
  34   2.0000      -0.712571       -19.3900
  35   2.0000      -0.698825       -19.0160
  36   2.0000      -0.692091       -18.8327
  37   2.0000      -0.661772       -18.0077
  38   2.0000      -0.641032       -17.4434
  39   2.0000      -0.622494       -16.9389
  40   2.0000      -0.594348       -16.1730
  41   2.0000      -0.574275       -15.6268
  42   2.0000      -0.557455       -15.1691
  43   2.0000      -0.552756       -15.0412
  44   2.0000      -0.541030       -14.7222
  45   2.0000      -0.537439       -14.6245
  46   2.0000      -0.519847       -14.1458
  47   2.0000      -0.511921       -13.9301
  48   2.0000      -0.498043       -13.5524
  49   2.0000      -0.490387       -13.3441
  50   2.0000      -0.485833       -13.2202
  51   2.0000      -0.483171       -13.1477
  52   2.0000      -0.473423       -12.8825
  53   2.0000      -0.467242       -12.7143
  54   2.0000      -0.462562       -12.5870
  55   2.0000      -0.449810       -12.2399
  56   2.0000      -0.446921       -12.1613
  57   2.0000      -0.435548       -11.8519
  58   2.0000      -0.434244       -11.8164
  59   2.0000      -0.429186       -11.6788
  60   2.0000      -0.419271       -11.4090
  61   2.0000      -0.412217       -11.2170
  62   2.0000      -0.405326       -11.0295
  63   2.0000      -0.339783        -9.2460
  64   2.0000      -0.329459        -8.9650
  65   2.0000      -0.327400        -8.9090
  66   2.0000      -0.302066        -8.2196
  67   0.0000       0.034075         0.9272
  68   0.0000       0.055385         1.5071
  69   0.0000       0.107907         2.9363
  70   0.0000       0.120925         3.2905
  71   0.0000       0.135352         3.6831

MULLIKEN ATOMIC CHARGES
-----------------------
   0 S :    0.131387
   1 C :   -0.113723
   2 C :   -0.110737
   3 C :    0.026125
   4 C :   -0.153925
   5 H :    0.002843
   6 C :    0.113622
   7 H :    0.025589
   8 H :    0.001071
   9 C :   -0.076568
  10 H :    0.034647
  11 H :    0.032944
  12 C :   -0.068083
  13 H :    0.026393
  14 H :    0.030064
  15 H :    0.045531
  16 S :    0.104849
  17 C :   -0.085549
  18 C :   -0.022017
  19 C :   -0.012672
  20 C :   -0.182670
  21 H :    0.007938
  22 C :    0.037106
  23 H :    0.031899
  24 H :    0.025418
  25 C :   -0.015508
  26 H :    0.030136
  27 H :    0.011285
  28 C :   -0.044075
  29 H :    0.023505
  30 H :    0.031186
  31 H :    0.011887
  32 H :    0.048731
  33 H :    0.051370
Sum of atomic charges:    0.0000000

LOEWDIN ATOMIC CHARGES
----------------------
   0 S :    0.449235
   1 C :   -0.212356
   2 C :   -0.070117
   3 C :   -0.062314
   4 C :   -0.220090
   5 H :    0.024252
   6 C :   -0.020654
   7 H :    0.030656
   8 H :    0.025077
   9 C :   -0.037201
  10 H :    0.029338
  11 H :    0.020115
  12 C :   -0.072751
  13 H :    0.021862
  14 H :    0.025680
  15 H :    0.031534
  16 S :    0.403326
  17 C :   -0.170024
  18 C :   -0.069474
  19 C :   -0.051354
  20 C :   -0.201338
  21 H :    0.028853
  22 C :   -0.036594
  23 H :    0.044726
  24 H :    0.023947
  25 C :   -0.022865
  26 H :    0.028525
  27 H :    0.011525
  28 C :   -0.067906
  29 H :    0.018128
  30 H :    0.023187
  31 H :    0.021527
  32 H :    0.030296
  33 H :    0.023250

  Mayer bond orders larger than 0.100000
B(  0-S ,  1-C ) :   1.1834 B(  0-S ,  4-C ) :   1.1834 B(  1-C ,  2-C ) :   1.5304
B(  1-C ,  4-C ) :   0.1130 B(  1-C , 32-H ) :   0.9650 B(  2-C ,  3-C ) :   1.3173
B(  2-C ,  6-C ) :   1.0162 B(  3-C ,  4-C ) :   1.5189 B(  3-C ,  5-H ) :   0.9986
B(  4-C , 20-C ) :   0.9983 B(  6-C ,  7-H ) :   0.9455 B(  6-C ,  8-H ) :   0.9328
B(  6-C ,  9-C ) :   1.0617 B(  9-C , 10-H ) :   0.9576 B(  9-C , 11-H ) :   0.9620
B(  9-C , 12-C ) :   1.0755 B( 12-C , 13-H ) :   0.9743 B( 12-C , 14-H ) :   0.9750
B( 12-C , 15-H ) :   0.9735 B( 16-S , 17-C ) :   1.1583 B( 16-S , 20-C ) :   1.1633
B( 17-C , 18-C ) :   1.6017 B( 17-C , 20-C ) :   0.1021 B( 17-C , 33-H ) :   0.9708
B( 18-C , 19-C ) :   1.2388 B( 18-C , 21-H ) :   0.9998 B( 19-C , 20-C ) :   1.5750
B( 19-C , 22-C ) :   1.0407 B( 22-C , 23-H ) :   0.9301 B( 22-C , 24-H ) :   0.9463
B( 22-C , 25-C ) :   1.0650 B( 25-C , 26-H ) :   0.9544 B( 25-C , 27-H ) :   0.9582
B( 25-C , 28-C ) :   1.0694 B( 28-C , 29-H ) :   0.9754 B( 28-C , 30-H ) :   0.9767
B( 28-C , 31-H ) :   0.9745

Dispersion correction           -0.014880965
FINAL SINGLE POINT ENERGY     -1339.866507603341

DIPOLE MOMENT
-------------
                                X             Y             Z
Electronic contribution:    -17.49940       5.04833      -5.55123
Nuclear contribution   :     18.17993      -5.14176       5.43353
                        -----------------------------------------
Total Dipole Moment    :      0.68053      -0.09342      -0.11770
                        -----------------------------------------
Magnitude (a.u.)       :      0.69692
Magnitude (Debye)      :      1.77143

Rotational constants in cm-1:     0.022791     0.007484     0.006730
Rotational constants in MHz :   683.242701   224.360850   201.758528

                             ****ORCA TERMINATED NORMALLY****
TOTAL RUN TIME: 0 days 0 hours 0 minutes 30 seconds 169 msec
