                         Program Version 4.2.1 -  RELEASE  -
|  1> ! wB97X-D3 SP def2-SVP
|  2> %pal
|  3> nprocs 16
|  4> end
|  5>
|  6> * xyz 0 1
|  7> S 	 -9.69005 	 58.8124 	 54.5923
|  8> C 	 -8.46861 	 57.9381 	 55.3898
|  9> C 	 -7.75581 	 58.6768 	 56.3096
| 10> C 	 -8.18027 	 60.0131 	 56.3723
| 11> C 	 -9.22591 	 60.2004 	 55.4304
| 12> H 	 -7.72692 	 60.8002 	 56.9735
| 13> C 	 -6.56315 	 58.224 	 57.0417
| 14> H 	 -6.84682 	 57.2521 	 57.3108
| 15> H 	 -6.46789 	 58.5969 	 58.0497
| 16> C 	 -5.21942 	 58.1138 	 56.2579
| 17> H 	 -4.49019 	 57.6779 	 56.8309
| 18> H 	 -5.3453 	 57.5185 	 55.3407
| 19> C 	 -4.57449 	 59.5539 	 55.8154
| 20> H 	 -5.01321 	 59.8731 	 54.8522
| 21> H 	 -4.73917 	 60.2444 	 56.6219
| 22> H 	 -3.5003 	 59.4376 	 55.6577
| 23> S 	 -11.632 	 61.3072 	 55.5457
| 24> C 	 -12.0167 	 62.8529 	 54.929
| 25> C 	 -10.8354 	 63.4543 	 54.5749
| 26> C 	 -9.66003 	 62.6494 	 54.5697
| 27> C 	 -9.97291 	 61.4258 	 55.1085
| 28> H 	 -10.8324 	 64.5169 	 54.364
| 29> C 	 -8.29722 	 63.0677 	 54.017
| 30> H 	 -8.49197 	 62.9657 	 52.9564
| 31> H 	 -7.54176 	 62.3279 	 54.2075
| 32> C 	 -7.72182 	 64.4476 	 54.523
| 33> H 	 -8.44939 	 65.2077 	 54.3302
| 34> H 	 -6.8165 	 64.7438 	 53.9944
| 35> C 	 -7.28076 	 64.6093 	 56.0038
| 36> H 	 -6.68034 	 65.4755 	 56.0103
| 37> H 	 -6.63819 	 63.7599 	 56.3863
| 38> H 	 -8.10162 	 64.695 	 56.6956
| 39> H 	 -8.29104 	 56.9066 	 55.1788
| 40> H 	 -12.9011 	 63.4168 	 54.9476
| 41> *
| 42>
| 43>                          ****END OF INPUT****

CARTESIAN COORDINATES (ANGSTROEM)
---------------------------------
  S     -9.690050   58.812400   54.592300
  C     -8.468610   57.938100   55.389800
  C     -7.755810   58.676800   56.309600
  C     -8.180270   60.013100   56.372300
  C     -9.225910   60.200400   55.430400
  H     -7.726920   60.800200   56.973500
  C     -6.563150   58.224000   57.041700
  H     -6.846820   57.252100   57.310800
  H     -6.467890   58.596900   58.049700
  C     -5.219420   58.113800   56.257900
  H     -4.490190   57.677900   56.830900
  H     -5.345300   57.518500   55.340700
  C     -4.574490   59.553900   55.815400
  H     -5.013210   59.873100   54.852200
  H     -4.739170   60.244400   56.621900
  H     -3.500300   59.437600   55.657700
  S    -11.632000   61.307200   55.545700
  C    -12.016700   62.852900   54.929000
  C    -10.835400   63.454300   54.574900
  C     -9.660030   62.649400   54.569700
  C     -9.972910   61.425800   55.108500
  H    -10.832400   64.516900   54.364000
  C     -8.297220   63.067700   54.017000
  H     -8.491970   62.965700   52.956400
  H     -7.541760   62.327900   54.207500
  C     -7.721820   64.447600   54.523000
  H     -8.449390   65.207700   54.330200
  H     -6.816500   64.743800   53.994400
  C     -7.280760   64.609300   56.003800
  H     -6.680340   65.475500   56.010300
  H     -6.638190   63.759900   56.386300
  H     -8.101620   64.695000   56.695600
  H     -8.291040   56.906600   55.178800
  H    -12.901100   63.416800   54.947600

 Total Charge           Charge          ....    0
 Multiplicity           Mult            ....    1
 Number of Electrons    NEL             ....  134
 Basis Dimension        Dim             ....  322

ORBITAL ENERGIES
----------------

  NO   OCC          E(Eh)            E(eV)
   0   2.0000     -88.969279     -2420.9772
   1   2.0000     -88.958723     -2420.6899
   2   2.0000     -10.323418      -280.9145
   3   2.0000     -10.316527      -280.7270
   4   2.0000     -10.304998      -280.4132
   5   2.0000     -10.303286      -280.3667
   6   2.0000     -10.298763      -280.2436
   7   2.0000     -10.292896      -280.0839
   8   2.0000     -10.292665      -280.0777
   9   2.0000     -10.292528      -280.0739
  10   2.0000     -10.289608      -279.9945
  11   2.0000     -10.288930      -279.9760
  12   2.0000     -10.285673      -279.8874
  13   2.0000     -10.282390      -279.7980
  14   2.0000     -10.280771      -279.7540
  15   2.0000     -10.278119      -279.6818
  16   2.0000      -8.085823      -220.0264
  17   2.0000      -8.074793      -219.7263
  18   2.0000      -6.043865      -164.4619
  19   2.0000      -6.039998      -164.3567
  20   2.0000      -6.037034      -164.2761
  21   2.0000      -6.033231      -164.1726
  22   2.0000      -6.028994      -164.0573
  23   2.0000      -6.025647      -163.9662
  24   2.0000      -1.017263       -27.6811
  25   2.0000      -0.993376       -27.0311
  26   2.0000      -0.911811       -24.8116
  27   2.0000      -0.901420       -24.5289
  28   2.0000      -0.863919       -23.5084
  29   2.0000      -0.851520       -23.1710
  30   2.0000      -0.846955       -23.0468
  31   2.0000      -0.812268       -22.1029
  32   2.0000      -0.785849       -21.3840
  33   2.0000      -0.775251       -21.0956
  34   2.0000      -0.709090       -19.2953
  35   2.0000      -0.702655       -19.1202
  36   2.0000      -0.696021       -18.9397
  37   2.0000      -0.656709       -17.8700
  38   2.0000      -0.642587       -17.4857
  39   2.0000      -0.617744       -16.8097
  40   2.0000      -0.596296       -16.2260
  41   2.0000      -0.574581       -15.6351
  42   2.0000      -0.552939       -15.0462
  43   2.0000      -0.546307       -14.8658
  44   2.0000      -0.542437       -14.7605
  45   2.0000      -0.537527       -14.6268
  46   2.0000      -0.517014       -14.0687
  47   2.0000      -0.510915       -13.9027
  48   2.0000      -0.498284       -13.5590
  49   2.0000      -0.491717       -13.3803
  50   2.0000      -0.490382       -13.3440
  51   2.0000      -0.476295       -12.9607
  52   2.0000      -0.473182       -12.8759
  53   2.0000      -0.464652       -12.6438
  54   2.0000      -0.459650       -12.5077
  55   2.0000      -0.453895       -12.3511
  56   2.0000      -0.447833       -12.1862
  57   2.0000      -0.444515       -12.0959
  58   2.0000      -0.434847       -11.8328
  59   2.0000      -0.432549       -11.7703
  60   2.0000      -0.420513       -11.4427
  61   2.0000      -0.411882       -11.2079
  62   2.0000      -0.405073       -11.0226
  63   2.0000      -0.338704        -9.2166
  64   2.0000      -0.329946        -8.9783
  65   2.0000      -0.323561        -8.8045
  66   2.0000      -0.297052        -8.0832
  67   0.0000       0.044216         1.2032
  68   0.0000       0.068507         1.8642
  69   0.0000       0.122879         3.3437
  70   0.0000       0.125947         3.4272
  71   0.0000       0.127915         3.4808

MULLIKEN ATOMIC CHARGES
-----------------------
   0 S :    0.157796
   1 C :   -0.121994
   2 C :   -0.085121
   3 C :    0.057726
   4 C :   -0.196503
   5 H :    0.014859
   6 C :    0.094267
   7 H :   -0.002787
   8 H :    0.015398
   9 C :   -0.039724
  10 H :    0.014465
  11 H :    0.031511
  12 C :   -0.080872
  13 H :    0.048874
  14 H :    0.029493
  15 H :    0.034577
  16 S :    0.113527
  17 C :   -0.052884
  18 C :   -0.080492
  19 C :   -0.013370
  20 C :   -0.199062
  21 H :    0.011674
  22 C :    0.111317
  23 H :    0.041268
  24 H :    0.015332
  25 C :   -0.083538
  26 H :    0.023413
  27 H :    0.030093
  28 C :   -0.052958
  29 H :    0.027469
  30 H :    0.033035
  31 H :    0.038785
  32 H :    0.030000
  33 H :    0.034426
Sum of atomic charges:   -0.0000000

LOEWDIN ATOMIC CHARGES
----------------------
   0 S :    0.474313
   1 C :   -0.216239
   2 C :   -0.064875
   3 C :   -0.055974
   4 C :   -0.220667
   5 H :    0.035359
   6 C :   -0.039856
   7 H :    0.028688
   8 H :    0.031561
   9 C :   -0.020232
  10 H :    0.010481
  11 H :    0.026237
  12 C :   -0.067068
  13 H :    0.028273
  14 H :    0.018285
  15 H :    0.025038
  16 S :    0.433093
  17 C :   -0.200713
  18 C :   -0.074778
  19 C :   -0.063524
  20 C :   -0.214814
  21 H :    0.024703
  22 C :   -0.026824
  23 H :    0.039595
  24 H :    0.027108
  25 C :   -0.037064
  26 H :    0.017975
  27 H :    0.027007
  28 C :   -0.061761
  29 H :    0.022288
  30 H :    0.029200
  31 H :    0.022100
  32 H :    0.018757
  33 H :    0.024330

  Mayer bond orders larger than 0.100000
B(  0-S ,  1-C ) :   1.1633 B(  0-S ,  4-C ) :   1.2243 B(  1-C ,  2-C ) :   1.5683
B(  1-C ,  4-C ) :   0.1021 B(  1-C , 32-H ) :   0.9723 B(  2-C ,  3-C ) :   1.2811
B(  2-C ,  6-C ) :   1.0276 B(  3-C ,  4-C ) :   1.5124 B(  3-C ,  5-H ) :   1.0034
B(  4-C , 20-C ) :   0.9711 B(  6-C ,  7-H ) :   0.9156 B(  6-C ,  8-H ) :   0.9353
B(  6-C ,  9-C ) :   1.0782 B(  9-C , 10-H ) :   0.9588 B(  9-C , 11-H ) :   0.9598
B(  9-C , 12-C ) :   1.0618 B( 12-C , 13-H ) :   0.9807 B( 12-C , 14-H ) :   0.9798
B( 12-C , 15-H ) :   0.9795 B( 16-S , 17-C ) :   1.1471 B( 16-S , 20-C ) :   1.1813
B( 17-C , 18-C ) :   1.6129 B( 17-C , 33-H ) :   0.9737 B( 18-C , 19-C ) :   1.2397
B( 18-C , 21-H ) :   0.9835 B( 19-C , 20-C ) :   1.5994 B( 19-C , 22-C ) :   1.0250
B( 22-C , 23-H ) :   0.9340 B( 22-C , 24-H ) :   0.9366 B( 22-C , 25-C ) :   1.0596
B( 25-C , 26-H ) :   0.9592 B( 25-C , 27-H ) :   0.9621 B( 25-C , 28-C ) :   1.0709
B( 28-C , 29-H ) :   0.9758 B( 28-C , 30-H ) :   0.9747 B( 28-C , 31-H ) :   0.9779

Dispersion correction           -0.014783764
FINAL SINGLE POINT ENERGY     -1339.864640578076

DIPOLE MOMENT
-------------
                                X             Y             Z
Electronic contribution:    -27.23818      -9.38563      -3.83420
Nuclear contribution   :     27.83211       9.57098       3.89967
                        -----------------------------------------
Total Dipole Moment    :      0.59393       0.18535       0.06547
                        -----------------------------------------
Magnitude (a.u.)       :      0.62561
Magnitude (Debye)      :      1.59018

Rotational constants in cm-1:     0.018198     0.009870     0.007036
Rotational constants in MHz :   545.556306   295.894350   210.924002

                             ****ORCA TERMINATED NORMALLY****
TOTAL RUN TIME: 0 days 0 hours 0 minutes 34 seconds 444 msec
