                         Program Version 4.2.1 -  RELEASE  -
|  1> ! wB97X-D3 SP def2-SVP
|  2> %pal
|  3> nprocs 16
|  4> end
|  5>
|  6> * xyz 0 1
|  7> S 	 -93.7423 	 58.5948 	 125.907
|  8> C 	 -92.1566 	 58.0336 	 126.18
|  9> C 	 -92.0851 	 57.4706 	 127.434
| 10> C 	 -93.2865 	 57.5939 	 128.159
| 11> C 	 -94.2769 	 58.3088 	 127.51
| 12> H 	 -93.3718 	 57.3003 	 129.221
| 13> C 	 -90.8866 	 56.824 	 128.167
| 14> H 	 -90.5579 	 57.4642 	 129.027
| 15> H 	 -90.033 	 56.6913 	 127.489
| 16> C 	 -91.2423 	 55.4227 	 128.737
| 17> H 	 -92.2649 	 55.3217 	 129.095
| 18> H 	 -91.2136 	 54.6421 	 128.004
| 19> C 	 -90.2714 	 55.0181 	 129.823
| 20> H 	 -90.3424 	 53.9685 	 130.215
| 21> H 	 -89.2479 	 55.2037 	 129.467
| 22> H 	 -90.3201 	 55.6037 	 130.711
| 23> S 	 -96.9231 	 57.7244 	 127.581
| 24> C 	 -98.0457 	 58.601 	 128.607
| 25> C 	 -97.3449 	 59.5143 	 129.434
| 26> C 	 -95.9356 	 59.5126 	 129.088
| 27> C 	 -95.5645 	 58.6931 	 128.08
| 28> H 	 -97.865 	 60.1064 	 130.21
| 29> C 	 -95.0344 	 60.5026 	 129.855
| 30> H 	 -95.4992 	 61.4118 	 129.879
| 31> H 	 -94.1359 	 60.489 	 129.128
| 32> C 	 -94.6468 	 60.0535 	 131.311
| 33> H 	 -94.1549 	 59.0639 	 131.094
| 34> H 	 -95.5439 	 59.8083 	 132.002
| 35> C 	 -93.6631 	 60.9087 	 131.97
| 36> H 	 -93.6181 	 60.681 	 133.062
| 37> H 	 -93.9043 	 62.0046 	 132.076
| 38> H 	 -92.6143 	 60.6431 	 131.532
| 39> H 	 -91.4251 	 58.1624 	 125.492
| 40> H 	 -99.1274 	 58.4916 	 128.65
| 41> *
| 42>
| 43>                          ****END OF INPUT****

CARTESIAN COORDINATES (ANGSTROEM)
---------------------------------
  S    -93.742300   58.594800  125.907000
  C    -92.156600   58.033600  126.180000
  C    -92.085100   57.470600  127.434000
  C    -93.286500   57.593900  128.159000
  C    -94.276900   58.308800  127.510000
  H    -93.371800   57.300300  129.221000
  C    -90.886600   56.824000  128.167000
  H    -90.557900   57.464200  129.027000
  H    -90.033000   56.691300  127.489000
  C    -91.242300   55.422700  128.737000
  H    -92.264900   55.321700  129.095000
  H    -91.213600   54.642100  128.004000
  C    -90.271400   55.018100  129.823000
  H    -90.342400   53.968500  130.215000
  H    -89.247900   55.203700  129.467000
  H    -90.320100   55.603700  130.711000
  S    -96.923100   57.724400  127.581000
  C    -98.045700   58.601000  128.607000
  C    -97.344900   59.514300  129.434000
  C    -95.935600   59.512600  129.088000
  C    -95.564500   58.693100  128.080000
  H    -97.865000   60.106400  130.210000
  C    -95.034400   60.502600  129.855000
  H    -95.499200   61.411800  129.879000
  H    -94.135900   60.489000  129.128000
  C    -94.646800   60.053500  131.311000
  H    -94.154900   59.063900  131.094000
  H    -95.543900   59.808300  132.002000
  C    -93.663100   60.908700  131.970000
  H    -93.618100   60.681000  133.062000
  H    -93.904300   62.004600  132.076000
  H    -92.614300   60.643100  131.532000
  H    -91.425100   58.162400  125.492000
  H    -99.127400   58.491600  128.650000

 Total Charge           Charge          ....    0
 Multiplicity           Mult            ....    1
 Number of Electrons    NEL             ....  134
 Basis Dimension        Dim             ....  322

ORBITAL ENERGIES
----------------

  NO   OCC          E(Eh)            E(eV)
   0   2.0000     -88.965893     -2420.8850
   1   2.0000     -88.962413     -2420.7903
   2   2.0000     -10.328072      -281.0411
   3   2.0000     -10.323059      -280.9047
   4   2.0000     -10.322199      -280.8813
   5   2.0000     -10.308987      -280.5218
   6   2.0000     -10.302305      -280.3400
   7   2.0000     -10.301984      -280.3312
   8   2.0000     -10.301217      -280.3104
   9   2.0000     -10.299622      -280.2670
  10   2.0000     -10.295107      -280.1441
  11   2.0000     -10.293076      -280.0888
  12   2.0000     -10.290096      -280.0077
  13   2.0000     -10.288008      -279.9509
  14   2.0000     -10.284098      -279.8445
  15   2.0000     -10.277321      -279.6601
  16   2.0000      -8.082161      -219.9268
  17   2.0000      -8.077405      -219.7974
  18   2.0000      -6.040543      -164.3715
  19   2.0000      -6.036210      -164.2536
  20   2.0000      -6.036066      -164.2497
  21   2.0000      -6.033199      -164.1717
  22   2.0000      -6.031753      -164.1323
  23   2.0000      -6.028100      -164.0329
  24   2.0000      -1.015484       -27.6327
  25   2.0000      -0.988803       -26.9067
  26   2.0000      -0.911559       -24.8048
  27   2.0000      -0.905669       -24.6445
  28   2.0000      -0.873004       -23.7556
  29   2.0000      -0.852772       -23.2051
  30   2.0000      -0.849730       -23.1223
  31   2.0000      -0.814452       -22.1624
  32   2.0000      -0.777578       -21.1590
  33   2.0000      -0.770373       -20.9629
  34   2.0000      -0.707827       -19.2610
  35   2.0000      -0.700012       -19.0483
  36   2.0000      -0.684756       -18.6331
  37   2.0000      -0.665140       -18.0994
  38   2.0000      -0.652149       -17.7459
  39   2.0000      -0.625044       -17.0083
  40   2.0000      -0.585021       -15.9192
  41   2.0000      -0.572795       -15.5865
  42   2.0000      -0.565734       -15.3944
  43   2.0000      -0.556536       -15.1441
  44   2.0000      -0.528705       -14.3868
  45   2.0000      -0.524582       -14.2746
  46   2.0000      -0.518872       -14.1192
  47   2.0000      -0.513601       -13.9758
  48   2.0000      -0.511344       -13.9144
  49   2.0000      -0.505509       -13.7556
  50   2.0000      -0.498741       -13.5714
  51   2.0000      -0.477601       -12.9962
  52   2.0000      -0.475412       -12.9366
  53   2.0000      -0.464125       -12.6295
  54   2.0000      -0.459800       -12.5118
  55   2.0000      -0.450138       -12.2489
  56   2.0000      -0.440016       -11.9734
  57   2.0000      -0.437569       -11.9069
  58   2.0000      -0.422063       -11.4849
  59   2.0000      -0.418399       -11.3852
  60   2.0000      -0.416091       -11.3224
  61   2.0000      -0.414761       -11.2862
  62   2.0000      -0.405343       -11.0299
  63   2.0000      -0.337453        -9.1826
  64   2.0000      -0.330302        -8.9880
  65   2.0000      -0.325414        -8.8550
  66   2.0000      -0.309973        -8.4348
  67   0.0000       0.041572         1.1312
  68   0.0000       0.060358         1.6424
  69   0.0000       0.115859         3.1527
  70   0.0000       0.122182         3.3247
  71   0.0000       0.131976         3.5913

MULLIKEN ATOMIC CHARGES
-----------------------
   0 S :    0.126539
   1 C :   -0.091624
   2 C :   -0.055914
   3 C :    0.020616
   4 C :   -0.183969
   5 H :    0.032970
   6 C :    0.050477
   7 H :    0.049260
   8 H :    0.026944
   9 C :   -0.061109
  10 H :    0.028295
  11 H :    0.022845
  12 C :   -0.067217
  13 H :    0.041204
  14 H :    0.023614
  15 H :    0.018674
  16 S :    0.104568
  17 C :   -0.097420
  18 C :   -0.047704
  19 C :   -0.045193
  20 C :   -0.151848
  21 H :    0.035643
  22 C :    0.078814
  23 H :    0.005903
  24 H :    0.045304
  25 C :   -0.109676
  26 H :    0.029068
  27 H :    0.044614
  28 C :   -0.064814
  29 H :    0.030327
  30 H :    0.040565
  31 H :    0.052736
  32 H :    0.005748
  33 H :    0.061762
Sum of atomic charges:   -0.0000000

LOEWDIN ATOMIC CHARGES
----------------------
   0 S :    0.447911
   1 C :   -0.189164
   2 C :   -0.067614
   3 C :   -0.061894
   4 C :   -0.219746
   5 H :    0.035216
   6 C :   -0.026385
   7 H :    0.037065
   8 H :    0.029996
   9 C :   -0.042428
  10 H :    0.022248
  11 H :    0.023926
  12 C :   -0.071159
  13 H :    0.032292
  14 H :    0.024497
  15 H :    0.016383
  16 S :    0.408091
  17 C :   -0.183143
  18 C :   -0.075103
  19 C :   -0.056889
  20 C :   -0.209438
  21 H :    0.037554
  22 C :   -0.023887
  23 H :    0.011566
  24 H :    0.043112
  25 C :   -0.058412
  26 H :    0.029695
  27 H :    0.031501
  28 C :   -0.086448
  29 H :    0.030287
  30 H :    0.030205
  31 H :    0.040924
  32 H :    0.008021
  33 H :    0.031224

  Mayer bond orders larger than 0.100000
B(  0-S ,  1-C ) :   1.1671 B(  0-S ,  4-C ) :   1.1785 B(  1-C ,  2-C ) :   1.5645
B(  1-C ,  4-C ) :   0.1015 B(  1-C , 32-H ) :   0.9945 B(  2-C ,  3-C ) :   1.2772
B(  2-C ,  6-C ) :   1.0161 B(  3-C ,  4-C ) :   1.5458 B(  3-C ,  5-H ) :   0.9868
B(  4-C , 20-C ) :   0.9957 B(  6-C ,  7-H ) :   0.9533 B(  6-C ,  8-H ) :   0.9410
B(  6-C ,  9-C ) :   1.0404 B(  9-C , 10-H ) :   0.9622 B(  9-C , 11-H ) :   0.9526
B(  9-C , 12-C ) :   1.0779 B( 12-C , 13-H ) :   0.9732 B( 12-C , 14-H ) :   0.9715
B( 12-C , 15-H ) :   0.9760 B( 16-S , 17-C ) :   1.1626 B( 16-S , 20-C ) :   1.1338
B( 17-C , 18-C ) :   1.6067 B( 17-C , 33-H ) :   0.9678 B( 18-C , 19-C ) :   1.2215
B( 18-C , 21-H ) :   0.9867 B( 19-C , 20-C ) :   1.6552 B( 19-C , 22-C ) :   1.0285
B( 22-C , 23-H ) :   0.9371 B( 22-C , 24-H ) :   0.9424 B( 22-C , 25-C ) :   1.0489
B( 25-C , 26-H ) :   0.9523 B( 25-C , 27-H ) :   0.9541 B( 25-C , 28-C ) :   1.0990
B( 28-C , 29-H ) :   0.9675 B( 28-C , 30-H ) :   0.9684 B( 28-C , 31-H ) :   0.9713

Dispersion correction           -0.014036115
FINAL SINGLE POINT ENERGY     -1339.861928924941

DIPOLE MOMENT
-------------
                                X             Y             Z
Electronic contribution:    -18.83207       1.67327     -23.09462
Nuclear contribution   :     19.14982      -1.63362      23.67415
                        -----------------------------------------
Total Dipole Moment    :      0.31776       0.03965       0.57953
                        -----------------------------------------
Magnitude (a.u.)       :      0.66212
Magnitude (Debye)      :      1.68296

Rotational constants in cm-1:     0.015869     0.009087     0.007199
Rotational constants in MHz :   475.726602   272.415831   215.826373

                             ****ORCA TERMINATED NORMALLY****
TOTAL RUN TIME: 0 days 0 hours 0 minutes 34 seconds 434 msec
