                         Program Version 4.2.1 -  RELEASE  -
|  1> ! wB97X-D3 SP def2-SVP
|  2> %pal
|  3> nprocs 16
|  4> end
|  5>
|  6> * xyz 0 1
|  7> S 	 -6.46185 	 44.328 	 40.9914
|  8> C 	 -5.36396 	 43.1169 	 40.3187
|  9> C 	 -5.88703 	 41.8566 	 40.6749
| 10> C 	 -7.03368 	 41.8725 	 41.5137
| 11> C 	 -7.54185 	 43.1451 	 41.7578
| 12> H 	 -7.44372 	 40.9972 	 41.9041
| 13> C 	 -5.0499 	 40.6419 	 40.3553
| 14> H 	 -4.4848 	 40.8454 	 39.4215
| 15> H 	 -5.78949 	 39.8704 	 40.1337
| 16> C 	 -4.09866 	 40.0314 	 41.3477
| 17> H 	 -4.62131 	 39.5598 	 42.2591
| 18> H 	 -3.49155 	 39.3245 	 40.7838
| 19> C 	 -3.08304 	 41.1695 	 41.808
| 20> H 	 -3.53664 	 41.9305 	 42.4203
| 21> H 	 -2.29056 	 40.6085 	 42.3034
| 22> H 	 -2.56914 	 41.6498 	 40.9984
| 23> S 	 -10.0668 	 43.8265 	 41.2396
| 24> C 	 -11.2497 	 43.9768 	 42.4884
| 25> C 	 -10.7724 	 43.3845 	 43.6443
| 26> C 	 -9.37546 	 43.069 	 43.5349
| 27> C 	 -8.80586 	 43.399 	 42.2963
| 28> H 	 -11.3765 	 43.268 	 44.5451
| 29> C 	 -8.61979 	 42.4214 	 44.7147
| 30> H 	 -7.62129 	 42.8353 	 44.7996
| 31> H 	 -8.38405 	 41.4299 	 44.3378
| 32> C 	 -9.21974 	 42.331 	 46.1529
| 33> H 	 -10.2483 	 41.8739 	 46.0793
| 34> H 	 -9.29433 	 43.3474 	 46.576
| 35> C 	 -8.29947 	 41.4842 	 47.1248
| 36> H 	 -7.26174 	 41.7974 	 47.1294
| 37> H 	 -8.31149 	 40.4587 	 46.8681
| 38> H 	 -8.58052 	 41.5852 	 48.1127
| 39> H 	 -4.47413 	 43.1922 	 39.7137
| 40> H 	 -12.2917 	 44.2876 	 42.3064
| 41> *
| 42>
| 43>                          ****END OF INPUT****

CARTESIAN COORDINATES (ANGSTROEM)
---------------------------------
  S     -6.461850   44.328000   40.991400
  C     -5.363960   43.116900   40.318700
  C     -5.887030   41.856600   40.674900
  C     -7.033680   41.872500   41.513700
  C     -7.541850   43.145100   41.757800
  H     -7.443720   40.997200   41.904100
  C     -5.049900   40.641900   40.355300
  H     -4.484800   40.845400   39.421500
  H     -5.789490   39.870400   40.133700
  C     -4.098660   40.031400   41.347700
  H     -4.621310   39.559800   42.259100
  H     -3.491550   39.324500   40.783800
  C     -3.083040   41.169500   41.808000
  H     -3.536640   41.930500   42.420300
  H     -2.290560   40.608500   42.303400
  H     -2.569140   41.649800   40.998400
  S    -10.066800   43.826500   41.239600
  C    -11.249700   43.976800   42.488400
  C    -10.772400   43.384500   43.644300
  C     -9.375460   43.069000   43.534900
  C     -8.805860   43.399000   42.296300
  H    -11.376500   43.268000   44.545100
  C     -8.619790   42.421400   44.714700
  H     -7.621290   42.835300   44.799600
  H     -8.384050   41.429900   44.337800
  C     -9.219740   42.331000   46.152900
  H    -10.248300   41.873900   46.079300
  H     -9.294330   43.347400   46.576000
  C     -8.299470   41.484200   47.124800
  H     -7.261740   41.797400   47.129400
  H     -8.311490   40.458700   46.868100
  H     -8.580520   41.585200   48.112700
  H     -4.474130   43.192200   39.713700
  H    -12.291700   44.287600   42.306400

 Total Charge           Charge          ....    0
 Multiplicity           Mult            ....    1
 Number of Electrons    NEL             ....  134
 Basis Dimension        Dim             ....  322

ORBITAL ENERGIES
----------------

  NO   OCC          E(Eh)            E(eV)
   0   2.0000     -88.969207     -2420.9752
   1   2.0000     -88.961641     -2420.7693
   2   2.0000     -10.330014      -281.0940
   3   2.0000     -10.319068      -280.7961
   4   2.0000     -10.318062      -280.7687
   5   2.0000     -10.317079      -280.7420
   6   2.0000     -10.306894      -280.4648
   7   2.0000     -10.300287      -280.2851
   8   2.0000     -10.299070      -280.2519
   9   2.0000     -10.295933      -280.1666
  10   2.0000     -10.294341      -280.1233
  11   2.0000     -10.293106      -280.0897
  12   2.0000     -10.291394      -280.0431
  13   2.0000     -10.287478      -279.9365
  14   2.0000     -10.273880      -279.5665
  15   2.0000     -10.273508      -279.5564
  16   2.0000      -8.082656      -219.9402
  17   2.0000      -8.077853      -219.8095
  18   2.0000      -6.041208      -164.3896
  19   2.0000      -6.037102      -164.2779
  20   2.0000      -6.036307      -164.2563
  21   2.0000      -6.033646      -164.1839
  22   2.0000      -6.032039      -164.1401
  23   2.0000      -6.028670      -164.0484
  24   2.0000      -1.012402       -27.5489
  25   2.0000      -0.983447       -26.7610
  26   2.0000      -0.912135       -24.8204
  27   2.0000      -0.900095       -24.4928
  28   2.0000      -0.875085       -23.8123
  29   2.0000      -0.847876       -23.0719
  30   2.0000      -0.842112       -22.9150
  31   2.0000      -0.814389       -22.1607
  32   2.0000      -0.782601       -21.2957
  33   2.0000      -0.773197       -21.0398
  34   2.0000      -0.715929       -19.4814
  35   2.0000      -0.704052       -19.1582
  36   2.0000      -0.691673       -18.8214
  37   2.0000      -0.652924       -17.7670
  38   2.0000      -0.638793       -17.3824
  39   2.0000      -0.621464       -16.9109
  40   2.0000      -0.596647       -16.2356
  41   2.0000      -0.569350       -15.4928
  42   2.0000      -0.563338       -15.3292
  43   2.0000      -0.552716       -15.0402
  44   2.0000      -0.544432       -14.8147
  45   2.0000      -0.524601       -14.2751
  46   2.0000      -0.518143       -14.0994
  47   2.0000      -0.515322       -14.0226
  48   2.0000      -0.512074       -13.9342
  49   2.0000      -0.497319       -13.5327
  50   2.0000      -0.485983       -13.2243
  51   2.0000      -0.475174       -12.9301
  52   2.0000      -0.473317       -12.8796
  53   2.0000      -0.470883       -12.8134
  54   2.0000      -0.460146       -12.5212
  55   2.0000      -0.453814       -12.3489
  56   2.0000      -0.446045       -12.1375
  57   2.0000      -0.434025       -11.8104
  58   2.0000      -0.430312       -11.7094
  59   2.0000      -0.425716       -11.5843
  60   2.0000      -0.423679       -11.5289
  61   2.0000      -0.416206       -11.3255
  62   2.0000      -0.399265       -10.8646
  63   2.0000      -0.343687        -9.3522
  64   2.0000      -0.325617        -8.8605
  65   2.0000      -0.322617        -8.7789
  66   2.0000      -0.297709        -8.1011
  67   0.0000       0.026910         0.7323
  68   0.0000       0.061854         1.6831
  69   0.0000       0.118809         3.2330
  70   0.0000       0.121953         3.3185
  71   0.0000       0.129375         3.5205

MULLIKEN ATOMIC CHARGES
-----------------------
   0 S :    0.121218
   1 C :   -0.106214
   2 C :   -0.110187
   3 C :    0.074609
   4 C :   -0.176995
   5 H :   -0.011166
   6 C :    0.030528
   7 H :    0.024294
   8 H :    0.020705
   9 C :   -0.061178
  10 H :    0.048118
  11 H :    0.033659
  12 C :   -0.066163
  13 H :    0.055074
  14 H :    0.028464
  15 H :    0.013768
  16 S :    0.121013
  17 C :   -0.097346
  18 C :   -0.051704
  19 C :   -0.037780
  20 C :   -0.142802
  21 H :    0.027537
  22 C :    0.056035
  23 H :    0.025689
  24 H :    0.017835
  25 C :   -0.105815
  26 H :    0.044799
  27 H :    0.044430
  28 C :   -0.005587
  29 H :    0.024821
  30 H :    0.025371
  31 H :    0.016717
  32 H :    0.049742
  33 H :    0.068512
Sum of atomic charges:   -0.0000000

LOEWDIN ATOMIC CHARGES
----------------------
   0 S :    0.403067
   1 C :   -0.192883
   2 C :   -0.067326
   3 C :   -0.045115
   4 C :   -0.197306
   5 H :    0.021284
   6 C :   -0.045976
   7 H :    0.032179
   8 H :    0.027477
   9 C :   -0.037105
  10 H :    0.032892
  11 H :    0.027755
  12 C :   -0.067117
  13 H :    0.025459
  14 H :    0.024953
  15 H :    0.017763
  16 S :    0.446744
  17 C :   -0.195614
  18 C :   -0.079994
  19 C :   -0.048079
  20 C :   -0.231244
  21 H :    0.033504
  22 C :   -0.041126
  23 H :    0.031596
  24 H :    0.029085
  25 C :   -0.038795
  26 H :    0.027364
  27 H :    0.027418
  28 C :   -0.054545
  29 H :    0.027112
  30 H :    0.020976
  31 H :    0.017676
  32 H :    0.032526
  33 H :    0.035395

  Mayer bond orders larger than 0.100000
B(  0-S ,  1-C ) :   1.1439 B(  0-S ,  4-C ) :   1.1447 B(  1-C ,  2-C ) :   1.5626
B(  1-C ,  4-C ) :   0.1067 B(  1-C , 32-H ) :   0.9717 B(  2-C ,  3-C ) :   1.2789
B(  2-C ,  6-C ) :   1.0377 B(  3-C ,  4-C ) :   1.5237 B(  3-C ,  5-H ) :   1.0031
B(  4-C , 20-C ) :   1.0752 B(  6-C ,  7-H ) :   0.9418 B(  6-C ,  8-H ) :   0.9320
B(  6-C ,  9-C ) :   1.0825 B(  9-C , 10-H ) :   0.9534 B(  9-C , 11-H ) :   0.9516
B(  9-C , 12-C ) :   1.0706 B( 12-C , 13-H ) :   0.9762 B( 12-C , 14-H ) :   0.9762
B( 12-C , 15-H ) :   0.9743 B( 16-S , 17-C ) :   1.1855 B( 16-S , 20-C ) :   1.1628
B( 17-C , 18-C ) :   1.5524 B( 17-C , 20-C ) :   0.1047 B( 17-C , 33-H ) :   0.9655
B( 18-C , 19-C ) :   1.2873 B( 18-C , 21-H ) :   0.9876 B( 19-C , 20-C ) :   1.5478
B( 19-C , 22-C ) :   1.0254 B( 22-C , 23-H ) :   0.9333 B( 22-C , 24-H ) :   0.9276
B( 22-C , 25-C ) :   1.0672 B( 25-C , 26-H ) :   0.9498 B( 25-C , 27-H ) :   0.9588
B( 25-C , 28-C ) :   1.0780 B( 28-C , 29-H ) :   0.9749 B( 28-C , 30-H ) :   0.9771
B( 28-C , 31-H ) :   0.9739

Dispersion correction           -0.014171560
FINAL SINGLE POINT ENERGY     -1339.862556149825

DIPOLE MOMENT
-------------
                                X             Y             Z
Electronic contribution:    -13.95271      17.78721     -17.13401
Nuclear contribution   :     14.10759     -18.43281      17.49982
                        -----------------------------------------
Total Dipole Moment    :      0.15489      -0.64560       0.36581
                        -----------------------------------------
Magnitude (a.u.)       :      0.75803
Magnitude (Debye)      :      1.92675

Rotational constants in cm-1:     0.017231     0.008822     0.006512
Rotational constants in MHz :   516.584824   264.489467   195.218324

                             ****ORCA TERMINATED NORMALLY****
TOTAL RUN TIME: 0 days 0 hours 0 minutes 31 seconds 267 msec
