                         Program Version 4.2.1 -  RELEASE  -
|  1> ! wB97X-D3 SP def2-SVP
|  2> %pal
|  3> nprocs 16
|  4> end
|  5>
|  6> * xyz 0 1
|  7> S 	 16.1527 	 8.46872 	 85.5155
|  8> C 	 17.3689 	 9.44196 	 84.6875
|  9> C 	 16.8606 	 10.3913 	 83.8557
| 10> C 	 15.4203 	 10.4166 	 83.9696
| 11> C 	 14.8597 	 9.36888 	 84.7014
| 12> H 	 14.7437 	 11.1225 	 83.5586
| 13> C 	 17.7152 	 11.4362 	 83.1452
| 14> H 	 17.2432 	 11.6841 	 82.2158
| 15> H 	 18.7127 	 10.9853 	 83.0357
| 16> C 	 17.9339 	 12.7668 	 83.853
| 17> H 	 18.5646 	 12.5676 	 84.7602
| 18> H 	 18.5152 	 13.446 	 83.3062
| 19> C 	 16.6395 	 13.5375 	 84.115
| 20> H 	 15.9799 	 13.7508 	 83.2511
| 21> H 	 16.0603 	 13.0799 	 84.9001
| 22> H 	 17.0151 	 14.462 	 84.5542
| 23> S 	 13.1128 	 9.26112 	 86.7228
| 24> C 	 11.4002 	 9.17595 	 86.4635
| 25> C 	 11.1428 	 8.83967 	 85.138
| 26> C 	 12.3287 	 8.88334 	 84.337
| 27> C 	 13.4789 	 9.16321 	 85.03
| 28> H 	 10.0874 	 8.52832 	 84.8166
| 29> C 	 12.222 	 8.7021 	 82.8733
| 30> H 	 11.838 	 7.67226 	 82.6743
| 31> H 	 13.2354 	 8.58812 	 82.4248
| 32> C 	 11.4046 	 9.75758 	 82.0123
| 33> H 	 10.3266 	 9.70234 	 82.048
| 34> H 	 11.5991 	 9.55194 	 80.9754
| 35> C 	 11.8978 	 11.1815 	 82.4059
| 36> H 	 11.3168 	 11.9411 	 81.8608
| 37> H 	 12.9534 	 11.3176 	 82.1169
| 38> H 	 11.7668 	 11.343 	 83.4668
| 39> H 	 18.4698 	 9.38362 	 84.9167
| 40> H 	 10.655 	 9.14796 	 87.2262
| 41> *
| 42>
| 43>                          ****END OF INPUT****

CARTESIAN COORDINATES (ANGSTROEM)
---------------------------------
  S     16.152700    8.468720   85.515500
  C     17.368900    9.441960   84.687500
  C     16.860600   10.391300   83.855700
  C     15.420300   10.416600   83.969600
  C     14.859700    9.368880   84.701400
  H     14.743700   11.122500   83.558600
  C     17.715200   11.436200   83.145200
  H     17.243200   11.684100   82.215800
  H     18.712700   10.985300   83.035700
  C     17.933900   12.766800   83.853000
  H     18.564600   12.567600   84.760200
  H     18.515200   13.446000   83.306200
  C     16.639500   13.537500   84.115000
  H     15.979900   13.750800   83.251100
  H     16.060300   13.079900   84.900100
  H     17.015100   14.462000   84.554200
  S     13.112800    9.261120   86.722800
  C     11.400200    9.175950   86.463500
  C     11.142800    8.839670   85.138000
  C     12.328700    8.883340   84.337000
  C     13.478900    9.163210   85.030000
  H     10.087400    8.528320   84.816600
  C     12.222000    8.702100   82.873300
  H     11.838000    7.672260   82.674300
  H     13.235400    8.588120   82.424800
  C     11.404600    9.757580   82.012300
  H     10.326600    9.702340   82.048000
  H     11.599100    9.551940   80.975400
  C     11.897800   11.181500   82.405900
  H     11.316800   11.941100   81.860800
  H     12.953400   11.317600   82.116900
  H     11.766800   11.343000   83.466800
  H     18.469800    9.383620   84.916700
  H     10.655000    9.147960   87.226200

 Total Charge           Charge          ....    0
 Multiplicity           Mult            ....    1
 Number of Electrons    NEL             ....  134
 Basis Dimension        Dim             ....  322

ORBITAL ENERGIES
----------------

  NO   OCC          E(Eh)            E(eV)
   0   2.0000     -88.966009     -2420.8882
   1   2.0000     -88.962352     -2420.7887
   2   2.0000     -10.330210      -281.0993
   3   2.0000     -10.322695      -280.8948
   4   2.0000     -10.317357      -280.7496
   5   2.0000     -10.317273      -280.7473
   6   2.0000     -10.301719      -280.3240
   7   2.0000     -10.301525      -280.3187
   8   2.0000     -10.300689      -280.2960
   9   2.0000     -10.295290      -280.1491
  10   2.0000     -10.292225      -280.0657
  11   2.0000     -10.291631      -280.0495
  12   2.0000     -10.288847      -279.9737
  13   2.0000     -10.284712      -279.8612
  14   2.0000     -10.277158      -279.6557
  15   2.0000     -10.275857      -279.6203
  16   2.0000      -8.080252      -219.8748
  17   2.0000      -8.077914      -219.8112
  18   2.0000      -6.038909      -164.3271
  19   2.0000      -6.036425      -164.2595
  20   2.0000      -6.034875      -164.2173
  21   2.0000      -6.032247      -164.1458
  22   2.0000      -6.030848      -164.1077
  23   2.0000      -6.028643      -164.0477
  24   2.0000      -1.010129       -27.4870
  25   2.0000      -0.983857       -26.7721
  26   2.0000      -0.914497       -24.8847
  27   2.0000      -0.903209       -24.5776
  28   2.0000      -0.873190       -23.7607
  29   2.0000      -0.846839       -23.0437
  30   2.0000      -0.842124       -22.9154
  31   2.0000      -0.815839       -22.2001
  32   2.0000      -0.782541       -21.2940
  33   2.0000      -0.770763       -20.9735
  34   2.0000      -0.709955       -19.3189
  35   2.0000      -0.699865       -19.0443
  36   2.0000      -0.697117       -18.9695
  37   2.0000      -0.660602       -17.9759
  38   2.0000      -0.639418       -17.3994
  39   2.0000      -0.612220       -16.6594
  40   2.0000      -0.592116       -16.1123
  41   2.0000      -0.576015       -15.6742
  42   2.0000      -0.549722       -14.9587
  43   2.0000      -0.548135       -14.9155
  44   2.0000      -0.546068       -14.8593
  45   2.0000      -0.537122       -14.6158
  46   2.0000      -0.519542       -14.1375
  47   2.0000      -0.512109       -13.9352
  48   2.0000      -0.502261       -13.6672
  49   2.0000      -0.494848       -13.4655
  50   2.0000      -0.490465       -13.3462
  51   2.0000      -0.478491       -13.0204
  52   2.0000      -0.466088       -12.6829
  53   2.0000      -0.463663       -12.6169
  54   2.0000      -0.459263       -12.4972
  55   2.0000      -0.446953       -12.1622
  56   2.0000      -0.441329       -12.0092
  57   2.0000      -0.439316       -11.9544
  58   2.0000      -0.429972       -11.7001
  59   2.0000      -0.427031       -11.6201
  60   2.0000      -0.419213       -11.4074
  61   2.0000      -0.415730       -11.3126
  62   2.0000      -0.410509       -11.1705
  63   2.0000      -0.343947        -9.3593
  64   2.0000      -0.330323        -8.9886
  65   2.0000      -0.326066        -8.8727
  66   2.0000      -0.297412        -8.0930
  67   0.0000       0.033289         0.9059
  68   0.0000       0.063667         1.7325
  69   0.0000       0.112203         3.0532
  70   0.0000       0.122190         3.3250
  71   0.0000       0.123114         3.3501

MULLIKEN ATOMIC CHARGES
-----------------------
   0 S :    0.104780
   1 C :   -0.145989
   2 C :   -0.072560
   3 C :    0.045779
   4 C :   -0.159575
   5 H :   -0.011559
   6 C :    0.094571
   7 H :    0.016911
   8 H :    0.024552
   9 C :   -0.058150
  10 H :    0.026099
  11 H :    0.017464
  12 C :   -0.070649
  13 H :    0.042805
  14 H :    0.043299
  15 H :    0.028571
  16 S :    0.104385
  17 C :   -0.081474
  18 C :   -0.063098
  19 C :   -0.033021
  20 C :   -0.156324
  21 H :    0.050248
  22 C :    0.026211
  23 H :    0.032851
  24 H :    0.028405
  25 C :   -0.049825
  26 H :    0.026088
  27 H :    0.023964
  28 C :   -0.073348
  29 H :    0.030976
  30 H :    0.038294
  31 H :    0.053781
  32 H :    0.065546
  33 H :    0.049991
Sum of atomic charges:   -0.0000000

LOEWDIN ATOMIC CHARGES
----------------------
   0 S :    0.384830
   1 C :   -0.192777
   2 C :   -0.067066
   3 C :   -0.050245
   4 C :   -0.190594
   5 H :    0.022233
   6 C :   -0.027863
   7 H :    0.026221
   8 H :    0.033578
   9 C :   -0.038385
  10 H :    0.028688
  11 H :    0.016965
  12 C :   -0.069026
  13 H :    0.028775
  14 H :    0.024377
  15 H :    0.029276
  16 S :    0.419433
  17 C :   -0.183998
  18 C :   -0.077923
  19 C :   -0.064573
  20 C :   -0.207490
  21 H :    0.046450
  22 C :   -0.041955
  23 H :    0.036472
  24 H :    0.034334
  25 C :   -0.034864
  26 H :    0.019120
  27 H :    0.023164
  28 C :   -0.066418
  29 H :    0.025673
  30 H :    0.023911
  31 H :    0.026441
  32 H :    0.038525
  33 H :    0.024715

  Mayer bond orders larger than 0.100000
B(  0-S ,  1-C ) :   1.1334 B(  0-S ,  4-C ) :   1.1260 B(  1-C ,  2-C ) :   1.6393
B(  1-C , 32-H ) :   0.9536 B(  2-C ,  3-C ) :   1.2062 B(  2-C ,  6-C ) :   1.0348
B(  3-C ,  4-C ) :   1.6025 B(  3-C ,  5-H ) :   0.9926 B(  4-C , 20-C ) :   1.0445
B(  6-C ,  7-H ) :   0.9324 B(  6-C ,  8-H ) :   0.9367 B(  6-C ,  9-C ) :   1.0840
B(  9-C , 10-H ) :   0.9503 B(  9-C , 11-H ) :   0.9561 B(  9-C , 12-C ) :   1.0779
B( 12-C , 13-H ) :   0.9735 B( 12-C , 14-H ) :   0.9721 B( 12-C , 15-H ) :   0.9715
B( 16-S , 17-C ) :   1.1674 B( 16-S , 20-C ) :   1.1379 B( 17-C , 18-C ) :   1.5967
B( 17-C , 33-H ) :   0.9711 B( 18-C , 19-C ) :   1.2297 B( 18-C , 21-H ) :   0.9817
B( 19-C , 20-C ) :   1.5928 B( 19-C , 22-C ) :   1.0705 B( 22-C , 23-H ) :   0.9292
B( 22-C , 24-H ) :   0.9361 B( 22-C , 25-C ) :   1.0561 B( 25-C , 26-H ) :   0.9588
B( 25-C , 27-H ) :   0.9566 B( 25-C , 28-C ) :   1.0742 B( 28-C , 29-H ) :   0.9715
B( 28-C , 30-H ) :   0.9709 B( 28-C , 31-H ) :   0.9736

Dispersion correction           -0.015495061
FINAL SINGLE POINT ENERGY     -1339.882193405409

DIPOLE MOMENT
-------------
                                X             Y             Z
Electronic contribution:      0.25736     -18.00428      17.94609
Nuclear contribution   :     -0.37009      18.39157     -18.33860
                        -----------------------------------------
Total Dipole Moment    :     -0.11273       0.38729      -0.39252
                        -----------------------------------------
Magnitude (a.u.)       :      0.56282
Magnitude (Debye)      :      1.43059

Rotational constants in cm-1:     0.019112     0.009326     0.007668
Rotational constants in MHz :   572.964088   279.589652   229.887143

                             ****ORCA TERMINATED NORMALLY****
TOTAL RUN TIME: 0 days 0 hours 0 minutes 37 seconds 444 msec
