                         Program Version 4.2.1 -  RELEASE  -
|  1> ! wB97X-D3 SP def2-SVP
|  2> %pal
|  3> nprocs 16
|  4> end
|  5>
|  6> * xyz 0 1
|  7> S 	 -21.4293 	 34.2893 	 35.0734
|  8> C 	 -21.6329 	 34.2194 	 33.3387
|  9> C 	 -20.9894 	 33.0781 	 32.8029
| 10> C 	 -20.5922 	 32.1685 	 33.8197
| 11> C 	 -20.7658 	 32.6249 	 35.1074
| 12> H 	 -20.2777 	 31.1036 	 33.6188
| 13> C 	 -20.7249 	 32.7538 	 31.3832
| 14> H 	 -21.6934 	 32.4861 	 30.8329
| 15> H 	 -20.0551 	 31.8885 	 31.2093
| 16> C 	 -20.145 	 34.0009 	 30.61
| 17> H 	 -19.9755 	 33.7633 	 29.5944
| 18> H 	 -20.9338 	 34.7135 	 30.5555
| 19> C 	 -18.8899 	 34.6839 	 31.1303
| 20> H 	 -18.1067 	 34.0014 	 31.0927
| 21> H 	 -18.5451 	 35.5651 	 30.5878
| 22> H 	 -18.8721 	 35.0002 	 32.2241
| 23> S 	 -22.1196 	 32.43 	 37.4695
| 24> C 	 -21.6028 	 31.301 	 38.7352
| 25> C 	 -20.6056 	 30.4925 	 38.2352
| 26> C 	 -20.1569 	 30.7971 	 36.9354
| 27> C 	 -20.8263 	 31.9286 	 36.3778
| 28> H 	 -20.1673 	 29.7747 	 38.8727
| 29> C 	 -18.8985 	 30.1067 	 36.2513
| 30> H 	 -18.082 	 29.7261 	 36.9172
| 31> H 	 -18.3397 	 30.8478 	 35.6482
| 32> C 	 -19.1615 	 28.8802 	 35.271
| 33> H 	 -18.2429 	 28.4625 	 34.8586
| 34> H 	 -19.8096 	 29.2699 	 34.4647
| 35> C 	 -20.0004 	 27.7508 	 35.9822
| 36> H 	 -19.4461 	 27.3282 	 36.9007
| 37> H 	 -20.2909 	 26.9029 	 35.3327
| 38> H 	 -20.995 	 28.1632 	 36.2649
| 39> H 	 -21.8865 	 35.1473 	 32.7495
| 40> H 	 -21.9101 	 31.2449 	 39.7587
| 41> *
| 42>
| 43>                          ****END OF INPUT****

CARTESIAN COORDINATES (ANGSTROEM)
---------------------------------
  S    -21.429300   34.289300   35.073400
  C    -21.632900   34.219400   33.338700
  C    -20.989400   33.078100   32.802900
  C    -20.592200   32.168500   33.819700
  C    -20.765800   32.624900   35.107400
  H    -20.277700   31.103600   33.618800
  C    -20.724900   32.753800   31.383200
  H    -21.693400   32.486100   30.832900
  H    -20.055100   31.888500   31.209300
  C    -20.145000   34.000900   30.610000
  H    -19.975500   33.763300   29.594400
  H    -20.933800   34.713500   30.555500
  C    -18.889900   34.683900   31.130300
  H    -18.106700   34.001400   31.092700
  H    -18.545100   35.565100   30.587800
  H    -18.872100   35.000200   32.224100
  S    -22.119600   32.430000   37.469500
  C    -21.602800   31.301000   38.735200
  C    -20.605600   30.492500   38.235200
  C    -20.156900   30.797100   36.935400
  C    -20.826300   31.928600   36.377800
  H    -20.167300   29.774700   38.872700
  C    -18.898500   30.106700   36.251300
  H    -18.082000   29.726100   36.917200
  H    -18.339700   30.847800   35.648200
  C    -19.161500   28.880200   35.271000
  H    -18.242900   28.462500   34.858600
  H    -19.809600   29.269900   34.464700
  C    -20.000400   27.750800   35.982200
  H    -19.446100   27.328200   36.900700
  H    -20.290900   26.902900   35.332700
  H    -20.995000   28.163200   36.264900
  H    -21.886500   35.147300   32.749500
  H    -21.910100   31.244900   39.758700

 Total Charge           Charge          ....    0
 Multiplicity           Mult            ....    1
 Number of Electrons    NEL             ....  134
 Basis Dimension        Dim             ....  322

ORBITAL ENERGIES
----------------

  NO   OCC          E(Eh)            E(eV)
   0   2.0000     -88.968980     -2420.9690
   1   2.0000     -88.967674     -2420.9335
   2   2.0000     -10.335755      -281.2502
   3   2.0000     -10.335178      -281.2345
   4   2.0000     -10.324376      -280.9405
   5   2.0000     -10.316070      -280.7145
   6   2.0000     -10.313253      -280.6379
   7   2.0000     -10.307151      -280.4718
   8   2.0000     -10.304986      -280.4129
   9   2.0000     -10.303160      -280.3632
  10   2.0000     -10.301301      -280.3127
  11   2.0000     -10.296205      -280.1740
  12   2.0000     -10.290674      -280.0235
  13   2.0000     -10.286554      -279.9114
  14   2.0000     -10.284113      -279.8449
  15   2.0000     -10.273402      -279.5535
  16   2.0000      -8.083124      -219.9530
  17   2.0000      -8.081504      -219.9089
  18   2.0000      -6.041680      -164.4025
  19   2.0000      -6.040100      -164.3595
  20   2.0000      -6.037700      -164.2942
  21   2.0000      -6.036030      -164.2487
  22   2.0000      -6.033849      -164.1894
  23   2.0000      -6.032268      -164.1464
  24   2.0000      -1.004920       -27.3453
  25   2.0000      -0.980373       -26.6773
  26   2.0000      -0.911727       -24.8093
  27   2.0000      -0.892112       -24.2756
  28   2.0000      -0.868546       -23.6343
  29   2.0000      -0.852344       -23.1935
  30   2.0000      -0.838675       -22.8215
  31   2.0000      -0.812948       -22.1214
  32   2.0000      -0.780370       -21.2349
  33   2.0000      -0.768677       -20.9168
  34   2.0000      -0.710373       -19.3302
  35   2.0000      -0.704832       -19.1794
  36   2.0000      -0.685589       -18.6558
  37   2.0000      -0.662801       -18.0357
  38   2.0000      -0.634769       -17.2729
  39   2.0000      -0.614326       -16.7166
  40   2.0000      -0.591934       -16.1074
  41   2.0000      -0.576383       -15.6842
  42   2.0000      -0.552140       -15.0245
  43   2.0000      -0.549677       -14.9575
  44   2.0000      -0.540419       -14.7056
  45   2.0000      -0.531535       -14.4638
  46   2.0000      -0.513393       -13.9701
  47   2.0000      -0.508377       -13.8336
  48   2.0000      -0.500147       -13.6097
  49   2.0000      -0.494250       -13.4492
  50   2.0000      -0.481816       -13.1109
  51   2.0000      -0.478521       -13.0212
  52   2.0000      -0.473482       -12.8841
  53   2.0000      -0.466335       -12.6896
  54   2.0000      -0.456112       -12.4114
  55   2.0000      -0.445789       -12.1305
  56   2.0000      -0.440048       -11.9743
  57   2.0000      -0.432914       -11.7802
  58   2.0000      -0.428251       -11.6533
  59   2.0000      -0.422815       -11.5054
  60   2.0000      -0.420677       -11.4472
  61   2.0000      -0.415413       -11.3040
  62   2.0000      -0.413982       -11.2650
  63   2.0000      -0.359459        -9.7814
  64   2.0000      -0.333702        -9.0805
  65   2.0000      -0.328962        -8.9515
  66   2.0000      -0.283225        -7.7069
  67   0.0000       0.011614         0.3160
  68   0.0000       0.072161         1.9636
  69   0.0000       0.097464         2.6521
  70   0.0000       0.117509         3.1976
  71   0.0000       0.132849         3.6150

MULLIKEN ATOMIC CHARGES
-----------------------
   0 S :    0.096149
   1 C :   -0.137392
   2 C :   -0.079883
   3 C :    0.000781
   4 C :   -0.122388
   5 H :    0.028050
   6 C :    0.029231
   7 H :    0.056685
   8 H :    0.033908
   9 C :   -0.059210
  10 H :    0.015190
  11 H :    0.012682
  12 C :   -0.045773
  13 H :    0.007565
  14 H :    0.034673
  15 H :    0.042383
  16 S :    0.101705
  17 C :   -0.089515
  18 C :   -0.019097
  19 C :   -0.005017
  20 C :   -0.135664
  21 H :    0.003741
  22 C :    0.006379
  23 H :    0.036622
  24 H :    0.037524
  25 C :   -0.076460
  26 H :    0.040856
  27 H :    0.032228
  28 C :   -0.108776
  29 H :    0.042221
  30 H :    0.039047
  31 H :    0.048604
  32 H :    0.079784
  33 H :    0.053166
Sum of atomic charges:    0.0000000

LOEWDIN ATOMIC CHARGES
----------------------
   0 S :    0.394816
   1 C :   -0.204308
   2 C :   -0.065359
   3 C :   -0.063852
   4 C :   -0.179701
   5 H :    0.040582
   6 C :   -0.035207
   7 H :    0.047426
   8 H :    0.031242
   9 C :   -0.037641
  10 H :    0.020456
  11 H :    0.014621
  12 C :   -0.071222
  13 H :    0.013842
  14 H :    0.029166
  15 H :    0.034265
  16 S :    0.399035
  17 C :   -0.184045
  18 C :   -0.064069
  19 C :   -0.060816
  20 C :   -0.186687
  21 H :    0.025854
  22 C :   -0.037972
  23 H :    0.033208
  24 H :    0.032225
  25 C :   -0.040484
  26 H :    0.023919
  27 H :    0.018914
  28 C :   -0.082985
  29 H :    0.029336
  30 H :    0.025820
  31 H :    0.029866
  32 H :    0.039388
  33 H :    0.030369

  Mayer bond orders larger than 0.100000
B(  0-S ,  1-C ) :   1.1430 B(  0-S ,  4-C ) :   1.1386 B(  1-C ,  2-C ) :   1.5710
B(  1-C , 32-H ) :   0.9567 B(  2-C ,  3-C ) :   1.2695 B(  2-C ,  6-C ) :   1.0277
B(  3-C ,  4-C ) :   1.5569 B(  3-C ,  5-H ) :   0.9732 B(  4-C , 20-C ) :   1.0685
B(  6-C ,  7-H ) :   0.9333 B(  6-C ,  8-H ) :   0.9518 B(  6-C ,  9-C ) :   1.0673
B(  9-C , 10-H ) :   0.9529 B(  9-C , 11-H ) :   0.9559 B(  9-C , 12-C ) :   1.0752
B( 12-C , 13-H ) :   0.9743 B( 12-C , 14-H ) :   0.9736 B( 12-C , 15-H ) :   0.9708
B( 16-S , 17-C ) :   1.1361 B( 16-S , 20-C ) :   1.1548 B( 17-C , 18-C ) :   1.5978
B( 17-C , 20-C ) :   0.1072 B( 17-C , 33-H ) :   0.9710 B( 18-C , 19-C ) :   1.2728
B( 18-C , 21-H ) :   0.9938 B( 19-C , 20-C ) :   1.5442 B( 19-C , 22-C ) :   1.0151
B( 22-C , 23-H ) :   0.9531 B( 22-C , 24-H ) :   0.9462 B( 22-C , 25-C ) :   1.0603
B( 25-C , 26-H ) :   0.9588 B( 25-C , 27-H ) :   0.9516 B( 25-C , 28-C ) :   1.0700
B( 28-C , 29-H ) :   0.9763 B( 28-C , 30-H ) :   0.9757 B( 28-C , 31-H ) :   0.9723

Dispersion correction           -0.014826628
FINAL SINGLE POINT ENERGY     -1339.867468304574

DIPOLE MOMENT
-------------
                                X             Y             Z
Electronic contribution:    -13.50050      12.25833      17.99573
Nuclear contribution   :     13.84211     -12.57968     -18.42530
                        -----------------------------------------
Total Dipole Moment    :      0.34161      -0.32135      -0.42957
                        -----------------------------------------
Magnitude (a.u.)       :      0.63600
Magnitude (Debye)      :      1.61658

Rotational constants in cm-1:     0.020704     0.008620     0.006583
Rotational constants in MHz :   620.679113   258.421514   197.364461

                             ****ORCA TERMINATED NORMALLY****
TOTAL RUN TIME: 0 days 0 hours 0 minutes 33 seconds 827 msec
