                         Program Version 4.2.1 -  RELEASE  -
|  1> ! wB97X-D3 SP def2-SVP
|  2> %pal
|  3> nprocs 16
|  4> end
|  5>
|  6> * xyz 0 1
|  7> S 	 13.1383 	 23.9303 	 47.6628
|  8> C 	 14.3794 	 22.8426 	 47.3335
|  9> C 	 14.7216 	 22.8462 	 46.0096
| 10> C 	 14.0216 	 23.9505 	 45.3553
| 11> C 	 13.0237 	 24.5191 	 46.0503
| 12> H 	 14.105 	 24.1948 	 44.2888
| 13> C 	 15.7623 	 21.953 	 45.2919
| 14> H 	 15.3562 	 21.6523 	 44.2894
| 15> H 	 16.0206 	 21.0472 	 45.7694
| 16> C 	 17.2115 	 22.6022 	 45.081
| 17> H 	 17.1097 	 23.5243 	 44.5235
| 18> H 	 17.6423 	 22.9575 	 45.964
| 19> C 	 18.1748 	 21.6386 	 44.4388
| 20> H 	 17.747 	 21.3175 	 43.4476
| 21> H 	 19.1294 	 22.1606 	 44.3598
| 22> H 	 18.3045 	 20.755 	 45.0531
| 23> S 	 12.6471 	 26.7119 	 44.5289
| 24> C 	 11.1082 	 27.5747 	 44.6294
| 25> C 	 10.2797 	 26.9655 	 45.4723
| 26> C 	 10.7725 	 25.7538 	 46.0184
| 27> C 	 12.0486 	 25.4803 	 45.5849
| 28> H 	 9.25975 	 27.3679 	 45.6024
| 29> C 	 9.96943 	 24.8735 	 47.0003
| 30> H 	 10.6044 	 24.117 	 47.4556
| 31> H 	 9.30266 	 24.3992 	 46.3008
| 32> C 	 9.16144 	 25.5438 	 48.1106
| 33> H 	 8.27915 	 26.1604 	 47.7119
| 34> H 	 9.7269 	 26.1947 	 48.7488
| 35> C 	 8.57238 	 24.4489 	 49.0476
| 36> H 	 9.34245 	 23.6443 	 49.2304
| 37> H 	 7.72073 	 23.8465 	 48.7175
| 38> H 	 8.19809 	 24.9081 	 49.9658
| 39> H 	 14.7813 	 22.1796 	 48.0705
| 40> H 	 10.7254 	 28.3543 	 44.0591
| 41> *
| 42>
| 43>                          ****END OF INPUT****

CARTESIAN COORDINATES (ANGSTROEM)
---------------------------------
  S     13.138300   23.930300   47.662800
  C     14.379400   22.842600   47.333500
  C     14.721600   22.846200   46.009600
  C     14.021600   23.950500   45.355300
  C     13.023700   24.519100   46.050300
  H     14.105000   24.194800   44.288800
  C     15.762300   21.953000   45.291900
  H     15.356200   21.652300   44.289400
  H     16.020600   21.047200   45.769400
  C     17.211500   22.602200   45.081000
  H     17.109700   23.524300   44.523500
  H     17.642300   22.957500   45.964000
  C     18.174800   21.638600   44.438800
  H     17.747000   21.317500   43.447600
  H     19.129400   22.160600   44.359800
  H     18.304500   20.755000   45.053100
  S     12.647100   26.711900   44.528900
  C     11.108200   27.574700   44.629400
  C     10.279700   26.965500   45.472300
  C     10.772500   25.753800   46.018400
  C     12.048600   25.480300   45.584900
  H      9.259750   27.367900   45.602400
  C      9.969430   24.873500   47.000300
  H     10.604400   24.117000   47.455600
  H      9.302660   24.399200   46.300800
  C      9.161440   25.543800   48.110600
  H      8.279150   26.160400   47.711900
  H      9.726900   26.194700   48.748800
  C      8.572380   24.448900   49.047600
  H      9.342450   23.644300   49.230400
  H      7.720730   23.846500   48.717500
  H      8.198090   24.908100   49.965800
  H     14.781300   22.179600   48.070500
  H     10.725400   28.354300   44.059100

 Total Charge           Charge          ....    0
 Multiplicity           Mult            ....    1
 Number of Electrons    NEL             ....  134
 Basis Dimension        Dim             ....  322

ORBITAL ENERGIES
----------------

  NO   OCC          E(Eh)            E(eV)
   0   2.0000     -88.964291     -2420.8414
   1   2.0000     -88.961897     -2420.7763
   2   2.0000     -10.322705      -280.8951
   3   2.0000     -10.321883      -280.8727
   4   2.0000     -10.308267      -280.5022
   5   2.0000     -10.307982      -280.4945
   6   2.0000     -10.305273      -280.4207
   7   2.0000     -10.300743      -280.2975
   8   2.0000     -10.298736      -280.2428
   9   2.0000     -10.293392      -280.0974
  10   2.0000     -10.290477      -280.0181
  11   2.0000     -10.290039      -280.0062
  12   2.0000     -10.288391      -279.9614
  13   2.0000     -10.281085      -279.7625
  14   2.0000     -10.280463      -279.7456
  15   2.0000     -10.279779      -279.7270
  16   2.0000      -8.079112      -219.8438
  17   2.0000      -8.078285      -219.8213
  18   2.0000      -6.037773      -164.2961
  19   2.0000      -6.036697      -164.2669
  20   2.0000      -6.033720      -164.1859
  21   2.0000      -6.032517      -164.1531
  22   2.0000      -6.029591      -164.0735
  23   2.0000      -6.029066      -164.0592
  24   2.0000      -1.018494       -27.7146
  25   2.0000      -0.994436       -27.0600
  26   2.0000      -0.906784       -24.6748
  27   2.0000      -0.905384       -24.6368
  28   2.0000      -0.881646       -23.9908
  29   2.0000      -0.852231       -23.1904
  30   2.0000      -0.843325       -22.9480
  31   2.0000      -0.822907       -22.3924
  32   2.0000      -0.779236       -21.2041
  33   2.0000      -0.770190       -20.9579
  34   2.0000      -0.707180       -19.2433
  35   2.0000      -0.701830       -19.0978
  36   2.0000      -0.697135       -18.9700
  37   2.0000      -0.668163       -18.1816
  38   2.0000      -0.639007       -17.3883
  39   2.0000      -0.619088       -16.8462
  40   2.0000      -0.598132       -16.2760
  41   2.0000      -0.575941       -15.6721
  42   2.0000      -0.562828       -15.3153
  43   2.0000      -0.559123       -15.2145
  44   2.0000      -0.528955       -14.3936
  45   2.0000      -0.526984       -14.3400
  46   2.0000      -0.516712       -14.0605
  47   2.0000      -0.511867       -13.9286
  48   2.0000      -0.507496       -13.8097
  49   2.0000      -0.502547       -13.6750
  50   2.0000      -0.486547       -13.2396
  51   2.0000      -0.482279       -13.1235
  52   2.0000      -0.471784       -12.8379
  53   2.0000      -0.463527       -12.6132
  54   2.0000      -0.460504       -12.5310
  55   2.0000      -0.449373       -12.2280
  56   2.0000      -0.446288       -12.1441
  57   2.0000      -0.440820       -11.9953
  58   2.0000      -0.435710       -11.8563
  59   2.0000      -0.425617       -11.5816
  60   2.0000      -0.417998       -11.3743
  61   2.0000      -0.414051       -11.2669
  62   2.0000      -0.409270       -11.1368
  63   2.0000      -0.363047        -9.8790
  64   2.0000      -0.330830        -9.0023
  65   2.0000      -0.325647        -8.8613
  66   2.0000      -0.291830        -7.9411
  67   0.0000       0.032292         0.8787
  68   0.0000       0.089607         2.4383
  69   0.0000       0.112209         3.0534
  70   0.0000       0.125552         3.4164
  71   0.0000       0.132870         3.6156

MULLIKEN ATOMIC CHARGES
-----------------------
   0 S :    0.104764
   1 C :   -0.107906
   2 C :   -0.067329
   3 C :   -0.020560
   4 C :   -0.113824
   5 H :    0.017739
   6 C :    0.057520
   7 H :    0.034459
   8 H :    0.004271
   9 C :   -0.063760
  10 H :    0.020255
  11 H :    0.010265
  12 C :   -0.045924
  13 H :    0.035425
  14 H :    0.041980
  15 H :    0.029662
  16 S :    0.095595
  17 C :   -0.038914
  18 C :   -0.056543
  19 C :   -0.060351
  20 C :   -0.124652
  21 H :    0.024513
  22 C :    0.077446
  23 H :    0.018013
  24 H :    0.036892
  25 C :   -0.072234
  26 H :    0.039905
  27 H :    0.034910
  28 C :   -0.078166
  29 H :    0.035108
  30 H :    0.028945
  31 H :    0.034975
  32 H :    0.042073
  33 H :    0.025451
Sum of atomic charges:    0.0000000

LOEWDIN ATOMIC CHARGES
----------------------
   0 S :    0.447417
   1 C :   -0.207908
   2 C :   -0.063075
   3 C :   -0.073161
   4 C :   -0.202883
   5 H :    0.027837
   6 C :   -0.027256
   7 H :    0.035481
   8 H :    0.020220
   9 C :   -0.037435
  10 H :    0.020387
  11 H :    0.014830
  12 C :   -0.063776
  13 H :    0.029656
  14 H :    0.030988
  15 H :    0.021904
  16 S :    0.406181
  17 C :   -0.169080
  18 C :   -0.072395
  19 C :   -0.059583
  20 C :   -0.198601
  21 H :    0.036952
  22 C :   -0.034904
  23 H :    0.013005
  24 H :    0.037588
  25 C :   -0.040365
  26 H :    0.030572
  27 H :    0.023237
  28 C :   -0.073880
  29 H :    0.030109
  30 H :    0.023391
  31 H :    0.026134
  32 H :    0.026739
  33 H :    0.021676

  Mayer bond orders larger than 0.100000
B(  0-S ,  1-C ) :   1.1586 B(  0-S ,  4-C ) :   1.1348 B(  1-C ,  2-C ) :   1.6123
B(  1-C , 32-H ) :   0.9723 B(  2-C ,  3-C ) :   1.2297 B(  2-C ,  6-C ) :   1.0324
B(  3-C ,  4-C ) :   1.5911 B(  3-C ,  5-H ) :   0.9873 B(  4-C , 20-C ) :   1.0531
B(  6-C ,  7-H ) :   0.9418 B(  6-C ,  8-H ) :   0.9481 B(  6-C ,  9-C ) :   1.0469
B(  9-C , 10-H ) :   0.9551 B(  9-C , 11-H ) :   0.9545 B(  9-C , 12-C ) :   1.0906
B( 12-C , 13-H ) :   0.9740 B( 12-C , 14-H ) :   0.9712 B( 12-C , 15-H ) :   0.9737
B( 16-S , 17-C ) :   1.1252 B( 16-S , 20-C ) :   1.1337 B( 17-C , 18-C ) :   1.6601
B( 17-C , 33-H ) :   0.9663 B( 18-C , 19-C ) :   1.2298 B( 18-C , 21-H ) :   0.9833
B( 19-C , 20-C ) :   1.6106 B( 19-C , 22-C ) :   1.0216 B( 22-C , 23-H ) :   0.9349
B( 22-C , 24-H ) :   0.9248 B( 22-C , 25-C ) :   1.0675 B( 25-C , 26-H ) :   0.9466
B( 25-C , 27-H ) :   0.9609 B( 25-C , 28-C ) :   1.0764 B( 28-C , 29-H ) :   0.9744
B( 28-C , 30-H ) :   0.9764 B( 28-C , 31-H ) :   0.9756

Dispersion correction           -0.013370708
FINAL SINGLE POINT ENERGY     -1339.876058705518

DIPOLE MOMENT
-------------
                                X             Y             Z
Electronic contribution:     -2.28988      12.36818      -3.27559
Nuclear contribution   :      2.16200     -12.60117       3.27027
                        -----------------------------------------
Total Dipole Moment    :     -0.12789      -0.23299      -0.00532
                        -----------------------------------------
Magnitude (a.u.)       :      0.26583
Magnitude (Debye)      :      0.67570

Rotational constants in cm-1:     0.023035     0.007309     0.005749
Rotational constants in MHz :   690.566540   219.106601   172.352044

                             ****ORCA TERMINATED NORMALLY****
TOTAL RUN TIME: 0 days 0 hours 0 minutes 33 seconds 381 msec
