                         Program Version 4.2.1 -  RELEASE  -
|  1> ! wB97X-D3 SP def2-SVP
|  2> %pal
|  3> nprocs 16
|  4> end
|  5>
|  6> * xyz 0 1
|  7> S 	 41.5987 	 12.6435 	 49.5033
|  8> C 	 40.9545 	 12.9199 	 51.071
|  9> C 	 41.8874 	 12.6676 	 52.0378
| 10> C 	 43.1866 	 12.4459 	 51.5168
| 11> C 	 43.1649 	 12.3318 	 50.142
| 12> H 	 44.0857 	 12.1953 	 52.0173
| 13> C 	 41.6849 	 12.8292 	 53.4977
| 14> H 	 40.6071 	 12.9528 	 53.6998
| 15> H 	 42.1463 	 13.7839 	 53.8652
| 16> C 	 42.2153 	 11.7672 	 54.3957
| 17> H 	 42.0079 	 10.7788 	 54.0227
| 18> H 	 43.3018 	 11.7644 	 54.4166
| 19> C 	 41.8226 	 11.9527 	 55.9115
| 20> H 	 42.2082 	 11.1752 	 56.5188
| 21> H 	 42.1923 	 12.9411 	 56.2504
| 22> H 	 40.7369 	 11.9724 	 56.024
| 23> S 	 43.9773 	 10.1535 	 48.6139
| 24> C 	 45.6416 	 10.1755 	 48.1199
| 25> C 	 46.1677 	 11.4663 	 48.2236
| 26> C 	 45.3773 	 12.3867 	 48.9031
| 27> C 	 44.202 	 11.7789 	 49.2859
| 28> H 	 47.2148 	 11.6704 	 47.9755
| 29> C 	 45.7722 	 13.8259 	 49.2976
| 30> H 	 46.8065 	 13.8313 	 49.5967
| 31> H 	 45.3192 	 14.0677 	 50.1874
| 32> C 	 45.3573 	 14.9394 	 48.2115
| 33> H 	 45.9305 	 14.514 	 47.2787
| 34> H 	 45.7266 	 15.9217 	 48.4604
| 35> C 	 43.7933 	 15.1281 	 47.8954
| 36> H 	 43.8806 	 15.8369 	 47.0884
| 37> H 	 43.2223 	 15.4 	 48.6999
| 38> H 	 43.3987 	 14.1895 	 47.6007
| 39> H 	 39.8424 	 13.0599 	 51.2284
| 40> H 	 46.0633 	 9.46544 	 47.4057
| 41> *
| 42>
| 43>                          ****END OF INPUT****

CARTESIAN COORDINATES (ANGSTROEM)
---------------------------------
  S     41.598700   12.643500   49.503300
  C     40.954500   12.919900   51.071000
  C     41.887400   12.667600   52.037800
  C     43.186600   12.445900   51.516800
  C     43.164900   12.331800   50.142000
  H     44.085700   12.195300   52.017300
  C     41.684900   12.829200   53.497700
  H     40.607100   12.952800   53.699800
  H     42.146300   13.783900   53.865200
  C     42.215300   11.767200   54.395700
  H     42.007900   10.778800   54.022700
  H     43.301800   11.764400   54.416600
  C     41.822600   11.952700   55.911500
  H     42.208200   11.175200   56.518800
  H     42.192300   12.941100   56.250400
  H     40.736900   11.972400   56.024000
  S     43.977300   10.153500   48.613900
  C     45.641600   10.175500   48.119900
  C     46.167700   11.466300   48.223600
  C     45.377300   12.386700   48.903100
  C     44.202000   11.778900   49.285900
  H     47.214800   11.670400   47.975500
  C     45.772200   13.825900   49.297600
  H     46.806500   13.831300   49.596700
  H     45.319200   14.067700   50.187400
  C     45.357300   14.939400   48.211500
  H     45.930500   14.514000   47.278700
  H     45.726600   15.921700   48.460400
  C     43.793300   15.128100   47.895400
  H     43.880600   15.836900   47.088400
  H     43.222300   15.400000   48.699900
  H     43.398700   14.189500   47.600700
  H     39.842400   13.059900   51.228400
  H     46.063300    9.465440   47.405700

 Total Charge           Charge          ....    0
 Multiplicity           Mult            ....    1
 Number of Electrons    NEL             ....  134
 Basis Dimension        Dim             ....  322

ORBITAL ENERGIES
----------------

  NO   OCC          E(Eh)            E(eV)
   0   2.0000     -88.968599     -2420.9586
   1   2.0000     -88.965203     -2420.8663
   2   2.0000     -10.323374      -280.9133
   3   2.0000     -10.322494      -280.8893
   4   2.0000     -10.315955      -280.7114
   5   2.0000     -10.314295      -280.6662
   6   2.0000     -10.299592      -280.2662
   7   2.0000     -10.299372      -280.2602
   8   2.0000     -10.297616      -280.2124
   9   2.0000     -10.292294      -280.0676
  10   2.0000     -10.289593      -279.9941
  11   2.0000     -10.289259      -279.9850
  12   2.0000     -10.288244      -279.9574
  13   2.0000     -10.282916      -279.8124
  14   2.0000     -10.280916      -279.7579
  15   2.0000     -10.266673      -279.3704
  16   2.0000      -8.083144      -219.9535
  17   2.0000      -8.080995      -219.8951
  18   2.0000      -6.041491      -164.3973
  19   2.0000      -6.039276      -164.3371
  20   2.0000      -6.037835      -164.2978
  21   2.0000      -6.035266      -164.2279
  22   2.0000      -6.033934      -164.1917
  23   2.0000      -6.032025      -164.1397
  24   2.0000      -1.014021       -27.5929
  25   2.0000      -0.990186       -26.9443
  26   2.0000      -0.916540       -24.9403
  27   2.0000      -0.895247       -24.3609
  28   2.0000      -0.868166       -23.6240
  29   2.0000      -0.851780       -23.1781
  30   2.0000      -0.846070       -23.0227
  31   2.0000      -0.811390       -22.0790
  32   2.0000      -0.788822       -21.4649
  33   2.0000      -0.772620       -21.0240
  34   2.0000      -0.708927       -19.2909
  35   2.0000      -0.695840       -18.9348
  36   2.0000      -0.690285       -18.7836
  37   2.0000      -0.657257       -17.8849
  38   2.0000      -0.648319       -17.6417
  39   2.0000      -0.621844       -16.9212
  40   2.0000      -0.596931       -16.2433
  41   2.0000      -0.572135       -15.5686
  42   2.0000      -0.555977       -15.1289
  43   2.0000      -0.547558       -14.8998
  44   2.0000      -0.538067       -14.6416
  45   2.0000      -0.523187       -14.2366
  46   2.0000      -0.514716       -14.0061
  47   2.0000      -0.513677       -13.9779
  48   2.0000      -0.503499       -13.7009
  49   2.0000      -0.500344       -13.6151
  50   2.0000      -0.486258       -13.2317
  51   2.0000      -0.474085       -12.9005
  52   2.0000      -0.473685       -12.8896
  53   2.0000      -0.467195       -12.7130
  54   2.0000      -0.460858       -12.5406
  55   2.0000      -0.451799       -12.2941
  56   2.0000      -0.446756       -12.1568
  57   2.0000      -0.438829       -11.9411
  58   2.0000      -0.430622       -11.7178
  59   2.0000      -0.424179       -11.5425
  60   2.0000      -0.417492       -11.3605
  61   2.0000      -0.413624       -11.2553
  62   2.0000      -0.412931       -11.2364
  63   2.0000      -0.339732        -9.2446
  64   2.0000      -0.335933        -9.1412
  65   2.0000      -0.325621        -8.8606
  66   2.0000      -0.301075        -8.1927
  67   0.0000       0.036397         0.9904
  68   0.0000       0.056293         1.5318
  69   0.0000       0.117517         3.1978
  70   0.0000       0.119385         3.2486
  71   0.0000       0.130589         3.5535

MULLIKEN ATOMIC CHARGES
-----------------------
   0 S :    0.112749
   1 C :   -0.146455
   2 C :   -0.058855
   3 C :    0.067635
   4 C :   -0.194794
   5 H :    0.002800
   6 C :    0.066567
   7 H :    0.009688
   8 H :    0.036924
   9 C :   -0.098960
  10 H :    0.023121
  11 H :    0.023773
  12 C :   -0.037187
  13 H :    0.034730
  14 H :    0.028668
  15 H :    0.028369
  16 S :    0.126397
  17 C :   -0.092748
  18 C :   -0.063705
  19 C :   -0.033041
  20 C :   -0.189502
  21 H :    0.022188
  22 C :    0.152388
  23 H :    0.017926
  24 H :   -0.010936
  25 C :   -0.134882
  26 H :    0.041596
  27 H :    0.035393
  28 C :    0.008081
  29 H :    0.038944
  30 H :    0.024886
  31 H :    0.018897
  32 H :    0.072324
  33 H :    0.067022
Sum of atomic charges:    0.0000000

LOEWDIN ATOMIC CHARGES
----------------------
   0 S :    0.436759
   1 C :   -0.216727
   2 C :   -0.068025
   3 C :   -0.053106
   4 C :   -0.201135
   5 H :    0.028277
   6 C :   -0.038792
   7 H :    0.027907
   8 H :    0.038467
   9 C :   -0.043737
  10 H :    0.020008
  11 H :    0.020815
  12 C :   -0.056798
  13 H :    0.022243
  14 H :    0.027011
  15 H :    0.022373
  16 S :    0.408583
  17 C :   -0.201188
  18 C :   -0.071224
  19 C :   -0.055795
  20 C :   -0.194944
  21 H :    0.031813
  22 C :   -0.025729
  23 H :    0.029638
  24 H :    0.014658
  25 C :   -0.032833
  26 H :    0.032021
  27 H :    0.017630
  28 C :   -0.049313
  29 H :    0.030515
  30 H :    0.011994
  31 H :    0.014725
  32 H :    0.041630
  33 H :    0.032277

  Mayer bond orders larger than 0.100000
B(  0-S ,  1-C ) :   1.1425 B(  0-S ,  4-C ) :   1.1765 B(  1-C ,  2-C ) :   1.6043
B(  1-C , 32-H ) :   0.9593 B(  2-C ,  3-C ) :   1.2309 B(  2-C ,  6-C ) :   1.0428
B(  3-C ,  4-C ) :   1.5803 B(  3-C ,  5-H ) :   0.9971 B(  4-C , 20-C ) :   1.0167
B(  6-C ,  7-H ) :   0.9416 B(  6-C ,  8-H ) :   0.9314 B(  6-C ,  9-C ) :   1.0607
B(  9-C , 10-H ) :   0.9592 B(  9-C , 11-H ) :   0.9482 B(  9-C , 12-C ) :   1.0817
B( 12-C , 13-H ) :   0.9761 B( 12-C , 14-H ) :   0.9741 B( 12-C , 15-H ) :   0.9779
B( 16-S , 17-C ) :   1.1545 B( 16-S , 20-C ) :   1.1575 B( 17-C , 18-C ) :   1.6001
B( 17-C , 20-C ) :   0.1126 B( 17-C , 33-H ) :   0.9600 B( 18-C , 19-C ) :   1.2798
B( 18-C , 21-H ) :   0.9777 B( 19-C , 20-C ) :   1.5766 B( 19-C , 22-C ) :   1.0303
B( 22-C , 23-H ) :   0.9372 B( 22-C , 24-H ) :   0.9209 B( 22-C , 25-C ) :   1.0460
B( 25-C , 26-H ) :   0.9639 B( 25-C , 27-H ) :   0.9632 B( 25-C , 28-C ) :   1.0585
B( 28-C , 29-H ) :   0.9754 B( 28-C , 30-H ) :   0.9770 B( 28-C , 31-H ) :   0.9747

Dispersion correction           -0.015209324
FINAL SINGLE POINT ENERGY     -1339.865217623899

DIPOLE MOMENT
-------------
                                X             Y             Z
Electronic contribution:     -2.58416     -12.46144     -16.29992
Nuclear contribution   :      2.78323      12.66423      16.68486
                        -----------------------------------------
Total Dipole Moment    :      0.19908       0.20279       0.38494
                        -----------------------------------------
Magnitude (a.u.)       :      0.47847
Magnitude (Debye)      :      1.21617

Rotational constants in cm-1:     0.020050     0.008183     0.007483
Rotational constants in MHz :   601.076831   245.320488   224.324623

                             ****ORCA TERMINATED NORMALLY****
TOTAL RUN TIME: 0 days 0 hours 0 minutes 35 seconds 445 msec
