                         Program Version 4.2.1 -  RELEASE  -
|  1> ! wB97X-D3 SP def2-SVP
|  2> %pal
|  3> nprocs 16
|  4> end
|  5>
|  6> * xyz 0 1
|  7> S 	 7.51462 	 -26.3966 	 83.9895
|  8> C 	 8.62514 	 -26.7111 	 85.3436
|  9> C 	 9.67394 	 -25.7882 	 85.3496
| 10> C 	 9.50008 	 -24.7927 	 84.3474
| 11> C 	 8.35643 	 -24.9465 	 83.616
| 12> H 	 10.1188 	 -23.9445 	 84.0917
| 13> C 	 10.8191 	 -25.7683 	 86.4072
| 14> H 	 11.756 	 -25.3771 	 86.0214
| 15> H 	 11.0889 	 -26.7388 	 86.7504
| 16> C 	 10.5874 	 -24.8473 	 87.6309
| 17> H 	 10.3165 	 -23.8312 	 87.2429
| 18> H 	 9.69021 	 -25.1439 	 88.2366
| 19> C 	 11.7252 	 -24.9084 	 88.5804
| 20> H 	 12.8027 	 -24.795 	 88.2903
| 21> H 	 11.7092 	 -24.133 	 89.3665
| 22> H 	 11.6929 	 -25.8437 	 89.1609
| 23> S 	 8.31044 	 -24.3566 	 80.8485
| 24> C 	 7.51582 	 -22.872 	 80.4181
| 25> C 	 6.9392 	 -22.2348 	 81.5525
| 26> C 	 7.12138 	 -22.9455 	 82.7258
| 27> C 	 7.84969 	 -24.1083 	 82.555
| 28> H 	 6.4701 	 -21.2713 	 81.4663
| 29> C 	 6.72273 	 -22.2902 	 84.0462
| 30> H 	 6.48771 	 -21.2451 	 83.9944
| 31> H 	 7.5366 	 -22.38 	 84.6974
| 32> C 	 5.76236 	 -23.048 	 84.9862
| 33> H 	 5.38272 	 -22.4657 	 85.7879
| 34> H 	 6.37722 	 -23.8511 	 85.4291
| 35> C 	 4.64153 	 -23.8078 	 84.3221
| 36> H 	 4.73357 	 -24.7789 	 83.8768
| 37> H 	 4.17506 	 -23.2167 	 83.5251
| 38> H 	 3.94435 	 -23.84 	 85.0942
| 39> H 	 8.67205 	 -27.6308 	 85.9304
| 40> H 	 7.56577 	 -22.4047 	 79.4601
| 41> *
| 42>
| 43>                          ****END OF INPUT****

CARTESIAN COORDINATES (ANGSTROEM)
---------------------------------
  S      7.514620  -26.396600   83.989500
  C      8.625140  -26.711100   85.343600
  C      9.673940  -25.788200   85.349600
  C      9.500080  -24.792700   84.347400
  C      8.356430  -24.946500   83.616000
  H     10.118800  -23.944500   84.091700
  C     10.819100  -25.768300   86.407200
  H     11.756000  -25.377100   86.021400
  H     11.088900  -26.738800   86.750400
  C     10.587400  -24.847300   87.630900
  H     10.316500  -23.831200   87.242900
  H      9.690210  -25.143900   88.236600
  C     11.725200  -24.908400   88.580400
  H     12.802700  -24.795000   88.290300
  H     11.709200  -24.133000   89.366500
  H     11.692900  -25.843700   89.160900
  S      8.310440  -24.356600   80.848500
  C      7.515820  -22.872000   80.418100
  C      6.939200  -22.234800   81.552500
  C      7.121380  -22.945500   82.725800
  C      7.849690  -24.108300   82.555000
  H      6.470100  -21.271300   81.466300
  C      6.722730  -22.290200   84.046200
  H      6.487710  -21.245100   83.994400
  H      7.536600  -22.380000   84.697400
  C      5.762360  -23.048000   84.986200
  H      5.382720  -22.465700   85.787900
  H      6.377220  -23.851100   85.429100
  C      4.641530  -23.807800   84.322100
  H      4.733570  -24.778900   83.876800
  H      4.175060  -23.216700   83.525100
  H      3.944350  -23.840000   85.094200
  H      8.672050  -27.630800   85.930400
  H      7.565770  -22.404700   79.460100

 Total Charge           Charge          ....    0
 Multiplicity           Mult            ....    1
 Number of Electrons    NEL             ....  134
 Basis Dimension        Dim             ....  322

ORBITAL ENERGIES
----------------

  NO   OCC          E(Eh)            E(eV)
   0   2.0000     -88.971667     -2421.0421
   1   2.0000     -88.967629     -2420.9323
   2   2.0000     -10.322634      -280.8932
   3   2.0000     -10.322386      -280.8864
   4   2.0000     -10.319111      -280.7973
   5   2.0000     -10.318516      -280.7811
   6   2.0000     -10.308838      -280.5177
   7   2.0000     -10.300176      -280.2820
   8   2.0000     -10.294594      -280.1302
   9   2.0000     -10.293437      -280.0987
  10   2.0000     -10.293354      -280.0964
  11   2.0000     -10.290743      -280.0254
  12   2.0000     -10.282873      -279.8112
  13   2.0000     -10.279824      -279.7282
  14   2.0000     -10.276272      -279.6316
  15   2.0000     -10.255438      -279.0646
  16   2.0000      -8.085597      -220.0203
  17   2.0000      -8.082087      -219.9248
  18   2.0000      -6.043963      -164.4646
  19   2.0000      -6.040494      -164.3702
  20   2.0000      -6.040175      -164.3615
  21   2.0000      -6.036619      -164.2648
  22   2.0000      -6.036584      -164.2638
  23   2.0000      -6.033004      -164.1664
  24   2.0000      -1.008086       -27.4314
  25   2.0000      -0.983172       -26.7535
  26   2.0000      -0.912444       -24.8289
  27   2.0000      -0.908519       -24.7221
  28   2.0000      -0.868540       -23.6342
  29   2.0000      -0.853641       -23.2287
  30   2.0000      -0.848022       -23.0759
  31   2.0000      -0.809842       -22.0369
  32   2.0000      -0.790368       -21.5070
  33   2.0000      -0.774574       -21.0772
  34   2.0000      -0.706612       -19.2279
  35   2.0000      -0.697235       -18.9727
  36   2.0000      -0.684607       -18.6291
  37   2.0000      -0.663261       -18.0482
  38   2.0000      -0.648168       -17.6375
  39   2.0000      -0.616879       -16.7861
  40   2.0000      -0.591881       -16.1059
  41   2.0000      -0.570015       -15.5109
  42   2.0000      -0.565597       -15.3907
  43   2.0000      -0.558840       -15.2068
  44   2.0000      -0.541195       -14.7267
  45   2.0000      -0.519849       -14.1458
  46   2.0000      -0.515349       -14.0234
  47   2.0000      -0.506715       -13.7884
  48   2.0000      -0.502027       -13.6609
  49   2.0000      -0.496891       -13.5211
  50   2.0000      -0.490482       -13.3467
  51   2.0000      -0.482730       -13.1357
  52   2.0000      -0.472789       -12.8652
  53   2.0000      -0.463568       -12.6143
  54   2.0000      -0.462498       -12.5852
  55   2.0000      -0.455352       -12.3907
  56   2.0000      -0.446268       -12.1436
  57   2.0000      -0.433669       -11.8007
  58   2.0000      -0.430724       -11.7206
  59   2.0000      -0.423439       -11.5223
  60   2.0000      -0.416500       -11.3336
  61   2.0000      -0.413730       -11.2582
  62   2.0000      -0.394462       -10.7338
  63   2.0000      -0.338198        -9.2028
  64   2.0000      -0.332684        -9.0528
  65   2.0000      -0.318955        -8.6792
  66   2.0000      -0.308501        -8.3947
  67   0.0000       0.042309         1.1513
  68   0.0000       0.045686         1.2432
  69   0.0000       0.110511         3.0072
  70   0.0000       0.118647         3.2286
  71   0.0000       0.129288         3.5181

MULLIKEN ATOMIC CHARGES
-----------------------
   0 S :    0.123041
   1 C :   -0.124033
   2 C :   -0.069011
   3 C :    0.066269
   4 C :   -0.220380
   5 H :    0.011334
   6 C :    0.079399
   7 H :    0.016924
   8 H :    0.007397
   9 C :   -0.066472
  10 H :    0.032603
  11 H :    0.034157
  12 C :   -0.075294
  13 H :    0.032376
  14 H :    0.029060
  15 H :    0.031676
  16 S :    0.134032
  17 C :   -0.094743
  18 C :   -0.051869
  19 C :    0.008469
  20 C :   -0.187516
  21 H :    0.014249
  22 C :    0.153288
  23 H :    0.017897
  24 H :    0.002138
  25 C :   -0.105145
  26 H :    0.023722
  27 H :    0.032526
  28 C :   -0.009309
  29 H :    0.029072
  30 H :    0.010065
  31 H :    0.007186
  32 H :    0.054204
  33 H :    0.052686
Sum of atomic charges:    0.0000000

LOEWDIN ATOMIC CHARGES
----------------------
   0 S :    0.421734
   1 C :   -0.194855
   2 C :   -0.056886
   3 C :   -0.060508
   4 C :   -0.205586
   5 H :    0.035048
   6 C :   -0.026173
   7 H :    0.030363
   8 H :    0.021645
   9 C :   -0.045997
  10 H :    0.025779
  11 H :    0.031139
  12 C :   -0.082985
  13 H :    0.027874
  14 H :    0.029922
  15 H :    0.028772
  16 S :    0.412772
  17 C :   -0.185597
  18 C :   -0.068663
  19 C :   -0.044117
  20 C :   -0.210551
  21 H :    0.029913
  22 C :   -0.028745
  23 H :    0.025873
  24 H :    0.030761
  25 C :   -0.035018
  26 H :    0.022087
  27 H :    0.026622
  28 C :   -0.070799
  29 H :    0.019562
  30 H :    0.022039
  31 H :    0.019231
  32 H :    0.031027
  33 H :    0.024320

  Mayer bond orders larger than 0.100000
B(  0-S ,  1-C ) :   1.1383 B(  0-S ,  4-C ) :   1.1656 B(  1-C ,  2-C ) :   1.6146
B(  1-C ,  4-C ) :   0.1019 B(  1-C , 32-H ) :   0.9663 B(  2-C ,  3-C ) :   1.2225
B(  2-C ,  6-C ) :   1.0230 B(  3-C ,  4-C ) :   1.6045 B(  3-C ,  5-H ) :   0.9966
B(  4-C , 20-C ) :   1.0100 B(  6-C ,  7-H ) :   0.9443 B(  6-C ,  8-H ) :   0.9445
B(  6-C ,  9-C ) :   1.0552 B(  9-C , 10-H ) :   0.9579 B(  9-C , 11-H ) :   0.9504
B(  9-C , 12-C ) :   1.0772 B( 12-C , 13-H ) :   0.9745 B( 12-C , 14-H ) :   0.9701
B( 12-C , 15-H ) :   0.9726 B( 16-S , 17-C ) :   1.1796 B( 16-S , 20-C ) :   1.1455
B( 17-C , 18-C ) :   1.5582 B( 17-C , 20-C ) :   0.1144 B( 17-C , 33-H ) :   0.9703
B( 18-C , 19-C ) :   1.2875 B( 18-C , 21-H ) :   0.9935 B( 19-C , 20-C ) :   1.5603
B( 19-C , 22-C ) :   1.0435 B( 22-C , 23-H ) :   0.9438 B( 22-C , 24-H ) :   0.9204
B( 22-C , 25-C ) :   1.0500 B( 25-C , 26-H ) :   0.9606 B( 25-C , 27-H ) :   0.9567
B( 25-C , 28-C ) :   1.0870 B( 28-C , 29-H ) :   0.9687 B( 28-C , 30-H ) :   0.9741
B( 28-C , 31-H ) :   0.9731

Dispersion correction           -0.015548364
FINAL SINGLE POINT ENERGY     -1339.862047991420

DIPOLE MOMENT
-------------
                                X             Y             Z
Electronic contribution:     -2.64347      -7.32522     -24.68511
Nuclear contribution   :      2.95790       7.71308      25.15617
                        -----------------------------------------
Total Dipole Moment    :      0.31443       0.38786       0.47105
                        -----------------------------------------
Magnitude (a.u.)       :      0.68643
Magnitude (Debye)      :      1.74478

Rotational constants in cm-1:     0.020911     0.008100     0.007487
Rotational constants in MHz :   626.886770   242.830426   224.451228

                             ****ORCA TERMINATED NORMALLY****
TOTAL RUN TIME: 0 days 0 hours 0 minutes 34 seconds 295 msec
