                         Program Version 4.2.1 -  RELEASE  -
|  1> ! wB97X-D3 SP def2-SVP
|  2> %pal
|  3> nprocs 16
|  4> end
|  5>
|  6> * xyz 0 1
|  7> S 	 -38.9584 	 51.4122 	 107.557
|  8> C 	 -37.7891 	 50.6675 	 108.635
|  9> C 	 -38.3821 	 49.5836 	 109.237
| 10> C 	 -39.6641 	 49.2365 	 108.725
| 11> C 	 -40.1331 	 50.1548 	 107.824
| 12> H 	 -40.3028 	 48.4863 	 109.165
| 13> C 	 -37.7777 	 48.7977 	 110.387
| 14> H 	 -36.6878 	 48.9117 	 110.496
| 15> H 	 -37.9149 	 47.7384 	 110.116
| 16> C 	 -38.4403 	 49.1888 	 111.777
| 17> H 	 -39.3626 	 48.6548 	 112.034
| 18> H 	 -37.8478 	 48.8389 	 112.607
| 19> C 	 -38.6211 	 50.7128 	 112.055
| 20> H 	 -37.7711 	 51.4006 	 111.822
| 21> H 	 -39.4601 	 51.1374 	 111.522
| 22> H 	 -38.7471 	 50.9526 	 113.151
| 23> S 	 -42.4374 	 51.6286 	 107.316
| 24> C 	 -43.804 	 50.7986 	 106.717
| 25> C 	 -43.4659 	 49.575 	 106.262
| 26> C 	 -42.1113 	 49.1987 	 106.455
| 27> C 	 -41.3916 	 50.192 	 107.1
| 28> H 	 -44.2433 	 48.928 	 105.844
| 29> C 	 -41.6226 	 47.6985 	 106.344
| 30> H 	 -42.5042 	 47.0637 	 106.395
| 31> H 	 -41.1669 	 47.487 	 107.329
| 32> C 	 -40.8232 	 47.3192 	 105.192
| 33> H 	 -40.0916 	 48.091 	 105.027
| 34> H 	 -41.4712 	 47.3166 	 104.355
| 35> C 	 -40.2547 	 45.8897 	 105.293
| 36> H 	 -39.6744 	 45.5339 	 104.379
| 37> H 	 -41.0617 	 45.2063 	 105.348
| 38> H 	 -39.6434 	 45.8048 	 106.161
| 39> H 	 -36.8585 	 51.1035 	 108.915
| 40> H 	 -44.8411 	 51.2285 	 106.661
| 41> *
| 42>
| 43>                          ****END OF INPUT****

CARTESIAN COORDINATES (ANGSTROEM)
---------------------------------
  S    -38.958400   51.412200  107.557000
  C    -37.789100   50.667500  108.635000
  C    -38.382100   49.583600  109.237000
  C    -39.664100   49.236500  108.725000
  C    -40.133100   50.154800  107.824000
  H    -40.302800   48.486300  109.165000
  C    -37.777700   48.797700  110.387000
  H    -36.687800   48.911700  110.496000
  H    -37.914900   47.738400  110.116000
  C    -38.440300   49.188800  111.777000
  H    -39.362600   48.654800  112.034000
  H    -37.847800   48.838900  112.607000
  C    -38.621100   50.712800  112.055000
  H    -37.771100   51.400600  111.822000
  H    -39.460100   51.137400  111.522000
  H    -38.747100   50.952600  113.151000
  S    -42.437400   51.628600  107.316000
  C    -43.804000   50.798600  106.717000
  C    -43.465900   49.575000  106.262000
  C    -42.111300   49.198700  106.455000
  C    -41.391600   50.192000  107.100000
  H    -44.243300   48.928000  105.844000
  C    -41.622600   47.698500  106.344000
  H    -42.504200   47.063700  106.395000
  H    -41.166900   47.487000  107.329000
  C    -40.823200   47.319200  105.192000
  H    -40.091600   48.091000  105.027000
  H    -41.471200   47.316600  104.355000
  C    -40.254700   45.889700  105.293000
  H    -39.674400   45.533900  104.379000
  H    -41.061700   45.206300  105.348000
  H    -39.643400   45.804800  106.161000
  H    -36.858500   51.103500  108.915000
  H    -44.841100   51.228500  106.661000

 Total Charge           Charge          ....    0
 Multiplicity           Mult            ....    1
 Number of Electrons    NEL             ....  134
 Basis Dimension        Dim             ....  322

ORBITAL ENERGIES
----------------

  NO   OCC          E(Eh)            E(eV)
   0   2.0000     -88.964062     -2420.8352
   1   2.0000     -88.962852     -2420.8023
   2   2.0000     -10.330274      -281.1011
   3   2.0000     -10.328403      -281.0501
   4   2.0000     -10.317076      -280.7419
   5   2.0000     -10.311163      -280.5810
   6   2.0000     -10.306777      -280.4617
   7   2.0000     -10.299753      -280.2705
   8   2.0000     -10.299622      -280.2670
   9   2.0000     -10.292660      -280.0775
  10   2.0000     -10.292605      -280.0760
  11   2.0000     -10.290465      -280.0178
  12   2.0000     -10.290314      -280.0137
  13   2.0000     -10.281271      -279.7676
  14   2.0000     -10.276447      -279.6363
  15   2.0000     -10.273615      -279.5593
  16   2.0000      -8.079313      -219.8493
  17   2.0000      -8.077916      -219.8113
  18   2.0000      -6.037774      -164.2962
  19   2.0000      -6.036462      -164.2605
  20   2.0000      -6.033756      -164.1868
  21   2.0000      -6.032299      -164.1472
  22   2.0000      -6.030057      -164.0862
  23   2.0000      -6.028694      -164.0491
  24   2.0000      -1.010369       -27.4935
  25   2.0000      -0.988964       -26.9111
  26   2.0000      -0.916258       -24.9326
  27   2.0000      -0.903555       -24.5870
  28   2.0000      -0.868483       -23.6326
  29   2.0000      -0.850797       -23.1514
  30   2.0000      -0.842234       -22.9183
  31   2.0000      -0.814595       -22.1662
  32   2.0000      -0.783766       -21.3274
  33   2.0000      -0.773614       -21.0511
  34   2.0000      -0.710727       -19.3399
  35   2.0000      -0.700345       -19.0574
  36   2.0000      -0.694940       -18.9103
  37   2.0000      -0.657871       -17.9016
  38   2.0000      -0.641837       -17.4653
  39   2.0000      -0.623367       -16.9627
  40   2.0000      -0.596019       -16.2185
  41   2.0000      -0.573108       -15.5951
  42   2.0000      -0.561638       -15.2829
  43   2.0000      -0.545066       -14.8320
  44   2.0000      -0.538656       -14.6576
  45   2.0000      -0.524381       -14.2691
  46   2.0000      -0.513554       -13.9745
  47   2.0000      -0.511472       -13.9179
  48   2.0000      -0.504411       -13.7257
  49   2.0000      -0.500322       -13.6145
  50   2.0000      -0.489873       -13.3301
  51   2.0000      -0.482976       -13.1425
  52   2.0000      -0.470535       -12.8039
  53   2.0000      -0.463604       -12.6153
  54   2.0000      -0.459610       -12.5066
  55   2.0000      -0.447861       -12.1869
  56   2.0000      -0.446007       -12.1365
  57   2.0000      -0.437322       -11.9001
  58   2.0000      -0.434646       -11.8273
  59   2.0000      -0.418396       -11.3851
  60   2.0000      -0.413693       -11.2571
  61   2.0000      -0.413410       -11.2495
  62   2.0000      -0.410750       -11.1771
  63   2.0000      -0.349526        -9.5111
  64   2.0000      -0.334732        -9.1085
  65   2.0000      -0.330029        -8.9806
  66   2.0000      -0.294957        -8.0262
  67   0.0000       0.031042         0.8447
  68   0.0000       0.067514         1.8371
  69   0.0000       0.116479         3.1696
  70   0.0000       0.120703         3.2845
  71   0.0000       0.130020         3.5380

MULLIKEN ATOMIC CHARGES
-----------------------
   0 S :    0.098444
   1 C :   -0.103787
   2 C :   -0.103625
   3 C :    0.026779
   4 C :   -0.137366
   5 H :    0.026117
   6 C :    0.066864
   7 H :    0.028191
   8 H :    0.034808
   9 C :   -0.063494
  10 H :    0.028857
  11 H :    0.021385
  12 C :   -0.086818
  13 H :    0.027949
  14 H :    0.044523
  15 H :    0.035654
  16 S :    0.103762
  17 C :   -0.100895
  18 C :   -0.054929
  19 C :   -0.014297
  20 C :   -0.155275
  21 H :    0.022141
  22 C :    0.046411
  23 H :    0.004470
  24 H :    0.009334
  25 C :   -0.012855
  26 H :    0.031922
  27 H :    0.011241
  28 C :   -0.040289
  29 H :    0.043979
  30 H :    0.014885
  31 H :    0.028554
  32 H :    0.039963
  33 H :    0.077397
Sum of atomic charges:   -0.0000000

LOEWDIN ATOMIC CHARGES
----------------------
   0 S :    0.404106
   1 C :   -0.192153
   2 C :   -0.063489
   3 C :   -0.067971
   4 C :   -0.187472
   5 H :    0.032708
   6 C :   -0.030899
   7 H :    0.031666
   8 H :    0.034244
   9 C :   -0.045404
  10 H :    0.025910
  11 H :    0.023256
  12 C :   -0.078168
  13 H :    0.026714
  14 H :    0.024341
  15 H :    0.032470
  16 S :    0.404289
  17 C :   -0.200457
  18 C :   -0.083877
  19 C :   -0.048740
  20 C :   -0.191818
  21 H :    0.033493
  22 C :   -0.027067
  23 H :    0.025312
  24 H :    0.028058
  25 C :   -0.040294
  26 H :    0.025282
  27 H :    0.021273
  28 C :   -0.058135
  29 H :    0.035910
  30 H :    0.018030
  31 H :    0.019746
  32 H :    0.024135
  33 H :    0.045003

  Mayer bond orders larger than 0.100000
B(  0-S ,  1-C ) :   1.1255 B(  0-S ,  4-C ) :   1.1630 B(  1-C ,  2-C ) :   1.6129
B(  1-C , 32-H ) :   0.9744 B(  2-C ,  3-C ) :   1.2350 B(  2-C ,  6-C ) :   1.0332
B(  3-C ,  4-C ) :   1.5826 B(  3-C ,  5-H ) :   0.9877 B(  4-C , 20-C ) :   1.0167
B(  6-C ,  7-H ) :   0.9475 B(  6-C ,  8-H ) :   0.9446 B(  6-C ,  9-C ) :   1.0509
B(  9-C , 10-H ) :   0.9565 B(  9-C , 11-H ) :   0.9613 B(  9-C , 12-C ) :   1.0681
B( 12-C , 13-H ) :   0.9765 B( 12-C , 14-H ) :   0.9750 B( 12-C , 15-H ) :   0.9749
B( 16-S , 17-C ) :   1.1585 B( 16-S , 20-C ) :   1.1397 B( 17-C , 18-C ) :   1.6167
B( 17-C , 33-H ) :   0.9590 B( 18-C , 19-C ) :   1.2482 B( 18-C , 21-H ) :   0.9883
B( 19-C , 20-C ) :   1.5996 B( 19-C , 22-C ) :   1.0158 B( 22-C , 23-H ) :   0.9322
B( 22-C , 24-H ) :   0.9423 B( 22-C , 25-C ) :   1.0675 B( 25-C , 26-H ) :   0.9574
B( 25-C , 27-H ) :   0.9458 B( 25-C , 28-C ) :   1.0783 B( 28-C , 29-H ) :   0.9748
B( 28-C , 30-H ) :   0.9723 B( 28-C , 31-H ) :   0.9783

Dispersion correction           -0.014674737
FINAL SINGLE POINT ENERGY     -1339.879545253393

DIPOLE MOMENT
-------------
                                X             Y             Z
Electronic contribution:     -6.95451      19.90717      -8.48080
Nuclear contribution   :      6.80744     -20.50360       8.83609
                        -----------------------------------------
Total Dipole Moment    :     -0.14708      -0.59643       0.35529
                        -----------------------------------------
Magnitude (a.u.)       :      0.70964
Magnitude (Debye)      :      1.80377

Rotational constants in cm-1:     0.017309     0.009326     0.007390
Rotational constants in MHz :   518.905734   279.575069   221.559972

                             ****ORCA TERMINATED NORMALLY****
TOTAL RUN TIME: 0 days 0 hours 0 minutes 30 seconds 889 msec
