                         Program Version 4.2.1 -  RELEASE  -
|  1> ! wB97X-D3 SP def2-SVP
|  2> %pal
|  3> nprocs 16
|  4> end
|  5>
|  6> * xyz 0 1
|  7> S 	 -5.38552 	 -14.3886 	 80.5792
|  8> C 	 -4.77055 	 -14.5458 	 82.1963
|  9> C 	 -5.1734 	 -13.5157 	 83.0155
| 10> C 	 -6.02905 	 -12.6339 	 82.3222
| 11> C 	 -6.18919 	 -12.9237 	 81.0074
| 12> H 	 -6.53333 	 -11.8136 	 82.7792
| 13> C 	 -4.93751 	 -13.4058 	 84.5149
| 14> H 	 -4.7471 	 -12.3716 	 84.8317
| 15> H 	 -4.09895 	 -14.0305 	 84.7381
| 16> C 	 -6.14371 	 -13.7815 	 85.4091
| 17> H 	 -6.83569 	 -12.9801 	 85.5647
| 18> H 	 -6.74643 	 -14.4944 	 84.7912
| 19> C 	 -5.70178 	 -14.3518 	 86.7001
| 20> H 	 -4.76638 	 -14.899 	 86.7319
| 21> H 	 -5.49008 	 -13.5317 	 87.4028
| 22> H 	 -6.52811 	 -14.9386 	 87.0442
| 23> S 	 -6.17908 	 -10.6682 	 79.5478
| 24> C 	 -7.30054 	 -10.5951 	 78.1919
| 25> C 	 -8.22914 	 -11.6277 	 78.1834
| 26> C 	 -8.04875 	 -12.5091 	 79.3018
| 27> C 	 -6.94198 	 -12.145 	 80.0984
| 28> H 	 -9.01785 	 -11.5846 	 77.4036
| 29> C 	 -8.956 	 -13.6824 	 79.5799
| 30> H 	 -8.33672 	 -14.5362 	 79.4334
| 31> H 	 -9.69929 	 -13.7432 	 78.7283
| 32> C 	 -9.56236 	 -13.8544 	 80.9327
| 33> H 	 -9.80942 	 -12.8058 	 81.256
| 34> H 	 -8.87182 	 -14.3193 	 81.6396
| 35> C 	 -10.833 	 -14.7368 	 80.917
| 36> H 	 -11.5304 	 -14.4662 	 81.7388
| 37> H 	 -10.4081 	 -15.7036 	 81.1861
| 38> H 	 -11.3333 	 -14.6978 	 79.8934
| 39> H 	 -4.11922 	 -15.3744 	 82.3572
| 40> H 	 -7.56704 	 -9.69483 	 77.6376
| 41> *
| 42>
| 43>                          ****END OF INPUT****

CARTESIAN COORDINATES (ANGSTROEM)
---------------------------------
  S     -5.385520  -14.388600   80.579200
  C     -4.770550  -14.545800   82.196300
  C     -5.173400  -13.515700   83.015500
  C     -6.029050  -12.633900   82.322200
  C     -6.189190  -12.923700   81.007400
  H     -6.533330  -11.813600   82.779200
  C     -4.937510  -13.405800   84.514900
  H     -4.747100  -12.371600   84.831700
  H     -4.098950  -14.030500   84.738100
  C     -6.143710  -13.781500   85.409100
  H     -6.835690  -12.980100   85.564700
  H     -6.746430  -14.494400   84.791200
  C     -5.701780  -14.351800   86.700100
  H     -4.766380  -14.899000   86.731900
  H     -5.490080  -13.531700   87.402800
  H     -6.528110  -14.938600   87.044200
  S     -6.179080  -10.668200   79.547800
  C     -7.300540  -10.595100   78.191900
  C     -8.229140  -11.627700   78.183400
  C     -8.048750  -12.509100   79.301800
  C     -6.941980  -12.145000   80.098400
  H     -9.017850  -11.584600   77.403600
  C     -8.956000  -13.682400   79.579900
  H     -8.336720  -14.536200   79.433400
  H     -9.699290  -13.743200   78.728300
  C     -9.562360  -13.854400   80.932700
  H     -9.809420  -12.805800   81.256000
  H     -8.871820  -14.319300   81.639600
  C    -10.833000  -14.736800   80.917000
  H    -11.530400  -14.466200   81.738800
  H    -10.408100  -15.703600   81.186100
  H    -11.333300  -14.697800   79.893400
  H     -4.119220  -15.374400   82.357200
  H     -7.567040   -9.694830   77.637600

 Total Charge           Charge          ....    0
 Multiplicity           Mult            ....    1
 Number of Electrons    NEL             ....  134
 Basis Dimension        Dim             ....  322

ORBITAL ENERGIES
----------------

  NO   OCC          E(Eh)            E(eV)
   0   2.0000     -88.965453     -2420.8731
   1   2.0000     -88.964189     -2420.8386
   2   2.0000     -10.318908      -280.7918
   3   2.0000     -10.316997      -280.7397
   4   2.0000     -10.315312      -280.6939
   5   2.0000     -10.311584      -280.5925
   6   2.0000     -10.305782      -280.4346
   7   2.0000     -10.298500      -280.2364
   8   2.0000     -10.298433      -280.2346
   9   2.0000     -10.289410      -279.9891
  10   2.0000     -10.286206      -279.9019
  11   2.0000     -10.284166      -279.8464
  12   2.0000     -10.283410      -279.8258
  13   2.0000     -10.282783      -279.8087
  14   2.0000     -10.282595      -279.8036
  15   2.0000     -10.273975      -279.5691
  16   2.0000      -8.079874      -219.8646
  17   2.0000      -8.079772      -219.8618
  18   2.0000      -6.038307      -164.3107
  19   2.0000      -6.038077      -164.3044
  20   2.0000      -6.034402      -164.2044
  21   2.0000      -6.034187      -164.1986
  22   2.0000      -6.030751      -164.1051
  23   2.0000      -6.030681      -164.1032
  24   2.0000      -1.012079       -27.5401
  25   2.0000      -0.982925       -26.7468
  26   2.0000      -0.916348       -24.9351
  27   2.0000      -0.910717       -24.7819
  28   2.0000      -0.875122       -23.8133
  29   2.0000      -0.856012       -23.2933
  30   2.0000      -0.846850       -23.0440
  31   2.0000      -0.814190       -22.1552
  32   2.0000      -0.783476       -21.3195
  33   2.0000      -0.766581       -20.8597
  34   2.0000      -0.708203       -19.2712
  35   2.0000      -0.697708       -18.9856
  36   2.0000      -0.682960       -18.5843
  37   2.0000      -0.660770       -17.9805
  38   2.0000      -0.647536       -17.6204
  39   2.0000      -0.621518       -16.9124
  40   2.0000      -0.590176       -16.0595
  41   2.0000      -0.574709       -15.6386
  42   2.0000      -0.571345       -15.5471
  43   2.0000      -0.558641       -15.2014
  44   2.0000      -0.531765       -14.4701
  45   2.0000      -0.520274       -14.1574
  46   2.0000      -0.517985       -14.0951
  47   2.0000      -0.516095       -14.0437
  48   2.0000      -0.508770       -13.8443
  49   2.0000      -0.495192       -13.4748
  50   2.0000      -0.488552       -13.2942
  51   2.0000      -0.479651       -13.0520
  52   2.0000      -0.471812       -12.8387
  53   2.0000      -0.467250       -12.7145
  54   2.0000      -0.459586       -12.5060
  55   2.0000      -0.446301       -12.1445
  56   2.0000      -0.444573       -12.0974
  57   2.0000      -0.440755       -11.9935
  58   2.0000      -0.435707       -11.8562
  59   2.0000      -0.423353       -11.5200
  60   2.0000      -0.418360       -11.3841
  61   2.0000      -0.406462       -11.0604
  62   2.0000      -0.404614       -11.0101
  63   2.0000      -0.337268        -9.1775
  64   2.0000      -0.334322        -9.0974
  65   2.0000      -0.321536        -8.7495
  66   2.0000      -0.299054        -8.1377
  67   0.0000       0.034227         0.9314
  68   0.0000       0.064154         1.7457
  69   0.0000       0.111295         3.0285
  70   0.0000       0.117576         3.1994
  71   0.0000       0.130003         3.5376

MULLIKEN ATOMIC CHARGES
-----------------------
   0 S :    0.119470
   1 C :   -0.154031
   2 C :   -0.041512
   3 C :    0.012426
   4 C :   -0.132333
   5 H :   -0.000167
   6 C :    0.092300
   7 H :    0.028014
   8 H :    0.011294
   9 C :   -0.088590
  10 H :    0.025961
  11 H :    0.030366
  12 C :   -0.033473
  13 H :    0.029472
  14 H :    0.026857
  15 H :    0.036072
  16 S :    0.120097
  17 C :   -0.097756
  18 C :   -0.068285
  19 C :   -0.044784
  20 C :   -0.177717
  21 H :    0.035869
  22 C :    0.088490
  23 H :    0.014926
  24 H :    0.017233
  25 C :   -0.089562
  26 H :    0.033622
  27 H :    0.042708
  28 C :   -0.066223
  29 H :    0.044312
  30 H :    0.033556
  31 H :    0.047210
  32 H :    0.041926
  33 H :    0.062251
Sum of atomic charges:   -0.0000000

LOEWDIN ATOMIC CHARGES
----------------------
   0 S :    0.421543
   1 C :   -0.192179
   2 C :   -0.062983
   3 C :   -0.056678
   4 C :   -0.210622
   5 H :    0.028122
   6 C :   -0.025952
   7 H :    0.033019
   8 H :    0.024147
   9 C :   -0.043748
  10 H :    0.021505
  11 H :    0.023465
  12 C :   -0.064024
  13 H :    0.024107
  14 H :    0.028952
  15 H :    0.028800
  16 S :    0.411611
  17 C :   -0.192320
  18 C :   -0.073322
  19 C :   -0.049066
  20 C :   -0.208012
  21 H :    0.039230
  22 C :   -0.042471
  23 H :    0.027694
  24 H :    0.033105
  25 C :   -0.046791
  26 H :    0.024095
  27 H :    0.027668
  28 C :   -0.069252
  29 H :    0.031069
  30 H :    0.026941
  31 H :    0.031739
  32 H :    0.019046
  33 H :    0.031566

  Mayer bond orders larger than 0.100000
B(  0-S ,  1-C ) :   1.1538 B(  0-S ,  4-C ) :   1.1409 B(  1-C ,  2-C ) :   1.5776
B(  1-C , 32-H ) :   0.9780 B(  2-C ,  3-C ) :   1.2331 B(  2-C ,  6-C ) :   1.0495
B(  3-C ,  4-C ) :   1.5690 B(  3-C ,  5-H ) :   1.0090 B(  4-C , 20-C ) :   1.0520
B(  6-C ,  7-H ) :   0.9341 B(  6-C ,  8-H ) :   0.9451 B(  6-C ,  9-C ) :   1.0459
B(  9-C , 10-H ) :   0.9492 B(  9-C , 11-H ) :   0.9656 B(  9-C , 12-C ) :   1.0835
B( 12-C , 13-H ) :   0.9790 B( 12-C , 14-H ) :   0.9721 B( 12-C , 15-H ) :   0.9728
B( 16-S , 17-C ) :   1.1606 B( 16-S , 20-C ) :   1.1442 B( 17-C , 18-C ) :   1.6162
B( 17-C , 20-C ) :   0.1054 B( 17-C , 33-H ) :   0.9551 B( 18-C , 19-C ) :   1.2560
B( 18-C , 21-H ) :   0.9813 B( 19-C , 20-C ) :   1.5512 B( 19-C , 22-C ) :   1.0530
B( 22-C , 23-H ) :   0.9069 B( 22-C , 24-H ) :   0.9352 B( 22-C , 25-C ) :   1.0630
B( 25-C , 26-H ) :   0.9649 B( 25-C , 27-H ) :   0.9518 B( 25-C , 28-C ) :   1.0672
B( 28-C , 29-H ) :   0.9756 B( 28-C , 30-H ) :   0.9819 B( 28-C , 31-H ) :   0.9764

Dispersion correction           -0.014517848
FINAL SINGLE POINT ENERGY     -1339.868533949623

DIPOLE MOMENT
-------------
                                X             Y             Z
Electronic contribution:     13.39681      10.48372     -20.54875
Nuclear contribution   :    -13.74499     -10.62846      20.97212
                        -----------------------------------------
Total Dipole Moment    :     -0.34819      -0.14474       0.42337
                        -----------------------------------------
Magnitude (a.u.)       :      0.56694
Magnitude (Debye)      :      1.44105

Rotational constants in cm-1:     0.018794     0.008552     0.007092
Rotational constants in MHz :   563.422443   256.377388   212.626944

                             ****ORCA TERMINATED NORMALLY****
TOTAL RUN TIME: 0 days 0 hours 0 minutes 33 seconds 982 msec
