                         Program Version 4.2.1 -  RELEASE  -
|  1> ! wB97X-D3 SP def2-SVP
|  2> %pal
|  3> nprocs 16
|  4> end
|  5>
|  6> * xyz 0 1
|  7> S 	 50.7818 	 18.6144 	 77.8554
|  8> C 	 50.9611 	 19.1323 	 79.5126
|  9> C 	 49.8315 	 18.9908 	 80.2078
| 10> C 	 48.8617 	 18.327 	 79.4256
| 11> C 	 49.1149 	 18.237 	 78.0566
| 12> H 	 47.8988 	 17.9605 	 79.7406
| 13> C 	 49.6847 	 19.0714 	 81.7433
| 14> H 	 50.6592 	 19.314 	 82.1859
| 15> H 	 49.4533 	 18.0361 	 82.0414
| 16> C 	 48.6464 	 20.1029 	 82.1785
| 17> H 	 49.0428 	 21.0845 	 81.874
| 18> H 	 47.736 	 19.8825 	 81.6104
| 19> C 	 48.3173 	 20.1356 	 83.7044
| 20> H 	 47.646 	 19.2491 	 83.9239
| 21> H 	 49.2708 	 20.1906 	 84.2525
| 22> H 	 47.6956 	 21.0385 	 83.9389
| 23> S 	 49.1101 	 16.6471 	 75.8053
| 24> C 	 47.5845 	 15.9934 	 75.1751
| 25> C 	 46.5082 	 16.6404 	 75.8106
| 26> C 	 46.877 	 17.4981 	 76.8853
| 27> C 	 48.2794 	 17.6183 	 77.0006
| 28> H 	 45.509 	 16.5349 	 75.5169
| 29> C 	 45.8728 	 18.2842 	 77.6533
| 30> H 	 45.8435 	 17.9565 	 78.6769
| 31> H 	 44.892 	 17.9181 	 77.3502
| 32> C 	 46.0051 	 19.8439 	 77.5596
| 33> H 	 46.0391 	 20.0909 	 76.5115
| 34> H 	 46.8891 	 20.1485 	 78.0567
| 35> C 	 44.9694 	 20.7383 	 78.2177
| 36> H 	 43.9866 	 20.3699 	 77.9582
| 37> H 	 45.1022 	 21.7909 	 78.0611
| 38> H 	 44.945 	 20.6124 	 79.3036
| 39> H 	 51.8537 	 19.5985 	 79.892
| 40> H 	 47.5832 	 15.3502 	 74.2215
| 41> *
| 42>
| 43>                          ****END OF INPUT****

CARTESIAN COORDINATES (ANGSTROEM)
---------------------------------
  S     50.781800   18.614400   77.855400
  C     50.961100   19.132300   79.512600
  C     49.831500   18.990800   80.207800
  C     48.861700   18.327000   79.425600
  C     49.114900   18.237000   78.056600
  H     47.898800   17.960500   79.740600
  C     49.684700   19.071400   81.743300
  H     50.659200   19.314000   82.185900
  H     49.453300   18.036100   82.041400
  C     48.646400   20.102900   82.178500
  H     49.042800   21.084500   81.874000
  H     47.736000   19.882500   81.610400
  C     48.317300   20.135600   83.704400
  H     47.646000   19.249100   83.923900
  H     49.270800   20.190600   84.252500
  H     47.695600   21.038500   83.938900
  S     49.110100   16.647100   75.805300
  C     47.584500   15.993400   75.175100
  C     46.508200   16.640400   75.810600
  C     46.877000   17.498100   76.885300
  C     48.279400   17.618300   77.000600
  H     45.509000   16.534900   75.516900
  C     45.872800   18.284200   77.653300
  H     45.843500   17.956500   78.676900
  H     44.892000   17.918100   77.350200
  C     46.005100   19.843900   77.559600
  H     46.039100   20.090900   76.511500
  H     46.889100   20.148500   78.056700
  C     44.969400   20.738300   78.217700
  H     43.986600   20.369900   77.958200
  H     45.102200   21.790900   78.061100
  H     44.945000   20.612400   79.303600
  H     51.853700   19.598500   79.892000
  H     47.583200   15.350200   74.221500

 Total Charge           Charge          ....    0
 Multiplicity           Mult            ....    1
 Number of Electrons    NEL             ....  134
 Basis Dimension        Dim             ....  322

ORBITAL ENERGIES
----------------

  NO   OCC          E(Eh)            E(eV)
   0   2.0000     -88.968540     -2420.9571
   1   2.0000     -88.963091     -2420.8088
   2   2.0000     -10.333740      -281.1954
   3   2.0000     -10.330980      -281.1203
   4   2.0000     -10.330481      -281.1067
   5   2.0000     -10.309222      -280.5282
   6   2.0000     -10.306076      -280.4426
   7   2.0000     -10.297803      -280.2175
   8   2.0000     -10.297142      -280.1995
   9   2.0000     -10.295976      -280.1678
  10   2.0000     -10.293447      -280.0989
  11   2.0000     -10.290578      -280.0209
  12   2.0000     -10.290159      -280.0095
  13   2.0000     -10.289494      -279.9914
  14   2.0000     -10.280147      -279.7370
  15   2.0000     -10.273437      -279.5544
  16   2.0000      -8.082840      -219.9453
  17   2.0000      -8.078698      -219.8325
  18   2.0000      -6.041368      -164.3940
  19   2.0000      -6.037280      -164.2827
  20   2.0000      -6.037221      -164.2811
  21   2.0000      -6.033747      -164.1866
  22   2.0000      -6.033113      -164.1693
  23   2.0000      -6.029366      -164.0674
  24   2.0000      -1.011130       -27.5142
  25   2.0000      -0.986430       -26.8421
  26   2.0000      -0.910907       -24.7870
  27   2.0000      -0.907644       -24.6982
  28   2.0000      -0.869646       -23.6643
  29   2.0000      -0.856075       -23.2950
  30   2.0000      -0.843332       -22.9482
  31   2.0000      -0.813761       -22.1436
  32   2.0000      -0.783174       -21.3112
  33   2.0000      -0.774184       -21.0666
  34   2.0000      -0.709096       -19.2955
  35   2.0000      -0.695620       -18.9288
  36   2.0000      -0.689021       -18.7492
  37   2.0000      -0.668414       -18.1885
  38   2.0000      -0.641742       -17.4627
  39   2.0000      -0.620981       -16.8978
  40   2.0000      -0.596583       -16.2338
  41   2.0000      -0.567203       -15.4344
  42   2.0000      -0.566170       -15.4063
  43   2.0000      -0.562032       -15.2937
  44   2.0000      -0.530992       -14.4490
  45   2.0000      -0.522603       -14.2207
  46   2.0000      -0.517613       -14.0850
  47   2.0000      -0.510060       -13.8794
  48   2.0000      -0.505940       -13.7673
  49   2.0000      -0.501210       -13.6386
  50   2.0000      -0.495211       -13.4754
  51   2.0000      -0.486579       -13.2405
  52   2.0000      -0.475818       -12.9477
  53   2.0000      -0.465704       -12.6724
  54   2.0000      -0.456527       -12.4227
  55   2.0000      -0.450722       -12.2648
  56   2.0000      -0.441305       -12.0085
  57   2.0000      -0.434388       -11.8203
  58   2.0000      -0.427947       -11.6450
  59   2.0000      -0.426448       -11.6042
  60   2.0000      -0.425478       -11.5778
  61   2.0000      -0.416147       -11.3239
  62   2.0000      -0.410511       -11.1706
  63   2.0000      -0.357144        -9.7184
  64   2.0000      -0.334591        -9.1047
  65   2.0000      -0.329078        -8.9547
  66   2.0000      -0.285945        -7.7810
  67   0.0000       0.019042         0.5182
  68   0.0000       0.079918         2.1747
  69   0.0000       0.102104         2.7784
  70   0.0000       0.121464         3.3052
  71   0.0000       0.125188         3.4065

MULLIKEN ATOMIC CHARGES
-----------------------
   0 S :    0.091585
   1 C :   -0.125240
   2 C :   -0.049664
   3 C :    0.002106
   4 C :   -0.124891
   5 H :   -0.004284
   6 C :    0.062132
   7 H :    0.013677
   8 H :    0.039435
   9 C :   -0.102491
  10 H :    0.031202
  11 H :    0.029303
  12 C :   -0.060541
  13 H :    0.045377
  14 H :    0.042564
  15 H :    0.044942
  16 S :    0.096967
  17 C :   -0.127801
  18 C :   -0.001701
  19 C :   -0.068997
  20 C :   -0.128549
  21 H :   -0.000137
  22 C :    0.089304
  23 H :    0.016973
  24 H :   -0.004475
  25 C :   -0.047078
  26 H :    0.032509
  27 H :    0.032256
  28 C :   -0.032808
  29 H :    0.012244
  30 H :    0.042395
  31 H :    0.014593
  32 H :    0.042730
  33 H :    0.096363
Sum of atomic charges:    0.0000000

LOEWDIN ATOMIC CHARGES
----------------------
   0 S :    0.409114
   1 C :   -0.187840
   2 C :   -0.071388
   3 C :   -0.065464
   4 C :   -0.199102
   5 H :    0.021948
   6 C :   -0.024263
   7 H :    0.025136
   8 H :    0.034287
   9 C :   -0.046743
  10 H :    0.025672
  11 H :    0.021500
  12 C :   -0.072986
  13 H :    0.032726
  14 H :    0.026951
  15 H :    0.031749
  16 S :    0.402212
  17 C :   -0.194117
  18 C :   -0.060991
  19 C :   -0.058281
  20 C :   -0.191807
  21 H :    0.022605
  22 C :   -0.032811
  23 H :    0.026680
  24 H :    0.027285
  25 C :   -0.032336
  26 H :    0.025265
  27 H :    0.022533
  28 C :   -0.063443
  29 H :    0.018885
  30 H :    0.028567
  31 H :    0.022569
  32 H :    0.027124
  33 H :    0.048764

  Mayer bond orders larger than 0.100000
B(  0-S ,  1-C ) :   1.1420 B(  0-S ,  4-C ) :   1.1553 B(  1-C ,  2-C ) :   1.6216
B(  1-C , 32-H ) :   0.9666 B(  2-C ,  3-C ) :   1.2379 B(  2-C ,  6-C ) :   1.0159
B(  3-C ,  4-C ) :   1.5631 B(  3-C ,  5-H ) :   0.9875 B(  4-C , 20-C ) :   1.0545
B(  6-C ,  7-H ) :   0.9438 B(  6-C ,  8-H ) :   0.9481 B(  6-C ,  9-C ) :   1.0497
B(  9-C , 10-H ) :   0.9550 B(  9-C , 11-H ) :   0.9624 B(  9-C , 12-C ) :   1.0791
B( 12-C , 13-H ) :   0.9755 B( 12-C , 14-H ) :   0.9734 B( 12-C , 15-H ) :   0.9758
B( 16-S , 17-C ) :   1.1616 B( 16-S , 20-C ) :   1.1560 B( 17-C , 18-C ) :   1.5541
B( 17-C , 20-C ) :   0.1079 B( 17-C , 33-H ) :   0.9579 B( 18-C , 19-C ) :   1.2924
B( 18-C , 21-H ) :   0.9929 B( 19-C , 20-C ) :   1.5414 B( 19-C , 22-C ) :   1.0595
B( 22-C , 23-H ) :   0.9176 B( 22-C , 24-H ) :   0.9206 B( 22-C , 25-C ) :   1.0518
B( 25-C , 26-H ) :   0.9592 B( 25-C , 27-H ) :   0.9507 B( 25-C , 28-C ) :   1.0928
B( 28-C , 29-H ) :   0.9731 B( 28-C , 30-H ) :   0.9739 B( 28-C , 31-H ) :   0.9711

Dispersion correction           -0.014212780
FINAL SINGLE POINT ENERGY     -1339.878597661103

DIPOLE MOMENT
-------------
                                X             Y             Z
Electronic contribution:     18.03196     -14.65485     -22.79039
Nuclear contribution   :    -18.51105      14.78985      23.20764
                        -----------------------------------------
Total Dipole Moment    :     -0.47910       0.13500       0.41725
                        -----------------------------------------
Magnitude (a.u.)       :      0.64950
Magnitude (Debye)      :      1.65090

Rotational constants in cm-1:     0.018173     0.009060     0.006696
Rotational constants in MHz :   544.800325   271.612169   200.746587

                             ****ORCA TERMINATED NORMALLY****
TOTAL RUN TIME: 0 days 0 hours 0 minutes 30 seconds 474 msec
