                         Program Version 4.2.1 -  RELEASE  -
|  1> ! wB97X-D3 SP def2-SVP
|  2> %pal
|  3> nprocs 16
|  4> end
|  5>
|  6> * xyz 0 1
|  7> S 	 50.0451 	 21.9949 	 83.7297
|  8> C 	 51.1116 	 23.2483 	 84.3308
|  9> C 	 51.5842 	 22.8911 	 85.5502
| 10> C 	 51.3034 	 21.5128 	 85.9939
| 11> C 	 50.5012 	 20.871 	 85.0423
| 12> H 	 51.666 	 21.0079 	 86.9097
| 13> C 	 52.5926 	 23.7774 	 86.2722
| 14> H 	 52.745 	 23.2766 	 87.2939
| 15> H 	 52.1798 	 24.8097 	 86.3406
| 16> C 	 53.9488 	 24.0373 	 85.4845
| 17> H 	 53.8142 	 24.2908 	 84.4055
| 18> H 	 54.4807 	 24.9412 	 85.862
| 19> C 	 54.866 	 22.8461 	 85.6119
| 20> H 	 55.676 	 22.7888 	 84.8878
| 21> H 	 55.2646 	 22.6539 	 86.6143
| 22> H 	 54.1561 	 22.039 	 85.4194
| 23> S 	 48.514 	 19.0581 	 85.5456
| 24> C 	 48.9414 	 17.3616 	 85.6826
| 25> C 	 50.2501 	 17.1613 	 85.279
| 26> C 	 50.9102 	 18.3698 	 84.881
| 27> C 	 50.1322 	 19.4611 	 85.0438
| 28> H 	 50.6795 	 16.1944 	 85.3598
| 29> C 	 52.3632 	 18.4242 	 84.3897
| 30> H 	 52.9136 	 17.6162 	 84.9494
| 31> H 	 52.9254 	 19.2355 	 84.7018
| 32> C 	 52.5361 	 18.1118 	 82.8923
| 33> H 	 53.5353 	 18.3867 	 82.5584
| 34> H 	 51.8107 	 18.7666 	 82.4011
| 35> C 	 52.2864 	 16.6138 	 82.5118
| 36> H 	 51.2442 	 16.394 	 82.8458
| 37> H 	 52.9628 	 15.96 	 83.0754
| 38> H 	 52.342 	 16.4544 	 81.4398
| 39> H 	 51.2301 	 24.1526 	 83.7962
| 40> H 	 48.3126 	 16.426 	 85.92
| 41> *
| 42>
| 43>                          ****END OF INPUT****

CARTESIAN COORDINATES (ANGSTROEM)
---------------------------------
  S     50.045100   21.994900   83.729700
  C     51.111600   23.248300   84.330800
  C     51.584200   22.891100   85.550200
  C     51.303400   21.512800   85.993900
  C     50.501200   20.871000   85.042300
  H     51.666000   21.007900   86.909700
  C     52.592600   23.777400   86.272200
  H     52.745000   23.276600   87.293900
  H     52.179800   24.809700   86.340600
  C     53.948800   24.037300   85.484500
  H     53.814200   24.290800   84.405500
  H     54.480700   24.941200   85.862000
  C     54.866000   22.846100   85.611900
  H     55.676000   22.788800   84.887800
  H     55.264600   22.653900   86.614300
  H     54.156100   22.039000   85.419400
  S     48.514000   19.058100   85.545600
  C     48.941400   17.361600   85.682600
  C     50.250100   17.161300   85.279000
  C     50.910200   18.369800   84.881000
  C     50.132200   19.461100   85.043800
  H     50.679500   16.194400   85.359800
  C     52.363200   18.424200   84.389700
  H     52.913600   17.616200   84.949400
  H     52.925400   19.235500   84.701800
  C     52.536100   18.111800   82.892300
  H     53.535300   18.386700   82.558400
  H     51.810700   18.766600   82.401100
  C     52.286400   16.613800   82.511800
  H     51.244200   16.394000   82.845800
  H     52.962800   15.960000   83.075400
  H     52.342000   16.454400   81.439800
  H     51.230100   24.152600   83.796200
  H     48.312600   16.426000   85.920000

 Total Charge           Charge          ....    0
 Multiplicity           Mult            ....    1
 Number of Electrons    NEL             ....  134
 Basis Dimension        Dim             ....  322

ORBITAL ENERGIES
----------------

  NO   OCC          E(Eh)            E(eV)
   0   2.0000     -88.966409     -2420.8991
   1   2.0000     -88.964742     -2420.8537
   2   2.0000     -10.335821      -281.2520
   3   2.0000     -10.324689      -280.9491
   4   2.0000     -10.321849      -280.8718
   5   2.0000     -10.313197      -280.6363
   6   2.0000     -10.308652      -280.5127
   7   2.0000     -10.305044      -280.4145
   8   2.0000     -10.303297      -280.3670
   9   2.0000     -10.302607      -280.3482
  10   2.0000     -10.293908      -280.1115
  11   2.0000     -10.292834      -280.0822
  12   2.0000     -10.287902      -279.9480
  13   2.0000     -10.284502      -279.8555
  14   2.0000     -10.279110      -279.7088
  15   2.0000     -10.273253      -279.5494
  16   2.0000      -8.081262      -219.9023
  17   2.0000      -8.079142      -219.8446
  18   2.0000      -6.039837      -164.3523
  19   2.0000      -6.037696      -164.2941
  20   2.0000      -6.035734      -164.2407
  21   2.0000      -6.033672      -164.1846
  22   2.0000      -6.031936      -164.1373
  23   2.0000      -6.029895      -164.0818
  24   2.0000      -1.007544       -27.4167
  25   2.0000      -0.983669       -26.7670
  26   2.0000      -0.906289       -24.6614
  27   2.0000      -0.903940       -24.5975
  28   2.0000      -0.871467       -23.7138
  29   2.0000      -0.845210       -22.9993
  30   2.0000      -0.842384       -22.9224
  31   2.0000      -0.817049       -22.2330
  32   2.0000      -0.780717       -21.2444
  33   2.0000      -0.766686       -20.8626
  34   2.0000      -0.706043       -19.2124
  35   2.0000      -0.698553       -19.0086
  36   2.0000      -0.688117       -18.7246
  37   2.0000      -0.661962       -18.0129
  38   2.0000      -0.647655       -17.6236
  39   2.0000      -0.609362       -16.5816
  40   2.0000      -0.595364       -16.2007
  41   2.0000      -0.568240       -15.4626
  42   2.0000      -0.554100       -15.0778
  43   2.0000      -0.547611       -14.9012
  44   2.0000      -0.541186       -14.7264
  45   2.0000      -0.532245       -14.4831
  46   2.0000      -0.524443       -14.2708
  47   2.0000      -0.514638       -14.0040
  48   2.0000      -0.506263       -13.7761
  49   2.0000      -0.488342       -13.2885
  50   2.0000      -0.484581       -13.1861
  51   2.0000      -0.478251       -13.0139
  52   2.0000      -0.470674       -12.8077
  53   2.0000      -0.466209       -12.6862
  54   2.0000      -0.460033       -12.5181
  55   2.0000      -0.445785       -12.1304
  56   2.0000      -0.441667       -12.0184
  57   2.0000      -0.432819       -11.7776
  58   2.0000      -0.429851       -11.6968
  59   2.0000      -0.424882       -11.5616
  60   2.0000      -0.417240       -11.3537
  61   2.0000      -0.413286       -11.2461
  62   2.0000      -0.406352       -11.0574
  63   2.0000      -0.338690        -9.2162
  64   2.0000      -0.330193        -8.9850
  65   2.0000      -0.327383        -8.9085
  66   2.0000      -0.309363        -8.4182
  67   0.0000       0.039955         1.0872
  68   0.0000       0.052778         1.4362
  69   0.0000       0.112000         3.0477
  70   0.0000       0.123825         3.3695
  71   0.0000       0.124884         3.3983

MULLIKEN ATOMIC CHARGES
-----------------------
   0 S :    0.100731
   1 C :   -0.121210
   2 C :   -0.071924
   3 C :    0.048812
   4 C :   -0.170400
   5 H :    0.039230
   6 C :    0.007713
   7 H :    0.043079
   8 H :    0.042822
   9 C :   -0.082071
  10 H :    0.034312
  11 H :    0.029787
  12 C :   -0.044262
  13 H :    0.033918
  14 H :    0.029698
  15 H :    0.022254
  16 S :    0.119821
  17 C :   -0.117391
  18 C :   -0.044626
  19 C :   -0.016949
  20 C :   -0.180770
  21 H :    0.012058
  22 C :    0.093685
  23 H :    0.010083
  24 H :    0.007614
  25 C :   -0.059813
  26 H :    0.027162
  27 H :    0.031386
  28 C :   -0.062135
  29 H :    0.035634
  30 H :    0.029090
  31 H :    0.042325
  32 H :    0.045202
  33 H :    0.085137
Sum of atomic charges:   -0.0000000

LOEWDIN ATOMIC CHARGES
----------------------
   0 S :    0.385910
   1 C :   -0.182528
   2 C :   -0.072125
   3 C :   -0.057589
   4 C :   -0.182044
   5 H :    0.042588
   6 C :   -0.038484
   7 H :    0.037781
   8 H :    0.036872
   9 C :   -0.044935
  10 H :    0.027935
  11 H :    0.021634
  12 C :   -0.072419
  13 H :    0.023666
  14 H :    0.024109
  15 H :    0.025919
  16 S :    0.410027
  17 C :   -0.200644
  18 C :   -0.072755
  19 C :   -0.052522
  20 C :   -0.208256
  21 H :    0.026127
  22 C :   -0.027843
  23 H :    0.031175
  24 H :    0.019905
  25 C :   -0.034627
  26 H :    0.021227
  27 H :    0.024642
  28 C :   -0.067167
  29 H :    0.028632
  30 H :    0.022406
  31 H :    0.026182
  32 H :    0.023547
  33 H :    0.053653

  Mayer bond orders larger than 0.100000
B(  0-S ,  1-C ) :   1.1277 B(  0-S ,  4-C ) :   1.1488 B(  1-C ,  2-C ) :   1.6210
B(  1-C , 32-H ) :   0.9819 B(  2-C ,  3-C ) :   1.1931 B(  2-C ,  6-C ) :   1.0313
B(  3-C ,  4-C ) :   1.6012 B(  3-C ,  5-H ) :   0.9886 B(  4-C , 20-C ) :   1.0026
B(  6-C ,  7-H ) :   0.9499 B(  6-C ,  8-H ) :   0.9379 B(  6-C ,  9-C ) :   1.0531
B(  9-C , 10-H ) :   0.9551 B(  9-C , 11-H ) :   0.9580 B(  9-C , 12-C ) :   1.0706
B( 12-C , 13-H ) :   0.9725 B( 12-C , 14-H ) :   0.9738 B( 12-C , 15-H ) :   0.9786
B( 16-S , 17-C ) :   1.1474 B( 16-S , 20-C ) :   1.1400 B( 17-C , 18-C ) :   1.6339
B( 17-C , 33-H ) :   0.9527 B( 18-C , 19-C ) :   1.2267 B( 18-C , 21-H ) :   0.9895
B( 19-C , 20-C ) :   1.6407 B( 19-C , 22-C ) :   1.0310 B( 22-C , 23-H ) :   0.9335
B( 22-C , 24-H ) :   0.9338 B( 22-C , 25-C ) :   1.0653 B( 25-C , 26-H ) :   0.9573
B( 25-C , 27-H ) :   0.9555 B( 25-C , 28-C ) :   1.0743 B( 28-C , 29-H ) :   0.9729
B( 28-C , 30-H ) :   0.9756 B( 28-C , 31-H ) :   0.9746

Dispersion correction           -0.015277844
FINAL SINGLE POINT ENERGY     -1339.875329547424

DIPOLE MOMENT
-------------
                                X             Y             Z
Electronic contribution:    -25.43394       1.32543       2.25085
Nuclear contribution   :     26.04385      -1.38769      -2.12583
                        -----------------------------------------
Total Dipole Moment    :      0.60992      -0.06227       0.12502
                        -----------------------------------------
Magnitude (a.u.)       :      0.62570
Magnitude (Debye)      :      1.59041

Rotational constants in cm-1:     0.019660     0.008782     0.007268
Rotational constants in MHz :   589.378911   263.291614   217.903587

                             ****ORCA TERMINATED NORMALLY****
TOTAL RUN TIME: 0 days 0 hours 0 minutes 31 seconds 511 msec
