                         Program Version 4.2.1 -  RELEASE  -
|  1> ! wB97X-D3 SP def2-SVP
|  2> %pal
|  3> nprocs 16
|  4> end
|  5>
|  6> * xyz 0 1
|  7> S 	 -4.15253 	 73.6879 	 45.7205
|  8> C 	 -4.02036 	 75.2137 	 46.573
|  9> C 	 -5.29497 	 75.6618 	 47.0057
| 10> C 	 -6.29131 	 74.7058 	 46.647
| 11> C 	 -5.89505 	 73.6647 	 45.8749
| 12> H 	 -7.37254 	 74.6154 	 46.8725
| 13> C 	 -5.58965 	 76.8732 	 47.7934
| 14> H 	 -6.66433 	 76.9079 	 48.1564
| 15> H 	 -5.36307 	 77.8187 	 47.1822
| 16> C 	 -4.67627 	 77.0114 	 48.9986
| 17> H 	 -4.77715 	 76.2082 	 49.6827
| 18> H 	 -3.61681 	 76.958 	 48.5798
| 19> C 	 -4.92511 	 78.4014 	 49.6984
| 20> H 	 -5.95493 	 78.6375 	 50.0793
| 21> H 	 -4.2634 	 78.3721 	 50.5784
| 22> H 	 -4.64028 	 79.2432 	 49.1282
| 23> S 	 -6.14675 	 70.9833 	 46.0783
| 24> C 	 -7.61057 	 70.259 	 45.5275
| 25> C 	 -8.53051 	 71.1808 	 45.1108
| 26> C 	 -8.07378 	 72.5413 	 45.2096
| 27> C 	 -6.7307 	 72.5326 	 45.6459
| 28> H 	 -9.45423 	 70.7524 	 44.7035
| 29> C 	 -8.89679 	 73.7595 	 44.6829
| 30> H 	 -9.28226 	 73.4286 	 43.7344
| 31> H 	 -8.25686 	 74.6436 	 44.5302
| 32> C 	 -10.2656 	 74.2453 	 45.3308
| 33> H 	 -10.2384 	 74.1548 	 46.4294
| 34> H 	 -11.0025 	 73.6024 	 44.8907
| 35> C 	 -10.5065 	 75.7527 	 45.0741
| 36> H 	 -9.83534 	 76.4474 	 45.5444
| 37> H 	 -11.4915 	 75.9677 	 45.45
| 38> H 	 -10.4322 	 76.0198 	 44.0268
| 39> H 	 -3.10309 	 75.7943 	 46.7333
| 40> H 	 -7.8738 	 69.1793 	 45.5521
| 41> *
| 42>
| 43>                          ****END OF INPUT****

CARTESIAN COORDINATES (ANGSTROEM)
---------------------------------
  S     -4.152530   73.687900   45.720500
  C     -4.020360   75.213700   46.573000
  C     -5.294970   75.661800   47.005700
  C     -6.291310   74.705800   46.647000
  C     -5.895050   73.664700   45.874900
  H     -7.372540   74.615400   46.872500
  C     -5.589650   76.873200   47.793400
  H     -6.664330   76.907900   48.156400
  H     -5.363070   77.818700   47.182200
  C     -4.676270   77.011400   48.998600
  H     -4.777150   76.208200   49.682700
  H     -3.616810   76.958000   48.579800
  C     -4.925110   78.401400   49.698400
  H     -5.954930   78.637500   50.079300
  H     -4.263400   78.372100   50.578400
  H     -4.640280   79.243200   49.128200
  S     -6.146750   70.983300   46.078300
  C     -7.610570   70.259000   45.527500
  C     -8.530510   71.180800   45.110800
  C     -8.073780   72.541300   45.209600
  C     -6.730700   72.532600   45.645900
  H     -9.454230   70.752400   44.703500
  C     -8.896790   73.759500   44.682900
  H     -9.282260   73.428600   43.734400
  H     -8.256860   74.643600   44.530200
  C    -10.265600   74.245300   45.330800
  H    -10.238400   74.154800   46.429400
  H    -11.002500   73.602400   44.890700
  C    -10.506500   75.752700   45.074100
  H     -9.835340   76.447400   45.544400
  H    -11.491500   75.967700   45.450000
  H    -10.432200   76.019800   44.026800
  H     -3.103090   75.794300   46.733300
  H     -7.873800   69.179300   45.552100

 Total Charge           Charge          ....    0
 Multiplicity           Mult            ....    1
 Number of Electrons    NEL             ....  134
 Basis Dimension        Dim             ....  322

ORBITAL ENERGIES
----------------

  NO   OCC          E(Eh)            E(eV)
   0   2.0000     -88.967594     -2420.9313
   1   2.0000     -88.966901     -2420.9125
   2   2.0000     -10.323387      -280.9136
   3   2.0000     -10.320456      -280.8339
   4   2.0000     -10.318888      -280.7912
   5   2.0000     -10.312295      -280.6118
   6   2.0000     -10.309460      -280.5347
   7   2.0000     -10.304061      -280.3877
   8   2.0000     -10.297553      -280.2107
   9   2.0000     -10.295252      -280.1481
  10   2.0000     -10.292829      -280.0821
  11   2.0000     -10.292751      -280.0800
  12   2.0000     -10.292268      -280.0669
  13   2.0000     -10.289369      -279.9880
  14   2.0000     -10.282202      -279.7929
  15   2.0000     -10.277605      -279.6678
  16   2.0000      -8.082730      -219.9423
  17   2.0000      -8.082006      -219.9226
  18   2.0000      -6.041156      -164.3882
  19   2.0000      -6.040569      -164.3722
  20   2.0000      -6.037084      -164.2774
  21   2.0000      -6.036512      -164.2618
  22   2.0000      -6.033519      -164.1804
  23   2.0000      -6.032771      -164.1600
  24   2.0000      -1.012746       -27.5582
  25   2.0000      -0.985537       -26.8178
  26   2.0000      -0.915413       -24.9097
  27   2.0000      -0.901241       -24.5240
  28   2.0000      -0.871981       -23.7278
  29   2.0000      -0.854522       -23.2527
  30   2.0000      -0.844894       -22.9907
  31   2.0000      -0.812676       -22.1140
  32   2.0000      -0.781839       -21.2749
  33   2.0000      -0.769010       -20.9258
  34   2.0000      -0.708801       -19.2875
  35   2.0000      -0.703066       -19.1314
  36   2.0000      -0.690991       -18.8028
  37   2.0000      -0.659138       -17.9361
  38   2.0000      -0.636662       -17.3245
  39   2.0000      -0.613246       -16.6873
  40   2.0000      -0.592634       -16.1264
  41   2.0000      -0.571661       -15.5557
  42   2.0000      -0.567778       -15.4500
  43   2.0000      -0.557122       -15.1601
  44   2.0000      -0.525139       -14.2898
  45   2.0000      -0.522066       -14.2061
  46   2.0000      -0.517653       -14.0860
  47   2.0000      -0.509501       -13.8642
  48   2.0000      -0.501443       -13.6450
  49   2.0000      -0.494271       -13.4498
  50   2.0000      -0.490814       -13.3557
  51   2.0000      -0.485362       -13.2074
  52   2.0000      -0.472076       -12.8458
  53   2.0000      -0.464645       -12.6436
  54   2.0000      -0.462414       -12.5829
  55   2.0000      -0.446444       -12.1483
  56   2.0000      -0.443550       -12.0696
  57   2.0000      -0.437802       -11.9132
  58   2.0000      -0.433869       -11.8062
  59   2.0000      -0.427833       -11.6419
  60   2.0000      -0.422163       -11.4876
  61   2.0000      -0.418213       -11.3801
  62   2.0000      -0.415117       -11.2959
  63   2.0000      -0.354043        -9.6340
  64   2.0000      -0.330892        -9.0040
  65   2.0000      -0.326306        -8.8792
  66   2.0000      -0.285358        -7.7650
  67   0.0000       0.028561         0.7772
  68   0.0000       0.075833         2.0635
  69   0.0000       0.113728         3.0947
  70   0.0000       0.118151         3.2150
  71   0.0000       0.128117         3.4862

MULLIKEN ATOMIC CHARGES
-----------------------
   0 S :    0.108858
   1 C :   -0.138055
   2 C :   -0.040492
   3 C :   -0.010206
   4 C :   -0.149086
   5 H :    0.026790
   6 C :    0.039426
   7 H :    0.036989
   8 H :    0.046318
   9 C :   -0.108006
  10 H :    0.032614
  11 H :    0.032952
  12 C :   -0.049042
  13 H :    0.039231
  14 H :    0.033273
  15 H :    0.024944
  16 S :    0.129103
  17 C :   -0.112983
  18 C :   -0.046109
  19 C :   -0.009503
  20 C :   -0.162242
  21 H :    0.021434
  22 C :    0.018180
  23 H :    0.025854
  24 H :    0.039109
  25 C :   -0.060240
  26 H :    0.035259
  27 H :    0.031783
  28 C :   -0.051134
  29 H :    0.030514
  30 H :    0.031254
  31 H :    0.027887
  32 H :    0.060932
  33 H :    0.064395
Sum of atomic charges:    0.0000000

LOEWDIN ATOMIC CHARGES
----------------------
   0 S :    0.405309
   1 C :   -0.202522
   2 C :   -0.064079
   3 C :   -0.064624
   4 C :   -0.203737
   5 H :    0.039685
   6 C :   -0.046272
   7 H :    0.035850
   8 H :    0.043247
   9 C :   -0.034618
  10 H :    0.018810
  11 H :    0.029074
  12 C :   -0.070272
  13 H :    0.030425
  14 H :    0.029161
  15 H :    0.017565
  16 S :    0.433016
  17 C :   -0.207938
  18 C :   -0.075060
  19 C :   -0.058073
  20 C :   -0.206546
  21 H :    0.034773
  22 C :   -0.037748
  23 H :    0.031466
  24 H :    0.030276
  25 C :   -0.032636
  26 H :    0.023943
  27 H :    0.021096
  28 C :   -0.062433
  29 H :    0.024000
  30 H :    0.026332
  31 H :    0.022889
  32 H :    0.031645
  33 H :    0.037996

  Mayer bond orders larger than 0.100000
B(  0-S ,  1-C ) :   1.1466 B(  0-S ,  4-C ) :   1.1361 B(  1-C ,  2-C ) :   1.5660
B(  1-C , 32-H ) :   0.9663 B(  2-C ,  3-C ) :   1.2456 B(  2-C ,  6-C ) :   1.0312
B(  3-C ,  4-C ) :   1.5768 B(  3-C ,  5-H ) :   0.9862 B(  4-C , 20-C ) :   1.0635
B(  6-C ,  7-H ) :   0.9484 B(  6-C ,  8-H ) :   0.9306 B(  6-C ,  9-C ) :   1.0580
B(  9-C , 10-H ) :   0.9617 B(  9-C , 11-H ) :   0.9520 B(  9-C , 12-C ) :   1.0736
B( 12-C , 13-H ) :   0.9756 B( 12-C , 14-H ) :   0.9750 B( 12-C , 15-H ) :   0.9753
B( 16-S , 17-C ) :   1.1426 B( 16-S , 20-C ) :   1.1637 B( 17-C , 18-C ) :   1.6406
B( 17-C , 33-H ) :   0.9608 B( 18-C , 19-C ) :   1.2295 B( 18-C , 21-H ) :   0.9879
B( 19-C , 20-C ) :   1.5661 B( 19-C , 22-C ) :   1.0383 B( 22-C , 23-H ) :   0.9387
B( 22-C , 24-H ) :   0.9473 B( 22-C , 25-C ) :   1.0361 B( 25-C , 26-H ) :   0.9624
B( 25-C , 27-H ) :   0.9617 B( 25-C , 28-C ) :   1.0825 B( 28-C , 29-H ) :   0.9757
B( 28-C , 30-H ) :   0.9731 B( 28-C , 31-H ) :   0.9756

Dispersion correction           -0.013580643
FINAL SINGLE POINT ENERGY     -1339.868397044420

DIPOLE MOMENT
-------------
                                X             Y             Z
Electronic contribution:     14.79859     -25.45359      -8.12866
Nuclear contribution   :    -15.27494      25.86947       8.32328
                        -----------------------------------------
Total Dipole Moment    :     -0.47635       0.41588       0.19462
                        -----------------------------------------
Magnitude (a.u.)       :      0.66162
Magnitude (Debye)      :      1.68172

Rotational constants in cm-1:     0.017053     0.008690     0.006338
Rotational constants in MHz :   511.241628   260.508262   190.003149

                             ****ORCA TERMINATED NORMALLY****
TOTAL RUN TIME: 0 days 0 hours 0 minutes 33 seconds 3 msec
