                         Program Version 4.2.1 -  RELEASE  -
|  1> ! wB97X-D3 SP def2-SVP
|  2> %pal
|  3> nprocs 16
|  4> end
|  5>
|  6> * xyz 0 1
|  7> S 	 -24.5499 	 -3.47075 	 86.9866
|  8> C 	 -25.6488 	 -2.34664 	 87.8441
|  9> C 	 -25.9665 	 -1.24522 	 87.0513
| 10> C 	 -25.1674 	 -1.20997 	 85.8767
| 11> C 	 -24.4035 	 -2.32722 	 85.6995
| 12> H 	 -25.2724 	 -0.477749 	 85.0025
| 13> C 	 -26.8466 	 -0.0756328 	 87.5099
| 14> H 	 -26.8194 	 0.635523 	 86.672
| 15> H 	 -26.4223 	 0.369343 	 88.3938
| 16> C 	 -28.3295 	 -0.345225 	 87.7661
| 17> H 	 -28.6117 	 -0.830408 	 88.7402
| 18> H 	 -28.7736 	 0.602105 	 87.8553
| 19> C 	 -29.0309 	 -1.15628 	 86.72
| 20> H 	 -28.7098 	 -2.12912 	 86.5431
| 21> H 	 -30.0911 	 -1.36908 	 86.9308
| 22> H 	 -29.0053 	 -0.579793 	 85.7201
| 23> S 	 -21.7858 	 -2.72116 	 84.8776
| 24> C 	 -21.3535 	 -2.69545 	 83.2698
| 25> C 	 -22.472 	 -2.4174 	 82.4814
| 26> C 	 -23.696 	 -2.2446 	 83.1437
| 27> C 	 -23.5159 	 -2.47182 	 84.5694
| 28> H 	 -22.2074 	 -2.34834 	 81.4152
| 29> C 	 -25.0483 	 -2.07717 	 82.4067
| 30> H 	 -25.835 	 -2.35291 	 83.1052
| 31> H 	 -25.1277 	 -2.85823 	 81.641
| 32> C 	 -25.4128 	 -0.781141 	 81.7201
| 33> H 	 -24.6504 	 -0.427959 	 81.0597
| 34> H 	 -25.4364 	 0.0166983 	 82.5006
| 35> C 	 -26.8075 	 -0.787289 	 81.1348
| 36> H 	 -27.6032 	 -1.02261 	 81.9271
| 37> H 	 -26.8618 	 -1.43489 	 80.262
| 38> H 	 -26.993 	 0.226155 	 80.8009
| 39> H 	 -25.9647 	 -2.55907 	 88.8335
| 40> H 	 -20.4448 	 -2.99138 	 82.8145
| 41> *
| 42>
| 43>                          ****END OF INPUT****

CARTESIAN COORDINATES (ANGSTROEM)
---------------------------------
  S    -24.549900   -3.470750   86.986600
  C    -25.648800   -2.346640   87.844100
  C    -25.966500   -1.245220   87.051300
  C    -25.167400   -1.209970   85.876700
  C    -24.403500   -2.327220   85.699500
  H    -25.272400   -0.477749   85.002500
  C    -26.846600   -0.075633   87.509900
  H    -26.819400    0.635523   86.672000
  H    -26.422300    0.369343   88.393800
  C    -28.329500   -0.345225   87.766100
  H    -28.611700   -0.830408   88.740200
  H    -28.773600    0.602105   87.855300
  C    -29.030900   -1.156280   86.720000
  H    -28.709800   -2.129120   86.543100
  H    -30.091100   -1.369080   86.930800
  H    -29.005300   -0.579793   85.720100
  S    -21.785800   -2.721160   84.877600
  C    -21.353500   -2.695450   83.269800
  C    -22.472000   -2.417400   82.481400
  C    -23.696000   -2.244600   83.143700
  C    -23.515900   -2.471820   84.569400
  H    -22.207400   -2.348340   81.415200
  C    -25.048300   -2.077170   82.406700
  H    -25.835000   -2.352910   83.105200
  H    -25.127700   -2.858230   81.641000
  C    -25.412800   -0.781141   81.720100
  H    -24.650400   -0.427959   81.059700
  H    -25.436400    0.016698   82.500600
  C    -26.807500   -0.787289   81.134800
  H    -27.603200   -1.022610   81.927100
  H    -26.861800   -1.434890   80.262000
  H    -26.993000    0.226155   80.800900
  H    -25.964700   -2.559070   88.833500
  H    -20.444800   -2.991380   82.814500

 Total Charge           Charge          ....    0
 Multiplicity           Mult            ....    1
 Number of Electrons    NEL             ....  134
 Basis Dimension        Dim             ....  322

ORBITAL ENERGIES
----------------

  NO   OCC          E(Eh)            E(eV)
   0   2.0000     -88.968473     -2420.9552
   1   2.0000     -88.965348     -2420.8702
   2   2.0000     -10.330428      -281.1052
   3   2.0000     -10.324331      -280.9393
   4   2.0000     -10.316291      -280.7205
   5   2.0000     -10.311287      -280.5844
   6   2.0000     -10.306945      -280.4662
   7   2.0000     -10.304119      -280.3893
   8   2.0000     -10.296064      -280.1701
   9   2.0000     -10.295183      -280.1462
  10   2.0000     -10.291569      -280.0478
  11   2.0000     -10.289619      -279.9948
  12   2.0000     -10.285053      -279.8705
  13   2.0000     -10.284708      -279.8611
  14   2.0000     -10.284075      -279.8439
  15   2.0000     -10.274686      -279.5884
  16   2.0000      -8.082956      -219.9484
  17   2.0000      -8.080944      -219.8937
  18   2.0000      -6.041362      -164.3938
  19   2.0000      -6.039182      -164.3345
  20   2.0000      -6.037553      -164.2902
  21   2.0000      -6.035051      -164.2221
  22   2.0000      -6.033796      -164.1879
  23   2.0000      -6.032205      -164.1446
  24   2.0000      -1.006974       -27.4012
  25   2.0000      -0.985160       -26.8076
  26   2.0000      -0.914474       -24.8841
  27   2.0000      -0.912318       -24.8254
  28   2.0000      -0.868682       -23.6380
  29   2.0000      -0.854936       -23.2640
  30   2.0000      -0.847068       -23.0499
  31   2.0000      -0.809209       -22.0197
  32   2.0000      -0.786606       -21.4046
  33   2.0000      -0.774490       -21.0750
  34   2.0000      -0.706095       -19.2138
  35   2.0000      -0.704119       -19.1601
  36   2.0000      -0.694838       -18.9075
  37   2.0000      -0.651640       -17.7320
  38   2.0000      -0.636335       -17.3156
  39   2.0000      -0.614548       -16.7227
  40   2.0000      -0.595355       -16.2004
  41   2.0000      -0.570924       -15.5356
  42   2.0000      -0.566566       -15.4171
  43   2.0000      -0.559312       -15.2196
  44   2.0000      -0.541511       -14.7353
  45   2.0000      -0.525483       -14.2991
  46   2.0000      -0.517506       -14.0821
  47   2.0000      -0.508077       -13.8255
  48   2.0000      -0.504135       -13.7182
  49   2.0000      -0.497689       -13.5428
  50   2.0000      -0.496459       -13.5093
  51   2.0000      -0.475811       -12.9475
  52   2.0000      -0.471891       -12.8408
  53   2.0000      -0.469285       -12.7699
  54   2.0000      -0.455555       -12.3963
  55   2.0000      -0.452198       -12.3049
  56   2.0000      -0.439555       -11.9609
  57   2.0000      -0.437723       -11.9110
  58   2.0000      -0.434495       -11.8232
  59   2.0000      -0.426397       -11.6029
  60   2.0000      -0.421529       -11.4704
  61   2.0000      -0.410830       -11.1793
  62   2.0000      -0.408752       -11.1227
  63   2.0000      -0.340348        -9.2613
  64   2.0000      -0.334763        -9.1094
  65   2.0000      -0.331051        -9.0084
  66   2.0000      -0.289865        -7.8876
  67   0.0000       0.025245         0.6870
  68   0.0000       0.071941         1.9576
  69   0.0000       0.109613         2.9827
  70   0.0000       0.118858         3.2343
  71   0.0000       0.128284         3.4908

MULLIKEN ATOMIC CHARGES
-----------------------
   0 S :    0.115119
   1 C :   -0.127697
   2 C :   -0.073714
   3 C :   -0.003805
   4 C :   -0.149504
   5 H :    0.042145
   6 C :    0.082669
   7 H :    0.017715
   8 H :    0.043987
   9 C :   -0.047796
  10 H :    0.025434
  11 H :    0.017823
  12 C :   -0.064030
  13 H :    0.027356
  14 H :    0.027911
  15 H :    0.026203
  16 S :    0.126173
  17 C :   -0.081881
  18 C :   -0.077361
  19 C :    0.024917
  20 C :   -0.181602
  21 H :    0.022245
  22 C :    0.046619
  23 H :    0.018523
  24 H :    0.024896
  25 C :   -0.067007
  26 H :    0.023907
  27 H :    0.014682
  28 C :   -0.052118
  29 H :    0.047245
  30 H :    0.036269
  31 H :    0.031046
  32 H :    0.038784
  33 H :    0.044849
Sum of atomic charges:   -0.0000000

LOEWDIN ATOMIC CHARGES
----------------------
   0 S :    0.402324
   1 C :   -0.175266
   2 C :   -0.060791
   3 C :   -0.069702
   4 C :   -0.210582
   5 H :    0.045532
   6 C :   -0.024410
   7 H :    0.031615
   8 H :    0.035874
   9 C :   -0.045721
  10 H :    0.026538
  11 H :    0.021151
  12 C :   -0.070425
  13 H :    0.016320
  14 H :    0.029312
  15 H :    0.029062
  16 S :    0.445935
  17 C :   -0.218710
  18 C :   -0.082628
  19 C :   -0.051653
  20 C :   -0.197607
  21 H :    0.033251
  22 C :   -0.035534
  23 H :    0.029358
  24 H :    0.031885
  25 C :   -0.045775
  26 H :    0.020506
  27 H :    0.022038
  28 C :   -0.063495
  29 H :    0.036831
  30 H :    0.023027
  31 H :    0.026953
  32 H :    0.018121
  33 H :    0.026664

  Mayer bond orders larger than 0.100000
B(  0-S ,  1-C ) :   1.1344 B(  0-S ,  4-C ) :   1.1556 B(  1-C ,  2-C ) :   1.5815
B(  1-C , 32-H ) :   0.9815 B(  2-C ,  3-C ) :   1.2530 B(  2-C ,  6-C ) :   1.0149
B(  3-C ,  4-C ) :   1.5777 B(  3-C ,  5-H ) :   0.9734 B(  4-C , 20-C ) :   1.0476
B(  6-C ,  7-H ) :   0.9398 B(  6-C ,  8-H ) :   0.9420 B(  6-C ,  9-C ) :   1.0747
B(  9-C , 10-H ) :   0.9511 B(  9-C , 11-H ) :   0.9528 B(  9-C , 12-C ) :   1.0887
B( 12-C , 13-H ) :   0.9698 B( 12-C , 14-H ) :   0.9708 B( 12-C , 15-H ) :   0.9741
B( 16-S , 17-C ) :   1.1927 B( 16-S , 20-C ) :   1.1783 B( 17-C , 18-C ) :   1.5587
B( 17-C , 20-C ) :   0.1170 B( 17-C , 33-H ) :   0.9696 B( 18-C , 19-C ) :   1.2933
B( 18-C , 21-H ) :   0.9890 B( 19-C , 20-C ) :   1.4982 B( 19-C , 22-C ) :   1.0323
B( 22-C , 23-H ) :   0.9354 B( 22-C , 24-H ) :   0.9405 B( 22-C , 25-C ) :   1.0656
B( 25-C , 26-H ) :   0.9507 B( 25-C , 27-H ) :   0.9478 B( 25-C , 28-C ) :   1.0895
B( 28-C , 29-H ) :   0.9714 B( 28-C , 30-H ) :   0.9745 B( 28-C , 31-H ) :   0.9723

Dispersion correction           -0.014206572
FINAL SINGLE POINT ENERGY     -1339.872249834316

DIPOLE MOMENT
-------------
                                X             Y             Z
Electronic contribution:     26.19171     -14.05535      10.07892
Nuclear contribution   :    -26.62802      14.42364     -10.32017
                        -----------------------------------------
Total Dipole Moment    :     -0.43631       0.36829      -0.24124
                        -----------------------------------------
Magnitude (a.u.)       :      0.61984
Magnitude (Debye)      :      1.57551

Rotational constants in cm-1:     0.016932     0.009563     0.006617
Rotational constants in MHz :   507.597903   286.679821   198.368900

                             ****ORCA TERMINATED NORMALLY****
TOTAL RUN TIME: 0 days 0 hours 0 minutes 33 seconds 809 msec
