                         Program Version 4.2.1 -  RELEASE  -
|  1> ! wB97X-D3 SP def2-SVP
|  2> %pal
|  3> nprocs 16
|  4> end
|  5>
|  6> * xyz 0 1
|  7> S 	 -0.677328 	 -25.7085 	 59.7211
|  8> C 	 0.198724 	 -27.2022 	 59.9706
|  9> C 	 1.53037 	 -27.1031 	 59.4779
| 10> C 	 1.74801 	 -25.8417 	 58.8806
| 11> C 	 0.645757 	 -24.9558 	 58.9578
| 12> H 	 2.66866 	 -25.6785 	 58.4716
| 13> C 	 2.69343 	 -28.058 	 59.809
| 14> H 	 2.87202 	 -28.76 	 59.0254
| 15> H 	 2.26875 	 -28.7675 	 60.5498
| 16> C 	 3.99071 	 -27.4373 	 60.4246
| 17> H 	 4.71223 	 -28.2966 	 60.6649
| 18> H 	 4.46289 	 -26.7667 	 59.7745
| 19> C 	 3.79565 	 -26.6574 	 61.7579
| 20> H 	 3.35722 	 -25.6356 	 61.5993
| 21> H 	 3.05999 	 -27.1834 	 62.3503
| 22> H 	 4.81315 	 -26.5188 	 62.218
| 23> S 	 -0.881574 	 -23.2388 	 57.3762
| 24> C 	 -0.195292 	 -21.6926 	 56.8807
| 25> C 	 1.06489 	 -21.4648 	 57.4626
| 26> C 	 1.39513 	 -22.5342 	 58.3238
| 27> C 	 0.488363 	 -23.6135 	 58.3642
| 28> H 	 1.61177 	 -20.5831 	 57.1033
| 29> C 	 2.74644 	 -22.4903 	 59.0506
| 30> H 	 2.81569 	 -23.4036 	 59.6733
| 31> H 	 2.63727 	 -21.6947 	 59.7539
| 32> C 	 3.98784 	 -22.3211 	 58.2156
| 33> H 	 4.72521 	 -22.026 	 58.8994
| 34> H 	 3.86467 	 -21.6884 	 57.3534
| 35> C 	 4.48291 	 -23.5873 	 57.5623
| 36> H 	 5.49855 	 -23.3151 	 57.2236
| 37> H 	 3.85014 	 -23.9478 	 56.7723
| 38> H 	 4.65035 	 -24.455 	 58.1832
| 39> H 	 -0.179508 	 -28.0029 	 60.5219
| 40> H 	 -0.53694 	 -21.0517 	 56.0807
| 41> *
| 42>
| 43>                          ****END OF INPUT****

CARTESIAN COORDINATES (ANGSTROEM)
---------------------------------
  S     -0.677328  -25.708500   59.721100
  C      0.198724  -27.202200   59.970600
  C      1.530370  -27.103100   59.477900
  C      1.748010  -25.841700   58.880600
  C      0.645757  -24.955800   58.957800
  H      2.668660  -25.678500   58.471600
  C      2.693430  -28.058000   59.809000
  H      2.872020  -28.760000   59.025400
  H      2.268750  -28.767500   60.549800
  C      3.990710  -27.437300   60.424600
  H      4.712230  -28.296600   60.664900
  H      4.462890  -26.766700   59.774500
  C      3.795650  -26.657400   61.757900
  H      3.357220  -25.635600   61.599300
  H      3.059990  -27.183400   62.350300
  H      4.813150  -26.518800   62.218000
  S     -0.881574  -23.238800   57.376200
  C     -0.195292  -21.692600   56.880700
  C      1.064890  -21.464800   57.462600
  C      1.395130  -22.534200   58.323800
  C      0.488363  -23.613500   58.364200
  H      1.611770  -20.583100   57.103300
  C      2.746440  -22.490300   59.050600
  H      2.815690  -23.403600   59.673300
  H      2.637270  -21.694700   59.753900
  C      3.987840  -22.321100   58.215600
  H      4.725210  -22.026000   58.899400
  H      3.864670  -21.688400   57.353400
  C      4.482910  -23.587300   57.562300
  H      5.498550  -23.315100   57.223600
  H      3.850140  -23.947800   56.772300
  H      4.650350  -24.455000   58.183200
  H     -0.179508  -28.002900   60.521900
  H     -0.536940  -21.051700   56.080700

 Total Charge           Charge          ....    0
 Multiplicity           Mult            ....    1
 Number of Electrons    NEL             ....  134
 Basis Dimension        Dim             ....  322

ORBITAL ENERGIES
----------------

  NO   OCC          E(Eh)            E(eV)
   0   2.0000     -88.971121     -2421.0273
   1   2.0000     -88.969317     -2420.9782
   2   2.0000     -10.334116      -281.2056
   3   2.0000     -10.328649      -281.0568
   4   2.0000     -10.319590      -280.8103
   5   2.0000     -10.313723      -280.6507
   6   2.0000     -10.304623      -280.4031
   7   2.0000     -10.303458      -280.3714
   8   2.0000     -10.297961      -280.2218
   9   2.0000     -10.297173      -280.2003
  10   2.0000     -10.295552      -280.1562
  11   2.0000     -10.288606      -279.9672
  12   2.0000     -10.283814      -279.8368
  13   2.0000     -10.283414      -279.8259
  14   2.0000     -10.279093      -279.7083
  15   2.0000     -10.273117      -279.5457
  16   2.0000      -8.086316      -220.0398
  17   2.0000      -8.083747      -219.9699
  18   2.0000      -6.044663      -164.4837
  19   2.0000      -6.042198      -164.4166
  20   2.0000      -6.040548      -164.3717
  21   2.0000      -6.038186      -164.3074
  22   2.0000      -6.037451      -164.2874
  23   2.0000      -6.034693      -164.2123
  24   2.0000      -1.007036       -27.4028
  25   2.0000      -0.983825       -26.7712
  26   2.0000      -0.915469       -24.9112
  27   2.0000      -0.906808       -24.6755
  28   2.0000      -0.865410       -23.5490
  29   2.0000      -0.851839       -23.1797
  30   2.0000      -0.846839       -23.0437
  31   2.0000      -0.813831       -22.1455
  32   2.0000      -0.784881       -21.3577
  33   2.0000      -0.772911       -21.0320
  34   2.0000      -0.709908       -19.3176
  35   2.0000      -0.696576       -18.9548
  36   2.0000      -0.693681       -18.8760
  37   2.0000      -0.654936       -17.8217
  38   2.0000      -0.641068       -17.4443
  39   2.0000      -0.633145       -17.2288
  40   2.0000      -0.599912       -16.3244
  41   2.0000      -0.571636       -15.5550
  42   2.0000      -0.556512       -15.1435
  43   2.0000      -0.552890       -15.0449
  44   2.0000      -0.543687       -14.7945
  45   2.0000      -0.537086       -14.6148
  46   2.0000      -0.525545       -14.3008
  47   2.0000      -0.508805       -13.8453
  48   2.0000      -0.503929       -13.7126
  49   2.0000      -0.498511       -13.5652
  50   2.0000      -0.492220       -13.3940
  51   2.0000      -0.479138       -13.0380
  52   2.0000      -0.468021       -12.7355
  53   2.0000      -0.460030       -12.5181
  54   2.0000      -0.457377       -12.4459
  55   2.0000      -0.449704       -12.2371
  56   2.0000      -0.445061       -12.1107
  57   2.0000      -0.440815       -11.9952
  58   2.0000      -0.430863       -11.7244
  59   2.0000      -0.423487       -11.5237
  60   2.0000      -0.420100       -11.4315
  61   2.0000      -0.418144       -11.3783
  62   2.0000      -0.413230       -11.2446
  63   2.0000      -0.346982        -9.4419
  64   2.0000      -0.334004        -9.0887
  65   2.0000      -0.331031        -9.0078
  66   2.0000      -0.286082        -7.7847
  67   0.0000       0.027887         0.7588
  68   0.0000       0.066740         1.8161
  69   0.0000       0.110538         3.0079
  70   0.0000       0.117442         3.1958
  71   0.0000       0.125420         3.4129

MULLIKEN ATOMIC CHARGES
-----------------------
   0 S :    0.124708
   1 C :   -0.109198
   2 C :   -0.106195
   3 C :    0.090585
   4 C :   -0.149977
   5 H :   -0.070658
   6 C :    0.076277
   7 H :    0.032691
   8 H :    0.012099
   9 C :   -0.090749
  10 H :    0.045313
  11 H :    0.025771
  12 C :   -0.078593
  13 H :    0.047969
  14 H :    0.031817
  15 H :    0.049466
  16 S :    0.115851
  17 C :   -0.102846
  18 C :   -0.058904
  19 C :   -0.058881
  20 C :   -0.118915
  21 H :    0.037904
  22 C :    0.080125
  23 H :    0.015187
  24 H :    0.023846
  25 C :   -0.026012
  26 H :    0.019733
  27 H :    0.030049
  28 C :   -0.062841
  29 H :    0.028329
  30 H :    0.042976
  31 H :    0.018114
  32 H :    0.027941
  33 H :    0.057017
Sum of atomic charges:    0.0000000

LOEWDIN ATOMIC CHARGES
----------------------
   0 S :    0.442565
   1 C :   -0.197530
   2 C :   -0.057160
   3 C :   -0.055205
   4 C :   -0.204903
   5 H :    0.009994
   6 C :   -0.036214
   7 H :    0.029765
   8 H :    0.033060
   9 C :   -0.039711
  10 H :    0.037013
  11 H :    0.010869
  12 C :   -0.070215
  13 H :    0.029441
  14 H :    0.022079
  15 H :    0.034225
  16 S :    0.416484
  17 C :   -0.184077
  18 C :   -0.074721
  19 C :   -0.056426
  20 C :   -0.218667
  21 H :    0.040176
  22 C :   -0.033072
  23 H :    0.030198
  24 H :    0.028385
  25 C :   -0.033928
  26 H :    0.022769
  27 H :    0.026701
  28 C :   -0.063733
  29 H :    0.031118
  30 H :    0.023904
  31 H :    0.014484
  32 H :    0.013041
  33 H :    0.029294

  Mayer bond orders larger than 0.100000
B(  0-S ,  1-C ) :   1.1655 B(  0-S ,  4-C ) :   1.1931 B(  1-C ,  2-C ) :   1.5483
B(  1-C ,  4-C ) :   0.1111 B(  1-C , 32-H ) :   0.9746 B(  2-C ,  3-C ) :   1.3219
B(  2-C ,  6-C ) :   1.0126 B(  3-C ,  4-C ) :   1.4840 B(  3-C ,  5-H ) :   1.0081
B(  4-C , 20-C ) :   1.0268 B(  6-C ,  7-H ) :   0.9345 B(  6-C ,  8-H ) :   0.9402
B(  6-C ,  9-C ) :   1.0693 B(  9-C , 10-H ) :   0.9557 B(  9-C , 11-H ) :   0.9573
B(  9-C , 12-C ) :   1.0690 B( 12-C , 13-H ) :   0.9722 B( 12-C , 14-H ) :   0.9780
B( 12-C , 15-H ) :   0.9745 B( 16-S , 17-C ) :   1.1722 B( 16-S , 20-C ) :   1.1451
B( 17-C , 18-C ) :   1.5906 B( 17-C , 20-C ) :   0.1027 B( 17-C , 33-H ) :   0.9651
B( 18-C , 19-C ) :   1.2592 B( 18-C , 21-H ) :   0.9895 B( 19-C , 20-C ) :   1.5652
B( 19-C , 22-C ) :   1.0336 B( 22-C , 23-H ) :   0.9337 B( 22-C , 24-H ) :   0.9303
B( 22-C , 25-C ) :   1.0772 B( 25-C , 26-H ) :   0.9487 B( 25-C , 27-H ) :   0.9561
B( 25-C , 28-C ) :   1.0855 B( 28-C , 29-H ) :   0.9682 B( 28-C , 30-H ) :   0.9739
B( 28-C , 31-H ) :   0.9672

Dispersion correction           -0.015894734
FINAL SINGLE POINT ENERGY     -1339.867704676796

DIPOLE MOMENT
-------------
                                X             Y             Z
Electronic contribution:    -29.35158       4.43977      -6.33004
Nuclear contribution   :     30.08710      -4.43107       6.33890
                        -----------------------------------------
Total Dipole Moment    :      0.73552       0.00870       0.00887
                        -----------------------------------------
Magnitude (a.u.)       :      0.73562
Magnitude (Debye)      :      1.86981

Rotational constants in cm-1:     0.018585     0.010551     0.007374
Rotational constants in MHz :   557.161068   316.308270   221.066681

                             ****ORCA TERMINATED NORMALLY****
TOTAL RUN TIME: 0 days 0 hours 0 minutes 37 seconds 751 msec
