                         Program Version 4.2.1 -  RELEASE  -
|  1> ! wB97X-D3 SP def2-SVP
|  2> %pal
|  3> nprocs 16
|  4> end
|  5>
|  6> * xyz 0 1
|  7> S 	 -91.9302 	 56.1617 	 130.4
|  8> C 	 -90.9855 	 54.7278 	 130.785
|  9> C 	 -89.9577 	 54.5058 	 129.85
| 10> C 	 -89.9609 	 55.4313 	 128.8
| 11> C 	 -90.9479 	 56.3416 	 128.901
| 12> H 	 -89.333 	 55.4296 	 127.902
| 13> C 	 -88.9624 	 53.4139 	 130.011
| 14> H 	 -88.1157 	 53.8349 	 130.541
| 15> H 	 -88.4534 	 53.2681 	 129.051
| 16> C 	 -89.4335 	 52.0188 	 130.536
| 17> H 	 -89.9286 	 52.0933 	 131.539
| 18> H 	 -90.0899 	 51.697 	 129.693
| 19> C 	 -88.2818 	 50.9546 	 130.539
| 20> H 	 -88.5843 	 49.9869 	 130.556
| 21> H 	 -87.7695 	 51.033 	 129.552
| 22> H 	 -87.541 	 51.0444 	 131.333
| 23> S 	 -91.6563 	 58.8953 	 128.343
| 24> C 	 -92.5971 	 59.2213 	 126.965
| 25> C 	 -92.8505 	 58.0755 	 126.234
| 26> C 	 -92.1853 	 56.8986 	 126.762
| 27> C 	 -91.5202 	 57.1921 	 127.93
| 28> H 	 -93.4663 	 58.1531 	 125.312
| 29> C 	 -92.4092 	 55.5472 	 126.084
| 30> H 	 -93.1328 	 55.5925 	 125.29
| 31> H 	 -92.7333 	 54.8512 	 126.897
| 32> C 	 -91.1781 	 54.8969 	 125.493
| 33> H 	 -91.5315 	 53.9888 	 124.966
| 34> H 	 -90.5477 	 54.5499 	 126.302
| 35> C 	 -90.3069 	 55.7402 	 124.642
| 36> H 	 -89.3862 	 55.2473 	 124.488
| 37> H 	 -89.9915 	 56.6519 	 125.102
| 38> H 	 -90.752 	 55.9373 	 123.774
| 39> H 	 -91.111 	 54.1971 	 131.666
| 40> H 	 -93.0942 	 60.2036 	 126.775
| 41> *
| 42>
| 43>                          ****END OF INPUT****

CARTESIAN COORDINATES (ANGSTROEM)
---------------------------------
  S    -91.930200   56.161700  130.400000
  C    -90.985500   54.727800  130.785000
  C    -89.957700   54.505800  129.850000
  C    -89.960900   55.431300  128.800000
  C    -90.947900   56.341600  128.901000
  H    -89.333000   55.429600  127.902000
  C    -88.962400   53.413900  130.011000
  H    -88.115700   53.834900  130.541000
  H    -88.453400   53.268100  129.051000
  C    -89.433500   52.018800  130.536000
  H    -89.928600   52.093300  131.539000
  H    -90.089900   51.697000  129.693000
  C    -88.281800   50.954600  130.539000
  H    -88.584300   49.986900  130.556000
  H    -87.769500   51.033000  129.552000
  H    -87.541000   51.044400  131.333000
  S    -91.656300   58.895300  128.343000
  C    -92.597100   59.221300  126.965000
  C    -92.850500   58.075500  126.234000
  C    -92.185300   56.898600  126.762000
  C    -91.520200   57.192100  127.930000
  H    -93.466300   58.153100  125.312000
  C    -92.409200   55.547200  126.084000
  H    -93.132800   55.592500  125.290000
  H    -92.733300   54.851200  126.897000
  C    -91.178100   54.896900  125.493000
  H    -91.531500   53.988800  124.966000
  H    -90.547700   54.549900  126.302000
  C    -90.306900   55.740200  124.642000
  H    -89.386200   55.247300  124.488000
  H    -89.991500   56.651900  125.102000
  H    -90.752000   55.937300  123.774000
  H    -91.111000   54.197100  131.666000
  H    -93.094200   60.203600  126.775000

 Total Charge           Charge          ....    0
 Multiplicity           Mult            ....    1
 Number of Electrons    NEL             ....  134
 Basis Dimension        Dim             ....  322

ORBITAL ENERGIES
----------------

  NO   OCC          E(Eh)            E(eV)
   0   2.0000     -88.963659     -2420.8242
   1   2.0000     -88.961903     -2420.7764
   2   2.0000     -10.323027      -280.9038
   3   2.0000     -10.318405      -280.7781
   4   2.0000     -10.314955      -280.6842
   5   2.0000     -10.310186      -280.5544
   6   2.0000     -10.304147      -280.3901
   7   2.0000     -10.301982      -280.3312
   8   2.0000     -10.300329      -280.2862
   9   2.0000     -10.294365      -280.1239
  10   2.0000     -10.293569      -280.1023
  11   2.0000     -10.290909      -280.0299
  12   2.0000     -10.289962      -280.0041
  13   2.0000     -10.277704      -279.6705
  14   2.0000     -10.276824      -279.6466
  15   2.0000     -10.253732      -279.0182
  16   2.0000      -8.077727      -219.8061
  17   2.0000      -8.077703      -219.8055
  18   2.0000      -6.036153      -164.2521
  19   2.0000      -6.036103      -164.2507
  20   2.0000      -6.032422      -164.1505
  21   2.0000      -6.032029      -164.1398
  22   2.0000      -6.028571      -164.0458
  23   2.0000      -6.028487      -164.0435
  24   2.0000      -1.009773       -27.4773
  25   2.0000      -0.983288       -26.7566
  26   2.0000      -0.916339       -24.9348
  27   2.0000      -0.909077       -24.7372
  28   2.0000      -0.869316       -23.6553
  29   2.0000      -0.854629       -23.2556
  30   2.0000      -0.850363       -23.1395
  31   2.0000      -0.816349       -22.2140
  32   2.0000      -0.791851       -21.5474
  33   2.0000      -0.770465       -20.9654
  34   2.0000      -0.713313       -19.4102
  35   2.0000      -0.704809       -19.1788
  36   2.0000      -0.685630       -18.6570
  37   2.0000      -0.660530       -17.9739
  38   2.0000      -0.647060       -17.6074
  39   2.0000      -0.613801       -16.7024
  40   2.0000      -0.592224       -16.1152
  41   2.0000      -0.572010       -15.5652
  42   2.0000      -0.565205       -15.3800
  43   2.0000      -0.557910       -15.1815
  44   2.0000      -0.546068       -14.8593
  45   2.0000      -0.525350       -14.2955
  46   2.0000      -0.520420       -14.1614
  47   2.0000      -0.517326       -14.0772
  48   2.0000      -0.503972       -13.7138
  49   2.0000      -0.501119       -13.6361
  50   2.0000      -0.487855       -13.2752
  51   2.0000      -0.484350       -13.1798
  52   2.0000      -0.481061       -13.0903
  53   2.0000      -0.458947       -12.4886
  54   2.0000      -0.457639       -12.4530
  55   2.0000      -0.448607       -12.2072
  56   2.0000      -0.441857       -12.0235
  57   2.0000      -0.434259       -11.8168
  58   2.0000      -0.429778       -11.6948
  59   2.0000      -0.427774       -11.6403
  60   2.0000      -0.421968       -11.4823
  61   2.0000      -0.416498       -11.3335
  62   2.0000      -0.415451       -11.3050
  63   2.0000      -0.340785        -9.2732
  64   2.0000      -0.331724        -9.0267
  65   2.0000      -0.326701        -8.8900
  66   2.0000      -0.293321        -7.9817
  67   0.0000       0.035116         0.9556
  68   0.0000       0.059294         1.6135
  69   0.0000       0.113703         3.0940
  70   0.0000       0.122893         3.3441
  71   0.0000       0.133262         3.6263

MULLIKEN ATOMIC CHARGES
-----------------------
   0 S :    0.107869
   1 C :   -0.095711
   2 C :   -0.085027
   3 C :    0.032275
   4 C :   -0.140781
   5 H :    0.025733
   6 C :    0.063244
   7 H :    0.033499
   8 H :    0.000680
   9 C :   -0.103625
  10 H :    0.052898
  11 H :    0.047497
  12 C :   -0.018350
  13 H :    0.011612
  14 H :    0.021394
  15 H :    0.034520
  16 S :    0.111148
  17 C :   -0.103006
  18 C :   -0.068465
  19 C :   -0.024512
  20 C :   -0.207398
  21 H :    0.031712
  22 C :    0.115240
  23 H :    0.013528
  24 H :    0.045792
  25 C :   -0.105355
  26 H :    0.026599
  27 H :    0.007701
  28 C :    0.046375
  29 H :    0.009934
  30 H :    0.023973
  31 H :   -0.004097
  32 H :    0.019053
  33 H :    0.074051
Sum of atomic charges:   -0.0000000

LOEWDIN ATOMIC CHARGES
----------------------
   0 S :    0.384088
   1 C :   -0.180159
   2 C :   -0.062900
   3 C :   -0.058853
   4 C :   -0.175198
   5 H :    0.039667
   6 C :   -0.043603
   7 H :    0.032681
   8 H :    0.027469
   9 C :   -0.037157
  10 H :    0.028035
  11 H :    0.036107
  12 C :   -0.061283
  13 H :    0.011399
  14 H :    0.030455
  15 H :    0.025091
  16 S :    0.419809
  17 C :   -0.208636
  18 C :   -0.082289
  19 C :   -0.046279
  20 C :   -0.214255
  21 H :    0.036108
  22 C :   -0.026597
  23 H :    0.025717
  24 H :    0.044883
  25 C :   -0.042933
  26 H :    0.027302
  27 H :    0.015999
  28 C :   -0.050527
  29 H :    0.024605
  30 H :    0.026278
  31 H :    0.006139
  32 H :    0.009135
  33 H :    0.039702

  Mayer bond orders larger than 0.100000
B(  0-S ,  1-C ) :   1.1360 B(  0-S ,  4-C ) :   1.1358 B(  1-C ,  2-C ) :   1.6004
B(  1-C ,  4-C ) :   0.1046 B(  1-C , 32-H ) :   0.9805 B(  2-C ,  3-C ) :   1.2270
B(  2-C ,  6-C ) :   1.0257 B(  3-C ,  4-C ) :   1.6146 B(  3-C ,  5-H ) :   0.9892
B(  4-C , 20-C ) :   1.0328 B(  6-C ,  7-H ) :   0.9239 B(  6-C ,  8-H ) :   0.9351
B(  6-C ,  9-C ) :   1.0509 B(  9-C , 10-H ) :   0.9550 B(  9-C , 11-H ) :   0.9600
B(  9-C , 12-C ) :   1.0798 B( 12-C , 13-H ) :   0.9755 B( 12-C , 14-H ) :   0.9714
B( 12-C , 15-H ) :   0.9770 B( 16-S , 17-C ) :   1.1647 B( 16-S , 20-C ) :   1.1399
B( 17-C , 18-C ) :   1.6137 B( 17-C , 33-H ) :   0.9598 B( 18-C , 19-C ) :   1.2292
B( 18-C , 21-H ) :   0.9853 B( 19-C , 20-C ) :   1.5913 B( 19-C , 22-C ) :   1.0409
B( 22-C , 23-H ) :   0.9380 B( 22-C , 24-H ) :   0.9250 B( 22-C , 25-C ) :   1.0801
B( 25-C , 26-H ) :   0.9510 B( 25-C , 27-H ) :   0.9507 B( 25-C , 28-C ) :   1.0968
B( 28-C , 29-H ) :   0.9656 B( 28-C , 30-H ) :   0.9605 B( 28-C , 31-H ) :   0.9714

Dispersion correction           -0.015088873
FINAL SINGLE POINT ENERGY     -1339.865650157934

DIPOLE MOMENT
-------------
                                X             Y             Z
Electronic contribution:    -12.17721      25.13063       9.72225
Nuclear contribution   :     12.33488     -25.70454     -10.06454
                        -----------------------------------------
Total Dipole Moment    :      0.15768      -0.57391      -0.34229
                        -----------------------------------------
Magnitude (a.u.)       :      0.68659
Magnitude (Debye)      :      1.74517

Rotational constants in cm-1:     0.022288     0.008349     0.006640
Rotational constants in MHz :   668.169567   250.302775   199.069048

                             ****ORCA TERMINATED NORMALLY****
TOTAL RUN TIME: 0 days 0 hours 0 minutes 36 seconds 207 msec
