                         Program Version 4.2.1 -  RELEASE  -
|  1> ! wB97X-D3 SP def2-SVP
|  2> %pal
|  3> nprocs 16
|  4> end
|  5>
|  6> * xyz 0 1
|  7> S 	 4.93287 	 29.7222 	 68.3343
|  8> C 	 3.9874 	 28.6324 	 67.3318
|  9> C 	 4.86655 	 27.7562 	 66.6095
| 10> C 	 6.24452 	 28.1382 	 66.6903
| 11> C 	 6.42842 	 29.1832 	 67.6018
| 12> H 	 7.09715 	 27.693 	 66.1721
| 13> C 	 4.3779 	 26.8133 	 65.5705
| 14> H 	 3.91323 	 27.4812 	 64.7339
| 15> H 	 3.41899 	 26.3889 	 65.8654
| 16> C 	 5.36453 	 25.8433 	 64.8864
| 17> H 	 6.32459 	 26.2737 	 64.5769
| 18> H 	 5.53778 	 25.1099 	 65.6881
| 19> C 	 4.76295 	 25.1012 	 63.7224
| 20> H 	 5.38134 	 24.2721 	 63.4162
| 21> H 	 3.90802 	 24.5361 	 64.1302
| 22> H 	 4.4597 	 25.8191 	 62.8893
| 23> S 	 7.39064 	 31.78 	 67.6204
| 24> C 	 9.11592 	 32.0453 	 67.5179
| 25> C 	 9.77711 	 30.8602 	 67.6222
| 26> C 	 8.95024 	 29.6967 	 67.7366
| 27> C 	 7.60803 	 30.0464 	 67.6341
| 28> H 	 10.8662 	 30.8489 	 67.4954
| 29> C 	 9.47202 	 28.2875 	 67.763
| 30> H 	 8.72295 	 27.5906 	 68.0779
| 31> H 	 10.1477 	 28.2279 	 68.5665
| 32> C 	 10.165 	 27.8067 	 66.5122
| 33> H 	 11.0592 	 28.4077 	 66.345
| 34> H 	 9.47723 	 27.8312 	 65.6293
| 35> C 	 10.6517 	 26.3463 	 66.5558
| 36> H 	 9.87686 	 25.7804 	 66.8785
| 37> H 	 11.4001 	 26.2787 	 67.3191
| 38> H 	 11.0549 	 25.9268 	 65.6281
| 39> H 	 2.89221 	 28.6071 	 67.2769
| 40> H 	 9.61379 	 32.9454 	 67.2626
| 41> *
| 42>
| 43>                          ****END OF INPUT****

CARTESIAN COORDINATES (ANGSTROEM)
---------------------------------
  S      4.932870   29.722200   68.334300
  C      3.987400   28.632400   67.331800
  C      4.866550   27.756200   66.609500
  C      6.244520   28.138200   66.690300
  C      6.428420   29.183200   67.601800
  H      7.097150   27.693000   66.172100
  C      4.377900   26.813300   65.570500
  H      3.913230   27.481200   64.733900
  H      3.418990   26.388900   65.865400
  C      5.364530   25.843300   64.886400
  H      6.324590   26.273700   64.576900
  H      5.537780   25.109900   65.688100
  C      4.762950   25.101200   63.722400
  H      5.381340   24.272100   63.416200
  H      3.908020   24.536100   64.130200
  H      4.459700   25.819100   62.889300
  S      7.390640   31.780000   67.620400
  C      9.115920   32.045300   67.517900
  C      9.777110   30.860200   67.622200
  C      8.950240   29.696700   67.736600
  C      7.608030   30.046400   67.634100
  H     10.866200   30.848900   67.495400
  C      9.472020   28.287500   67.763000
  H      8.722950   27.590600   68.077900
  H     10.147700   28.227900   68.566500
  C     10.165000   27.806700   66.512200
  H     11.059200   28.407700   66.345000
  H      9.477230   27.831200   65.629300
  C     10.651700   26.346300   66.555800
  H      9.876860   25.780400   66.878500
  H     11.400100   26.278700   67.319100
  H     11.054900   25.926800   65.628100
  H      2.892210   28.607100   67.276900
  H      9.613790   32.945400   67.262600

 Total Charge           Charge          ....    0
 Multiplicity           Mult            ....    1
 Number of Electrons    NEL             ....  134
 Basis Dimension        Dim             ....  322

ORBITAL ENERGIES
----------------

  NO   OCC          E(Eh)            E(eV)
   0   2.0000     -88.969623     -2420.9865
   1   2.0000     -88.963819     -2420.8286
   2   2.0000     -10.329818      -281.0886
   3   2.0000     -10.325730      -280.9774
   4   2.0000     -10.319317      -280.8029
   5   2.0000     -10.310767      -280.5702
   6   2.0000     -10.307722      -280.4874
   7   2.0000     -10.300310      -280.2857
   8   2.0000     -10.298279      -280.2304
   9   2.0000     -10.297212      -280.2014
  10   2.0000     -10.291699      -280.0514
  11   2.0000     -10.291558      -280.0475
  12   2.0000     -10.288874      -279.9745
  13   2.0000     -10.284517      -279.8559
  14   2.0000     -10.284111      -279.8449
  15   2.0000     -10.269528      -279.4481
  16   2.0000      -8.083839      -219.9724
  17   2.0000      -8.078617      -219.8303
  18   2.0000      -6.042314      -164.4197
  19   2.0000      -6.038305      -164.3106
  20   2.0000      -6.037182      -164.2801
  21   2.0000      -6.034786      -164.2149
  22   2.0000      -6.033144      -164.1702
  23   2.0000      -6.029260      -164.0645
  24   2.0000      -1.006043       -27.3758
  25   2.0000      -0.980966       -26.6934
  26   2.0000      -0.916371       -24.9357
  27   2.0000      -0.914081       -24.8734
  28   2.0000      -0.869579       -23.6625
  29   2.0000      -0.856134       -23.2966
  30   2.0000      -0.847829       -23.0706
  31   2.0000      -0.816506       -22.2183
  32   2.0000      -0.785078       -21.3630
  33   2.0000      -0.768100       -20.9011
  34   2.0000      -0.710752       -19.3405
  35   2.0000      -0.701503       -19.0889
  36   2.0000      -0.689830       -18.7712
  37   2.0000      -0.656037       -17.8517
  38   2.0000      -0.639255       -17.3950
  39   2.0000      -0.621180       -16.9032
  40   2.0000      -0.600889       -16.3510
  41   2.0000      -0.573334       -15.6012
  42   2.0000      -0.570549       -15.5254
  43   2.0000      -0.563720       -15.3396
  44   2.0000      -0.531972       -14.4757
  45   2.0000      -0.527710       -14.3597
  46   2.0000      -0.516024       -14.0417
  47   2.0000      -0.511793       -13.9266
  48   2.0000      -0.507251       -13.8030
  49   2.0000      -0.497628       -13.5412
  50   2.0000      -0.493393       -13.4259
  51   2.0000      -0.483591       -13.1592
  52   2.0000      -0.471243       -12.8232
  53   2.0000      -0.465374       -12.6635
  54   2.0000      -0.462720       -12.5913
  55   2.0000      -0.451726       -12.2921
  56   2.0000      -0.448026       -12.1914
  57   2.0000      -0.434712       -11.8291
  58   2.0000      -0.430803       -11.7228
  59   2.0000      -0.425484       -11.5780
  60   2.0000      -0.425364       -11.5747
  61   2.0000      -0.416026       -11.3207
  62   2.0000      -0.413885       -11.2624
  63   2.0000      -0.350863        -9.5475
  64   2.0000      -0.330691        -8.9986
  65   2.0000      -0.324677        -8.8349
  66   2.0000      -0.282530        -7.6880
  67   0.0000       0.022965         0.6249
  68   0.0000       0.073545         2.0013
  69   0.0000       0.107103         2.9144
  70   0.0000       0.116978         3.1831
  71   0.0000       0.125739         3.4215

MULLIKEN ATOMIC CHARGES
-----------------------
   0 S :    0.116842
   1 C :   -0.147347
   2 C :   -0.030493
   3 C :   -0.001681
   4 C :   -0.134292
   5 H :    0.020431
   6 C :   -0.014287
   7 H :    0.040439
   8 H :    0.017391
   9 C :   -0.076711
  10 H :    0.042298
  11 H :    0.033805
  12 C :   -0.047387
  13 H :    0.031748
  14 H :    0.023339
  15 H :    0.054094
  16 S :    0.108263
  17 C :   -0.080541
  18 C :   -0.039578
  19 C :   -0.032115
  20 C :   -0.149927
  21 H :    0.021989
  22 C :    0.098988
  23 H :    0.011447
  24 H :    0.005314
  25 C :   -0.097306
  26 H :    0.028530
  27 H :    0.034267
  28 C :    0.004455
  29 H :   -0.001176
  30 H :    0.013166
  31 H :    0.041487
  32 H :    0.059707
  33 H :    0.044843
Sum of atomic charges:   -0.0000000

LOEWDIN ATOMIC CHARGES
----------------------
   0 S :    0.410626
   1 C :   -0.208864
   2 C :   -0.058398
   3 C :   -0.060852
   4 C :   -0.190912
   5 H :    0.034162
   6 C :   -0.051256
   7 H :    0.043326
   8 H :    0.029724
   9 C :   -0.047075
  10 H :    0.024160
  11 H :    0.029172
  12 C :   -0.069168
  13 H :    0.026581
  14 H :    0.027844
  15 H :    0.034924
  16 S :    0.402974
  17 C :   -0.184664
  18 C :   -0.068877
  19 C :   -0.057137
  20 C :   -0.193266
  21 H :    0.032076
  22 C :   -0.033583
  23 H :    0.027374
  24 H :    0.027614
  25 C :   -0.036281
  26 H :    0.022682
  27 H :    0.023439
  28 C :   -0.054566
  29 H :    0.008344
  30 H :    0.020877
  31 H :    0.030825
  32 H :    0.031736
  33 H :    0.026438

  Mayer bond orders larger than 0.100000
B(  0-S ,  1-C ) :   1.1421 B(  0-S ,  4-C ) :   1.1644 B(  1-C ,  2-C ) :   1.5527
B(  1-C ,  4-C ) :   0.1001 B(  1-C , 32-H ) :   0.9731 B(  2-C ,  3-C ) :   1.2654
B(  2-C ,  6-C ) :   1.0398 B(  3-C ,  4-C ) :   1.5353 B(  3-C ,  5-H ) :   0.9823
B(  4-C , 20-C ) :   1.0487 B(  6-C ,  7-H ) :   0.9338 B(  6-C ,  8-H ) :   0.9356
B(  6-C ,  9-C ) :   1.0553 B(  9-C , 10-H ) :   0.9473 B(  9-C , 11-H ) :   0.9535
B(  9-C , 12-C ) :   1.0987 B( 12-C , 13-H ) :   0.9693 B( 12-C , 14-H ) :   0.9701
B( 12-C , 15-H ) :   0.9727 B( 16-S , 17-C ) :   1.1376 B( 16-S , 20-C ) :   1.1409
B( 17-C , 18-C ) :   1.6318 B( 17-C , 33-H ) :   0.9708 B( 18-C , 19-C ) :   1.2304
B( 18-C , 21-H ) :   0.9848 B( 19-C , 20-C ) :   1.5895 B( 19-C , 22-C ) :   1.0620
B( 22-C , 23-H ) :   0.9220 B( 22-C , 24-H ) :   0.9144 B( 22-C , 25-C ) :   1.0689
B( 25-C , 26-H ) :   0.9532 B( 25-C , 27-H ) :   0.9543 B( 25-C , 28-C ) :   1.0819
B( 28-C , 29-H ) :   0.9716 B( 28-C , 30-H ) :   0.9723 B( 28-C , 31-H ) :   0.9749

Dispersion correction           -0.014014971
FINAL SINGLE POINT ENERGY     -1339.869728246596

DIPOLE MOMENT
-------------
                                X             Y             Z
Electronic contribution:     -8.33256      27.30704      16.06771
Nuclear contribution   :      8.58185     -27.86235     -16.55132
                        -----------------------------------------
Total Dipole Moment    :      0.24929      -0.55531      -0.48361
                        -----------------------------------------
Magnitude (a.u.)       :      0.77743
Magnitude (Debye)      :      1.97606

Rotational constants in cm-1:     0.016032     0.009817     0.006664
Rotational constants in MHz :   480.615126   294.302455   199.773332

                             ****ORCA TERMINATED NORMALLY****
TOTAL RUN TIME: 0 days 0 hours 0 minutes 34 seconds 307 msec
