                         Program Version 4.2.1 -  RELEASE  -
|  1> ! wB97X-D3 SP def2-SVP
|  2> %pal
|  3> nprocs 16
|  4> end
|  5>
|  6> * xyz 0 1
|  7> S 	 -87.5817 	 49.6983 	 132.745
|  8> C 	 -89.3428 	 49.8753 	 132.712
|  9> C 	 -89.9058 	 49.5587 	 131.461
| 10> C 	 -88.8997 	 49.116 	 130.579
| 11> C 	 -87.5986 	 49.2401 	 131.037
| 12> H 	 -89.0557 	 48.7682 	 129.587
| 13> C 	 -91.3681 	 49.6674 	 131.039
| 14> H 	 -92.0794 	 49.5571 	 131.875
| 15> H 	 -91.5837 	 48.7517 	 130.479
| 16> C 	 -91.8062 	 50.9672 	 130.387
| 17> H 	 -92.8172 	 51.203 	 130.706
| 18> H 	 -91.2226 	 51.7595 	 130.928
| 19> C 	 -91.6395 	 51.0787 	 128.878
| 20> H 	 -92.4076 	 50.4127 	 128.448
| 21> H 	 -91.8837 	 52.0404 	 128.57
| 22> H 	 -90.6918 	 50.8442 	 128.464
| 23> S 	 -85.3608 	 47.7325 	 130.814
| 24> C 	 -84.4756 	 47.7808 	 129.367
| 25> C 	 -84.8272 	 48.8368 	 128.524
| 26> C 	 -86.0591 	 49.4687 	 128.974
| 27> C 	 -86.4284 	 48.9988 	 130.237
| 28> H 	 -84.2879 	 49.0746 	 127.64
| 29> C 	 -86.6028 	 50.6641 	 128.173
| 30> H 	 -87.6598 	 50.8799 	 128.591
| 31> H 	 -86.6707 	 50.3316 	 127.24
| 32> C 	 -85.7302 	 51.9457 	 128.172
| 33> H 	 -86.3525 	 52.6297 	 127.596
| 34> H 	 -84.7646 	 51.7383 	 127.669
| 35> C 	 -85.3348 	 52.5538 	 129.537
| 36> H 	 -84.6479 	 51.9365 	 130.093
| 37> H 	 -86.2348 	 52.6928 	 130.226
| 38> H 	 -84.835 	 53.5531 	 129.485
| 39> H 	 -89.8722 	 50.1739 	 133.589
| 40> H 	 -83.5244 	 47.1874 	 129.214
| 41> *
| 42>
| 43>                          ****END OF INPUT****

CARTESIAN COORDINATES (ANGSTROEM)
---------------------------------
  S    -87.581700   49.698300  132.745000
  C    -89.342800   49.875300  132.712000
  C    -89.905800   49.558700  131.461000
  C    -88.899700   49.116000  130.579000
  C    -87.598600   49.240100  131.037000
  H    -89.055700   48.768200  129.587000
  C    -91.368100   49.667400  131.039000
  H    -92.079400   49.557100  131.875000
  H    -91.583700   48.751700  130.479000
  C    -91.806200   50.967200  130.387000
  H    -92.817200   51.203000  130.706000
  H    -91.222600   51.759500  130.928000
  C    -91.639500   51.078700  128.878000
  H    -92.407600   50.412700  128.448000
  H    -91.883700   52.040400  128.570000
  H    -90.691800   50.844200  128.464000
  S    -85.360800   47.732500  130.814000
  C    -84.475600   47.780800  129.367000
  C    -84.827200   48.836800  128.524000
  C    -86.059100   49.468700  128.974000
  C    -86.428400   48.998800  130.237000
  H    -84.287900   49.074600  127.640000
  C    -86.602800   50.664100  128.173000
  H    -87.659800   50.879900  128.591000
  H    -86.670700   50.331600  127.240000
  C    -85.730200   51.945700  128.172000
  H    -86.352500   52.629700  127.596000
  H    -84.764600   51.738300  127.669000
  C    -85.334800   52.553800  129.537000
  H    -84.647900   51.936500  130.093000
  H    -86.234800   52.692800  130.226000
  H    -84.835000   53.553100  129.485000
  H    -89.872200   50.173900  133.589000
  H    -83.524400   47.187400  129.214000

 Total Charge           Charge          ....    0
 Multiplicity           Mult            ....    1
 Number of Electrons    NEL             ....  134
 Basis Dimension        Dim             ....  322

ORBITAL ENERGIES
----------------

  NO   OCC          E(Eh)            E(eV)
   0   2.0000     -88.967621     -2420.9320
   1   2.0000     -88.964789     -2420.8550
   2   2.0000     -10.325499      -280.9711
   3   2.0000     -10.323615      -280.9199
   4   2.0000     -10.319378      -280.8045
   5   2.0000     -10.315773      -280.7064
   6   2.0000     -10.306946      -280.4663
   7   2.0000     -10.303010      -280.3592
   8   2.0000     -10.294175      -280.1187
   9   2.0000     -10.292736      -280.0796
  10   2.0000     -10.292688      -280.0783
  11   2.0000     -10.291677      -280.0508
  12   2.0000     -10.287689      -279.9422
  13   2.0000     -10.287528      -279.9379
  14   2.0000     -10.279572      -279.7214
  15   2.0000     -10.271341      -279.4974
  16   2.0000      -8.081638      -219.9126
  17   2.0000      -8.080723      -219.8877
  18   2.0000      -6.040098      -164.3594
  19   2.0000      -6.039046      -164.3308
  20   2.0000      -6.036317      -164.2565
  21   2.0000      -6.035120      -164.2240
  22   2.0000      -6.032452      -164.1514
  23   2.0000      -6.031548      -164.1268
  24   2.0000      -1.005166       -27.3520
  25   2.0000      -0.980716       -26.6866
  26   2.0000      -0.911280       -24.7972
  27   2.0000      -0.906068       -24.6554
  28   2.0000      -0.867349       -23.6018
  29   2.0000      -0.850264       -23.1368
  30   2.0000      -0.844021       -22.9670
  31   2.0000      -0.809607       -22.0305
  32   2.0000      -0.788578       -21.4583
  33   2.0000      -0.774631       -21.0788
  34   2.0000      -0.703363       -19.1395
  35   2.0000      -0.702741       -19.1225
  36   2.0000      -0.686320       -18.6757
  37   2.0000      -0.661364       -17.9966
  38   2.0000      -0.642567       -17.4851
  39   2.0000      -0.616352       -16.7718
  40   2.0000      -0.591956       -16.1079
  41   2.0000      -0.568041       -15.4572
  42   2.0000      -0.556494       -15.1430
  43   2.0000      -0.548840       -14.9347
  44   2.0000      -0.540214       -14.7000
  45   2.0000      -0.533828       -14.5262
  46   2.0000      -0.513672       -13.9777
  47   2.0000      -0.507078       -13.7983
  48   2.0000      -0.502605       -13.6766
  49   2.0000      -0.496957       -13.5229
  50   2.0000      -0.489990       -13.3333
  51   2.0000      -0.483157       -13.1474
  52   2.0000      -0.472026       -12.8445
  53   2.0000      -0.460593       -12.5334
  54   2.0000      -0.454909       -12.3787
  55   2.0000      -0.450573       -12.2607
  56   2.0000      -0.443283       -12.0623
  57   2.0000      -0.438532       -11.9331
  58   2.0000      -0.438041       -11.9197
  59   2.0000      -0.422183       -11.4882
  60   2.0000      -0.417421       -11.3586
  61   2.0000      -0.414366       -11.2755
  62   2.0000      -0.411311       -11.1923
  63   2.0000      -0.341181        -9.2840
  64   2.0000      -0.332993        -9.0612
  65   2.0000      -0.329746        -8.9728
  66   2.0000      -0.289352        -7.8737
  67   0.0000       0.032293         0.8787
  68   0.0000       0.065836         1.7915
  69   0.0000       0.112928         3.0729
  70   0.0000       0.118925         3.2361
  71   0.0000       0.130451         3.5498

MULLIKEN ATOMIC CHARGES
-----------------------
   0 S :    0.108489
   1 C :   -0.123231
   2 C :   -0.064448
   3 C :    0.039474
   4 C :   -0.157802
   5 H :   -0.001305
   6 C :    0.053530
   7 H :    0.017161
   8 H :    0.025484
   9 C :   -0.071243
  10 H :    0.021904
  11 H :    0.026051
  12 C :    0.004754
  13 H :    0.025714
  14 H :    0.014632
  15 H :    0.026449
  16 S :    0.119343
  17 C :   -0.107910
  18 C :   -0.040101
  19 C :   -0.064537
  20 C :   -0.165519
  21 H :    0.012639
  22 C :    0.108660
  23 H :    0.044025
  24 H :   -0.005697
  25 C :   -0.071238
  26 H :    0.037222
  27 H :    0.033666
  28 C :   -0.082158
  29 H :    0.037716
  30 H :    0.039279
  31 H :    0.040978
  32 H :    0.040126
  33 H :    0.077890
Sum of atomic charges:   -0.0000000

LOEWDIN ATOMIC CHARGES
----------------------
   0 S :    0.389962
   1 C :   -0.185456
   2 C :   -0.059571
   3 C :   -0.058047
   4 C :   -0.195123
   5 H :    0.025703
   6 C :   -0.038045
   7 H :    0.034405
   8 H :    0.030804
   9 C :   -0.042606
  10 H :    0.024074
  11 H :    0.029300
  12 C :   -0.056337
  13 H :    0.029586
  14 H :    0.018572
  15 H :    0.019513
  16 S :    0.427599
  17 C :   -0.207783
  18 C :   -0.072141
  19 C :   -0.048167
  20 C :   -0.205960
  21 H :    0.025358
  22 C :   -0.022435
  23 H :    0.039714
  24 H :    0.011067
  25 C :   -0.037052
  26 H :    0.027548
  27 H :    0.026206
  28 C :   -0.076794
  29 H :    0.023402
  30 H :    0.031732
  31 H :    0.031177
  32 H :    0.019827
  33 H :    0.039967

  Mayer bond orders larger than 0.100000
B(  0-S ,  1-C ) :   1.1424 B(  0-S ,  4-C ) :   1.1431 B(  1-C ,  2-C ) :   1.5875
B(  1-C ,  4-C ) :   0.1055 B(  1-C , 32-H ) :   0.9738 B(  2-C ,  3-C ) :   1.2493
B(  2-C ,  6-C ) :   1.0320 B(  3-C ,  4-C ) :   1.5672 B(  3-C ,  5-H ) :   0.9992
B(  4-C , 20-C ) :   1.0376 B(  6-C ,  7-H ) :   0.9386 B(  6-C ,  8-H ) :   0.9435
B(  6-C ,  9-C ) :   1.0579 B(  9-C , 10-H ) :   0.9576 B(  9-C , 11-H ) :   0.9507
B(  9-C , 12-C ) :   1.0833 B( 12-C , 13-H ) :   0.9723 B( 12-C , 14-H ) :   0.9697
B( 12-C , 15-H ) :   0.9766 B( 16-S , 17-C ) :   1.1797 B( 16-S , 20-C ) :   1.1430
B( 17-C , 18-C ) :   1.5994 B( 17-C , 33-H ) :   0.9563 B( 18-C , 19-C ) :   1.2257
B( 18-C , 21-H ) :   0.9938 B( 19-C , 20-C ) :   1.5977 B( 19-C , 22-C ) :   1.0389
B( 22-C , 23-H ) :   0.9345 B( 22-C , 24-H ) :   0.9184 B( 22-C , 25-C ) :   1.0795
B( 25-C , 26-H ) :   0.9555 B( 25-C , 27-H ) :   0.9529 B( 25-C , 28-C ) :   1.0711
B( 28-C , 29-H ) :   0.9739 B( 28-C , 30-H ) :   0.9758 B( 28-C , 31-H ) :   0.9745

Dispersion correction           -0.015235080
FINAL SINGLE POINT ENERGY     -1339.875936923796

DIPOLE MOMENT
-------------
                                X             Y             Z
Electronic contribution:     13.73178     -17.29346      14.88933
Nuclear contribution   :    -14.01284      17.59101     -15.38232
                        -----------------------------------------
Total Dipole Moment    :     -0.28105       0.29756      -0.49299
                        -----------------------------------------
Magnitude (a.u.)       :      0.64076
Magnitude (Debye)      :      1.62868

Rotational constants in cm-1:     0.018183     0.009398     0.007667
Rotational constants in MHz :   545.113828   281.749669   229.843068

                             ****ORCA TERMINATED NORMALLY****
TOTAL RUN TIME: 0 days 0 hours 0 minutes 34 seconds 635 msec
