                         Program Version 4.2.1 -  RELEASE  -
|  1> ! wB97X-D3 SP def2-SVP
|  2> %pal
|  3> nprocs 16
|  4> end
|  5>
|  6> * xyz 0 1
|  7> S 	 -1.67508 	 -3.61201 	 79.5309
|  8> C 	 -1.37301 	 -1.92569 	 79.1546
|  9> C 	 -0.124642 	 -1.57857 	 79.6749
| 10> C 	 0.507804 	 -2.57241 	 80.3666
| 11> C 	 -0.191987 	 -3.69911 	 80.4707
| 12> H 	 1.43776 	 -2.55801 	 80.8967
| 13> C 	 0.494508 	 -0.225671 	 79.6326
| 14> H 	 0.794212 	 -0.0388078 	 80.6288
| 15> H 	 -0.295018 	 0.45384 	 79.3833
| 16> C 	 1.48973 	 0.0691186 	 78.5576
| 17> H 	 1.95772 	 1.0068 	 78.5883
| 18> H 	 2.28741 	 -0.679032 	 78.7652
| 19> C 	 0.885627 	 -0.0660467 	 77.1356
| 20> H 	 1.70641 	 0.0630369 	 76.4551
| 21> H 	 0.441981 	 -1.03825 	 77.0453
| 22> H 	 0.123115 	 0.67084 	 76.9361
| 23> S 	 1.07059 	 -6.15812 	 80.6044
| 24> C 	 0.936778 	 -7.04463 	 82.1622
| 25> C 	 0.0693639 	 -6.42961 	 83.0787
| 26> C 	 -0.414517 	 -5.13499 	 82.5699
| 27> C 	 0.0487004 	 -4.84331 	 81.3081
| 28> H 	 -0.184464 	 -6.79738 	 84.0779
| 29> C 	 -1.32989 	 -4.18092 	 83.2931
| 30> H 	 -2.15922 	 -4.754 	 83.7369
| 31> H 	 -1.86555 	 -3.5626 	 82.6001
| 32> C 	 -0.781962 	 -3.29928 	 84.4182
| 33> H 	 -1.66952 	 -2.93534 	 84.9817
| 34> H 	 -0.306822 	 -2.41353 	 83.9149
| 35> C 	 0.25753 	 -3.90227 	 85.4044
| 36> H 	 0.0693484 	 -4.94299 	 85.6893
| 37> H 	 0.34871 	 -3.28421 	 86.2827
| 38> H 	 1.27976 	 -3.8042 	 85.0662
| 39> H 	 -2.02689 	 -1.26556 	 78.5279
| 40> H 	 1.38497 	 -7.95551 	 82.3351
| 41> *
| 42>
| 43>                          ****END OF INPUT****

CARTESIAN COORDINATES (ANGSTROEM)
---------------------------------
  S     -1.675080   -3.612010   79.530900
  C     -1.373010   -1.925690   79.154600
  C     -0.124642   -1.578570   79.674900
  C      0.507804   -2.572410   80.366600
  C     -0.191987   -3.699110   80.470700
  H      1.437760   -2.558010   80.896700
  C      0.494508   -0.225671   79.632600
  H      0.794212   -0.038808   80.628800
  H     -0.295018    0.453840   79.383300
  C      1.489730    0.069119   78.557600
  H      1.957720    1.006800   78.588300
  H      2.287410   -0.679032   78.765200
  C      0.885627   -0.066047   77.135600
  H      1.706410    0.063037   76.455100
  H      0.441981   -1.038250   77.045300
  H      0.123115    0.670840   76.936100
  S      1.070590   -6.158120   80.604400
  C      0.936778   -7.044630   82.162200
  C      0.069364   -6.429610   83.078700
  C     -0.414517   -5.134990   82.569900
  C      0.048700   -4.843310   81.308100
  H     -0.184464   -6.797380   84.077900
  C     -1.329890   -4.180920   83.293100
  H     -2.159220   -4.754000   83.736900
  H     -1.865550   -3.562600   82.600100
  C     -0.781962   -3.299280   84.418200
  H     -1.669520   -2.935340   84.981700
  H     -0.306822   -2.413530   83.914900
  C      0.257530   -3.902270   85.404400
  H      0.069348   -4.942990   85.689300
  H      0.348710   -3.284210   86.282700
  H      1.279760   -3.804200   85.066200
  H     -2.026890   -1.265560   78.527900
  H      1.384970   -7.955510   82.335100

 Total Charge           Charge          ....    0
 Multiplicity           Mult            ....    1
 Number of Electrons    NEL             ....  134
 Basis Dimension        Dim             ....  322

ORBITAL ENERGIES
----------------

  NO   OCC          E(Eh)            E(eV)
   0   2.0000     -88.965060     -2420.8624
   1   2.0000     -88.964756     -2420.8541
   2   2.0000     -10.324592      -280.9464
   3   2.0000     -10.321829      -280.8712
   4   2.0000     -10.320599      -280.8378
   5   2.0000     -10.319827      -280.8168
   6   2.0000     -10.307035      -280.4687
   7   2.0000     -10.305083      -280.4156
   8   2.0000     -10.294219      -280.1200
   9   2.0000     -10.292258      -280.0666
  10   2.0000     -10.287123      -279.9269
  11   2.0000     -10.282222      -279.7935
  12   2.0000     -10.280365      -279.7430
  13   2.0000     -10.277177      -279.6562
  14   2.0000     -10.276429      -279.6359
  15   2.0000     -10.271324      -279.4969
  16   2.0000      -8.079305      -219.8491
  17   2.0000      -8.078370      -219.8236
  18   2.0000      -6.037726      -164.2949
  19   2.0000      -6.036991      -164.2749
  20   2.0000      -6.033742      -164.1865
  21   2.0000      -6.033250      -164.1731
  22   2.0000      -6.030235      -164.0910
  23   2.0000      -6.028934      -164.0556
  24   2.0000      -1.011058       -27.5123
  25   2.0000      -0.976715       -26.5778
  26   2.0000      -0.919220       -25.0133
  27   2.0000      -0.902862       -24.5681
  28   2.0000      -0.868493       -23.6329
  29   2.0000      -0.854097       -23.2411
  30   2.0000      -0.841846       -22.9078
  31   2.0000      -0.815551       -22.1923
  32   2.0000      -0.788428       -21.4542
  33   2.0000      -0.775192       -21.0941
  34   2.0000      -0.710395       -19.3308
  35   2.0000      -0.698414       -19.0048
  36   2.0000      -0.689633       -18.7659
  37   2.0000      -0.666834       -18.1455
  38   2.0000      -0.645801       -17.5731
  39   2.0000      -0.622879       -16.9494
  40   2.0000      -0.590181       -16.0596
  41   2.0000      -0.572228       -15.5711
  42   2.0000      -0.557557       -15.1719
  43   2.0000      -0.552874       -15.0445
  44   2.0000      -0.546387       -14.8680
  45   2.0000      -0.538567       -14.6552
  46   2.0000      -0.521125       -14.1805
  47   2.0000      -0.516128       -14.0446
  48   2.0000      -0.502080       -13.6623
  49   2.0000      -0.489071       -13.3083
  50   2.0000      -0.485847       -13.2206
  51   2.0000      -0.481851       -13.1118
  52   2.0000      -0.469482       -12.7753
  53   2.0000      -0.466025       -12.6812
  54   2.0000      -0.460034       -12.5182
  55   2.0000      -0.450285       -12.2529
  56   2.0000      -0.443585       -12.0706
  57   2.0000      -0.439196       -11.9511
  58   2.0000      -0.436689       -11.8829
  59   2.0000      -0.423069       -11.5123
  60   2.0000      -0.417005       -11.3473
  61   2.0000      -0.408554       -11.1173
  62   2.0000      -0.406173       -11.0525
  63   2.0000      -0.342046        -9.3075
  64   2.0000      -0.329631        -8.9697
  65   2.0000      -0.316986        -8.6256
  66   2.0000      -0.311983        -8.4895
  67   0.0000       0.041719         1.1352
  68   0.0000       0.051634         1.4050
  69   0.0000       0.103657         2.8207
  70   0.0000       0.119751         3.2586
  71   0.0000       0.127763         3.4766

MULLIKEN ATOMIC CHARGES
-----------------------
   0 S :    0.113571
   1 C :   -0.134580
   2 C :   -0.107855
   3 C :    0.067446
   4 C :   -0.186453
   5 H :    0.002532
   6 C :    0.115965
   7 H :    0.018201
   8 H :   -0.007924
   9 C :   -0.050440
  10 H :    0.021605
  11 H :    0.018024
  12 C :   -0.046708
  13 H :    0.033175
  14 H :    0.037879
  15 H :    0.025194
  16 S :    0.093166
  17 C :   -0.057844
  18 C :   -0.023887
  19 C :   -0.019348
  20 C :   -0.189164
  21 H :    0.029455
  22 C :    0.082916
  23 H :    0.020210
  24 H :    0.020225
  25 C :   -0.088535
  26 H :    0.037767
  27 H :    0.033122
  28 C :   -0.037975
  29 H :    0.029399
  30 H :    0.023896
  31 H :    0.029333
  32 H :    0.065604
  33 H :    0.032026
Sum of atomic charges:   -0.0000000

LOEWDIN ATOMIC CHARGES
----------------------
   0 S :    0.405051
   1 C :   -0.201582
   2 C :   -0.067640
   3 C :   -0.058945
   4 C :   -0.192129
   5 H :    0.036085
   6 C :   -0.030934
   7 H :    0.026363
   8 H :    0.023579
   9 C :   -0.034289
  10 H :    0.017124
  11 H :    0.022972
  12 C :   -0.056355
  13 H :    0.026230
  14 H :    0.023241
  15 H :    0.021511
  16 S :    0.359153
  17 C :   -0.151328
  18 C :   -0.062616
  19 C :   -0.045544
  20 C :   -0.187196
  21 H :    0.033312
  22 C :   -0.039121
  23 H :    0.032865
  24 H :    0.028454
  25 C :   -0.040463
  26 H :    0.028887
  27 H :    0.028116
  28 C :   -0.073353
  29 H :    0.022235
  30 H :    0.027460
  31 H :    0.028130
  32 H :    0.039339
  33 H :    0.011389

  Mayer bond orders larger than 0.100000
B(  0-S ,  1-C ) :   1.1427 B(  0-S ,  4-C ) :   1.1489 B(  1-C ,  2-C ) :   1.5842
B(  1-C ,  4-C ) :   0.1047 B(  1-C , 32-H ) :   0.9639 B(  2-C ,  3-C ) :   1.2394
B(  2-C ,  6-C ) :   1.0226 B(  3-C ,  4-C ) :   1.6054 B(  3-C ,  5-H ) :   1.0014
B(  4-C , 20-C ) :   1.0032 B(  6-C ,  7-H ) :   0.9401 B(  6-C ,  8-H ) :   0.9288
B(  6-C ,  9-C ) :   1.0706 B(  9-C , 10-H ) :   0.9571 B(  9-C , 11-H ) :   0.9543
B(  9-C , 12-C ) :   1.0746 B( 12-C , 13-H ) :   0.9732 B( 12-C , 14-H ) :   0.9760
B( 12-C , 15-H ) :   0.9748 B( 16-S , 17-C ) :   1.1366 B( 16-S , 20-C ) :   1.1096
B( 17-C , 18-C ) :   1.6378 B( 17-C , 33-H ) :   0.9771 B( 18-C , 19-C ) :   1.1946
B( 18-C , 21-H ) :   0.9822 B( 19-C , 20-C ) :   1.6584 B( 19-C , 22-C ) :   1.0492
B( 22-C , 23-H ) :   0.9290 B( 22-C , 24-H ) :   0.9240 B( 22-C , 25-C ) :   1.0771
B( 25-C , 26-H ) :   0.9574 B( 25-C , 27-H ) :   0.9536 B( 25-C , 28-C ) :   1.0810
B( 28-C , 29-H ) :   0.9761 B( 28-C , 30-H ) :   0.9704 B( 28-C , 31-H ) :   0.9697

Dispersion correction           -0.015246979
FINAL SINGLE POINT ENERGY     -1339.870763911679

DIPOLE MOMENT
-------------
                                X             Y             Z
Electronic contribution:     -3.77776     -18.92985      -7.93246
Nuclear contribution   :      3.83053      19.36735       8.35309
                        -----------------------------------------
Total Dipole Moment    :      0.05277       0.43751       0.42063
                        -----------------------------------------
Magnitude (a.u.)       :      0.60920
Magnitude (Debye)      :      1.54847

Rotational constants in cm-1:     0.021315     0.008194     0.007224
Rotational constants in MHz :   639.018620   245.643079   216.560085

                             ****ORCA TERMINATED NORMALLY****
TOTAL RUN TIME: 0 days 0 hours 0 minutes 36 seconds 548 msec
