                         Program Version 4.2.1 -  RELEASE  -
|  1> ! wB97X-D3 SP def2-SVP
|  2> %pal
|  3> nprocs 16
|  4> end
|  5>
|  6> * xyz 0 1
|  7> S 	 9.13458 	 -6.75809 	 73.8682
|  8> C 	 8.80474 	 -5.24277 	 74.6287
|  9> C 	 8.02723 	 -4.49697 	 73.7702
| 10> C 	 8.04489 	 -5.02796 	 72.452
| 11> C 	 8.59475 	 -6.26659 	 72.2848
| 12> H 	 7.70923 	 -4.48715 	 71.5647
| 13> C 	 7.49868 	 -3.12131 	 74.1519
| 14> H 	 7.90529 	 -2.82504 	 75.2155
| 15> H 	 6.43287 	 -3.0979 	 74.0994
| 16> C 	 7.75363 	 -2.05701 	 73.1575
| 17> H 	 7.53333 	 -2.50255 	 72.1418
| 18> H 	 7.10452 	 -1.18533 	 73.184
| 19> C 	 9.20936 	 -1.66727 	 73.2307
| 20> H 	 9.9067 	 -2.46101 	 73.1502
| 21> H 	 9.29849 	 -1.03573 	 72.3709
| 22> H 	 9.49619 	 -1.08566 	 74.1583
| 23> S 	 10.5422 	 -7.61411 	 70.9228
| 24> C 	 10.1327 	 -8.45611 	 69.4394
| 25> C 	 8.82497 	 -8.1857 	 69.0323
| 26> C 	 8.04073 	 -7.54096 	 70.0417
| 27> C 	 8.86511 	 -7.00879 	 71.0504
| 28> H 	 8.56707 	 -8.4979 	 68.0466
| 29> C 	 6.61301 	 -7.21476 	 69.8531
| 30> H 	 6.2167 	 -7.56494 	 68.8409
| 31> H 	 6.5788 	 -6.15976 	 69.7363
| 32> C 	 5.5715 	 -7.75539 	 70.9292
| 33> H 	 5.89403 	 -7.36554 	 71.9427
| 34> H 	 5.67209 	 -8.86912 	 70.9732
| 35> C 	 4.20471 	 -7.272 	 70.5888
| 36> H 	 3.35036 	 -7.7422 	 71.096
| 37> H 	 3.83742 	 -7.44675 	 69.5634
| 38> H 	 4.1942 	 -6.21582 	 70.6161
| 39> H 	 8.92713 	 -5.0734 	 75.6599
| 40> H 	 10.8347 	 -8.74691 	 68.673
| 41> *
| 42>
| 43>                          ****END OF INPUT****

CARTESIAN COORDINATES (ANGSTROEM)
---------------------------------
  S      9.134580   -6.758090   73.868200
  C      8.804740   -5.242770   74.628700
  C      8.027230   -4.496970   73.770200
  C      8.044890   -5.027960   72.452000
  C      8.594750   -6.266590   72.284800
  H      7.709230   -4.487150   71.564700
  C      7.498680   -3.121310   74.151900
  H      7.905290   -2.825040   75.215500
  H      6.432870   -3.097900   74.099400
  C      7.753630   -2.057010   73.157500
  H      7.533330   -2.502550   72.141800
  H      7.104520   -1.185330   73.184000
  C      9.209360   -1.667270   73.230700
  H      9.906700   -2.461010   73.150200
  H      9.298490   -1.035730   72.370900
  H      9.496190   -1.085660   74.158300
  S     10.542200   -7.614110   70.922800
  C     10.132700   -8.456110   69.439400
  C      8.824970   -8.185700   69.032300
  C      8.040730   -7.540960   70.041700
  C      8.865110   -7.008790   71.050400
  H      8.567070   -8.497900   68.046600
  C      6.613010   -7.214760   69.853100
  H      6.216700   -7.564940   68.840900
  H      6.578800   -6.159760   69.736300
  C      5.571500   -7.755390   70.929200
  H      5.894030   -7.365540   71.942700
  H      5.672090   -8.869120   70.973200
  C      4.204710   -7.272000   70.588800
  H      3.350360   -7.742200   71.096000
  H      3.837420   -7.446750   69.563400
  H      4.194200   -6.215820   70.616100
  H      8.927130   -5.073400   75.659900
  H     10.834700   -8.746910   68.673000

 Total Charge           Charge          ....    0
 Multiplicity           Mult            ....    1
 Number of Electrons    NEL             ....  134
 Basis Dimension        Dim             ....  322

ORBITAL ENERGIES
----------------

  NO   OCC          E(Eh)            E(eV)
   0   2.0000     -88.968806     -2420.9643
   1   2.0000     -88.961386     -2420.7624
   2   2.0000     -10.334568      -281.2179
   3   2.0000     -10.329806      -281.0883
   4   2.0000     -10.317115      -280.7430
   5   2.0000     -10.310635      -280.5667
   6   2.0000     -10.310205      -280.5549
   7   2.0000     -10.301507      -280.3182
   8   2.0000     -10.296502      -280.1821
   9   2.0000     -10.295308      -280.1496
  10   2.0000     -10.295124      -280.1446
  11   2.0000     -10.293119      -280.0900
  12   2.0000     -10.292918      -280.0845
  13   2.0000     -10.284247      -279.8486
  14   2.0000     -10.274587      -279.5857
  15   2.0000     -10.268191      -279.4117
  16   2.0000      -8.082668      -219.9406
  17   2.0000      -8.076821      -219.7815
  18   2.0000      -6.041192      -164.3892
  19   2.0000      -6.037269      -164.2824
  20   2.0000      -6.035339      -164.2299
  21   2.0000      -6.033473      -164.1791
  22   2.0000      -6.031074      -164.1139
  23   2.0000      -6.027652      -164.0208
  24   2.0000      -1.010377       -27.4938
  25   2.0000      -0.985801       -26.8250
  26   2.0000      -0.922783       -25.1102
  27   2.0000      -0.908132       -24.7115
  28   2.0000      -0.872658       -23.7462
  29   2.0000      -0.857032       -23.3210
  30   2.0000      -0.841726       -22.9045
  31   2.0000      -0.818930       -22.2842
  32   2.0000      -0.783304       -21.3148
  33   2.0000      -0.772480       -21.0202
  34   2.0000      -0.713340       -19.4110
  35   2.0000      -0.697097       -18.9690
  36   2.0000      -0.689141       -18.7525
  37   2.0000      -0.660110       -17.9625
  38   2.0000      -0.643706       -17.5161
  39   2.0000      -0.626062       -17.0360
  40   2.0000      -0.593928       -16.1616
  41   2.0000      -0.572751       -15.5854
  42   2.0000      -0.560723       -15.2580
  43   2.0000      -0.558743       -15.2042
  44   2.0000      -0.540343       -14.7035
  45   2.0000      -0.526504       -14.3269
  46   2.0000      -0.521116       -14.1803
  47   2.0000      -0.518602       -14.1119
  48   2.0000      -0.512103       -13.9350
  49   2.0000      -0.501437       -13.6448
  50   2.0000      -0.489340       -13.3156
  51   2.0000      -0.480050       -13.0628
  52   2.0000      -0.473047       -12.8723
  53   2.0000      -0.460102       -12.5200
  54   2.0000      -0.457395       -12.4463
  55   2.0000      -0.453083       -12.3290
  56   2.0000      -0.446018       -12.1368
  57   2.0000      -0.436230       -11.8704
  58   2.0000      -0.431053       -11.7295
  59   2.0000      -0.424566       -11.5530
  60   2.0000      -0.414310       -11.2739
  61   2.0000      -0.405431       -11.0323
  62   2.0000      -0.402459       -10.9515
  63   2.0000      -0.347956        -9.4684
  64   2.0000      -0.333202        -9.0669
  65   2.0000      -0.324753        -8.8370
  66   2.0000      -0.295606        -8.0439
  67   0.0000       0.023563         0.6412
  68   0.0000       0.064809         1.7635
  69   0.0000       0.108003         2.9389
  70   0.0000       0.117415         3.1950
  71   0.0000       0.135822         3.6959

MULLIKEN ATOMIC CHARGES
-----------------------
   0 S :    0.104365
   1 C :   -0.115016
   2 C :   -0.078483
   3 C :    0.001997
   4 C :   -0.128937
   5 H :    0.013459
   6 C :    0.097195
   7 H :    0.035833
   8 H :    0.020857
   9 C :   -0.117645
  10 H :    0.025687
  11 H :    0.029421
  12 C :   -0.036510
  13 H :    0.033540
  14 H :    0.020993
  15 H :    0.034637
  16 S :    0.108491
  17 C :   -0.082729
  18 C :   -0.046982
  19 C :    0.015885
  20 C :   -0.169515
  21 H :    0.014479
  22 C :    0.000548
  23 H :    0.021437
  24 H :    0.027387
  25 C :   -0.076009
  26 H :    0.054985
  27 H :    0.041823
  28 C :   -0.020506
  29 H :    0.038011
  30 H :    0.010104
  31 H :    0.016661
  32 H :    0.043173
  33 H :    0.061366
Sum of atomic charges:   -0.0000000

LOEWDIN ATOMIC CHARGES
----------------------
   0 S :    0.412800
   1 C :   -0.191535
   2 C :   -0.065178
   3 C :   -0.073700
   4 C :   -0.201730
   5 H :    0.028715
   6 C :   -0.036525
   7 H :    0.038409
   8 H :    0.029583
   9 C :   -0.048112
  10 H :    0.027880
  11 H :    0.024145
  12 C :   -0.064422
  13 H :    0.020756
  14 H :    0.022090
  15 H :    0.030009
  16 S :    0.400084
  17 C :   -0.189773
  18 C :   -0.061021
  19 C :   -0.050240
  20 C :   -0.183836
  21 H :    0.028030
  22 C :   -0.038386
  23 H :    0.035175
  24 H :    0.026694
  25 C :   -0.038070
  26 H :    0.033503
  27 H :    0.029516
  28 C :   -0.075098
  29 H :    0.031537
  30 H :    0.025378
  31 H :    0.021506
  32 H :    0.021858
  33 H :    0.029956

  Mayer bond orders larger than 0.100000
B(  0-S ,  1-C ) :   1.1510 B(  0-S ,  4-C ) :   1.1519 B(  1-C ,  2-C ) :   1.5801
B(  1-C , 32-H ) :   0.9758 B(  2-C ,  3-C ) :   1.2405 B(  2-C ,  6-C ) :   1.0320
B(  3-C ,  4-C ) :   1.5837 B(  3-C ,  5-H ) :   0.9859 B(  4-C , 20-C ) :   1.0398
B(  6-C ,  7-H ) :   0.9490 B(  6-C ,  8-H ) :   0.9203 B(  6-C ,  9-C ) :   1.0749
B(  9-C , 10-H ) :   0.9454 B(  9-C , 11-H ) :   0.9525 B(  9-C , 12-C ) :   1.0769
B( 12-C , 13-H ) :   0.9761 B( 12-C , 14-H ) :   0.9740 B( 12-C , 15-H ) :   0.9732
B( 16-S , 17-C ) :   1.1537 B( 16-S , 20-C ) :   1.1417 B( 17-C , 18-C ) :   1.6312
B( 17-C , 20-C ) :   0.1061 B( 17-C , 33-H ) :   0.9566 B( 18-C , 19-C ) :   1.2285
B( 18-C , 21-H ) :   0.9880 B( 19-C , 20-C ) :   1.5708 B( 19-C , 22-C ) :   1.0388
B( 22-C , 23-H ) :   0.9400 B( 22-C , 24-H ) :   0.9411 B( 22-C , 25-C ) :   1.0385
B( 25-C , 26-H ) :   0.9539 B( 25-C , 27-H ) :   0.9574 B( 25-C , 28-C ) :   1.0815
B( 28-C , 29-H ) :   0.9705 B( 28-C , 30-H ) :   0.9674 B( 28-C , 31-H ) :   0.9711

Dispersion correction           -0.014433682
FINAL SINGLE POINT ENERGY     -1339.855146582058

DIPOLE MOMENT
-------------
                                X             Y             Z
Electronic contribution:     18.71829     -16.18131       2.91795
Nuclear contribution   :    -19.22100      16.62255      -3.31488
                        -----------------------------------------
Total Dipole Moment    :     -0.50271       0.44123      -0.39692
                        -----------------------------------------
Magnitude (a.u.)       :      0.77779
Magnitude (Debye)      :      1.97697

Rotational constants in cm-1:     0.017306     0.009260     0.007506
Rotational constants in MHz :   518.808871   277.601068   225.016116

                             ****ORCA TERMINATED NORMALLY****
TOTAL RUN TIME: 0 days 0 hours 0 minutes 35 seconds 320 msec
