                         Program Version 4.2.1 -  RELEASE  -
|  1> ! wB97X-D3 SP def2-SVP
|  2> %pal
|  3> nprocs 16
|  4> end
|  5>
|  6> * xyz 0 1
|  7> S 	 -53.224 	 42.3322 	 107.989
|  8> C 	 -52.7835 	 43.4472 	 109.271
|  9> C 	 -53.2698 	 44.725 	 109.067
| 10> C 	 -54.1978 	 44.7086 	 108.01
| 11> C 	 -54.2211 	 43.5539 	 107.23
| 12> H 	 -54.7429 	 45.5396 	 107.651
| 13> C 	 -52.9437 	 45.9252 	 109.874
| 14> H 	 -52.5623 	 45.5842 	 110.791
| 15> H 	 -53.8398 	 46.4252 	 110.187
| 16> C 	 -51.9687 	 46.9776 	 109.144
| 17> H 	 -51.1936 	 46.4468 	 108.661
| 18> H 	 -52.4508 	 47.5043 	 108.345
| 19> C 	 -51.3132 	 47.978 	 110.108
| 20> H 	 -51.9686 	 48.687 	 110.641
| 21> H 	 -50.7012 	 47.5012 	 110.812
| 22> H 	 -50.7341 	 48.573 	 109.505
| 23> S 	 -54.5673 	 43.2818 	 104.509
| 24> C 	 -56.1056 	 42.819 	 103.859
| 25> C 	 -57.0167 	 42.6044 	 104.907
| 26> C 	 -56.4692 	 42.8668 	 106.21
| 27> C 	 -55.1134 	 43.2505 	 106.129
| 28> H 	 -58.0529 	 42.3126 	 104.765
| 29> C 	 -57.3104 	 42.8465 	 107.486
| 30> H 	 -57.6298 	 43.8608 	 107.462
| 31> H 	 -56.7337 	 42.667 	 108.406
| 32> C 	 -58.6146 	 42.0048 	 107.436
| 33> H 	 -58.6947 	 41.6811 	 108.443
| 34> H 	 -58.506 	 41.1178 	 106.778
| 35> C 	 -59.8582 	 42.7956 	 106.991
| 36> H 	 -60.0112 	 42.9984 	 105.967
| 37> H 	 -59.7973 	 43.829 	 107.457
| 38> H 	 -60.7519 	 42.3047 	 107.231
| 39> H 	 -52.1201 	 43.2268 	 110.137
| 40> H 	 -56.3191 	 42.7495 	 102.86
| 41> *
| 42>
| 43>                          ****END OF INPUT****

CARTESIAN COORDINATES (ANGSTROEM)
---------------------------------
  S    -53.224000   42.332200  107.989000
  C    -52.783500   43.447200  109.271000
  C    -53.269800   44.725000  109.067000
  C    -54.197800   44.708600  108.010000
  C    -54.221100   43.553900  107.230000
  H    -54.742900   45.539600  107.651000
  C    -52.943700   45.925200  109.874000
  H    -52.562300   45.584200  110.791000
  H    -53.839800   46.425200  110.187000
  C    -51.968700   46.977600  109.144000
  H    -51.193600   46.446800  108.661000
  H    -52.450800   47.504300  108.345000
  C    -51.313200   47.978000  110.108000
  H    -51.968600   48.687000  110.641000
  H    -50.701200   47.501200  110.812000
  H    -50.734100   48.573000  109.505000
  S    -54.567300   43.281800  104.509000
  C    -56.105600   42.819000  103.859000
  C    -57.016700   42.604400  104.907000
  C    -56.469200   42.866800  106.210000
  C    -55.113400   43.250500  106.129000
  H    -58.052900   42.312600  104.765000
  C    -57.310400   42.846500  107.486000
  H    -57.629800   43.860800  107.462000
  H    -56.733700   42.667000  108.406000
  C    -58.614600   42.004800  107.436000
  H    -58.694700   41.681100  108.443000
  H    -58.506000   41.117800  106.778000
  C    -59.858200   42.795600  106.991000
  H    -60.011200   42.998400  105.967000
  H    -59.797300   43.829000  107.457000
  H    -60.751900   42.304700  107.231000
  H    -52.120100   43.226800  110.137000
  H    -56.319100   42.749500  102.860000

 Total Charge           Charge          ....    0
 Multiplicity           Mult            ....    1
 Number of Electrons    NEL             ....  134
 Basis Dimension        Dim             ....  322

ORBITAL ENERGIES
----------------

  NO   OCC          E(Eh)            E(eV)
   0   2.0000     -88.964971     -2420.8599
   1   2.0000     -88.964327     -2420.8424
   2   2.0000     -10.323562      -280.9184
   3   2.0000     -10.317611      -280.7565
   4   2.0000     -10.314520      -280.6724
   5   2.0000     -10.312602      -280.6202
   6   2.0000     -10.303189      -280.3640
   7   2.0000     -10.294741      -280.1342
   8   2.0000     -10.294222      -280.1200
   9   2.0000     -10.288568      -279.9662
  10   2.0000     -10.287576      -279.9392
  11   2.0000     -10.287487      -279.9367
  12   2.0000     -10.286664      -279.9143
  13   2.0000     -10.286521      -279.9105
  14   2.0000     -10.276357      -279.6339
  15   2.0000     -10.269217      -279.4396
  16   2.0000      -8.079730      -219.8606
  17   2.0000      -8.079433      -219.8525
  18   2.0000      -6.038120      -164.3056
  19   2.0000      -6.037883      -164.2992
  20   2.0000      -6.033923      -164.1914
  21   2.0000      -6.033912      -164.1911
  22   2.0000      -6.030833      -164.1073
  23   2.0000      -6.030327      -164.0935
  24   2.0000      -1.004962       -27.3464
  25   2.0000      -0.983476       -26.7617
  26   2.0000      -0.908923       -24.7330
  27   2.0000      -0.907549       -24.6957
  28   2.0000      -0.868521       -23.6337
  29   2.0000      -0.850470       -23.1425
  30   2.0000      -0.845953       -23.0196
  31   2.0000      -0.813384       -22.1333
  32   2.0000      -0.786837       -21.4109
  33   2.0000      -0.772716       -21.0267
  34   2.0000      -0.713488       -19.4150
  35   2.0000      -0.706902       -19.2358
  36   2.0000      -0.697072       -18.9683
  37   2.0000      -0.655591       -17.8395
  38   2.0000      -0.641169       -17.4471
  39   2.0000      -0.617318       -16.7981
  40   2.0000      -0.601252       -16.3609
  41   2.0000      -0.570484       -15.5237
  42   2.0000      -0.557681       -15.1753
  43   2.0000      -0.557570       -15.1722
  44   2.0000      -0.530932       -14.4474
  45   2.0000      -0.526744       -14.3334
  46   2.0000      -0.517676       -14.0867
  47   2.0000      -0.514351       -13.9962
  48   2.0000      -0.504820       -13.7369
  49   2.0000      -0.504194       -13.7198
  50   2.0000      -0.492524       -13.4023
  51   2.0000      -0.479465       -13.0469
  52   2.0000      -0.467054       -12.7092
  53   2.0000      -0.463295       -12.6069
  54   2.0000      -0.459943       -12.5157
  55   2.0000      -0.448559       -12.2059
  56   2.0000      -0.442505       -12.0412
  57   2.0000      -0.440562       -11.9883
  58   2.0000      -0.437373       -11.9015
  59   2.0000      -0.428214       -11.6523
  60   2.0000      -0.425301       -11.5730
  61   2.0000      -0.423881       -11.5344
  62   2.0000      -0.412081       -11.2133
  63   2.0000      -0.332744        -9.0544
  64   2.0000      -0.328523        -8.9396
  65   2.0000      -0.317232        -8.6323
  66   2.0000      -0.302407        -8.2289
  67   0.0000       0.048413         1.3174
  68   0.0000       0.054322         1.4782
  69   0.0000       0.125644         3.4189
  70   0.0000       0.127491         3.4692
  71   0.0000       0.130079         3.5396

MULLIKEN ATOMIC CHARGES
-----------------------
   0 S :    0.122237
   1 C :   -0.141461
   2 C :   -0.093417
   3 C :    0.052378
   4 C :   -0.177532
   5 H :   -0.006704
   6 C :    0.118870
   7 H :   -0.010330
   8 H :    0.018777
   9 C :   -0.060746
  10 H :    0.022110
  11 H :    0.024967
  12 C :   -0.004887
  13 H :    0.028628
  14 H :    0.021052
  15 H :    0.009758
  16 S :    0.127025
  17 C :   -0.058738
  18 C :   -0.038232
  19 C :   -0.040841
  20 C :   -0.201920
  21 H :    0.015064
  22 C :    0.084564
  23 H :    0.027753
  24 H :    0.048577
  25 C :   -0.065115
  26 H :    0.024583
  27 H :    0.040490
  28 C :   -0.045824
  29 H :    0.020372
  30 H :    0.033181
  31 H :    0.024294
  32 H :    0.055620
  33 H :    0.025448
Sum of atomic charges:    0.0000000

LOEWDIN ATOMIC CHARGES
----------------------
   0 S :    0.408075
   1 C :   -0.201456
   2 C :   -0.069656
   3 C :   -0.051977
   4 C :   -0.201979
   5 H :    0.023678
   6 C :   -0.025605
   7 H :    0.021113
   8 H :    0.029954
   9 C :   -0.022600
  10 H :    0.021437
  11 H :    0.021702
  12 C :   -0.054439
  13 H :    0.027403
  14 H :    0.018009
  15 H :    0.017666
  16 S :    0.440401
  17 C :   -0.180953
  18 C :   -0.073347
  19 C :   -0.044559
  20 C :   -0.238371
  21 H :    0.028776
  22 C :   -0.028938
  23 H :    0.034032
  24 H :    0.036620
  25 C :   -0.038539
  26 H :    0.025389
  27 H :    0.027885
  28 C :   -0.066244
  29 H :    0.017041
  30 H :    0.032847
  31 H :    0.020974
  32 H :    0.034187
  33 H :    0.011473

  Mayer bond orders larger than 0.100000
B(  0-S ,  1-C ) :   1.1526 B(  0-S ,  4-C ) :   1.1472 B(  1-C ,  2-C ) :   1.5960
B(  1-C ,  4-C ) :   0.1027 B(  1-C , 32-H ) :   0.9577 B(  2-C ,  3-C ) :   1.2440
B(  2-C ,  6-C ) :   1.0462 B(  3-C ,  4-C ) :   1.5844 B(  3-C ,  5-H ) :   0.9992
B(  4-C , 20-C ) :   1.0212 B(  6-C ,  7-H ) :   0.9333 B(  6-C ,  8-H ) :   0.9326
B(  6-C ,  9-C ) :   1.0397 B(  9-C , 10-H ) :   0.9581 B(  9-C , 11-H ) :   0.9589
B(  9-C , 12-C ) :   1.0901 B( 12-C , 13-H ) :   0.9748 B( 12-C , 14-H ) :   0.9764
B( 12-C , 15-H ) :   0.9711 B( 16-S , 17-C ) :   1.1834 B( 16-S , 20-C ) :   1.1689
B( 17-C , 18-C ) :   1.5462 B( 17-C , 20-C ) :   0.1069 B( 17-C , 33-H ) :   0.9828
B( 18-C , 19-C ) :   1.2935 B( 18-C , 21-H ) :   0.9815 B( 19-C , 20-C ) :   1.5528
B( 19-C , 22-C ) :   1.0236 B( 22-C , 23-H ) :   0.9315 B( 22-C , 24-H ) :   0.9367
B( 22-C , 25-C ) :   1.0586 B( 25-C , 26-H ) :   0.9545 B( 25-C , 27-H ) :   0.9615
B( 25-C , 28-C ) :   1.0730 B( 28-C , 29-H ) :   0.9757 B( 28-C , 30-H ) :   0.9716
B( 28-C , 31-H ) :   0.9713

Dispersion correction           -0.013973988
FINAL SINGLE POINT ENERGY     -1339.867807502862

DIPOLE MOMENT
-------------
                                X             Y             Z
Electronic contribution:      9.42732     -13.96680     -14.19894
Nuclear contribution   :     -9.79317      14.38642      14.54135
                        -----------------------------------------
Total Dipole Moment    :     -0.36585       0.41962       0.34241
                        -----------------------------------------
Magnitude (a.u.)       :      0.65359
Magnitude (Debye)      :      1.66128

Rotational constants in cm-1:     0.020974     0.006954     0.006322
Rotational constants in MHz :   628.796708   208.488403   189.523050

                             ****ORCA TERMINATED NORMALLY****
TOTAL RUN TIME: 0 days 0 hours 0 minutes 29 seconds 632 msec
