                         Program Version 4.2.1 -  RELEASE  -
|  1> ! wB97X-D3 SP def2-SVP
|  2> %pal
|  3> nprocs 16
|  4> end
|  5>
|  6> * xyz 0 1
|  7> S 	 -100.214 	 54.0228 	 120.111
|  8> C 	 -100.319 	 54.577 	 118.446
|  9> C 	 -101.311 	 55.4687 	 118.367
| 10> C 	 -102.094 	 55.59 	 119.56
| 11> C 	 -101.732 	 54.6975 	 120.525
| 12> H 	 -102.978 	 56.2749 	 119.772
| 13> C 	 -101.566 	 56.2881 	 117.09
| 14> H 	 -102.571 	 56.542 	 116.914
| 15> H 	 -101.217 	 55.7596 	 116.17
| 16> C 	 -100.853 	 57.6675 	 117.175
| 17> H 	 -101.323 	 58.4499 	 117.747
| 18> H 	 -99.8739 	 57.4531 	 117.582
| 19> C 	 -100.562 	 58.2089 	 115.78
| 20> H 	 -100.094 	 59.2168 	 115.779
| 21> H 	 -99.8983 	 57.5493 	 115.218
| 22> H 	 -101.389 	 58.3656 	 115.121
| 23> S 	 -101.409 	 54.6501 	 123.211
| 24> C 	 -102.743 	 54.1719 	 124.249
| 25> C 	 -103.893 	 54.057 	 123.521
| 26> C 	 -103.684 	 54.2287 	 122.115
| 27> C 	 -102.384 	 54.4818 	 121.784
| 28> H 	 -104.79 	 53.8692 	 124.112
| 29> C 	 -104.848 	 54.1037 	 121.174
| 30> H 	 -104.917 	 53.0673 	 120.862
| 31> H 	 -104.657 	 54.6218 	 120.263
| 32> C 	 -106.233 	 54.6348 	 121.684
| 33> H 	 -106.663 	 54.1645 	 122.534
| 34> H 	 -106.923 	 54.458 	 120.841
| 35> C 	 -106.242 	 56.0562 	 122.148
| 36> H 	 -107.256 	 56.3953 	 122.317
| 37> H 	 -105.867 	 56.6155 	 121.372
| 38> H 	 -105.709 	 56.3826 	 123.046
| 39> H 	 -99.7228 	 54.5692 	 117.562
| 40> H 	 -102.762 	 54.1252 	 125.347
| 41> *
| 42>
| 43>                          ****END OF INPUT****

CARTESIAN COORDINATES (ANGSTROEM)
---------------------------------
  S    -100.214000   54.022800  120.111000
  C    -100.319000   54.577000  118.446000
  C    -101.311000   55.468700  118.367000
  C    -102.094000   55.590000  119.560000
  C    -101.732000   54.697500  120.525000
  H    -102.978000   56.274900  119.772000
  C    -101.566000   56.288100  117.090000
  H    -102.571000   56.542000  116.914000
  H    -101.217000   55.759600  116.170000
  C    -100.853000   57.667500  117.175000
  H    -101.323000   58.449900  117.747000
  H    -99.873900   57.453100  117.582000
  C    -100.562000   58.208900  115.780000
  H    -100.094000   59.216800  115.779000
  H    -99.898300   57.549300  115.218000
  H    -101.389000   58.365600  115.121000
  S    -101.409000   54.650100  123.211000
  C    -102.743000   54.171900  124.249000
  C    -103.893000   54.057000  123.521000
  C    -103.684000   54.228700  122.115000
  C    -102.384000   54.481800  121.784000
  H    -104.790000   53.869200  124.112000
  C    -104.848000   54.103700  121.174000
  H    -104.917000   53.067300  120.862000
  H    -104.657000   54.621800  120.263000
  C    -106.233000   54.634800  121.684000
  H    -106.663000   54.164500  122.534000
  H    -106.923000   54.458000  120.841000
  C    -106.242000   56.056200  122.148000
  H    -107.256000   56.395300  122.317000
  H    -105.867000   56.615500  121.372000
  H    -105.709000   56.382600  123.046000
  H    -99.722800   54.569200  117.562000
  H    -102.762000   54.125200  125.347000

 Total Charge           Charge          ....    0
 Multiplicity           Mult            ....    1
 Number of Electrons    NEL             ....  134
 Basis Dimension        Dim             ....  322

ORBITAL ENERGIES
----------------

  NO   OCC          E(Eh)            E(eV)
   0   2.0000     -88.965439     -2420.8727
   1   2.0000     -88.963244     -2420.8129
   2   2.0000     -10.324815      -280.9525
   3   2.0000     -10.322715      -280.8953
   4   2.0000     -10.317045      -280.7411
   5   2.0000     -10.306465      -280.4532
   6   2.0000     -10.302238      -280.3381
   7   2.0000     -10.296699      -280.1874
   8   2.0000     -10.295538      -280.1558
   9   2.0000     -10.293498      -280.1003
  10   2.0000     -10.292337      -280.0687
  11   2.0000     -10.288029      -279.9515
  12   2.0000     -10.286172      -279.9010
  13   2.0000     -10.284317      -279.8505
  14   2.0000     -10.275886      -279.6211
  15   2.0000     -10.266373      -279.3622
  16   2.0000      -8.080593      -219.8841
  17   2.0000      -8.078375      -219.8238
  18   2.0000      -6.039286      -164.3373
  19   2.0000      -6.036992      -164.2749
  20   2.0000      -6.035174      -164.2254
  21   2.0000      -6.032856      -164.1624
  22   2.0000      -6.030945      -164.1104
  23   2.0000      -6.028961      -164.0564
  24   2.0000      -1.017480       -27.6871
  25   2.0000      -0.992183       -26.9987
  26   2.0000      -0.914701       -24.8903
  27   2.0000      -0.911331       -24.7986
  28   2.0000      -0.878364       -23.9015
  29   2.0000      -0.854325       -23.2474
  30   2.0000      -0.842844       -22.9349
  31   2.0000      -0.821953       -22.3665
  32   2.0000      -0.785018       -21.3614
  33   2.0000      -0.777362       -21.1531
  34   2.0000      -0.715277       -19.4637
  35   2.0000      -0.700382       -19.0584
  36   2.0000      -0.700083       -19.0502
  37   2.0000      -0.658879       -17.9290
  38   2.0000      -0.638877       -17.3847
  39   2.0000      -0.616371       -16.7723
  40   2.0000      -0.600303       -16.3351
  41   2.0000      -0.581153       -15.8140
  42   2.0000      -0.565703       -15.3936
  43   2.0000      -0.559488       -15.2245
  44   2.0000      -0.533687       -14.5224
  45   2.0000      -0.524921       -14.2838
  46   2.0000      -0.518193       -14.1008
  47   2.0000      -0.512664       -13.9503
  48   2.0000      -0.509182       -13.8555
  49   2.0000      -0.502977       -13.6867
  50   2.0000      -0.495830       -13.4922
  51   2.0000      -0.485353       -13.2071
  52   2.0000      -0.470184       -12.7944
  53   2.0000      -0.467746       -12.7280
  54   2.0000      -0.460886       -12.5413
  55   2.0000      -0.448074       -12.1927
  56   2.0000      -0.445178       -12.1139
  57   2.0000      -0.440537       -11.9876
  58   2.0000      -0.435376       -11.8472
  59   2.0000      -0.421843       -11.4789
  60   2.0000      -0.418592       -11.3905
  61   2.0000      -0.415209       -11.2984
  62   2.0000      -0.411140       -11.1877
  63   2.0000      -0.351773        -9.5722
  64   2.0000      -0.330048        -8.9811
  65   2.0000      -0.327487        -8.9114
  66   2.0000      -0.297167        -8.0863
  67   0.0000       0.031405         0.8546
  68   0.0000       0.074420         2.0251
  69   0.0000       0.107991         2.9386
  70   0.0000       0.124233         3.3805
  71   0.0000       0.134126         3.6497

MULLIKEN ATOMIC CHARGES
-----------------------
   0 S :    0.114229
   1 C :   -0.068291
   2 C :   -0.107352
   3 C :    0.015229
   4 C :   -0.157355
   5 H :    0.039483
   6 C :    0.060642
   7 H :    0.013423
   8 H :    0.028792
   9 C :   -0.047503
  10 H :    0.037832
  11 H :    0.025035
  12 C :   -0.073174
  13 H :    0.033274
  14 H :    0.024339
  15 H :    0.017427
  16 S :    0.100915
  17 C :   -0.093806
  18 C :   -0.054545
  19 C :   -0.038030
  20 C :   -0.148051
  21 H :    0.024568
  22 C :    0.113643
  23 H :    0.040048
  24 H :    0.001997
  25 C :   -0.081493
  26 H :    0.020460
  27 H :    0.035515
  28 C :   -0.025514
  29 H :    0.023615
  30 H :   -0.001643
  31 H :    0.040108
  32 H :    0.025682
  33 H :    0.060501
Sum of atomic charges:   -0.0000000

LOEWDIN ATOMIC CHARGES
----------------------
   0 S :    0.415683
   1 C :   -0.198285
   2 C :   -0.064442
   3 C :   -0.072150
   4 C :   -0.202911
   5 H :    0.042029
   6 C :   -0.024677
   7 H :    0.021399
   8 H :    0.033897
   9 C :   -0.035685
  10 H :    0.024217
  11 H :    0.023589
  12 C :   -0.072194
  13 H :    0.029602
  14 H :    0.021777
  15 H :    0.016633
  16 S :    0.402213
  17 C :   -0.183621
  18 C :   -0.072975
  19 C :   -0.056135
  20 C :   -0.201499
  21 H :    0.036456
  22 C :   -0.027764
  23 H :    0.038520
  24 H :    0.023041
  25 C :   -0.038208
  26 H :    0.016451
  27 H :    0.032316
  28 C :   -0.063800
  29 H :    0.027870
  30 H :    0.010219
  31 H :    0.030075
  32 H :    0.032485
  33 H :    0.035876

  Mayer bond orders larger than 0.100000
B(  0-S ,  1-C ) :   1.1061 B(  0-S ,  4-C ) :   1.1470 B(  1-C ,  2-C ) :   1.6567
B(  1-C , 32-H ) :   0.9637 B(  2-C ,  3-C ) :   1.2157 B(  2-C ,  6-C ) :   1.0338
B(  3-C ,  4-C ) :   1.5861 B(  3-C ,  5-H ) :   0.9830 B(  4-C , 20-C ) :   1.0401
B(  6-C ,  7-H ) :   0.9397 B(  6-C ,  8-H ) :   0.9511 B(  6-C ,  9-C ) :   1.0431
B(  9-C , 10-H ) :   0.9581 B(  9-C , 11-H ) :   0.9593 B(  9-C , 12-C ) :   1.0833
B( 12-C , 13-H ) :   0.9728 B( 12-C , 14-H ) :   0.9767 B( 12-C , 15-H ) :   0.9739
B( 16-S , 17-C ) :   1.1419 B( 16-S , 20-C ) :   1.1363 B( 17-C , 18-C ) :   1.6431
B( 17-C , 33-H ) :   0.9614 B( 18-C , 19-C ) :   1.2088 B( 18-C , 21-H ) :   0.9903
B( 19-C , 20-C ) :   1.6260 B( 19-C , 22-C ) :   1.0447 B( 22-C , 23-H ) :   0.9233
B( 22-C , 24-H ) :   0.9288 B( 22-C , 25-C ) :   1.0737 B( 25-C , 26-H ) :   0.9536
B( 25-C , 27-H ) :   0.9538 B( 25-C , 28-C ) :   1.0811 B( 28-C , 29-H ) :   0.9693
B( 28-C , 30-H ) :   0.9729 B( 28-C , 31-H ) :   0.9698

Dispersion correction           -0.014112745
FINAL SINGLE POINT ENERGY     -1339.860434718691

DIPOLE MOMENT
-------------
                                X             Y             Z
Electronic contribution:     15.78686     -14.66203      16.40018
Nuclear contribution   :    -16.42514      15.04506     -16.65103
                        -----------------------------------------
Total Dipole Moment    :     -0.63828       0.38303      -0.25085
                        -----------------------------------------
Magnitude (a.u.)       :      0.78552
Magnitude (Debye)      :      1.99663

Rotational constants in cm-1:     0.020716     0.007882     0.006348
Rotational constants in MHz :   621.042053   236.288934   190.297388

                             ****ORCA TERMINATED NORMALLY****
TOTAL RUN TIME: 0 days 0 hours 0 minutes 34 seconds 536 msec
