                         Program Version 4.2.1 -  RELEASE  -
|  1> ! wB97X-D3 SP def2-SVP
|  2> %pal
|  3> nprocs 16
|  4> end
|  5>
|  6> * xyz 0 1
|  7> S 	 12.0097 	 -15.228 	 78.6476
|  8> C 	 10.457 	 -15.4771 	 79.3213
|  9> C 	 9.47811 	 -14.7193 	 78.7223
| 10> C 	 9.96431 	 -14.0357 	 77.5653
| 11> C 	 11.3859 	 -14.1725 	 77.459
| 12> H 	 9.41223 	 -13.3856 	 76.8642
| 13> C 	 8.04354 	 -14.6806 	 79.2361
| 14> H 	 7.91465 	 -13.8304 	 79.9636
| 15> H 	 7.87975 	 -15.6078 	 79.7649
| 16> C 	 7.04228 	 -14.6686 	 78.1437
| 17> H 	 7.0504 	 -13.7515 	 77.6576
| 18> H 	 7.28672 	 -15.4826 	 77.4123
| 19> C 	 5.59054 	 -14.9475 	 78.6564
| 20> H 	 5.5098 	 -14.1426 	 79.2865
| 21> H 	 4.79781 	 -14.7883 	 77.9087
| 22> H 	 5.50084 	 -15.9821 	 79.1004
| 23> S 	 13.4447 	 -12.5903 	 77.0682
| 24> C 	 14.1858 	 -12.4006 	 75.5111
| 25> C 	 13.4765 	 -13.0879 	 74.5175
| 26> C 	 12.4732 	 -13.8944 	 75.0944
| 27> C 	 12.2382 	 -13.6268 	 76.414
| 28> H 	 13.7914 	 -13.0282 	 73.5351
| 29> C 	 11.6608 	 -14.9957 	 74.4399
| 30> H 	 11.51 	 -14.704 	 73.4202
| 31> H 	 10.6201 	 -15.1132 	 74.8521
| 32> C 	 12.3613 	 -16.3467 	 74.6561
| 33> H 	 12.1017 	 -16.6557 	 75.6832
| 34> H 	 13.4202 	 -16.1435 	 74.5188
| 35> C 	 11.8778 	 -17.6008 	 73.7795
| 36> H 	 10.8444 	 -17.4428 	 73.4397
| 37> H 	 11.6123 	 -18.4716 	 74.3647
| 38> H 	 12.5179 	 -17.8549 	 72.9388
| 39> H 	 10.2277 	 -16.1543 	 80.1856
| 40> H 	 15.074 	 -11.7602 	 75.3197
| 41> *
| 42>
| 43>                          ****END OF INPUT****

CARTESIAN COORDINATES (ANGSTROEM)
---------------------------------
  S     12.009700  -15.228000   78.647600
  C     10.457000  -15.477100   79.321300
  C      9.478110  -14.719300   78.722300
  C      9.964310  -14.035700   77.565300
  C     11.385900  -14.172500   77.459000
  H      9.412230  -13.385600   76.864200
  C      8.043540  -14.680600   79.236100
  H      7.914650  -13.830400   79.963600
  H      7.879750  -15.607800   79.764900
  C      7.042280  -14.668600   78.143700
  H      7.050400  -13.751500   77.657600
  H      7.286720  -15.482600   77.412300
  C      5.590540  -14.947500   78.656400
  H      5.509800  -14.142600   79.286500
  H      4.797810  -14.788300   77.908700
  H      5.500840  -15.982100   79.100400
  S     13.444700  -12.590300   77.068200
  C     14.185800  -12.400600   75.511100
  C     13.476500  -13.087900   74.517500
  C     12.473200  -13.894400   75.094400
  C     12.238200  -13.626800   76.414000
  H     13.791400  -13.028200   73.535100
  C     11.660800  -14.995700   74.439900
  H     11.510000  -14.704000   73.420200
  H     10.620100  -15.113200   74.852100
  C     12.361300  -16.346700   74.656100
  H     12.101700  -16.655700   75.683200
  H     13.420200  -16.143500   74.518800
  C     11.877800  -17.600800   73.779500
  H     10.844400  -17.442800   73.439700
  H     11.612300  -18.471600   74.364700
  H     12.517900  -17.854900   72.938800
  H     10.227700  -16.154300   80.185600
  H     15.074000  -11.760200   75.319700

 Total Charge           Charge          ....    0
 Multiplicity           Mult            ....    1
 Number of Electrons    NEL             ....  134
 Basis Dimension        Dim             ....  322

ORBITAL ENERGIES
----------------

  NO   OCC          E(Eh)            E(eV)
   0   2.0000     -88.971088     -2421.0264
   1   2.0000     -88.961967     -2420.7782
   2   2.0000     -10.327900      -281.0365
   3   2.0000     -10.319207      -280.7999
   4   2.0000     -10.315476      -280.6984
   5   2.0000     -10.311696      -280.5955
   6   2.0000     -10.300729      -280.2971
   7   2.0000     -10.300096      -280.2799
   8   2.0000     -10.298871      -280.2465
   9   2.0000     -10.292250      -280.0664
  10   2.0000     -10.291563      -280.0477
  11   2.0000     -10.286817      -279.9185
  12   2.0000     -10.286150      -279.9004
  13   2.0000     -10.281403      -279.7712
  14   2.0000     -10.278525      -279.6929
  15   2.0000     -10.276668      -279.6423
  16   2.0000      -8.086538      -220.0459
  17   2.0000      -8.077761      -219.8070
  18   2.0000      -6.044788      -164.4870
  19   2.0000      -6.040798      -164.3785
  20   2.0000      -6.037666      -164.2933
  21   2.0000      -6.036061      -164.2496
  22   2.0000      -6.031986      -164.1387
  23   2.0000      -6.028809      -164.0522
  24   2.0000      -1.014484       -27.6055
  25   2.0000      -0.990294       -26.9473
  26   2.0000      -0.920709       -25.0538
  27   2.0000      -0.901298       -24.5256
  28   2.0000      -0.871845       -23.7241
  29   2.0000      -0.848896       -23.0996
  30   2.0000      -0.842615       -22.9287
  31   2.0000      -0.811890       -22.0927
  32   2.0000      -0.782460       -21.2918
  33   2.0000      -0.770294       -20.9608
  34   2.0000      -0.709903       -19.3175
  35   2.0000      -0.692986       -18.8571
  36   2.0000      -0.683070       -18.5873
  37   2.0000      -0.667674       -18.1683
  38   2.0000      -0.639864       -17.4116
  39   2.0000      -0.617975       -16.8160
  40   2.0000      -0.593217       -16.1423
  41   2.0000      -0.583477       -15.8772
  42   2.0000      -0.570649       -15.5282
  43   2.0000      -0.558675       -15.2023
  44   2.0000      -0.525482       -14.2991
  45   2.0000      -0.520543       -14.1647
  46   2.0000      -0.513265       -13.9667
  47   2.0000      -0.508188       -13.8285
  48   2.0000      -0.498400       -13.5622
  49   2.0000      -0.496332       -13.5059
  50   2.0000      -0.490255       -13.3405
  51   2.0000      -0.482892       -13.1402
  52   2.0000      -0.475361       -12.9352
  53   2.0000      -0.469046       -12.7634
  54   2.0000      -0.460839       -12.5401
  55   2.0000      -0.450394       -12.2558
  56   2.0000      -0.446566       -12.1517
  57   2.0000      -0.436258       -11.8712
  58   2.0000      -0.429856       -11.6970
  59   2.0000      -0.426029       -11.5928
  60   2.0000      -0.415493       -11.3061
  61   2.0000      -0.411652       -11.2016
  62   2.0000      -0.405714       -11.0401
  63   2.0000      -0.337380        -9.1806
  64   2.0000      -0.332248        -9.0409
  65   2.0000      -0.329905        -8.9772
  66   2.0000      -0.296934        -8.0800
  67   0.0000       0.041129         1.1192
  68   0.0000       0.059979         1.6321
  69   0.0000       0.119761         3.2589
  70   0.0000       0.129295         3.5183
  71   0.0000       0.131295         3.5727

MULLIKEN ATOMIC CHARGES
-----------------------
   0 S :    0.153766
   1 C :   -0.146637
   2 C :   -0.092065
   3 C :    0.031391
   4 C :   -0.168887
   5 H :    0.028042
   6 C :    0.089838
   7 H :    0.051984
   8 H :    0.007095
   9 C :   -0.119055
  10 H :    0.021056
  11 H :    0.038462
  12 C :   -0.028712
  13 H :    0.010048
  14 H :    0.034633
  15 H :    0.050019
  16 S :    0.107581
  17 C :   -0.111710
  18 C :   -0.013666
  19 C :   -0.035278
  20 C :   -0.184931
  21 H :   -0.008255
  22 C :    0.081976
  23 H :    0.011829
  24 H :    0.030428
  25 C :   -0.087224
  26 H :    0.038247
  27 H :    0.037800
  28 C :   -0.041505
  29 H :    0.011961
  30 H :    0.023236
  31 H :    0.046898
  32 H :    0.060954
  33 H :    0.070681
Sum of atomic charges:   -0.0000000

LOEWDIN ATOMIC CHARGES
----------------------
   0 S :    0.455672
   1 C :   -0.224745
   2 C :   -0.066324
   3 C :   -0.062031
   4 C :   -0.220891
   5 H :    0.036953
   6 C :   -0.032345
   7 H :    0.038852
   8 H :    0.027341
   9 C :   -0.041095
  10 H :    0.012258
  11 H :    0.028258
  12 C :   -0.060981
  13 H :    0.012522
  14 H :    0.028424
  15 H :    0.033242
  16 S :    0.428372
  17 C :   -0.191135
  18 C :   -0.064786
  19 C :   -0.055954
  20 C :   -0.213703
  21 H :    0.021061
  22 C :   -0.033819
  23 H :    0.020128
  24 H :    0.034887
  25 C :   -0.037067
  26 H :    0.027969
  27 H :    0.023660
  28 C :   -0.077164
  29 H :    0.026479
  30 H :    0.026811
  31 H :    0.025703
  32 H :    0.038010
  33 H :    0.035438

  Mayer bond orders larger than 0.100000
B(  0-S ,  1-C ) :   1.1559 B(  0-S ,  4-C ) :   1.1912 B(  1-C ,  2-C ) :   1.5992
B(  1-C , 32-H ) :   0.9600 B(  2-C ,  3-C ) :   1.2613 B(  2-C ,  6-C ) :   1.0136
B(  3-C ,  4-C ) :   1.5333 B(  3-C ,  5-H ) :   0.9922 B(  4-C , 20-C ) :   0.9983
B(  6-C ,  7-H ) :   0.9279 B(  6-C ,  8-H ) :   0.9395 B(  6-C ,  9-C ) :   1.0764
B(  9-C , 10-H ) :   0.9478 B(  9-C , 11-H ) :   0.9612 B(  9-C , 12-C ) :   1.0760
B( 12-C , 13-H ) :   0.9745 B( 12-C , 14-H ) :   0.9745 B( 12-C , 15-H ) :   0.9762
B( 16-S , 17-C ) :   1.1808 B( 16-S , 20-C ) :   1.1567 B( 17-C , 18-C ) :   1.5744
B( 17-C , 20-C ) :   0.1061 B( 17-C , 33-H ) :   0.9638 B( 18-C , 19-C ) :   1.2425
B( 18-C , 21-H ) :   1.0096 B( 19-C , 20-C ) :   1.5983 B( 19-C , 22-C ) :   1.0467
B( 22-C , 23-H ) :   0.9335 B( 22-C , 24-H ) :   0.9324 B( 22-C , 25-C ) :   1.0553
B( 25-C , 26-H ) :   0.9583 B( 25-C , 27-H ) :   0.9660 B( 25-C , 28-C ) :   1.0629
B( 28-C , 29-H ) :   0.9701 B( 28-C , 30-H ) :   0.9770 B( 28-C , 31-H ) :   0.9810

Dispersion correction           -0.014303829
FINAL SINGLE POINT ENERGY     -1339.864255797169

DIPOLE MOMENT
-------------
                                X             Y             Z
Electronic contribution:     22.29953      12.69375       8.45879
Nuclear contribution   :    -22.72046     -12.82118      -8.64376
                        -----------------------------------------
Total Dipole Moment    :     -0.42093      -0.12743      -0.18498
                        -----------------------------------------
Magnitude (a.u.)       :      0.47711
Magnitude (Debye)      :      1.21271

Rotational constants in cm-1:     0.018888     0.008211     0.007033
Rotational constants in MHz :   566.233593   246.148642   210.849826

                             ****ORCA TERMINATED NORMALLY****
TOTAL RUN TIME: 0 days 0 hours 0 minutes 30 seconds 22 msec
