                         Program Version 4.2.1 -  RELEASE  -
|  1> ! wB97X-D3 SP def2-SVP
|  2> %pal
|  3> nprocs 16
|  4> end
|  5>
|  6> * xyz 0 1
|  7> S 	 -9.40492 	 -8.00422 	 77.0812
|  8> C 	 -8.81712 	 -9.70031 	 77.1577
|  9> C 	 -9.38039 	 -10.3337 	 76.0543
| 10> C 	 -10.2842 	 -9.49677 	 75.2412
| 11> C 	 -10.4261 	 -8.24488 	 75.7281
| 12> H 	 -10.743 	 -9.69313 	 74.2525
| 13> C 	 -8.90793 	 -11.7508 	 75.5614
| 14> H 	 -7.79607 	 -11.7721 	 75.5539
| 15> H 	 -9.19451 	 -11.8717 	 74.5767
| 16> C 	 -9.53804 	 -12.9463 	 76.4565
| 17> H 	 -9.43805 	 -12.5755 	 77.5508
| 18> H 	 -10.5647 	 -12.9718 	 76.1128
| 19> C 	 -9.03056 	 -14.3479 	 76.16
| 20> H 	 -7.89746 	 -14.2528 	 76.1022
| 21> H 	 -9.21932 	 -15.1046 	 76.9327
| 22> H 	 -9.3729 	 -14.6755 	 75.2054
| 23> S 	 -12.4671 	 -6.39456 	 75.7753
| 24> C 	 -12.8017 	 -5.55202 	 74.2969
| 25> C 	 -11.6704 	 -5.55506 	 73.5094
| 26> C 	 -10.7256 	 -6.51379 	 73.8259
| 27> C 	 -11.1453 	 -7.20711 	 74.9709
| 28> H 	 -11.6753 	 -4.88413 	 72.6783
| 29> C 	 -9.48805 	 -6.73665 	 72.947
| 30> H 	 -9.53329 	 -6.07354 	 72.133
| 31> H 	 -9.68336 	 -7.70801 	 72.5261
| 32> C 	 -8.11653 	 -6.56027 	 73.5963
| 33> H 	 -7.96591 	 -7.24759 	 74.4671
| 34> H 	 -8.07732 	 -5.54041 	 73.9675
| 35> C 	 -6.80407 	 -6.59541 	 72.7479
| 36> H 	 -6.54785 	 -7.60605 	 72.4177
| 37> H 	 -6.00028 	 -6.27308 	 73.3564
| 38> H 	 -6.79181 	 -5.92772 	 71.8722
| 39> H 	 -7.99288 	 -10.0428 	 77.7689
| 40> H 	 -13.5275 	 -4.69069 	 74.3023
| 41> *
| 42>
| 43>                          ****END OF INPUT****

CARTESIAN COORDINATES (ANGSTROEM)
---------------------------------
  S     -9.404920   -8.004220   77.081200
  C     -8.817120   -9.700310   77.157700
  C     -9.380390  -10.333700   76.054300
  C    -10.284200   -9.496770   75.241200
  C    -10.426100   -8.244880   75.728100
  H    -10.743000   -9.693130   74.252500
  C     -8.907930  -11.750800   75.561400
  H     -7.796070  -11.772100   75.553900
  H     -9.194510  -11.871700   74.576700
  C     -9.538040  -12.946300   76.456500
  H     -9.438050  -12.575500   77.550800
  H    -10.564700  -12.971800   76.112800
  C     -9.030560  -14.347900   76.160000
  H     -7.897460  -14.252800   76.102200
  H     -9.219320  -15.104600   76.932700
  H     -9.372900  -14.675500   75.205400
  S    -12.467100   -6.394560   75.775300
  C    -12.801700   -5.552020   74.296900
  C    -11.670400   -5.555060   73.509400
  C    -10.725600   -6.513790   73.825900
  C    -11.145300   -7.207110   74.970900
  H    -11.675300   -4.884130   72.678300
  C     -9.488050   -6.736650   72.947000
  H     -9.533290   -6.073540   72.133000
  H     -9.683360   -7.708010   72.526100
  C     -8.116530   -6.560270   73.596300
  H     -7.965910   -7.247590   74.467100
  H     -8.077320   -5.540410   73.967500
  C     -6.804070   -6.595410   72.747900
  H     -6.547850   -7.606050   72.417700
  H     -6.000280   -6.273080   73.356400
  H     -6.791810   -5.927720   71.872200
  H     -7.992880  -10.042800   77.768900
  H    -13.527500   -4.690690   74.302300

 Total Charge           Charge          ....    0
 Multiplicity           Mult            ....    1
 Number of Electrons    NEL             ....  134
 Basis Dimension        Dim             ....  322

ORBITAL ENERGIES
----------------

  NO   OCC          E(Eh)            E(eV)
   0   2.0000     -88.966647     -2420.9056
   1   2.0000     -88.964033     -2420.8344
   2   2.0000     -10.328191      -281.0444
   3   2.0000     -10.323334      -280.9122
   4   2.0000     -10.321293      -280.8567
   5   2.0000     -10.316102      -280.7154
   6   2.0000     -10.312139      -280.6076
   7   2.0000     -10.305750      -280.4337
   8   2.0000     -10.294982      -280.1407
   9   2.0000     -10.294950      -280.1398
  10   2.0000     -10.294570      -280.1295
  11   2.0000     -10.291057      -280.0339
  12   2.0000     -10.289025      -279.9786
  13   2.0000     -10.287561      -279.9388
  14   2.0000     -10.281656      -279.7781
  15   2.0000     -10.277317      -279.6600
  16   2.0000      -8.081848      -219.9183
  17   2.0000      -8.078386      -219.8241
  18   2.0000      -6.040020      -164.3573
  19   2.0000      -6.037008      -164.2754
  20   2.0000      -6.036609      -164.2645
  21   2.0000      -6.032865      -164.1626
  22   2.0000      -6.032605      -164.1555
  23   2.0000      -6.029075      -164.0595
  24   2.0000      -1.011418       -27.5221
  25   2.0000      -0.986385       -26.8409
  26   2.0000      -0.906488       -24.6668
  27   2.0000      -0.899027       -24.4638
  28   2.0000      -0.868579       -23.6352
  29   2.0000      -0.854050       -23.2399
  30   2.0000      -0.840811       -22.8796
  31   2.0000      -0.815093       -22.1798
  32   2.0000      -0.786711       -21.4075
  33   2.0000      -0.771961       -21.0061
  34   2.0000      -0.705588       -19.2000
  35   2.0000      -0.693640       -18.8749
  36   2.0000      -0.688071       -18.7234
  37   2.0000      -0.659660       -17.9503
  38   2.0000      -0.643855       -17.5202
  39   2.0000      -0.609190       -16.5769
  40   2.0000      -0.593223       -16.1424
  41   2.0000      -0.568998       -15.4832
  42   2.0000      -0.566175       -15.4064
  43   2.0000      -0.553976       -15.0744
  44   2.0000      -0.528298       -14.3757
  45   2.0000      -0.518824       -14.1179
  46   2.0000      -0.514748       -14.0070
  47   2.0000      -0.513674       -13.9778
  48   2.0000      -0.504128       -13.7180
  49   2.0000      -0.501174       -13.6376
  50   2.0000      -0.490714       -13.3530
  51   2.0000      -0.485024       -13.1982
  52   2.0000      -0.478721       -13.0267
  53   2.0000      -0.464699       -12.6451
  54   2.0000      -0.457295       -12.4436
  55   2.0000      -0.449105       -12.2208
  56   2.0000      -0.447152       -12.1676
  57   2.0000      -0.436192       -11.8694
  58   2.0000      -0.424252       -11.5445
  59   2.0000      -0.423288       -11.5183
  60   2.0000      -0.413799       -11.2600
  61   2.0000      -0.411281       -11.1915
  62   2.0000      -0.409637       -11.1468
  63   2.0000      -0.337242        -9.1768
  64   2.0000      -0.332727        -9.0540
  65   2.0000      -0.325413        -8.8549
  66   2.0000      -0.305366        -8.3094
  67   0.0000       0.032109         0.8737
  68   0.0000       0.053361         1.4520
  69   0.0000       0.105928         2.8825
  70   0.0000       0.114268         3.1094
  71   0.0000       0.137697         3.7469

MULLIKEN ATOMIC CHARGES
-----------------------
   0 S :    0.093783
   1 C :   -0.121097
   2 C :   -0.099682
   3 C :    0.013321
   4 C :   -0.119703
   5 H :    0.029596
   6 C :    0.064413
   7 H :    0.035040
   8 H :   -0.001767
   9 C :   -0.112655
  10 H :    0.052324
  11 H :    0.034592
  12 C :   -0.036778
  13 H :    0.024841
  14 H :    0.048035
  15 H :    0.027791
  16 S :    0.117974
  17 C :   -0.097466
  18 C :   -0.062910
  19 C :   -0.008632
  20 C :   -0.228679
  21 H :    0.011026
  22 C :    0.169589
  23 H :   -0.009012
  24 H :    0.024671
  25 C :   -0.108467
  26 H :    0.050756
  27 H :    0.026541
  28 C :   -0.037017
  29 H :    0.027966
  30 H :    0.026622
  31 H :    0.026995
  32 H :    0.063694
  33 H :    0.074295
Sum of atomic charges:    0.0000000

LOEWDIN ATOMIC CHARGES
----------------------
   0 S :    0.399387
   1 C :   -0.189635
   2 C :   -0.053749
   3 C :   -0.075565
   4 C :   -0.211298
   5 H :    0.039120
   6 C :   -0.025834
   7 H :    0.029069
   8 H :    0.012620
   9 C :   -0.045830
  10 H :    0.033030
  11 H :    0.024459
  12 C :   -0.071380
  13 H :    0.028037
  14 H :    0.031597
  15 H :    0.021029
  16 S :    0.423767
  17 C :   -0.203078
  18 C :   -0.069674
  19 C :   -0.046903
  20 C :   -0.198171
  21 H :    0.027377
  22 C :   -0.022862
  23 H :    0.023056
  24 H :    0.032321
  25 C :   -0.043496
  26 H :    0.028767
  27 H :    0.026216
  28 C :   -0.063435
  29 H :    0.021700
  30 H :    0.024035
  31 H :    0.023689
  32 H :    0.034298
  33 H :    0.037338

  Mayer bond orders larger than 0.100000
B(  0-S ,  1-C ) :   1.1136 B(  0-S ,  4-C ) :   1.1539 B(  1-C ,  2-C ) :   1.6228
B(  1-C , 32-H ) :   0.9753 B(  2-C ,  3-C ) :   1.2095 B(  2-C ,  6-C ) :   1.0179
B(  3-C ,  4-C ) :   1.6129 B(  3-C ,  5-H ) :   0.9894 B(  4-C , 20-C ) :   1.0180
B(  6-C ,  7-H ) :   0.9510 B(  6-C ,  8-H ) :   0.9463 B(  6-C ,  9-C ) :   1.0408
B(  9-C , 10-H ) :   0.9644 B(  9-C , 11-H ) :   0.9599 B(  9-C , 12-C ) :   1.0719
B( 12-C , 13-H ) :   0.9759 B( 12-C , 14-H ) :   0.9738 B( 12-C , 15-H ) :   0.9746
B( 16-S , 17-C ) :   1.1665 B( 16-S , 20-C ) :   1.1766 B( 17-C , 18-C ) :   1.5865
B( 17-C , 20-C ) :   0.1153 B( 17-C , 33-H ) :   0.9571 B( 18-C , 19-C ) :   1.2886
B( 18-C , 21-H ) :   0.9892 B( 19-C , 20-C ) :   1.5351 B( 19-C , 22-C ) :   1.0245
B( 22-C , 23-H ) :   0.9234 B( 22-C , 24-H ) :   0.9253 B( 22-C , 25-C ) :   1.0594
B( 25-C , 26-H ) :   0.9548 B( 25-C , 27-H ) :   0.9561 B( 25-C , 28-C ) :   1.0889
B( 28-C , 29-H ) :   0.9760 B( 28-C , 30-H ) :   0.9745 B( 28-C , 31-H ) :   0.9735

Dispersion correction           -0.014324342
FINAL SINGLE POINT ENERGY     -1339.849725504645

DIPOLE MOMENT
-------------
                                X             Y             Z
Electronic contribution:    -16.97335      17.39890      11.43119
Nuclear contribution   :     17.42489     -17.47840     -11.98551
                        -----------------------------------------
Total Dipole Moment    :      0.45154      -0.07950      -0.55432
                        -----------------------------------------
Magnitude (a.u.)       :      0.71936
Magnitude (Debye)      :      1.82847

Rotational constants in cm-1:     0.019083     0.007816     0.006609
Rotational constants in MHz :   572.101479   234.314600   198.141463

                             ****ORCA TERMINATED NORMALLY****
TOTAL RUN TIME: 0 days 0 hours 0 minutes 31 seconds 788 msec
