                         Program Version 4.2.1 -  RELEASE  -
|  1> ! wB97X-D3 SP def2-SVP
|  2> %pal
|  3> nprocs 16
|  4> end
|  5>
|  6> * xyz 0 1
|  7> S 	 -2.14348 	 3.91007 	 83.7265
|  8> C 	 -0.619766 	 3.63425 	 82.8367
|  9> C 	 -0.80977 	 2.87895 	 81.6787
| 10> C 	 -2.22014 	 2.63815 	 81.3929
| 11> C 	 -3.01711 	 3.13949 	 82.4069
| 12> H 	 -2.59657 	 2.11968 	 80.5877
| 13> C 	 0.349191 	 2.47446 	 80.7754
| 14> H 	 -0.0528346 	 1.83649 	 80.0209
| 15> H 	 1.16928 	 2.00339 	 81.3862
| 16> C 	 1.1374 	 3.62189 	 79.9777
| 17> H 	 0.364804 	 4.24359 	 79.3882
| 18> H 	 1.58782 	 4.18566 	 80.744
| 19> C 	 2.08198 	 3.13049 	 78.8624
| 20> H 	 2.60859 	 3.98085 	 78.4134
| 21> H 	 2.69154 	 2.30741 	 79.1667
| 22> H 	 1.47602 	 2.76595 	 77.9959
| 23> S 	 -5.23105 	 1.38378 	 82.2739
| 24> C 	 -6.82707 	 2.10191 	 82.4434
| 25> C 	 -6.7395 	 3.46371 	 82.669
| 26> C 	 -5.45555 	 4.00393 	 82.5472
| 27> C 	 -4.47841 	 3.02679 	 82.3426
| 28> H 	 -7.6776 	 3.94066 	 82.9278
| 29> C 	 -5.25933 	 5.54226 	 82.7086
| 30> H 	 -4.64676 	 5.79722 	 83.5429
| 31> H 	 -6.09638 	 6.27018 	 82.8342
| 32> C 	 -4.53155 	 6.13024 	 81.4086
| 33> H 	 -4.94861 	 5.69291 	 80.4418
| 34> H 	 -3.49078 	 5.795 	 81.2936
| 35> C 	 -4.49592 	 7.62069 	 81.4219
| 36> H 	 -4.07927 	 7.81469 	 80.4866
| 37> H 	 -4.06587 	 8.25234 	 82.2419
| 38> H 	 -5.55688 	 7.85803 	 81.3548
| 39> H 	 0.343799 	 3.85618 	 83.2533
| 40> H 	 -7.71829 	 1.52621 	 82.417
| 41> *
| 42>
| 43>                          ****END OF INPUT****

CARTESIAN COORDINATES (ANGSTROEM)
---------------------------------
  S     -2.143480    3.910070   83.726500
  C     -0.619766    3.634250   82.836700
  C     -0.809770    2.878950   81.678700
  C     -2.220140    2.638150   81.392900
  C     -3.017110    3.139490   82.406900
  H     -2.596570    2.119680   80.587700
  C      0.349191    2.474460   80.775400
  H     -0.052835    1.836490   80.020900
  H      1.169280    2.003390   81.386200
  C      1.137400    3.621890   79.977700
  H      0.364804    4.243590   79.388200
  H      1.587820    4.185660   80.744000
  C      2.081980    3.130490   78.862400
  H      2.608590    3.980850   78.413400
  H      2.691540    2.307410   79.166700
  H      1.476020    2.765950   77.995900
  S     -5.231050    1.383780   82.273900
  C     -6.827070    2.101910   82.443400
  C     -6.739500    3.463710   82.669000
  C     -5.455550    4.003930   82.547200
  C     -4.478410    3.026790   82.342600
  H     -7.677600    3.940660   82.927800
  C     -5.259330    5.542260   82.708600
  H     -4.646760    5.797220   83.542900
  H     -6.096380    6.270180   82.834200
  C     -4.531550    6.130240   81.408600
  H     -4.948610    5.692910   80.441800
  H     -3.490780    5.795000   81.293600
  C     -4.495920    7.620690   81.421900
  H     -4.079270    7.814690   80.486600
  H     -4.065870    8.252340   82.241900
  H     -5.556880    7.858030   81.354800
  H      0.343799    3.856180   83.253300
  H     -7.718290    1.526210   82.417000

 Total Charge           Charge          ....    0
 Multiplicity           Mult            ....    1
 Number of Electrons    NEL             ....  134
 Basis Dimension        Dim             ....  322

ORBITAL ENERGIES
----------------

  NO   OCC          E(Eh)            E(eV)
   0   2.0000     -88.971372     -2421.0341
   1   2.0000     -88.966717     -2420.9074
   2   2.0000     -10.331192      -281.1260
   3   2.0000     -10.330068      -281.0954
   4   2.0000     -10.316172      -280.7173
   5   2.0000     -10.314751      -280.6787
   6   2.0000     -10.307407      -280.4788
   7   2.0000     -10.307372      -280.4778
   8   2.0000     -10.297159      -280.1999
   9   2.0000     -10.295744      -280.1614
  10   2.0000     -10.293467      -280.0995
  11   2.0000     -10.293294      -280.0948
  12   2.0000     -10.289862      -280.0014
  13   2.0000     -10.284274      -279.8493
  14   2.0000     -10.282933      -279.8128
  15   2.0000     -10.268800      -279.4282
  16   2.0000      -8.084832      -219.9995
  17   2.0000      -8.080302      -219.8762
  18   2.0000      -6.043435      -164.4502
  19   2.0000      -6.039612      -164.3462
  20   2.0000      -6.038813      -164.3244
  21   2.0000      -6.035483      -164.2338
  22   2.0000      -6.035047      -164.2220
  23   2.0000      -6.031061      -164.1135
  24   2.0000      -0.998681       -27.1755
  25   2.0000      -0.976478       -26.5713
  26   2.0000      -0.902537       -24.5593
  27   2.0000      -0.900255       -24.4972
  28   2.0000      -0.864512       -23.5246
  29   2.0000      -0.853187       -23.2164
  30   2.0000      -0.847464       -23.0607
  31   2.0000      -0.811067       -22.0703
  32   2.0000      -0.780416       -21.2362
  33   2.0000      -0.768082       -20.9006
  34   2.0000      -0.703212       -19.1354
  35   2.0000      -0.697925       -18.9915
  36   2.0000      -0.684756       -18.6332
  37   2.0000      -0.659708       -17.9516
  38   2.0000      -0.643626       -17.5139
  39   2.0000      -0.613305       -16.6889
  40   2.0000      -0.598101       -16.2752
  41   2.0000      -0.570051       -15.5119
  42   2.0000      -0.560112       -15.2414
  43   2.0000      -0.555523       -15.1165
  44   2.0000      -0.524790       -14.2802
  45   2.0000      -0.522679       -14.2228
  46   2.0000      -0.512937       -13.9577
  47   2.0000      -0.512603       -13.9486
  48   2.0000      -0.505003       -13.7418
  49   2.0000      -0.500572       -13.6213
  50   2.0000      -0.489310       -13.3148
  51   2.0000      -0.476938       -12.9781
  52   2.0000      -0.469809       -12.7841
  53   2.0000      -0.467846       -12.7307
  54   2.0000      -0.458319       -12.4715
  55   2.0000      -0.455202       -12.3867
  56   2.0000      -0.444235       -12.0882
  57   2.0000      -0.434900       -11.8342
  58   2.0000      -0.428995       -11.6735
  59   2.0000      -0.420473       -11.4416
  60   2.0000      -0.413956       -11.2643
  61   2.0000      -0.409071       -11.1314
  62   2.0000      -0.398233       -10.8365
  63   2.0000      -0.340241        -9.2584
  64   2.0000      -0.333951        -9.0873
  65   2.0000      -0.327912        -8.9229
  66   2.0000      -0.292689        -7.9645
  67   0.0000       0.026634         0.7247
  68   0.0000       0.064876         1.7654
  69   0.0000       0.100143         2.7250
  70   0.0000       0.111599         3.0368
  71   0.0000       0.125998         3.4286

MULLIKEN ATOMIC CHARGES
-----------------------
   0 S :    0.121955
   1 C :   -0.131274
   2 C :   -0.057388
   3 C :    0.041732
   4 C :   -0.134244
   5 H :   -0.012461
   6 C :    0.044440
   7 H :    0.010949
   8 H :    0.044632
   9 C :   -0.095815
  10 H :    0.040133
  11 H :    0.024692
  12 C :   -0.047859
  13 H :    0.044766
  14 H :    0.032445
  15 H :    0.030153
  16 S :    0.100737
  17 C :   -0.096614
  18 C :   -0.041873
  19 C :    0.022582
  20 C :   -0.171202
  21 H :    0.020123
  22 C :    0.073386
  23 H :    0.021032
  24 H :    0.024127
  25 C :   -0.146140
  26 H :    0.039472
  27 H :    0.034758
  28 C :   -0.015605
  29 H :    0.017176
  30 H :    0.052314
  31 H :    0.015571
  32 H :    0.044586
  33 H :    0.048715
Sum of atomic charges:    0.0000000

LOEWDIN ATOMIC CHARGES
----------------------
   0 S :    0.395289
   1 C :   -0.186732
   2 C :   -0.054367
   3 C :   -0.047933
   4 C :   -0.184772
   5 H :    0.018860
   6 C :   -0.035160
   7 H :    0.021798
   8 H :    0.038148
   9 C :   -0.038033
  10 H :    0.032671
  11 H :    0.010814
  12 C :   -0.069736
  13 H :    0.033137
  14 H :    0.019053
  15 H :    0.030701
  16 S :    0.383454
  17 C :   -0.175825
  18 C :   -0.072131
  19 C :   -0.052311
  20 C :   -0.183246
  21 H :    0.033744
  22 C :   -0.031999
  23 H :    0.022283
  24 H :    0.033663
  25 C :   -0.046297
  26 H :    0.032133
  27 H :    0.020255
  28 C :   -0.071194
  29 H :    0.022469
  30 H :    0.034248
  31 H :    0.022331
  32 H :    0.022292
  33 H :    0.022393

  Mayer bond orders larger than 0.100000
B(  0-S ,  1-C ) :   1.1217 B(  0-S ,  4-C ) :   1.1419 B(  1-C ,  2-C ) :   1.6168
B(  1-C , 32-H ) :   0.9715 B(  2-C ,  3-C ) :   1.2113 B(  2-C ,  6-C ) :   1.0384
B(  3-C ,  4-C ) :   1.5694 B(  3-C ,  5-H ) :   1.0082 B(  4-C , 20-C ) :   1.0536
B(  6-C ,  7-H ) :   0.9431 B(  6-C ,  8-H ) :   0.9390 B(  6-C ,  9-C ) :   1.0522
B(  9-C , 10-H ) :   0.9604 B(  9-C , 11-H ) :   0.9617 B(  9-C , 12-C ) :   1.0752
B( 12-C , 13-H ) :   0.9724 B( 12-C , 14-H ) :   0.9765 B( 12-C , 15-H ) :   0.9740
B( 16-S , 17-C ) :   1.1546 B( 16-S , 20-C ) :   1.1338 B( 17-C , 18-C ) :   1.5987
B( 17-C , 20-C ) :   0.1076 B( 17-C , 33-H ) :   0.9718 B( 18-C , 19-C ) :   1.2488
B( 18-C , 21-H ) :   0.9956 B( 19-C , 20-C ) :   1.5680 B( 19-C , 22-C ) :   1.0215
B( 22-C , 23-H ) :   0.9319 B( 22-C , 24-H ) :   0.9581 B( 22-C , 25-C ) :   1.0387
B( 25-C , 26-H ) :   0.9582 B( 25-C , 27-H ) :   0.9538 B( 25-C , 28-C ) :   1.0791
B( 28-C , 29-H ) :   0.9669 B( 28-C , 30-H ) :   0.9743 B( 28-C , 31-H ) :   0.9712

Dispersion correction           -0.014270862
FINAL SINGLE POINT ENERGY     -1339.854134499683

DIPOLE MOMENT
-------------
                                X             Y             Z
Electronic contribution:    -13.53421     -14.95740      15.66166
Nuclear contribution   :     13.68897      15.17984     -15.94825
                        -----------------------------------------
Total Dipole Moment    :      0.15476       0.22244      -0.28659
                        -----------------------------------------
Magnitude (a.u.)       :      0.39441
Magnitude (Debye)      :      1.00251

Rotational constants in cm-1:     0.018942     0.007869     0.006662
Rotational constants in MHz :   567.856934   235.910900   199.734484

                             ****ORCA TERMINATED NORMALLY****
TOTAL RUN TIME: 0 days 0 hours 0 minutes 31 seconds 443 msec
