                         Program Version 4.2.1 -  RELEASE  -
|  1> ! wB97X-D3 SP def2-SVP
|  2> %pal
|  3> nprocs 16
|  4> end
|  5>
|  6> * xyz 0 1
|  7> S 	 -46.4359 	 41.6283 	 82.5253
|  8> C 	 -47.524 	 42.0598 	 83.8767
|  9> C 	 -47.7368 	 40.973 	 84.7102
| 10> C 	 -46.9735 	 39.8162 	 84.2237
| 11> C 	 -46.1469 	 40.03 	 83.1367
| 12> H 	 -46.9736 	 38.8075 	 84.7228
| 13> C 	 -48.8633 	 40.8651 	 85.7097
| 14> H 	 -49.1115 	 41.883 	 86.1562
| 15> H 	 -48.5444 	 40.4143 	 86.6964
| 16> C 	 -50.1584 	 40.139 	 85.2642
| 17> H 	 -50.8795 	 40.5943 	 85.8942
| 18> H 	 -50.5152 	 40.274 	 84.2482
| 19> C 	 -50.1169 	 38.6457 	 85.5197
| 20> H 	 -51.0726 	 38.3069 	 85.1251
| 21> H 	 -49.3263 	 38.1746 	 85.0581
| 22> H 	 -50.0058 	 38.36 	 86.6099
| 23> S 	 -43.6948 	 40.0149 	 81.8223
| 24> C 	 -42.8956 	 38.4873 	 81.4203
| 25> C 	 -43.7701 	 37.4415 	 81.6944
| 26> C 	 -45.006 	 37.8269 	 82.2491
| 27> C 	 -45.137 	 39.2366 	 82.4926
| 28> H 	 -43.6205 	 36.3689 	 81.5711
| 29> C 	 -46.0867 	 36.7717 	 82.2276
| 30> H 	 -46.1321 	 36.1297 	 83.1746
| 31> H 	 -45.6821 	 35.901 	 81.6697
| 32> C 	 -47.3562 	 37.1363 	 81.5385
| 33> H 	 -47.7648 	 37.842 	 82.2644
| 34> H 	 -47.9607 	 36.2129 	 81.5054
| 35> C 	 -47.3726 	 37.6635 	 80.0799
| 36> H 	 -46.8371 	 38.6104 	 79.8415
| 37> H 	 -48.4718 	 37.81 	 79.898
| 38> H 	 -46.9809 	 36.8783 	 79.4903
| 39> H 	 -48.0639 	 42.9697 	 83.9425
| 40> H 	 -41.9743 	 38.2636 	 80.9308
| 41> *
| 42>
| 43>                          ****END OF INPUT****

CARTESIAN COORDINATES (ANGSTROEM)
---------------------------------
  S    -46.435900   41.628300   82.525300
  C    -47.524000   42.059800   83.876700
  C    -47.736800   40.973000   84.710200
  C    -46.973500   39.816200   84.223700
  C    -46.146900   40.030000   83.136700
  H    -46.973600   38.807500   84.722800
  C    -48.863300   40.865100   85.709700
  H    -49.111500   41.883000   86.156200
  H    -48.544400   40.414300   86.696400
  C    -50.158400   40.139000   85.264200
  H    -50.879500   40.594300   85.894200
  H    -50.515200   40.274000   84.248200
  C    -50.116900   38.645700   85.519700
  H    -51.072600   38.306900   85.125100
  H    -49.326300   38.174600   85.058100
  H    -50.005800   38.360000   86.609900
  S    -43.694800   40.014900   81.822300
  C    -42.895600   38.487300   81.420300
  C    -43.770100   37.441500   81.694400
  C    -45.006000   37.826900   82.249100
  C    -45.137000   39.236600   82.492600
  H    -43.620500   36.368900   81.571100
  C    -46.086700   36.771700   82.227600
  H    -46.132100   36.129700   83.174600
  H    -45.682100   35.901000   81.669700
  C    -47.356200   37.136300   81.538500
  H    -47.764800   37.842000   82.264400
  H    -47.960700   36.212900   81.505400
  C    -47.372600   37.663500   80.079900
  H    -46.837100   38.610400   79.841500
  H    -48.471800   37.810000   79.898000
  H    -46.980900   36.878300   79.490300
  H    -48.063900   42.969700   83.942500
  H    -41.974300   38.263600   80.930800

 Total Charge           Charge          ....    0
 Multiplicity           Mult            ....    1
 Number of Electrons    NEL             ....  134
 Basis Dimension        Dim             ....  322

ORBITAL ENERGIES
----------------

  NO   OCC          E(Eh)            E(eV)
   0   2.0000     -88.971802     -2421.0458
   1   2.0000     -88.964619     -2420.8504
   2   2.0000     -10.335958      -281.2557
   3   2.0000     -10.333428      -281.1869
   4   2.0000     -10.321620      -280.8656
   5   2.0000     -10.317265      -280.7470
   6   2.0000     -10.308895      -280.5193
   7   2.0000     -10.304021      -280.3867
   8   2.0000     -10.303286      -280.3667
   9   2.0000     -10.302341      -280.3410
  10   2.0000     -10.293286      -280.0946
  11   2.0000     -10.292871      -280.0833
  12   2.0000     -10.284990      -279.8688
  13   2.0000     -10.282939      -279.8130
  14   2.0000     -10.278665      -279.6967
  15   2.0000     -10.274601      -279.5861
  16   2.0000      -8.085264      -220.0112
  17   2.0000      -8.079278      -219.8483
  18   2.0000      -6.043954      -164.4644
  19   2.0000      -6.039790      -164.3510
  20   2.0000      -6.037895      -164.2995
  21   2.0000      -6.036019      -164.2484
  22   2.0000      -6.033814      -164.1884
  23   2.0000      -6.029892      -164.0817
  24   2.0000      -1.004765       -27.3410
  25   2.0000      -0.979978       -26.6665
  26   2.0000      -0.913943       -24.8696
  27   2.0000      -0.909922       -24.7602
  28   2.0000      -0.874663       -23.8008
  29   2.0000      -0.846602       -23.0372
  30   2.0000      -0.840664       -22.8756
  31   2.0000      -0.814429       -22.1617
  32   2.0000      -0.784401       -21.3446
  33   2.0000      -0.775015       -21.0892
  34   2.0000      -0.714024       -19.4296
  35   2.0000      -0.704435       -19.1687
  36   2.0000      -0.683369       -18.5954
  37   2.0000      -0.663496       -18.0546
  38   2.0000      -0.643597       -17.5132
  39   2.0000      -0.613258       -16.6876
  40   2.0000      -0.594202       -16.1691
  41   2.0000      -0.574818       -15.6416
  42   2.0000      -0.553272       -15.0553
  43   2.0000      -0.547910       -14.9094
  44   2.0000      -0.545113       -14.8333
  45   2.0000      -0.534759       -14.5515
  46   2.0000      -0.516009       -14.0413
  47   2.0000      -0.514783       -14.0079
  48   2.0000      -0.504766       -13.7354
  49   2.0000      -0.495254       -13.4765
  50   2.0000      -0.486322       -13.2335
  51   2.0000      -0.483523       -13.1573
  52   2.0000      -0.479022       -13.0348
  53   2.0000      -0.467476       -12.7207
  54   2.0000      -0.458996       -12.4899
  55   2.0000      -0.443896       -12.0790
  56   2.0000      -0.441300       -12.0084
  57   2.0000      -0.437778       -11.9126
  58   2.0000      -0.430686       -11.7196
  59   2.0000      -0.419707       -11.4208
  60   2.0000      -0.416532       -11.3344
  61   2.0000      -0.409542       -11.1442
  62   2.0000      -0.392826       -10.6893
  63   2.0000      -0.356104        -9.6901
  64   2.0000      -0.330354        -8.9894
  65   2.0000      -0.328091        -8.9278
  66   2.0000      -0.284866        -7.7516
  67   0.0000       0.015283         0.4159
  68   0.0000       0.074052         2.0151
  69   0.0000       0.098430         2.6784
  70   0.0000       0.117849         3.2068
  71   0.0000       0.129669         3.5285

MULLIKEN ATOMIC CHARGES
-----------------------
   0 S :    0.083727
   1 C :   -0.097551
   2 C :   -0.055881
   3 C :   -0.002304
   4 C :   -0.139059
   5 H :    0.033480
   6 C :   -0.011449
   7 H :    0.026699
   8 H :    0.030037
   9 C :   -0.026631
  10 H :    0.018787
  11 H :    0.034358
  12 C :   -0.038583
  13 H :    0.032637
  14 H :    0.014486
  15 H :    0.031500
  16 S :    0.113036
  17 C :   -0.068491
  18 C :   -0.038281
  19 C :   -0.037536
  20 C :   -0.142481
  21 H :    0.023054
  22 C :    0.021480
  23 H :    0.038508
  24 H :   -0.007372
  25 C :   -0.077381
  26 H :    0.035796
  27 H :    0.029110
  28 C :   -0.039166
  29 H :    0.053575
  30 H :    0.045286
  31 H :    0.023332
  32 H :    0.040118
  33 H :    0.053160
Sum of atomic charges:   -0.0000000

LOEWDIN ATOMIC CHARGES
----------------------
   0 S :    0.390083
   1 C :   -0.173968
   2 C :   -0.062333
   3 C :   -0.073508
   4 C :   -0.194747
   5 H :    0.036839
   6 C :   -0.045262
   7 H :    0.035144
   8 H :    0.036418
   9 C :   -0.034227
  10 H :    0.023434
  11 H :    0.028099
  12 C :   -0.058829
  13 H :    0.028808
  14 H :    0.009449
  15 H :    0.029456
  16 S :    0.406492
  17 C :   -0.183283
  18 C :   -0.069943
  19 C :   -0.057861
  20 C :   -0.199876
  21 H :    0.032632
  22 C :   -0.055062
  23 H :    0.041851
  24 H :    0.025087
  25 C :   -0.048589
  26 H :    0.022104
  27 H :    0.030216
  28 C :   -0.060281
  29 H :    0.031284
  30 H :    0.037676
  31 H :    0.017969
  32 H :    0.022542
  33 H :    0.032185

  Mayer bond orders larger than 0.100000
B(  0-S ,  1-C ) :   1.1231 B(  0-S ,  4-C ) :   1.1381 B(  1-C ,  2-C ) :   1.6245
B(  1-C , 32-H ) :   0.9745 B(  2-C ,  3-C ) :   1.2172 B(  2-C ,  6-C ) :   1.0458
B(  3-C ,  4-C ) :   1.5864 B(  3-C ,  5-H ) :   0.9799 B(  4-C , 20-C ) :   1.0871
B(  6-C ,  7-H ) :   0.9463 B(  6-C ,  8-H ) :   0.9362 B(  6-C ,  9-C ) :   1.0452
B(  9-C , 10-H ) :   0.9512 B(  9-C , 11-H ) :   0.9614 B(  9-C , 12-C ) :   1.0830
B( 12-C , 13-H ) :   0.9726 B( 12-C , 14-H ) :   0.9765 B( 12-C , 15-H ) :   0.9731
B( 16-S , 17-C ) :   1.1522 B( 16-S , 20-C ) :   1.1372 B( 17-C , 18-C ) :   1.5610
B( 17-C , 20-C ) :   0.1115 B( 17-C , 33-H ) :   0.9709 B( 18-C , 19-C ) :   1.3240
B( 18-C , 21-H ) :   0.9765 B( 19-C , 20-C ) :   1.5117 B( 19-C , 22-C ) :   1.0389
B( 22-C , 23-H ) :   0.9192 B( 22-C , 24-H ) :   0.9297 B( 22-C , 25-C ) :   1.0706
B( 25-C , 26-H ) :   0.9499 B( 25-C , 27-H ) :   0.9506 B( 25-C , 28-C ) :   1.0710
B( 28-C , 29-H ) :   0.9736 B( 28-C , 30-H ) :   0.9740 B( 28-C , 31-H ) :   0.9751

Dispersion correction           -0.015373316
FINAL SINGLE POINT ENERGY     -1339.850401831006

DIPOLE MOMENT
-------------
                                X             Y             Z
Electronic contribution:     22.36645      15.42099      -5.91252
Nuclear contribution   :    -22.86802     -15.97359       6.05539
                        -----------------------------------------
Total Dipole Moment    :     -0.50157      -0.55260       0.14287
                        -----------------------------------------
Magnitude (a.u.)       :      0.75984
Magnitude (Debye)      :      1.93135

Rotational constants in cm-1:     0.020534     0.009389     0.007510
Rotational constants in MHz :   615.599665   281.474671   225.134745

                             ****ORCA TERMINATED NORMALLY****
TOTAL RUN TIME: 0 days 0 hours 0 minutes 31 seconds 754 msec
