                         Program Version 4.2.1 -  RELEASE  -
|  1> ! wB97X-D3 SP def2-SVP
|  2> %pal
|  3> nprocs 16
|  4> end
|  5>
|  6> * xyz 0 1
|  7> S 	 -44.6972 	 50.233 	 102.907
|  8> C 	 -44.6011 	 50.4272 	 104.715
|  9> C 	 -44.5031 	 49.1969 	 105.34
| 10> C 	 -44.4838 	 48.1012 	 104.419
| 11> C 	 -44.5666 	 48.462 	 103.101
| 12> H 	 -44.3814 	 47.0344 	 104.562
| 13> C 	 -44.4647 	 49.0054 	 106.794
| 14> H 	 -45.0966 	 48.1308 	 106.971
| 15> H 	 -44.8891 	 49.8536 	 107.299
| 16> C 	 -43.1307 	 48.8606 	 107.618
| 17> H 	 -42.4414 	 49.5383 	 107.155
| 18> H 	 -43.3023 	 49.289 	 108.609
| 19> C 	 -42.5083 	 47.5252 	 107.688
| 20> H 	 -41.8366 	 47.3981 	 108.526
| 21> H 	 -43.2093 	 46.6875 	 107.695
| 22> H 	 -42.011 	 47.3421 	 106.729
| 23> S 	 -42.8011 	 47.3542 	 101.442
| 24> C 	 -43.2203 	 46.1727 	 100.244
| 25> C 	 -44.5992 	 45.9413 	 100.257
| 26> C 	 -45.2741 	 46.7606 	 101.283
| 27> C 	 -44.3571 	 47.5622 	 102.015
| 28> H 	 -45.0937 	 45.2815 	 99.6159
| 29> C 	 -46.7368 	 46.5962 	 101.625
| 30> H 	 -47.3879 	 46.8067 	 100.695
| 31> H 	 -47.0307 	 47.4064 	 102.33
| 32> C 	 -47.1775 	 45.285 	 102.201
| 33> H 	 -46.5484 	 44.5414 	 101.798
| 34> H 	 -48.1663 	 45.1608 	 101.757
| 35> C 	 -47.1026 	 45.138 	 103.74
| 36> H 	 -46.1034 	 45.2312 	 104.133
| 37> H 	 -47.5034 	 44.1262 	 103.996
| 38> H 	 -47.6827 	 45.8591 	 104.266
| 39> H 	 -44.5575 	 51.4218 	 105.187
| 40> H 	 -42.3895 	 45.7478 	 99.6844
| 41> *
| 42>
| 43>                          ****END OF INPUT****

CARTESIAN COORDINATES (ANGSTROEM)
---------------------------------
  S    -44.697200   50.233000  102.907000
  C    -44.601100   50.427200  104.715000
  C    -44.503100   49.196900  105.340000
  C    -44.483800   48.101200  104.419000
  C    -44.566600   48.462000  103.101000
  H    -44.381400   47.034400  104.562000
  C    -44.464700   49.005400  106.794000
  H    -45.096600   48.130800  106.971000
  H    -44.889100   49.853600  107.299000
  C    -43.130700   48.860600  107.618000
  H    -42.441400   49.538300  107.155000
  H    -43.302300   49.289000  108.609000
  C    -42.508300   47.525200  107.688000
  H    -41.836600   47.398100  108.526000
  H    -43.209300   46.687500  107.695000
  H    -42.011000   47.342100  106.729000
  S    -42.801100   47.354200  101.442000
  C    -43.220300   46.172700  100.244000
  C    -44.599200   45.941300  100.257000
  C    -45.274100   46.760600  101.283000
  C    -44.357100   47.562200  102.015000
  H    -45.093700   45.281500   99.615900
  C    -46.736800   46.596200  101.625000
  H    -47.387900   46.806700  100.695000
  H    -47.030700   47.406400  102.330000
  C    -47.177500   45.285000  102.201000
  H    -46.548400   44.541400  101.798000
  H    -48.166300   45.160800  101.757000
  C    -47.102600   45.138000  103.740000
  H    -46.103400   45.231200  104.133000
  H    -47.503400   44.126200  103.996000
  H    -47.682700   45.859100  104.266000
  H    -44.557500   51.421800  105.187000
  H    -42.389500   45.747800   99.684400

 Total Charge           Charge          ....    0
 Multiplicity           Mult            ....    1
 Number of Electrons    NEL             ....  134
 Basis Dimension        Dim             ....  322

ORBITAL ENERGIES
----------------

  NO   OCC          E(Eh)            E(eV)
   0   2.0000     -88.965269     -2420.8681
   1   2.0000     -88.962418     -2420.7905
   2   2.0000     -10.327072      -281.0139
   3   2.0000     -10.322823      -280.8983
   4   2.0000     -10.320913      -280.8463
   5   2.0000     -10.319094      -280.7968
   6   2.0000     -10.307457      -280.4802
   7   2.0000     -10.303318      -280.3675
   8   2.0000     -10.299304      -280.2583
   9   2.0000     -10.294389      -280.1246
  10   2.0000     -10.291127      -280.0358
  11   2.0000     -10.287799      -279.9452
  12   2.0000     -10.283042      -279.8158
  13   2.0000     -10.278945      -279.7043
  14   2.0000     -10.276581      -279.6400
  15   2.0000     -10.272615      -279.5321
  16   2.0000      -8.079171      -219.8454
  17   2.0000      -8.078493      -219.8270
  18   2.0000      -6.037389      -164.2857
  19   2.0000      -6.037115      -164.2783
  20   2.0000      -6.033329      -164.1752
  21   2.0000      -6.033155      -164.1705
  22   2.0000      -6.030332      -164.0937
  23   2.0000      -6.029097      -164.0601
  24   2.0000      -1.009025       -27.4570
  25   2.0000      -0.979748       -26.6603
  26   2.0000      -0.913776       -24.8651
  27   2.0000      -0.910530       -24.7768
  28   2.0000      -0.874778       -23.8039
  29   2.0000      -0.849175       -23.1072
  30   2.0000      -0.844285       -22.9742
  31   2.0000      -0.817556       -22.2468
  32   2.0000      -0.784081       -21.3359
  33   2.0000      -0.771692       -20.9988
  34   2.0000      -0.706753       -19.2317
  35   2.0000      -0.705049       -19.1854
  36   2.0000      -0.695016       -18.9124
  37   2.0000      -0.659991       -17.9593
  38   2.0000      -0.644928       -17.5494
  39   2.0000      -0.614421       -16.7192
  40   2.0000      -0.602189       -16.3864
  41   2.0000      -0.570287       -15.5183
  42   2.0000      -0.553606       -15.0644
  43   2.0000      -0.551983       -15.0202
  44   2.0000      -0.541601       -14.7377
  45   2.0000      -0.533468       -14.5164
  46   2.0000      -0.520150       -14.1540
  47   2.0000      -0.514613       -14.0033
  48   2.0000      -0.507583       -13.8120
  49   2.0000      -0.500278       -13.6133
  50   2.0000      -0.489130       -13.3099
  51   2.0000      -0.486148       -13.2288
  52   2.0000      -0.473243       -12.8776
  53   2.0000      -0.466489       -12.6938
  54   2.0000      -0.457658       -12.4535
  55   2.0000      -0.444977       -12.1084
  56   2.0000      -0.443551       -12.0696
  57   2.0000      -0.435351       -11.8465
  58   2.0000      -0.433999       -11.8097
  59   2.0000      -0.422499       -11.4968
  60   2.0000      -0.418124       -11.3777
  61   2.0000      -0.411366       -11.1938
  62   2.0000      -0.408094       -11.1048
  63   2.0000      -0.338279        -9.2050
  64   2.0000      -0.327018        -8.8986
  65   2.0000      -0.316192        -8.6040
  66   2.0000      -0.311436        -8.4746
  67   0.0000       0.043580         1.1859
  68   0.0000       0.053081         1.4444
  69   0.0000       0.105557         2.8724
  70   0.0000       0.115467         3.1420
  71   0.0000       0.124433         3.3860

MULLIKEN ATOMIC CHARGES
-----------------------
   0 S :    0.098004
   1 C :   -0.144394
   2 C :   -0.032764
   3 C :    0.040227
   4 C :   -0.170322
   5 H :    0.013853
   6 C :    0.046797
   7 H :    0.027794
   8 H :    0.014047
   9 C :   -0.050844
  10 H :    0.018727
  11 H :    0.025324
  12 C :   -0.034718
  13 H :    0.038519
  14 H :    0.015388
  15 H :    0.030091
  16 S :    0.125004
  17 C :   -0.110717
  18 C :    0.007409
  19 C :   -0.039760
  20 C :   -0.190536
  21 H :    0.002939
  22 C :    0.005268
  23 H :    0.039447
  24 H :    0.031561
  25 C :   -0.027375
  26 H :    0.010912
  27 H :    0.025337
  28 C :   -0.036440
  29 H :    0.026408
  30 H :    0.037019
  31 H :    0.024198
  32 H :    0.062798
  33 H :    0.070800
Sum of atomic charges:    0.0000000

LOEWDIN ATOMIC CHARGES
----------------------
   0 S :    0.358643
   1 C :   -0.172340
   2 C :   -0.066329
   3 C :   -0.055630
   4 C :   -0.186314
   5 H :    0.033145
   6 C :   -0.033415
   7 H :    0.032625
   8 H :    0.032352
   9 C :   -0.038520
  10 H :    0.023679
  11 H :    0.023949
  12 C :   -0.070768
  13 H :    0.028197
  14 H :    0.021443
  15 H :    0.030216
  16 S :    0.455472
  17 C :   -0.191524
  18 C :   -0.062244
  19 C :   -0.052950
  20 C :   -0.240964
  21 H :    0.021122
  22 C :   -0.046644
  23 H :    0.040050
  24 H :    0.033069
  25 C :   -0.040323
  26 H :    0.017718
  27 H :    0.028189
  28 C :   -0.059357
  29 H :    0.021850
  30 H :    0.032692
  31 H :    0.018700
  32 H :    0.034203
  33 H :    0.030008

  Mayer bond orders larger than 0.100000
B(  0-S ,  1-C ) :   1.1187 B(  0-S ,  4-C ) :   1.1212 B(  1-C ,  2-C ) :   1.6253
B(  1-C , 32-H ) :   0.9669 B(  2-C ,  3-C ) :   1.1822 B(  2-C ,  6-C ) :   1.0473
B(  3-C ,  4-C ) :   1.6327 B(  3-C ,  5-H ) :   0.9903 B(  4-C , 20-C ) :   1.0296
B(  6-C ,  7-H ) :   0.9400 B(  6-C ,  8-H ) :   0.9343 B(  6-C ,  9-C ) :   1.0624
B(  9-C , 10-H ) :   0.9504 B(  9-C , 11-H ) :   0.9607 B(  9-C , 12-C ) :   1.0833
B( 12-C , 13-H ) :   0.9715 B( 12-C , 14-H ) :   0.9754 B( 12-C , 15-H ) :   0.9728
B( 16-S , 17-C ) :   1.1843 B( 16-S , 20-C ) :   1.1867 B( 17-C , 18-C ) :   1.5451
B( 17-C , 33-H ) :   0.9735 B( 18-C , 19-C ) :   1.2608 B( 18-C , 21-H ) :   1.0026
B( 19-C , 20-C ) :   1.5460 B( 19-C , 22-C ) :   1.0685 B( 22-C , 23-H ) :   0.9360
B( 22-C , 24-H ) :   0.9310 B( 22-C , 25-C ) :   1.0593 B( 25-C , 26-H ) :   0.9562
B( 25-C , 27-H ) :   0.9534 B( 25-C , 28-C ) :   1.0788 B( 28-C , 29-H ) :   0.9750
B( 28-C , 30-H ) :   0.9721 B( 28-C , 31-H ) :   0.9757

Dispersion correction           -0.014941072
FINAL SINGLE POINT ENERGY     -1339.873873840025

DIPOLE MOMENT
-------------
                                X             Y             Z
Electronic contribution:      7.68648      12.41420     -19.45096
Nuclear contribution   :     -7.78437     -12.76529      19.81690
                        -----------------------------------------
Total Dipole Moment    :     -0.09789      -0.35109       0.36594
                        -----------------------------------------
Magnitude (a.u.)       :      0.51649
Magnitude (Debye)      :      1.31281

Rotational constants in cm-1:     0.018053     0.008660     0.007862
Rotational constants in MHz :   541.202957   259.605575   235.706566

                             ****ORCA TERMINATED NORMALLY****
TOTAL RUN TIME: 0 days 0 hours 0 minutes 28 seconds 955 msec
