                         Program Version 4.2.1 -  RELEASE  -
|  1> ! wB97X-D3 SP def2-SVP
|  2> %pal
|  3> nprocs 16
|  4> end
|  5>
|  6> * xyz 0 1
|  7> S 	 -14.0246 	 75.6241 	 53.2238
|  8> C 	 -14.5665 	 74.4309 	 52.1308
|  9> C 	 -14.8339 	 73.2699 	 52.793
| 10> C 	 -14.5926 	 73.3612 	 54.1835
| 11> C 	 -14.0412 	 74.5438 	 54.5591
| 12> H 	 -14.89 	 72.6682 	 54.9641
| 13> C 	 -15.4066 	 72.0176 	 52.1589
| 14> H 	 -15.177 	 71.1678 	 52.9685
| 15> H 	 -14.8715 	 71.7313 	 51.2795
| 16> C 	 -16.9867 	 72.0704 	 51.8749
| 17> H 	 -17.4812 	 72.3734 	 52.7325
| 18> H 	 -17.306 	 72.8058 	 51.1934
| 19> C 	 -17.6277 	 70.6456 	 51.5774
| 20> H 	 -17.5893 	 69.9654 	 52.3943
| 21> H 	 -18.7124 	 70.8579 	 51.5102
| 22> H 	 -17.2295 	 70.1348 	 50.7253
| 23> S 	 -14.5154 	 75.9745 	 56.8766
| 24> C 	 -13.3978 	 75.7438 	 58.1424
| 25> C 	 -12.2233 	 75.0672 	 57.8019
| 26> C 	 -12.222 	 74.6889 	 56.4387
| 27> C 	 -13.5002 	 74.9532 	 55.8512
| 28> H 	 -11.4727 	 74.8627 	 58.5436
| 29> C 	 -11.0723 	 73.8695 	 55.8525
| 30> H 	 -11.6366 	 73.1426 	 55.1593
| 31> H 	 -10.6957 	 73.2697 	 56.6271
| 32> C 	 -10.0878 	 74.6746 	 55.0328
| 33> H 	 -9.37781 	 73.9563 	 54.5961
| 34> H 	 -9.54949 	 75.3219 	 55.7962
| 35> C 	 -10.6113 	 75.6339 	 54.0176
| 36> H 	 -11.3335 	 75.0906 	 53.3854
| 37> H 	 -9.75384 	 76.1553 	 53.4744
| 38> H 	 -11.2389 	 76.4041 	 54.5525
| 39> H 	 -14.5634 	 74.5985 	 51.0892
| 40> H 	 -13.5869 	 76.1295 	 59.1061
| 41> *
| 42>
| 43>                          ****END OF INPUT****

CARTESIAN COORDINATES (ANGSTROEM)
---------------------------------
  S    -14.024600   75.624100   53.223800
  C    -14.566500   74.430900   52.130800
  C    -14.833900   73.269900   52.793000
  C    -14.592600   73.361200   54.183500
  C    -14.041200   74.543800   54.559100
  H    -14.890000   72.668200   54.964100
  C    -15.406600   72.017600   52.158900
  H    -15.177000   71.167800   52.968500
  H    -14.871500   71.731300   51.279500
  C    -16.986700   72.070400   51.874900
  H    -17.481200   72.373400   52.732500
  H    -17.306000   72.805800   51.193400
  C    -17.627700   70.645600   51.577400
  H    -17.589300   69.965400   52.394300
  H    -18.712400   70.857900   51.510200
  H    -17.229500   70.134800   50.725300
  S    -14.515400   75.974500   56.876600
  C    -13.397800   75.743800   58.142400
  C    -12.223300   75.067200   57.801900
  C    -12.222000   74.688900   56.438700
  C    -13.500200   74.953200   55.851200
  H    -11.472700   74.862700   58.543600
  C    -11.072300   73.869500   55.852500
  H    -11.636600   73.142600   55.159300
  H    -10.695700   73.269700   56.627100
  C    -10.087800   74.674600   55.032800
  H     -9.377810   73.956300   54.596100
  H     -9.549490   75.321900   55.796200
  C    -10.611300   75.633900   54.017600
  H    -11.333500   75.090600   53.385400
  H     -9.753840   76.155300   53.474400
  H    -11.238900   76.404100   54.552500
  H    -14.563400   74.598500   51.089200
  H    -13.586900   76.129500   59.106100

 Total Charge           Charge          ....    0
 Multiplicity           Mult            ....    1
 Number of Electrons    NEL             ....  134
 Basis Dimension        Dim             ....  322

ORBITAL ENERGIES
----------------

  NO   OCC          E(Eh)            E(eV)
   0   2.0000     -88.968907     -2420.9670
   1   2.0000     -88.959959     -2420.7236
   2   2.0000     -10.326864      -281.0082
   3   2.0000     -10.319913      -280.8191
   4   2.0000     -10.311754      -280.5971
   5   2.0000     -10.307168      -280.4723
   6   2.0000     -10.305358      -280.4231
   7   2.0000     -10.302091      -280.3341
   8   2.0000     -10.295815      -280.1634
   9   2.0000     -10.291992      -280.0594
  10   2.0000     -10.290872      -280.0289
  11   2.0000     -10.288647      -279.9683
  12   2.0000     -10.284826      -279.8643
  13   2.0000     -10.283654      -279.8325
  14   2.0000     -10.277634      -279.6686
  15   2.0000     -10.275813      -279.6191
  16   2.0000      -8.084176      -219.9816
  17   2.0000      -8.076100      -219.7619
  18   2.0000      -6.042342      -164.4205
  19   2.0000      -6.038634      -164.3196
  20   2.0000      -6.035254      -164.2276
  21   2.0000      -6.034405      -164.2045
  22   2.0000      -6.030226      -164.0908
  23   2.0000      -6.027149      -164.0071
  24   2.0000      -1.013227       -27.5713
  25   2.0000      -0.988869       -26.9085
  26   2.0000      -0.911424       -24.8011
  27   2.0000      -0.899433       -24.4748
  28   2.0000      -0.866638       -23.5824
  29   2.0000      -0.852059       -23.1857
  30   2.0000      -0.848504       -23.0890
  31   2.0000      -0.811376       -22.0787
  32   2.0000      -0.783911       -21.3313
  33   2.0000      -0.766537       -20.8585
  34   2.0000      -0.711231       -19.3536
  35   2.0000      -0.700253       -19.0548
  36   2.0000      -0.682568       -18.5736
  37   2.0000      -0.657418       -17.8893
  38   2.0000      -0.651739       -17.7347
  39   2.0000      -0.618177       -16.8214
  40   2.0000      -0.591419       -16.0933
  41   2.0000      -0.563974       -15.3465
  42   2.0000      -0.554468       -15.0878
  43   2.0000      -0.549200       -14.9445
  44   2.0000      -0.547499       -14.8982
  45   2.0000      -0.524530       -14.2732
  46   2.0000      -0.518910       -14.1203
  47   2.0000      -0.507572       -13.8117
  48   2.0000      -0.502438       -13.6720
  49   2.0000      -0.495332       -13.4787
  50   2.0000      -0.493439       -13.4272
  51   2.0000      -0.473667       -12.8891
  52   2.0000      -0.469588       -12.7782
  53   2.0000      -0.462503       -12.5853
  54   2.0000      -0.453576       -12.3424
  55   2.0000      -0.449381       -12.2283
  56   2.0000      -0.448525       -12.2050
  57   2.0000      -0.445011       -12.1094
  58   2.0000      -0.435925       -11.8621
  59   2.0000      -0.423258       -11.5174
  60   2.0000      -0.417490       -11.3605
  61   2.0000      -0.410619       -11.1735
  62   2.0000      -0.398659       -10.8481
  63   2.0000      -0.337707        -9.1895
  64   2.0000      -0.330454        -8.9921
  65   2.0000      -0.320983        -8.7344
  66   2.0000      -0.301706        -8.2098
  67   0.0000       0.043783         1.1914
  68   0.0000       0.052882         1.4390
  69   0.0000       0.119688         3.2569
  70   0.0000       0.124432         3.3860
  71   0.0000       0.128855         3.5063

MULLIKEN ATOMIC CHARGES
-----------------------
   0 S :    0.112951
   1 C :   -0.113398
   2 C :   -0.070570
   3 C :    0.052582
   4 C :   -0.188128
   5 H :    0.015719
   6 C :    0.027828
   7 H :    0.035949
   8 H :    0.029341
   9 C :   -0.023133
  10 H :    0.005459
  11 H :    0.021440
  12 C :   -0.056105
  13 H :    0.022547
  14 H :    0.033826
  15 H :    0.035259
  16 S :    0.133325
  17 C :   -0.073216
  18 C :   -0.042672
  19 C :   -0.026034
  20 C :   -0.207834
  21 H :    0.016976
  22 C :    0.079789
  23 H :    0.034306
  24 H :    0.015628
  25 C :   -0.070980
  26 H :    0.036076
  27 H :    0.023563
  28 C :   -0.066980
  29 H :    0.036939
  30 H :    0.053814
  31 H :    0.043922
  32 H :    0.034914
  33 H :    0.036897
Sum of atomic charges:    0.0000000

LOEWDIN ATOMIC CHARGES
----------------------
   0 S :    0.449310
   1 C :   -0.200394
   2 C :   -0.074554
   3 C :   -0.062213
   4 C :   -0.214544
   5 H :    0.036174
   6 C :   -0.031632
   7 H :    0.041193
   8 H :    0.023421
   9 C :   -0.027741
  10 H :    0.016865
  11 H :    0.018658
  12 C :   -0.062778
  13 H :    0.019302
  14 H :    0.032488
  15 H :    0.019467
  16 S :    0.428540
  17 C :   -0.189214
  18 C :   -0.074102
  19 C :   -0.042022
  20 C :   -0.211325
  21 H :    0.031154
  22 C :   -0.031774
  23 H :    0.038946
  24 H :    0.023941
  25 C :   -0.049856
  26 H :    0.025189
  27 H :    0.026168
  28 C :   -0.076920
  29 H :    0.015427
  30 H :    0.038028
  31 H :    0.028238
  32 H :    0.020929
  33 H :    0.015632

  Mayer bond orders larger than 0.100000
B(  0-S ,  1-C ) :   1.1580 B(  0-S ,  4-C ) :   1.1804 B(  1-C ,  2-C ) :   1.5818
B(  1-C , 32-H ) :   0.9827 B(  2-C ,  3-C ) :   1.2523 B(  2-C ,  6-C ) :   1.0198
B(  3-C ,  4-C ) :   1.5905 B(  3-C ,  5-H ) :   0.9959 B(  4-C , 20-C ) :   0.9984
B(  6-C ,  7-H ) :   0.9508 B(  6-C ,  8-H ) :   0.9439 B(  6-C ,  9-C ) :   1.0448
B(  9-C , 10-H ) :   0.9542 B(  9-C , 11-H ) :   0.9615 B(  9-C , 12-C ) :   1.0749
B( 12-C , 13-H ) :   0.9781 B( 12-C , 14-H ) :   0.9753 B( 12-C , 15-H ) :   0.9808
B( 16-S , 17-C ) :   1.1820 B( 16-S , 20-C ) :   1.1674 B( 17-C , 18-C ) :   1.5799
B( 17-C , 20-C ) :   0.1125 B( 17-C , 33-H ) :   0.9712 B( 18-C , 19-C ) :   1.2615
B( 18-C , 21-H ) :   0.9938 B( 19-C , 20-C ) :   1.5518 B( 19-C , 22-C ) :   1.0170
B( 22-C , 23-H ) :   0.9309 B( 22-C , 24-H ) :   0.9430 B( 22-C , 25-C ) :   1.0674
B( 25-C , 26-H ) :   0.9530 B( 25-C , 27-H ) :   0.9499 B( 25-C , 28-C ) :   1.0872
B( 28-C , 29-H ) :   0.9685 B( 28-C , 30-H ) :   0.9678 B( 28-C , 31-H ) :   0.9642

Dispersion correction           -0.015305596
FINAL SINGLE POINT ENERGY     -1339.864882025313

DIPOLE MOMENT
-------------
                                X             Y             Z
Electronic contribution:     -2.06030      16.50348      11.45670
Nuclear contribution   :      2.09748     -16.91844     -11.42004
                        -----------------------------------------
Total Dipole Moment    :      0.03718      -0.41496       0.03666
                        -----------------------------------------
Magnitude (a.u.)       :      0.41823
Magnitude (Debye)      :      1.06306

Rotational constants in cm-1:     0.022289     0.007758     0.006961
Rotational constants in MHz :   668.212293   232.576853   208.684625

                             ****ORCA TERMINATED NORMALLY****
TOTAL RUN TIME: 0 days 0 hours 0 minutes 34 seconds 550 msec
