                         Program Version 4.2.1 -  RELEASE  -
|  1> ! wB97X-D3 SP def2-SVP
|  2> %pal
|  3> nprocs 16
|  4> end
|  5>
|  6> * xyz 0 1
|  7> S 	 -47.6992 	 65.1982 	 130.301
|  8> C 	 -46.408 	 65.4016 	 129.101
|  9> C 	 -46.4289 	 64.4154 	 128.12
| 10> C 	 -47.6257 	 63.6942 	 128.177
| 11> C 	 -48.3065 	 63.8495 	 129.387
| 12> H 	 -48.0218 	 63.0447 	 127.414
| 13> C 	 -45.2803 	 64.1192 	 127.135
| 14> H 	 -44.589 	 64.9597 	 127.139
| 15> H 	 -45.785 	 64.2086 	 126.138
| 16> C 	 -44.5734 	 62.7232 	 127.215
| 17> H 	 -44.1054 	 62.6839 	 128.184
| 18> H 	 -45.3769 	 61.9046 	 127.219
| 19> C 	 -43.5752 	 62.522 	 126.115
| 20> H 	 -43.8651 	 62.781 	 125.035
| 21> H 	 -42.6723 	 63.1791 	 126.394
| 22> H 	 -43.3753 	 61.4843 	 126.139
| 23> S 	 -51.087 	 64.131 	 129.579
| 24> C 	 -52.0341 	 62.6958 	 129.73
| 25> C 	 -51.2488 	 61.5489 	 129.58
| 26> C 	 -49.8464 	 61.8954 	 129.53
| 27> C 	 -49.5926 	 63.2256 	 129.548
| 28> H 	 -51.7468 	 60.5579 	 129.535
| 29> C 	 -48.7962 	 60.7439 	 129.34
| 30> H 	 -49.0505 	 60.0798 	 130.127
| 31> H 	 -47.7265 	 61.0983 	 129.506
| 32> C 	 -48.932 	 59.8787 	 127.997
| 33> H 	 -48.6773 	 60.4964 	 127.141
| 34> H 	 -50.0104 	 59.6016 	 127.914
| 35> C 	 -48.0837 	 58.6156 	 128.116
| 36> H 	 -47.0083 	 58.773 	 128.25
| 37> H 	 -48.2048 	 57.9199 	 127.292
| 38> H 	 -48.3907 	 57.9358 	 128.962
| 39> H 	 -45.6637 	 66.154 	 129.117
| 40> H 	 -53.062 	 62.597 	 129.754
| 41> *
| 42>
| 43>                          ****END OF INPUT****

CARTESIAN COORDINATES (ANGSTROEM)
---------------------------------
  S    -47.699200   65.198200  130.301000
  C    -46.408000   65.401600  129.101000
  C    -46.428900   64.415400  128.120000
  C    -47.625700   63.694200  128.177000
  C    -48.306500   63.849500  129.387000
  H    -48.021800   63.044700  127.414000
  C    -45.280300   64.119200  127.135000
  H    -44.589000   64.959700  127.139000
  H    -45.785000   64.208600  126.138000
  C    -44.573400   62.723200  127.215000
  H    -44.105400   62.683900  128.184000
  H    -45.376900   61.904600  127.219000
  C    -43.575200   62.522000  126.115000
  H    -43.865100   62.781000  125.035000
  H    -42.672300   63.179100  126.394000
  H    -43.375300   61.484300  126.139000
  S    -51.087000   64.131000  129.579000
  C    -52.034100   62.695800  129.730000
  C    -51.248800   61.548900  129.580000
  C    -49.846400   61.895400  129.530000
  C    -49.592600   63.225600  129.548000
  H    -51.746800   60.557900  129.535000
  C    -48.796200   60.743900  129.340000
  H    -49.050500   60.079800  130.127000
  H    -47.726500   61.098300  129.506000
  C    -48.932000   59.878700  127.997000
  H    -48.677300   60.496400  127.141000
  H    -50.010400   59.601600  127.914000
  C    -48.083700   58.615600  128.116000
  H    -47.008300   58.773000  128.250000
  H    -48.204800   57.919900  127.292000
  H    -48.390700   57.935800  128.962000
  H    -45.663700   66.154000  129.117000
  H    -53.062000   62.597000  129.754000

 Total Charge           Charge          ....    0
 Multiplicity           Mult            ....    1
 Number of Electrons    NEL             ....  134
 Basis Dimension        Dim             ....  322

ORBITAL ENERGIES
----------------

  NO   OCC          E(Eh)            E(eV)
   0   2.0000     -88.970955     -2421.0228
   1   2.0000     -88.963365     -2420.8162
   2   2.0000     -10.323885      -280.9272
   3   2.0000     -10.317536      -280.7544
   4   2.0000     -10.313643      -280.6485
   5   2.0000     -10.310923      -280.5745
   6   2.0000     -10.300677      -280.2957
   7   2.0000     -10.299936      -280.2755
   8   2.0000     -10.299049      -280.2514
   9   2.0000     -10.296323      -280.1772
  10   2.0000     -10.296147      -280.1724
  11   2.0000     -10.295983      -280.1679
  12   2.0000     -10.294973      -280.1405
  13   2.0000     -10.290972      -280.0316
  14   2.0000     -10.289093      -279.9804
  15   2.0000     -10.282940      -279.8130
  16   2.0000      -8.085044      -220.0052
  17   2.0000      -8.078526      -219.8279
  18   2.0000      -6.043454      -164.4508
  19   2.0000      -6.039746      -164.3498
  20   2.0000      -6.037090      -164.2776
  21   2.0000      -6.035848      -164.2438
  22   2.0000      -6.033024      -164.1669
  23   2.0000      -6.029143      -164.0613
  24   2.0000      -1.008102       -27.4318
  25   2.0000      -0.983734       -26.7688
  26   2.0000      -0.909467       -24.7478
  27   2.0000      -0.897681       -24.4271
  28   2.0000      -0.872164       -23.7328
  29   2.0000      -0.854841       -23.2614
  30   2.0000      -0.843980       -22.9659
  31   2.0000      -0.810477       -22.0542
  32   2.0000      -0.779647       -21.2153
  33   2.0000      -0.769408       -20.9367
  34   2.0000      -0.706955       -19.2372
  35   2.0000      -0.698289       -19.0014
  36   2.0000      -0.694585       -18.9006
  37   2.0000      -0.658875       -17.9289
  38   2.0000      -0.641017       -17.4429
  39   2.0000      -0.617620       -16.8063
  40   2.0000      -0.587886       -15.9972
  41   2.0000      -0.566963       -15.4279
  42   2.0000      -0.561965       -15.2919
  43   2.0000      -0.558409       -15.1951
  44   2.0000      -0.529949       -14.4206
  45   2.0000      -0.524311       -14.2672
  46   2.0000      -0.514613       -14.0033
  47   2.0000      -0.509189       -13.8557
  48   2.0000      -0.502997       -13.6872
  49   2.0000      -0.498289       -13.5591
  50   2.0000      -0.493282       -13.4229
  51   2.0000      -0.479154       -13.0384
  52   2.0000      -0.467558       -12.7229
  53   2.0000      -0.463161       -12.6033
  54   2.0000      -0.462432       -12.5834
  55   2.0000      -0.451183       -12.2773
  56   2.0000      -0.445285       -12.1168
  57   2.0000      -0.436872       -11.8879
  58   2.0000      -0.429035       -11.6746
  59   2.0000      -0.425397       -11.5756
  60   2.0000      -0.422309       -11.4916
  61   2.0000      -0.419549       -11.4165
  62   2.0000      -0.414316       -11.2741
  63   2.0000      -0.338977        -9.2240
  64   2.0000      -0.328993        -8.9523
  65   2.0000      -0.325483        -8.8568
  66   2.0000      -0.295374        -8.0375
  67   0.0000       0.032784         0.8921
  68   0.0000       0.070740         1.9249
  69   0.0000       0.114200         3.1076
  70   0.0000       0.118515         3.2250
  71   0.0000       0.123439         3.3589

MULLIKEN ATOMIC CHARGES
-----------------------
   0 S :    0.121876
   1 C :   -0.113820
   2 C :   -0.063377
   3 C :    0.004678
   4 C :   -0.170675
   5 H :    0.019079
   6 C :    0.056888
   7 H :    0.011159
   8 H :    0.029020
   9 C :   -0.081942
  10 H :    0.035911
  11 H :    0.036887
  12 C :   -0.058122
  13 H :    0.046205
  14 H :    0.047097
  15 H :    0.034804
  16 S :    0.117210
  17 C :   -0.062104
  18 C :   -0.070863
  19 C :   -0.035836
  20 C :   -0.138511
  21 H :    0.036963
  22 C :    0.043638
  23 H :    0.015144
  24 H :    0.047373
  25 C :   -0.064484
  26 H :    0.033925
  27 H :    0.033030
  28 C :   -0.063065
  29 H :    0.036009
  30 H :    0.030138
  31 H :    0.029221
  32 H :    0.029135
  33 H :    0.027410
Sum of atomic charges:   -0.0000000

LOEWDIN ATOMIC CHARGES
----------------------
   0 S :    0.407426
   1 C :   -0.184662
   2 C :   -0.062828
   3 C :   -0.047542
   4 C :   -0.202990
   5 H :    0.030907
   6 C :   -0.034136
   7 H :    0.024182
   8 H :    0.034028
   9 C :   -0.042724
  10 H :    0.026114
  11 H :    0.028193
  12 C :   -0.072176
  13 H :    0.033700
  14 H :    0.037509
  15 H :    0.023540
  16 S :    0.412465
  17 C :   -0.181664
  18 C :   -0.076615
  19 C :   -0.059206
  20 C :   -0.208285
  21 H :    0.037394
  22 C :   -0.030528
  23 H :    0.022790
  24 H :    0.034437
  25 C :   -0.036658
  26 H :    0.020355
  27 H :    0.028387
  28 C :   -0.076298
  29 H :    0.025590
  30 H :    0.024839
  31 H :    0.031497
  32 H :    0.017571
  33 H :    0.015388

  Mayer bond orders larger than 0.100000
B(  0-S ,  1-C ) :   1.1409 B(  0-S ,  4-C ) :   1.1446 B(  1-C ,  2-C ) :   1.6017
B(  1-C , 32-H ) :   0.9698 B(  2-C ,  3-C ) :   1.2487 B(  2-C ,  6-C ) :   1.0203
B(  3-C ,  4-C ) :   1.5547 B(  3-C ,  5-H ) :   0.9914 B(  4-C , 20-C ) :   1.0495
B(  6-C ,  7-H ) :   0.9421 B(  6-C ,  8-H ) :   0.9381 B(  6-C ,  9-C ) :   1.0505
B(  9-C , 10-H ) :   0.9533 B(  9-C , 11-H ) :   0.9562 B(  9-C , 12-C ) :   1.0778
B( 12-C , 13-H ) :   0.9752 B( 12-C , 14-H ) :   0.9721 B( 12-C , 15-H ) :   0.9725
B( 16-S , 17-C ) :   1.1602 B( 16-S , 20-C ) :   1.1198 B( 17-C , 18-C ) :   1.6230
B( 17-C , 33-H ) :   0.9734 B( 18-C , 19-C ) :   1.2223 B( 18-C , 21-H ) :   0.9837
B( 19-C , 20-C ) :   1.6415 B( 19-C , 22-C ) :   1.0299 B( 22-C , 23-H ) :   0.9357
B( 22-C , 24-H ) :   0.9397 B( 22-C , 25-C ) :   1.0544 B( 25-C , 26-H ) :   0.9570
B( 25-C , 27-H ) :   0.9532 B( 25-C , 28-C ) :   1.0801 B( 28-C , 29-H ) :   0.9758
B( 28-C , 30-H ) :   0.9730 B( 28-C , 31-H ) :   0.9719

Dispersion correction           -0.014442206
FINAL SINGLE POINT ENERGY     -1339.868690700217

DIPOLE MOMENT
-------------
                                X             Y             Z
Electronic contribution:    -19.22940      22.69442      16.07073
Nuclear contribution   :     19.56864     -23.24541     -16.58093
                        -----------------------------------------
Total Dipole Moment    :      0.33924      -0.55099      -0.51019
                        -----------------------------------------
Magnitude (a.u.)       :      0.82400
Magnitude (Debye)      :      2.09444

Rotational constants in cm-1:     0.016194     0.009895     0.006602
Rotational constants in MHz :   485.469221   296.654107   197.934183

                             ****ORCA TERMINATED NORMALLY****
TOTAL RUN TIME: 0 days 0 hours 0 minutes 33 seconds 568 msec
