                         Program Version 4.2.1 -  RELEASE  -
|  1> ! wB97X-D3 SP def2-SVP
|  2> %pal
|  3> nprocs 16
|  4> end
|  5>
|  6> * xyz 0 1
|  7> S 	 -106.661 	 52.4982 	 114.723
|  8> C 	 -107.766 	 51.895 	 116.049
|  9> C 	 -107.847 	 52.7105 	 117.189
| 10> C 	 -107.091 	 53.9046 	 116.917
| 11> C 	 -106.496 	 53.9876 	 115.688
| 12> H 	 -106.816 	 54.6836 	 117.611
| 13> C 	 -108.756 	 52.503 	 118.415
| 14> H 	 -108.404 	 52.9259 	 119.311
| 15> H 	 -108.832 	 51.4605 	 118.603
| 16> C 	 -110.215 	 52.8961 	 118.274
| 17> H 	 -110.669 	 52.2608 	 117.54
| 18> H 	 -110.716 	 52.6184 	 119.221
| 19> C 	 -110.546 	 54.3997 	 118.104
| 20> H 	 -111.568 	 54.5987 	 117.896
| 21> H 	 -110.28 	 55.0984 	 118.911
| 22> H 	 -110.006 	 54.7042 	 117.153
| 23> S 	 -103.786 	 54.5456 	 115.282
| 24> C 	 -103.252 	 56.1881 	 115.005
| 25> C 	 -104.296 	 57.0864 	 115.172
| 26> C 	 -105.597 	 56.4096 	 115.253
| 27> C 	 -105.507 	 54.9905 	 115.25
| 28> H 	 -104.201 	 58.1811 	 115.087
| 29> C 	 -106.865 	 57.2088 	 115.543
| 30> H 	 -106.872 	 57.4892 	 116.604
| 31> H 	 -107.71 	 56.5177 	 115.431
| 32> C 	 -107.044 	 58.5207 	 114.685
| 33> H 	 -106.273 	 59.2988 	 114.84
| 34> H 	 -108.018 	 59.0926 	 114.948
| 35> C 	 -107.132 	 58.2122 	 113.202
| 36> H 	 -107.585 	 57.2936 	 112.924
| 37> H 	 -106.163 	 58.2318 	 112.761
| 38> H 	 -107.82 	 58.9929 	 112.697
| 39> H 	 -108.191 	 50.7918 	 116.077
| 40> H 	 -102.219 	 56.5224 	 114.925
| 41> *
| 42>
| 43>                          ****END OF INPUT****

CARTESIAN COORDINATES (ANGSTROEM)
---------------------------------
  S    -106.661000   52.498200  114.723000
  C    -107.766000   51.895000  116.049000
  C    -107.847000   52.710500  117.189000
  C    -107.091000   53.904600  116.917000
  C    -106.496000   53.987600  115.688000
  H    -106.816000   54.683600  117.611000
  C    -108.756000   52.503000  118.415000
  H    -108.404000   52.925900  119.311000
  H    -108.832000   51.460500  118.603000
  C    -110.215000   52.896100  118.274000
  H    -110.669000   52.260800  117.540000
  H    -110.716000   52.618400  119.221000
  C    -110.546000   54.399700  118.104000
  H    -111.568000   54.598700  117.896000
  H    -110.280000   55.098400  118.911000
  H    -110.006000   54.704200  117.153000
  S    -103.786000   54.545600  115.282000
  C    -103.252000   56.188100  115.005000
  C    -104.296000   57.086400  115.172000
  C    -105.597000   56.409600  115.253000
  C    -105.507000   54.990500  115.250000
  H    -104.201000   58.181100  115.087000
  C    -106.865000   57.208800  115.543000
  H    -106.872000   57.489200  116.604000
  H    -107.710000   56.517700  115.431000
  C    -107.044000   58.520700  114.685000
  H    -106.273000   59.298800  114.840000
  H    -108.018000   59.092600  114.948000
  C    -107.132000   58.212200  113.202000
  H    -107.585000   57.293600  112.924000
  H    -106.163000   58.231800  112.761000
  H    -107.820000   58.992900  112.697000
  H    -108.191000   50.791800  116.077000
  H    -102.219000   56.522400  114.925000

 Total Charge           Charge          ....    0
 Multiplicity           Mult            ....    1
 Number of Electrons    NEL             ....  134
 Basis Dimension        Dim             ....  322

ORBITAL ENERGIES
----------------

  NO   OCC          E(Eh)            E(eV)
   0   2.0000     -88.971037     -2421.0250
   1   2.0000     -88.965157     -2420.8650
   2   2.0000     -10.333941      -281.2008
   3   2.0000     -10.331976      -281.1474
   4   2.0000     -10.330453      -281.1059
   5   2.0000     -10.322141      -280.8797
   6   2.0000     -10.313135      -280.6347
   7   2.0000     -10.311069      -280.5784
   8   2.0000     -10.299948      -280.2758
   9   2.0000     -10.297466      -280.2083
  10   2.0000     -10.296223      -280.1745
  11   2.0000     -10.295894      -280.1655
  12   2.0000     -10.292690      -280.0783
  13   2.0000     -10.288981      -279.9774
  14   2.0000     -10.279344      -279.7152
  15   2.0000     -10.271177      -279.4929
  16   2.0000      -8.084047      -219.9781
  17   2.0000      -8.079385      -219.8512
  18   2.0000      -6.042610      -164.4278
  19   2.0000      -6.039054      -164.3310
  20   2.0000      -6.038053      -164.3038
  21   2.0000      -6.034584      -164.2094
  22   2.0000      -6.033969      -164.1926
  23   2.0000      -6.029980      -164.0841
  24   2.0000      -0.997193       -27.1350
  25   2.0000      -0.974041       -26.5050
  26   2.0000      -0.913517       -24.8581
  27   2.0000      -0.900927       -24.5155
  28   2.0000      -0.863765       -23.5042
  29   2.0000      -0.845638       -23.0110
  30   2.0000      -0.838857       -22.8265
  31   2.0000      -0.812307       -22.1040
  32   2.0000      -0.788054       -21.4441
  33   2.0000      -0.768462       -20.9109
  34   2.0000      -0.702209       -19.1081
  35   2.0000      -0.697863       -18.9898
  36   2.0000      -0.690610       -18.7924
  37   2.0000      -0.650229       -17.6936
  38   2.0000      -0.637448       -17.3458
  39   2.0000      -0.612414       -16.6646
  40   2.0000      -0.592324       -16.1180
  41   2.0000      -0.577036       -15.7019
  42   2.0000      -0.549747       -14.9594
  43   2.0000      -0.544401       -14.8139
  44   2.0000      -0.541964       -14.7476
  45   2.0000      -0.532848       -14.4995
  46   2.0000      -0.517401       -14.0792
  47   2.0000      -0.509374       -13.8608
  48   2.0000      -0.494415       -13.4537
  49   2.0000      -0.490379       -13.3439
  50   2.0000      -0.487822       -13.2743
  51   2.0000      -0.478516       -13.0211
  52   2.0000      -0.463216       -12.6048
  53   2.0000      -0.460482       -12.5304
  54   2.0000      -0.456228       -12.4146
  55   2.0000      -0.445118       -12.1123
  56   2.0000      -0.443272       -12.0620
  57   2.0000      -0.440292       -11.9809
  58   2.0000      -0.434467       -11.8224
  59   2.0000      -0.428613       -11.6631
  60   2.0000      -0.420440       -11.4407
  61   2.0000      -0.410000       -11.1567
  62   2.0000      -0.407620       -11.0919
  63   2.0000      -0.342051        -9.3077
  64   2.0000      -0.333241        -9.0680
  65   2.0000      -0.322358        -8.7718
  66   2.0000      -0.300380        -8.1738
  67   0.0000       0.027583         0.7506
  68   0.0000       0.057727         1.5708
  69   0.0000       0.096078         2.6144
  70   0.0000       0.109218         2.9720
  71   0.0000       0.123800         3.3688

MULLIKEN ATOMIC CHARGES
-----------------------
   0 S :    0.103251
   1 C :   -0.156400
   2 C :   -0.085606
   3 C :    0.041424
   4 C :   -0.182012
   5 H :    0.018098
   6 C :    0.124344
   7 H :    0.011840
   8 H :    0.012207
   9 C :   -0.075952
  10 H :    0.023997
  11 H :    0.026864
  12 C :   -0.067353
  13 H :    0.026513
  14 H :    0.036740
  15 H :    0.041128
  16 S :    0.100553
  17 C :   -0.087555
  18 C :   -0.038388
  19 C :   -0.078574
  20 C :   -0.125646
  21 H :    0.034034
  22 C :    0.064384
  23 H :    0.043854
  24 H :    0.037318
  25 C :   -0.121366
  26 H :    0.035488
  27 H :    0.040363
  28 C :   -0.047685
  29 H :    0.027419
  30 H :    0.032602
  31 H :    0.035515
  32 H :    0.083552
  33 H :    0.065048
Sum of atomic charges:    0.0000000

LOEWDIN ATOMIC CHARGES
----------------------
   0 S :    0.365142
   1 C :   -0.185472
   2 C :   -0.060693
   3 C :   -0.053337
   4 C :   -0.189554
   5 H :    0.033725
   6 C :   -0.022483
   7 H :    0.025318
   8 H :    0.031954
   9 C :   -0.036524
  10 H :    0.021532
  11 H :    0.026610
  12 C :   -0.075049
  13 H :    0.021528
  14 H :    0.026737
  15 H :    0.032509
  16 S :    0.397221
  17 C :   -0.182735
  18 C :   -0.076643
  19 C :   -0.050794
  20 C :   -0.208015
  21 H :    0.034288
  22 C :   -0.034858
  23 H :    0.034491
  24 H :    0.032465
  25 C :   -0.052359
  26 H :    0.022723
  27 H :    0.033394
  28 C :   -0.070185
  29 H :    0.020540
  30 H :    0.021563
  31 H :    0.035459
  32 H :    0.047408
  33 H :    0.034092

  Mayer bond orders larger than 0.100000
B(  0-S ,  1-C ) :   1.1290 B(  0-S ,  4-C ) :   1.1186 B(  1-C ,  2-C ) :   1.6466
B(  1-C , 32-H ) :   0.9465 B(  2-C ,  3-C ) :   1.1986 B(  2-C ,  6-C ) :   1.0261
B(  3-C ,  4-C ) :   1.6291 B(  3-C ,  5-H ) :   0.9897 B(  4-C , 20-C ) :   1.0147
B(  6-C ,  7-H ) :   0.9410 B(  6-C ,  8-H ) :   0.9283 B(  6-C ,  9-C ) :   1.0847
B(  9-C , 10-H ) :   0.9556 B(  9-C , 11-H ) :   0.9519 B(  9-C , 12-C ) :   1.0745
B( 12-C , 13-H ) :   0.9733 B( 12-C , 14-H ) :   0.9758 B( 12-C , 15-H ) :   0.9742
B( 16-S , 17-C ) :   1.1601 B( 16-S , 20-C ) :   1.1295 B( 17-C , 18-C ) :   1.6080
B( 17-C , 33-H ) :   0.9657 B( 18-C , 19-C ) :   1.2412 B( 18-C , 21-H ) :   0.9812
B( 19-C , 20-C ) :   1.5951 B( 19-C , 22-C ) :   1.0420 B( 22-C , 23-H ) :   0.9375
B( 22-C , 24-H ) :   0.9388 B( 22-C , 25-C ) :   1.0591 B( 25-C , 26-H ) :   0.9571
B( 25-C , 27-H ) :   0.9630 B( 25-C , 28-C ) :   1.0653 B( 28-C , 29-H ) :   0.9781
B( 28-C , 30-H ) :   0.9742 B( 28-C , 31-H ) :   0.9771

Dispersion correction           -0.014659506
FINAL SINGLE POINT ENERGY     -1339.860438933981

DIPOLE MOMENT
-------------
                                X             Y             Z
Electronic contribution:     21.30903     -14.75818      -7.11210
Nuclear contribution   :    -21.65265      15.08611       7.70575
                        -----------------------------------------
Total Dipole Moment    :     -0.34361       0.32793       0.59365
                        -----------------------------------------
Magnitude (a.u.)       :      0.76028
Magnitude (Debye)      :      1.93249

Rotational constants in cm-1:     0.018188     0.008793     0.006915
Rotational constants in MHz :   545.249221   263.609847   207.316708

                             ****ORCA TERMINATED NORMALLY****
TOTAL RUN TIME: 0 days 0 hours 0 minutes 33 seconds 648 msec
