                         Program Version 4.2.1 -  RELEASE  -
|  1> ! wB97X-D3 SP def2-SVP
|  2> %pal
|  3> nprocs 16
|  4> end
|  5>
|  6> * xyz 0 1
|  7> S 	 -29.211 	 54.7961 	 111.569
|  8> C 	 -29.6639 	 55.9663 	 110.269
|  9> C 	 -31.004 	 55.8646 	 109.911
| 10> C 	 -31.6537 	 54.8709 	 110.722
| 11> C 	 -30.8446 	 54.2628 	 111.669
| 12> H 	 -32.624 	 54.5657 	 110.914
| 13> C 	 -31.8393 	 56.8652 	 109.176
| 14> H 	 -32.8862 	 56.5488 	 108.993
| 15> H 	 -31.3831 	 56.7485 	 108.198
| 16> C 	 -31.8155 	 58.2371 	 109.786
| 17> H 	 -32.0627 	 58.1683 	 110.859
| 18> H 	 -30.833 	 58.713 	 109.667
| 19> C 	 -32.9168 	 59.1145 	 109.089
| 20> H 	 -33.9197 	 58.6738 	 109.157
| 21> H 	 -32.811 	 60.0676 	 109.572
| 22> H 	 -32.6124 	 59.2457 	 108.019
| 23> S 	 -32.7464 	 53.5065 	 113.458
| 24> C 	 -32.8618 	 51.9824 	 114.14
| 25> C 	 -31.681 	 51.2918 	 113.927
| 26> C 	 -30.7684 	 51.9759 	 113.035
| 27> C 	 -31.2486 	 53.1955 	 112.589
| 28> H 	 -31.4838 	 50.3482 	 114.376
| 29> C 	 -29.414 	 51.3944 	 112.577
| 30> H 	 -29.2023 	 50.6411 	 113.285
| 31> H 	 -28.6358 	 52.1762 	 112.595
| 32> C 	 -29.3338 	 50.711 	 111.195
| 33> H 	 -29.3913 	 51.4058 	 110.334
| 34> H 	 -30.2748 	 50.1645 	 111.206
| 35> C 	 -28.1313 	 49.7013 	 111.161
| 36> H 	 -28.2291 	 48.8453 	 111.824
| 37> H 	 -27.232 	 50.2302 	 111.415
| 38> H 	 -28.0746 	 49.2995 	 110.153
| 39> H 	 -29.0027 	 56.8123 	 109.92
| 40> H 	 -33.5314 	 51.6801 	 114.941
| 41> *
| 42>
| 43>                          ****END OF INPUT****

CARTESIAN COORDINATES (ANGSTROEM)
---------------------------------
  S    -29.211000   54.796100  111.569000
  C    -29.663900   55.966300  110.269000
  C    -31.004000   55.864600  109.911000
  C    -31.653700   54.870900  110.722000
  C    -30.844600   54.262800  111.669000
  H    -32.624000   54.565700  110.914000
  C    -31.839300   56.865200  109.176000
  H    -32.886200   56.548800  108.993000
  H    -31.383100   56.748500  108.198000
  C    -31.815500   58.237100  109.786000
  H    -32.062700   58.168300  110.859000
  H    -30.833000   58.713000  109.667000
  C    -32.916800   59.114500  109.089000
  H    -33.919700   58.673800  109.157000
  H    -32.811000   60.067600  109.572000
  H    -32.612400   59.245700  108.019000
  S    -32.746400   53.506500  113.458000
  C    -32.861800   51.982400  114.140000
  C    -31.681000   51.291800  113.927000
  C    -30.768400   51.975900  113.035000
  C    -31.248600   53.195500  112.589000
  H    -31.483800   50.348200  114.376000
  C    -29.414000   51.394400  112.577000
  H    -29.202300   50.641100  113.285000
  H    -28.635800   52.176200  112.595000
  C    -29.333800   50.711000  111.195000
  H    -29.391300   51.405800  110.334000
  H    -30.274800   50.164500  111.206000
  C    -28.131300   49.701300  111.161000
  H    -28.229100   48.845300  111.824000
  H    -27.232000   50.230200  111.415000
  H    -28.074600   49.299500  110.153000
  H    -29.002700   56.812300  109.920000
  H    -33.531400   51.680100  114.941000

 Total Charge           Charge          ....    0
 Multiplicity           Mult            ....    1
 Number of Electrons    NEL             ....  134
 Basis Dimension        Dim             ....  322

ORBITAL ENERGIES
----------------

  NO   OCC          E(Eh)            E(eV)
   0   2.0000     -88.969454     -2420.9819
   1   2.0000     -88.962616     -2420.7958
   2   2.0000     -10.328562      -281.0545
   3   2.0000     -10.327296      -281.0200
   4   2.0000     -10.323855      -280.9264
   5   2.0000     -10.313036      -280.6320
   6   2.0000     -10.306103      -280.4433
   7   2.0000     -10.305004      -280.4134
   8   2.0000     -10.293800      -280.1085
   9   2.0000     -10.290905      -280.0297
  10   2.0000     -10.290282      -280.0128
  11   2.0000     -10.287340      -279.9328
  12   2.0000     -10.286807      -279.9182
  13   2.0000     -10.284424      -279.8534
  14   2.0000     -10.283024      -279.8153
  15   2.0000     -10.276380      -279.6345
  16   2.0000      -8.083321      -219.9584
  17   2.0000      -8.078648      -219.8312
  18   2.0000      -6.041850      -164.4071
  19   2.0000      -6.037989      -164.3020
  20   2.0000      -6.036995      -164.2750
  21   2.0000      -6.034083      -164.1957
  22   2.0000      -6.032835      -164.1618
  23   2.0000      -6.029622      -164.0744
  24   2.0000      -1.010277       -27.4910
  25   2.0000      -0.986151       -26.8345
  26   2.0000      -0.918606       -24.9965
  27   2.0000      -0.903870       -24.5955
  28   2.0000      -0.869171       -23.6513
  29   2.0000      -0.850654       -23.1475
  30   2.0000      -0.844378       -22.9767
  31   2.0000      -0.811851       -22.0916
  32   2.0000      -0.781510       -21.2660
  33   2.0000      -0.772167       -21.0117
  34   2.0000      -0.705858       -19.2074
  35   2.0000      -0.701826       -19.0977
  36   2.0000      -0.688738       -18.7415
  37   2.0000      -0.668159       -18.1815
  38   2.0000      -0.640748       -17.4356
  39   2.0000      -0.610711       -16.6183
  40   2.0000      -0.592949       -16.1350
  41   2.0000      -0.579805       -15.7773
  42   2.0000      -0.564344       -15.3566
  43   2.0000      -0.559991       -15.2381
  44   2.0000      -0.527078       -14.3425
  45   2.0000      -0.520545       -14.1648
  46   2.0000      -0.517728       -14.0881
  47   2.0000      -0.516406       -14.0521
  48   2.0000      -0.508733       -13.8433
  49   2.0000      -0.499920       -13.6035
  50   2.0000      -0.486914       -13.2496
  51   2.0000      -0.478401       -13.0179
  52   2.0000      -0.471691       -12.8354
  53   2.0000      -0.469021       -12.7627
  54   2.0000      -0.457626       -12.4526
  55   2.0000      -0.446950       -12.1621
  56   2.0000      -0.443688       -12.0734
  57   2.0000      -0.439455       -11.9582
  58   2.0000      -0.434878       -11.8336
  59   2.0000      -0.429621       -11.6906
  60   2.0000      -0.414220       -11.2715
  61   2.0000      -0.410337       -11.1658
  62   2.0000      -0.406373       -11.0580
  63   2.0000      -0.349347        -9.5062
  64   2.0000      -0.332061        -9.0358
  65   2.0000      -0.327631        -8.9153
  66   2.0000      -0.291768        -7.9394
  67   0.0000       0.028249         0.7687
  68   0.0000       0.071298         1.9401
  69   0.0000       0.106281         2.8921
  70   0.0000       0.117759         3.2044
  71   0.0000       0.123405         3.3580

MULLIKEN ATOMIC CHARGES
-----------------------
   0 S :    0.106359
   1 C :   -0.158853
   2 C :   -0.042660
   3 C :    0.050156
   4 C :   -0.152235
   5 H :   -0.023053
   6 C :    0.052440
   7 H :    0.025184
   8 H :    0.031056
   9 C :   -0.080911
  10 H :    0.044816
  11 H :    0.032716
  12 C :   -0.057301
  13 H :    0.046817
  14 H :    0.035032
  15 H :    0.035798
  16 S :    0.097581
  17 C :   -0.073865
  18 C :   -0.048841
  19 C :   -0.063605
  20 C :   -0.149441
  21 H :    0.006938
  22 C :    0.068651
  23 H :   -0.001190
  24 H :    0.030738
  25 C :   -0.073258
  26 H :    0.045400
  27 H :    0.021560
  28 C :   -0.044043
  29 H :    0.032544
  30 H :    0.031719
  31 H :    0.035431
  32 H :    0.070695
  33 H :    0.067626
Sum of atomic charges:   -0.0000000

LOEWDIN ATOMIC CHARGES
----------------------
   0 S :    0.402039
   1 C :   -0.193843
   2 C :   -0.056187
   3 C :   -0.061136
   4 C :   -0.200448
   5 H :    0.012775
   6 C :   -0.041173
   7 H :    0.033656
   8 H :    0.035621
   9 C :   -0.036609
  10 H :    0.030116
  11 H :    0.025109
  12 C :   -0.064301
  13 H :    0.026819
  14 H :    0.024074
  15 H :    0.029439
  16 S :    0.439349
  17 C :   -0.215336
  18 C :   -0.072361
  19 C :   -0.061695
  20 C :   -0.192230
  21 H :    0.024408
  22 C :   -0.032399
  23 H :    0.022280
  24 H :    0.021311
  25 C :   -0.038913
  26 H :    0.027674
  27 H :    0.022312
  28 C :   -0.061311
  29 H :    0.024872
  30 H :    0.022356
  31 H :    0.027730
  32 H :    0.038862
  33 H :    0.037139

  Mayer bond orders larger than 0.100000
B(  0-S ,  1-C ) :   1.1245 B(  0-S ,  4-C ) :   1.1455 B(  1-C ,  2-C ) :   1.6181
B(  1-C , 32-H ) :   0.9622 B(  2-C ,  3-C ) :   1.1983 B(  2-C ,  6-C ) :   1.0146
B(  3-C ,  4-C ) :   1.5985 B(  3-C ,  5-H ) :   0.9967 B(  4-C , 20-C ) :   1.0155
B(  6-C ,  7-H ) :   0.9517 B(  6-C ,  8-H ) :   0.9214 B(  6-C ,  9-C ) :   1.0678
B(  9-C , 10-H ) :   0.9580 B(  9-C , 11-H ) :   0.9497 B(  9-C , 12-C ) :   1.0812
B( 12-C , 13-H ) :   0.9765 B( 12-C , 14-H ) :   0.9753 B( 12-C , 15-H ) :   0.9756
B( 16-S , 17-C ) :   1.1824 B( 16-S , 20-C ) :   1.1532 B( 17-C , 18-C ) :   1.5700
B( 17-C , 33-H ) :   0.9629 B( 18-C , 19-C ) :   1.2687 B( 18-C , 21-H ) :   0.9938
B( 19-C , 20-C ) :   1.5747 B( 19-C , 22-C ) :   1.0449 B( 22-C , 23-H ) :   0.9293
B( 22-C , 24-H ) :   0.9365 B( 22-C , 25-C ) :   1.0556 B( 25-C , 26-H ) :   0.9582
B( 25-C , 27-H ) :   0.9552 B( 25-C , 28-C ) :   1.0756 B( 28-C , 29-H ) :   0.9752
B( 28-C , 30-H ) :   0.9780 B( 28-C , 31-H ) :   0.9755

Dispersion correction           -0.013858394
FINAL SINGLE POINT ENERGY     -1339.865600615266

DIPOLE MOMENT
-------------
                                X             Y             Z
Electronic contribution:     -2.60882      -1.75612      12.97949
Nuclear contribution   :      2.55886       1.82849     -13.08286
                        -----------------------------------------
Total Dipole Moment    :     -0.04996       0.07238      -0.10337
                        -----------------------------------------
Magnitude (a.u.)       :      0.13572
Magnitude (Debye)      :      0.34498

Rotational constants in cm-1:     0.021451     0.007710     0.006156
Rotational constants in MHz :   643.078067   231.149890   184.564866

                             ****ORCA TERMINATED NORMALLY****
TOTAL RUN TIME: 0 days 0 hours 0 minutes 29 seconds 63 msec
