                         Program Version 4.2.1 -  RELEASE  -
|  1> ! wB97X-D3 SP def2-SVP
|  2> %pal
|  3> nprocs 16
|  4> end
|  5>
|  6> * xyz 0 1
|  7> S 	 42.6579 	 21.6103 	 80.9589
|  8> C 	 42.2164 	 23.1874 	 81.4747
|  9> C 	 42.6427 	 23.4298 	 82.7837
| 10> C 	 43.1978 	 22.2596 	 83.4126
| 11> C 	 43.1886 	 21.1588 	 82.5594
| 12> H 	 43.4449 	 22.2359 	 84.4614
| 13> C 	 42.3609 	 24.6012 	 83.6971
| 14> H 	 42.0767 	 25.4207 	 82.9534
| 15> H 	 43.2661 	 25.0316 	 84.1736
| 16> C 	 41.2524 	 24.4003 	 84.7977
| 17> H 	 40.405 	 24.0376 	 84.2617
| 18> H 	 41.531 	 23.5457 	 85.415
| 19> C 	 40.8916 	 25.594 	 85.6536
| 20> H 	 40.2859 	 25.193 	 86.4226
| 21> H 	 41.7129 	 26.0899 	 86.1061
| 22> H 	 40.3401 	 26.3477 	 85.1078
| 23> S 	 43.9924 	 18.857 	 81.4062
| 24> C 	 44.8109 	 17.6936 	 82.3598
| 25> C 	 44.5426 	 17.936 	 83.6908
| 26> C 	 44.0034 	 19.2387 	 83.9886
| 27> C 	 43.7272 	 19.8788 	 82.793
| 28> H 	 44.9046 	 17.1044 	 84.2985
| 29> C 	 43.4933 	 19.5814 	 85.3964
| 30> H 	 43.1573 	 18.6292 	 85.8637
| 31> H 	 42.6165 	 20.1717 	 85.2992
| 32> C 	 44.6215 	 20.1428 	 86.3028
| 33> H 	 44.9626 	 21.07 	 85.8193
| 34> H 	 45.3957 	 19.2791 	 86.3762
| 35> C 	 44.1243 	 20.5102 	 87.6921
| 36> H 	 44.9078 	 20.2851 	 88.4256
| 37> H 	 43.2608 	 19.922 	 88.0528
| 38> H 	 43.7581 	 21.5693 	 87.6921
| 39> H 	 41.7483 	 23.8976 	 80.8032
| 40> H 	 45.2772 	 16.7437 	 81.997
| 41> *
| 42>
| 43>                          ****END OF INPUT****

CARTESIAN COORDINATES (ANGSTROEM)
---------------------------------
  S     42.657900   21.610300   80.958900
  C     42.216400   23.187400   81.474700
  C     42.642700   23.429800   82.783700
  C     43.197800   22.259600   83.412600
  C     43.188600   21.158800   82.559400
  H     43.444900   22.235900   84.461400
  C     42.360900   24.601200   83.697100
  H     42.076700   25.420700   82.953400
  H     43.266100   25.031600   84.173600
  C     41.252400   24.400300   84.797700
  H     40.405000   24.037600   84.261700
  H     41.531000   23.545700   85.415000
  C     40.891600   25.594000   85.653600
  H     40.285900   25.193000   86.422600
  H     41.712900   26.089900   86.106100
  H     40.340100   26.347700   85.107800
  S     43.992400   18.857000   81.406200
  C     44.810900   17.693600   82.359800
  C     44.542600   17.936000   83.690800
  C     44.003400   19.238700   83.988600
  C     43.727200   19.878800   82.793000
  H     44.904600   17.104400   84.298500
  C     43.493300   19.581400   85.396400
  H     43.157300   18.629200   85.863700
  H     42.616500   20.171700   85.299200
  C     44.621500   20.142800   86.302800
  H     44.962600   21.070000   85.819300
  H     45.395700   19.279100   86.376200
  C     44.124300   20.510200   87.692100
  H     44.907800   20.285100   88.425600
  H     43.260800   19.922000   88.052800
  H     43.758100   21.569300   87.692100
  H     41.748300   23.897600   80.803200
  H     45.277200   16.743700   81.997000

 Total Charge           Charge          ....    0
 Multiplicity           Mult            ....    1
 Number of Electrons    NEL             ....  134
 Basis Dimension        Dim             ....  322

ORBITAL ENERGIES
----------------

  NO   OCC          E(Eh)            E(eV)
   0   2.0000     -88.966136     -2420.8916
   1   2.0000     -88.963033     -2420.8072
   2   2.0000     -10.326843      -281.0077
   3   2.0000     -10.323059      -280.9047
   4   2.0000     -10.315630      -280.7026
   5   2.0000     -10.315295      -280.6935
   6   2.0000     -10.304945      -280.4118
   7   2.0000     -10.302286      -280.3394
   8   2.0000     -10.297818      -280.2179
   9   2.0000     -10.297513      -280.2096
  10   2.0000     -10.295780      -280.1624
  11   2.0000     -10.293039      -280.0878
  12   2.0000     -10.292379      -280.0699
  13   2.0000     -10.286632      -279.9135
  14   2.0000     -10.283934      -279.8401
  15   2.0000     -10.273097      -279.5452
  16   2.0000      -8.081718      -219.9147
  17   2.0000      -8.078997      -219.8407
  18   2.0000      -6.040209      -164.3624
  19   2.0000      -6.037505      -164.2889
  20   2.0000      -6.036141      -164.2517
  21   2.0000      -6.033513      -164.1802
  22   2.0000      -6.032430      -164.1508
  23   2.0000      -6.029515      -164.0714
  24   2.0000      -1.014991       -27.6193
  25   2.0000      -0.987001       -26.8577
  26   2.0000      -0.910545       -24.7772
  27   2.0000      -0.908071       -24.7099
  28   2.0000      -0.876110       -23.8402
  29   2.0000      -0.858382       -23.3578
  30   2.0000      -0.847381       -23.0584
  31   2.0000      -0.813104       -22.1257
  32   2.0000      -0.782757       -21.2999
  33   2.0000      -0.772068       -21.0090
  34   2.0000      -0.709956       -19.3189
  35   2.0000      -0.700621       -19.0649
  36   2.0000      -0.690967       -18.8022
  37   2.0000      -0.664268       -18.0757
  38   2.0000      -0.634218       -17.2579
  39   2.0000      -0.624111       -16.9829
  40   2.0000      -0.592623       -16.1261
  41   2.0000      -0.572778       -15.5861
  42   2.0000      -0.565097       -15.3771
  43   2.0000      -0.553854       -15.0711
  44   2.0000      -0.529584       -14.4107
  45   2.0000      -0.529315       -14.4034
  46   2.0000      -0.514884       -14.0107
  47   2.0000      -0.513363       -13.9693
  48   2.0000      -0.505898       -13.7662
  49   2.0000      -0.502607       -13.6766
  50   2.0000      -0.496647       -13.5144
  51   2.0000      -0.488362       -13.2890
  52   2.0000      -0.475949       -12.9512
  53   2.0000      -0.467203       -12.7132
  54   2.0000      -0.458657       -12.4807
  55   2.0000      -0.447403       -12.1745
  56   2.0000      -0.442628       -12.0445
  57   2.0000      -0.434856       -11.8330
  58   2.0000      -0.430675       -11.7193
  59   2.0000      -0.428860       -11.6699
  60   2.0000      -0.420076       -11.4309
  61   2.0000      -0.416315       -11.3285
  62   2.0000      -0.410650       -11.1744
  63   2.0000      -0.366725        -9.9791
  64   2.0000      -0.334614        -9.1053
  65   2.0000      -0.323855        -8.8126
  66   2.0000      -0.276636        -7.5276
  67   0.0000       0.017146         0.4666
  68   0.0000       0.080776         2.1980
  69   0.0000       0.099282         2.7016
  70   0.0000       0.112163         3.0521
  71   0.0000       0.120609         3.2819

MULLIKEN ATOMIC CHARGES
-----------------------
   0 S :    0.100563
   1 C :   -0.117715
   2 C :   -0.061478
   3 C :   -0.014923
   4 C :   -0.104673
   5 H :    0.001117
   6 C :    0.009040
   7 H :    0.020152
   8 H :    0.033324
   9 C :   -0.066449
  10 H :    0.021914
  11 H :    0.018888
  12 C :    0.000827
  13 H :    0.027367
  14 H :    0.021106
  15 H :    0.031339
  16 S :    0.097106
  17 C :   -0.113613
  18 C :   -0.048972
  19 C :   -0.029708
  20 C :   -0.108655
  21 H :    0.021041
  22 C :    0.031565
  23 H :    0.030806
  24 H :    0.025574
  25 C :   -0.112562
  26 H :    0.044743
  27 H :    0.051186
  28 C :   -0.037571
  29 H :    0.041466
  30 H :    0.025102
  31 H :    0.038867
  32 H :    0.051051
  33 H :    0.072177
Sum of atomic charges:    0.0000000

LOEWDIN ATOMIC CHARGES
----------------------
   0 S :    0.416242
   1 C :   -0.207241
   2 C :   -0.064110
   3 C :   -0.063671
   4 C :   -0.185441
   5 H :    0.026886
   6 C :   -0.044558
   7 H :    0.031551
   8 H :    0.030008
   9 C :   -0.037208
  10 H :    0.023471
  11 H :    0.020410
  12 C :   -0.055745
  13 H :    0.027581
  14 H :    0.020944
  15 H :    0.026688
  16 S :    0.410167
  17 C :   -0.207021
  18 C :   -0.074484
  19 C :   -0.057040
  20 C :   -0.192386
  21 H :    0.032426
  22 C :   -0.029236
  23 H :    0.035500
  24 H :    0.020893
  25 C :   -0.046609
  26 H :    0.025207
  27 H :    0.037361
  28 C :   -0.075977
  29 H :    0.030211
  30 H :    0.024421
  31 H :    0.030833
  32 H :    0.028785
  33 H :    0.041143

  Mayer bond orders larger than 0.100000
B(  0-S ,  1-C ) :   1.1422 B(  0-S ,  4-C ) :   1.1444 B(  1-C ,  2-C ) :   1.5889
B(  1-C , 32-H ) :   0.9707 B(  2-C ,  3-C ) :   1.2494 B(  2-C ,  6-C ) :   1.0427
B(  3-C ,  4-C ) :   1.5342 B(  3-C ,  5-H ) :   0.9906 B(  4-C , 20-C ) :   1.1361
B(  6-C ,  7-H ) :   0.9431 B(  6-C ,  8-H ) :   0.9374 B(  6-C ,  9-C ) :   1.0501
B(  9-C , 10-H ) :   0.9517 B(  9-C , 11-H ) :   0.9548 B(  9-C , 12-C ) :   1.0889
B( 12-C , 13-H ) :   0.9706 B( 12-C , 14-H ) :   0.9733 B( 12-C , 15-H ) :   0.9749
B( 16-S , 17-C ) :   1.1472 B( 16-S , 20-C ) :   1.1360 B( 17-C , 18-C ) :   1.6327
B( 17-C , 33-H ) :   0.9620 B( 18-C , 19-C ) :   1.2177 B( 18-C , 21-H ) :   0.9853
B( 19-C , 20-C ) :   1.5725 B( 19-C , 22-C ) :   1.0307 B( 22-C , 23-H ) :   0.9400
B( 22-C , 24-H ) :   0.9444 B( 22-C , 25-C ) :   1.0517 B( 25-C , 26-H ) :   0.9591
B( 25-C , 27-H ) :   0.9585 B( 25-C , 28-C ) :   1.0720 B( 28-C , 29-H ) :   0.9757
B( 28-C , 30-H ) :   0.9724 B( 28-C , 31-H ) :   0.9749

Dispersion correction           -0.014076666
FINAL SINGLE POINT ENERGY     -1339.870802862077

DIPOLE MOMENT
-------------
                                X             Y             Z
Electronic contribution:      4.57574     -14.93486     -29.86946
Nuclear contribution   :     -4.72656      14.98385      30.55757
                        -----------------------------------------
Total Dipole Moment    :     -0.15081       0.04899       0.68811
                        -----------------------------------------
Magnitude (a.u.)       :      0.70614
Magnitude (Debye)      :      1.79486

Rotational constants in cm-1:     0.016945     0.009898     0.006446
Rotational constants in MHz :   508.010523   296.744644   193.251917

                             ****ORCA TERMINATED NORMALLY****
TOTAL RUN TIME: 0 days 0 hours 0 minutes 30 seconds 714 msec
