                         Program Version 4.2.1 -  RELEASE  -
|  1> ! wB97X-D3 SP def2-SVP
|  2> %pal
|  3> nprocs 16
|  4> end
|  5>
|  6> * xyz 0 1
|  7> S 	 -3.7557 	 -15.1335 	 68.7785
|  8> C 	 -3.77858 	 -15.9824 	 67.2469
|  9> C 	 -4.3759 	 -15.1131 	 66.2762
| 10> C 	 -4.6303 	 -13.8049 	 66.7737
| 11> C 	 -4.25544 	 -13.6103 	 68.0744
| 12> H 	 -5.06042 	 -13.0549 	 66.1485
| 13> C 	 -4.2875 	 -15.4201 	 64.8125
| 14> H 	 -3.3354 	 -15.9799 	 64.6676
| 15> H 	 -4.25791 	 -14.441 	 64.2533
| 16> C 	 -5.54129 	 -16.1295 	 64.2515
| 17> H 	 -5.19159 	 -16.5585 	 63.3339
| 18> H 	 -5.78662 	 -17.0004 	 64.8787
| 19> C 	 -6.8052 	 -15.1945 	 63.981
| 20> H 	 -6.61758 	 -14.2729 	 63.4773
| 21> H 	 -7.59765 	 -15.7685 	 63.3808
| 22> H 	 -7.26905 	 -14.838 	 64.9452
| 23> S 	 -5.48854 	 -12.5367 	 70.1601
| 24> C 	 -5.19262 	 -10.8984 	 70.7319
| 25> C 	 -4.4516 	 -10.2516 	 69.7559
| 26> C 	 -3.90217 	 -11.1014 	 68.7385
| 27> C 	 -4.30146 	 -12.4573 	 68.9059
| 28> H 	 -4.23028 	 -9.20228 	 69.9349
| 29> C 	 -2.99473 	 -10.5842 	 67.5954
| 30> H 	 -2.69182 	 -11.3247 	 66.8826
| 31> H 	 -2.15837 	 -10.082 	 68.0954
| 32> C 	 -3.59369 	 -9.58733 	 66.5042
| 33> H 	 -4.06535 	 -8.72869 	 67.0079
| 34> H 	 -4.28371 	 -10.2203 	 65.9141
| 35> C 	 -2.59259 	 -8.98383 	 65.5914
| 36> H 	 -1.8992 	 -8.23844 	 65.9989
| 37> H 	 -3.13597 	 -8.61752 	 64.7311
| 38> H 	 -1.89421 	 -9.73632 	 65.2655
| 39> H 	 -3.22991 	 -16.8481 	 67.0065
| 40> H 	 -5.52712 	 -10.493 	 71.6365
| 41> *
| 42>
| 43>                          ****END OF INPUT****

CARTESIAN COORDINATES (ANGSTROEM)
---------------------------------
  S     -3.755700  -15.133500   68.778500
  C     -3.778580  -15.982400   67.246900
  C     -4.375900  -15.113100   66.276200
  C     -4.630300  -13.804900   66.773700
  C     -4.255440  -13.610300   68.074400
  H     -5.060420  -13.054900   66.148500
  C     -4.287500  -15.420100   64.812500
  H     -3.335400  -15.979900   64.667600
  H     -4.257910  -14.441000   64.253300
  C     -5.541290  -16.129500   64.251500
  H     -5.191590  -16.558500   63.333900
  H     -5.786620  -17.000400   64.878700
  C     -6.805200  -15.194500   63.981000
  H     -6.617580  -14.272900   63.477300
  H     -7.597650  -15.768500   63.380800
  H     -7.269050  -14.838000   64.945200
  S     -5.488540  -12.536700   70.160100
  C     -5.192620  -10.898400   70.731900
  C     -4.451600  -10.251600   69.755900
  C     -3.902170  -11.101400   68.738500
  C     -4.301460  -12.457300   68.905900
  H     -4.230280   -9.202280   69.934900
  C     -2.994730  -10.584200   67.595400
  H     -2.691820  -11.324700   66.882600
  H     -2.158370  -10.082000   68.095400
  C     -3.593690   -9.587330   66.504200
  H     -4.065350   -8.728690   67.007900
  H     -4.283710  -10.220300   65.914100
  C     -2.592590   -8.983830   65.591400
  H     -1.899200   -8.238440   65.998900
  H     -3.135970   -8.617520   64.731100
  H     -1.894210   -9.736320   65.265500
  H     -3.229910  -16.848100   67.006500
  H     -5.527120  -10.493000   71.636500

 Total Charge           Charge          ....    0
 Multiplicity           Mult            ....    1
 Number of Electrons    NEL             ....  134
 Basis Dimension        Dim             ....  322

ORBITAL ENERGIES
----------------

  NO   OCC          E(Eh)            E(eV)
   0   2.0000     -88.965320     -2420.8694
   1   2.0000     -88.961548     -2420.7668
   2   2.0000     -10.328186      -281.0442
   3   2.0000     -10.326351      -280.9943
   4   2.0000     -10.315922      -280.7105
   5   2.0000     -10.315774      -280.7065
   6   2.0000     -10.312998      -280.6309
   7   2.0000     -10.302271      -280.3390
   8   2.0000     -10.297467      -280.2083
   9   2.0000     -10.297036      -280.1966
  10   2.0000     -10.294358      -280.1237
  11   2.0000     -10.293916      -280.1117
  12   2.0000     -10.291037      -280.0333
  13   2.0000     -10.290831      -280.0277
  14   2.0000     -10.289707      -279.9972
  15   2.0000     -10.274771      -279.5907
  16   2.0000      -8.079998      -219.8679
  17   2.0000      -8.076671      -219.7774
  18   2.0000      -6.038474      -164.3152
  19   2.0000      -6.035191      -164.2259
  20   2.0000      -6.034341      -164.2028
  21   2.0000      -6.030982      -164.1114
  22   2.0000      -6.030937      -164.1101
  23   2.0000      -6.027513      -164.0170
  24   2.0000      -1.009168       -27.4608
  25   2.0000      -0.982216       -26.7275
  26   2.0000      -0.909052       -24.7366
  27   2.0000      -0.906562       -24.6688
  28   2.0000      -0.870692       -23.6927
  29   2.0000      -0.851621       -23.1738
  30   2.0000      -0.843102       -22.9420
  31   2.0000      -0.816264       -22.2117
  32   2.0000      -0.780245       -21.2316
  33   2.0000      -0.768758       -20.9190
  34   2.0000      -0.708757       -19.2862
  35   2.0000      -0.703575       -19.1453
  36   2.0000      -0.690943       -18.8015
  37   2.0000      -0.659316       -17.9409
  38   2.0000      -0.643116       -17.5001
  39   2.0000      -0.622478       -16.9385
  40   2.0000      -0.600026       -16.3275
  41   2.0000      -0.570277       -15.5180
  42   2.0000      -0.569955       -15.5093
  43   2.0000      -0.544442       -14.8150
  44   2.0000      -0.540880       -14.7181
  45   2.0000      -0.527130       -14.3439
  46   2.0000      -0.522348       -14.2138
  47   2.0000      -0.518810       -14.1175
  48   2.0000      -0.504543       -13.7293
  49   2.0000      -0.504144       -13.7185
  50   2.0000      -0.487754       -13.2725
  51   2.0000      -0.478635       -13.0243
  52   2.0000      -0.469930       -12.7874
  53   2.0000      -0.467242       -12.7143
  54   2.0000      -0.463476       -12.6118
  55   2.0000      -0.447105       -12.1664
  56   2.0000      -0.442115       -12.0306
  57   2.0000      -0.433334       -11.7916
  58   2.0000      -0.429004       -11.6738
  59   2.0000      -0.426183       -11.5970
  60   2.0000      -0.418179       -11.3792
  61   2.0000      -0.411561       -11.1991
  62   2.0000      -0.406673       -11.0661
  63   2.0000      -0.345146        -9.3919
  64   2.0000      -0.327164        -8.9026
  65   2.0000      -0.322884        -8.7861
  66   2.0000      -0.294239        -8.0067
  67   0.0000       0.026284         0.7152
  68   0.0000       0.054777         1.4906
  69   0.0000       0.111103         3.0233
  70   0.0000       0.116175         3.1613
  71   0.0000       0.125405         3.4124

MULLIKEN ATOMIC CHARGES
-----------------------
   0 S :    0.115833
   1 C :   -0.101016
   2 C :   -0.094425
   3 C :    0.063402
   4 C :   -0.167216
   5 H :   -0.000037
   6 C :   -0.008021
   7 H :    0.043785
   8 H :    0.030264
   9 C :   -0.035982
  10 H :    0.020369
  11 H :    0.032898
  12 C :   -0.095086
  13 H :    0.026575
  14 H :    0.055092
  15 H :    0.046344
  16 S :    0.098797
  17 C :   -0.078382
  18 C :   -0.041141
  19 C :   -0.007149
  20 C :   -0.135655
  21 H :    0.023875
  22 C :    0.042418
  23 H :    0.021163
  24 H :    0.034440
  25 C :   -0.091943
  26 H :    0.031841
  27 H :    0.032457
  28 C :   -0.033298
  29 H :    0.033549
  30 H :    0.039638
  31 H :    0.010036
  32 H :    0.044564
  33 H :    0.042011
Sum of atomic charges:    0.0000000

LOEWDIN ATOMIC CHARGES
----------------------
   0 S :    0.416078
   1 C :   -0.195176
   2 C :   -0.061846
   3 C :   -0.058124
   4 C :   -0.199514
   5 H :    0.027422
   6 C :   -0.038575
   7 H :    0.037560
   8 H :    0.033413
   9 C :   -0.038851
  10 H :    0.019038
  11 H :    0.026035
  12 C :   -0.076349
  13 H :    0.016999
  14 H :    0.038591
  15 H :    0.032129
  16 S :    0.416075
  17 C :   -0.174109
  18 C :   -0.071261
  19 C :   -0.054666
  20 C :   -0.211019
  21 H :    0.031944
  22 C :   -0.033005
  23 H :    0.026228
  24 H :    0.030910
  25 C :   -0.039112
  26 H :    0.022337
  27 H :    0.025083
  28 C :   -0.068537
  29 H :    0.027652
  30 H :    0.031243
  31 H :    0.020118
  32 H :    0.020821
  33 H :    0.020468

  Mayer bond orders larger than 0.100000
B(  0-S ,  1-C ) :   1.1557 B(  0-S ,  4-C ) :   1.1596 B(  1-C ,  2-C ) :   1.5614
B(  1-C ,  4-C ) :   0.1123 B(  1-C , 32-H ) :   0.9769 B(  2-C ,  3-C ) :   1.2659
B(  2-C ,  6-C ) :   1.0203 B(  3-C ,  4-C ) :   1.5497 B(  3-C ,  5-H ) :   1.0023
B(  4-C , 20-C ) :   1.0227 B(  6-C ,  7-H ) :   0.9500 B(  6-C ,  8-H ) :   0.9505
B(  6-C ,  9-C ) :   1.0572 B(  9-C , 10-H ) :   0.9567 B(  9-C , 11-H ) :   0.9592
B(  9-C , 12-C ) :   1.0598 B( 12-C , 13-H ) :   0.9770 B( 12-C , 14-H ) :   0.9768
B( 12-C , 15-H ) :   0.9765 B( 16-S , 17-C ) :   1.1555 B( 16-S , 20-C ) :   1.1685
B( 17-C , 18-C ) :   1.5855 B( 17-C , 20-C ) :   0.1125 B( 17-C , 33-H ) :   0.9806
B( 18-C , 19-C ) :   1.2486 B( 18-C , 21-H ) :   0.9891 B( 19-C , 20-C ) :   1.5552
B( 19-C , 22-C ) :   1.0461 B( 22-C , 23-H ) :   0.9433 B( 22-C , 24-H ) :   0.9416
B( 22-C , 25-C ) :   1.0507 B( 25-C , 26-H ) :   0.9541 B( 25-C , 27-H ) :   0.9592
B( 25-C , 28-C ) :   1.0938 B( 28-C , 29-H ) :   0.9716 B( 28-C , 30-H ) :   0.9708
B( 28-C , 31-H ) :   0.9676

Dispersion correction           -0.013841181
FINAL SINGLE POINT ENERGY     -1339.856315420535

DIPOLE MOMENT
-------------
                                X             Y             Z
Electronic contribution:     -0.90921      -8.44185      27.18904
Nuclear contribution   :      1.08846       8.80228     -27.83597
                        -----------------------------------------
Total Dipole Moment    :      0.17925       0.36044      -0.64693
                        -----------------------------------------
Magnitude (a.u.)       :      0.76194
Magnitude (Debye)      :      1.93671

Rotational constants in cm-1:     0.016255     0.008928     0.006816
Rotational constants in MHz :   487.321200   267.644345   204.344414

                             ****ORCA TERMINATED NORMALLY****
TOTAL RUN TIME: 0 days 0 hours 0 minutes 32 seconds 9 msec
