                         Program Version 4.2.1 -  RELEASE  -
|  1> ! wB97X-D3 SP def2-SVP
|  2> %pal
|  3> nprocs 16
|  4> end
|  5>
|  6> * xyz 0 1
|  7> S 	 51.2074 	 24.7207 	 88.0576
|  8> C 	 51.6444 	 24.8516 	 89.7416
|  9> C 	 52.0088 	 23.6593 	 90.3302
| 10> C 	 51.7995 	 22.5582 	 89.3777
| 11> C 	 51.4444 	 22.9773 	 88.1468
| 12> H 	 51.8485 	 21.4636 	 89.5662
| 13> C 	 52.6124 	 23.4609 	 91.7569
| 14> H 	 52.6638 	 22.4295 	 91.8863
| 15> H 	 51.7713 	 23.8033 	 92.3873
| 16> C 	 53.9446 	 24.2017 	 92.0257
| 17> H 	 53.871 	 25.2913 	 92.0118
| 18> H 	 54.31 	 24.0825 	 93.047
| 19> C 	 55.0739 	 23.7387 	 91.151
| 20> H 	 54.8549 	 24.2087 	 90.1581
| 21> H 	 56.0259 	 24.1476 	 91.4621
| 22> H 	 55.0509 	 22.6412 	 91.2151
| 23> S 	 49.571 	 22.2182 	 86.2118
| 24> C 	 49.9928 	 21.0185 	 85.0319
| 25> C 	 51.2461 	 20.4978 	 85.258
| 26> C 	 51.8732 	 21.0263 	 86.4185
| 27> C 	 51.1727 	 22.0915 	 87.0101
| 28> H 	 51.6001 	 19.7328 	 84.521
| 29> C 	 53.2792 	 20.6697 	 86.8617
| 30> H 	 53.5818 	 19.6811 	 86.614
| 31> H 	 53.4668 	 20.5085 	 87.9045
| 32> C 	 54.2453 	 21.752 	 86.3679
| 33> H 	 55.2502 	 21.3834 	 86.6825
| 34> H 	 54.0277 	 22.6309 	 86.8928
| 35> C 	 54.2515 	 22.0392 	 84.8516
| 36> H 	 55.1325 	 22.6062 	 84.5049
| 37> H 	 53.4227 	 22.7745 	 84.6283
| 38> H 	 54.0945 	 21.1098 	 84.2084
| 39> H 	 51.8027 	 25.6888 	 90.4718
| 40> H 	 49.3056 	 20.6976 	 84.2212
| 41> *
| 42>
| 43>                          ****END OF INPUT****

CARTESIAN COORDINATES (ANGSTROEM)
---------------------------------
  S     51.207400   24.720700   88.057600
  C     51.644400   24.851600   89.741600
  C     52.008800   23.659300   90.330200
  C     51.799500   22.558200   89.377700
  C     51.444400   22.977300   88.146800
  H     51.848500   21.463600   89.566200
  C     52.612400   23.460900   91.756900
  H     52.663800   22.429500   91.886300
  H     51.771300   23.803300   92.387300
  C     53.944600   24.201700   92.025700
  H     53.871000   25.291300   92.011800
  H     54.310000   24.082500   93.047000
  C     55.073900   23.738700   91.151000
  H     54.854900   24.208700   90.158100
  H     56.025900   24.147600   91.462100
  H     55.050900   22.641200   91.215100
  S     49.571000   22.218200   86.211800
  C     49.992800   21.018500   85.031900
  C     51.246100   20.497800   85.258000
  C     51.873200   21.026300   86.418500
  C     51.172700   22.091500   87.010100
  H     51.600100   19.732800   84.521000
  C     53.279200   20.669700   86.861700
  H     53.581800   19.681100   86.614000
  H     53.466800   20.508500   87.904500
  C     54.245300   21.752000   86.367900
  H     55.250200   21.383400   86.682500
  H     54.027700   22.630900   86.892800
  C     54.251500   22.039200   84.851600
  H     55.132500   22.606200   84.504900
  H     53.422700   22.774500   84.628300
  H     54.094500   21.109800   84.208400
  H     51.802700   25.688800   90.471800
  H     49.305600   20.697600   84.221200

 Total Charge           Charge          ....    0
 Multiplicity           Mult            ....    1
 Number of Electrons    NEL             ....  134
 Basis Dimension        Dim             ....  322

ORBITAL ENERGIES
----------------

  NO   OCC          E(Eh)            E(eV)
   0   2.0000     -88.972231     -2421.0575
   1   2.0000     -88.962381     -2420.7895
   2   2.0000     -10.329397      -281.0772
   3   2.0000     -10.327939      -281.0375
   4   2.0000     -10.318301      -280.7753
   5   2.0000     -10.315584      -280.7013
   6   2.0000     -10.307346      -280.4771
   7   2.0000     -10.304869      -280.4097
   8   2.0000     -10.298174      -280.2276
   9   2.0000     -10.296874      -280.1922
  10   2.0000     -10.296036      -280.1694
  11   2.0000     -10.288375      -279.9609
  12   2.0000     -10.283855      -279.8379
  13   2.0000     -10.280870      -279.7567
  14   2.0000     -10.279664      -279.7239
  15   2.0000     -10.278302      -279.6868
  16   2.0000      -8.086340      -220.0405
  17   2.0000      -8.076913      -219.7840
  18   2.0000      -6.045073      -164.4948
  19   2.0000      -6.041103      -164.3868
  20   2.0000      -6.036712      -164.2673
  21   2.0000      -6.035291      -164.2286
  22   2.0000      -6.031447      -164.1240
  23   2.0000      -6.027816      -164.0252
  24   2.0000      -1.004254       -27.3271
  25   2.0000      -0.982111       -26.7246
  26   2.0000      -0.913230       -24.8503
  27   2.0000      -0.907290       -24.6886
  28   2.0000      -0.868490       -23.6328
  29   2.0000      -0.849547       -23.1174
  30   2.0000      -0.837592       -22.7920
  31   2.0000      -0.813189       -22.1280
  32   2.0000      -0.785272       -21.3683
  33   2.0000      -0.774468       -21.0743
  34   2.0000      -0.705830       -19.2066
  35   2.0000      -0.701060       -19.0768
  36   2.0000      -0.684087       -18.6149
  37   2.0000      -0.656404       -17.8617
  38   2.0000      -0.630441       -17.1552
  39   2.0000      -0.612419       -16.6648
  40   2.0000      -0.596711       -16.2373
  41   2.0000      -0.575936       -15.6720
  42   2.0000      -0.560081       -15.2406
  43   2.0000      -0.549510       -14.9529
  44   2.0000      -0.543469       -14.7885
  45   2.0000      -0.534505       -14.5446
  46   2.0000      -0.514432       -13.9984
  47   2.0000      -0.507685       -13.8148
  48   2.0000      -0.496252       -13.5037
  49   2.0000      -0.489060       -13.3080
  50   2.0000      -0.481869       -13.1123
  51   2.0000      -0.477156       -12.9841
  52   2.0000      -0.468341       -12.7442
  53   2.0000      -0.465467       -12.6660
  54   2.0000      -0.458128       -12.4663
  55   2.0000      -0.445905       -12.1337
  56   2.0000      -0.442620       -12.0443
  57   2.0000      -0.437438       -11.9033
  58   2.0000      -0.433511       -11.7964
  59   2.0000      -0.428840       -11.6693
  60   2.0000      -0.415036       -11.2937
  61   2.0000      -0.409283       -11.1372
  62   2.0000      -0.407607       -11.0916
  63   2.0000      -0.347751        -9.4628
  64   2.0000      -0.330230        -8.9860
  65   2.0000      -0.328216        -8.9312
  66   2.0000      -0.294118        -8.0033
  67   0.0000       0.030709         0.8356
  68   0.0000       0.069964         1.9038
  69   0.0000       0.110796         3.0149
  70   0.0000       0.120660         3.2833
  71   0.0000       0.128064         3.4848

MULLIKEN ATOMIC CHARGES
-----------------------
   0 S :    0.131506
   1 C :   -0.106136
   2 C :   -0.169122
   3 C :    0.022906
   4 C :   -0.154437
   5 H :    0.032500
   6 C :    0.117328
   7 H :    0.002551
   8 H :    0.045223
   9 C :   -0.078193
  10 H :    0.019792
  11 H :    0.021468
  12 C :   -0.047457
  13 H :    0.051092
  14 H :    0.031180
  15 H :    0.035353
  16 S :    0.096297
  17 C :   -0.112155
  18 C :   -0.054471
  19 C :   -0.013786
  20 C :   -0.172032
  21 H :    0.039413
  22 C :    0.098856
  23 H :   -0.003752
  24 H :    0.005845
  25 C :   -0.053970
  26 H :    0.024602
  27 H :    0.030909
  28 C :   -0.088559
  29 H :    0.039412
  30 H :    0.044409
  31 H :    0.039700
  32 H :    0.051166
  33 H :    0.072562
Sum of atomic charges:    0.0000000

LOEWDIN ATOMIC CHARGES
----------------------
   0 S :    0.403725
   1 C :   -0.216017
   2 C :   -0.062875
   3 C :   -0.064058
   4 C :   -0.196658
   5 H :    0.039122
   6 C :   -0.023778
   7 H :    0.019915
   8 H :    0.041673
   9 C :   -0.048536
  10 H :    0.020958
  11 H :    0.023529
  12 C :   -0.063426
  13 H :    0.034047
  14 H :    0.023805
  15 H :    0.027345
  16 S :    0.391813
  17 C :   -0.192674
  18 C :   -0.082919
  19 C :   -0.049931
  20 C :   -0.187601
  21 H :    0.042845
  22 C :   -0.035770
  23 H :    0.023456
  24 H :    0.028892
  25 C :   -0.031054
  26 H :    0.024037
  27 H :    0.018158
  28 C :   -0.079888
  29 H :    0.027998
  30 H :    0.033319
  31 H :    0.028971
  32 H :    0.043302
  33 H :    0.038277

  Mayer bond orders larger than 0.100000
B(  0-S ,  1-C ) :   1.1153 B(  0-S ,  4-C ) :   1.1184 B(  1-C ,  2-C ) :   1.6771
B(  1-C , 32-H ) :   0.9535 B(  2-C ,  3-C ) :   1.1911 B(  2-C ,  6-C ) :   0.9959
B(  3-C ,  4-C ) :   1.6407 B(  3-C ,  5-H ) :   0.9815 B(  4-C , 20-C ) :   1.0392
B(  6-C ,  7-H ) :   0.9429 B(  6-C ,  8-H ) :   0.9367 B(  6-C ,  9-C ) :   1.0673
B(  9-C , 10-H ) :   0.9553 B(  9-C , 11-H ) :   0.9548 B(  9-C , 12-C ) :   1.0748
B( 12-C , 13-H ) :   0.9740 B( 12-C , 14-H ) :   0.9723 B( 12-C , 15-H ) :   0.9767
B( 16-S , 17-C ) :   1.1644 B( 16-S , 20-C ) :   1.1405 B( 17-C , 18-C ) :   1.6066
B( 17-C , 20-C ) :   0.1065 B( 17-C , 33-H ) :   0.9616 B( 18-C , 19-C ) :   1.2418
B( 18-C , 21-H ) :   0.9856 B( 19-C , 20-C ) :   1.5721 B( 19-C , 22-C ) :   1.0485
B( 22-C , 23-H ) :   0.9274 B( 22-C , 24-H ) :   0.9301 B( 22-C , 25-C ) :   1.0734
B( 25-C , 26-H ) :   0.9561 B( 25-C , 27-H ) :   0.9581 B( 25-C , 28-C ) :   1.0709
B( 28-C , 29-H ) :   0.9744 B( 28-C , 30-H ) :   0.9712 B( 28-C , 31-H ) :   0.9757

Dispersion correction           -0.015828609
FINAL SINGLE POINT ENERGY     -1339.868432098758

DIPOLE MOMENT
-------------
                                X             Y             Z
Electronic contribution:    -23.91738       3.65215      -8.81315
Nuclear contribution   :     24.41772      -3.96784       9.19549
                        -----------------------------------------
Total Dipole Moment    :      0.50034      -0.31569       0.38233
                        -----------------------------------------
Magnitude (a.u.)       :      0.70440
Magnitude (Debye)      :      1.79045

Rotational constants in cm-1:     0.021808     0.008947     0.007379
Rotational constants in MHz :   653.786292   268.223172   221.206875

                             ****ORCA TERMINATED NORMALLY****
TOTAL RUN TIME: 0 days 0 hours 0 minutes 32 seconds 379 msec
