                         Program Version 4.2.1 -  RELEASE  -
|  1> ! wB97X-D3 SP def2-SVP
|  2> %pal
|  3> nprocs 16
|  4> end
|  5>
|  6> * xyz 0 1
|  7> S 	 -58.533 	 41.5823 	 114.257
|  8> C 	 -58.3826 	 41.0786 	 112.586
|  9> C 	 -57.025 	 40.8909 	 112.325
| 10> C 	 -56.1381 	 40.9695 	 113.408
| 11> C 	 -56.8116 	 41.2934 	 114.591
| 12> H 	 -55.0212 	 40.9144 	 113.421
| 13> C 	 -56.5935 	 40.5978 	 110.878
| 14> H 	 -55.9153 	 41.4141 	 110.51
| 15> H 	 -57.5512 	 40.6388 	 110.345
| 16> C 	 -56.0418 	 39.2191 	 110.637
| 17> H 	 -55.9688 	 39.0977 	 109.577
| 18> H 	 -54.9988 	 39.0997 	 111.034
| 19> C 	 -57.0007 	 38.0984 	 111.007
| 20> H 	 -56.6814 	 37.1598 	 110.589
| 21> H 	 -57.1185 	 37.8867 	 112.062
| 22> H 	 -57.9624 	 38.2685 	 110.591
| 23> S 	 -56.6327 	 42.662 	 117.048
| 24> C 	 -55.4259 	 42.0669 	 118.151
| 25> C 	 -54.8918 	 40.7985 	 117.832
| 26> C 	 -55.4398 	 40.3329 	 116.604
| 27> C 	 -56.2685 	 41.2923 	 115.956
| 28> H 	 -54.153 	 40.3109 	 118.48
| 29> C 	 -54.8382 	 39.0601 	 116.004
| 30> H 	 -53.8045 	 39.3649 	 116.02
| 31> H 	 -55.1572 	 38.8652 	 115.041
| 32> C 	 -54.8571 	 37.7712 	 116.831
| 33> H 	 -54.6434 	 37.7981 	 117.907
| 34> H 	 -54.1814 	 37.0483 	 116.364
| 35> C 	 -56.2462 	 37.1013 	 116.668
| 36> H 	 -56.521 	 37.0705 	 115.627
| 37> H 	 -56.9977 	 37.5831 	 117.28
| 38> H 	 -56.1719 	 36.081 	 117.081
| 39> H 	 -59.2324 	 40.9815 	 111.88
| 40> H 	 -55.1005 	 42.5063 	 119.075
| 41> *
| 42>
| 43>                          ****END OF INPUT****

CARTESIAN COORDINATES (ANGSTROEM)
---------------------------------
  S    -58.533000   41.582300  114.257000
  C    -58.382600   41.078600  112.586000
  C    -57.025000   40.890900  112.325000
  C    -56.138100   40.969500  113.408000
  C    -56.811600   41.293400  114.591000
  H    -55.021200   40.914400  113.421000
  C    -56.593500   40.597800  110.878000
  H    -55.915300   41.414100  110.510000
  H    -57.551200   40.638800  110.345000
  C    -56.041800   39.219100  110.637000
  H    -55.968800   39.097700  109.577000
  H    -54.998800   39.099700  111.034000
  C    -57.000700   38.098400  111.007000
  H    -56.681400   37.159800  110.589000
  H    -57.118500   37.886700  112.062000
  H    -57.962400   38.268500  110.591000
  S    -56.632700   42.662000  117.048000
  C    -55.425900   42.066900  118.151000
  C    -54.891800   40.798500  117.832000
  C    -55.439800   40.332900  116.604000
  C    -56.268500   41.292300  115.956000
  H    -54.153000   40.310900  118.480000
  C    -54.838200   39.060100  116.004000
  H    -53.804500   39.364900  116.020000
  H    -55.157200   38.865200  115.041000
  C    -54.857100   37.771200  116.831000
  H    -54.643400   37.798100  117.907000
  H    -54.181400   37.048300  116.364000
  C    -56.246200   37.101300  116.668000
  H    -56.521000   37.070500  115.627000
  H    -56.997700   37.583100  117.280000
  H    -56.171900   36.081000  117.081000
  H    -59.232400   40.981500  111.880000
  H    -55.100500   42.506300  119.075000

 Total Charge           Charge          ....    0
 Multiplicity           Mult            ....    1
 Number of Electrons    NEL             ....  134
 Basis Dimension        Dim             ....  322

ORBITAL ENERGIES
----------------

  NO   OCC          E(Eh)            E(eV)
   0   2.0000     -88.971278     -2421.0316
   1   2.0000     -88.964009     -2420.8338
   2   2.0000     -10.334298      -281.2106
   3   2.0000     -10.332166      -281.1525
   4   2.0000     -10.320160      -280.8258
   5   2.0000     -10.317883      -280.7639
   6   2.0000     -10.311162      -280.5810
   7   2.0000     -10.299700      -280.2691
   8   2.0000     -10.298119      -280.2261
   9   2.0000     -10.298037      -280.2238
  10   2.0000     -10.291308      -280.0407
  11   2.0000     -10.288246      -279.9574
  12   2.0000     -10.286424      -279.9078
  13   2.0000     -10.284028      -279.8426
  14   2.0000     -10.270588      -279.4769
  15   2.0000     -10.269450      -279.4459
  16   2.0000      -8.085271      -220.0114
  17   2.0000      -8.078406      -219.8246
  18   2.0000      -6.043742      -164.4586
  19   2.0000      -6.040039      -164.3578
  20   2.0000      -6.036898      -164.2724
  21   2.0000      -6.035972      -164.2471
  22   2.0000      -6.032912      -164.1639
  23   2.0000      -6.029248      -164.0642
  24   2.0000      -1.000090       -27.2138
  25   2.0000      -0.980085       -26.6695
  26   2.0000      -0.913118       -24.8472
  27   2.0000      -0.910820       -24.7847
  28   2.0000      -0.863975       -23.5100
  29   2.0000      -0.851929       -23.1822
  30   2.0000      -0.843810       -22.9612
  31   2.0000      -0.811536       -22.0830
  32   2.0000      -0.783818       -21.3288
  33   2.0000      -0.769735       -20.9455
  34   2.0000      -0.708520       -19.2798
  35   2.0000      -0.694335       -18.8938
  36   2.0000      -0.689915       -18.7735
  37   2.0000      -0.654438       -17.8082
  38   2.0000      -0.637677       -17.3521
  39   2.0000      -0.618227       -16.8228
  40   2.0000      -0.598369       -16.2824
  41   2.0000      -0.561872       -15.2893
  42   2.0000      -0.555995       -15.1294
  43   2.0000      -0.551533       -15.0080
  44   2.0000      -0.544435       -14.8148
  45   2.0000      -0.537705       -14.6317
  46   2.0000      -0.523894       -14.2559
  47   2.0000      -0.514517       -14.0007
  48   2.0000      -0.501072       -13.6349
  49   2.0000      -0.492595       -13.4042
  50   2.0000      -0.487640       -13.2694
  51   2.0000      -0.474911       -12.9230
  52   2.0000      -0.466623       -12.6975
  53   2.0000      -0.462452       -12.5840
  54   2.0000      -0.459921       -12.5151
  55   2.0000      -0.449091       -12.2204
  56   2.0000      -0.445076       -12.1111
  57   2.0000      -0.439811       -11.9679
  58   2.0000      -0.436155       -11.8684
  59   2.0000      -0.423843       -11.5334
  60   2.0000      -0.420711       -11.4481
  61   2.0000      -0.414744       -11.2857
  62   2.0000      -0.404825       -11.0158
  63   2.0000      -0.345328        -9.3969
  64   2.0000      -0.332272        -9.0416
  65   2.0000      -0.329820        -8.9749
  66   2.0000      -0.283018        -7.7013
  67   0.0000       0.024885         0.6772
  68   0.0000       0.063011         1.7146
  69   0.0000       0.105979         2.8838
  70   0.0000       0.117106         3.1866
  71   0.0000       0.126992         3.4556

MULLIKEN ATOMIC CHARGES
-----------------------
   0 S :    0.099375
   1 C :   -0.141989
   2 C :   -0.104208
   3 C :    0.014507
   4 C :   -0.144651
   5 H :    0.041572
   6 C :    0.062342
   7 H :    0.049577
   8 H :    0.003895
   9 C :   -0.063133
  10 H :    0.022831
  11 H :    0.034011
  12 C :   -0.029169
  13 H :    0.019272
  14 H :    0.036189
  15 H :    0.011004
  16 S :    0.121953
  17 C :   -0.076066
  18 C :   -0.070372
  19 C :   -0.008143
  20 C :   -0.174470
  21 H :    0.034778
  22 C :    0.091235
  23 H :    0.034412
  24 H :    0.001776
  25 C :   -0.087246
  26 H :    0.034866
  27 H :    0.029560
  28 C :   -0.059672
  29 H :    0.030612
  30 H :    0.039398
  31 H :    0.028009
  32 H :    0.070063
  33 H :    0.047882
Sum of atomic charges:   -0.0000000

LOEWDIN ATOMIC CHARGES
----------------------
   0 S :    0.391884
   1 C :   -0.208497
   2 C :   -0.067743
   3 C :   -0.074737
   4 C :   -0.178898
   5 H :    0.044985
   6 C :   -0.033127
   7 H :    0.037671
   8 H :    0.026523
   9 C :   -0.046422
  10 H :    0.024447
  11 H :    0.025718
  12 C :   -0.059816
  13 H :    0.024333
  14 H :    0.023860
  15 H :    0.019642
  16 S :    0.399954
  17 C :   -0.181420
  18 C :   -0.075029
  19 C :   -0.040854
  20 C :   -0.202395
  21 H :    0.036992
  22 C :   -0.023826
  23 H :    0.036754
  24 H :    0.016772
  25 C :   -0.039017
  26 H :    0.024695
  27 H :    0.026846
  28 C :   -0.063139
  29 H :    0.021006
  30 H :    0.024115
  31 H :    0.024739
  32 H :    0.038660
  33 H :    0.025324

  Mayer bond orders larger than 0.100000
B(  0-S ,  1-C ) :   1.1366 B(  0-S ,  4-C ) :   1.1641 B(  1-C ,  2-C ) :   1.5830
B(  1-C ,  4-C ) :   0.1061 B(  1-C , 32-H ) :   0.9657 B(  2-C ,  3-C ) :   1.2500
B(  2-C ,  6-C ) :   1.0214 B(  3-C ,  4-C ) :   1.5477 B(  3-C ,  5-H ) :   0.9912
B(  4-C , 20-C ) :   1.0543 B(  6-C ,  7-H ) :   0.9417 B(  6-C ,  8-H ) :   0.9367
B(  6-C ,  9-C ) :   1.0860 B(  9-C , 10-H ) :   0.9530 B(  9-C , 11-H ) :   0.9524
B(  9-C , 12-C ) :   1.0760 B( 12-C , 13-H ) :   0.9728 B( 12-C , 14-H ) :   0.9730
B( 12-C , 15-H ) :   0.9713 B( 16-S , 17-C ) :   1.1639 B( 16-S , 20-C ) :   1.1210
B( 17-C , 18-C ) :   1.6131 B( 17-C , 20-C ) :   0.1025 B( 17-C , 33-H ) :   0.9657
B( 18-C , 19-C ) :   1.2376 B( 18-C , 21-H ) :   0.9860 B( 19-C , 20-C ) :   1.5664
B( 19-C , 22-C ) :   1.0293 B( 22-C , 23-H ) :   0.9351 B( 22-C , 24-H ) :   0.9367
B( 22-C , 25-C ) :   1.0774 B( 25-C , 26-H ) :   0.9578 B( 25-C , 27-H ) :   0.9543
B( 25-C , 28-C ) :   1.0752 B( 28-C , 29-H ) :   0.9761 B( 28-C , 30-H ) :   0.9792
B( 28-C , 31-H ) :   0.9746

Dispersion correction           -0.014599750
FINAL SINGLE POINT ENERGY     -1339.870947327078

DIPOLE MOMENT
-------------
                                X             Y             Z
Electronic contribution:     -8.68580      24.82182      12.27480
Nuclear contribution   :      9.20840     -25.31831     -12.48333
                        -----------------------------------------
Total Dipole Moment    :      0.52259      -0.49649      -0.20852
                        -----------------------------------------
Magnitude (a.u.)       :      0.75039
Magnitude (Debye)      :      1.90735

Rotational constants in cm-1:     0.018215     0.009470     0.007161
Rotational constants in MHz :   546.076316   283.893106   214.691970

                             ****ORCA TERMINATED NORMALLY****
TOTAL RUN TIME: 0 days 0 hours 0 minutes 30 seconds 820 msec
