                         Program Version 4.2.1 -  RELEASE  -
|  1> ! wB97X-D3 SP def2-SVP
|  2> %pal
|  3> nprocs 16
|  4> end
|  5>
|  6> * xyz 0 1
|  7> S 	 1.07192 	 36.4288 	 37.331
|  8> C 	 2.35218 	 35.3289 	 36.9331
|  9> C 	 1.85415 	 34.1112 	 36.3064
| 10> C 	 0.471362 	 34.2628 	 36.1245
| 11> C 	 -0.146794 	 35.3746 	 36.6578
| 12> H 	 -0.0798682 	 33.6506 	 35.4255
| 13> C 	 2.5735 	 32.9415 	 35.673
| 14> H 	 3.46189 	 32.711 	 36.1397
| 15> H 	 2.92677 	 33.3083 	 34.7154
| 16> C 	 1.76819 	 31.6247 	 35.6523
| 17> H 	 1.63086 	 31.1822 	 36.6513
| 18> H 	 0.685575 	 31.7095 	 35.2901
| 19> C 	 2.48127 	 30.4288 	 34.9206
| 20> H 	 1.871 	 29.5108 	 34.8454
| 21> H 	 2.8439 	 30.7043 	 33.9232
| 22> H 	 3.30762 	 30.0958 	 35.5236
| 23> S 	 -1.82975 	 37.2024 	 35.4218
| 24> C 	 -3.35334 	 37.2717 	 36.0968
| 25> C 	 -3.73785 	 36.1124 	 36.5656
| 26> C 	 -2.65139 	 35.247 	 36.8384
| 27> C 	 -1.49456 	 35.8436 	 36.4622
| 28> H 	 -4.77196 	 36.0076 	 36.7887
| 29> C 	 -2.95382 	 33.9463 	 37.5752
| 30> H 	 -3.67677 	 34.1218 	 38.3324
| 31> H 	 -2.07573 	 33.6049 	 38.1339
| 32> C 	 -3.29736 	 32.7608 	 36.6626
| 33> H 	 -2.386 	 32.3317 	 36.2038
| 34> H 	 -3.99159 	 32.9779 	 35.8352
| 35> C 	 -3.89565 	 31.5419 	 37.341
| 36> H 	 -3.16683 	 31.1121 	 38.0501
| 37> H 	 -4.32731 	 30.8681 	 36.5377
| 38> H 	 -4.77988 	 31.8095 	 37.9449
| 39> H 	 3.4078 	 35.3558 	 37.3013
| 40> H 	 -4.12896 	 38.0352 	 35.8057
| 41> *
| 42>
| 43>                          ****END OF INPUT****

CARTESIAN COORDINATES (ANGSTROEM)
---------------------------------
  S      1.071920   36.428800   37.331000
  C      2.352180   35.328900   36.933100
  C      1.854150   34.111200   36.306400
  C      0.471362   34.262800   36.124500
  C     -0.146794   35.374600   36.657800
  H     -0.079868   33.650600   35.425500
  C      2.573500   32.941500   35.673000
  H      3.461890   32.711000   36.139700
  H      2.926770   33.308300   34.715400
  C      1.768190   31.624700   35.652300
  H      1.630860   31.182200   36.651300
  H      0.685575   31.709500   35.290100
  C      2.481270   30.428800   34.920600
  H      1.871000   29.510800   34.845400
  H      2.843900   30.704300   33.923200
  H      3.307620   30.095800   35.523600
  S     -1.829750   37.202400   35.421800
  C     -3.353340   37.271700   36.096800
  C     -3.737850   36.112400   36.565600
  C     -2.651390   35.247000   36.838400
  C     -1.494560   35.843600   36.462200
  H     -4.771960   36.007600   36.788700
  C     -2.953820   33.946300   37.575200
  H     -3.676770   34.121800   38.332400
  H     -2.075730   33.604900   38.133900
  C     -3.297360   32.760800   36.662600
  H     -2.386000   32.331700   36.203800
  H     -3.991590   32.977900   35.835200
  C     -3.895650   31.541900   37.341000
  H     -3.166830   31.112100   38.050100
  H     -4.327310   30.868100   36.537700
  H     -4.779880   31.809500   37.944900
  H      3.407800   35.355800   37.301300
  H     -4.128960   38.035200   35.805700

 Total Charge           Charge          ....    0
 Multiplicity           Mult            ....    1
 Number of Electrons    NEL             ....  134
 Basis Dimension        Dim             ....  322

ORBITAL ENERGIES
----------------

  NO   OCC          E(Eh)            E(eV)
   0   2.0000     -88.968512     -2420.9563
   1   2.0000     -88.957150     -2420.6471
   2   2.0000     -10.322307      -280.8843
   3   2.0000     -10.321225      -280.8548
   4   2.0000     -10.316462      -280.7252
   5   2.0000     -10.304804      -280.4080
   6   2.0000     -10.301093      -280.3070
   7   2.0000     -10.299188      -280.2552
   8   2.0000     -10.296455      -280.1808
   9   2.0000     -10.293249      -280.0935
  10   2.0000     -10.289607      -279.9944
  11   2.0000     -10.286897      -279.9207
  12   2.0000     -10.286507      -279.9101
  13   2.0000     -10.283145      -279.8186
  14   2.0000     -10.282987      -279.8143
  15   2.0000     -10.275581      -279.6128
  16   2.0000      -8.083032      -219.9505
  17   2.0000      -8.074495      -219.7182
  18   2.0000      -6.041486      -164.3972
  19   2.0000      -6.037320      -164.2838
  20   2.0000      -6.034108      -164.1964
  21   2.0000      -6.032814      -164.1612
  22   2.0000      -6.029238      -164.0639
  23   2.0000      -6.024662      -163.9394
  24   2.0000      -1.020963       -27.7818
  25   2.0000      -0.989324       -26.9209
  26   2.0000      -0.911677       -24.8080
  27   2.0000      -0.909925       -24.7603
  28   2.0000      -0.869963       -23.6729
  29   2.0000      -0.855190       -23.2709
  30   2.0000      -0.847718       -23.0676
  31   2.0000      -0.813611       -22.1395
  32   2.0000      -0.786955       -21.4141
  33   2.0000      -0.772760       -21.0279
  34   2.0000      -0.710076       -19.3221
  35   2.0000      -0.693837       -18.8803
  36   2.0000      -0.686721       -18.6866
  37   2.0000      -0.653944       -17.7947
  38   2.0000      -0.642657       -17.4876
  39   2.0000      -0.623095       -16.9553
  40   2.0000      -0.603291       -16.4164
  41   2.0000      -0.568934       -15.4815
  42   2.0000      -0.560251       -15.2452
  43   2.0000      -0.558163       -15.1884
  44   2.0000      -0.532535       -14.4910
  45   2.0000      -0.525963       -14.3122
  46   2.0000      -0.517235       -14.0747
  47   2.0000      -0.513404       -13.9704
  48   2.0000      -0.497285       -13.5318
  49   2.0000      -0.496800       -13.5186
  50   2.0000      -0.490967       -13.3599
  51   2.0000      -0.484995       -13.1974
  52   2.0000      -0.470915       -12.8142
  53   2.0000      -0.460832       -12.5399
  54   2.0000      -0.455743       -12.4014
  55   2.0000      -0.453109       -12.3297
  56   2.0000      -0.449661       -12.2359
  57   2.0000      -0.436983       -11.8909
  58   2.0000      -0.429640       -11.6911
  59   2.0000      -0.423871       -11.5341
  60   2.0000      -0.423072       -11.5124
  61   2.0000      -0.414160       -11.2699
  62   2.0000      -0.413312       -11.2468
  63   2.0000      -0.340976        -9.2784
  64   2.0000      -0.330028        -8.9805
  65   2.0000      -0.321637        -8.7522
  66   2.0000      -0.295934        -8.0528
  67   0.0000       0.031467         0.8563
  68   0.0000       0.066099         1.7986
  69   0.0000       0.111009         3.0207
  70   0.0000       0.124693         3.3931
  71   0.0000       0.127677         3.4743

MULLIKEN ATOMIC CHARGES
-----------------------
   0 S :    0.133254
   1 C :   -0.135795
   2 C :   -0.112862
   3 C :    0.022401
   4 C :   -0.187085
   5 H :    0.013791
   6 C :    0.143190
   7 H :   -0.006481
   8 H :    0.041069
   9 C :   -0.141632
  10 H :    0.037211
  11 H :    0.046969
  12 C :   -0.053314
  13 H :    0.036790
  14 H :    0.034003
  15 H :    0.025235
  16 S :    0.121624
  17 C :   -0.087031
  18 C :   -0.041612
  19 C :    0.016799
  20 C :   -0.184356
  21 H :    0.002169
  22 C :    0.108994
  23 H :    0.015095
  24 H :    0.020765
  25 C :   -0.097492
  26 H :    0.030504
  27 H :    0.028967
  28 C :   -0.068707
  29 H :    0.037960
  30 H :    0.047706
  31 H :    0.022309
  32 H :    0.066938
  33 H :    0.062623
Sum of atomic charges:    0.0000000

LOEWDIN ATOMIC CHARGES
----------------------
   0 S :    0.433819
   1 C :   -0.219562
   2 C :   -0.061537
   3 C :   -0.061982
   4 C :   -0.206395
   5 H :    0.027612
   6 C :   -0.026236
   7 H :    0.021760
   8 H :    0.039692
   9 C :   -0.046416
  10 H :    0.030010
  11 H :    0.027202
  12 C :   -0.067890
  13 H :    0.030750
  14 H :    0.022304
  15 H :    0.021195
  16 S :    0.421781
  17 C :   -0.207176
  18 C :   -0.075195
  19 C :   -0.046505
  20 C :   -0.204102
  21 H :    0.027227
  22 C :   -0.026046
  23 H :    0.024624
  24 H :    0.034552
  25 C :   -0.047109
  26 H :    0.026538
  27 H :    0.022729
  28 C :   -0.072519
  29 H :    0.025395
  30 H :    0.037041
  31 H :    0.019905
  32 H :    0.036448
  33 H :    0.038086

  Mayer bond orders larger than 0.100000
B(  0-S ,  1-C ) :   1.1806 B(  0-S ,  4-C ) :   1.1598 B(  1-C ,  2-C ) :   1.5434
B(  1-C ,  4-C ) :   0.1150 B(  1-C , 32-H ) :   0.9597 B(  2-C ,  3-C ) :   1.3033
B(  2-C ,  6-C ) :   1.0225 B(  3-C ,  4-C ) :   1.5526 B(  3-C ,  5-H ) :   0.9832
B(  4-C , 20-C ) :   1.0430 B(  6-C ,  7-H ) :   0.9285 B(  6-C ,  8-H ) :   0.9345
B(  6-C ,  9-C ) :   1.0491 B(  9-C , 10-H ) :   0.9587 B(  9-C , 11-H ) :   0.9562
B(  9-C , 12-C ) :   1.0783 B( 12-C , 13-H ) :   0.9749 B( 12-C , 14-H ) :   0.9784
B( 12-C , 15-H ) :   0.9756 B( 16-S , 17-C ) :   1.1429 B( 16-S , 20-C ) :   1.1475
B( 17-C , 18-C ) :   1.6623 B( 17-C , 33-H ) :   0.9545 B( 18-C , 19-C ) :   1.1955
B( 18-C , 21-H ) :   0.9996 B( 19-C , 20-C ) :   1.6188 B( 19-C , 22-C ) :   1.0500
B( 22-C , 23-H ) :   0.9446 B( 22-C , 24-H ) :   0.9215 B( 22-C , 25-C ) :   1.0567
B( 25-C , 26-H ) :   0.9518 B( 25-C , 27-H ) :   0.9620 B( 25-C , 28-C ) :   1.0864
B( 28-C , 29-H ) :   0.9739 B( 28-C , 30-H ) :   0.9730 B( 28-C , 31-H ) :   0.9737

Dispersion correction           -0.013905896
FINAL SINGLE POINT ENERGY     -1339.845259732736

DIPOLE MOMENT
-------------
                                X             Y             Z
Electronic contribution:      1.67967      32.20782       1.48237
Nuclear contribution   :     -1.78179     -32.87407      -1.59113
                        -----------------------------------------
Total Dipole Moment    :     -0.10212      -0.66625      -0.10876
                        -----------------------------------------
Magnitude (a.u.)       :      0.68275
Magnitude (Debye)      :      1.73541

Rotational constants in cm-1:     0.015750     0.009686     0.006710
Rotational constants in MHz :   472.169183   290.393815   201.173469

                             ****ORCA TERMINATED NORMALLY****
TOTAL RUN TIME: 0 days 0 hours 0 minutes 34 seconds 757 msec
