                         Program Version 4.2.1 -  RELEASE  -
|  1> ! wB97X-D3 SP def2-SVP
|  2> %pal
|  3> nprocs 16
|  4> end
|  5>
|  6> * xyz 0 1
|  7> S 	 68.9356 	 30.7234 	 70.6833
|  8> C 	 68.4574 	 29.9919 	 69.1945
|  9> C 	 69.0276 	 28.7834 	 68.9417
| 10> C 	 69.8672 	 28.3263 	 70.0238
| 11> C 	 69.8411 	 29.2697 	 70.9938
| 12> H 	 70.4261 	 27.3614 	 70.0456
| 13> C 	 68.9223 	 27.9152 	 67.6815
| 14> H 	 69.795 	 27.2906 	 67.482
| 15> H 	 68.7989 	 28.6464 	 66.9092
| 16> C 	 67.5993 	 27.0941 	 67.6335
| 17> H 	 66.8127 	 27.8521 	 67.6503
| 18> H 	 67.4267 	 26.5621 	 66.6299
| 19> C 	 67.283 	 26.0935 	 68.7769
| 20> H 	 68.0273 	 25.1912 	 68.7364
| 21> H 	 67.3601 	 26.5166 	 69.7122
| 22> H 	 66.3071 	 25.6217 	 68.6714
| 23> S 	 71.9617 	 29.8958 	 72.6571
| 24> C 	 72.2438 	 28.849 	 74.0669
| 25> C 	 71.2401 	 27.9708 	 74.2109
| 26> C 	 70.1601 	 28.1774 	 73.3015
| 27> C 	 70.4476 	 29.0409 	 72.3043
| 28> H 	 71.3167 	 27.2712 	 74.9636
| 29> C 	 69.0436 	 27.1423 	 73.2758
| 30> H 	 68.4333 	 27.4505 	 72.4503
| 31> H 	 68.399 	 27.2423 	 74.1629
| 32> C 	 69.36 	 25.601 	 73.1622
| 33> H 	 68.4066 	 25.039 	 73.1325
| 34> H 	 69.9197 	 25.3291 	 74.0332
| 35> C 	 70.3008 	 25.1321 	 72.1169
| 36> H 	 70.4229 	 24.0448 	 72.1955
| 37> H 	 71.3022 	 25.6498 	 72.133
| 38> H 	 69.9804 	 25.3568 	 71.1046
| 39> H 	 67.9573 	 30.418 	 68.3075
| 40> H 	 73.0789 	 28.8885 	 74.8483
| 41> *
| 42>
| 43>                          ****END OF INPUT****

CARTESIAN COORDINATES (ANGSTROEM)
---------------------------------
  S     68.935600   30.723400   70.683300
  C     68.457400   29.991900   69.194500
  C     69.027600   28.783400   68.941700
  C     69.867200   28.326300   70.023800
  C     69.841100   29.269700   70.993800
  H     70.426100   27.361400   70.045600
  C     68.922300   27.915200   67.681500
  H     69.795000   27.290600   67.482000
  H     68.798900   28.646400   66.909200
  C     67.599300   27.094100   67.633500
  H     66.812700   27.852100   67.650300
  H     67.426700   26.562100   66.629900
  C     67.283000   26.093500   68.776900
  H     68.027300   25.191200   68.736400
  H     67.360100   26.516600   69.712200
  H     66.307100   25.621700   68.671400
  S     71.961700   29.895800   72.657100
  C     72.243800   28.849000   74.066900
  C     71.240100   27.970800   74.210900
  C     70.160100   28.177400   73.301500
  C     70.447600   29.040900   72.304300
  H     71.316700   27.271200   74.963600
  C     69.043600   27.142300   73.275800
  H     68.433300   27.450500   72.450300
  H     68.399000   27.242300   74.162900
  C     69.360000   25.601000   73.162200
  H     68.406600   25.039000   73.132500
  H     69.919700   25.329100   74.033200
  C     70.300800   25.132100   72.116900
  H     70.422900   24.044800   72.195500
  H     71.302200   25.649800   72.133000
  H     69.980400   25.356800   71.104600
  H     67.957300   30.418000   68.307500
  H     73.078900   28.888500   74.848300

 Total Charge           Charge          ....    0
 Multiplicity           Mult            ....    1
 Number of Electrons    NEL             ....  134
 Basis Dimension        Dim             ....  322

ORBITAL ENERGIES
----------------

  NO   OCC          E(Eh)            E(eV)
   0   2.0000     -88.974398     -2421.1165
   1   2.0000     -88.959443     -2420.7095
   2   2.0000     -10.326271      -280.9921
   3   2.0000     -10.322197      -280.8813
   4   2.0000     -10.318584      -280.7829
   5   2.0000     -10.312002      -280.6038
   6   2.0000     -10.299591      -280.2661
   7   2.0000     -10.297288      -280.2034
   8   2.0000     -10.296810      -280.1905
   9   2.0000     -10.295977      -280.1678
  10   2.0000     -10.295816      -280.1634
  11   2.0000     -10.287968      -279.9498
  12   2.0000     -10.286618      -279.9131
  13   2.0000     -10.281270      -279.7676
  14   2.0000     -10.279944      -279.7315
  15   2.0000     -10.276770      -279.6451
  16   2.0000      -8.089422      -220.1244
  17   2.0000      -8.073859      -219.7009
  18   2.0000      -6.047874      -164.5710
  19   2.0000      -6.044162      -164.4700
  20   2.0000      -6.039935      -164.3550
  21   2.0000      -6.032553      -164.1541
  22   2.0000      -6.028464      -164.0428
  23   2.0000      -6.024390      -163.9320
  24   2.0000      -1.013086       -27.5675
  25   2.0000      -0.988329       -26.8938
  26   2.0000      -0.908675       -24.7263
  27   2.0000      -0.904693       -24.6179
  28   2.0000      -0.871863       -23.7246
  29   2.0000      -0.851712       -23.1763
  30   2.0000      -0.848169       -23.0799
  31   2.0000      -0.819541       -22.3008
  32   2.0000      -0.786486       -21.4014
  33   2.0000      -0.773516       -21.0484
  34   2.0000      -0.706287       -19.2191
  35   2.0000      -0.697731       -18.9862
  36   2.0000      -0.689807       -18.7706
  37   2.0000      -0.658625       -17.9221
  38   2.0000      -0.637969       -17.3600
  39   2.0000      -0.615769       -16.7559
  40   2.0000      -0.589618       -16.0443
  41   2.0000      -0.575336       -15.6557
  42   2.0000      -0.552891       -15.0449
  43   2.0000      -0.546269       -14.8647
  44   2.0000      -0.544735       -14.8230
  45   2.0000      -0.540610       -14.7107
  46   2.0000      -0.519267       -14.1300
  47   2.0000      -0.507456       -13.8086
  48   2.0000      -0.500604       -13.6221
  49   2.0000      -0.497274       -13.5315
  50   2.0000      -0.495214       -13.4755
  51   2.0000      -0.480245       -13.0681
  52   2.0000      -0.467619       -12.7245
  53   2.0000      -0.463267       -12.6061
  54   2.0000      -0.456806       -12.4303
  55   2.0000      -0.451120       -12.2756
  56   2.0000      -0.444474       -12.0948
  57   2.0000      -0.442279       -12.0350
  58   2.0000      -0.433670       -11.8008
  59   2.0000      -0.420250       -11.4356
  60   2.0000      -0.416139       -11.3237
  61   2.0000      -0.415286       -11.3005
  62   2.0000      -0.405742       -11.0408
  63   2.0000      -0.342132        -9.3099
  64   2.0000      -0.331850        -9.0301
  65   2.0000      -0.324616        -8.8332
  66   2.0000      -0.311609        -8.4793
  67   0.0000       0.043575         1.1857
  68   0.0000       0.062512         1.7010
  69   0.0000       0.106961         2.9105
  70   0.0000       0.123127         3.3505
  71   0.0000       0.125483         3.4146

MULLIKEN ATOMIC CHARGES
-----------------------
   0 S :    0.149199
   1 C :   -0.102986
   2 C :   -0.133301
   3 C :    0.024730
   4 C :   -0.158710
   5 H :    0.035457
   6 C :    0.107857
   7 H :    0.035964
   8 H :    0.015379
   9 C :   -0.101262
  10 H :    0.017848
  11 H :    0.040211
  12 C :   -0.055823
  13 H :    0.033406
  14 H :    0.029712
  15 H :    0.037268
  16 S :    0.086770
  17 C :   -0.105925
  18 C :   -0.018699
  19 C :   -0.010418
  20 C :   -0.179036
  21 H :   -0.011424
  22 C :    0.065268
  23 H :    0.021204
  24 H :    0.031617
  25 C :   -0.062240
  26 H :    0.041116
  27 H :    0.018446
  28 C :   -0.062720
  29 H :    0.038678
  30 H :    0.042896
  31 H :    0.011254
  32 H :    0.042573
  33 H :    0.075689
Sum of atomic charges:    0.0000000

LOEWDIN ATOMIC CHARGES
----------------------
   0 S :    0.426804
   1 C :   -0.216884
   2 C :   -0.061103
   3 C :   -0.053109
   4 C :   -0.197433
   5 H :    0.044848
   6 C :   -0.026024
   7 H :    0.030428
   8 H :    0.029743
   9 C :   -0.044969
  10 H :    0.019669
  11 H :    0.030334
  12 C :   -0.068211
  13 H :    0.030770
  14 H :    0.010867
  15 H :    0.029112
  16 S :    0.369275
  17 C :   -0.180701
  18 C :   -0.069157
  19 C :   -0.061502
  20 C :   -0.186985
  21 H :    0.018474
  22 C :   -0.031700
  23 H :    0.023650
  24 H :    0.035131
  25 C :   -0.040947
  26 H :    0.032794
  27 H :    0.020363
  28 C :   -0.072245
  29 H :    0.030736
  30 H :    0.032787
  31 H :    0.012357
  32 H :    0.034498
  33 H :    0.048328

  Mayer bond orders larger than 0.100000
B(  0-S ,  1-C ) :   1.1179 B(  0-S ,  4-C ) :   1.1554 B(  1-C ,  2-C ) :   1.6829
B(  1-C , 32-H ) :   0.9460 B(  2-C ,  3-C ) :   1.1999 B(  2-C ,  6-C ) :   1.0108
B(  3-C ,  4-C ) :   1.6089 B(  3-C ,  5-H ) :   0.9900 B(  4-C , 20-C ) :   0.9842
B(  6-C ,  7-H ) :   0.9517 B(  6-C ,  8-H ) :   0.9315 B(  6-C ,  9-C ) :   1.0637
B(  9-C , 10-H ) :   0.9557 B(  9-C , 11-H ) :   0.9586 B(  9-C , 12-C ) :   1.0768
B( 12-C , 13-H ) :   0.9741 B( 12-C , 14-H ) :   0.9762 B( 12-C , 15-H ) :   0.9713
B( 16-S , 17-C ) :   1.1242 B( 16-S , 20-C ) :   1.1232 B( 17-C , 18-C ) :   1.6750
B( 17-C , 33-H ) :   0.9541 B( 18-C , 19-C ) :   1.1797 B( 18-C , 21-H ) :   1.0026
B( 19-C , 20-C ) :   1.6543 B( 19-C , 22-C ) :   1.0555 B( 22-C , 23-H ) :   0.9367
B( 22-C , 24-H ) :   0.9287 B( 22-C , 25-C ) :   1.0682 B( 25-C , 26-H ) :   0.9523
B( 25-C , 27-H ) :   0.9503 B( 25-C , 28-C ) :   1.0879 B( 28-C , 29-H ) :   0.9676
B( 28-C , 30-H ) :   0.9672 B( 28-C , 31-H ) :   0.9687

Dispersion correction           -0.016626882
FINAL SINGLE POINT ENERGY     -1339.862991297087

DIPOLE MOMENT
-------------
                                X             Y             Z
Electronic contribution:     10.55267      26.70645       8.34113
Nuclear contribution   :    -10.72793     -27.36020      -8.49188
                        -----------------------------------------
Total Dipole Moment    :     -0.17526      -0.65374      -0.15074
                        -----------------------------------------
Magnitude (a.u.)       :      0.69341
Magnitude (Debye)      :      1.76251

Rotational constants in cm-1:     0.018935     0.010542     0.007679
Rotational constants in MHz :   567.670287   316.047485   230.215967

                             ****ORCA TERMINATED NORMALLY****
TOTAL RUN TIME: 0 days 0 hours 0 minutes 33 seconds 16 msec
