                         Program Version 4.2.1 -  RELEASE  -
|  1> ! wB97X-D3 SP def2-SVP
|  2> %pal
|  3> nprocs 16
|  4> end
|  5>
|  6> * xyz 0 1
|  7> S 	 -40.6189 	 50.848 	 104.462
|  8> C 	 -39.3619 	 49.7321 	 105.136
|  9> C 	 -39.87 	 48.6732 	 105.853
| 10> C 	 -41.3329 	 48.6338 	 105.748
| 11> C 	 -41.89 	 49.6791 	 105.025
| 12> H 	 -41.954 	 47.8597 	 106.222
| 13> C 	 -39.1528 	 47.4583 	 106.382
| 14> H 	 -38.287 	 47.3365 	 105.722
| 15> H 	 -39.787 	 46.5723 	 106.173
| 16> C 	 -38.589 	 47.5912 	 107.786
| 17> H 	 -39.339 	 47.9001 	 108.515
| 18> H 	 -38.3027 	 46.5953 	 108.055
| 19> C 	 -37.4454 	 48.5288 	 107.973
| 20> H 	 -37.0154 	 48.4353 	 108.969
| 21> H 	 -36.603 	 48.3148 	 107.3
| 22> H 	 -37.811 	 49.5728 	 107.844
| 23> S 	 -43.5519 	 51.5944 	 104.439
| 24> C 	 -45.2416 	 51.2801 	 104.039
| 25> C 	 -45.5639 	 49.9489 	 104.35
| 26> C 	 -44.4739 	 49.1098 	 104.749
| 27> C 	 -43.3114 	 49.9047 	 104.729
| 28> H 	 -46.4809 	 49.4934 	 103.954
| 29> C 	 -44.6664 	 47.6669 	 105.158
| 30> H 	 -44.733 	 47.7542 	 106.217
| 31> H 	 -43.773 	 47.0935 	 104.864
| 32> C 	 -45.7864 	 46.8977 	 104.424
| 33> H 	 -46.764 	 47.1291 	 104.915
| 34> H 	 -45.6927 	 45.8235 	 104.646
| 35> C 	 -45.8583 	 46.923 	 102.833
| 36> H 	 -45.9219 	 48.0299 	 102.471
| 37> H 	 -46.721 	 46.3237 	 102.477
| 38> H 	 -44.8655 	 46.619 	 102.378
| 39> H 	 -38.2881 	 50.0158 	 105.156
| 40> H 	 -45.9188 	 52.0271 	 103.811
| 41> *
| 42>
| 43>                          ****END OF INPUT****

CARTESIAN COORDINATES (ANGSTROEM)
---------------------------------
  S    -40.618900   50.848000  104.462000
  C    -39.361900   49.732100  105.136000
  C    -39.870000   48.673200  105.853000
  C    -41.332900   48.633800  105.748000
  C    -41.890000   49.679100  105.025000
  H    -41.954000   47.859700  106.222000
  C    -39.152800   47.458300  106.382000
  H    -38.287000   47.336500  105.722000
  H    -39.787000   46.572300  106.173000
  C    -38.589000   47.591200  107.786000
  H    -39.339000   47.900100  108.515000
  H    -38.302700   46.595300  108.055000
  C    -37.445400   48.528800  107.973000
  H    -37.015400   48.435300  108.969000
  H    -36.603000   48.314800  107.300000
  H    -37.811000   49.572800  107.844000
  S    -43.551900   51.594400  104.439000
  C    -45.241600   51.280100  104.039000
  C    -45.563900   49.948900  104.350000
  C    -44.473900   49.109800  104.749000
  C    -43.311400   49.904700  104.729000
  H    -46.480900   49.493400  103.954000
  C    -44.666400   47.666900  105.158000
  H    -44.733000   47.754200  106.217000
  H    -43.773000   47.093500  104.864000
  C    -45.786400   46.897700  104.424000
  H    -46.764000   47.129100  104.915000
  H    -45.692700   45.823500  104.646000
  C    -45.858300   46.923000  102.833000
  H    -45.921900   48.029900  102.471000
  H    -46.721000   46.323700  102.477000
  H    -44.865500   46.619000  102.378000
  H    -38.288100   50.015800  105.156000
  H    -45.918800   52.027100  103.811000

 Total Charge           Charge          ....    0
 Multiplicity           Mult            ....    1
 Number of Electrons    NEL             ....  134
 Basis Dimension        Dim             ....  322

ORBITAL ENERGIES
----------------

  NO   OCC          E(Eh)            E(eV)
   0   2.0000     -88.965943     -2420.8864
   1   2.0000     -88.965579     -2420.8765
   2   2.0000     -10.334371      -281.2125
   3   2.0000     -10.328794      -281.0608
   4   2.0000     -10.319267      -280.8015
   5   2.0000     -10.314589      -280.6742
   6   2.0000     -10.307891      -280.4920
   7   2.0000     -10.302569      -280.3472
   8   2.0000     -10.300573      -280.2928
   9   2.0000     -10.300343      -280.2866
  10   2.0000     -10.299932      -280.2754
  11   2.0000     -10.296248      -280.1751
  12   2.0000     -10.296229      -280.1746
  13   2.0000     -10.294370      -280.1241
  14   2.0000     -10.281563      -279.7756
  15   2.0000     -10.278751      -279.6990
  16   2.0000      -8.080708      -219.8872
  17   2.0000      -8.078784      -219.8349
  18   2.0000      -6.039125      -164.3329
  19   2.0000      -6.037716      -164.2946
  20   2.0000      -6.035247      -164.2274
  21   2.0000      -6.033780      -164.1875
  22   2.0000      -6.031451      -164.1241
  23   2.0000      -6.028979      -164.0568
  24   2.0000      -1.002036       -27.2668
  25   2.0000      -0.971890       -26.4465
  26   2.0000      -0.916588       -24.9416
  27   2.0000      -0.908812       -24.7300
  28   2.0000      -0.866242       -23.5716
  29   2.0000      -0.847830       -23.0706
  30   2.0000      -0.839403       -22.8413
  31   2.0000      -0.809748       -22.0344
  32   2.0000      -0.785285       -21.3687
  33   2.0000      -0.774867       -21.0852
  34   2.0000      -0.705851       -19.2072
  35   2.0000      -0.697666       -18.9845
  36   2.0000      -0.694353       -18.8943
  37   2.0000      -0.662047       -18.0152
  38   2.0000      -0.631248       -17.1771
  39   2.0000      -0.616192       -16.7674
  40   2.0000      -0.596433       -16.2298
  41   2.0000      -0.571128       -15.5412
  42   2.0000      -0.568970       -15.4825
  43   2.0000      -0.548781       -14.9331
  44   2.0000      -0.531023       -14.4499
  45   2.0000      -0.530165       -14.4265
  46   2.0000      -0.518563       -14.1108
  47   2.0000      -0.507710       -13.8155
  48   2.0000      -0.495793       -13.4912
  49   2.0000      -0.494379       -13.4527
  50   2.0000      -0.488706       -13.2984
  51   2.0000      -0.484701       -13.1894
  52   2.0000      -0.476815       -12.9748
  53   2.0000      -0.460162       -12.5217
  54   2.0000      -0.455591       -12.3973
  55   2.0000      -0.454361       -12.3638
  56   2.0000      -0.442018       -12.0279
  57   2.0000      -0.438064       -11.9203
  58   2.0000      -0.432984       -11.7821
  59   2.0000      -0.424965       -11.5639
  60   2.0000      -0.418467       -11.3871
  61   2.0000      -0.409909       -11.1542
  62   2.0000      -0.409142       -11.1333
  63   2.0000      -0.355145        -9.6640
  64   2.0000      -0.334777        -9.1097
  65   2.0000      -0.326316        -8.8795
  66   2.0000      -0.279924        -7.6171
  67   0.0000       0.018630         0.5070
  68   0.0000       0.072466         1.9719
  69   0.0000       0.089730         2.4417
  70   0.0000       0.110963         3.0195
  71   0.0000       0.137153         3.7321

MULLIKEN ATOMIC CHARGES
-----------------------
   0 S :    0.081400
   1 C :   -0.129696
   2 C :   -0.070301
   3 C :   -0.040952
   4 C :   -0.093137
   5 H :    0.019492
   6 C :    0.037616
   7 H :    0.024339
   8 H :    0.036773
   9 C :   -0.034713
  10 H :    0.026108
  11 H :    0.017153
  12 C :   -0.065907
  13 H :    0.035834
  14 H :    0.025275
  15 H :    0.045305
  16 S :    0.084859
  17 C :   -0.063235
  18 C :   -0.048260
  19 C :   -0.091238
  20 C :   -0.130925
  21 H :    0.039348
  22 C :    0.088230
  23 H :    0.056281
  24 H :    0.037389
  25 C :   -0.115121
  26 H :    0.035529
  27 H :    0.034719
  28 C :   -0.098328
  29 H :    0.049364
  30 H :    0.060777
  31 H :    0.048806
  32 H :    0.062710
  33 H :    0.034505
Sum of atomic charges:   -0.0000000

LOEWDIN ATOMIC CHARGES
----------------------
   0 S :    0.338076
   1 C :   -0.182590
   2 C :   -0.062011
   3 C :   -0.071757
   4 C :   -0.170488
   5 H :    0.031467
   6 C :   -0.033285
   7 H :    0.034070
   8 H :    0.037027
   9 C :   -0.042859
  10 H :    0.026006
  11 H :    0.020450
  12 C :   -0.067697
  13 H :    0.029653
  14 H :    0.022253
  15 H :    0.030512
  16 S :    0.409641
  17 C :   -0.174680
  18 C :   -0.071193
  19 C :   -0.060038
  20 C :   -0.189122
  21 H :    0.032881
  22 C :   -0.031743
  23 H :    0.038909
  24 H :    0.036533
  25 C :   -0.053683
  26 H :    0.024419
  27 H :    0.028818
  28 C :   -0.078283
  29 H :    0.034540
  30 H :    0.034258
  31 H :    0.033761
  32 H :    0.033148
  33 H :    0.013008

  Mayer bond orders larger than 0.100000
B(  0-S ,  1-C ) :   1.0965 B(  0-S ,  4-C ) :   1.1057 B(  1-C ,  2-C ) :   1.6734
B(  1-C , 32-H ) :   0.9550 B(  2-C ,  3-C ) :   1.1916 B(  2-C ,  6-C ) :   1.0055
B(  3-C ,  4-C ) :   1.6253 B(  3-C ,  5-H ) :   0.9847 B(  4-C , 20-C ) :   1.0674
B(  6-C ,  7-H ) :   0.9438 B(  6-C ,  8-H ) :   0.9498 B(  6-C ,  9-C ) :   1.0639
B(  9-C , 10-H ) :   0.9526 B(  9-C , 11-H ) :   0.9510 B(  9-C , 12-C ) :   1.0921
B( 12-C , 13-H ) :   0.9699 B( 12-C , 14-H ) :   0.9726 B( 12-C , 15-H ) :   0.9707
B( 16-S , 17-C ) :   1.1444 B( 16-S , 20-C ) :   1.1570 B( 17-C , 18-C ) :   1.6018
B( 17-C , 20-C ) :   0.1002 B( 17-C , 33-H ) :   0.9792 B( 18-C , 19-C ) :   1.2580
B( 18-C , 21-H ) :   0.9666 B( 19-C , 20-C ) :   1.5803 B( 19-C , 22-C ) :   1.0229
B( 22-C , 23-H ) :   0.9343 B( 22-C , 24-H ) :   0.9310 B( 22-C , 25-C ) :   1.0634
B( 25-C , 26-H ) :   0.9499 B( 25-C , 27-H ) :   0.9573 B( 25-C , 28-C ) :   1.0617
B( 28-C , 29-H ) :   0.9702 B( 28-C , 30-H ) :   0.9732 B( 28-C , 31-H ) :   0.9716

Dispersion correction           -0.014046327
FINAL SINGLE POINT ENERGY     -1339.863402229780

DIPOLE MOMENT
-------------
                                X             Y             Z
Electronic contribution:     -2.18779      22.36752      -7.17107
Nuclear contribution   :      2.07533     -23.12239       7.45522
                        -----------------------------------------
Total Dipole Moment    :     -0.11247      -0.75488       0.28415
                        -----------------------------------------
Magnitude (a.u.)       :      0.81439
Magnitude (Debye)      :      2.07001

Rotational constants in cm-1:     0.021704     0.007643     0.006102
Rotational constants in MHz :   650.672363   229.118992   182.925659

                             ****ORCA TERMINATED NORMALLY****
TOTAL RUN TIME: 0 days 0 hours 0 minutes 29 seconds 505 msec
