                         Program Version 4.2.1 -  RELEASE  -
|  1> ! wB97X-D3 SP def2-SVP
|  2> %pal
|  3> nprocs 16
|  4> end
|  5>
|  6> * xyz 0 1
|  7> S 	 -49.3924 	 60.675 	 134.996
|  8> C 	 -49.6279 	 59.2913 	 133.865
|  9> C 	 -50.0421 	 59.728 	 132.643
| 10> C 	 -50.3379 	 61.1581 	 132.587
| 11> C 	 -50.0821 	 61.7985 	 133.797
| 12> H 	 -50.6697 	 61.7509 	 131.73
| 13> C 	 -50.2982 	 58.8144 	 131.517
| 14> H 	 -51.2386 	 59.1447 	 131.155
| 15> H 	 -50.5528 	 57.8136 	 131.93
| 16> C 	 -49.1084 	 58.8109 	 130.521
| 17> H 	 -49.2615 	 59.6666 	 129.904
| 18> H 	 -48.2834 	 58.9584 	 131.243
| 19> C 	 -49.0461 	 57.5687 	 129.657
| 20> H 	 -48.1607 	 57.6278 	 128.958
| 21> H 	 -49.0629 	 56.5788 	 130.167
| 22> H 	 -49.9351 	 57.6567 	 129.141
| 23> S 	 -51.5923 	 63.602 	 135.28
| 24> C 	 -51.3718 	 65.3445 	 134.898
| 25> C 	 -50.3708 	 65.5336 	 134.011
| 26> C 	 -49.7982 	 64.3139 	 133.52
| 27> C 	 -50.3478 	 63.1714 	 134.111
| 28> H 	 -49.9785 	 66.4612 	 133.676
| 29> C 	 -48.9081 	 64.2557 	 132.284
| 30> H 	 -48.5494 	 65.2605 	 132.029
| 31> H 	 -49.5795 	 64.0982 	 131.402
| 32> C 	 -47.6652 	 63.3807 	 132.14
| 33> H 	 -47.9011 	 62.3829 	 131.878
| 34> H 	 -47.1036 	 63.4484 	 133.071
| 35> C 	 -46.6788 	 63.8087 	 131.066
| 36> H 	 -47.1927 	 63.6723 	 130.131
| 37> H 	 -45.8052 	 63.2129 	 131.109
| 38> H 	 -46.3862 	 64.8928 	 131.187
| 39> H 	 -49.3149 	 58.3594 	 134.228
| 40> H 	 -51.876 	 66.0914 	 135.463
| 41> *
| 42>
| 43>                          ****END OF INPUT****

CARTESIAN COORDINATES (ANGSTROEM)
---------------------------------
  S    -49.392400   60.675000  134.996000
  C    -49.627900   59.291300  133.865000
  C    -50.042100   59.728000  132.643000
  C    -50.337900   61.158100  132.587000
  C    -50.082100   61.798500  133.797000
  H    -50.669700   61.750900  131.730000
  C    -50.298200   58.814400  131.517000
  H    -51.238600   59.144700  131.155000
  H    -50.552800   57.813600  131.930000
  C    -49.108400   58.810900  130.521000
  H    -49.261500   59.666600  129.904000
  H    -48.283400   58.958400  131.243000
  C    -49.046100   57.568700  129.657000
  H    -48.160700   57.627800  128.958000
  H    -49.062900   56.578800  130.167000
  H    -49.935100   57.656700  129.141000
  S    -51.592300   63.602000  135.280000
  C    -51.371800   65.344500  134.898000
  C    -50.370800   65.533600  134.011000
  C    -49.798200   64.313900  133.520000
  C    -50.347800   63.171400  134.111000
  H    -49.978500   66.461200  133.676000
  C    -48.908100   64.255700  132.284000
  H    -48.549400   65.260500  132.029000
  H    -49.579500   64.098200  131.402000
  C    -47.665200   63.380700  132.140000
  H    -47.901100   62.382900  131.878000
  H    -47.103600   63.448400  133.071000
  C    -46.678800   63.808700  131.066000
  H    -47.192700   63.672300  130.131000
  H    -45.805200   63.212900  131.109000
  H    -46.386200   64.892800  131.187000
  H    -49.314900   58.359400  134.228000
  H    -51.876000   66.091400  135.463000

 Total Charge           Charge          ....    0
 Multiplicity           Mult            ....    1
 Number of Electrons    NEL             ....  134
 Basis Dimension        Dim             ....  322

ORBITAL ENERGIES
----------------

  NO   OCC          E(Eh)            E(eV)
   0   2.0000     -88.964508     -2420.8473
   1   2.0000     -88.959877     -2420.7213
   2   2.0000     -10.330216      -281.0995
   3   2.0000     -10.323792      -280.9247
   4   2.0000     -10.318946      -280.7928
   5   2.0000     -10.313088      -280.6334
   6   2.0000     -10.305015      -280.4137
   7   2.0000     -10.301541      -280.3192
   8   2.0000     -10.300195      -280.2826
   9   2.0000     -10.294425      -280.1255
  10   2.0000     -10.293116      -280.0899
  11   2.0000     -10.287523      -279.9377
  12   2.0000     -10.285267      -279.8763
  13   2.0000     -10.280389      -279.7436
  14   2.0000     -10.275679      -279.6155
  15   2.0000     -10.274304      -279.5780
  16   2.0000      -8.078577      -219.8293
  17   2.0000      -8.073870      -219.7012
  18   2.0000      -6.037232      -164.2814
  19   2.0000      -6.033196      -164.1716
  20   2.0000      -6.032491      -164.1524
  21   2.0000      -6.029192      -164.0626
  22   2.0000      -6.028526      -164.0445
  23   2.0000      -6.024520      -163.9355
  24   2.0000      -1.000487       -27.2246
  25   2.0000      -0.977586       -26.6015
  26   2.0000      -0.917382       -24.9632
  27   2.0000      -0.907883       -24.7047
  28   2.0000      -0.873522       -23.7698
  29   2.0000      -0.851708       -23.1762
  30   2.0000      -0.846499       -23.0344
  31   2.0000      -0.817065       -22.2335
  32   2.0000      -0.781691       -21.2709
  33   2.0000      -0.768752       -20.9188
  34   2.0000      -0.710225       -19.3262
  35   2.0000      -0.702721       -19.1220
  36   2.0000      -0.687489       -18.7075
  37   2.0000      -0.665189       -18.1007
  38   2.0000      -0.649158       -17.6645
  39   2.0000      -0.613152       -16.6847
  40   2.0000      -0.599796       -16.3213
  41   2.0000      -0.579590       -15.7714
  42   2.0000      -0.571333       -15.5468
  43   2.0000      -0.554000       -15.0751
  44   2.0000      -0.531621       -14.4661
  45   2.0000      -0.528103       -14.3704
  46   2.0000      -0.523715       -14.2510
  47   2.0000      -0.518186       -14.1006
  48   2.0000      -0.505913       -13.7666
  49   2.0000      -0.496320       -13.5056
  50   2.0000      -0.486449       -13.2370
  51   2.0000      -0.481848       -13.1117
  52   2.0000      -0.473345       -12.8804
  53   2.0000      -0.462391       -12.5823
  54   2.0000      -0.456690       -12.4272
  55   2.0000      -0.449769       -12.2388
  56   2.0000      -0.440187       -11.9781
  57   2.0000      -0.434616       -11.8265
  58   2.0000      -0.429744       -11.6939
  59   2.0000      -0.427970       -11.6456
  60   2.0000      -0.419511       -11.4155
  61   2.0000      -0.412452       -11.2234
  62   2.0000      -0.409949       -11.1553
  63   2.0000      -0.342677        -9.3247
  64   2.0000      -0.326761        -8.8916
  65   2.0000      -0.325153        -8.8479
  66   2.0000      -0.299750        -8.1566
  67   0.0000       0.030631         0.8335
  68   0.0000       0.063394         1.7250
  69   0.0000       0.112659         3.0656
  70   0.0000       0.116482         3.1696
  71   0.0000       0.124070         3.3761

MULLIKEN ATOMIC CHARGES
-----------------------
   0 S :    0.081593
   1 C :   -0.117403
   2 C :   -0.089148
   3 C :    0.038239
   4 C :   -0.162728
   5 H :    0.021977
   6 C :    0.064022
   7 H :    0.013116
   8 H :    0.018846
   9 C :   -0.061353
  10 H :    0.025107
  11 H :    0.041269
  12 C :   -0.029036
  13 H :    0.047635
  14 H :    0.040528
  15 H :    0.015623
  16 S :    0.103074
  17 C :   -0.079652
  18 C :    0.011024
  19 C :   -0.015260
  20 C :   -0.165935
  21 H :    0.005363
  22 C :    0.023163
  23 H :   -0.004835
  24 H :    0.033695
  25 C :   -0.040884
  26 H :    0.027426
  27 H :    0.028146
  28 C :   -0.048181
  29 H :    0.021784
  30 H :    0.034187
  31 H :    0.032089
  32 H :    0.034211
  33 H :    0.052296
Sum of atomic charges:    0.0000000

LOEWDIN ATOMIC CHARGES
----------------------
   0 S :    0.360769
   1 C :   -0.165682
   2 C :   -0.060936
   3 C :   -0.058043
   4 C :   -0.177090
   5 H :    0.035202
   6 C :   -0.035261
   7 H :    0.022950
   8 H :    0.031839
   9 C :   -0.034377
  10 H :    0.022989
  11 H :    0.026106
  12 C :   -0.063921
  13 H :    0.034686
  14 H :    0.029728
  15 H :    0.017333
  16 S :    0.384386
  17 C :   -0.158848
  18 C :   -0.062180
  19 C :   -0.051946
  20 C :   -0.202414
  21 H :    0.028171
  22 C :   -0.042112
  23 H :    0.026637
  24 H :    0.035456
  25 C :   -0.039703
  26 H :    0.018449
  27 H :    0.026544
  28 C :   -0.057483
  29 H :    0.019534
  30 H :    0.023248
  31 H :    0.026255
  32 H :    0.015681
  33 H :    0.024037

  Mayer bond orders larger than 0.100000
B(  0-S ,  1-C ) :   1.1097 B(  0-S ,  4-C ) :   1.1417 B(  1-C ,  2-C ) :   1.6234
B(  1-C , 32-H ) :   0.9856 B(  2-C ,  3-C ) :   1.1895 B(  2-C ,  6-C ) :   1.0339
B(  3-C ,  4-C ) :   1.6035 B(  3-C ,  5-H ) :   0.9893 B(  4-C , 20-C ) :   1.0583
B(  6-C ,  7-H ) :   0.9310 B(  6-C ,  8-H ) :   0.9473 B(  6-C ,  9-C ) :   1.0267
B(  9-C , 10-H ) :   0.9525 B(  9-C , 11-H ) :   0.9643 B(  9-C , 12-C ) :   1.0778
B( 12-C , 13-H ) :   0.9742 B( 12-C , 14-H ) :   0.9778 B( 12-C , 15-H ) :   0.9703
B( 16-S , 17-C ) :   1.1385 B( 16-S , 20-C ) :   1.1324 B( 17-C , 18-C ) :   1.6079
B( 17-C , 33-H ) :   0.9710 B( 18-C , 19-C ) :   1.2500 B( 18-C , 21-H ) :   0.9919
B( 19-C , 20-C ) :   1.5929 B( 19-C , 22-C ) :   1.0411 B( 22-C , 23-H ) :   0.9306
B( 22-C , 24-H ) :   0.9271 B( 22-C , 25-C ) :   1.0618 B( 25-C , 26-H ) :   0.9474
B( 25-C , 27-H ) :   0.9568 B( 25-C , 28-C ) :   1.0945 B( 28-C , 29-H ) :   0.9770
B( 28-C , 30-H ) :   0.9735 B( 28-C , 31-H ) :   0.9713

Dispersion correction           -0.014828099
FINAL SINGLE POINT ENERGY     -1339.870381800066

DIPOLE MOMENT
-------------
                                X             Y             Z
Electronic contribution:    -13.57531       7.55723      26.56434
Nuclear contribution   :     13.71864      -7.54665     -27.27302
                        -----------------------------------------
Total Dipole Moment    :      0.14333       0.01058      -0.70869
                        -----------------------------------------
Magnitude (a.u.)       :      0.72311
Magnitude (Debye)      :      1.83801

Rotational constants in cm-1:     0.019334     0.008730     0.006898
Rotational constants in MHz :   579.619647   261.713916   206.790690

                             ****ORCA TERMINATED NORMALLY****
TOTAL RUN TIME: 0 days 0 hours 0 minutes 35 seconds 696 msec
