                         Program Version 4.2.1 -  RELEASE  -
|  1> ! wB97X-D3 SP def2-SVP
|  2> %pal
|  3> nprocs 16
|  4> end
|  5>
|  6> * xyz 0 1
|  7> S 	 -30.3413 	 69.8547 	 104.095
|  8> C 	 -30.2524 	 68.5934 	 102.835
|  9> C 	 -29.4538 	 67.539 	 103.15
| 10> C 	 -28.9513 	 67.68 	 104.478
| 11> C 	 -29.276 	 68.8979 	 105.095
| 12> H 	 -28.3214 	 67.0012 	 105.012
| 13> C 	 -29.0221 	 66.3785 	 102.249
| 14> H 	 -28.1093 	 65.9892 	 102.641
| 15> H 	 -28.7463 	 66.8572 	 101.331
| 16> C 	 -30.0817 	 65.2461 	 101.987
| 17> H 	 -30.2479 	 64.8955 	 103.049
| 18> H 	 -30.9176 	 65.7735 	 101.589
| 19> C 	 -29.6283 	 64.1589 	 100.962
| 20> H 	 -30.2087 	 63.2901 	 100.893
| 21> H 	 -29.5626 	 64.6803 	 99.9518
| 22> H 	 -28.6651 	 63.8256 	 101.283
| 23> S 	 -27.1211 	 69.0284 	 106.742
| 24> C 	 -27.2795 	 69.6054 	 108.379
| 25> C 	 -28.6297 	 69.8405 	 108.71
| 26> C 	 -29.5975 	 69.561 	 107.653
| 27> C 	 -28.8676 	 69.2183 	 106.46
| 28> H 	 -28.8518 	 70.1979 	 109.715
| 29> C 	 -31.0951 	 69.4828 	 107.842
| 30> H 	 -31.5698 	 69.8441 	 106.994
| 31> H 	 -31.4 	 70.2506 	 108.52
| 32> C 	 -31.7185 	 68.0628 	 108.165
| 33> H 	 -31.4171 	 67.3799 	 107.401
| 34> H 	 -32.7812 	 68.1636 	 108.04
| 35> C 	 -31.2029 	 67.4215 	 109.509
| 36> H 	 -31.8065 	 66.5507 	 109.852
| 37> H 	 -31.3666 	 68.2301 	 110.227
| 38> H 	 -30.1696 	 67.2223 	 109.536
| 39> H 	 -30.7694 	 68.7048 	 101.886
| 40> H 	 -26.4473 	 69.8161 	 108.992
| 41> *
| 42>
| 43>                          ****END OF INPUT****

CARTESIAN COORDINATES (ANGSTROEM)
---------------------------------
  S    -30.341300   69.854700  104.095000
  C    -30.252400   68.593400  102.835000
  C    -29.453800   67.539000  103.150000
  C    -28.951300   67.680000  104.478000
  C    -29.276000   68.897900  105.095000
  H    -28.321400   67.001200  105.012000
  C    -29.022100   66.378500  102.249000
  H    -28.109300   65.989200  102.641000
  H    -28.746300   66.857200  101.331000
  C    -30.081700   65.246100  101.987000
  H    -30.247900   64.895500  103.049000
  H    -30.917600   65.773500  101.589000
  C    -29.628300   64.158900  100.962000
  H    -30.208700   63.290100  100.893000
  H    -29.562600   64.680300   99.951800
  H    -28.665100   63.825600  101.283000
  S    -27.121100   69.028400  106.742000
  C    -27.279500   69.605400  108.379000
  C    -28.629700   69.840500  108.710000
  C    -29.597500   69.561000  107.653000
  C    -28.867600   69.218300  106.460000
  H    -28.851800   70.197900  109.715000
  C    -31.095100   69.482800  107.842000
  H    -31.569800   69.844100  106.994000
  H    -31.400000   70.250600  108.520000
  C    -31.718500   68.062800  108.165000
  H    -31.417100   67.379900  107.401000
  H    -32.781200   68.163600  108.040000
  C    -31.202900   67.421500  109.509000
  H    -31.806500   66.550700  109.852000
  H    -31.366600   68.230100  110.227000
  H    -30.169600   67.222300  109.536000
  H    -30.769400   68.704800  101.886000
  H    -26.447300   69.816100  108.992000

 Total Charge           Charge          ....    0
 Multiplicity           Mult            ....    1
 Number of Electrons    NEL             ....  134
 Basis Dimension        Dim             ....  322

ORBITAL ENERGIES
----------------

  NO   OCC          E(Eh)            E(eV)
   0   2.0000     -88.970281     -2421.0044
   1   2.0000     -88.967578     -2420.9309
   2   2.0000     -10.332825      -281.1705
   3   2.0000     -10.329497      -281.0799
   4   2.0000     -10.316448      -280.7248
   5   2.0000     -10.314347      -280.6676
   6   2.0000     -10.313456      -280.6434
   7   2.0000     -10.300879      -280.3012
   8   2.0000     -10.300546      -280.2921
   9   2.0000     -10.293527      -280.1011
  10   2.0000     -10.291424      -280.0439
  11   2.0000     -10.290696      -280.0241
  12   2.0000     -10.287328      -279.9324
  13   2.0000     -10.286793      -279.9179
  14   2.0000     -10.282570      -279.8029
  15   2.0000     -10.275193      -279.6022
  16   2.0000      -8.084145      -219.9808
  17   2.0000      -8.081732      -219.9151
  18   2.0000      -6.042696      -164.4301
  19   2.0000      -6.040179      -164.3616
  20   2.0000      -6.038804      -164.3242
  21   2.0000      -6.036275      -164.2554
  22   2.0000      -6.034899      -164.2180
  23   2.0000      -6.032644      -164.1566
  24   2.0000      -0.999936       -27.2096
  25   2.0000      -0.975696       -26.5500
  26   2.0000      -0.906646       -24.6711
  27   2.0000      -0.901215       -24.5233
  28   2.0000      -0.864947       -23.5364
  29   2.0000      -0.849698       -23.1215
  30   2.0000      -0.841235       -22.8912
  31   2.0000      -0.805811       -21.9272
  32   2.0000      -0.787507       -21.4292
  33   2.0000      -0.774472       -21.0744
  34   2.0000      -0.710091       -19.3226
  35   2.0000      -0.704073       -19.1588
  36   2.0000      -0.692224       -18.8364
  37   2.0000      -0.661688       -18.0054
  38   2.0000      -0.638509       -17.3747
  39   2.0000      -0.611755       -16.6467
  40   2.0000      -0.591953       -16.1078
  41   2.0000      -0.572525       -15.5792
  42   2.0000      -0.558480       -15.1970
  43   2.0000      -0.547362       -14.8945
  44   2.0000      -0.540391       -14.7048
  45   2.0000      -0.521109       -14.1801
  46   2.0000      -0.513851       -13.9826
  47   2.0000      -0.511577       -13.9207
  48   2.0000      -0.500206       -13.6113
  49   2.0000      -0.495781       -13.4909
  50   2.0000      -0.486252       -13.2316
  51   2.0000      -0.477330       -12.9888
  52   2.0000      -0.471858       -12.8399
  53   2.0000      -0.467533       -12.7222
  54   2.0000      -0.455759       -12.4018
  55   2.0000      -0.451484       -12.2855
  56   2.0000      -0.442237       -12.0339
  57   2.0000      -0.436931       -11.8895
  58   2.0000      -0.433836       -11.8053
  59   2.0000      -0.429645       -11.6912
  60   2.0000      -0.427085       -11.6216
  61   2.0000      -0.419832       -11.4242
  62   2.0000      -0.409982       -11.1562
  63   2.0000      -0.340968        -9.2782
  64   2.0000      -0.334423        -9.1001
  65   2.0000      -0.329687        -8.9712
  66   2.0000      -0.286725        -7.8022
  67   0.0000       0.026411         0.7187
  68   0.0000       0.066110         1.7989
  69   0.0000       0.107015         2.9120
  70   0.0000       0.108939         2.9644
  71   0.0000       0.126213         3.4344

MULLIKEN ATOMIC CHARGES
-----------------------
   0 S :    0.118399
   1 C :   -0.149026
   2 C :   -0.050335
   3 C :    0.003138
   4 C :   -0.131785
   5 H :    0.004631
   6 C :    0.078023
   7 H :    0.010300
   8 H :    0.017025
   9 C :   -0.080389
  10 H :    0.041974
  11 H :    0.024946
  12 C :   -0.019498
  13 H :    0.033785
  14 H :    0.041937
  15 H :    0.020077
  16 S :    0.107034
  17 C :   -0.088471
  18 C :   -0.045334
  19 C :   -0.043179
  20 C :   -0.187363
  21 H :    0.022170
  22 C :    0.114511
  23 H :   -0.009633
  24 H :    0.011716
  25 C :   -0.045294
  26 H :    0.027982
  27 H :    0.031189
  28 C :   -0.055701
  29 H :    0.044781
  30 H :    0.017649
  31 H :    0.041684
  32 H :    0.045054
  33 H :    0.048002
Sum of atomic charges:    0.0000000

LOEWDIN ATOMIC CHARGES
----------------------
   0 S :    0.398005
   1 C :   -0.185207
   2 C :   -0.061052
   3 C :   -0.064312
   4 C :   -0.201477
   5 H :    0.021758
   6 C :   -0.025210
   7 H :    0.022885
   8 H :    0.026062
   9 C :   -0.035557
  10 H :    0.031080
  11 H :    0.017239
  12 C :   -0.060600
  13 H :    0.020073
  14 H :    0.036773
  15 H :    0.021073
  16 S :    0.409832
  17 C :   -0.190800
  18 C :   -0.068342
  19 C :   -0.051735
  20 C :   -0.185155
  21 H :    0.030111
  22 C :   -0.031336
  23 H :    0.020323
  24 H :    0.028503
  25 C :   -0.025446
  26 H :    0.022233
  27 H :    0.024249
  28 C :   -0.066003
  29 H :    0.032147
  30 H :    0.022125
  31 H :    0.021489
  32 H :    0.025433
  33 H :    0.020839

  Mayer bond orders larger than 0.100000
B(  0-S ,  1-C ) :   1.1294 B(  0-S ,  4-C ) :   1.1431 B(  1-C ,  2-C ) :   1.6287
B(  1-C , 32-H ) :   0.9660 B(  2-C ,  3-C ) :   1.2359 B(  2-C ,  6-C ) :   1.0056
B(  3-C ,  4-C ) :   1.5663 B(  3-C ,  5-H ) :   0.9908 B(  4-C , 20-C ) :   1.0507
B(  6-C ,  7-H ) :   0.9424 B(  6-C ,  8-H ) :   0.9379 B(  6-C ,  9-C ) :   1.0484
B(  9-C , 10-H ) :   0.9593 B(  9-C , 11-H ) :   0.9629 B(  9-C , 12-C ) :   1.0702
B( 12-C , 13-H ) :   0.9773 B( 12-C , 14-H ) :   0.9742 B( 12-C , 15-H ) :   0.9758
B( 16-S , 17-C ) :   1.1518 B( 16-S , 20-C ) :   1.1603 B( 17-C , 18-C ) :   1.5968
B( 17-C , 20-C ) :   0.1032 B( 17-C , 33-H ) :   0.9754 B( 18-C , 19-C ) :   1.2350
B( 18-C , 21-H ) :   0.9866 B( 19-C , 20-C ) :   1.5445 B( 19-C , 22-C ) :   1.0582
B( 22-C , 23-H ) :   0.9137 B( 22-C , 24-H ) :   0.9263 B( 22-C , 25-C ) :   1.0652
B( 25-C , 26-H ) :   0.9577 B( 25-C , 27-H ) :   0.9582 B( 25-C , 28-C ) :   1.0617
B( 28-C , 29-H ) :   0.9754 B( 28-C , 30-H ) :   0.9795 B( 28-C , 31-H ) :   0.9762

Dispersion correction           -0.014363142
FINAL SINGLE POINT ENERGY     -1339.869738564063

DIPOLE MOMENT
-------------
                                X             Y             Z
Electronic contribution:     10.55450      19.01227       1.81859
Nuclear contribution   :    -10.71361     -19.38337      -1.84346
                        -----------------------------------------
Total Dipole Moment    :     -0.15911      -0.37110      -0.02487
                        -----------------------------------------
Magnitude (a.u.)       :      0.40454
Magnitude (Debye)      :      1.02826

Rotational constants in cm-1:     0.020142     0.007214     0.006787
Rotational constants in MHz :   603.852857   216.255761   203.481637

                             ****ORCA TERMINATED NORMALLY****
TOTAL RUN TIME: 0 days 0 hours 0 minutes 29 seconds 190 msec
