                         Program Version 4.2.1 -  RELEASE  -
|  1> ! wB97X-D3 SP def2-SVP
|  2> %pal
|  3> nprocs 16
|  4> end
|  5>
|  6> * xyz 0 1
|  7> S 	 3.35683 	 -17.289 	 81.2282
|  8> C 	 2.02484 	 -17.1694 	 82.3833
|  9> C 	 1.01018 	 -16.4763 	 81.819
| 10> C 	 1.20972 	 -16.1186 	 80.4928
| 11> C 	 2.40792 	 -16.4563 	 79.9594
| 12> H 	 0.561746 	 -15.5123 	 79.9068
| 13> C 	 -0.228859 	 -16.1198 	 82.6011
| 14> H 	 -0.598568 	 -17.0462 	 83.0573
| 15> H 	 -0.989582 	 -15.8623 	 81.9001
| 16> C 	 -0.0538138 	 -14.8963 	 83.5422
| 17> H 	 0.617245 	 -15.0427 	 84.4312
| 18> H 	 0.368931 	 -14.0947 	 82.9981
| 19> C 	 -1.29697 	 -14.4608 	 84.1106
| 20> H 	 -2.20359 	 -14.4489 	 83.4615
| 21> H 	 -1.49524 	 -15.0281 	 85.0364
| 22> H 	 -1.11692 	 -13.4087 	 84.39
| 23> S 	 3.45612 	 -17.8023 	 77.8681
| 24> C 	 3.53468 	 -17.09 	 76.3014
| 25> C 	 3.26322 	 -15.7221 	 76.3523
| 26> C 	 2.90373 	 -15.2729 	 77.6611
| 27> C 	 2.86334 	 -16.3101 	 78.5603
| 28> H 	 3.47603 	 -15.0952 	 75.4681
| 29> C 	 2.76222 	 -13.8018 	 77.9769
| 30> H 	 2.91834 	 -13.6866 	 78.9987
| 31> H 	 1.64308 	 -13.5174 	 77.7749
| 32> C 	 3.75018 	 -12.7512 	 77.3587
| 33> H 	 3.83326 	 -12.8707 	 76.3204
| 34> H 	 4.83927 	 -12.923 	 77.5973
| 35> C 	 3.36246 	 -11.2642 	 77.5306
| 36> H 	 3.36975 	 -10.9609 	 78.5857
| 37> H 	 2.32597 	 -11.1018 	 77.1017
| 38> H 	 4.11766 	 -10.6552 	 77.0288
| 39> H 	 2.07794 	 -17.5505 	 83.3586
| 40> H 	 3.81337 	 -17.5838 	 75.3361
| 41> *
| 42>
| 43>                          ****END OF INPUT****

CARTESIAN COORDINATES (ANGSTROEM)
---------------------------------
  S      3.356830  -17.289000   81.228200
  C      2.024840  -17.169400   82.383300
  C      1.010180  -16.476300   81.819000
  C      1.209720  -16.118600   80.492800
  C      2.407920  -16.456300   79.959400
  H      0.561746  -15.512300   79.906800
  C     -0.228859  -16.119800   82.601100
  H     -0.598568  -17.046200   83.057300
  H     -0.989582  -15.862300   81.900100
  C     -0.053814  -14.896300   83.542200
  H      0.617245  -15.042700   84.431200
  H      0.368931  -14.094700   82.998100
  C     -1.296970  -14.460800   84.110600
  H     -2.203590  -14.448900   83.461500
  H     -1.495240  -15.028100   85.036400
  H     -1.116920  -13.408700   84.390000
  S      3.456120  -17.802300   77.868100
  C      3.534680  -17.090000   76.301400
  C      3.263220  -15.722100   76.352300
  C      2.903730  -15.272900   77.661100
  C      2.863340  -16.310100   78.560300
  H      3.476030  -15.095200   75.468100
  C      2.762220  -13.801800   77.976900
  H      2.918340  -13.686600   78.998700
  H      1.643080  -13.517400   77.774900
  C      3.750180  -12.751200   77.358700
  H      3.833260  -12.870700   76.320400
  H      4.839270  -12.923000   77.597300
  C      3.362460  -11.264200   77.530600
  H      3.369750  -10.960900   78.585700
  H      2.325970  -11.101800   77.101700
  H      4.117660  -10.655200   77.028800
  H      2.077940  -17.550500   83.358600
  H      3.813370  -17.583800   75.336100

 Total Charge           Charge          ....    0
 Multiplicity           Mult            ....    1
 Number of Electrons    NEL             ....  134
 Basis Dimension        Dim             ....  322

ORBITAL ENERGIES
----------------

  NO   OCC          E(Eh)            E(eV)
   0   2.0000     -88.965777     -2420.8819
   1   2.0000     -88.961092     -2420.7544
   2   2.0000     -10.329996      -281.0935
   3   2.0000     -10.327425      -281.0235
   4   2.0000     -10.319622      -280.8112
   5   2.0000     -10.307131      -280.4713
   6   2.0000     -10.305203      -280.4188
   7   2.0000     -10.298054      -280.2243
   8   2.0000     -10.295112      -280.1442
   9   2.0000     -10.290554      -280.0202
  10   2.0000     -10.290232      -280.0114
  11   2.0000     -10.287408      -279.9346
  12   2.0000     -10.287233      -279.9298
  13   2.0000     -10.284091      -279.8443
  14   2.0000     -10.280751      -279.7535
  15   2.0000     -10.274519      -279.5839
  16   2.0000      -8.081085      -219.8975
  17   2.0000      -8.075200      -219.7374
  18   2.0000      -6.039592      -164.3456
  19   2.0000      -6.035476      -164.2337
  20   2.0000      -6.033811      -164.1883
  21   2.0000      -6.031821      -164.1342
  22   2.0000      -6.029765      -164.0783
  23   2.0000      -6.025929      -163.9739
  24   2.0000      -1.008644       -27.4466
  25   2.0000      -0.988028       -26.8856
  26   2.0000      -0.918688       -24.9988
  27   2.0000      -0.904562       -24.6144
  28   2.0000      -0.873212       -23.7613
  29   2.0000      -0.855439       -23.2777
  30   2.0000      -0.848536       -23.0898
  31   2.0000      -0.819102       -22.2889
  32   2.0000      -0.780739       -21.2450
  33   2.0000      -0.769055       -20.9271
  34   2.0000      -0.705904       -19.2086
  35   2.0000      -0.699151       -19.0249
  36   2.0000      -0.693684       -18.8761
  37   2.0000      -0.657443       -17.8899
  38   2.0000      -0.646430       -17.5902
  39   2.0000      -0.621290       -16.9062
  40   2.0000      -0.596911       -16.2428
  41   2.0000      -0.573771       -15.6131
  42   2.0000      -0.564002       -15.3473
  43   2.0000      -0.558092       -15.1864
  44   2.0000      -0.532152       -14.4806
  45   2.0000      -0.526094       -14.3157
  46   2.0000      -0.521395       -14.1879
  47   2.0000      -0.517336       -14.0774
  48   2.0000      -0.505067       -13.7436
  49   2.0000      -0.498786       -13.5726
  50   2.0000      -0.489529       -13.3208
  51   2.0000      -0.478173       -13.0117
  52   2.0000      -0.470853       -12.8126
  53   2.0000      -0.463003       -12.5990
  54   2.0000      -0.460569       -12.5327
  55   2.0000      -0.455172       -12.3859
  56   2.0000      -0.447776       -12.1846
  57   2.0000      -0.433535       -11.7971
  58   2.0000      -0.429834       -11.6964
  59   2.0000      -0.423082       -11.5126
  60   2.0000      -0.416594       -11.3361
  61   2.0000      -0.413267       -11.2456
  62   2.0000      -0.411660       -11.2018
  63   2.0000      -0.347629        -9.4595
  64   2.0000      -0.330411        -8.9909
  65   2.0000      -0.330208        -8.9854
  66   2.0000      -0.292564        -7.9611
  67   0.0000       0.032113         0.8738
  68   0.0000       0.068377         1.8606
  69   0.0000       0.112941         3.0733
  70   0.0000       0.128695         3.5020
  71   0.0000       0.134705         3.6655

MULLIKEN ATOMIC CHARGES
-----------------------
   0 S :    0.085198
   1 C :   -0.112417
   2 C :   -0.072382
   3 C :    0.049537
   4 C :   -0.141128
   5 H :   -0.008153
   6 C :    0.084526
   7 H :    0.030996
   8 H :   -0.000491
   9 C :   -0.050091
  10 H :    0.031610
  11 H :    0.015821
  12 C :   -0.052051
  13 H :    0.032631
  14 H :    0.033988
  15 H :    0.027565
  16 S :    0.121190
  17 C :   -0.107639
  18 C :   -0.064804
  19 C :   -0.015424
  20 C :   -0.169475
  21 H :    0.032519
  22 C :    0.069537
  23 H :    0.018211
  24 H :    0.048800
  25 C :   -0.085285
  26 H :    0.007542
  27 H :    0.036327
  28 C :   -0.069129
  29 H :    0.037312
  30 H :    0.043526
  31 H :    0.040121
  32 H :    0.029051
  33 H :    0.072462
Sum of atomic charges:   -0.0000000

LOEWDIN ATOMIC CHARGES
----------------------
   0 S :    0.371223
   1 C :   -0.173879
   2 C :   -0.069859
   3 C :   -0.064545
   4 C :   -0.177708
   5 H :    0.027598
   6 C :   -0.026316
   7 H :    0.033123
   8 H :    0.023507
   9 C :   -0.043809
  10 H :    0.032795
  11 H :    0.019513
  12 C :   -0.070947
  13 H :    0.024612
  14 H :    0.027094
  15 H :    0.030845
  16 S :    0.425802
  17 C :   -0.202028
  18 C :   -0.078672
  19 C :   -0.060541
  20 C :   -0.196118
  21 H :    0.035783
  22 C :   -0.032733
  23 H :    0.022535
  24 H :    0.043893
  25 C :   -0.046611
  26 H :    0.010605
  27 H :    0.033281
  28 C :   -0.064505
  29 H :    0.023506
  30 H :    0.032259
  31 H :    0.029529
  32 H :    0.019800
  33 H :    0.040966

  Mayer bond orders larger than 0.100000
B(  0-S ,  1-C ) :   1.1251 B(  0-S ,  4-C ) :   1.1423 B(  1-C ,  2-C ) :   1.6032
B(  1-C , 32-H ) :   0.9831 B(  2-C ,  3-C ) :   1.2529 B(  2-C ,  6-C ) :   1.0205
B(  3-C ,  4-C ) :   1.5872 B(  3-C ,  5-H ) :   1.0026 B(  4-C , 20-C ) :   1.0094
B(  6-C ,  7-H ) :   0.9394 B(  6-C ,  8-H ) :   0.9355 B(  6-C ,  9-C ) :   1.0620
B(  9-C , 10-H ) :   0.9488 B(  9-C , 11-H ) :   0.9569 B(  9-C , 12-C ) :   1.0990
B( 12-C , 13-H ) :   0.9706 B( 12-C , 14-H ) :   0.9746 B( 12-C , 15-H ) :   0.9708
B( 16-S , 17-C ) :   1.1665 B( 16-S , 20-C ) :   1.1470 B( 17-C , 18-C ) :   1.6058
B( 17-C , 33-H ) :   0.9609 B( 18-C , 19-C ) :   1.2381 B( 18-C , 21-H ) :   0.9838
B( 19-C , 20-C ) :   1.6054 B( 19-C , 22-C ) :   1.0406 B( 22-C , 23-H ) :   0.9393
B( 22-C , 24-H ) :   0.9298 B( 22-C , 25-C ) :   1.0513 B( 25-C , 26-H ) :   0.9521
B( 25-C , 27-H ) :   0.9526 B( 25-C , 28-C ) :   1.0860 B( 28-C , 29-H ) :   0.9792
B( 28-C , 30-H ) :   0.9738 B( 28-C , 31-H ) :   0.9728

Dispersion correction           -0.013232593
FINAL SINGLE POINT ENERGY     -1339.867843966549

DIPOLE MOMENT
-------------
                                X             Y             Z
Electronic contribution:     12.82376     -25.52309      -7.11238
Nuclear contribution   :    -13.09654      26.12048       7.07278
                        -----------------------------------------
Total Dipole Moment    :     -0.27278       0.59739      -0.03960
                        -----------------------------------------
Magnitude (a.u.)       :      0.65791
Magnitude (Debye)      :      1.67228

Rotational constants in cm-1:     0.017253     0.007995     0.006008
Rotational constants in MHz :   517.224677   239.693928   180.115361

                             ****ORCA TERMINATED NORMALLY****
TOTAL RUN TIME: 0 days 0 hours 0 minutes 33 seconds 97 msec
