                         Program Version 4.2.1 -  RELEASE  -
|  1> ! wB97X-D3 SP def2-SVP
|  2> %pal
|  3> nprocs 16
|  4> end
|  5>
|  6> * xyz 0 1
|  7> S 	 10.5199 	 -13.0213 	 87.4028
|  8> C 	 11.5602 	 -13.8788 	 86.2932
|  9> C 	 12.2785 	 -14.8427 	 86.9799
| 10> C 	 11.8967 	 -14.9844 	 88.3798
| 11> C 	 10.8935 	 -14.0906 	 88.7493
| 12> H 	 12.3173 	 -15.7381 	 89.0633
| 13> C 	 13.4208 	 -15.7237 	 86.3938
| 14> H 	 13.0859 	 -16.0519 	 85.4059
| 15> H 	 13.6643 	 -16.5869 	 87.007
| 16> C 	 14.8153 	 -15.0197 	 86.1669
| 17> H 	 15.5096 	 -15.5981 	 85.5285
| 18> H 	 14.6587 	 -14.0824 	 85.5675
| 19> C 	 15.5806 	 -14.6982 	 87.4994
| 20> H 	 15.5298 	 -15.3803 	 88.3643
| 21> H 	 16.6422 	 -14.7401 	 87.2472
| 22> H 	 15.2612 	 -13.6892 	 87.7828
| 23> S 	 8.59393 	 -14.3609 	 90.2236
| 24> C 	 8.75995 	 -14.3089 	 91.9369
| 25> C 	 9.98893 	 -13.8597 	 92.341
| 26> C 	 10.8913 	 -13.8414 	 91.2888
| 27> C 	 10.284 	 -14.0879 	 90.0447
| 28> H 	 10.1082 	 -13.581 	 93.3731
| 29> C 	 12.298 	 -13.5966 	 91.5339
| 30> H 	 12.3325 	 -12.5226 	 91.2913
| 31> H 	 12.7983 	 -14.1096 	 90.75
| 32> C 	 12.8447 	 -13.7825 	 92.9722
| 33> H 	 12.694 	 -14.7619 	 93.456
| 34> H 	 12.3233 	 -12.9972 	 93.5425
| 35> C 	 14.3948 	 -13.3543 	 93.0107
| 36> H 	 14.8004 	 -13.1334 	 94.0219
| 37> H 	 14.5506 	 -12.3982 	 92.4131
| 38> H 	 15.0079 	 -14.1306 	 92.5976
| 39> H 	 11.7599 	 -13.583 	 85.3424
| 40> H 	 7.85439 	 -14.3314 	 92.6005
| 41> *
| 42>
| 43>                          ****END OF INPUT****

CARTESIAN COORDINATES (ANGSTROEM)
---------------------------------
  S     10.519900  -13.021300   87.402800
  C     11.560200  -13.878800   86.293200
  C     12.278500  -14.842700   86.979900
  C     11.896700  -14.984400   88.379800
  C     10.893500  -14.090600   88.749300
  H     12.317300  -15.738100   89.063300
  C     13.420800  -15.723700   86.393800
  H     13.085900  -16.051900   85.405900
  H     13.664300  -16.586900   87.007000
  C     14.815300  -15.019700   86.166900
  H     15.509600  -15.598100   85.528500
  H     14.658700  -14.082400   85.567500
  C     15.580600  -14.698200   87.499400
  H     15.529800  -15.380300   88.364300
  H     16.642200  -14.740100   87.247200
  H     15.261200  -13.689200   87.782800
  S      8.593930  -14.360900   90.223600
  C      8.759950  -14.308900   91.936900
  C      9.988930  -13.859700   92.341000
  C     10.891300  -13.841400   91.288800
  C     10.284000  -14.087900   90.044700
  H     10.108200  -13.581000   93.373100
  C     12.298000  -13.596600   91.533900
  H     12.332500  -12.522600   91.291300
  H     12.798300  -14.109600   90.750000
  C     12.844700  -13.782500   92.972200
  H     12.694000  -14.761900   93.456000
  H     12.323300  -12.997200   93.542500
  C     14.394800  -13.354300   93.010700
  H     14.800400  -13.133400   94.021900
  H     14.550600  -12.398200   92.413100
  H     15.007900  -14.130600   92.597600
  H     11.759900  -13.583000   85.342400
  H      7.854390  -14.331400   92.600500

 Total Charge           Charge          ....    0
 Multiplicity           Mult            ....    1
 Number of Electrons    NEL             ....  134
 Basis Dimension        Dim             ....  322

ORBITAL ENERGIES
----------------

  NO   OCC          E(Eh)            E(eV)
   0   2.0000     -88.966659     -2420.9059
   1   2.0000     -88.964647     -2420.8511
   2   2.0000     -10.328352      -281.0487
   3   2.0000     -10.317054      -280.7413
   4   2.0000     -10.313977      -280.6576
   5   2.0000     -10.309253      -280.5290
   6   2.0000     -10.305941      -280.4389
   7   2.0000     -10.299928      -280.2753
   8   2.0000     -10.296648      -280.1860
   9   2.0000     -10.296087      -280.1708
  10   2.0000     -10.295908      -280.1659
  11   2.0000     -10.295780      -280.1624
  12   2.0000     -10.288212      -279.9565
  13   2.0000     -10.285127      -279.8725
  14   2.0000     -10.284178      -279.8467
  15   2.0000     -10.279816      -279.7280
  16   2.0000      -8.081126      -219.8986
  17   2.0000      -8.080378      -219.8783
  18   2.0000      -6.039793      -164.3511
  19   2.0000      -6.038597      -164.3186
  20   2.0000      -6.035536      -164.2353
  21   2.0000      -6.034837      -164.2163
  22   2.0000      -6.031871      -164.1355
  23   2.0000      -6.031300      -164.1200
  24   2.0000      -1.011894       -27.5350
  25   2.0000      -0.984986       -26.8028
  26   2.0000      -0.913642       -24.8615
  27   2.0000      -0.898605       -24.4523
  28   2.0000      -0.871723       -23.7208
  29   2.0000      -0.849502       -23.1161
  30   2.0000      -0.839760       -22.8510
  31   2.0000      -0.813897       -22.1473
  32   2.0000      -0.780259       -21.2319
  33   2.0000      -0.768498       -20.9119
  34   2.0000      -0.712681       -19.3930
  35   2.0000      -0.703014       -19.1300
  36   2.0000      -0.693214       -18.8633
  37   2.0000      -0.653557       -17.7842
  38   2.0000      -0.642518       -17.4838
  39   2.0000      -0.612891       -16.6776
  40   2.0000      -0.592823       -16.1315
  41   2.0000      -0.573152       -15.5962
  42   2.0000      -0.570417       -15.5218
  43   2.0000      -0.544721       -14.8226
  44   2.0000      -0.541661       -14.7394
  45   2.0000      -0.527291       -14.3483
  46   2.0000      -0.512842       -13.9551
  47   2.0000      -0.510079       -13.8799
  48   2.0000      -0.504494       -13.7280
  49   2.0000      -0.497137       -13.5278
  50   2.0000      -0.485672       -13.2158
  51   2.0000      -0.475649       -12.9431
  52   2.0000      -0.468073       -12.7369
  53   2.0000      -0.465092       -12.6558
  54   2.0000      -0.457575       -12.4513
  55   2.0000      -0.453987       -12.3536
  56   2.0000      -0.442379       -12.0377
  57   2.0000      -0.440540       -11.9877
  58   2.0000      -0.431390       -11.7387
  59   2.0000      -0.424784       -11.5590
  60   2.0000      -0.422550       -11.4982
  61   2.0000      -0.419876       -11.4254
  62   2.0000      -0.408624       -11.1192
  63   2.0000      -0.343947        -9.3593
  64   2.0000      -0.328729        -8.9452
  65   2.0000      -0.324848        -8.8396
  66   2.0000      -0.290688        -7.9100
  67   0.0000       0.033726         0.9177
  68   0.0000       0.064814         1.7637
  69   0.0000       0.119860         3.2616
  70   0.0000       0.123787         3.3684
  71   0.0000       0.128089         3.4855

MULLIKEN ATOMIC CHARGES
-----------------------
   0 S :    0.115000
   1 C :   -0.078624
   2 C :   -0.086358
   3 C :    0.024213
   4 C :   -0.177231
   5 H :    0.032565
   6 C :    0.073203
   7 H :    0.028813
   8 H :    0.024694
   9 C :   -0.108347
  10 H :    0.032817
  11 H :    0.032478
  12 C :   -0.070428
  13 H :    0.033069
  14 H :    0.031112
  15 H :    0.048554
  16 S :    0.129102
  17 C :   -0.108225
  18 C :   -0.057676
  19 C :   -0.040126
  20 C :   -0.171816
  21 H :    0.018991
  22 C :    0.110366
  23 H :    0.041179
  24 H :    0.002987
  25 C :   -0.091312
  26 H :    0.050956
  27 H :    0.038007
  28 C :   -0.068839
  29 H :    0.038981
  30 H :    0.037602
  31 H :    0.035953
  32 H :    0.010209
  33 H :    0.068131
Sum of atomic charges:   -0.0000000

LOEWDIN ATOMIC CHARGES
----------------------
   0 S :    0.404769
   1 C :   -0.186386
   2 C :   -0.057352
   3 C :   -0.064568
   4 C :   -0.195587
   5 H :    0.035829
   6 C :   -0.029909
   7 H :    0.030678
   8 H :    0.026928
   9 C :   -0.044072
  10 H :    0.022351
  11 H :    0.025878
  12 C :   -0.075749
  13 H :    0.024570
  14 H :    0.027423
  15 H :    0.029928
  16 S :    0.437019
  17 C :   -0.196286
  18 C :   -0.077760
  19 C :   -0.048890
  20 C :   -0.228890
  21 H :    0.033495
  22 C :   -0.037504
  23 H :    0.048885
  24 H :    0.024641
  25 C :   -0.036352
  26 H :    0.028100
  27 H :    0.026374
  28 C :   -0.070148
  29 H :    0.026875
  30 H :    0.032397
  31 H :    0.019815
  32 H :    0.008494
  33 H :    0.035004

  Mayer bond orders larger than 0.100000
B(  0-S ,  1-C ) :   1.1292 B(  0-S ,  4-C ) :   1.1501 B(  1-C ,  2-C ) :   1.6083
B(  1-C , 32-H ) :   0.9827 B(  2-C ,  3-C ) :   1.2443 B(  2-C ,  6-C ) :   1.0194
B(  3-C ,  4-C ) :   1.5623 B(  3-C ,  5-H ) :   0.9832 B(  4-C , 20-C ) :   1.0669
B(  6-C ,  7-H ) :   0.9412 B(  6-C ,  8-H ) :   0.9522 B(  6-C ,  9-C ) :   1.0626
B(  9-C , 10-H ) :   0.9663 B(  9-C , 11-H ) :   0.9603 B(  9-C , 12-C ) :   1.0525
B( 12-C , 13-H ) :   0.9798 B( 12-C , 14-H ) :   0.9787 B( 12-C , 15-H ) :   0.9810
B( 16-S , 17-C ) :   1.1884 B( 16-S , 20-C ) :   1.1518 B( 17-C , 18-C ) :   1.5763
B( 17-C , 20-C ) :   0.1047 B( 17-C , 33-H ) :   0.9558 B( 18-C , 19-C ) :   1.2750
B( 18-C , 21-H ) :   0.9919 B( 19-C , 20-C ) :   1.5414 B( 19-C , 22-C ) :   1.0438
B( 22-C , 23-H ) :   0.9034 B( 22-C , 24-H ) :   0.9216 B( 22-C , 25-C ) :   1.0715
B( 25-C , 26-H ) :   0.9637 B( 25-C , 27-H ) :   0.9410 B( 25-C , 28-C ) :   1.0699
B( 28-C , 29-H ) :   0.9782 B( 28-C , 30-H ) :   0.9746 B( 28-C , 31-H ) :   0.9792

Dispersion correction           -0.014215732
FINAL SINGLE POINT ENERGY     -1339.866804019346

DIPOLE MOMENT
-------------
                                X             Y             Z
Electronic contribution:    -30.18986       2.75179      -6.03314
Nuclear contribution   :     30.80206      -2.77837       6.31331
                        -----------------------------------------
Total Dipole Moment    :      0.61220      -0.02657       0.28016
                        -----------------------------------------
Magnitude (a.u.)       :      0.67379
Magnitude (Debye)      :      1.71263

Rotational constants in cm-1:     0.016514     0.009637     0.006648
Rotational constants in MHz :   495.090486   288.911871   199.300863

                             ****ORCA TERMINATED NORMALLY****
TOTAL RUN TIME: 0 days 0 hours 0 minutes 34 seconds 670 msec
