                         Program Version 4.2.1 -  RELEASE  -
|  1> ! wB97X-D3 SP def2-SVP
|  2> %pal
|  3> nprocs 16
|  4> end
|  5>
|  6> * xyz 0 1
|  7> S 	 35.3029 	 28.7643 	 55.7736
|  8> C 	 35.5414 	 30.1913 	 54.74
|  9> C 	 34.9686 	 29.9892 	 53.4806
| 10> C 	 34.428 	 28.6999 	 53.3669
| 11> C 	 34.7302 	 27.8527 	 54.4051
| 12> H 	 33.8905 	 28.3801 	 52.5325
| 13> C 	 34.9321 	 31.0622 	 52.4027
| 14> H 	 34.9351 	 31.9552 	 52.909
| 15> H 	 33.9465 	 30.9763 	 51.8508
| 16> C 	 36.1883 	 31.0117 	 51.4583
| 17> H 	 36.3454 	 29.9668 	 51.077
| 18> H 	 35.8822 	 31.5931 	 50.6014
| 19> C 	 37.41 	 31.5755 	 52.1919
| 20> H 	 37.2264 	 32.3398 	 52.8733
| 21> H 	 37.9013 	 30.6998 	 52.6828
| 22> H 	 38.1599 	 31.9346 	 51.4396
| 23> S 	 35.6946 	 25.2774 	 54.0631
| 24> C 	 34.6031 	 24.0008 	 54.5396
| 25> C 	 33.3582 	 24.378 	 54.8295
| 26> C 	 33.2936 	 25.8181 	 54.8877
| 27> C 	 34.4346 	 26.4438 	 54.5321
| 28> H 	 32.5755 	 23.6659 	 55.0489
| 29> C 	 32.0894 	 26.5749 	 55.2966
| 30> H 	 32.3696 	 27.5368 	 55.7019
| 31> H 	 31.643 	 26.1137 	 56.1825
| 32> C 	 31.0745 	 26.8271 	 54.1857
| 33> H 	 30.7611 	 25.9663 	 53.5967
| 34> H 	 31.549 	 27.5115 	 53.4645
| 35> C 	 29.8185 	 27.6393 	 54.6354
| 36> H 	 30.0124 	 28.6713 	 54.9345
| 37> H 	 29.2127 	 27.1081 	 55.3646
| 38> H 	 29.1477 	 27.6277 	 53.8272
| 39> H 	 35.8307 	 31.1375 	 55.1757
| 40> H 	 34.8497 	 22.9568 	 54.438
| 41> *
| 42>
| 43>                          ****END OF INPUT****

CARTESIAN COORDINATES (ANGSTROEM)
---------------------------------
  S     35.302900   28.764300   55.773600
  C     35.541400   30.191300   54.740000
  C     34.968600   29.989200   53.480600
  C     34.428000   28.699900   53.366900
  C     34.730200   27.852700   54.405100
  H     33.890500   28.380100   52.532500
  C     34.932100   31.062200   52.402700
  H     34.935100   31.955200   52.909000
  H     33.946500   30.976300   51.850800
  C     36.188300   31.011700   51.458300
  H     36.345400   29.966800   51.077000
  H     35.882200   31.593100   50.601400
  C     37.410000   31.575500   52.191900
  H     37.226400   32.339800   52.873300
  H     37.901300   30.699800   52.682800
  H     38.159900   31.934600   51.439600
  S     35.694600   25.277400   54.063100
  C     34.603100   24.000800   54.539600
  C     33.358200   24.378000   54.829500
  C     33.293600   25.818100   54.887700
  C     34.434600   26.443800   54.532100
  H     32.575500   23.665900   55.048900
  C     32.089400   26.574900   55.296600
  H     32.369600   27.536800   55.701900
  H     31.643000   26.113700   56.182500
  C     31.074500   26.827100   54.185700
  H     30.761100   25.966300   53.596700
  H     31.549000   27.511500   53.464500
  C     29.818500   27.639300   54.635400
  H     30.012400   28.671300   54.934500
  H     29.212700   27.108100   55.364600
  H     29.147700   27.627700   53.827200
  H     35.830700   31.137500   55.175700
  H     34.849700   22.956800   54.438000

 Total Charge           Charge          ....    0
 Multiplicity           Mult            ....    1
 Number of Electrons    NEL             ....  134
 Basis Dimension        Dim             ....  322

ORBITAL ENERGIES
----------------

  NO   OCC          E(Eh)            E(eV)
   0   2.0000     -88.963488     -2420.8196
   1   2.0000     -88.960106     -2420.7276
   2   2.0000     -10.323687      -280.9218
   3   2.0000     -10.316965      -280.7389
   4   2.0000     -10.314405      -280.6692
   5   2.0000     -10.310521      -280.5635
   6   2.0000     -10.298980      -280.2495
   7   2.0000     -10.295853      -280.1644
   8   2.0000     -10.291561      -280.0476
   9   2.0000     -10.291114      -280.0355
  10   2.0000     -10.288585      -279.9666
  11   2.0000     -10.286764      -279.9171
  12   2.0000     -10.286481      -279.9094
  13   2.0000     -10.282285      -279.7952
  14   2.0000     -10.278129      -279.6821
  15   2.0000     -10.272550      -279.5303
  16   2.0000      -8.077901      -219.8109
  17   2.0000      -8.075079      -219.7341
  18   2.0000      -6.036317      -164.2565
  19   2.0000      -6.033654      -164.1841
  20   2.0000      -6.032532      -164.1536
  21   2.0000      -6.029812      -164.0795
  22   2.0000      -6.028707      -164.0495
  23   2.0000      -6.025486      -163.9618
  24   2.0000      -1.008186       -27.4341
  25   2.0000      -0.985302       -26.8114
  26   2.0000      -0.910824       -24.7848
  27   2.0000      -0.906872       -24.6773
  28   2.0000      -0.868411       -23.6307
  29   2.0000      -0.848760       -23.0959
  30   2.0000      -0.846602       -23.0372
  31   2.0000      -0.816309       -22.2129
  32   2.0000      -0.784061       -21.3354
  33   2.0000      -0.770491       -20.9661
  34   2.0000      -0.709323       -19.3017
  35   2.0000      -0.699253       -19.0277
  36   2.0000      -0.691302       -18.8113
  37   2.0000      -0.661094       -17.9893
  38   2.0000      -0.645146       -17.5553
  39   2.0000      -0.623338       -16.9619
  40   2.0000      -0.600123       -16.3302
  41   2.0000      -0.569349       -15.4928
  42   2.0000      -0.559459       -15.2237
  43   2.0000      -0.544564       -14.8183
  44   2.0000      -0.539975       -14.6935
  45   2.0000      -0.524257       -14.2657
  46   2.0000      -0.521870       -14.2008
  47   2.0000      -0.512033       -13.9331
  48   2.0000      -0.508946       -13.8491
  49   2.0000      -0.490498       -13.3471
  50   2.0000      -0.483860       -13.1665
  51   2.0000      -0.477138       -12.9836
  52   2.0000      -0.471015       -12.8170
  53   2.0000      -0.465351       -12.6628
  54   2.0000      -0.459338       -12.4992
  55   2.0000      -0.451553       -12.2874
  56   2.0000      -0.445651       -12.1268
  57   2.0000      -0.438598       -11.9348
  58   2.0000      -0.434605       -11.8262
  59   2.0000      -0.426965       -11.6183
  60   2.0000      -0.420964       -11.4550
  61   2.0000      -0.411923       -11.2090
  62   2.0000      -0.410220       -11.1626
  63   2.0000      -0.334831        -9.1112
  64   2.0000      -0.328011        -8.9256
  65   2.0000      -0.319001        -8.6804
  66   2.0000      -0.311815        -8.4849
  67   0.0000       0.043171         1.1748
  68   0.0000       0.058975         1.6048
  69   0.0000       0.105922         2.8823
  70   0.0000       0.117666         3.2018
  71   0.0000       0.134981         3.6730

MULLIKEN ATOMIC CHARGES
-----------------------
   0 S :    0.111889
   1 C :   -0.129456
   2 C :   -0.102379
   3 C :    0.076437
   4 C :   -0.187948
   5 H :   -0.012954
   6 C :    0.076226
   7 H :   -0.000981
   8 H :    0.035263
   9 C :   -0.067451
  10 H :    0.041371
  11 H :    0.029500
  12 C :   -0.050743
  13 H :    0.021704
  14 H :    0.052525
  15 H :    0.039753
  16 S :    0.101570
  17 C :   -0.069173
  18 C :   -0.024800
  19 C :   -0.013459
  20 C :   -0.180039
  21 H :    0.018866
  22 C :    0.108304
  23 H :    0.005599
  24 H :    0.015831
  25 C :   -0.089996
  26 H :    0.027550
  27 H :    0.021693
  28 C :   -0.023311
  29 H :    0.042258
  30 H :    0.019980
  31 H :    0.011956
  32 H :    0.048245
  33 H :    0.046166
Sum of atomic charges:   -0.0000000

LOEWDIN ATOMIC CHARGES
----------------------
   0 S :    0.402272
   1 C :   -0.191663
   2 C :   -0.061170
   3 C :   -0.052918
   4 C :   -0.195480
   5 H :    0.020688
   6 C :   -0.024244
   7 H :    0.014529
   8 H :    0.036247
   9 C :   -0.036117
  10 H :    0.031162
  11 H :    0.019172
  12 C :   -0.066263
  13 H :    0.012417
  14 H :    0.038012
  15 H :    0.033682
  16 S :    0.382833
  17 C :   -0.168940
  18 C :   -0.071051
  19 C :   -0.048220
  20 C :   -0.197563
  21 H :    0.035508
  22 C :   -0.035565
  23 H :    0.027523
  24 H :    0.028609
  25 C :   -0.036195
  26 H :    0.022146
  27 H :    0.026107
  28 C :   -0.063520
  29 H :    0.027431
  30 H :    0.021924
  31 H :    0.020234
  32 H :    0.022835
  33 H :    0.025578

  Mayer bond orders larger than 0.100000
B(  0-S ,  1-C ) :   1.1440 B(  0-S ,  4-C ) :   1.1617 B(  1-C ,  2-C ) :   1.5839
B(  1-C ,  4-C ) :   0.1111 B(  1-C , 32-H ) :   0.9696 B(  2-C ,  3-C ) :   1.2666
B(  2-C ,  6-C ) :   1.0181 B(  3-C ,  4-C ) :   1.5692 B(  3-C ,  5-H ) :   1.0043
B(  4-C , 20-C ) :   1.0121 B(  6-C ,  7-H ) :   0.9392 B(  6-C ,  8-H ) :   0.9447
B(  6-C ,  9-C ) :   1.0596 B(  9-C , 10-H ) :   0.9609 B(  9-C , 11-H ) :   0.9613
B(  9-C , 12-C ) :   1.0650 B( 12-C , 13-H ) :   0.9793 B( 12-C , 14-H ) :   0.9737
B( 12-C , 15-H ) :   0.9734 B( 16-S , 17-C ) :   1.1419 B( 16-S , 20-C ) :   1.1058
B( 17-C , 18-C ) :   1.6681 B( 17-C , 33-H ) :   0.9610 B( 18-C , 19-C ) :   1.1804
B( 18-C , 21-H ) :   0.9949 B( 19-C , 20-C ) :   1.6809 B( 19-C , 22-C ) :   1.0590
B( 22-C , 23-H ) :   0.9133 B( 22-C , 24-H ) :   0.9314 B( 22-C , 25-C ) :   1.0626
B( 25-C , 26-H ) :   0.9606 B( 25-C , 27-H ) :   0.9494 B( 25-C , 28-C ) :   1.0875
B( 28-C , 29-H ) :   0.9758 B( 28-C , 30-H ) :   0.9732 B( 28-C , 31-H ) :   0.9707

Dispersion correction           -0.014959201
FINAL SINGLE POINT ENERGY     -1339.877825418733

DIPOLE MOMENT
-------------
                                X             Y             Z
Electronic contribution:     11.76533     -14.56599      10.05670
Nuclear contribution   :    -12.26264      14.79215     -10.38845
                        -----------------------------------------
Total Dipole Moment    :     -0.49730       0.22616      -0.33176
                        -----------------------------------------
Magnitude (a.u.)       :      0.63916
Magnitude (Debye)      :      1.62461

Rotational constants in cm-1:     0.019181     0.008611     0.007111
Rotational constants in MHz :   575.040129   258.138294   213.191947

                             ****ORCA TERMINATED NORMALLY****
TOTAL RUN TIME: 0 days 0 hours 0 minutes 35 seconds 702 msec
