                         Program Version 4.2.1 -  RELEASE  -
|  1> ! wB97X-D3 SP def2-SVP
|  2> %pal
|  3> nprocs 16
|  4> end
|  5>
|  6> * xyz 0 1
|  7> S 	 -43.398 	 13.5949 	 80.2752
|  8> C 	 -43.955 	 11.9206 	 80.133
|  9> C 	 -43.572 	 11.1483 	 81.2288
| 10> C 	 -42.7211 	 11.9717 	 82.0992
| 11> C 	 -42.3519 	 13.2271 	 81.6599
| 12> H 	 -42.2907 	 11.6647 	 83.0158
| 13> C 	 -43.9348 	 9.74849 	 81.5064
| 14> H 	 -42.9841 	 9.3512 	 81.8178
| 15> H 	 -44.3467 	 9.3233 	 80.5894
| 16> C 	 -44.8895 	 9.50513 	 82.6101
| 17> H 	 -44.8392 	 8.41304 	 82.6016
| 18> H 	 -44.5073 	 9.89109 	 83.5783
| 19> C 	 -46.3314 	 10.0317 	 82.3123
| 20> H 	 -46.9685 	 9.24464 	 81.917
| 21> H 	 -46.8427 	 10.4485 	 83.2532
| 22> H 	 -46.3067 	 10.8917 	 81.598
| 23> S 	 -42.1329 	 15.7857 	 82.723
| 24> C 	 -40.6613 	 16.3318 	 83.5102
| 25> C 	 -39.7834 	 15.257 	 83.5382
| 26> C 	 -40.2374 	 14.0513 	 82.9202
| 27> C 	 -41.4925 	 14.2163 	 82.3015
| 28> H 	 -38.8587 	 15.3297 	 84.0506
| 29> C 	 -39.359 	 12.9148 	 82.7382
| 30> H 	 -39.8102 	 12.1687 	 82.0856
| 31> H 	 -39.0302 	 12.3774 	 83.6457
| 32> C 	 -38.0439 	 13.3529 	 81.9686
| 33> H 	 -38.3537 	 14.0385 	 81.187
| 34> H 	 -37.6293 	 12.4284 	 81.5681
| 35> C 	 -36.9757 	 13.873 	 82.8947
| 36> H 	 -36.9705 	 14.9911 	 82.9877
| 37> H 	 -36.0448 	 13.6842 	 82.4271
| 38> H 	 -36.898 	 13.4005 	 83.7906
| 39> H 	 -44.665 	 11.5518 	 79.3589
| 40> H 	 -40.5816 	 17.2791 	 84.0829
| 41> *
| 42>
| 43>                          ****END OF INPUT****

CARTESIAN COORDINATES (ANGSTROEM)
---------------------------------
  S    -43.398000   13.594900   80.275200
  C    -43.955000   11.920600   80.133000
  C    -43.572000   11.148300   81.228800
  C    -42.721100   11.971700   82.099200
  C    -42.351900   13.227100   81.659900
  H    -42.290700   11.664700   83.015800
  C    -43.934800    9.748490   81.506400
  H    -42.984100    9.351200   81.817800
  H    -44.346700    9.323300   80.589400
  C    -44.889500    9.505130   82.610100
  H    -44.839200    8.413040   82.601600
  H    -44.507300    9.891090   83.578300
  C    -46.331400   10.031700   82.312300
  H    -46.968500    9.244640   81.917000
  H    -46.842700   10.448500   83.253200
  H    -46.306700   10.891700   81.598000
  S    -42.132900   15.785700   82.723000
  C    -40.661300   16.331800   83.510200
  C    -39.783400   15.257000   83.538200
  C    -40.237400   14.051300   82.920200
  C    -41.492500   14.216300   82.301500
  H    -38.858700   15.329700   84.050600
  C    -39.359000   12.914800   82.738200
  H    -39.810200   12.168700   82.085600
  H    -39.030200   12.377400   83.645700
  C    -38.043900   13.352900   81.968600
  H    -38.353700   14.038500   81.187000
  H    -37.629300   12.428400   81.568100
  C    -36.975700   13.873000   82.894700
  H    -36.970500   14.991100   82.987700
  H    -36.044800   13.684200   82.427100
  H    -36.898000   13.400500   83.790600
  H    -44.665000   11.551800   79.358900
  H    -40.581600   17.279100   84.082900

 Total Charge           Charge          ....    0
 Multiplicity           Mult            ....    1
 Number of Electrons    NEL             ....  134
 Basis Dimension        Dim             ....  322

ORBITAL ENERGIES
----------------

  NO   OCC          E(Eh)            E(eV)
   0   2.0000     -88.963915     -2420.8312
   1   2.0000     -88.961545     -2420.7667
   2   2.0000     -10.332425      -281.1596
   3   2.0000     -10.330108      -281.0965
   4   2.0000     -10.323500      -280.9167
   5   2.0000     -10.319470      -280.8070
   6   2.0000     -10.303078      -280.3610
   7   2.0000     -10.301652      -280.3222
   8   2.0000     -10.294358      -280.1237
   9   2.0000     -10.291470      -280.0451
  10   2.0000     -10.289483      -279.9911
  11   2.0000     -10.288204      -279.9563
  12   2.0000     -10.286231      -279.9026
  13   2.0000     -10.285965      -279.8953
  14   2.0000     -10.283995      -279.8417
  15   2.0000     -10.267859      -279.4027
  16   2.0000      -8.078626      -219.8306
  17   2.0000      -8.075724      -219.7516
  18   2.0000      -6.037126      -164.2785
  19   2.0000      -6.034381      -164.2039
  20   2.0000      -6.033010      -164.1665
  21   2.0000      -6.030422      -164.0961
  22   2.0000      -6.029508      -164.0712
  23   2.0000      -6.026235      -163.9822
  24   2.0000      -1.003631       -27.3102
  25   2.0000      -0.981012       -26.6947
  26   2.0000      -0.923443       -25.1282
  27   2.0000      -0.913742       -24.8642
  28   2.0000      -0.868882       -23.6435
  29   2.0000      -0.851856       -23.1802
  30   2.0000      -0.837781       -22.7972
  31   2.0000      -0.814907       -22.1748
  32   2.0000      -0.784297       -21.3418
  33   2.0000      -0.774771       -21.0826
  34   2.0000      -0.709514       -19.3069
  35   2.0000      -0.696852       -18.9623
  36   2.0000      -0.692720       -18.8499
  37   2.0000      -0.660494       -17.9730
  38   2.0000      -0.638109       -17.3638
  39   2.0000      -0.621745       -16.9185
  40   2.0000      -0.605052       -16.4643
  41   2.0000      -0.571706       -15.5569
  42   2.0000      -0.559698       -15.2302
  43   2.0000      -0.554267       -15.0824
  44   2.0000      -0.540508       -14.7080
  45   2.0000      -0.534533       -14.5454
  46   2.0000      -0.520715       -14.1694
  47   2.0000      -0.515903       -14.0384
  48   2.0000      -0.506264       -13.7762
  49   2.0000      -0.495992       -13.4966
  50   2.0000      -0.489195       -13.3117
  51   2.0000      -0.484441       -13.1823
  52   2.0000      -0.477414       -12.9911
  53   2.0000      -0.465676       -12.6717
  54   2.0000      -0.459230       -12.4963
  55   2.0000      -0.443942       -12.0803
  56   2.0000      -0.438250       -11.9254
  57   2.0000      -0.433930       -11.8078
  58   2.0000      -0.428997       -11.6736
  59   2.0000      -0.424544       -11.5524
  60   2.0000      -0.421350       -11.4655
  61   2.0000      -0.413221       -11.2443
  62   2.0000      -0.409557       -11.1446
  63   2.0000      -0.350198        -9.5294
  64   2.0000      -0.325416        -8.8550
  65   2.0000      -0.321615        -8.7516
  66   2.0000      -0.291812        -7.9406
  67   0.0000       0.026635         0.7248
  68   0.0000       0.068998         1.8775
  69   0.0000       0.110766         3.0141
  70   0.0000       0.121445         3.3047
  71   0.0000       0.128333         3.4921

MULLIKEN ATOMIC CHARGES
-----------------------
   0 S :    0.088795
   1 C :   -0.128850
   2 C :   -0.108364
   3 C :    0.045786
   4 C :   -0.159406
   5 H :   -0.007782
   6 C :    0.083670
   7 H :    0.024864
   8 H :    0.020821
   9 C :   -0.057111
  10 H :    0.034989
  11 H :    0.035817
  12 C :   -0.095062
  13 H :    0.039817
  14 H :    0.048489
  15 H :    0.043187
  16 S :    0.098646
  17 C :   -0.102231
  18 C :   -0.024838
  19 C :   -0.027192
  20 C :   -0.132140
  21 H :    0.008587
  22 C :    0.032243
  23 H :    0.026626
  24 H :    0.031096
  25 C :   -0.087318
  26 H :    0.045568
  27 H :    0.026099
  28 C :   -0.008388
  29 H :    0.041234
  30 H :    0.013124
  31 H :    0.006374
  32 H :    0.062602
  33 H :    0.080251
Sum of atomic charges:    0.0000000

LOEWDIN ATOMIC CHARGES
----------------------
   0 S :    0.377047
   1 C :   -0.197567
   2 C :   -0.063287
   3 C :   -0.055830
   4 C :   -0.186324
   5 H :    0.019677
   6 C :   -0.035025
   7 H :    0.035640
   8 H :    0.033213
   9 C :   -0.040742
  10 H :    0.029675
  11 H :    0.026557
  12 C :   -0.078227
  13 H :    0.025032
  14 H :    0.037791
  15 H :    0.028626
  16 S :    0.407143
  17 C :   -0.189061
  18 C :   -0.066983
  19 C :   -0.058894
  20 C :   -0.202356
  21 H :    0.024946
  22 C :   -0.039384
  23 H :    0.030654
  24 H :    0.031199
  25 C :   -0.027024
  26 H :    0.029158
  27 H :    0.024707
  28 C :   -0.065282
  29 H :    0.031684
  30 H :    0.024681
  31 H :    0.010384
  32 H :    0.035703
  33 H :    0.042466

  Mayer bond orders larger than 0.100000
B(  0-S ,  1-C ) :   1.1302 B(  0-S ,  4-C ) :   1.1242 B(  1-C ,  2-C ) :   1.6183
B(  1-C , 32-H ) :   0.9594 B(  2-C ,  3-C ) :   1.2044 B(  2-C ,  6-C ) :   1.0348
B(  3-C ,  4-C ) :   1.6008 B(  3-C ,  5-H ) :   0.9945 B(  4-C , 20-C ) :   1.0480
B(  6-C ,  7-H ) :   0.9254 B(  6-C ,  8-H ) :   0.9379 B(  6-C ,  9-C ) :   1.0852
B(  9-C , 10-H ) :   0.9601 B(  9-C , 11-H ) :   0.9576 B(  9-C , 12-C ) :   1.0462
B( 12-C , 13-H ) :   0.9764 B( 12-C , 14-H ) :   0.9776 B( 12-C , 15-H ) :   0.9805
B( 16-S , 17-C ) :   1.1574 B( 16-S , 20-C ) :   1.1547 B( 17-C , 18-C ) :   1.5729
B( 17-C , 20-C ) :   0.1009 B( 17-C , 33-H ) :   0.9657 B( 18-C , 19-C ) :   1.2645
B( 18-C , 21-H ) :   0.9884 B( 19-C , 20-C ) :   1.5439 B( 19-C , 22-C ) :   1.0875
B( 22-C , 23-H ) :   0.9322 B( 22-C , 24-H ) :   0.9264 B( 22-C , 25-C ) :   1.0668
B( 25-C , 26-H ) :   0.9572 B( 25-C , 27-H ) :   0.9596 B( 25-C , 28-C ) :   1.0816
B( 28-C , 29-H ) :   0.9678 B( 28-C , 30-H ) :   0.9655 B( 28-C , 31-H ) :   0.9705

Dispersion correction           -0.014223366
FINAL SINGLE POINT ENERGY     -1339.864614739625

DIPOLE MOMENT
-------------
                                X             Y             Z
Electronic contribution:     -7.03139      18.41777      -5.61740
Nuclear contribution   :      7.38956     -19.04185       6.00219
                        -----------------------------------------
Total Dipole Moment    :      0.35817      -0.62407       0.38479
                        -----------------------------------------
Magnitude (a.u.)       :      0.81597
Magnitude (Debye)      :      2.07404

Rotational constants in cm-1:     0.022583     0.007452     0.006525
Rotational constants in MHz :   677.011292   223.410718   195.607372

                             ****ORCA TERMINATED NORMALLY****
TOTAL RUN TIME: 0 days 0 hours 0 minutes 30 seconds 568 msec
