                         Program Version 4.2.1 -  RELEASE  -
|  1> ! wB97X-D3 SP def2-SVP
|  2> %pal
|  3> nprocs 16
|  4> end
|  5>
|  6> * xyz 0 1
|  7> S 	 60.8844 	 4.60262 	 75.6647
|  8> C 	 60.3657 	 5.18832 	 77.2536
|  9> C 	 58.9579 	 5.5287 	 77.1914
| 10> C 	 58.4268 	 5.2632 	 75.8811
| 11> C 	 59.2724 	 4.55591 	 75.0761
| 12> H 	 57.39 	 5.40732 	 75.5458
| 13> C 	 58.1419 	 6.26733 	 78.2852
| 14> H 	 58.834 	 6.60454 	 79.1092
| 15> H 	 57.434 	 5.56297 	 78.6842
| 16> C 	 57.5107 	 7.5654 	 77.6859
| 17> H 	 58.2553 	 8.26603 	 77.3041
| 18> H 	 56.8855 	 7.35644 	 76.7629
| 19> C 	 56.523 	 8.26732 	 78.6687
| 20> H 	 55.9504 	 7.52857 	 79.2879
| 21> H 	 57.1201 	 8.89186 	 79.3136
| 22> H 	 55.8486 	 8.90886 	 78.1171
| 23> S 	 59.4332 	 2.54797 	 73.199
| 24> C 	 58.9088 	 2.77261 	 71.5399
| 25> C 	 58.4537 	 4.05737 	 71.4742
| 26> C 	 58.4999 	 4.88964 	 72.6636
| 27> C 	 59.0224 	 4.14876 	 73.6751
| 28> H 	 58.0914 	 4.36803 	 70.5222
| 29> C 	 58.0349 	 6.31617 	 72.6733
| 30> H 	 58.5097 	 6.81984 	 71.8286
| 31> H 	 58.4966 	 6.88072 	 73.523
| 32> C 	 56.499 	 6.64178 	 72.7531
| 33> H 	 56.3851 	 7.69566 	 72.7174
| 34> H 	 56.1909 	 6.15952 	 73.6508
| 35> C 	 55.5606 	 6.16736 	 71.6345
| 36> H 	 55.9068 	 6.21458 	 70.583
| 37> H 	 54.6233 	 6.72083 	 71.4806
| 38> H 	 55.2424 	 5.09724 	 71.7468
| 39> H 	 61.0552 	 5.30185 	 78.1068
| 40> H 	 58.9088 	 2.07587 	 70.6561
| 41> *
| 42>
| 43>                          ****END OF INPUT****

CARTESIAN COORDINATES (ANGSTROEM)
---------------------------------
  S     60.884400    4.602620   75.664700
  C     60.365700    5.188320   77.253600
  C     58.957900    5.528700   77.191400
  C     58.426800    5.263200   75.881100
  C     59.272400    4.555910   75.076100
  H     57.390000    5.407320   75.545800
  C     58.141900    6.267330   78.285200
  H     58.834000    6.604540   79.109200
  H     57.434000    5.562970   78.684200
  C     57.510700    7.565400   77.685900
  H     58.255300    8.266030   77.304100
  H     56.885500    7.356440   76.762900
  C     56.523000    8.267320   78.668700
  H     55.950400    7.528570   79.287900
  H     57.120100    8.891860   79.313600
  H     55.848600    8.908860   78.117100
  S     59.433200    2.547970   73.199000
  C     58.908800    2.772610   71.539900
  C     58.453700    4.057370   71.474200
  C     58.499900    4.889640   72.663600
  C     59.022400    4.148760   73.675100
  H     58.091400    4.368030   70.522200
  C     58.034900    6.316170   72.673300
  H     58.509700    6.819840   71.828600
  H     58.496600    6.880720   73.523000
  C     56.499000    6.641780   72.753100
  H     56.385100    7.695660   72.717400
  H     56.190900    6.159520   73.650800
  C     55.560600    6.167360   71.634500
  H     55.906800    6.214580   70.583000
  H     54.623300    6.720830   71.480600
  H     55.242400    5.097240   71.746800
  H     61.055200    5.301850   78.106800
  H     58.908800    2.075870   70.656100

 Total Charge           Charge          ....    0
 Multiplicity           Mult            ....    1
 Number of Electrons    NEL             ....  134
 Basis Dimension        Dim             ....  322

ORBITAL ENERGIES
----------------

  NO   OCC          E(Eh)            E(eV)
   0   2.0000     -88.965526     -2420.8750
   1   2.0000     -88.962099     -2420.7818
   2   2.0000     -10.324886      -280.9544
   3   2.0000     -10.323886      -280.9272
   4   2.0000     -10.323829      -280.9257
   5   2.0000     -10.319392      -280.8049
   6   2.0000     -10.312775      -280.6249
   7   2.0000     -10.302877      -280.3555
   8   2.0000     -10.301374      -280.3146
   9   2.0000     -10.296966      -280.1947
  10   2.0000     -10.295503      -280.1549
  11   2.0000     -10.295024      -280.1419
  12   2.0000     -10.290773      -280.0262
  13   2.0000     -10.289030      -279.9787
  14   2.0000     -10.282002      -279.7875
  15   2.0000     -10.281859      -279.7836
  16   2.0000      -8.080418      -219.8793
  17   2.0000      -8.077378      -219.7966
  18   2.0000      -6.038872      -164.3261
  19   2.0000      -6.036030      -164.2487
  20   2.0000      -6.034893      -164.2178
  21   2.0000      -6.031662      -164.1299
  22   2.0000      -6.031228      -164.1180
  23   2.0000      -6.028076      -164.0323
  24   2.0000      -1.010343       -27.4928
  25   2.0000      -0.983735       -26.7688
  26   2.0000      -0.905695       -24.6452
  27   2.0000      -0.904520       -24.6132
  28   2.0000      -0.865910       -23.5626
  29   2.0000      -0.849475       -23.1154
  30   2.0000      -0.842413       -22.9232
  31   2.0000      -0.815167       -22.1818
  32   2.0000      -0.783552       -21.3215
  33   2.0000      -0.771383       -20.9904
  34   2.0000      -0.707681       -19.2570
  35   2.0000      -0.699243       -19.0274
  36   2.0000      -0.687001       -18.6942
  37   2.0000      -0.658712       -17.9245
  38   2.0000      -0.641764       -17.4633
  39   2.0000      -0.618048       -16.8179
  40   2.0000      -0.595464       -16.2034
  41   2.0000      -0.563513       -15.3340
  42   2.0000      -0.562288       -15.3006
  43   2.0000      -0.556977       -15.1561
  44   2.0000      -0.533807       -14.5256
  45   2.0000      -0.526337       -14.3224
  46   2.0000      -0.514203       -13.9922
  47   2.0000      -0.504273       -13.7220
  48   2.0000      -0.503523       -13.7015
  49   2.0000      -0.500409       -13.6168
  50   2.0000      -0.493955       -13.4412
  51   2.0000      -0.481662       -13.1067
  52   2.0000      -0.472178       -12.8486
  53   2.0000      -0.463795       -12.6205
  54   2.0000      -0.460921       -12.5423
  55   2.0000      -0.449027       -12.2186
  56   2.0000      -0.445570       -12.1246
  57   2.0000      -0.436273       -11.8716
  58   2.0000      -0.426890       -11.6163
  59   2.0000      -0.420329       -11.4377
  60   2.0000      -0.418681       -11.3929
  61   2.0000      -0.414679       -11.2840
  62   2.0000      -0.412931       -11.2364
  63   2.0000      -0.343454        -9.3458
  64   2.0000      -0.330893        -9.0040
  65   2.0000      -0.325587        -8.8597
  66   2.0000      -0.299059        -8.1378
  67   0.0000       0.034979         0.9518
  68   0.0000       0.073696         2.0054
  69   0.0000       0.110249         3.0000
  70   0.0000       0.122505         3.3335
  71   0.0000       0.128501         3.4967

MULLIKEN ATOMIC CHARGES
-----------------------
   0 S :    0.114275
   1 C :   -0.139541
   2 C :   -0.091601
   3 C :   -0.009063
   4 C :   -0.119086
   5 H :    0.022006
   6 C :    0.085248
   7 H :    0.034260
   8 H :    0.041363
   9 C :   -0.146225
  10 H :    0.040950
  11 H :    0.034485
  12 C :   -0.031909
  13 H :    0.039432
  14 H :    0.028272
  15 H :    0.032709
  16 S :    0.106229
  17 C :   -0.105725
  18 C :   -0.036322
  19 C :    0.000108
  20 C :   -0.183180
  21 H :   -0.001299
  22 C :    0.030133
  23 H :    0.026337
  24 H :    0.037093
  25 C :    0.002756
  26 H :    0.031820
  27 H :    0.022639
  28 C :   -0.103239
  29 H :    0.022953
  30 H :    0.031133
  31 H :    0.039408
  32 H :    0.064450
  33 H :    0.079130
Sum of atomic charges:   -0.0000000

LOEWDIN ATOMIC CHARGES
----------------------
   0 S :    0.417853
   1 C :   -0.205701
   2 C :   -0.055535
   3 C :   -0.071862
   4 C :   -0.201631
   5 H :    0.032745
   6 C :   -0.028538
   7 H :    0.036327
   8 H :    0.030005
   9 C :   -0.046344
  10 H :    0.027150
  11 H :    0.024369
  12 C :   -0.064733
  13 H :    0.030283
  14 H :    0.021154
  15 H :    0.024675
  16 S :    0.411258
  17 C :   -0.199973
  18 C :   -0.066525
  19 C :   -0.064597
  20 C :   -0.205845
  21 H :    0.020833
  22 C :   -0.036011
  23 H :    0.032038
  24 H :    0.039876
  25 C :   -0.027647
  26 H :    0.026300
  27 H :    0.021110
  28 C :   -0.086606
  29 H :    0.024402
  30 H :    0.028610
  31 H :    0.029514
  32 H :    0.032565
  33 H :    0.050479

  Mayer bond orders larger than 0.100000
B(  0-S ,  1-C ) :   1.1473 B(  0-S ,  4-C ) :   1.1808 B(  1-C ,  2-C ) :   1.5726
B(  1-C ,  4-C ) :   0.1062 B(  1-C , 32-H ) :   0.9705 B(  2-C ,  3-C ) :   1.2468
B(  2-C ,  6-C ) :   1.0201 B(  3-C ,  4-C ) :   1.5769 B(  3-C ,  5-H ) :   0.9909
B(  4-C , 20-C ) :   0.9895 B(  6-C ,  7-H ) :   0.9489 B(  6-C ,  8-H ) :   0.9379
B(  6-C ,  9-C ) :   1.0546 B(  9-C , 10-H ) :   0.9597 B(  9-C , 11-H ) :   0.9591
B(  9-C , 12-C ) :   1.0698 B( 12-C , 13-H ) :   0.9766 B( 12-C , 14-H ) :   0.9781
B( 12-C , 15-H ) :   0.9772 B( 16-S , 17-C ) :   1.1260 B( 16-S , 20-C ) :   1.1559
B( 17-C , 18-C ) :   1.6409 B( 17-C , 33-H ) :   0.9626 B( 18-C , 19-C ) :   1.2132
B( 18-C , 21-H ) :   0.9894 B( 19-C , 20-C ) :   1.6056 B( 19-C , 22-C ) :   1.0483
B( 22-C , 23-H ) :   0.9314 B( 22-C , 24-H ) :   0.9295 B( 22-C , 25-C ) :   1.0753
B( 25-C , 26-H ) :   0.9551 B( 25-C , 27-H ) :   0.9521 B( 25-C , 28-C ) :   1.0726
B( 28-C , 29-H ) :   0.9737 B( 28-C , 30-H ) :   0.9745 B( 28-C , 31-H ) :   0.9754

Dispersion correction           -0.014677622
FINAL SINGLE POINT ENERGY     -1339.873802709641

DIPOLE MOMENT
-------------
                                X             Y             Z
Electronic contribution:     21.91641     -21.94108      -4.47911
Nuclear contribution   :    -22.38959      22.57304       4.41952
                        -----------------------------------------
Total Dipole Moment    :     -0.47318       0.63196      -0.05959
                        -----------------------------------------
Magnitude (a.u.)       :      0.79172
Magnitude (Debye)      :      2.01240

Rotational constants in cm-1:     0.017634     0.009443     0.006588
Rotational constants in MHz :   528.648297   283.089122   197.517253

                             ****ORCA TERMINATED NORMALLY****
TOTAL RUN TIME: 0 days 0 hours 0 minutes 30 seconds 855 msec
