                         Program Version 4.2.1 -  RELEASE  -
|  1> ! wB97X-D3 SP def2-SVP
|  2> %pal
|  3> nprocs 16
|  4> end
|  5>
|  6> * xyz 0 1
|  7> S 	 0.993898 	 -26.7493 	 85.7024
|  8> C 	 1.43312 	 -27.284 	 84.0568
|  9> C 	 2.79633 	 -27.3297 	 83.8984
| 10> C 	 3.53432 	 -26.8787 	 85.0712
| 11> C 	 2.66683 	 -26.4317 	 86.0243
| 12> H 	 4.5923 	 -26.7202 	 85.1204
| 13> C 	 3.5348 	 -27.764 	 82.6769
| 14> H 	 4.61739 	 -27.5048 	 82.7673
| 15> H 	 3.1943 	 -27.1447 	 81.8748
| 16> C 	 3.31407 	 -29.2488 	 82.2887
| 17> H 	 3.48484 	 -29.9166 	 83.1359
| 18> H 	 2.20068 	 -29.299 	 82.0504
| 19> C 	 4.07771 	 -29.585 	 80.9578
| 20> H 	 3.65457 	 -29.012 	 80.2238
| 21> H 	 5.14151 	 -29.3415 	 81.1112
| 22> H 	 3.92849 	 -30.6309 	 80.6195
| 23> S 	 4.69446 	 -26.4293 	 87.9669
| 24> C 	 4.69722 	 -25.1309 	 89.1514
| 25> C 	 3.42528 	 -24.5647 	 89.1847
| 26> C 	 2.57171 	 -24.8672 	 88.1192
| 27> C 	 3.08435 	 -25.8694 	 87.3194
| 28> H 	 3.22917 	 -23.7967 	 89.9388
| 29> C 	 1.19458 	 -24.1596 	 87.9636
| 30> H 	 1.04806 	 -23.6435 	 88.8848
| 31> H 	 0.555575 	 -25.0056 	 87.9981
| 32> C 	 0.974301 	 -23.2232 	 86.7638
| 33> H 	 0.0210206 	 -22.6613 	 86.9612
| 34> H 	 0.662317 	 -23.7892 	 85.8874
| 35> C 	 2.09589 	 -22.2654 	 86.4921
| 36> H 	 2.90959 	 -22.8586 	 86.0702
| 37> H 	 2.37524 	 -21.6149 	 87.3775
| 38> H 	 1.79558 	 -21.5988 	 85.7071
| 39> H 	 0.717572 	 -27.6568 	 83.3142
| 40> H 	 5.38327 	 -24.961 	 89.9421
| 41> *
| 42>
| 43>                          ****END OF INPUT****

CARTESIAN COORDINATES (ANGSTROEM)
---------------------------------
  S      0.993898  -26.749300   85.702400
  C      1.433120  -27.284000   84.056800
  C      2.796330  -27.329700   83.898400
  C      3.534320  -26.878700   85.071200
  C      2.666830  -26.431700   86.024300
  H      4.592300  -26.720200   85.120400
  C      3.534800  -27.764000   82.676900
  H      4.617390  -27.504800   82.767300
  H      3.194300  -27.144700   81.874800
  C      3.314070  -29.248800   82.288700
  H      3.484840  -29.916600   83.135900
  H      2.200680  -29.299000   82.050400
  C      4.077710  -29.585000   80.957800
  H      3.654570  -29.012000   80.223800
  H      5.141510  -29.341500   81.111200
  H      3.928490  -30.630900   80.619500
  S      4.694460  -26.429300   87.966900
  C      4.697220  -25.130900   89.151400
  C      3.425280  -24.564700   89.184700
  C      2.571710  -24.867200   88.119200
  C      3.084350  -25.869400   87.319400
  H      3.229170  -23.796700   89.938800
  C      1.194580  -24.159600   87.963600
  H      1.048060  -23.643500   88.884800
  H      0.555575  -25.005600   87.998100
  C      0.974301  -23.223200   86.763800
  H      0.021021  -22.661300   86.961200
  H      0.662317  -23.789200   85.887400
  C      2.095890  -22.265400   86.492100
  H      2.909590  -22.858600   86.070200
  H      2.375240  -21.614900   87.377500
  H      1.795580  -21.598800   85.707100
  H      0.717572  -27.656800   83.314200
  H      5.383270  -24.961000   89.942100

 Total Charge           Charge          ....    0
 Multiplicity           Mult            ....    1
 Number of Electrons    NEL             ....  134
 Basis Dimension        Dim             ....  322

ORBITAL ENERGIES
----------------

  NO   OCC          E(Eh)            E(eV)
   0   2.0000     -88.969347     -2420.9790
   1   2.0000     -88.965537     -2420.8753
   2   2.0000     -10.330072      -281.0955
   3   2.0000     -10.329512      -281.0803
   4   2.0000     -10.315962      -280.7116
   5   2.0000     -10.315951      -280.7113
   6   2.0000     -10.301702      -280.3236
   7   2.0000     -10.300914      -280.3021
   8   2.0000     -10.295181      -280.1461
   9   2.0000     -10.291862      -280.0558
  10   2.0000     -10.290860      -280.0285
  11   2.0000     -10.290664      -280.0232
  12   2.0000     -10.287841      -279.9464
  13   2.0000     -10.283391      -279.8253
  14   2.0000     -10.278880      -279.7025
  15   2.0000     -10.273615      -279.5593
  16   2.0000      -8.083422      -219.9611
  17   2.0000      -8.078762      -219.8343
  18   2.0000      -6.042054      -164.4126
  19   2.0000      -6.038173      -164.3070
  20   2.0000      -6.037373      -164.2853
  21   2.0000      -6.033953      -164.1922
  22   2.0000      -6.033508      -164.1801
  23   2.0000      -6.029484      -164.0706
  24   2.0000      -1.004214       -27.3261
  25   2.0000      -0.980385       -26.6776
  26   2.0000      -0.911254       -24.7965
  27   2.0000      -0.905474       -24.6392
  28   2.0000      -0.864530       -23.5251
  29   2.0000      -0.852518       -23.1982
  30   2.0000      -0.845549       -23.0086
  31   2.0000      -0.809298       -22.0221
  32   2.0000      -0.785645       -21.3785
  33   2.0000      -0.773505       -21.0481
  34   2.0000      -0.706407       -19.2223
  35   2.0000      -0.703438       -19.1415
  36   2.0000      -0.687287       -18.7020
  37   2.0000      -0.664368       -18.0784
  38   2.0000      -0.637853       -17.3569
  39   2.0000      -0.611664       -16.6442
  40   2.0000      -0.582005       -15.8372
  41   2.0000      -0.568527       -15.4704
  42   2.0000      -0.560271       -15.2457
  43   2.0000      -0.556858       -15.1529
  44   2.0000      -0.548532       -14.9263
  45   2.0000      -0.519719       -14.1423
  46   2.0000      -0.516382       -14.0515
  47   2.0000      -0.513822       -13.9818
  48   2.0000      -0.505471       -13.7546
  49   2.0000      -0.494352       -13.4520
  50   2.0000      -0.486217       -13.2306
  51   2.0000      -0.479436       -13.0461
  52   2.0000      -0.474468       -12.9109
  53   2.0000      -0.463576       -12.6146
  54   2.0000      -0.461185       -12.5495
  55   2.0000      -0.447567       -12.1789
  56   2.0000      -0.441449       -12.0124
  57   2.0000      -0.437364       -11.9013
  58   2.0000      -0.429402       -11.6846
  59   2.0000      -0.425194       -11.5701
  60   2.0000      -0.422508       -11.4970
  61   2.0000      -0.417198       -11.3525
  62   2.0000      -0.402736       -10.9590
  63   2.0000      -0.352824        -9.6008
  64   2.0000      -0.332018        -9.0347
  65   2.0000      -0.331187        -9.0121
  66   2.0000      -0.286505        -7.7962
  67   0.0000       0.019685         0.5357
  68   0.0000       0.079994         2.1767
  69   0.0000       0.102920         2.8006
  70   0.0000       0.106290         2.8923
  71   0.0000       0.131494         3.5781

MULLIKEN ATOMIC CHARGES
-----------------------
   0 S :    0.096944
   1 C :   -0.134551
   2 C :   -0.067727
   3 C :   -0.008218
   4 C :   -0.103602
   5 H :    0.019052
   6 C :    0.054046
   7 H :    0.022063
   8 H :    0.025531
   9 C :   -0.119015
  10 H :    0.044457
  11 H :    0.030544
  12 C :   -0.011151
  13 H :    0.010238
  14 H :    0.039273
  15 H :    0.041682
  16 S :    0.088172
  17 C :   -0.077449
  18 C :   -0.052808
  19 C :   -0.078971
  20 C :   -0.143908
  21 H :    0.020460
  22 C :    0.116109
  23 H :    0.003903
  24 H :    0.027251
  25 C :   -0.071443
  26 H :    0.025588
  27 H :    0.024667
  28 C :   -0.037648
  29 H :    0.047143
  30 H :    0.041541
  31 H :    0.025634
  32 H :    0.053517
  33 H :    0.048676
Sum of atomic charges:   -0.0000000

LOEWDIN ATOMIC CHARGES
----------------------
   0 S :    0.405003
   1 C :   -0.195770
   2 C :   -0.053542
   3 C :   -0.069159
   4 C :   -0.184352
   5 H :    0.027451
   6 C :   -0.038326
   7 H :    0.029985
   8 H :    0.030060
   9 C :   -0.037424
  10 H :    0.023790
  11 H :    0.026652
  12 C :   -0.059294
  13 H :    0.012391
  14 H :    0.028274
  15 H :    0.031653
  16 S :    0.377633
  17 C :   -0.179902
  18 C :   -0.073830
  19 C :   -0.060448
  20 C :   -0.172486
  21 H :    0.030174
  22 C :   -0.024160
  23 H :    0.025761
  24 H :    0.024158
  25 C :   -0.048449
  26 H :    0.028064
  27 H :    0.018201
  28 C :   -0.067466
  29 H :    0.031887
  30 H :    0.032741
  31 H :    0.024530
  32 H :    0.030818
  33 H :    0.025384

  Mayer bond orders larger than 0.100000
B(  0-S ,  1-C ) :   1.1008 B(  0-S ,  4-C ) :   1.1499 B(  1-C ,  2-C ) :   1.6475
B(  1-C , 32-H ) :   0.9668 B(  2-C ,  3-C ) :   1.2103 B(  2-C ,  6-C ) :   1.0236
B(  3-C ,  4-C ) :   1.5870 B(  3-C ,  5-H ) :   0.9910 B(  4-C , 20-C ) :   1.0490
B(  6-C ,  7-H ) :   0.9441 B(  6-C ,  8-H ) :   0.9345 B(  6-C ,  9-C ) :   1.0495
B(  9-C , 10-H ) :   0.9645 B(  9-C , 11-H ) :   0.9568 B(  9-C , 12-C ) :   1.0673
B( 12-C , 13-H ) :   0.9737 B( 12-C , 14-H ) :   0.9770 B( 12-C , 15-H ) :   0.9750
B( 16-S , 17-C ) :   1.1453 B( 16-S , 20-C ) :   1.1272 B( 17-C , 18-C ) :   1.6133
B( 17-C , 20-C ) :   0.1032 B( 17-C , 33-H ) :   0.9665 B( 18-C , 19-C ) :   1.2661
B( 18-C , 21-H ) :   0.9765 B( 19-C , 20-C ) :   1.5811 B( 19-C , 22-C ) :   1.0005
B( 22-C , 23-H ) :   0.9298 B( 22-C , 24-H ) :   0.9376 B( 22-C , 25-C ) :   1.0700
B( 25-C , 26-H ) :   0.9521 B( 25-C , 27-H ) :   0.9471 B( 25-C , 28-C ) :   1.0887
B( 28-C , 29-H ) :   0.9666 B( 28-C , 30-H ) :   0.9746 B( 28-C , 31-H ) :   0.9694

Dispersion correction           -0.014648157
FINAL SINGLE POINT ENERGY     -1339.878597034996

DIPOLE MOMENT
-------------
                                X             Y             Z
Electronic contribution:      1.06628      -3.59654      16.63785
Nuclear contribution   :     -1.12819       3.79425     -16.94216
                        -----------------------------------------
Total Dipole Moment    :     -0.06191       0.19771      -0.30431
                        -----------------------------------------
Magnitude (a.u.)       :      0.36814
Magnitude (Debye)      :      0.93573

Rotational constants in cm-1:     0.022939     0.007738     0.006534
Rotational constants in MHz :   687.693747   231.992109   195.871676

                             ****ORCA TERMINATED NORMALLY****
TOTAL RUN TIME: 0 days 0 hours 0 minutes 33 seconds 439 msec
