                         Program Version 4.2.1 -  RELEASE  -
|  1> ! wB97X-D3 SP def2-SVP
|  2> %pal
|  3> nprocs 16
|  4> end
|  5>
|  6> * xyz 0 1
|  7> S 	 18.8539 	 32.7922 	 63.2486
|  8> C 	 19.0162 	 33.3943 	 61.612
|  9> C 	 17.8181 	 33.8047 	 61.0097
| 10> C 	 16.6913 	 33.438 	 61.831
| 11> C 	 17.0994 	 33.0532 	 63.1299
| 12> H 	 15.6321 	 33.5811 	 61.4977
| 13> C 	 17.7684 	 34.4515 	 59.5932
| 14> H 	 16.829 	 34.9411 	 59.4759
| 15> H 	 17.6985 	 33.6837 	 58.8794
| 16> C 	 18.784 	 35.5829 	 59.3128
| 17> H 	 19.7944 	 35.2383 	 59.3292
| 18> H 	 18.4597 	 35.9264 	 58.3587
| 19> C 	 18.6658 	 36.8405 	 60.261
| 20> H 	 18.6078 	 36.5524 	 61.3009
| 21> H 	 19.5408 	 37.4078 	 60.0992
| 22> H 	 17.7505 	 37.4895 	 60.1604
| 23> S 	 14.9139 	 34.19 	 64.4482
| 24> C 	 14.3447 	 33.4697 	 65.9451
| 25> C 	 14.9734 	 32.2616 	 66.1882
| 26> C 	 15.9525 	 31.9369 	 65.2011
| 27> C 	 16.1208 	 32.8909 	 64.2371
| 28> H 	 14.6678 	 31.6383 	 67.0266
| 29> C 	 16.8403 	 30.6919 	 65.4062
| 30> H 	 17.6327 	 30.6824 	 64.6629
| 31> H 	 16.2263 	 29.8608 	 65.0285
| 32> C 	 17.5336 	 30.4083 	 66.7647
| 33> H 	 17.9403 	 29.3667 	 66.8455
| 34> H 	 16.8642 	 30.5357 	 67.6024
| 35> C 	 18.6367 	 31.4888 	 67.0291
| 36> H 	 18.3291 	 32.5196 	 67.1459
| 37> H 	 19.4184 	 31.4514 	 66.1887
| 38> H 	 19.2462 	 31.3464 	 67.9974
| 39> H 	 19.9659 	 33.3167 	 61.1142
| 40> H 	 13.4908 	 33.8216 	 66.5185
| 41> *
| 42>
| 43>                          ****END OF INPUT****

CARTESIAN COORDINATES (ANGSTROEM)
---------------------------------
  S     18.853900   32.792200   63.248600
  C     19.016200   33.394300   61.612000
  C     17.818100   33.804700   61.009700
  C     16.691300   33.438000   61.831000
  C     17.099400   33.053200   63.129900
  H     15.632100   33.581100   61.497700
  C     17.768400   34.451500   59.593200
  H     16.829000   34.941100   59.475900
  H     17.698500   33.683700   58.879400
  C     18.784000   35.582900   59.312800
  H     19.794400   35.238300   59.329200
  H     18.459700   35.926400   58.358700
  C     18.665800   36.840500   60.261000
  H     18.607800   36.552400   61.300900
  H     19.540800   37.407800   60.099200
  H     17.750500   37.489500   60.160400
  S     14.913900   34.190000   64.448200
  C     14.344700   33.469700   65.945100
  C     14.973400   32.261600   66.188200
  C     15.952500   31.936900   65.201100
  C     16.120800   32.890900   64.237100
  H     14.667800   31.638300   67.026600
  C     16.840300   30.691900   65.406200
  H     17.632700   30.682400   64.662900
  H     16.226300   29.860800   65.028500
  C     17.533600   30.408300   66.764700
  H     17.940300   29.366700   66.845500
  H     16.864200   30.535700   67.602400
  C     18.636700   31.488800   67.029100
  H     18.329100   32.519600   67.145900
  H     19.418400   31.451400   66.188700
  H     19.246200   31.346400   67.997400
  H     19.965900   33.316700   61.114200
  H     13.490800   33.821600   66.518500

 Total Charge           Charge          ....    0
 Multiplicity           Mult            ....    1
 Number of Electrons    NEL             ....  134
 Basis Dimension        Dim             ....  322

ORBITAL ENERGIES
----------------

  NO   OCC          E(Eh)            E(eV)
   0   2.0000     -88.972752     -2421.0717
   1   2.0000     -88.963924     -2420.8315
   2   2.0000     -10.336825      -281.2793
   3   2.0000     -10.328056      -281.0407
   4   2.0000     -10.318982      -280.7938
   5   2.0000     -10.313453      -280.6433
   6   2.0000     -10.306481      -280.4536
   7   2.0000     -10.303305      -280.3672
   8   2.0000     -10.302650      -280.3494
   9   2.0000     -10.295579      -280.1570
  10   2.0000     -10.293813      -280.1089
  11   2.0000     -10.292654      -280.0774
  12   2.0000     -10.289699      -279.9969
  13   2.0000     -10.287932      -279.9489
  14   2.0000     -10.285083      -279.8713
  15   2.0000     -10.275169      -279.6016
  16   2.0000      -8.086179      -220.0361
  17   2.0000      -8.078026      -219.8143
  18   2.0000      -6.044676      -164.4840
  19   2.0000      -6.040978      -164.3834
  20   2.0000      -6.036936      -164.2734
  21   2.0000      -6.036582      -164.2638
  22   2.0000      -6.032673      -164.1574
  23   2.0000      -6.028712      -164.0496
  24   2.0000      -0.998909       -27.1817
  25   2.0000      -0.977816       -26.6077
  26   2.0000      -0.905489       -24.6396
  27   2.0000      -0.899365       -24.4730
  28   2.0000      -0.861831       -23.4516
  29   2.0000      -0.847123       -23.0514
  30   2.0000      -0.839921       -22.8554
  31   2.0000      -0.806567       -21.9478
  32   2.0000      -0.782666       -21.2974
  33   2.0000      -0.769647       -20.9432
  34   2.0000      -0.705842       -19.2070
  35   2.0000      -0.700263       -19.0551
  36   2.0000      -0.692331       -18.8393
  37   2.0000      -0.658907       -17.9298
  38   2.0000      -0.636254       -17.3133
  39   2.0000      -0.606783       -16.5114
  40   2.0000      -0.594782       -16.1848
  41   2.0000      -0.574473       -15.6322
  42   2.0000      -0.553614       -15.0646
  43   2.0000      -0.545865       -14.8537
  44   2.0000      -0.535067       -14.5599
  45   2.0000      -0.534820       -14.5532
  46   2.0000      -0.514682       -14.0052
  47   2.0000      -0.508752       -13.8438
  48   2.0000      -0.492884       -13.4121
  49   2.0000      -0.489773       -13.3274
  50   2.0000      -0.478614       -13.0237
  51   2.0000      -0.477540       -12.9945
  52   2.0000      -0.464395       -12.6368
  53   2.0000      -0.461256       -12.5514
  54   2.0000      -0.453656       -12.3446
  55   2.0000      -0.448739       -12.2108
  56   2.0000      -0.445349       -12.1186
  57   2.0000      -0.439950       -11.9716
  58   2.0000      -0.430568       -11.7164
  59   2.0000      -0.428492       -11.6598
  60   2.0000      -0.417474       -11.3600
  61   2.0000      -0.414925       -11.2907
  62   2.0000      -0.411376       -11.1941
  63   2.0000      -0.343651        -9.3512
  64   2.0000      -0.332059        -9.0358
  65   2.0000      -0.330143        -8.9836
  66   2.0000      -0.289093        -7.8666
  67   0.0000       0.026464         0.7201
  68   0.0000       0.071047         1.9333
  69   0.0000       0.104219         2.8359
  70   0.0000       0.109601         2.9824
  71   0.0000       0.133521         3.6333

MULLIKEN ATOMIC CHARGES
-----------------------
   0 S :    0.122521
   1 C :   -0.129431
   2 C :   -0.113129
   3 C :   -0.004408
   4 C :   -0.138757
   5 H :    0.040099
   6 C :    0.105110
   7 H :    0.000338
   8 H :    0.030758
   9 C :   -0.054471
  10 H :    0.032277
  11 H :    0.025867
  12 C :   -0.069812
  13 H :    0.040639
  14 H :    0.031411
  15 H :    0.036220
  16 S :    0.094735
  17 C :   -0.093424
  18 C :   -0.042879
  19 C :   -0.040478
  20 C :   -0.151513
  21 H :    0.026916
  22 C :    0.060215
  23 H :    0.003563
  24 H :    0.038281
  25 C :   -0.032907
  26 H :    0.046304
  27 H :    0.024888
  28 C :   -0.122132
  29 H :    0.047035
  30 H :    0.035711
  31 H :    0.038998
  32 H :    0.049674
  33 H :    0.061780
Sum of atomic charges:   -0.0000000

LOEWDIN ATOMIC CHARGES
----------------------
   0 S :    0.409053
   1 C :   -0.199617
   2 C :   -0.058408
   3 C :   -0.067946
   4 C :   -0.185426
   5 H :    0.039580
   6 C :   -0.026575
   7 H :    0.026408
   8 H :    0.026898
   9 C :   -0.027087
  10 H :    0.018356
  11 H :    0.024812
  12 C :   -0.065803
  13 H :    0.025239
  14 H :    0.021433
  15 H :    0.030657
  16 S :    0.388238
  17 C :   -0.179614
  18 C :   -0.072915
  19 C :   -0.059742
  20 C :   -0.185480
  21 H :    0.033691
  22 C :   -0.038137
  23 H :    0.017455
  24 H :    0.037742
  25 C :   -0.039101
  26 H :    0.035669
  27 H :    0.018551
  28 C :   -0.082834
  29 H :    0.024861
  30 H :    0.024690
  31 H :    0.032065
  32 H :    0.021606
  33 H :    0.031681

  Mayer bond orders larger than 0.100000
B(  0-S ,  1-C ) :   1.1382 B(  0-S ,  4-C ) :   1.1475 B(  1-C ,  2-C ) :   1.5958
B(  1-C , 32-H ) :   0.9703 B(  2-C ,  3-C ) :   1.2604 B(  2-C ,  6-C ) :   1.0034
B(  3-C ,  4-C ) :   1.5463 B(  3-C ,  5-H ) :   0.9808 B(  4-C , 20-C ) :   1.0497
B(  6-C ,  7-H ) :   0.9386 B(  6-C ,  8-H ) :   0.9389 B(  6-C ,  9-C ) :   1.0713
B(  9-C , 10-H ) :   0.9617 B(  9-C , 11-H ) :   0.9565 B(  9-C , 12-C ) :   1.0703
B( 12-C , 13-H ) :   0.9775 B( 12-C , 14-H ) :   0.9768 B( 12-C , 15-H ) :   0.9761
B( 16-S , 17-C ) :   1.1515 B( 16-S , 20-C ) :   1.1217 B( 17-C , 18-C ) :   1.6157
B( 17-C , 33-H ) :   0.9652 B( 18-C , 19-C ) :   1.2285 B( 18-C , 21-H ) :   0.9894
B( 19-C , 20-C ) :   1.6118 B( 19-C , 22-C ) :   1.0335 B( 22-C , 23-H ) :   0.9366
B( 22-C , 24-H ) :   0.9264 B( 22-C , 25-C ) :   1.0599 B( 25-C , 26-H ) :   0.9552
B( 25-C , 27-H ) :   0.9569 B( 25-C , 28-C ) :   1.0563 B( 28-C , 29-H ) :   0.9784
B( 28-C , 30-H ) :   0.9762 B( 28-C , 31-H ) :   0.9752

Dispersion correction           -0.014950289
FINAL SINGLE POINT ENERGY     -1339.873124095609

DIPOLE MOMENT
-------------
                                X             Y             Z
Electronic contribution:     -9.26596      -1.27329       3.43242
Nuclear contribution   :      9.22216       1.13788      -3.60752
                        -----------------------------------------
Total Dipole Moment    :     -0.04379      -0.13540      -0.17510
                        -----------------------------------------
Magnitude (a.u.)       :      0.22564
Magnitude (Debye)      :      0.57353

Rotational constants in cm-1:     0.023573     0.007920     0.006523
Rotational constants in MHz :   706.712257   237.439492   195.553115

                             ****ORCA TERMINATED NORMALLY****
TOTAL RUN TIME: 0 days 0 hours 0 minutes 35 seconds 571 msec
