                         Program Version 4.2.1 -  RELEASE  -
|  1> ! wB97X-D3 SP def2-SVP
|  2> %pal
|  3> nprocs 16
|  4> end
|  5>
|  6> * xyz 0 1
|  7> S 	 -96.0146 	 54.6012 	 123.912
|  8> C 	 -97.7171 	 55.0296 	 123.981
|  9> C 	 -98.4157 	 54.2529 	 124.879
| 10> C 	 -97.5952 	 53.3142 	 125.591
| 11> C 	 -96.345 	 53.2594 	 125.04
| 12> H 	 -97.93 	 52.6669 	 126.436
| 13> C 	 -99.8716 	 54.5102 	 125.211
| 14> H 	 -99.9098 	 54.9962 	 126.176
| 15> H 	 -100.198 	 53.5488 	 125.424
| 16> C 	 -100.779 	 55.4501 	 124.313
| 17> H 	 -100.358 	 56.4674 	 124.262
| 18> H 	 -100.728 	 55.0952 	 123.33
| 19> C 	 -102.247 	 55.6525 	 124.686
| 20> H 	 -102.811 	 54.8785 	 124.115
| 21> H 	 -102.438 	 55.4869 	 125.686
| 22> H 	 -102.676 	 56.5981 	 124.344
| 23> S 	 -93.7281 	 53.0113 	 125.859
| 24> C 	 -93.1262 	 51.4906 	 126.352
| 25> C 	 -94.1097 	 50.5177 	 126.357
| 26> C 	 -95.3625 	 50.988 	 125.732
| 27> C 	 -95.2992 	 52.3639 	 125.45
| 28> H 	 -93.8245 	 49.5553 	 126.659
| 29> C 	 -96.5133 	 50.1275 	 125.433
| 30> H 	 -97.3402 	 50.7637 	 125.239
| 31> H 	 -96.841 	 49.6304 	 126.331
| 32> C 	 -96.2466 	 49.114 	 124.268
| 33> H 	 -95.3869 	 48.4367 	 124.424
| 34> H 	 -96.1218 	 49.7178 	 123.399
| 35> C 	 -97.5534 	 48.3885 	 123.893
| 36> H 	 -98.2315 	 49.1063 	 123.378
| 37> H 	 -98.1122 	 47.9351 	 124.745
| 38> H 	 -97.2425 	 47.619 	 123.211
| 39> H 	 -98.2146 	 55.7473 	 123.251
| 40> H 	 -92.1711 	 51.3469 	 126.821
| 41> *
| 42>
| 43>                          ****END OF INPUT****

CARTESIAN COORDINATES (ANGSTROEM)
---------------------------------
  S    -96.014600   54.601200  123.912000
  C    -97.717100   55.029600  123.981000
  C    -98.415700   54.252900  124.879000
  C    -97.595200   53.314200  125.591000
  C    -96.345000   53.259400  125.040000
  H    -97.930000   52.666900  126.436000
  C    -99.871600   54.510200  125.211000
  H    -99.909800   54.996200  126.176000
  H    -100.198000   53.548800  125.424000
  C    -100.779000   55.450100  124.313000
  H    -100.358000   56.467400  124.262000
  H    -100.728000   55.095200  123.330000
  C    -102.247000   55.652500  124.686000
  H    -102.811000   54.878500  124.115000
  H    -102.438000   55.486900  125.686000
  H    -102.676000   56.598100  124.344000
  S    -93.728100   53.011300  125.859000
  C    -93.126200   51.490600  126.352000
  C    -94.109700   50.517700  126.357000
  C    -95.362500   50.988000  125.732000
  C    -95.299200   52.363900  125.450000
  H    -93.824500   49.555300  126.659000
  C    -96.513300   50.127500  125.433000
  H    -97.340200   50.763700  125.239000
  H    -96.841000   49.630400  126.331000
  C    -96.246600   49.114000  124.268000
  H    -95.386900   48.436700  124.424000
  H    -96.121800   49.717800  123.399000
  C    -97.553400   48.388500  123.893000
  H    -98.231500   49.106300  123.378000
  H    -98.112200   47.935100  124.745000
  H    -97.242500   47.619000  123.211000
  H    -98.214600   55.747300  123.251000
  H    -92.171100   51.346900  126.821000

 Total Charge           Charge          ....    0
 Multiplicity           Mult            ....    1
 Number of Electrons    NEL             ....  134
 Basis Dimension        Dim             ....  322

ORBITAL ENERGIES
----------------

  NO   OCC          E(Eh)            E(eV)
   0   2.0000     -88.965303     -2420.8690
   1   2.0000     -88.961964     -2420.7781
   2   2.0000     -10.330353      -281.1032
   3   2.0000     -10.322313      -280.8844
   4   2.0000     -10.314625      -280.6752
   5   2.0000     -10.312404      -280.6148
   6   2.0000     -10.304618      -280.4029
   7   2.0000     -10.301897      -280.3289
   8   2.0000     -10.299869      -280.2737
   9   2.0000     -10.292208      -280.0652
  10   2.0000     -10.289839      -280.0008
  11   2.0000     -10.289305      -279.9862
  12   2.0000     -10.285618      -279.8859
  13   2.0000     -10.281933      -279.7856
  14   2.0000     -10.279042      -279.7069
  15   2.0000     -10.277888      -279.6755
  16   2.0000      -8.079590      -219.8568
  17   2.0000      -8.077615      -219.8031
  18   2.0000      -6.038170      -164.3069
  19   2.0000      -6.036058      -164.2495
  20   2.0000      -6.034381      -164.2039
  21   2.0000      -6.031935      -164.1373
  22   2.0000      -6.030080      -164.0868
  23   2.0000      -6.028470      -164.0430
  24   2.0000      -1.006384       -27.3851
  25   2.0000      -0.981905       -26.7190
  26   2.0000      -0.910343       -24.7717
  27   2.0000      -0.907978       -24.7073
  28   2.0000      -0.870741       -23.6941
  29   2.0000      -0.856474       -23.3059
  30   2.0000      -0.846904       -23.0454
  31   2.0000      -0.816927       -22.2297
  32   2.0000      -0.783642       -21.3240
  33   2.0000      -0.766567       -20.8593
  34   2.0000      -0.716388       -19.4939
  35   2.0000      -0.700972       -19.0744
  36   2.0000      -0.693174       -18.8622
  37   2.0000      -0.660152       -17.9637
  38   2.0000      -0.632540       -17.2123
  39   2.0000      -0.615799       -16.7568
  40   2.0000      -0.594593       -16.1797
  41   2.0000      -0.569921       -15.5083
  42   2.0000      -0.566946       -15.4274
  43   2.0000      -0.559827       -15.2337
  44   2.0000      -0.530488       -14.4353
  45   2.0000      -0.528333       -14.3767
  46   2.0000      -0.519450       -14.1350
  47   2.0000      -0.515905       -14.0385
  48   2.0000      -0.506583       -13.7848
  49   2.0000      -0.498976       -13.5778
  50   2.0000      -0.489270       -13.3137
  51   2.0000      -0.483033       -13.1440
  52   2.0000      -0.473184       -12.8760
  53   2.0000      -0.460981       -12.5439
  54   2.0000      -0.458014       -12.4632
  55   2.0000      -0.454309       -12.3624
  56   2.0000      -0.441128       -12.0037
  57   2.0000      -0.438477       -11.9316
  58   2.0000      -0.433363       -11.7924
  59   2.0000      -0.424956       -11.5636
  60   2.0000      -0.422671       -11.5015
  61   2.0000      -0.416090       -11.3224
  62   2.0000      -0.413917       -11.2632
  63   2.0000      -0.352110        -9.5814
  64   2.0000      -0.328967        -8.9516
  65   2.0000      -0.324115        -8.8196
  66   2.0000      -0.286416        -7.7938
  67   0.0000       0.028790         0.7834
  68   0.0000       0.076127         2.0715
  69   0.0000       0.105486         2.8704
  70   0.0000       0.119860         3.2616
  71   0.0000       0.134722         3.6660

MULLIKEN ATOMIC CHARGES
-----------------------
   0 S :    0.103701
   1 C :   -0.149091
   2 C :   -0.113913
   3 C :    0.008730
   4 C :   -0.153391
   5 H :    0.046232
   6 C :    0.106399
   7 H :    0.032229
   8 H :    0.000980
   9 C :   -0.096677
  10 H :    0.034700
  11 H :    0.020618
  12 C :   -0.014360
  13 H :    0.028078
  14 H :    0.017309
  15 H :    0.036699
  16 S :    0.105391
  17 C :   -0.088675
  18 C :   -0.012872
  19 C :   -0.068918
  20 C :   -0.131859
  21 H :   -0.001300
  22 C :    0.104297
  23 H :   -0.013365
  24 H :    0.016663
  25 C :   -0.072306
  26 H :    0.044062
  27 H :    0.029330
  28 C :   -0.061227
  29 H :    0.040838
  30 H :    0.033600
  31 H :    0.033746
  32 H :    0.077703
  33 H :    0.056645
Sum of atomic charges:   -0.0000000

LOEWDIN ATOMIC CHARGES
----------------------
   0 S :    0.380531
   1 C :   -0.211616
   2 C :   -0.062771
   3 C :   -0.064045
   4 C :   -0.174540
   5 H :    0.044380
   6 C :   -0.028659
   7 H :    0.036305
   8 H :    0.018658
   9 C :   -0.039617
  10 H :    0.027243
  11 H :    0.014027
  12 C :   -0.057509
  13 H :    0.031831
  14 H :    0.013619
  15 H :    0.030840
  16 S :    0.416022
  17 C :   -0.194198
  18 C :   -0.064460
  19 C :   -0.047596
  20 C :   -0.206653
  21 H :    0.020892
  22 C :   -0.037233
  23 H :    0.023059
  24 H :    0.028540
  25 C :   -0.031237
  26 H :    0.026237
  27 H :    0.027436
  28 C :   -0.067653
  29 H :    0.029764
  30 H :    0.023168
  31 H :    0.024317
  32 H :    0.042441
  33 H :    0.028475

  Mayer bond orders larger than 0.100000
B(  0-S ,  1-C ) :   1.1067 B(  0-S ,  4-C ) :   1.1378 B(  1-C ,  2-C ) :   1.6587
B(  1-C , 32-H ) :   0.9477 B(  2-C ,  3-C ) :   1.2132 B(  2-C ,  6-C ) :   1.0141
B(  3-C ,  4-C ) :   1.5915 B(  3-C ,  5-H ) :   0.9806 B(  4-C , 20-C ) :   1.0607
B(  6-C ,  7-H ) :   0.9289 B(  6-C ,  8-H ) :   0.9346 B(  6-C ,  9-C ) :   1.0601
B(  9-C , 10-H ) :   0.9526 B(  9-C , 11-H ) :   0.9638 B(  9-C , 12-C ) :   1.0789
B( 12-C , 13-H ) :   0.9765 B( 12-C , 14-H ) :   0.9781 B( 12-C , 15-H ) :   0.9760
B( 16-S , 17-C ) :   1.1624 B( 16-S , 20-C ) :   1.1363 B( 17-C , 18-C ) :   1.6191
B( 17-C , 33-H ) :   0.9667 B( 18-C , 19-C ) :   1.2119 B( 18-C , 21-H ) :   0.9990
B( 19-C , 20-C ) :   1.5821 B( 19-C , 22-C ) :   1.0752 B( 22-C , 23-H ) :   0.9173
B( 22-C , 24-H ) :   0.9188 B( 22-C , 25-C ) :   1.0579 B( 25-C , 26-H ) :   0.9637
B( 25-C , 27-H ) :   0.9536 B( 25-C , 28-C ) :   1.0774 B( 28-C , 29-H ) :   0.9774
B( 28-C , 30-H ) :   0.9753 B( 28-C , 31-H ) :   0.9748

Dispersion correction           -0.013485299
FINAL SINGLE POINT ENERGY     -1339.866330082847

DIPOLE MOMENT
-------------
                                X             Y             Z
Electronic contribution:     27.48768       9.62779       3.04329
Nuclear contribution   :    -28.08405      -9.97126      -2.86754
                        -----------------------------------------
Total Dipole Moment    :     -0.59637      -0.34347       0.17576
                        -----------------------------------------
Magnitude (a.u.)       :      0.71029
Magnitude (Debye)      :      1.80542

Rotational constants in cm-1:     0.019361     0.007669     0.006044
Rotational constants in MHz :   580.440009   229.922918   181.195734

                             ****ORCA TERMINATED NORMALLY****
TOTAL RUN TIME: 0 days 0 hours 0 minutes 31 seconds 840 msec
