                         Program Version 4.2.1 -  RELEASE  -
|  1> ! wB97X-D3 SP def2-SVP
|  2> %pal
|  3> nprocs 16
|  4> end
|  5>
|  6> * xyz 0 1
|  7> S 	 -43.9758 	 40.6791 	 84.8883
|  8> C 	 -45.3233 	 40.8101 	 85.9534
|  9> C 	 -46.0649 	 39.6407 	 85.8699
| 10> C 	 -45.7942 	 38.8909 	 84.6686
| 11> C 	 -44.7015 	 39.3966 	 83.9925
| 12> H 	 -46.1382 	 37.958 	 84.2509
| 13> C 	 -47.0032 	 39.0969 	 86.8781
| 14> H 	 -46.6007 	 39.3515 	 87.8436
| 15> H 	 -46.9465 	 37.9585 	 86.7173
| 16> C 	 -48.5064 	 39.5247 	 86.7438
| 17> H 	 -49.1288 	 39.2879 	 87.5919
| 18> H 	 -48.4968 	 40.5911 	 86.5806
| 19> C 	 -49.2219 	 38.7981 	 85.5631
| 20> H 	 -50.0888 	 39.3535 	 85.2868
| 21> H 	 -48.6382 	 38.815 	 84.6427
| 22> H 	 -49.4286 	 37.8001 	 85.7933
| 23> S 	 -42.2355 	 38.9242 	 82.7823
| 24> C 	 -42.1332 	 37.9201 	 81.3837
| 25> C 	 -43.4511 	 37.5813 	 81.025
| 26> C 	 -44.4597 	 38.0922 	 81.8098
| 27> C 	 -43.9689 	 38.7868 	 82.8737
| 28> H 	 -43.4383 	 37.0124 	 80.1148
| 29> C 	 -45.9724 	 37.8599 	 81.3308
| 30> H 	 -46.367 	 36.9806 	 81.9712
| 31> H 	 -45.9092 	 37.4501 	 80.3529
| 32> C 	 -46.9043 	 39.1071 	 81.3908
| 33> H 	 -47.0925 	 39.3364 	 82.4589
| 34> H 	 -47.8508 	 38.7342 	 80.976
| 35> C 	 -46.4365 	 40.4516 	 80.7902
| 36> H 	 -45.3191 	 40.5612 	 80.8352
| 37> H 	 -47.0233 	 41.2836 	 81.1765
| 38> H 	 -46.7326 	 40.4796 	 79.7507
| 39> H 	 -45.2737 	 41.3663 	 86.882
| 40> H 	 -41.2622 	 37.5693 	 80.7297
| 41> *
| 42>
| 43>                          ****END OF INPUT****

CARTESIAN COORDINATES (ANGSTROEM)
---------------------------------
  S    -43.975800   40.679100   84.888300
  C    -45.323300   40.810100   85.953400
  C    -46.064900   39.640700   85.869900
  C    -45.794200   38.890900   84.668600
  C    -44.701500   39.396600   83.992500
  H    -46.138200   37.958000   84.250900
  C    -47.003200   39.096900   86.878100
  H    -46.600700   39.351500   87.843600
  H    -46.946500   37.958500   86.717300
  C    -48.506400   39.524700   86.743800
  H    -49.128800   39.287900   87.591900
  H    -48.496800   40.591100   86.580600
  C    -49.221900   38.798100   85.563100
  H    -50.088800   39.353500   85.286800
  H    -48.638200   38.815000   84.642700
  H    -49.428600   37.800100   85.793300
  S    -42.235500   38.924200   82.782300
  C    -42.133200   37.920100   81.383700
  C    -43.451100   37.581300   81.025000
  C    -44.459700   38.092200   81.809800
  C    -43.968900   38.786800   82.873700
  H    -43.438300   37.012400   80.114800
  C    -45.972400   37.859900   81.330800
  H    -46.367000   36.980600   81.971200
  H    -45.909200   37.450100   80.352900
  C    -46.904300   39.107100   81.390800
  H    -47.092500   39.336400   82.458900
  H    -47.850800   38.734200   80.976000
  C    -46.436500   40.451600   80.790200
  H    -45.319100   40.561200   80.835200
  H    -47.023300   41.283600   81.176500
  H    -46.732600   40.479600   79.750700
  H    -45.273700   41.366300   86.882000
  H    -41.262200   37.569300   80.729700

 Total Charge           Charge          ....    0
 Multiplicity           Mult            ....    1
 Number of Electrons    NEL             ....  134
 Basis Dimension        Dim             ....  322

ORBITAL ENERGIES
----------------

  NO   OCC          E(Eh)            E(eV)
   0   2.0000     -88.969826     -2420.9920
   1   2.0000     -88.963341     -2420.8156
   2   2.0000     -10.328113      -281.0422
   3   2.0000     -10.326663      -281.0028
   4   2.0000     -10.321569      -280.8642
   5   2.0000     -10.310143      -280.5533
   6   2.0000     -10.305809      -280.4353
   7   2.0000     -10.304216      -280.3920
   8   2.0000     -10.300859      -280.3006
   9   2.0000     -10.295391      -280.1518
  10   2.0000     -10.293385      -280.0972
  11   2.0000     -10.287844      -279.9465
  12   2.0000     -10.287498      -279.9371
  13   2.0000     -10.287450      -279.9357
  14   2.0000     -10.275396      -279.6078
  15   2.0000     -10.269713      -279.4531
  16   2.0000      -8.084685      -219.9955
  17   2.0000      -8.079141      -219.8446
  18   2.0000      -6.043177      -164.4432
  19   2.0000      -6.039048      -164.3308
  20   2.0000      -6.037604      -164.2916
  21   2.0000      -6.035581      -164.2365
  22   2.0000      -6.033621      -164.1832
  23   2.0000      -6.029772      -164.0784
  24   2.0000      -1.015800       -27.6413
  25   2.0000      -0.992968       -27.0200
  26   2.0000      -0.910202       -24.7678
  27   2.0000      -0.898140       -24.4396
  28   2.0000      -0.869487       -23.6599
  29   2.0000      -0.851647       -23.1745
  30   2.0000      -0.845164       -22.9981
  31   2.0000      -0.815988       -22.2042
  32   2.0000      -0.784280       -21.3413
  33   2.0000      -0.774562       -21.0769
  34   2.0000      -0.707070       -19.2404
  35   2.0000      -0.705451       -19.1963
  36   2.0000      -0.684907       -18.6373
  37   2.0000      -0.662354       -18.0236
  38   2.0000      -0.640658       -17.4332
  39   2.0000      -0.612890       -16.6776
  40   2.0000      -0.584336       -15.9006
  41   2.0000      -0.572313       -15.5734
  42   2.0000      -0.549226       -14.9452
  43   2.0000      -0.546299       -14.8656
  44   2.0000      -0.543907       -14.8005
  45   2.0000      -0.540550       -14.7091
  46   2.0000      -0.516533       -14.0556
  47   2.0000      -0.510127       -13.8813
  48   2.0000      -0.504006       -13.7147
  49   2.0000      -0.501150       -13.6370
  50   2.0000      -0.487524       -13.2662
  51   2.0000      -0.477305       -12.9881
  52   2.0000      -0.473960       -12.8971
  53   2.0000      -0.468249       -12.7417
  54   2.0000      -0.461631       -12.5616
  55   2.0000      -0.446331       -12.1453
  56   2.0000      -0.443183       -12.0596
  57   2.0000      -0.436114       -11.8673
  58   2.0000      -0.429559       -11.6889
  59   2.0000      -0.423997       -11.5376
  60   2.0000      -0.416779       -11.3411
  61   2.0000      -0.412537       -11.2257
  62   2.0000      -0.405460       -11.0331
  63   2.0000      -0.357821        -9.7368
  64   2.0000      -0.337657        -9.1881
  65   2.0000      -0.324520        -8.8306
  66   2.0000      -0.285584        -7.7711
  67   0.0000       0.020595         0.5604
  68   0.0000       0.074015         2.0140
  69   0.0000       0.103001         2.8028
  70   0.0000       0.119262         3.2453
  71   0.0000       0.131300         3.5729

MULLIKEN ATOMIC CHARGES
-----------------------
   0 S :    0.094210
   1 C :   -0.079400
   2 C :   -0.127186
   3 C :    0.030377
   4 C :   -0.148555
   5 H :    0.007646
   6 C :    0.037991
   7 H :    0.021997
   8 H :    0.041330
   9 C :   -0.043079
  10 H :    0.034218
  11 H :    0.026733
  12 C :   -0.039207
  13 H :    0.025396
  14 H :    0.020370
  15 H :    0.023454
  16 S :    0.117715
  17 C :   -0.129900
  18 C :   -0.066779
  19 C :   -0.035412
  20 C :   -0.146028
  21 H :    0.008540
  22 C :    0.063343
  23 H :    0.052082
  24 H :    0.012650
  25 C :   -0.096107
  26 H :    0.049479
  27 H :    0.029121
  28 C :   -0.038577
  29 H :    0.062753
  30 H :    0.035642
  31 H :    0.017147
  32 H :    0.053083
  33 H :    0.084950
Sum of atomic charges:   -0.0000000

LOEWDIN ATOMIC CHARGES
----------------------
   0 S :    0.421378
   1 C :   -0.216748
   2 C :   -0.056434
   3 C :   -0.069443
   4 C :   -0.187757
   5 H :    0.031899
   6 C :   -0.035767
   7 H :    0.026307
   8 H :    0.041410
   9 C :   -0.030433
  10 H :    0.023474
  11 H :    0.021922
  12 C :   -0.059962
  13 H :    0.024839
  14 H :    0.023170
  15 H :    0.016183
  16 S :    0.424523
  17 C :   -0.217171
  18 C :   -0.079417
  19 C :   -0.072380
  20 C :   -0.202624
  21 H :    0.027833
  22 C :   -0.022214
  23 H :    0.041499
  24 H :    0.021767
  25 C :   -0.051854
  26 H :    0.026095
  27 H :    0.025832
  28 C :   -0.068710
  29 H :    0.037895
  30 H :    0.030949
  31 H :    0.021118
  32 H :    0.028737
  33 H :    0.054082

  Mayer bond orders larger than 0.100000
B(  0-S ,  1-C ) :   1.1346 B(  0-S ,  4-C ) :   1.1721 B(  1-C ,  2-C ) :   1.6029
B(  1-C , 32-H ) :   0.9636 B(  2-C ,  3-C ) :   1.2286 B(  2-C ,  6-C ) :   1.0270
B(  3-C ,  4-C ) :   1.5594 B(  3-C ,  5-H ) :   0.9877 B(  4-C , 20-C ) :   1.0559
B(  6-C ,  7-H ) :   0.9359 B(  6-C ,  8-H ) :   0.9480 B(  6-C ,  9-C ) :   1.0607
B(  9-C , 10-H ) :   0.9600 B(  9-C , 11-H ) :   0.9581 B(  9-C , 12-C ) :   1.0777
B( 12-C , 13-H ) :   0.9710 B( 12-C , 14-H ) :   0.9764 B( 12-C , 15-H ) :   0.9761
B( 16-S , 17-C ) :   1.1643 B( 16-S , 20-C ) :   1.1507 B( 17-C , 18-C ) :   1.5899
B( 17-C , 20-C ) :   0.1075 B( 17-C , 33-H ) :   0.9577 B( 18-C , 19-C ) :   1.2739
B( 18-C , 21-H ) :   0.9931 B( 19-C , 20-C ) :   1.5755 B( 19-C , 22-C ) :   1.0023
B( 22-C , 23-H ) :   0.9379 B( 22-C , 24-H ) :   0.9417 B( 22-C , 25-C ) :   1.0630
B( 25-C , 26-H ) :   0.9510 B( 25-C , 27-H ) :   0.9539 B( 25-C , 28-C ) :   1.0707
B( 28-C , 29-H ) :   0.9726 B( 28-C , 30-H ) :   0.9742 B( 28-C , 31-H ) :   0.9756

Dispersion correction           -0.015780401
FINAL SINGLE POINT ENERGY     -1339.857210688198

DIPOLE MOMENT
-------------
                                X             Y             Z
Electronic contribution:     27.42030       3.15651       1.58084
Nuclear contribution   :    -27.87150      -3.56251      -1.66090
                        -----------------------------------------
Total Dipole Moment    :     -0.45120      -0.40600      -0.08005
                        -----------------------------------------
Magnitude (a.u.)       :      0.61223
Magnitude (Debye)      :      1.55616

Rotational constants in cm-1:     0.020567     0.009689     0.007680
Rotational constants in MHz :   616.568764   290.457725   230.243794

                             ****ORCA TERMINATED NORMALLY****
TOTAL RUN TIME: 0 days 0 hours 0 minutes 32 seconds 254 msec
