                         Program Version 4.2.1 -  RELEASE  -
|  1> ! wB97X-D3 SP def2-SVP
|  2> %pal
|  3> nprocs 16
|  4> end
|  5>
|  6> * xyz 0 1
|  7> S 	 -4.10243 	 48.746 	 48.0686
|  8> C 	 -4.03314 	 50.4662 	 47.9435
|  9> C 	 -5.2802 	 51.0151 	 47.8981
| 10> C 	 -6.29305 	 50.0068 	 47.738
| 11> C 	 -5.81504 	 48.7026 	 47.8473
| 12> H 	 -7.36972 	 50.1039 	 47.6165
| 13> C 	 -5.57299 	 52.4763 	 47.8319
| 14> H 	 -6.37494 	 52.7551 	 47.1642
| 15> H 	 -4.65521 	 52.9204 	 47.444
| 16> C 	 -5.91889 	 53.107 	 49.1533
| 17> H 	 -5.00109 	 53.1736 	 49.763
| 18> H 	 -6.19534 	 54.1146 	 48.9551
| 19> C 	 -7.1085 	 52.4877 	 49.9424
| 20> H 	 -7.98558 	 52.3935 	 49.3283
| 21> H 	 -6.70117 	 51.495 	 50.2724
| 22> H 	 -7.24104 	 53.0922 	 50.8575
| 23> S 	 -6.14685 	 46.2734 	 46.707
| 24> C 	 -7.59108 	 45.4121 	 46.7878
| 25> C 	 -8.43956 	 45.9827 	 47.7527
| 26> C 	 -7.9229 	 47.2247 	 48.2639
| 27> C 	 -6.65289 	 47.5211 	 47.7986
| 28> H 	 -9.39057 	 45.5484 	 48.0514
| 29> C 	 -8.82382 	 48.0472 	 49.1394
| 30> H 	 -8.34508 	 49.0013 	 49.3271
| 31> H 	 -8.86274 	 47.6902 	 50.099
| 32> C 	 -10.2441 	 48.3479 	 48.5879
| 33> H 	 -10.77 	 48.58 	 49.461
| 34> H 	 -10.7976 	 47.4378 	 48.245
| 35> C 	 -10.2163 	 49.4458 	 47.5098
| 36> H 	 -11.2953 	 49.5948 	 47.1687
| 37> H 	 -9.49875 	 49.3039 	 46.7114
| 38> H 	 -9.85422 	 50.3476 	 48.0184
| 39> H 	 -3.10658 	 51.052 	 48.0786
| 40> H 	 -7.81846 	 44.5503 	 46.1775
| 41> *
| 42>
| 43>                          ****END OF INPUT****

CARTESIAN COORDINATES (ANGSTROEM)
---------------------------------
  S     -4.102430   48.746000   48.068600
  C     -4.033140   50.466200   47.943500
  C     -5.280200   51.015100   47.898100
  C     -6.293050   50.006800   47.738000
  C     -5.815040   48.702600   47.847300
  H     -7.369720   50.103900   47.616500
  C     -5.572990   52.476300   47.831900
  H     -6.374940   52.755100   47.164200
  H     -4.655210   52.920400   47.444000
  C     -5.918890   53.107000   49.153300
  H     -5.001090   53.173600   49.763000
  H     -6.195340   54.114600   48.955100
  C     -7.108500   52.487700   49.942400
  H     -7.985580   52.393500   49.328300
  H     -6.701170   51.495000   50.272400
  H     -7.241040   53.092200   50.857500
  S     -6.146850   46.273400   46.707000
  C     -7.591080   45.412100   46.787800
  C     -8.439560   45.982700   47.752700
  C     -7.922900   47.224700   48.263900
  C     -6.652890   47.521100   47.798600
  H     -9.390570   45.548400   48.051400
  C     -8.823820   48.047200   49.139400
  H     -8.345080   49.001300   49.327100
  H     -8.862740   47.690200   50.099000
  C    -10.244100   48.347900   48.587900
  H    -10.770000   48.580000   49.461000
  H    -10.797600   47.437800   48.245000
  C    -10.216300   49.445800   47.509800
  H    -11.295300   49.594800   47.168700
  H     -9.498750   49.303900   46.711400
  H     -9.854220   50.347600   48.018400
  H     -3.106580   51.052000   48.078600
  H     -7.818460   44.550300   46.177500

 Total Charge           Charge          ....    0
 Multiplicity           Mult            ....    1
 Number of Electrons    NEL             ....  134
 Basis Dimension        Dim             ....  322

ORBITAL ENERGIES
----------------

  NO   OCC          E(Eh)            E(eV)
   0   2.0000     -88.965416     -2420.8721
   1   2.0000     -88.962280     -2420.7867
   2   2.0000     -10.326940      -281.0103
   3   2.0000     -10.324023      -280.9309
   4   2.0000     -10.316674      -280.7310
   5   2.0000     -10.312039      -280.6049
   6   2.0000     -10.302911      -280.3565
   7   2.0000     -10.297872      -280.2193
   8   2.0000     -10.294764      -280.1348
   9   2.0000     -10.291341      -280.0416
  10   2.0000     -10.287893      -279.9478
  11   2.0000     -10.286331      -279.9053
  12   2.0000     -10.285956      -279.8951
  13   2.0000     -10.282210      -279.7932
  14   2.0000     -10.281915      -279.7851
  15   2.0000     -10.281119      -279.7635
  16   2.0000      -8.080873      -219.8917
  17   2.0000      -8.078833      -219.8362
  18   2.0000      -6.039360      -164.3393
  19   2.0000      -6.037123      -164.2785
  20   2.0000      -6.035260      -164.2278
  21   2.0000      -6.032926      -164.1643
  22   2.0000      -6.031642      -164.1293
  23   2.0000      -6.029850      -164.0806
  24   2.0000      -1.013194       -27.5704
  25   2.0000      -0.991411       -26.9777
  26   2.0000      -0.917255       -24.9598
  27   2.0000      -0.913530       -24.8584
  28   2.0000      -0.872063       -23.7300
  29   2.0000      -0.850888       -23.1538
  30   2.0000      -0.842866       -22.9355
  31   2.0000      -0.813208       -22.1285
  32   2.0000      -0.786260       -21.3952
  33   2.0000      -0.777792       -21.1648
  34   2.0000      -0.712239       -19.3810
  35   2.0000      -0.697288       -18.9742
  36   2.0000      -0.695786       -18.9333
  37   2.0000      -0.661260       -17.9938
  38   2.0000      -0.640501       -17.4289
  39   2.0000      -0.616144       -16.7661
  40   2.0000      -0.600711       -16.3462
  41   2.0000      -0.582211       -15.8428
  42   2.0000      -0.557025       -15.1574
  43   2.0000      -0.549042       -14.9402
  44   2.0000      -0.544186       -14.8080
  45   2.0000      -0.532250       -14.4833
  46   2.0000      -0.521196       -14.1825
  47   2.0000      -0.515236       -14.0203
  48   2.0000      -0.506722       -13.7886
  49   2.0000      -0.504806       -13.7365
  50   2.0000      -0.493165       -13.4197
  51   2.0000      -0.481512       -13.1026
  52   2.0000      -0.472587       -12.8597
  53   2.0000      -0.468459       -12.7474
  54   2.0000      -0.461060       -12.5461
  55   2.0000      -0.446192       -12.1415
  56   2.0000      -0.442748       -12.0478
  57   2.0000      -0.437600       -11.9077
  58   2.0000      -0.436307       -11.8725
  59   2.0000      -0.424737       -11.5577
  60   2.0000      -0.419755       -11.4221
  61   2.0000      -0.412793       -11.2327
  62   2.0000      -0.410263       -11.1638
  63   2.0000      -0.351590        -9.5673
  64   2.0000      -0.329071        -8.9545
  65   2.0000      -0.327544        -8.9129
  66   2.0000      -0.290626        -7.9083
  67   0.0000       0.034247         0.9319
  68   0.0000       0.075074         2.0429
  69   0.0000       0.116462         3.1691
  70   0.0000       0.123376         3.3572
  71   0.0000       0.129791         3.5318

MULLIKEN ATOMIC CHARGES
-----------------------
   0 S :    0.118757
   1 C :   -0.133634
   2 C :   -0.080631
   3 C :    0.027748
   4 C :   -0.141677
   5 H :   -0.025475
   6 C :    0.084934
   7 H :    0.023750
   8 H :    0.017829
   9 C :   -0.082297
  10 H :    0.024074
  11 H :    0.016776
  12 C :   -0.067829
  13 H :    0.037285
  14 H :    0.053544
  15 H :    0.043796
  16 S :    0.113807
  17 C :   -0.091717
  18 C :   -0.039925
  19 C :   -0.058827
  20 C :   -0.142064
  21 H :    0.021272
  22 C :    0.094964
  23 H :   -0.005718
  24 H :    0.010131
  25 C :   -0.063664
  26 H :    0.013002
  27 H :    0.029548
  28 C :   -0.059900
  29 H :    0.051946
  30 H :    0.058005
  31 H :    0.029151
  32 H :    0.059671
  33 H :    0.063369
Sum of atomic charges:   -0.0000000

LOEWDIN ATOMIC CHARGES
----------------------
   0 S :    0.421603
   1 C :   -0.209438
   2 C :   -0.065638
   3 C :   -0.066036
   4 C :   -0.203655
   5 H :    0.025871
   6 C :   -0.032803
   7 H :    0.029617
   8 H :    0.033347
   9 C :   -0.040967
  10 H :    0.023010
  11 H :    0.015902
  12 C :   -0.065882
  13 H :    0.019507
  14 H :    0.032365
  15 H :    0.031887
  16 S :    0.445011
  17 C :   -0.202113
  18 C :   -0.072122
  19 C :   -0.054082
  20 C :   -0.211336
  21 H :    0.029495
  22 C :   -0.029440
  23 H :    0.028330
  24 H :    0.022753
  25 C :   -0.034883
  26 H :    0.018155
  27 H :    0.023616
  28 C :   -0.067508
  29 H :    0.038173
  30 H :    0.026858
  31 H :    0.023389
  32 H :    0.035935
  33 H :    0.031078

  Mayer bond orders larger than 0.100000
B(  0-S ,  1-C ) :   1.1393 B(  0-S ,  4-C ) :   1.1612 B(  1-C ,  2-C ) :   1.6120
B(  1-C , 32-H ) :   0.9603 B(  2-C ,  3-C ) :   1.2284 B(  2-C ,  6-C ) :   1.0275
B(  3-C ,  4-C ) :   1.5683 B(  3-C ,  5-H ) :   0.9919 B(  4-C , 20-C ) :   1.0291
B(  6-C ,  7-H ) :   0.9429 B(  6-C ,  8-H ) :   0.9356 B(  6-C ,  9-C ) :   1.0828
B(  9-C , 10-H ) :   0.9540 B(  9-C , 11-H ) :   0.9542 B(  9-C , 12-C ) :   1.0785
B( 12-C , 13-H ) :   0.9748 B( 12-C , 14-H ) :   0.9710 B( 12-C , 15-H ) :   0.9717
B( 16-S , 17-C ) :   1.1991 B( 16-S , 20-C ) :   1.1499 B( 17-C , 18-C ) :   1.5477
B( 17-C , 33-H ) :   0.9719 B( 18-C , 19-C ) :   1.2686 B( 18-C , 21-H ) :   0.9930
B( 19-C , 20-C ) :   1.5716 B( 19-C , 22-C ) :   1.0479 B( 22-C , 23-H ) :   0.9278
B( 22-C , 24-H ) :   0.9207 B( 22-C , 25-C ) :   1.0725 B( 25-C , 26-H ) :   0.9520
B( 25-C , 27-H ) :   0.9567 B( 25-C , 28-C ) :   1.0671 B( 28-C , 29-H ) :   0.9699
B( 28-C , 30-H ) :   0.9721 B( 28-C , 31-H ) :   0.9680

Dispersion correction           -0.015796073
FINAL SINGLE POINT ENERGY     -1339.884141626020

DIPOLE MOMENT
-------------
                                X             Y             Z
Electronic contribution:     19.35102     -21.09130      -8.30753
Nuclear contribution   :    -19.93187      21.49683       8.50886
                        -----------------------------------------
Total Dipole Moment    :     -0.58085       0.40553       0.20132
                        -----------------------------------------
Magnitude (a.u.)       :      0.73646
Magnitude (Debye)      :      1.87193

Rotational constants in cm-1:     0.018651     0.010498     0.007277
Rotational constants in MHz :   559.138722   314.710908   218.156494

                             ****ORCA TERMINATED NORMALLY****
TOTAL RUN TIME: 0 days 0 hours 0 minutes 36 seconds 872 msec
