                         Program Version 4.2.1 -  RELEASE  -
|  1> ! wB97X-D3 SP def2-SVP
|  2> %pal
|  3> nprocs 16
|  4> end
|  5>
|  6> * xyz 0 1
|  7> S 	 -56.8724 	 40.482 	 114.641
|  8> C 	 -57.4476 	 41.1009 	 113.111
|  9> C 	 -56.4337 	 41.5635 	 112.325
| 10> C 	 -55.1801 	 41.4456 	 113.006
| 11> C 	 -55.244 	 40.936 	 114.28
| 12> H 	 -54.207 	 41.7292 	 112.642
| 13> C 	 -56.588 	 42.1545 	 110.898
| 14> H 	 -57.1394 	 41.3702 	 110.279
| 15> H 	 -55.5796 	 42.4626 	 110.614
| 16> C 	 -57.3988 	 43.4222 	 110.934
| 17> H 	 -58.2957 	 43.2965 	 111.504
| 18> H 	 -56.7721 	 44.1877 	 111.452
| 19> C 	 -57.7678 	 43.8845 	 109.502
| 20> H 	 -56.9062 	 44.0351 	 108.899
| 21> H 	 -58.3442 	 43.2706 	 108.896
| 22> H 	 -58.2691 	 44.8707 	 109.49
| 23> S 	 -54.1994 	 40.6373 	 116.84
| 24> C 	 -52.5566 	 40.0298 	 116.906
| 25> C 	 -52.1188 	 39.3513 	 115.753
| 26> C 	 -53.155 	 39.5176 	 114.727
| 27> C 	 -54.1655 	 40.3702 	 115.049
| 28> H 	 -51.2347 	 38.7042 	 115.64
| 29> C 	 -53.1852 	 38.6252 	 113.467
| 30> H 	 -52.6736 	 39.2365 	 112.771
| 31> H 	 -54.1355 	 38.586 	 112.904
| 32> C 	 -52.5807 	 37.2575 	 113.571
| 33> H 	 -51.5129 	 37.194 	 113.862
| 34> H 	 -52.545 	 37.0177 	 112.535
| 35> C 	 -53.536 	 36.301 	 114.287
| 36> H 	 -53.4392 	 36.3672 	 115.364
| 37> H 	 -53.1842 	 35.3161 	 114.075
| 38> H 	 -54.5251 	 36.3929 	 114.036
| 39> H 	 -58.5298 	 41.2462 	 112.746
| 40> H 	 -52.0019 	 39.8431 	 117.832
| 41> *
| 42>
| 43>                          ****END OF INPUT****

CARTESIAN COORDINATES (ANGSTROEM)
---------------------------------
  S    -56.872400   40.482000  114.641000
  C    -57.447600   41.100900  113.111000
  C    -56.433700   41.563500  112.325000
  C    -55.180100   41.445600  113.006000
  C    -55.244000   40.936000  114.280000
  H    -54.207000   41.729200  112.642000
  C    -56.588000   42.154500  110.898000
  H    -57.139400   41.370200  110.279000
  H    -55.579600   42.462600  110.614000
  C    -57.398800   43.422200  110.934000
  H    -58.295700   43.296500  111.504000
  H    -56.772100   44.187700  111.452000
  C    -57.767800   43.884500  109.502000
  H    -56.906200   44.035100  108.899000
  H    -58.344200   43.270600  108.896000
  H    -58.269100   44.870700  109.490000
  S    -54.199400   40.637300  116.840000
  C    -52.556600   40.029800  116.906000
  C    -52.118800   39.351300  115.753000
  C    -53.155000   39.517600  114.727000
  C    -54.165500   40.370200  115.049000
  H    -51.234700   38.704200  115.640000
  C    -53.185200   38.625200  113.467000
  H    -52.673600   39.236500  112.771000
  H    -54.135500   38.586000  112.904000
  C    -52.580700   37.257500  113.571000
  H    -51.512900   37.194000  113.862000
  H    -52.545000   37.017700  112.535000
  C    -53.536000   36.301000  114.287000
  H    -53.439200   36.367200  115.364000
  H    -53.184200   35.316100  114.075000
  H    -54.525100   36.392900  114.036000
  H    -58.529800   41.246200  112.746000
  H    -52.001900   39.843100  117.832000

 Total Charge           Charge          ....    0
 Multiplicity           Mult            ....    1
 Number of Electrons    NEL             ....  134
 Basis Dimension        Dim             ....  322

ORBITAL ENERGIES
----------------

  NO   OCC          E(Eh)            E(eV)
   0   2.0000     -88.964628     -2420.8506
   1   2.0000     -88.962523     -2420.7933
   2   2.0000     -10.323225      -280.9092
   3   2.0000     -10.322239      -280.8824
   4   2.0000     -10.321504      -280.8624
   5   2.0000     -10.317124      -280.7432
   6   2.0000     -10.304625      -280.4031
   7   2.0000     -10.303019      -280.3594
   8   2.0000     -10.300620      -280.2941
   9   2.0000     -10.299345      -280.2594
  10   2.0000     -10.292168      -280.0641
  11   2.0000     -10.288496      -279.9642
  12   2.0000     -10.285559      -279.8843
  13   2.0000     -10.284736      -279.8619
  14   2.0000     -10.272136      -279.5190
  15   2.0000     -10.265042      -279.3260
  16   2.0000      -8.079806      -219.8627
  17   2.0000      -8.076715      -219.7786
  18   2.0000      -6.038382      -164.3127
  19   2.0000      -6.035294      -164.2287
  20   2.0000      -6.034204      -164.1990
  21   2.0000      -6.031745      -164.1321
  22   2.0000      -6.030512      -164.0986
  23   2.0000      -6.026991      -164.0028
  24   2.0000      -1.007252       -27.4087
  25   2.0000      -0.979397       -26.6507
  26   2.0000      -0.916005       -24.9258
  27   2.0000      -0.912795       -24.8384
  28   2.0000      -0.868736       -23.6395
  29   2.0000      -0.849837       -23.1252
  30   2.0000      -0.840700       -22.8766
  31   2.0000      -0.811843       -22.0914
  32   2.0000      -0.788234       -21.4489
  33   2.0000      -0.776581       -21.1319
  34   2.0000      -0.707681       -19.2570
  35   2.0000      -0.704301       -19.1650
  36   2.0000      -0.692478       -18.8433
  37   2.0000      -0.657599       -17.8942
  38   2.0000      -0.636502       -17.3201
  39   2.0000      -0.613534       -16.6951
  40   2.0000      -0.597405       -16.2562
  41   2.0000      -0.578865       -15.7517
  42   2.0000      -0.559904       -15.2358
  43   2.0000      -0.556524       -15.1438
  44   2.0000      -0.534944       -14.5566
  45   2.0000      -0.519923       -14.1478
  46   2.0000      -0.515726       -14.0336
  47   2.0000      -0.512895       -13.9566
  48   2.0000      -0.502141       -13.6639
  49   2.0000      -0.499003       -13.5786
  50   2.0000      -0.492771       -13.4090
  51   2.0000      -0.474765       -12.9190
  52   2.0000      -0.470486       -12.8026
  53   2.0000      -0.465910       -12.6781
  54   2.0000      -0.458722       -12.4825
  55   2.0000      -0.450254       -12.2520
  56   2.0000      -0.442476       -12.0404
  57   2.0000      -0.436506       -11.8779
  58   2.0000      -0.435735       -11.8569
  59   2.0000      -0.428539       -11.6612
  60   2.0000      -0.425712       -11.5842
  61   2.0000      -0.418513       -11.3883
  62   2.0000      -0.405593       -11.0368
  63   2.0000      -0.341734        -9.2990
  64   2.0000      -0.332693        -9.0530
  65   2.0000      -0.322855        -8.7853
  66   2.0000      -0.290297        -7.8994
  67   0.0000       0.027887         0.7588
  68   0.0000       0.063302         1.7225
  69   0.0000       0.096343         2.6216
  70   0.0000       0.127969         3.4822
  71   0.0000       0.131080         3.5669

MULLIKEN ATOMIC CHARGES
-----------------------
   0 S :    0.107341
   1 C :   -0.144177
   2 C :   -0.104655
   3 C :   -0.003065
   4 C :   -0.098950
   5 H :    0.004454
   6 C :    0.075199
   7 H :    0.053021
   8 H :    0.024591
   9 C :   -0.083763
  10 H :    0.023082
  11 H :    0.037893
  12 C :   -0.015118
  13 H :    0.009700
  14 H :    0.012754
  15 H :    0.032392
  16 S :    0.090281
  17 C :   -0.076535
  18 C :   -0.040981
  19 C :   -0.046804
  20 C :   -0.183881
  21 H :    0.034521
  22 C :    0.053431
  23 H :    0.009108
  24 H :    0.035471
  25 C :   -0.069015
  26 H :    0.029664
  27 H :    0.015109
  28 C :    0.021310
  29 H :    0.029869
  30 H :    0.016489
  31 H :    0.017268
  32 H :    0.070689
  33 H :    0.063305
Sum of atomic charges:   -0.0000000

LOEWDIN ATOMIC CHARGES
----------------------
   0 S :    0.413713
   1 C :   -0.211492
   2 C :   -0.071294
   3 C :   -0.063893
   4 C :   -0.203866
   5 H :    0.027993
   6 C :   -0.028182
   7 H :    0.042013
   8 H :    0.031839
   9 C :   -0.038046
  10 H :    0.016007
  11 H :    0.033140
  12 C :   -0.066024
  13 H :    0.020539
  14 H :    0.014694
  15 H :    0.031410
  16 S :    0.367471
  17 C :   -0.176693
  18 C :   -0.073780
  19 C :   -0.043900
  20 C :   -0.191861
  21 H :    0.037597
  22 C :   -0.036962
  23 H :    0.026113
  24 H :    0.038518
  25 C :   -0.042116
  26 H :    0.026801
  27 H :    0.025843
  28 C :   -0.049291
  29 H :    0.028102
  30 H :    0.023370
  31 H :    0.016284
  32 H :    0.045620
  33 H :    0.030333

  Mayer bond orders larger than 0.100000
B(  0-S ,  1-C ) :   1.1418 B(  0-S ,  4-C ) :   1.1507 B(  1-C ,  2-C ) :   1.6240
B(  1-C , 32-H ) :   0.9519 B(  2-C ,  3-C ) :   1.2445 B(  2-C ,  6-C ) :   1.0010
B(  3-C ,  4-C ) :   1.5797 B(  3-C ,  5-H ) :   1.0083 B(  4-C , 20-C ) :   1.0332
B(  6-C ,  7-H ) :   0.9428 B(  6-C ,  8-H ) :   0.9405 B(  6-C ,  9-C ) :   1.0715
B(  9-C , 10-H ) :   0.9616 B(  9-C , 11-H ) :   0.9526 B(  9-C , 12-C ) :   1.0766
B( 12-C , 13-H ) :   0.9699 B( 12-C , 14-H ) :   0.9761 B( 12-C , 15-H ) :   0.9732
B( 16-S , 17-C ) :   1.1597 B( 16-S , 20-C ) :   1.0799 B( 17-C , 18-C ) :   1.6230
B( 17-C , 33-H ) :   0.9603 B( 18-C , 19-C ) :   1.2106 B( 18-C , 21-H ) :   0.9818
B( 19-C , 20-C ) :   1.6517 B( 19-C , 22-C ) :   1.0048 B( 22-C , 23-H ) :   0.9205
B( 22-C , 24-H ) :   0.9398 B( 22-C , 25-C ) :   1.0951 B( 25-C , 26-H ) :   0.9471
B( 25-C , 27-H ) :   0.9445 B( 25-C , 28-C ) :   1.0762 B( 28-C , 29-H ) :   0.9741
B( 28-C , 30-H ) :   0.9721 B( 28-C , 31-H ) :   0.9732

Dispersion correction           -0.014269881
FINAL SINGLE POINT ENERGY     -1339.846651182292

DIPOLE MOMENT
-------------
                                X             Y             Z
Electronic contribution:     -0.58962       2.50362      23.28406
Nuclear contribution   :      0.82102      -2.79248     -24.02560
                        -----------------------------------------
Total Dipole Moment    :      0.23140      -0.28886      -0.74154
                        -----------------------------------------
Magnitude (a.u.)       :      0.82877
Magnitude (Debye)      :      2.10657

Rotational constants in cm-1:     0.023180     0.007154     0.006354
Rotational constants in MHz :   694.928905   214.482574   190.482101

                             ****ORCA TERMINATED NORMALLY****
TOTAL RUN TIME: 0 days 0 hours 0 minutes 30 seconds 77 msec
