                         Program Version 4.2.1 -  RELEASE  -
|  1> ! wB97X-D3 SP def2-SVP
|  2> %pal
|  3> nprocs 16
|  4> end
|  5>
|  6> * xyz 0 1
|  7> S 	 -68.3781 	 42.7833 	 125.521
|  8> C 	 -68.6784 	 44.4553 	 125.915
|  9> C 	 -67.5166 	 45.1362 	 126.11
| 10> C 	 -66.3648 	 44.3002 	 125.738
| 11> C 	 -66.6239 	 42.9921 	 125.495
| 12> H 	 -65.3186 	 44.615 	 125.632
| 13> C 	 -67.3769 	 46.676 	 126.222
| 14> H 	 -68.2756 	 46.9773 	 126.766
| 15> H 	 -67.3697 	 47.1124 	 125.302
| 16> C 	 -66.1687 	 47.2367 	 127.037
| 17> H 	 -66.0065 	 46.737 	 127.991
| 18> H 	 -65.3249 	 47.0128 	 126.33
| 19> C 	 -66.2608 	 48.7865 	 127.21
| 20> H 	 -65.666 	 49.057 	 128.046
| 21> H 	 -66.0197 	 49.3394 	 126.29
| 22> H 	 -67.2877 	 48.9889 	 127.58
| 23> S 	 -64.4588 	 41.4981 	 126.363
| 24> C 	 -63.8018 	 40.2997 	 125.353
| 25> C 	 -64.3834 	 40.2729 	 124.079
| 26> C 	 -65.5224 	 41.147 	 124.014
| 27> C 	 -65.6347 	 41.9462 	 125.146
| 28> H 	 -64.129 	 39.5378 	 123.399
| 29> C 	 -66.4068 	 41.1829 	 122.744
| 30> H 	 -66.668 	 42.1729 	 122.436
| 31> H 	 -67.3352 	 40.7673 	 122.997
| 32> C 	 -65.7667 	 40.5805 	 121.525
| 33> H 	 -65.4064 	 39.5216 	 121.653
| 34> H 	 -64.9277 	 41.1558 	 121.324
| 35> C 	 -66.7349 	 40.6826 	 120.345
| 36> H 	 -66.4578 	 40.0374 	 119.55
| 37> H 	 -66.95 	 41.7112 	 120.098
| 38> H 	 -67.6975 	 40.288 	 120.754
| 39> H 	 -69.738 	 44.8121 	 125.857
| 40> H 	 -62.8829 	 39.8525 	 125.637
| 41> *
| 42>
| 43>                          ****END OF INPUT****

CARTESIAN COORDINATES (ANGSTROEM)
---------------------------------
  S    -68.378100   42.783300  125.521000
  C    -68.678400   44.455300  125.915000
  C    -67.516600   45.136200  126.110000
  C    -66.364800   44.300200  125.738000
  C    -66.623900   42.992100  125.495000
  H    -65.318600   44.615000  125.632000
  C    -67.376900   46.676000  126.222000
  H    -68.275600   46.977300  126.766000
  H    -67.369700   47.112400  125.302000
  C    -66.168700   47.236700  127.037000
  H    -66.006500   46.737000  127.991000
  H    -65.324900   47.012800  126.330000
  C    -66.260800   48.786500  127.210000
  H    -65.666000   49.057000  128.046000
  H    -66.019700   49.339400  126.290000
  H    -67.287700   48.988900  127.580000
  S    -64.458800   41.498100  126.363000
  C    -63.801800   40.299700  125.353000
  C    -64.383400   40.272900  124.079000
  C    -65.522400   41.147000  124.014000
  C    -65.634700   41.946200  125.146000
  H    -64.129000   39.537800  123.399000
  C    -66.406800   41.182900  122.744000
  H    -66.668000   42.172900  122.436000
  H    -67.335200   40.767300  122.997000
  C    -65.766700   40.580500  121.525000
  H    -65.406400   39.521600  121.653000
  H    -64.927700   41.155800  121.324000
  C    -66.734900   40.682600  120.345000
  H    -66.457800   40.037400  119.550000
  H    -66.950000   41.711200  120.098000
  H    -67.697500   40.288000  120.754000
  H    -69.738000   44.812100  125.857000
  H    -62.882900   39.852500  125.637000

 Total Charge           Charge          ....    0
 Multiplicity           Mult            ....    1
 Number of Electrons    NEL             ....  134
 Basis Dimension        Dim             ....  322

ORBITAL ENERGIES
----------------

  NO   OCC          E(Eh)            E(eV)
   0   2.0000     -88.966344     -2420.8973
   1   2.0000     -88.958966     -2420.6965
   2   2.0000     -10.326219      -280.9907
   3   2.0000     -10.325544      -280.9723
   4   2.0000     -10.318232      -280.7734
   5   2.0000     -10.313493      -280.6444
   6   2.0000     -10.306354      -280.4502
   7   2.0000     -10.304597      -280.4023
   8   2.0000     -10.292722      -280.0792
   9   2.0000     -10.291233      -280.0387
  10   2.0000     -10.290643      -280.0226
  11   2.0000     -10.287372      -279.9336
  12   2.0000     -10.283820      -279.8370
  13   2.0000     -10.281398      -279.7711
  14   2.0000     -10.280570      -279.7485
  15   2.0000     -10.275766      -279.6178
  16   2.0000      -8.082003      -219.9225
  17   2.0000      -8.073903      -219.7021
  18   2.0000      -6.040261      -164.3639
  19   2.0000      -6.036260      -164.2550
  20   2.0000      -6.033096      -164.1689
  21   2.0000      -6.032489      -164.1524
  22   2.0000      -6.028388      -164.0408
  23   2.0000      -6.024557      -163.9365
  24   2.0000      -1.005154       -27.3516
  25   2.0000      -0.985076       -26.8053
  26   2.0000      -0.918329       -24.9890
  27   2.0000      -0.904289       -24.6069
  28   2.0000      -0.868916       -23.6444
  29   2.0000      -0.852434       -23.1959
  30   2.0000      -0.839660       -22.8483
  31   2.0000      -0.813822       -22.1452
  32   2.0000      -0.782785       -21.3007
  33   2.0000      -0.772267       -21.0145
  34   2.0000      -0.708656       -19.2835
  35   2.0000      -0.701165       -19.0797
  36   2.0000      -0.684240       -18.6191
  37   2.0000      -0.660041       -17.9606
  38   2.0000      -0.641640       -17.4599
  39   2.0000      -0.615511       -16.7489
  40   2.0000      -0.604869       -16.4593
  41   2.0000      -0.578505       -15.7419
  42   2.0000      -0.574832       -15.6420
  43   2.0000      -0.557611       -15.1734
  44   2.0000      -0.530922       -14.4471
  45   2.0000      -0.523164       -14.2360
  46   2.0000      -0.516667       -14.0592
  47   2.0000      -0.510186       -13.8829
  48   2.0000      -0.505169       -13.7463
  49   2.0000      -0.500461       -13.6182
  50   2.0000      -0.483671       -13.1614
  51   2.0000      -0.475895       -12.9498
  52   2.0000      -0.473405       -12.8820
  53   2.0000      -0.464027       -12.6268
  54   2.0000      -0.459052       -12.4914
  55   2.0000      -0.456244       -12.4150
  56   2.0000      -0.443769       -12.0756
  57   2.0000      -0.442247       -12.0342
  58   2.0000      -0.432995       -11.7824
  59   2.0000      -0.425283       -11.5725
  60   2.0000      -0.419883       -11.4256
  61   2.0000      -0.412362       -11.2209
  62   2.0000      -0.408274       -11.1097
  63   2.0000      -0.339436        -9.2365
  64   2.0000      -0.333978        -9.0880
  65   2.0000      -0.324727        -8.8363
  66   2.0000      -0.303037        -8.2460
  67   0.0000       0.037270         1.0142
  68   0.0000       0.071824         1.9544
  69   0.0000       0.115565         3.1447
  70   0.0000       0.119656         3.2560
  71   0.0000       0.135670         3.6918

MULLIKEN ATOMIC CHARGES
-----------------------
   0 S :    0.088684
   1 C :   -0.158524
   2 C :   -0.033740
   3 C :   -0.003076
   4 C :   -0.143443
   5 H :    0.021661
   6 C :    0.066787
   7 H :    0.017060
   8 H :    0.025239
   9 C :   -0.130406
  10 H :    0.041331
  11 H :    0.037973
  12 C :   -0.029277
  13 H :    0.028990
  14 H :    0.048759
  15 H :    0.023872
  16 S :    0.126586
  17 C :   -0.075895
  18 C :   -0.024246
  19 C :   -0.038885
  20 C :   -0.182666
  21 H :   -0.003013
  22 C :    0.110699
  23 H :    0.016497
  24 H :    0.014698
  25 C :   -0.106511
  26 H :    0.038350
  27 H :    0.017892
  28 C :   -0.000738
  29 H :    0.030492
  30 H :    0.030839
  31 H :    0.017585
  32 H :    0.075422
  33 H :    0.051004
Sum of atomic charges:    0.0000000

LOEWDIN ATOMIC CHARGES
----------------------
   0 S :    0.384357
   1 C :   -0.193644
   2 C :   -0.068066
   3 C :   -0.067243
   4 C :   -0.194464
   5 H :    0.032382
   6 C :   -0.022654
   7 H :    0.026300
   8 H :    0.018821
   9 C :   -0.042086
  10 H :    0.025148
  11 H :    0.025703
  12 C :   -0.063775
  13 H :    0.023519
  14 H :    0.030199
  15 H :    0.026864
  16 S :    0.439633
  17 C :   -0.190085
  18 C :   -0.067486
  19 C :   -0.042555
  20 C :   -0.209474
  21 H :    0.018556
  22 C :   -0.025000
  23 H :    0.031125
  24 H :    0.023135
  25 C :   -0.040162
  26 H :    0.025824
  27 H :    0.015576
  28 C :   -0.055554
  29 H :    0.022057
  30 H :    0.024576
  31 H :    0.028725
  32 H :    0.039863
  33 H :    0.019887

  Mayer bond orders larger than 0.100000
B(  0-S ,  1-C ) :   1.1431 B(  0-S ,  4-C ) :   1.1136 B(  1-C ,  2-C ) :   1.6313
B(  1-C , 32-H ) :   0.9653 B(  2-C ,  3-C ) :   1.1896 B(  2-C ,  6-C ) :   1.0188
B(  3-C ,  4-C ) :   1.6481 B(  3-C ,  5-H ) :   0.9868 B(  4-C , 20-C ) :   1.0173
B(  6-C ,  7-H ) :   0.9442 B(  6-C ,  8-H ) :   0.9505 B(  6-C ,  9-C ) :   1.0549
B(  9-C , 10-H ) :   0.9644 B(  9-C , 11-H ) :   0.9545 B(  9-C , 12-C ) :   1.0801
B( 12-C , 13-H ) :   0.9753 B( 12-C , 14-H ) :   0.9755 B( 12-C , 15-H ) :   0.9744
B( 16-S , 17-C ) :   1.1971 B( 16-S , 20-C ) :   1.1581 B( 17-C , 18-C ) :   1.5601
B( 17-C , 33-H ) :   0.9647 B( 18-C , 19-C ) :   1.2733 B( 18-C , 21-H ) :   0.9974
B( 19-C , 20-C ) :   1.5866 B( 19-C , 22-C ) :   1.0133 B( 22-C , 23-H ) :   0.9343
B( 22-C , 24-H ) :   0.9199 B( 22-C , 25-C ) :   1.0853 B( 25-C , 26-H ) :   0.9442
B( 25-C , 27-H ) :   0.9530 B( 25-C , 28-C ) :   1.0860 B( 28-C , 29-H ) :   0.9717
B( 28-C , 30-H ) :   0.9724 B( 28-C , 31-H ) :   0.9730

Dispersion correction           -0.013315387
FINAL SINGLE POINT ENERGY     -1339.870558395415

DIPOLE MOMENT
-------------
                                X             Y             Z
Electronic contribution:      0.43693     -14.11055      11.99200
Nuclear contribution   :     -0.31025      14.43287     -12.39493
                        -----------------------------------------
Total Dipole Moment    :      0.12667       0.32232      -0.40293
                        -----------------------------------------
Magnitude (a.u.)       :      0.53131
Magnitude (Debye)      :      1.35048

Rotational constants in cm-1:     0.019748     0.007057     0.006131
Rotational constants in MHz :   592.043897   211.568870   183.790044

                             ****ORCA TERMINATED NORMALLY****
TOTAL RUN TIME: 0 days 0 hours 0 minutes 32 seconds 714 msec
