                         Program Version 4.2.1 -  RELEASE  -
|  1> ! wB97X-D3 SP def2-SVP
|  2> %pal
|  3> nprocs 16
|  4> end
|  5>
|  6> * xyz 0 1
|  7> S 	 -71.6707 	 41.2931 	 126.23
|  8> C 	 -71.4953 	 42.1091 	 127.794
|  9> C 	 -72.013 	 41.2762 	 128.791
| 10> C 	 -72.4429 	 40.0249 	 128.317
| 11> C 	 -72.202 	 39.7812 	 126.955
| 12> H 	 -72.9421 	 39.328 	 128.964
| 13> C 	 -72.0218 	 41.7013 	 130.241
| 14> H 	 -73.0743 	 41.6537 	 130.531
| 15> H 	 -71.6167 	 42.6892 	 130.308
| 16> C 	 -71.2362 	 40.8201 	 131.272
| 17> H 	 -71.6181 	 39.8121 	 131.34
| 18> H 	 -70.2359 	 40.6666 	 130.895
| 19> C 	 -71.2745 	 41.4895 	 132.689
| 20> H 	 -70.6279 	 40.9988 	 133.346
| 21> H 	 -70.6989 	 42.4572 	 132.593
| 22> H 	 -72.3028 	 41.3869 	 133.124
| 23> S 	 -73.8348 	 37.6553 	 126.15
| 24> C 	 -73.0937 	 36.3826 	 125.215
| 25> C 	 -71.7961 	 36.6687 	 124.933
| 26> C 	 -71.3282 	 37.8517 	 125.552
| 27> C 	 -72.3073 	 38.5211 	 126.211
| 28> H 	 -71.2345 	 36.0627 	 124.285
| 29> C 	 -69.932 	 38.2405 	 125.34
| 30> H 	 -69.969 	 39.3113 	 125.101
| 31> H 	 -69.6186 	 37.8829 	 124.399
| 32> C 	 -68.9107 	 37.8843 	 126.475
| 33> H 	 -69.0611 	 36.8354 	 126.764
| 34> H 	 -69.2437 	 38.4881 	 127.385
| 35> C 	 -67.4497 	 38.0889 	 126.051
| 36> H 	 -67.2051 	 39.1347 	 125.96
| 37> H 	 -67.3302 	 37.614 	 125.078
| 38> H 	 -66.9105 	 37.6399 	 126.889
| 39> H 	 -71.1435 	 43.1909 	 127.881
| 40> H 	 -73.6269 	 35.4695 	 124.959
| 41> *
| 42>
| 43>                          ****END OF INPUT****

CARTESIAN COORDINATES (ANGSTROEM)
---------------------------------
  S    -71.670700   41.293100  126.230000
  C    -71.495300   42.109100  127.794000
  C    -72.013000   41.276200  128.791000
  C    -72.442900   40.024900  128.317000
  C    -72.202000   39.781200  126.955000
  H    -72.942100   39.328000  128.964000
  C    -72.021800   41.701300  130.241000
  H    -73.074300   41.653700  130.531000
  H    -71.616700   42.689200  130.308000
  C    -71.236200   40.820100  131.272000
  H    -71.618100   39.812100  131.340000
  H    -70.235900   40.666600  130.895000
  C    -71.274500   41.489500  132.689000
  H    -70.627900   40.998800  133.346000
  H    -70.698900   42.457200  132.593000
  H    -72.302800   41.386900  133.124000
  S    -73.834800   37.655300  126.150000
  C    -73.093700   36.382600  125.215000
  C    -71.796100   36.668700  124.933000
  C    -71.328200   37.851700  125.552000
  C    -72.307300   38.521100  126.211000
  H    -71.234500   36.062700  124.285000
  C    -69.932000   38.240500  125.340000
  H    -69.969000   39.311300  125.101000
  H    -69.618600   37.882900  124.399000
  C    -68.910700   37.884300  126.475000
  H    -69.061100   36.835400  126.764000
  H    -69.243700   38.488100  127.385000
  C    -67.449700   38.088900  126.051000
  H    -67.205100   39.134700  125.960000
  H    -67.330200   37.614000  125.078000
  H    -66.910500   37.639900  126.889000
  H    -71.143500   43.190900  127.881000
  H    -73.626900   35.469500  124.959000

 Total Charge           Charge          ....    0
 Multiplicity           Mult            ....    1
 Number of Electrons    NEL             ....  134
 Basis Dimension        Dim             ....  322

ORBITAL ENERGIES
----------------

  NO   OCC          E(Eh)            E(eV)
   0   2.0000     -88.965041     -2420.8618
   1   2.0000     -88.963742     -2420.8265
   2   2.0000     -10.333321      -281.1840
   3   2.0000     -10.322731      -280.8958
   4   2.0000     -10.321530      -280.8631
   5   2.0000     -10.315030      -280.6862
   6   2.0000     -10.299815      -280.2722
   7   2.0000     -10.293233      -280.0931
   8   2.0000     -10.292473      -280.0724
   9   2.0000     -10.290303      -280.0134
  10   2.0000     -10.289379      -279.9882
  11   2.0000     -10.287005      -279.9236
  12   2.0000     -10.284936      -279.8673
  13   2.0000     -10.284367      -279.8518
  14   2.0000     -10.278654      -279.6964
  15   2.0000     -10.276332      -279.6332
  16   2.0000      -8.078875      -219.8374
  17   2.0000      -8.078696      -219.8325
  18   2.0000      -6.037364      -164.2850
  19   2.0000      -6.037212      -164.2809
  20   2.0000      -6.033406      -164.1773
  21   2.0000      -6.033207      -164.1719
  22   2.0000      -6.029806      -164.0794
  23   2.0000      -6.029410      -164.0686
  24   2.0000      -1.007354       -27.4115
  25   2.0000      -0.984197       -26.7814
  26   2.0000      -0.907592       -24.6968
  27   2.0000      -0.905268       -24.6336
  28   2.0000      -0.867003       -23.5924
  29   2.0000      -0.854162       -23.2429
  30   2.0000      -0.844473       -22.9793
  31   2.0000      -0.813907       -22.1475
  32   2.0000      -0.781812       -21.2742
  33   2.0000      -0.767991       -20.8981
  34   2.0000      -0.708520       -19.2798
  35   2.0000      -0.697570       -18.9819
  36   2.0000      -0.687588       -18.7102
  37   2.0000      -0.669579       -18.2202
  38   2.0000      -0.634326       -17.2609
  39   2.0000      -0.621171       -16.9029
  40   2.0000      -0.598213       -16.2782
  41   2.0000      -0.571174       -15.5424
  42   2.0000      -0.563125       -15.3234
  43   2.0000      -0.555082       -15.1046
  44   2.0000      -0.532670       -14.4947
  45   2.0000      -0.518591       -14.1116
  46   2.0000      -0.514182       -13.9916
  47   2.0000      -0.512893       -13.9565
  48   2.0000      -0.511697       -13.9240
  49   2.0000      -0.503125       -13.6907
  50   2.0000      -0.490382       -13.3440
  51   2.0000      -0.477423       -12.9914
  52   2.0000      -0.468516       -12.7490
  53   2.0000      -0.459423       -12.5015
  54   2.0000      -0.456560       -12.4236
  55   2.0000      -0.449939       -12.2435
  56   2.0000      -0.442685       -12.0461
  57   2.0000      -0.436695       -11.8831
  58   2.0000      -0.429985       -11.7005
  59   2.0000      -0.426104       -11.5949
  60   2.0000      -0.421050       -11.4574
  61   2.0000      -0.415325       -11.3016
  62   2.0000      -0.408403       -11.1132
  63   2.0000      -0.338348        -9.2069
  64   2.0000      -0.331327        -9.0159
  65   2.0000      -0.327330        -8.9071
  66   2.0000      -0.295845        -8.0503
  67   0.0000       0.029990         0.8161
  68   0.0000       0.071372         1.9421
  69   0.0000       0.110212         2.9990
  70   0.0000       0.124548         3.3891
  71   0.0000       0.131109         3.5677

MULLIKEN ATOMIC CHARGES
-----------------------
   0 S :    0.104859
   1 C :   -0.174026
   2 C :   -0.080713
   3 C :    0.044801
   4 C :   -0.162391
   5 H :    0.004709
   6 C :    0.085793
   7 H :    0.033495
   8 H :    0.006757
   9 C :   -0.091961
  10 H :    0.023161
  11 H :    0.024948
  12 C :   -0.047455
  13 H :    0.014928
  14 H :    0.040758
  15 H :    0.054835
  16 S :    0.107111
  17 C :   -0.093505
  18 C :   -0.007955
  19 C :   -0.037554
  20 C :   -0.154236
  21 H :   -0.003188
  22 C :    0.100134
  23 H :    0.011207
  24 H :   -0.013975
  25 C :   -0.102495
  26 H :    0.026536
  27 H :    0.046820
  28 C :   -0.014249
  29 H :    0.034645
  30 H :    0.032184
  31 H :    0.043527
  32 H :    0.082409
  33 H :    0.060086
Sum of atomic charges:   -0.0000000

LOEWDIN ATOMIC CHARGES
----------------------
   0 S :    0.402646
   1 C :   -0.209597
   2 C :   -0.068248
   3 C :   -0.062626
   4 C :   -0.186034
   5 H :    0.027777
   6 C :   -0.027039
   7 H :    0.034067
   8 H :    0.024516
   9 C :   -0.039337
  10 H :    0.018100
  11 H :    0.020497
  12 C :   -0.070659
  13 H :    0.016442
  14 H :    0.036920
  15 H :    0.037395
  16 S :    0.401223
  17 C :   -0.178320
  18 C :   -0.064378
  19 C :   -0.055667
  20 C :   -0.201666
  21 H :    0.023789
  22 C :   -0.039944
  23 H :    0.025210
  24 H :    0.018977
  25 C :   -0.037928
  26 H :    0.021740
  27 H :    0.033506
  28 C :   -0.061260
  29 H :    0.024641
  30 H :    0.026290
  31 H :    0.032387
  32 H :    0.045620
  33 H :    0.030959

  Mayer bond orders larger than 0.100000
B(  0-S ,  1-C ) :   1.1423 B(  0-S ,  4-C ) :   1.1699 B(  1-C ,  2-C ) :   1.5676
B(  1-C ,  4-C ) :   0.1077 B(  1-C , 32-H ) :   0.9602 B(  2-C ,  3-C ) :   1.2802
B(  2-C ,  6-C ) :   1.0345 B(  3-C ,  4-C ) :   1.5336 B(  3-C ,  5-H ) :   0.9974
B(  4-C , 20-C ) :   1.0268 B(  6-C ,  7-H ) :   0.9331 B(  6-C ,  8-H ) :   0.9441
B(  6-C ,  9-C ) :   1.0570 B(  9-C , 10-H ) :   0.9541 B(  9-C , 11-H ) :   0.9581
B(  9-C , 12-C ) :   1.0883 B( 12-C , 13-H ) :   0.9722 B( 12-C , 14-H ) :   0.9719
B( 12-C , 15-H ) :   0.9739 B( 16-S , 17-C ) :   1.1556 B( 16-S , 20-C ) :   1.1294
B( 17-C , 18-C ) :   1.6037 B( 17-C , 33-H ) :   0.9670 B( 18-C , 19-C ) :   1.2397
B( 18-C , 21-H ) :   1.0014 B( 19-C , 20-C ) :   1.6040 B( 19-C , 22-C ) :   1.0530
B( 22-C , 23-H ) :   0.9142 B( 22-C , 24-H ) :   0.9226 B( 22-C , 25-C ) :   1.0462
B( 25-C , 26-H ) :   0.9597 B( 25-C , 27-H ) :   0.9535 B( 25-C , 28-C ) :   1.0738
B( 28-C , 29-H ) :   0.9765 B( 28-C , 30-H ) :   0.9733 B( 28-C , 31-H ) :   0.9753

Dispersion correction           -0.014138922
FINAL SINGLE POINT ENERGY     -1339.877957915572

DIPOLE MOMENT
-------------
                                X             Y             Z
Electronic contribution:    -18.40434      -1.69410     -17.58173
Nuclear contribution   :     18.78642       1.52702      17.93021
                        -----------------------------------------
Total Dipole Moment    :      0.38208      -0.16708       0.34848
                        -----------------------------------------
Magnitude (a.u.)       :      0.54345
Magnitude (Debye)      :      1.38134

Rotational constants in cm-1:     0.017529     0.008119     0.007077
Rotational constants in MHz :   525.492383   243.408996   212.156570

                             ****ORCA TERMINATED NORMALLY****
TOTAL RUN TIME: 0 days 0 hours 0 minutes 33 seconds 215 msec
