                         Program Version 4.2.1 -  RELEASE  -
|  1> ! wB97X-D3 SP def2-SVP
|  2> %pal
|  3> nprocs 16
|  4> end
|  5>
|  6> * xyz 0 1
|  7> S 	 26.9761 	 7.0922 	 75.6097
|  8> C 	 28.6976 	 7.50797 	 75.7138
|  9> C 	 29.3965 	 6.59873 	 76.5015
| 10> C 	 28.6071 	 5.48359 	 76.9916
| 11> C 	 27.2475 	 5.63062 	 76.6136
| 12> H 	 28.9526 	 4.62562 	 77.5099
| 13> C 	 30.9217 	 6.51314 	 76.7733
| 14> H 	 30.9799 	 6.59962 	 77.8753
| 15> H 	 31.4684 	 7.36925 	 76.4581
| 16> C 	 31.7086 	 5.30096 	 76.2888
| 17> H 	 32.7791 	 5.49474 	 76.3487
| 18> H 	 31.5497 	 4.44043 	 77.0185
| 19> C 	 31.3829 	 4.7794 	 74.8397
| 20> H 	 31.7446 	 3.82843 	 74.6738
| 21> H 	 30.2542 	 4.7142 	 74.7897
| 22> H 	 31.7069 	 5.41532 	 73.9904
| 23> S 	 25.539 	 3.62993 	 75.8798
| 24> C 	 24.4339 	 2.98027 	 77.0896
| 25> C 	 24.4671 	 3.71359 	 78.2745
| 26> C 	 25.4808 	 4.74936 	 78.2886
| 27> C 	 26.2101 	 4.74952 	 77.0811
| 28> H 	 23.7246 	 3.51702 	 79.0136
| 29> C 	 25.7013 	 5.5948 	 79.4979
| 30> H 	 24.7941 	 6.09262 	 79.7127
| 31> H 	 26.5255 	 6.40031 	 79.2209
| 32> C 	 26.3193 	 4.7883 	 80.6518
| 33> H 	 27.2931 	 4.35234 	 80.3394
| 34> H 	 25.6336 	 4.00564 	 81.0017
| 35> C 	 26.7193 	 5.67606 	 81.774
| 36> H 	 25.9683 	 6.40166 	 82.1103
| 37> H 	 27.5073 	 6.32821 	 81.4517
| 38> H 	 26.9798 	 5.09386 	 82.6386
| 39> H 	 29.0507 	 8.39738 	 75.1653
| 40> H 	 23.7659 	 2.08179 	 76.9721
| 41> *
| 42>
| 43>                          ****END OF INPUT****

CARTESIAN COORDINATES (ANGSTROEM)
---------------------------------
  S     26.976100    7.092200   75.609700
  C     28.697600    7.507970   75.713800
  C     29.396500    6.598730   76.501500
  C     28.607100    5.483590   76.991600
  C     27.247500    5.630620   76.613600
  H     28.952600    4.625620   77.509900
  C     30.921700    6.513140   76.773300
  H     30.979900    6.599620   77.875300
  H     31.468400    7.369250   76.458100
  C     31.708600    5.300960   76.288800
  H     32.779100    5.494740   76.348700
  H     31.549700    4.440430   77.018500
  C     31.382900    4.779400   74.839700
  H     31.744600    3.828430   74.673800
  H     30.254200    4.714200   74.789700
  H     31.706900    5.415320   73.990400
  S     25.539000    3.629930   75.879800
  C     24.433900    2.980270   77.089600
  C     24.467100    3.713590   78.274500
  C     25.480800    4.749360   78.288600
  C     26.210100    4.749520   77.081100
  H     23.724600    3.517020   79.013600
  C     25.701300    5.594800   79.497900
  H     24.794100    6.092620   79.712700
  H     26.525500    6.400310   79.220900
  C     26.319300    4.788300   80.651800
  H     27.293100    4.352340   80.339400
  H     25.633600    4.005640   81.001700
  C     26.719300    5.676060   81.774000
  H     25.968300    6.401660   82.110300
  H     27.507300    6.328210   81.451700
  H     26.979800    5.093860   82.638600
  H     29.050700    8.397380   75.165300
  H     23.765900    2.081790   76.972100

 Total Charge           Charge          ....    0
 Multiplicity           Mult            ....    1
 Number of Electrons    NEL             ....  134
 Basis Dimension        Dim             ....  322

ORBITAL ENERGIES
----------------

  NO   OCC          E(Eh)            E(eV)
   0   2.0000     -88.967472     -2420.9280
   1   2.0000     -88.964830     -2420.8561
   2   2.0000     -10.332809      -281.1700
   3   2.0000     -10.324825      -280.9528
   4   2.0000     -10.322900      -280.9004
   5   2.0000     -10.322373      -280.8860
   6   2.0000     -10.309246      -280.5288
   7   2.0000     -10.307175      -280.4725
   8   2.0000     -10.298951      -280.2487
   9   2.0000     -10.295079      -280.1433
  10   2.0000     -10.294258      -280.1210
  11   2.0000     -10.293816      -280.1090
  12   2.0000     -10.292143      -280.0634
  13   2.0000     -10.286657      -279.9142
  14   2.0000     -10.274957      -279.5958
  15   2.0000     -10.269479      -279.4467
  16   2.0000      -8.081113      -219.8983
  17   2.0000      -8.078995      -219.8406
  18   2.0000      -6.039667      -164.3477
  19   2.0000      -6.037509      -164.2890
  20   2.0000      -6.035786      -164.2421
  21   2.0000      -6.033640      -164.1837
  22   2.0000      -6.031873      -164.1356
  23   2.0000      -6.029733      -164.0774
  24   2.0000      -0.995978       -27.1019
  25   2.0000      -0.972506       -26.4632
  26   2.0000      -0.914149       -24.8753
  27   2.0000      -0.902761       -24.5654
  28   2.0000      -0.864901       -23.5352
  29   2.0000      -0.853223       -23.2174
  30   2.0000      -0.840123       -22.8609
  31   2.0000      -0.807795       -21.9812
  32   2.0000      -0.783173       -21.3112
  33   2.0000      -0.767634       -20.8884
  34   2.0000      -0.702445       -19.1145
  35   2.0000      -0.694410       -18.8959
  36   2.0000      -0.690379       -18.7862
  37   2.0000      -0.657036       -17.8788
  38   2.0000      -0.642774       -17.4908
  39   2.0000      -0.616317       -16.7708
  40   2.0000      -0.590494       -16.0682
  41   2.0000      -0.572992       -15.5919
  42   2.0000      -0.553935       -15.0733
  43   2.0000      -0.549165       -14.9435
  44   2.0000      -0.537766       -14.6334
  45   2.0000      -0.529767       -14.4157
  46   2.0000      -0.515189       -14.0190
  47   2.0000      -0.511762       -13.9258
  48   2.0000      -0.508287       -13.8312
  49   2.0000      -0.493944       -13.4409
  50   2.0000      -0.488764       -13.2999
  51   2.0000      -0.474238       -12.9047
  52   2.0000      -0.465777       -12.6744
  53   2.0000      -0.460109       -12.5202
  54   2.0000      -0.453553       -12.3418
  55   2.0000      -0.445505       -12.1228
  56   2.0000      -0.444149       -12.0859
  57   2.0000      -0.439087       -11.9482
  58   2.0000      -0.429209       -11.6794
  59   2.0000      -0.425176       -11.5696
  60   2.0000      -0.416996       -11.3471
  61   2.0000      -0.412736       -11.2311
  62   2.0000      -0.409777       -11.1506
  63   2.0000      -0.334647        -9.1062
  64   2.0000      -0.327279        -8.9057
  65   2.0000      -0.321348        -8.7443
  66   2.0000      -0.303433        -8.2568
  67   0.0000       0.039279         1.0688
  68   0.0000       0.050662         1.3786
  69   0.0000       0.109659         2.9840
  70   0.0000       0.117998         3.2109
  71   0.0000       0.122510         3.3337

MULLIKEN ATOMIC CHARGES
-----------------------
   0 S :    0.110231
   1 C :   -0.147664
   2 C :   -0.071171
   3 C :    0.037863
   4 C :   -0.159490
   5 H :    0.014801
   6 C :    0.087033
   7 H :    0.035118
   8 H :    0.006514
   9 C :   -0.108915
  10 H :    0.034961
  11 H :    0.032716
  12 C :   -0.044049
  13 H :    0.018894
  14 H :    0.046581
  15 H :    0.037651
  16 S :    0.106267
  17 C :   -0.108701
  18 C :   -0.036917
  19 C :    0.001923
  20 C :   -0.205283
  21 H :    0.013788
  22 C :    0.043838
  23 H :    0.028601
  24 H :    0.045641
  25 C :   -0.082551
  26 H :    0.034978
  27 H :    0.034041
  28 C :   -0.017359
  29 H :    0.015928
  30 H :    0.020623
  31 H :    0.032133
  32 H :    0.066223
  33 H :    0.075754
Sum of atomic charges:   -0.0000000

LOEWDIN ATOMIC CHARGES
----------------------
   0 S :    0.379642
   1 C :   -0.193725
   2 C :   -0.062779
   3 C :   -0.048011
   4 C :   -0.187978
   5 H :    0.029308
   6 C :   -0.036657
   7 H :    0.038216
   8 H :    0.022084
   9 C :   -0.046130
  10 H :    0.025809
  11 H :    0.026789
  12 C :   -0.066470
  13 H :    0.013380
  14 H :    0.035506
  15 H :    0.027832
  16 S :    0.392549
  17 C :   -0.187962
  18 C :   -0.073243
  19 C :   -0.043214
  20 C :   -0.205699
  21 H :    0.026898
  22 C :   -0.033695
  23 H :    0.026950
  24 H :    0.045268
  25 C :   -0.039838
  26 H :    0.032873
  27 H :    0.022646
  28 C :   -0.066445
  29 H :    0.022567
  30 H :    0.022640
  31 H :    0.025046
  32 H :    0.034406
  33 H :    0.041436

  Mayer bond orders larger than 0.100000
B(  0-S ,  1-C ) :   1.1278 B(  0-S ,  4-C ) :   1.1409 B(  1-C ,  2-C ) :   1.6210
B(  1-C , 32-H ) :   0.9674 B(  2-C ,  3-C ) :   1.2072 B(  2-C ,  6-C ) :   1.0171
B(  3-C ,  4-C ) :   1.5773 B(  3-C ,  5-H ) :   0.9979 B(  4-C , 20-C ) :   1.0507
B(  6-C ,  7-H ) :   0.9387 B(  6-C ,  8-H ) :   0.9461 B(  6-C ,  9-C ) :   1.0679
B(  9-C , 10-H ) :   0.9567 B(  9-C , 11-H ) :   0.9537 B(  9-C , 12-C ) :   1.0744
B( 12-C , 13-H ) :   0.9756 B( 12-C , 14-H ) :   0.9707 B( 12-C , 15-H ) :   0.9771
B( 16-S , 17-C ) :   1.1500 B( 16-S , 20-C ) :   1.1336 B( 17-C , 18-C ) :   1.6282
B( 17-C , 33-H ) :   0.9588 B( 18-C , 19-C ) :   1.2145 B( 18-C , 21-H ) :   0.9908
B( 19-C , 20-C ) :   1.5941 B( 19-C , 22-C ) :   1.0521 B( 22-C , 23-H ) :   0.9269
B( 22-C , 24-H ) :   0.9351 B( 22-C , 25-C ) :   1.0664 B( 25-C , 26-H ) :   0.9517
B( 25-C , 27-H ) :   0.9548 B( 25-C , 28-C ) :   1.0968 B( 28-C , 29-H ) :   0.9684
B( 28-C , 30-H ) :   0.9710 B( 28-C , 31-H ) :   0.9712

Dispersion correction           -0.014691716
FINAL SINGLE POINT ENERGY     -1339.873045595539

DIPOLE MOMENT
-------------
                                X             Y             Z
Electronic contribution:    -16.96530       0.33096     -15.86453
Nuclear contribution   :     17.22132      -0.36902      16.37933
                        -----------------------------------------
Total Dipole Moment    :      0.25602      -0.03807       0.51481
                        -----------------------------------------
Magnitude (a.u.)       :      0.57621
Magnitude (Debye)      :      1.46462

Rotational constants in cm-1:     0.017113     0.008887     0.007423
Rotational constants in MHz :   513.046863   266.428195   222.536692

                             ****ORCA TERMINATED NORMALLY****
TOTAL RUN TIME: 0 days 0 hours 0 minutes 34 seconds 781 msec
