                         Program Version 4.2.1 -  RELEASE  -
|  1> ! wB97X-D3 SP def2-SVP
|  2> %pal
|  3> nprocs 16
|  4> end
|  5>
|  6> * xyz 0 1
|  7> S 	 53.1668 	 5.52901 	 82.1952
|  8> C 	 54.4156 	 4.39778 	 81.8619
|  9> C 	 53.8998 	 3.17037 	 82.2799
| 10> C 	 52.5416 	 3.1557 	 82.6775
| 11> C 	 51.9143 	 4.35733 	 82.6433
| 12> H 	 51.9987 	 2.26644 	 83.0037
| 13> C 	 54.8056 	 2.0023 	 82.3309
| 14> H 	 55.8769 	 2.37249 	 82.3928
| 15> H 	 54.7398 	 1.57613 	 81.3525
| 16> C 	 54.5249 	 0.974606 	 83.4892
| 17> H 	 54.6405 	 1.61181 	 84.3749
| 18> H 	 53.511 	 0.61462 	 83.5548
| 19> C 	 55.4576 	 -0.262738 	 83.5815
| 20> H 	 55.9133 	 -0.464151 	 82.5946
| 21> H 	 56.3318 	 -0.135914 	 84.2392
| 22> H 	 54.9531 	 -1.11475 	 84.0461
| 23> S 	 49.7224 	 3.88924 	 84.2311
| 24> C 	 48.2329 	 4.52199 	 83.8364
| 25> C 	 48.2951 	 5.38706 	 82.7428
| 26> C 	 49.6045 	 5.48864 	 82.2203
| 27> C 	 50.5201 	 4.66703 	 82.892
| 28> H 	 47.3702 	 5.91289 	 82.3896
| 29> C 	 49.9133 	 6.21843 	 80.9404
| 30> H 	 50.9182 	 6.02992 	 80.6748
| 31> H 	 49.9421 	 7.25689 	 81.0731
| 32> C 	 49.0013 	 5.76762 	 79.7789
| 33> H 	 47.9347 	 5.92843 	 80.0187
| 34> H 	 49.1011 	 4.70171 	 79.5899
| 35> C 	 49.4323 	 6.55398 	 78.5051
| 36> H 	 50.4469 	 6.42529 	 78.2663
| 37> H 	 49.2438 	 7.63207 	 78.7941
| 38> H 	 48.8004 	 6.35112 	 77.6381
| 39> H 	 55.4583 	 4.5624 	 81.5135
| 40> H 	 47.2916 	 4.36181 	 84.379
| 41> *
| 42>
| 43>                          ****END OF INPUT****

CARTESIAN COORDINATES (ANGSTROEM)
---------------------------------
  S     53.166800    5.529010   82.195200
  C     54.415600    4.397780   81.861900
  C     53.899800    3.170370   82.279900
  C     52.541600    3.155700   82.677500
  C     51.914300    4.357330   82.643300
  H     51.998700    2.266440   83.003700
  C     54.805600    2.002300   82.330900
  H     55.876900    2.372490   82.392800
  H     54.739800    1.576130   81.352500
  C     54.524900    0.974606   83.489200
  H     54.640500    1.611810   84.374900
  H     53.511000    0.614620   83.554800
  C     55.457600   -0.262738   83.581500
  H     55.913300   -0.464151   82.594600
  H     56.331800   -0.135914   84.239200
  H     54.953100   -1.114750   84.046100
  S     49.722400    3.889240   84.231100
  C     48.232900    4.521990   83.836400
  C     48.295100    5.387060   82.742800
  C     49.604500    5.488640   82.220300
  C     50.520100    4.667030   82.892000
  H     47.370200    5.912890   82.389600
  C     49.913300    6.218430   80.940400
  H     50.918200    6.029920   80.674800
  H     49.942100    7.256890   81.073100
  C     49.001300    5.767620   79.778900
  H     47.934700    5.928430   80.018700
  H     49.101100    4.701710   79.589900
  C     49.432300    6.553980   78.505100
  H     50.446900    6.425290   78.266300
  H     49.243800    7.632070   78.794100
  H     48.800400    6.351120   77.638100
  H     55.458300    4.562400   81.513500
  H     47.291600    4.361810   84.379000

 Total Charge           Charge          ....    0
 Multiplicity           Mult            ....    1
 Number of Electrons    NEL             ....  134
 Basis Dimension        Dim             ....  322

ORBITAL ENERGIES
----------------

  NO   OCC          E(Eh)            E(eV)
   0   2.0000     -88.969313     -2420.9781
   1   2.0000     -88.962516     -2420.7931
   2   2.0000     -10.330565      -281.1090
   3   2.0000     -10.326747      -281.0051
   4   2.0000     -10.315782      -280.7067
   5   2.0000     -10.314876      -280.6820
   6   2.0000     -10.302973      -280.3581
   7   2.0000     -10.296035      -280.1694
   8   2.0000     -10.295807      -280.1632
   9   2.0000     -10.291238      -280.0388
  10   2.0000     -10.289768      -279.9988
  11   2.0000     -10.288942      -279.9764
  12   2.0000     -10.285916      -279.8940
  13   2.0000     -10.281523      -279.7745
  14   2.0000     -10.278143      -279.6825
  15   2.0000     -10.275939      -279.6225
  16   2.0000      -8.085411      -220.0152
  17   2.0000      -8.076947      -219.7849
  18   2.0000      -6.043702      -164.4575
  19   2.0000      -6.039529      -164.3440
  20   2.0000      -6.036529      -164.2623
  21   2.0000      -6.035583      -164.2366
  22   2.0000      -6.031236      -164.1183
  23   2.0000      -6.027788      -164.0245
  24   2.0000      -1.014642       -27.6098
  25   2.0000      -0.994117       -27.0513
  26   2.0000      -0.911482       -24.8027
  27   2.0000      -0.906090       -24.6560
  28   2.0000      -0.873680       -23.7740
  29   2.0000      -0.851725       -23.1766
  30   2.0000      -0.842975       -22.9385
  31   2.0000      -0.818737       -22.2790
  32   2.0000      -0.780424       -21.2364
  33   2.0000      -0.764964       -20.8157
  34   2.0000      -0.713288       -19.4095
  35   2.0000      -0.704008       -19.1570
  36   2.0000      -0.689103       -18.7514
  37   2.0000      -0.662058       -18.0155
  38   2.0000      -0.631836       -17.1931
  39   2.0000      -0.622684       -16.9441
  40   2.0000      -0.601734       -16.3740
  41   2.0000      -0.569105       -15.4861
  42   2.0000      -0.562408       -15.3039
  43   2.0000      -0.560324       -15.2472
  44   2.0000      -0.529593       -14.4109
  45   2.0000      -0.524926       -14.2840
  46   2.0000      -0.517923       -14.0934
  47   2.0000      -0.514914       -14.0115
  48   2.0000      -0.504974       -13.7410
  49   2.0000      -0.500090       -13.6082
  50   2.0000      -0.487192       -13.2572
  51   2.0000      -0.482977       -13.1425
  52   2.0000      -0.474098       -12.9009
  53   2.0000      -0.470204       -12.7949
  54   2.0000      -0.458087       -12.4652
  55   2.0000      -0.452525       -12.3138
  56   2.0000      -0.446165       -12.1408
  57   2.0000      -0.435049       -11.8383
  58   2.0000      -0.430680       -11.7194
  59   2.0000      -0.424999       -11.5648
  60   2.0000      -0.416793       -11.3415
  61   2.0000      -0.414137       -11.2692
  62   2.0000      -0.403590       -10.9822
  63   2.0000      -0.355095        -9.6626
  64   2.0000      -0.334150        -9.0927
  65   2.0000      -0.322127        -8.7655
  66   2.0000      -0.288472        -7.8497
  67   0.0000       0.026775         0.7286
  68   0.0000       0.079597         2.1660
  69   0.0000       0.115358         3.1391
  70   0.0000       0.125713         3.4208
  71   0.0000       0.141558         3.8520

MULLIKEN ATOMIC CHARGES
-----------------------
   0 S :    0.102147
   1 C :   -0.135061
   2 C :   -0.112586
   3 C :    0.008902
   4 C :   -0.115508
   5 H :    0.013500
   6 C :    0.061545
   7 H :    0.029658
   8 H :    0.032447
   9 C :   -0.100624
  10 H :    0.034664
  11 H :    0.035600
  12 C :   -0.048477
  13 H :    0.034735
  14 H :    0.028681
  15 H :    0.037098
  16 S :    0.134108
  17 C :   -0.096221
  18 C :   -0.077323
  19 C :   -0.019131
  20 C :   -0.169951
  21 H :    0.038254
  22 C :    0.121029
  23 H :   -0.008860
  24 H :    0.014260
  25 C :   -0.102585
  26 H :    0.032924
  27 H :    0.036055
  28 C :   -0.039346
  29 H :    0.031460
  30 H :    0.028363
  31 H :    0.035763
  32 H :    0.069251
  33 H :    0.065228
Sum of atomic charges:    0.0000000

LOEWDIN ATOMIC CHARGES
----------------------
   0 S :    0.416790
   1 C :   -0.219356
   2 C :   -0.071425
   3 C :   -0.076838
   4 C :   -0.182097
   5 H :    0.030882
   6 C :   -0.036675
   7 H :    0.035508
   8 H :    0.027130
   9 C :   -0.044714
  10 H :    0.028993
  11 H :    0.021136
  12 C :   -0.072581
  13 H :    0.028415
  14 H :    0.026609
  15 H :    0.029657
  16 S :    0.456758
  17 C :   -0.215145
  18 C :   -0.082136
  19 C :   -0.047087
  20 C :   -0.209268
  21 H :    0.040176
  22 C :   -0.029129
  23 H :    0.013991
  24 H :    0.025394
  25 C :   -0.033399
  26 H :    0.021662
  27 H :    0.024234
  28 C :   -0.062352
  29 H :    0.018003
  30 H :    0.030602
  31 H :    0.024900
  32 H :    0.044731
  33 H :    0.036632

  Mayer bond orders larger than 0.100000
B(  0-S ,  1-C ) :   1.1456 B(  0-S ,  4-C ) :   1.1491 B(  1-C ,  2-C ) :   1.5617
B(  1-C ,  4-C ) :   0.1012 B(  1-C , 32-H ) :   0.9713 B(  2-C ,  3-C ) :   1.2740
B(  2-C ,  6-C ) :   1.0230 B(  3-C ,  4-C ) :   1.5448 B(  3-C ,  5-H ) :   0.9915
B(  4-C , 20-C ) :   1.0504 B(  6-C ,  7-H ) :   0.9496 B(  6-C ,  8-H ) :   0.9244
B(  6-C ,  9-C ) :   1.0589 B(  9-C , 10-H ) :   0.9624 B(  9-C , 11-H ) :   0.9592
B(  9-C , 12-C ) :   1.0698 B( 12-C , 13-H ) :   0.9782 B( 12-C , 14-H ) :   0.9762
B( 12-C , 15-H ) :   0.9776 B( 16-S , 17-C ) :   1.1987 B( 16-S , 20-C ) :   1.1571
B( 17-C , 18-C ) :   1.5591 B( 17-C , 33-H ) :   0.9640 B( 18-C , 19-C ) :   1.2803
B( 18-C , 21-H ) :   0.9857 B( 19-C , 20-C ) :   1.5355 B( 19-C , 22-C ) :   1.0476
B( 22-C , 23-H ) :   0.9203 B( 22-C , 24-H ) :   0.9228 B( 22-C , 25-C ) :   1.0567
B( 25-C , 26-H ) :   0.9568 B( 25-C , 27-H ) :   0.9580 B( 25-C , 28-C ) :   1.0775
B( 28-C , 29-H ) :   0.9778 B( 28-C , 30-H ) :   0.9753 B( 28-C , 31-H ) :   0.9747

Dispersion correction           -0.013593831
FINAL SINGLE POINT ENERGY     -1339.879425854358

DIPOLE MOMENT
-------------
                                X             Y             Z
Electronic contribution:     -5.53988       8.47977      11.88418
Nuclear contribution   :      5.48783      -8.73880     -12.04819
                        -----------------------------------------
Total Dipole Moment    :     -0.05205      -0.25902      -0.16400
                        -----------------------------------------
Magnitude (a.u.)       :      0.31097
Magnitude (Debye)      :      0.79041

Rotational constants in cm-1:     0.020333     0.007716     0.006304
Rotational constants in MHz :   609.582831   231.320117   188.982245

                             ****ORCA TERMINATED NORMALLY****
TOTAL RUN TIME: 0 days 0 hours 0 minutes 27 seconds 644 msec
