                         Program Version 4.2.1 -  RELEASE  -
|  1> ! wB97X-D3 SP def2-SVP
|  2> %pal
|  3> nprocs 16
|  4> end
|  5>
|  6> * xyz 0 1
|  7> S 	 26.4392 	 -11.5977 	 79.2855
|  8> C 	 26.841 	 -11.6575 	 77.6111
|  9> C 	 25.7274 	 -11.5694 	 76.8252
| 10> C 	 24.5094 	 -11.6961 	 77.6264
| 11> C 	 24.6728 	 -11.6746 	 78.9872
| 12> H 	 23.5732 	 -11.752 	 77.1872
| 13> C 	 25.626 	 -11.6167 	 75.2829
| 14> H 	 25.1877 	 -12.5586 	 75.0079
| 15> H 	 26.6758 	 -11.5972 	 74.9991
| 16> C 	 24.9892 	 -10.4475 	 74.3785
| 17> H 	 25.1824 	 -10.7975 	 73.3046
| 18> H 	 23.8407 	 -10.4627 	 74.4174
| 19> C 	 25.5057 	 -9.02297 	 74.6671
| 20> H 	 24.9838 	 -8.31777 	 74.0344
| 21> H 	 25.4231 	 -8.67931 	 75.6967
| 22> H 	 26.5569 	 -8.98694 	 74.428
| 23> S 	 23.7462 	 -13.2644 	 81.0254
| 24> C 	 22.1717 	 -12.9635 	 81.7405
| 25> C 	 21.6021 	 -11.8591 	 81.1832
| 26> C 	 22.3875 	 -11.2004 	 80.152
| 27> C 	 23.6119 	 -11.8491 	 79.9735
| 28> H 	 20.6403 	 -11.6119 	 81.5334
| 29> C 	 22.0133 	 -9.98302 	 79.4788
| 30> H 	 21.5015 	 -10.3059 	 78.6476
| 31> H 	 22.8466 	 -9.47171 	 78.9733
| 32> C 	 21.1843 	 -8.95963 	 80.2928
| 33> H 	 21.7905 	 -8.64609 	 81.143
| 34> H 	 20.4093 	 -9.39563 	 80.9068
| 35> C 	 20.6189 	 -7.73219 	 79.4633
| 36> H 	 21.1243 	 -7.61019 	 78.5507
| 37> H 	 20.7225 	 -6.8123 	 80.0153
| 38> H 	 19.6087 	 -7.94948 	 79.1932
| 39> H 	 27.8148 	 -11.7 	 77.2341
| 40> H 	 21.665 	 -13.5475 	 82.5023
| 41> *
| 42>
| 43>                          ****END OF INPUT****

CARTESIAN COORDINATES (ANGSTROEM)
---------------------------------
  S     26.439200  -11.597700   79.285500
  C     26.841000  -11.657500   77.611100
  C     25.727400  -11.569400   76.825200
  C     24.509400  -11.696100   77.626400
  C     24.672800  -11.674600   78.987200
  H     23.573200  -11.752000   77.187200
  C     25.626000  -11.616700   75.282900
  H     25.187700  -12.558600   75.007900
  H     26.675800  -11.597200   74.999100
  C     24.989200  -10.447500   74.378500
  H     25.182400  -10.797500   73.304600
  H     23.840700  -10.462700   74.417400
  C     25.505700   -9.022970   74.667100
  H     24.983800   -8.317770   74.034400
  H     25.423100   -8.679310   75.696700
  H     26.556900   -8.986940   74.428000
  S     23.746200  -13.264400   81.025400
  C     22.171700  -12.963500   81.740500
  C     21.602100  -11.859100   81.183200
  C     22.387500  -11.200400   80.152000
  C     23.611900  -11.849100   79.973500
  H     20.640300  -11.611900   81.533400
  C     22.013300   -9.983020   79.478800
  H     21.501500  -10.305900   78.647600
  H     22.846600   -9.471710   78.973300
  C     21.184300   -8.959630   80.292800
  H     21.790500   -8.646090   81.143000
  H     20.409300   -9.395630   80.906800
  C     20.618900   -7.732190   79.463300
  H     21.124300   -7.610190   78.550700
  H     20.722500   -6.812300   80.015300
  H     19.608700   -7.949480   79.193200
  H     27.814800  -11.700000   77.234100
  H     21.665000  -13.547500   82.502300

 Total Charge           Charge          ....    0
 Multiplicity           Mult            ....    1
 Number of Electrons    NEL             ....  134
 Basis Dimension        Dim             ....  322

ORBITAL ENERGIES
----------------

  NO   OCC          E(Eh)            E(eV)
   0   2.0000     -88.963343     -2420.8156
   1   2.0000     -88.961304     -2420.7601
   2   2.0000     -10.330831      -281.1162
   3   2.0000     -10.327012      -281.0123
   4   2.0000     -10.316368      -280.7227
   5   2.0000     -10.311554      -280.5916
   6   2.0000     -10.307480      -280.4808
   7   2.0000     -10.305610      -280.4299
   8   2.0000     -10.302121      -280.3350
   9   2.0000     -10.297911      -280.2204
  10   2.0000     -10.290483      -280.0183
  11   2.0000     -10.288643      -279.9682
  12   2.0000     -10.288123      -279.9541
  13   2.0000     -10.282562      -279.8027
  14   2.0000     -10.278492      -279.6920
  15   2.0000     -10.275475      -279.6099
  16   2.0000      -8.077980      -219.8130
  17   2.0000      -8.075841      -219.7548
  18   2.0000      -6.036691      -164.2667
  19   2.0000      -6.034422      -164.2050
  20   2.0000      -6.032479      -164.1521
  21   2.0000      -6.030329      -164.0936
  22   2.0000      -6.028525      -164.0445
  23   2.0000      -6.026570      -163.9913
  24   2.0000      -1.003100       -27.2958
  25   2.0000      -0.982627       -26.7386
  26   2.0000      -0.911319       -24.7983
  27   2.0000      -0.897594       -24.4248
  28   2.0000      -0.872982       -23.7550
  29   2.0000      -0.848593       -23.0914
  30   2.0000      -0.842623       -22.9289
  31   2.0000      -0.820080       -22.3155
  32   2.0000      -0.783159       -21.3108
  33   2.0000      -0.774430       -21.0733
  34   2.0000      -0.718936       -19.5632
  35   2.0000      -0.705223       -19.1901
  36   2.0000      -0.695164       -18.9164
  37   2.0000      -0.654970       -17.8226
  38   2.0000      -0.644276       -17.5316
  39   2.0000      -0.621313       -16.9068
  40   2.0000      -0.600714       -16.3463
  41   2.0000      -0.563410       -15.3312
  42   2.0000      -0.557585       -15.1727
  43   2.0000      -0.552261       -15.0278
  44   2.0000      -0.535146       -14.5621
  45   2.0000      -0.529709       -14.4141
  46   2.0000      -0.518862       -14.1189
  47   2.0000      -0.514958       -14.0127
  48   2.0000      -0.509470       -13.8634
  49   2.0000      -0.498752       -13.5717
  50   2.0000      -0.491990       -13.3877
  51   2.0000      -0.480290       -13.0694
  52   2.0000      -0.474613       -12.9149
  53   2.0000      -0.464096       -12.6287
  54   2.0000      -0.457328       -12.4445
  55   2.0000      -0.452457       -12.3120
  56   2.0000      -0.449731       -12.2378
  57   2.0000      -0.441844       -12.0232
  58   2.0000      -0.432387       -11.7659
  59   2.0000      -0.422332       -11.4922
  60   2.0000      -0.418328       -11.3833
  61   2.0000      -0.412026       -11.2118
  62   2.0000      -0.407891       -11.0993
  63   2.0000      -0.348086        -9.4719
  64   2.0000      -0.324787        -8.8379
  65   2.0000      -0.324406        -8.8275
  66   2.0000      -0.298339        -8.1182
  67   0.0000       0.033026         0.8987
  68   0.0000       0.073825         2.0089
  69   0.0000       0.118658         3.2289
  70   0.0000       0.124109         3.3772
  71   0.0000       0.133075         3.6211

MULLIKEN ATOMIC CHARGES
-----------------------
   0 S :    0.104934
   1 C :   -0.097340
   2 C :   -0.094064
   3 C :    0.053240
   4 C :   -0.143561
   5 H :   -0.017229
   6 C :    0.061428
   7 H :    0.041461
   8 H :    0.011170
   9 C :   -0.123841
  10 H :    0.044609
  11 H :    0.035248
  12 C :   -0.033303
  13 H :    0.034024
  14 H :    0.046708
  15 H :    0.025726
  16 S :    0.100327
  17 C :   -0.081394
  18 C :   -0.038786
  19 C :   -0.021034
  20 C :   -0.165169
  21 H :   -0.000942
  22 C :    0.123616
  23 H :    0.006757
  24 H :    0.030693
  25 C :   -0.112986
  26 H :    0.025941
  27 H :    0.020375
  28 C :   -0.007380
  29 H :    0.016318
  30 H :    0.038464
  31 H :    0.031298
  32 H :    0.028411
  33 H :    0.056283
Sum of atomic charges:    0.0000000

LOEWDIN ATOMIC CHARGES
----------------------
   0 S :    0.392220
   1 C :   -0.188410
   2 C :   -0.069357
   3 C :   -0.046959
   4 C :   -0.188377
   5 H :    0.016596
   6 C :   -0.032854
   7 H :    0.031690
   8 H :    0.026936
   9 C :   -0.047808
  10 H :    0.033981
  11 H :    0.023247
  12 C :   -0.066907
  13 H :    0.027370
  14 H :    0.030184
  15 H :    0.023826
  16 S :    0.393687
  17 C :   -0.178442
  18 C :   -0.071142
  19 C :   -0.044121
  20 C :   -0.193941
  21 H :    0.022479
  22 C :   -0.037506
  23 H :    0.025520
  24 H :    0.039125
  25 C :   -0.040400
  26 H :    0.025949
  27 H :    0.019751
  28 C :   -0.053868
  29 H :    0.018740
  30 H :    0.029501
  31 H :    0.025009
  32 H :    0.020045
  33 H :    0.034239

  Mayer bond orders larger than 0.100000
B(  0-S ,  1-C ) :   1.1426 B(  0-S ,  4-C ) :   1.1168 B(  1-C ,  2-C ) :   1.6279
B(  1-C , 32-H ) :   0.9700 B(  2-C ,  3-C ) :   1.2134 B(  2-C ,  6-C ) :   1.0169
B(  3-C ,  4-C ) :   1.5957 B(  3-C ,  5-H ) :   1.0068 B(  4-C , 20-C ) :   1.0465
B(  6-C ,  7-H ) :   0.9470 B(  6-C ,  8-H ) :   0.9419 B(  6-C ,  9-C ) :   1.0558
B(  9-C , 10-H ) :   0.9564 B(  9-C , 11-H ) :   0.9591 B(  9-C , 12-C ) :   1.0672
B( 12-C , 13-H ) :   0.9735 B( 12-C , 14-H ) :   0.9753 B( 12-C , 15-H ) :   0.9757
B( 16-S , 17-C ) :   1.1436 B( 16-S , 20-C ) :   1.1323 B( 17-C , 18-C ) :   1.6413
B( 17-C , 33-H ) :   0.9644 B( 18-C , 19-C ) :   1.2012 B( 18-C , 21-H ) :   0.9963
B( 19-C , 20-C ) :   1.5942 B( 19-C , 22-C ) :   1.0627 B( 22-C , 23-H ) :   0.9022
B( 22-C , 24-H ) :   0.9217 B( 22-C , 25-C ) :   1.0522 B( 25-C , 26-H ) :   0.9621
B( 25-C , 27-H ) :   0.9577 B( 25-C , 28-C ) :   1.0611 B( 28-C , 29-H ) :   0.9796
B( 28-C , 30-H ) :   0.9779 B( 28-C , 31-H ) :   0.9782

Dispersion correction           -0.013752992
FINAL SINGLE POINT ENERGY     -1339.866259384434

DIPOLE MOMENT
-------------
                                X             Y             Z
Electronic contribution:     11.45069     -19.99629      18.86705
Nuclear contribution   :    -11.94762      20.31349     -19.40219
                        -----------------------------------------
Total Dipole Moment    :     -0.49693       0.31721      -0.53515
                        -----------------------------------------
Magnitude (a.u.)       :      0.79620
Magnitude (Debye)      :      2.02378

Rotational constants in cm-1:     0.016231     0.008952     0.006447
Rotational constants in MHz :   486.595794   268.364861   193.282218

                             ****ORCA TERMINATED NORMALLY****
TOTAL RUN TIME: 0 days 0 hours 0 minutes 29 seconds 222 msec
