                         Program Version 4.2.1 -  RELEASE  -
|  1> ! wB97X-D3 SP def2-SVP
|  2> %pal
|  3> nprocs 16
|  4> end
|  5>
|  6> * xyz 0 1
|  7> S 	 -32.0679 	 57.0154 	 109.528
|  8> C 	 -30.8724 	 55.9467 	 108.867
|  9> C 	 -29.8589 	 55.6795 	 109.737
| 10> C 	 -30.1116 	 56.227 	 111.035
| 11> C 	 -31.273 	 56.9905 	 111.11
| 12> H 	 -29.37 	 56.1135 	 111.939
| 13> C 	 -28.6608 	 54.8353 	 109.527
| 14> H 	 -28.7967 	 54.3874 	 108.518
| 15> H 	 -28.7459 	 53.9973 	 110.234
| 16> C 	 -27.2825 	 55.5433 	 109.413
| 17> H 	 -27.2625 	 56.2722 	 108.679
| 18> H 	 -27.025 	 56.0127 	 110.383
| 19> C 	 -26.085 	 54.5885 	 109.116
| 20> H 	 -25.1984 	 55.2393 	 109.095
| 21> H 	 -25.9199 	 53.8545 	 109.927
| 22> H 	 -26.2526 	 54.0374 	 108.184
| 23> S 	 -32.0123 	 59.3783 	 112.16
| 24> C 	 -32.2949 	 59.4973 	 113.823
| 25> C 	 -32.0586 	 58.3335 	 114.47
| 26> C 	 -31.6637 	 57.2867 	 113.628
| 27> C 	 -31.7342 	 57.695 	 112.301
| 28> H 	 -31.9561 	 58.3842 	 115.534
| 29> C 	 -31.2815 	 55.9298 	 114.144
| 30> H 	 -30.8018 	 56.0673 	 115.119
| 31> H 	 -30.5675 	 55.4771 	 113.45
| 32> C 	 -32.5254 	 55.0167 	 114.324
| 33> H 	 -32.7441 	 54.6558 	 113.322
| 34> H 	 -33.4234 	 55.5394 	 114.7
| 35> C 	 -32.2903 	 53.7746 	 115.234
| 36> H 	 -31.4483 	 53.103 	 114.964
| 37> H 	 -33.262 	 53.2491 	 115.258
| 38> H 	 -32.0914 	 54.0691 	 116.264
| 39> H 	 -30.7205 	 55.6587 	 107.85
| 40> H 	 -32.3946 	 60.3879 	 114.36
| 41> *
| 42>
| 43>                          ****END OF INPUT****

CARTESIAN COORDINATES (ANGSTROEM)
---------------------------------
  S    -32.067900   57.015400  109.528000
  C    -30.872400   55.946700  108.867000
  C    -29.858900   55.679500  109.737000
  C    -30.111600   56.227000  111.035000
  C    -31.273000   56.990500  111.110000
  H    -29.370000   56.113500  111.939000
  C    -28.660800   54.835300  109.527000
  H    -28.796700   54.387400  108.518000
  H    -28.745900   53.997300  110.234000
  C    -27.282500   55.543300  109.413000
  H    -27.262500   56.272200  108.679000
  H    -27.025000   56.012700  110.383000
  C    -26.085000   54.588500  109.116000
  H    -25.198400   55.239300  109.095000
  H    -25.919900   53.854500  109.927000
  H    -26.252600   54.037400  108.184000
  S    -32.012300   59.378300  112.160000
  C    -32.294900   59.497300  113.823000
  C    -32.058600   58.333500  114.470000
  C    -31.663700   57.286700  113.628000
  C    -31.734200   57.695000  112.301000
  H    -31.956100   58.384200  115.534000
  C    -31.281500   55.929800  114.144000
  H    -30.801800   56.067300  115.119000
  H    -30.567500   55.477100  113.450000
  C    -32.525400   55.016700  114.324000
  H    -32.744100   54.655800  113.322000
  H    -33.423400   55.539400  114.700000
  C    -32.290300   53.774600  115.234000
  H    -31.448300   53.103000  114.964000
  H    -33.262000   53.249100  115.258000
  H    -32.091400   54.069100  116.264000
  H    -30.720500   55.658700  107.850000
  H    -32.394600   60.387900  114.360000

 Total Charge           Charge          ....    0
 Multiplicity           Mult            ....    1
 Number of Electrons    NEL             ....  134
 Basis Dimension        Dim             ....  322

ORBITAL ENERGIES
----------------

  NO   OCC          E(Eh)            E(eV)
   0   2.0000     -88.968277     -2420.9499
   1   2.0000     -88.965022     -2420.8613
   2   2.0000     -10.330640      -281.1110
   3   2.0000     -10.320468      -280.8342
   4   2.0000     -10.307796      -280.4894
   5   2.0000     -10.303415      -280.3702
   6   2.0000     -10.298825      -280.2453
   7   2.0000     -10.297950      -280.2215
   8   2.0000     -10.294390      -280.1246
   9   2.0000     -10.293907      -280.1114
  10   2.0000     -10.290522      -280.0193
  11   2.0000     -10.287965      -279.9497
  12   2.0000     -10.286956      -279.9223
  13   2.0000     -10.283990      -279.8416
  14   2.0000     -10.283323      -279.8235
  15   2.0000     -10.280514      -279.7470
  16   2.0000      -8.082656      -219.9402
  17   2.0000      -8.081670      -219.9134
  18   2.0000      -6.041309      -164.3924
  19   2.0000      -6.039902      -164.3541
  20   2.0000      -6.037246      -164.2818
  21   2.0000      -6.035984      -164.2475
  22   2.0000      -6.033256      -164.1732
  23   2.0000      -6.032533      -164.1536
  24   2.0000      -1.016380       -27.6571
  25   2.0000      -0.990630       -26.9564
  26   2.0000      -0.910601       -24.7787
  27   2.0000      -0.907703       -24.6999
  28   2.0000      -0.872854       -23.7516
  29   2.0000      -0.852771       -23.2051
  30   2.0000      -0.848475       -23.0882
  31   2.0000      -0.813985       -22.1497
  32   2.0000      -0.781915       -21.2770
  33   2.0000      -0.771536       -20.9946
  34   2.0000      -0.708447       -19.2778
  35   2.0000      -0.700848       -19.0711
  36   2.0000      -0.693786       -18.8789
  37   2.0000      -0.663986       -18.0680
  38   2.0000      -0.631475       -17.1833
  39   2.0000      -0.621045       -16.8995
  40   2.0000      -0.598067       -16.2742
  41   2.0000      -0.569799       -15.5050
  42   2.0000      -0.563958       -15.3461
  43   2.0000      -0.556267       -15.1368
  44   2.0000      -0.529012       -14.3951
  45   2.0000      -0.525385       -14.2965
  46   2.0000      -0.519043       -14.1239
  47   2.0000      -0.509709       -13.8699
  48   2.0000      -0.502410       -13.6713
  49   2.0000      -0.498282       -13.5590
  50   2.0000      -0.492590       -13.4041
  51   2.0000      -0.483423       -13.1546
  52   2.0000      -0.467084       -12.7100
  53   2.0000      -0.463479       -12.6119
  54   2.0000      -0.457528       -12.4500
  55   2.0000      -0.450509       -12.2590
  56   2.0000      -0.445551       -12.1241
  57   2.0000      -0.442111       -12.0305
  58   2.0000      -0.435927       -11.8622
  59   2.0000      -0.425871       -11.5885
  60   2.0000      -0.422895       -11.5075
  61   2.0000      -0.417456       -11.3595
  62   2.0000      -0.413660       -11.2563
  63   2.0000      -0.351554        -9.5663
  64   2.0000      -0.331984        -9.0337
  65   2.0000      -0.329493        -8.9660
  66   2.0000      -0.289877        -7.8880
  67   0.0000       0.033162         0.9024
  68   0.0000       0.075851         2.0640
  69   0.0000       0.112404         3.0587
  70   0.0000       0.119386         3.2487
  71   0.0000       0.138056         3.7567

MULLIKEN ATOMIC CHARGES
-----------------------
   0 S :    0.116159
   1 C :   -0.091247
   2 C :   -0.101544
   3 C :   -0.022756
   4 C :   -0.156214
   5 H :    0.062783
   6 C :    0.045991
   7 H :    0.005993
   8 H :    0.041607
   9 C :   -0.051289
  10 H :    0.018923
  11 H :    0.027908
  12 C :   -0.064612
  13 H :    0.040850
  14 H :    0.033458
  15 H :    0.036312
  16 S :    0.124243
  17 C :   -0.058592
  18 C :   -0.042462
  19 C :   -0.054371
  20 C :   -0.147855
  21 H :    0.009062
  22 C :    0.099057
  23 H :    0.016325
  24 H :    0.012837
  25 C :   -0.077854
  26 H :    0.033115
  27 H :    0.039317
  28 C :   -0.063242
  29 H :    0.039218
  30 H :    0.041214
  31 H :    0.024596
  32 H :    0.031741
  33 H :    0.031333
Sum of atomic charges:   -0.0000000

LOEWDIN ATOMIC CHARGES
----------------------
   0 S :    0.402442
   1 C :   -0.203590
   2 C :   -0.072207
   3 C :   -0.075660
   4 C :   -0.191573
   5 H :    0.047799
   6 C :   -0.037678
   7 H :    0.029779
   8 H :    0.036388
   9 C :   -0.030343
  10 H :    0.015945
  11 H :    0.024285
  12 C :   -0.064807
  13 H :    0.030125
  14 H :    0.025082
  15 H :    0.023085
  16 S :    0.450417
  17 C :   -0.194646
  18 C :   -0.072116
  19 C :   -0.052318
  20 C :   -0.215610
  21 H :    0.029400
  22 C :   -0.031123
  23 H :    0.028624
  24 H :    0.027716
  25 C :   -0.035419
  26 H :    0.026090
  27 H :    0.028859
  28 C :   -0.072892
  29 H :    0.027134
  30 H :    0.031614
  31 H :    0.019821
  32 H :    0.025927
  33 H :    0.019451

  Mayer bond orders larger than 0.100000
B(  0-S ,  1-C ) :   1.1217 B(  0-S ,  4-C ) :   1.1432 B(  1-C ,  2-C ) :   1.6460
B(  1-C , 32-H ) :   0.9564 B(  2-C ,  3-C ) :   1.2408 B(  2-C ,  6-C ) :   1.0331
B(  3-C ,  4-C ) :   1.5880 B(  3-C ,  5-H ) :   0.9612 B(  4-C , 20-C ) :   1.0329
B(  6-C ,  7-H ) :   0.9337 B(  6-C ,  8-H ) :   0.9417 B(  6-C ,  9-C ) :   1.0568
B(  9-C , 10-H ) :   0.9566 B(  9-C , 11-H ) :   0.9570 B(  9-C , 12-C ) :   1.0845
B( 12-C , 13-H ) :   0.9759 B( 12-C , 14-H ) :   0.9772 B( 12-C , 15-H ) :   0.9757
B( 16-S , 17-C ) :   1.1732 B( 16-S , 20-C ) :   1.1726 B( 17-C , 18-C ) :   1.5998
B( 17-C , 33-H ) :   0.9700 B( 18-C , 19-C ) :   1.2712 B( 18-C , 21-H ) :   0.9902
B( 19-C , 20-C ) :   1.5595 B( 19-C , 22-C ) :   1.0546 B( 22-C , 23-H ) :   0.9327
B( 22-C , 24-H ) :   0.9225 B( 22-C , 25-C ) :   1.0583 B( 25-C , 26-H ) :   0.9545
B( 25-C , 27-H ) :   0.9618 B( 25-C , 28-C ) :   1.0786 B( 28-C , 29-H ) :   0.9750
B( 28-C , 30-H ) :   0.9747 B( 28-C , 31-H ) :   0.9761

Dispersion correction           -0.013711549
FINAL SINGLE POINT ENERGY     -1339.883536437111

DIPOLE MOMENT
-------------
                                X             Y             Z
Electronic contribution:    -16.54346      22.03346      -7.28542
Nuclear contribution   :     17.11868     -22.29823       7.62365
                        -----------------------------------------
Total Dipole Moment    :      0.57522      -0.26477       0.33823
                        -----------------------------------------
Magnitude (a.u.)       :      0.71790
Magnitude (Debye)      :      1.82475

Rotational constants in cm-1:     0.016838     0.008276     0.006804
Rotational constants in MHz :   504.789291   248.101463   203.970946

                             ****ORCA TERMINATED NORMALLY****
TOTAL RUN TIME: 0 days 0 hours 0 minutes 29 seconds 882 msec
