                         Program Version 4.2.1 -  RELEASE  -
|  1> ! wB97X-D3 SP def2-SVP
|  2> %pal
|  3> nprocs 16
|  4> end
|  5>
|  6> * xyz 0 1
|  7> S 	 -7.38551 	 66.8192 	 52.15
|  8> C 	 -8.22854 	 65.3327 	 51.7895
|  9> C 	 -8.59823 	 64.6448 	 52.9145
| 10> C 	 -8.2456 	 65.3499 	 54.1189
| 11> C 	 -7.57638 	 66.5426 	 53.8705
| 12> H 	 -8.36778 	 64.9603 	 55.1535
| 13> C 	 -9.26129 	 63.303 	 52.9182
| 14> H 	 -9.4451 	 62.9825 	 51.8655
| 15> H 	 -10.2426 	 63.3134 	 53.3984
| 16> C 	 -8.34346 	 62.1937 	 53.5487
| 17> H 	 -7.4037 	 62.2345 	 53.0324
| 18> H 	 -8.11582 	 62.414 	 54.6366
| 19> C 	 -8.93972 	 60.7925 	 53.4895
| 20> H 	 -9.52592 	 60.6544 	 52.5226
| 21> H 	 -8.14783 	 60.0863 	 53.3972
| 22> H 	 -9.45385 	 60.5118 	 54.3708
| 23> S 	 -5.56097 	 68.3498 	 54.4232
| 24> C 	 -5.51487 	 69.2563 	 55.9193
| 25> C 	 -6.5518 	 68.9079 	 56.7671
| 26> C 	 -7.41427 	 67.8504 	 56.2283
| 27> C 	 -6.9992 	 67.4687 	 54.8916
| 28> H 	 -6.70356 	 69.4459 	 57.7435
| 29> C 	 -8.57121 	 67.2489 	 56.9526
| 30> H 	 -8.00032 	 66.3734 	 57.2956
| 31> H 	 -9.30223 	 66.7438 	 56.317
| 32> C 	 -9.12662 	 68.0538 	 58.0291
| 33> H 	 -9.49311 	 68.9436 	 57.5675
| 34> H 	 -8.44277 	 68.4388 	 58.8128
| 35> C 	 -10.2998 	 67.33 	 58.7545
| 36> H 	 -10.7767 	 67.9756 	 59.5627
| 37> H 	 -10.002 	 66.4399 	 59.2916
| 38> H 	 -11.0858 	 66.9869 	 58.0856
| 39> H 	 -8.48936 	 64.9497 	 50.8358
| 40> H 	 -4.9702 	 70.1387 	 56.1077
| 41> *
| 42>
| 43>                          ****END OF INPUT****

CARTESIAN COORDINATES (ANGSTROEM)
---------------------------------
  S     -7.385510   66.819200   52.150000
  C     -8.228540   65.332700   51.789500
  C     -8.598230   64.644800   52.914500
  C     -8.245600   65.349900   54.118900
  C     -7.576380   66.542600   53.870500
  H     -8.367780   64.960300   55.153500
  C     -9.261290   63.303000   52.918200
  H     -9.445100   62.982500   51.865500
  H    -10.242600   63.313400   53.398400
  C     -8.343460   62.193700   53.548700
  H     -7.403700   62.234500   53.032400
  H     -8.115820   62.414000   54.636600
  C     -8.939720   60.792500   53.489500
  H     -9.525920   60.654400   52.522600
  H     -8.147830   60.086300   53.397200
  H     -9.453850   60.511800   54.370800
  S     -5.560970   68.349800   54.423200
  C     -5.514870   69.256300   55.919300
  C     -6.551800   68.907900   56.767100
  C     -7.414270   67.850400   56.228300
  C     -6.999200   67.468700   54.891600
  H     -6.703560   69.445900   57.743500
  C     -8.571210   67.248900   56.952600
  H     -8.000320   66.373400   57.295600
  H     -9.302230   66.743800   56.317000
  C     -9.126620   68.053800   58.029100
  H     -9.493110   68.943600   57.567500
  H     -8.442770   68.438800   58.812800
  C    -10.299800   67.330000   58.754500
  H    -10.776700   67.975600   59.562700
  H    -10.002000   66.439900   59.291600
  H    -11.085800   66.986900   58.085600
  H     -8.489360   64.949700   50.835800
  H     -4.970200   70.138700   56.107700

 Total Charge           Charge          ....    0
 Multiplicity           Mult            ....    1
 Number of Electrons    NEL             ....  134
 Basis Dimension        Dim             ....  322

ORBITAL ENERGIES
----------------

  NO   OCC          E(Eh)            E(eV)
   0   2.0000     -88.969160     -2420.9739
   1   2.0000     -88.965633     -2420.8779
   2   2.0000     -10.336069      -281.2587
   3   2.0000     -10.332828      -281.1705
   4   2.0000     -10.314871      -280.6819
   5   2.0000     -10.314337      -280.6674
   6   2.0000     -10.310006      -280.5495
   7   2.0000     -10.302648      -280.3493
   8   2.0000     -10.299420      -280.2615
   9   2.0000     -10.297942      -280.2213
  10   2.0000     -10.296175      -280.1732
  11   2.0000     -10.290523      -280.0194
  12   2.0000     -10.290026      -280.0058
  13   2.0000     -10.287803      -279.9453
  14   2.0000     -10.284368      -279.8519
  15   2.0000     -10.277113      -279.6545
  16   2.0000      -8.083685      -219.9682
  17   2.0000      -8.080102      -219.8707
  18   2.0000      -6.042320      -164.4199
  19   2.0000      -6.038687      -164.3210
  20   2.0000      -6.038279      -164.3099
  21   2.0000      -6.034545      -164.2083
  22   2.0000      -6.034263      -164.2006
  23   2.0000      -6.030913      -164.1095
  24   2.0000      -1.002496       -27.2793
  25   2.0000      -0.980451       -26.6794
  26   2.0000      -0.923151       -25.1202
  27   2.0000      -0.909183       -24.7401
  28   2.0000      -0.866911       -23.5899
  29   2.0000      -0.851257       -23.1639
  30   2.0000      -0.843469       -22.9520
  31   2.0000      -0.816817       -22.2267
  32   2.0000      -0.781404       -21.2631
  33   2.0000      -0.770675       -20.9711
  34   2.0000      -0.715906       -19.4808
  35   2.0000      -0.702525       -19.1167
  36   2.0000      -0.693149       -18.8615
  37   2.0000      -0.648835       -17.6557
  38   2.0000      -0.636785       -17.3278
  39   2.0000      -0.622029       -16.9263
  40   2.0000      -0.600636       -16.3441
  41   2.0000      -0.571166       -15.5422
  42   2.0000      -0.569208       -15.4889
  43   2.0000      -0.561883       -15.2896
  44   2.0000      -0.534636       -14.5482
  45   2.0000      -0.518307       -14.1039
  46   2.0000      -0.515591       -14.0300
  47   2.0000      -0.508884       -13.8474
  48   2.0000      -0.502725       -13.6798
  49   2.0000      -0.501146       -13.6369
  50   2.0000      -0.494927       -13.4676
  51   2.0000      -0.478897       -13.0315
  52   2.0000      -0.471977       -12.8431
  53   2.0000      -0.462364       -12.5816
  54   2.0000      -0.458052       -12.4642
  55   2.0000      -0.454052       -12.3554
  56   2.0000      -0.450343       -12.2545
  57   2.0000      -0.442438       -12.0394
  58   2.0000      -0.431668       -11.7463
  59   2.0000      -0.425634       -11.5821
  60   2.0000      -0.421836       -11.4787
  61   2.0000      -0.420610       -11.4454
  62   2.0000      -0.413021       -11.2389
  63   2.0000      -0.355019        -9.6606
  64   2.0000      -0.331787        -9.0284
  65   2.0000      -0.324948        -8.8423
  66   2.0000      -0.282280        -7.6812
  67   0.0000       0.024082         0.6553
  68   0.0000       0.080880         2.2009
  69   0.0000       0.108507         2.9526
  70   0.0000       0.123094         3.3496
  71   0.0000       0.135639         3.6909

MULLIKEN ATOMIC CHARGES
-----------------------
   0 S :    0.113673
   1 C :   -0.094253
   2 C :   -0.082919
   3 C :   -0.016538
   4 C :   -0.116044
   5 H :    0.028142
   6 C :    0.063148
   7 H :    0.014005
   8 H :    0.037956
   9 C :   -0.115222
  10 H :    0.031311
  11 H :    0.037195
  12 C :   -0.020213
  13 H :    0.033610
  14 H :    0.020098
  15 H :    0.033465
  16 S :    0.096697
  17 C :   -0.062888
  18 C :   -0.072799
  19 C :   -0.059782
  20 C :   -0.152843
  21 H :    0.042972
  22 C :    0.050489
  23 H :    0.043204
  24 H :    0.029898
  25 C :   -0.057784
  26 H :    0.027529
  27 H :    0.040042
  28 C :   -0.060153
  29 H :    0.040224
  30 H :    0.024980
  31 H :    0.030844
  32 H :    0.025763
  33 H :    0.046195
Sum of atomic charges:    0.0000000

LOEWDIN ATOMIC CHARGES
----------------------
   0 S :    0.403729
   1 C :   -0.194139
   2 C :   -0.063774
   3 C :   -0.073615
   4 C :   -0.185999
   5 H :    0.035296
   6 C :   -0.032539
   7 H :    0.029434
   8 H :    0.030884
   9 C :   -0.041259
  10 H :    0.022507
  11 H :    0.027781
  12 C :   -0.067100
  13 H :    0.032645
  14 H :    0.024404
  15 H :    0.021580
  16 S :    0.404698
  17 C :   -0.187874
  18 C :   -0.080276
  19 C :   -0.043922
  20 C :   -0.206298
  21 H :    0.041383
  22 C :   -0.046945
  23 H :    0.044030
  24 H :    0.035157
  25 C :   -0.043984
  26 H :    0.025781
  27 H :    0.030877
  28 C :   -0.067470
  29 H :    0.033413
  30 H :    0.021439
  31 H :    0.023388
  32 H :    0.022251
  33 H :    0.024517

  Mayer bond orders larger than 0.100000
B(  0-S ,  1-C ) :   1.1193 B(  0-S ,  4-C ) :   1.1486 B(  1-C ,  2-C ) :   1.6395
B(  1-C , 32-H ) :   0.9653 B(  2-C ,  3-C ) :   1.2218 B(  2-C ,  6-C ) :   1.0423
B(  3-C ,  4-C ) :   1.5715 B(  3-C ,  5-H ) :   0.9835 B(  4-C , 20-C ) :   1.0610
B(  6-C ,  7-H ) :   0.9367 B(  6-C ,  8-H ) :   0.9380 B(  6-C ,  9-C ) :   1.0551
B(  9-C , 10-H ) :   0.9599 B(  9-C , 11-H ) :   0.9567 B(  9-C , 12-C ) :   1.0837
B( 12-C , 13-H ) :   0.9718 B( 12-C , 14-H ) :   0.9728 B( 12-C , 15-H ) :   0.9762
B( 16-S , 17-C ) :   1.1551 B( 16-S , 20-C ) :   1.1418 B( 17-C , 18-C ) :   1.6098
B( 17-C , 33-H ) :   0.9648 B( 18-C , 19-C ) :   1.2559 B( 18-C , 21-H ) :   0.9738
B( 19-C , 20-C ) :   1.5494 B( 19-C , 22-C ) :   1.0256 B( 22-C , 23-H ) :   0.9165
B( 22-C , 24-H ) :   0.9310 B( 22-C , 25-C ) :   1.0752 B( 25-C , 26-H ) :   0.9533
B( 25-C , 27-H ) :   0.9404 B( 25-C , 28-C ) :   1.0830 B( 28-C , 29-H ) :   0.9750
B( 28-C , 30-H ) :   0.9762 B( 28-C , 31-H ) :   0.9745

Dispersion correction           -0.013286497
FINAL SINGLE POINT ENERGY     -1339.878977657378

DIPOLE MOMENT
-------------
                                X             Y             Z
Electronic contribution:     17.07170      19.29285     -15.54122
Nuclear contribution   :    -17.47743     -19.68167      16.02886
                        -----------------------------------------
Total Dipole Moment    :     -0.40574      -0.38881       0.48764
                        -----------------------------------------
Magnitude (a.u.)       :      0.74404
Magnitude (Debye)      :      1.89120

Rotational constants in cm-1:     0.016630     0.008310     0.006123
Rotational constants in MHz :   498.560597   249.116914   183.564457

                             ****ORCA TERMINATED NORMALLY****
TOTAL RUN TIME: 0 days 0 hours 0 minutes 32 seconds 443 msec
