                         Program Version 4.2.1 -  RELEASE  -
|  1> ! wB97X-D3 SP def2-SVP
|  2> %pal
|  3> nprocs 16
|  4> end
|  5>
|  6> * xyz 0 1
|  7> S 	 -14.6292 	 34.8621 	 35.0911
|  8> C 	 -15.3328 	 34.8958 	 36.6893
|  9> C 	 -14.5582 	 34.1969 	 37.6066
| 10> C 	 -13.3574 	 33.6451 	 37.0694
| 11> C 	 -13.2285 	 33.9099 	 35.7234
| 12> H 	 -12.5243 	 33.0913 	 37.5587
| 13> C 	 -14.8812 	 33.9746 	 39.1053
| 14> H 	 -14.6449 	 32.9787 	 39.4116
| 15> H 	 -15.948 	 33.9652 	 39.1463
| 16> C 	 -14.3348 	 35.0898 	 40.0455
| 17> H 	 -14.3232 	 36.117 	 39.6612
| 18> H 	 -14.931 	 35.0772 	 40.9603
| 19> C 	 -12.9034 	 34.7446 	 40.3037
| 20> H 	 -12.3791 	 35.481 	 40.9479
| 21> H 	 -12.7828 	 33.7292 	 40.7282
| 22> H 	 -12.3945 	 34.8324 	 39.3156
| 23> S 	 -12.1466 	 32.2264 	 33.8383
| 24> C 	 -10.6477 	 32.7021 	 33.1146
| 25> C 	 -9.96368 	 33.6285 	 33.8353
| 26> C 	 -10.7298 	 34.0524 	 34.9306
| 27> C 	 -12.0473 	 33.5884 	 34.935
| 28> H 	 -9.03471 	 33.9351 	 33.555
| 29> C 	 -10.2149 	 35.1524 	 35.8143
| 30> H 	 -9.10451 	 35.1536 	 35.9613
| 31> H 	 -10.5607 	 34.8056 	 36.7682
| 32> C 	 -10.8464 	 36.4925 	 35.4765
| 33> H 	 -11.8682 	 36.3812 	 35.5729
| 34> H 	 -10.5587 	 36.8875 	 34.4587
| 35> C 	 -10.3814 	 37.5535 	 36.4386
| 36> H 	 -9.37378 	 37.4064 	 36.4473
| 37> H 	 -10.8164 	 37.3712 	 37.4774
| 38> H 	 -10.5742 	 38.5505 	 36.2156
| 39> H 	 -16.3384 	 35.2963 	 37.0074
| 40> H 	 -10.2874 	 32.2514 	 32.1646
| 41> *
| 42>
| 43>                          ****END OF INPUT****

CARTESIAN COORDINATES (ANGSTROEM)
---------------------------------
  S    -14.629200   34.862100   35.091100
  C    -15.332800   34.895800   36.689300
  C    -14.558200   34.196900   37.606600
  C    -13.357400   33.645100   37.069400
  C    -13.228500   33.909900   35.723400
  H    -12.524300   33.091300   37.558700
  C    -14.881200   33.974600   39.105300
  H    -14.644900   32.978700   39.411600
  H    -15.948000   33.965200   39.146300
  C    -14.334800   35.089800   40.045500
  H    -14.323200   36.117000   39.661200
  H    -14.931000   35.077200   40.960300
  C    -12.903400   34.744600   40.303700
  H    -12.379100   35.481000   40.947900
  H    -12.782800   33.729200   40.728200
  H    -12.394500   34.832400   39.315600
  S    -12.146600   32.226400   33.838300
  C    -10.647700   32.702100   33.114600
  C     -9.963680   33.628500   33.835300
  C    -10.729800   34.052400   34.930600
  C    -12.047300   33.588400   34.935000
  H     -9.034710   33.935100   33.555000
  C    -10.214900   35.152400   35.814300
  H     -9.104510   35.153600   35.961300
  H    -10.560700   34.805600   36.768200
  C    -10.846400   36.492500   35.476500
  H    -11.868200   36.381200   35.572900
  H    -10.558700   36.887500   34.458700
  C    -10.381400   37.553500   36.438600
  H     -9.373780   37.406400   36.447300
  H    -10.816400   37.371200   37.477400
  H    -10.574200   38.550500   36.215600
  H    -16.338400   35.296300   37.007400
  H    -10.287400   32.251400   32.164600

 Total Charge           Charge          ....    0
 Multiplicity           Mult            ....    1
 Number of Electrons    NEL             ....  134
 Basis Dimension        Dim             ....  322

ORBITAL ENERGIES
----------------

  NO   OCC          E(Eh)            E(eV)
   0   2.0000     -88.972101     -2421.0539
   1   2.0000     -88.960368     -2420.7347
   2   2.0000     -10.331476      -281.1338
   3   2.0000     -10.322345      -280.8853
   4   2.0000     -10.320910      -280.8462
   5   2.0000     -10.313591      -280.6471
   6   2.0000     -10.303872      -280.3826
   7   2.0000     -10.299503      -280.2637
   8   2.0000     -10.298456      -280.2352
   9   2.0000     -10.290509      -280.0190
  10   2.0000     -10.287162      -279.9279
  11   2.0000     -10.285860      -279.8925
  12   2.0000     -10.280802      -279.7549
  13   2.0000     -10.278953      -279.7045
  14   2.0000     -10.275979      -279.6236
  15   2.0000     -10.261859      -279.2394
  16   2.0000      -8.085341      -220.0133
  17   2.0000      -8.075865      -219.7555
  18   2.0000      -6.043926      -164.4636
  19   2.0000      -6.040089      -164.3592
  20   2.0000      -6.036045      -164.2491
  21   2.0000      -6.034196      -164.1988
  22   2.0000      -6.030358      -164.0944
  23   2.0000      -6.026688      -163.9945
  24   2.0000      -1.006845       -27.3976
  25   2.0000      -0.984406       -26.7870
  26   2.0000      -0.915189       -24.9036
  27   2.0000      -0.912536       -24.8314
  28   2.0000      -0.871559       -23.7163
  29   2.0000      -0.854221       -23.2445
  30   2.0000      -0.847445       -23.0602
  31   2.0000      -0.816158       -22.2088
  32   2.0000      -0.780339       -21.2341
  33   2.0000      -0.764815       -20.8117
  34   2.0000      -0.705430       -19.1957
  35   2.0000      -0.698254       -19.0005
  36   2.0000      -0.690543       -18.7906
  37   2.0000      -0.663986       -18.0680
  38   2.0000      -0.640213       -17.4211
  39   2.0000      -0.615389       -16.7456
  40   2.0000      -0.597395       -16.2559
  41   2.0000      -0.578598       -15.7445
  42   2.0000      -0.569773       -15.5043
  43   2.0000      -0.549426       -14.9506
  44   2.0000      -0.542529       -14.7630
  45   2.0000      -0.528337       -14.3768
  46   2.0000      -0.519072       -14.1247
  47   2.0000      -0.507829       -13.8187
  48   2.0000      -0.504124       -13.7179
  49   2.0000      -0.497111       -13.5271
  50   2.0000      -0.490751       -13.3540
  51   2.0000      -0.483808       -13.1651
  52   2.0000      -0.472037       -12.8448
  53   2.0000      -0.460112       -12.5203
  54   2.0000      -0.457059       -12.4372
  55   2.0000      -0.443442       -12.0667
  56   2.0000      -0.442180       -12.0323
  57   2.0000      -0.436738       -11.8842
  58   2.0000      -0.431451       -11.7404
  59   2.0000      -0.427521       -11.6334
  60   2.0000      -0.422712       -11.5026
  61   2.0000      -0.414456       -11.2779
  62   2.0000      -0.408281       -11.1099
  63   2.0000      -0.340966        -9.2782
  64   2.0000      -0.331316        -9.0156
  65   2.0000      -0.320063        -8.7094
  66   2.0000      -0.302621        -8.2347
  67   0.0000       0.032426         0.8824
  68   0.0000       0.056773         1.5449
  69   0.0000       0.112777         3.0688
  70   0.0000       0.116139         3.1603
  71   0.0000       0.123282         3.3547

MULLIKEN ATOMIC CHARGES
-----------------------
   0 S :    0.125583
   1 C :   -0.125727
   2 C :   -0.112715
   3 C :    0.041753
   4 C :   -0.183776
   5 H :    0.042600
   6 C :    0.080244
   7 H :    0.020157
   8 H :    0.004164
   9 C :   -0.039167
  10 H :    0.036907
  11 H :    0.031153
  12 C :   -0.083287
  13 H :    0.034683
  14 H :    0.032835
  15 H :    0.036209
  16 S :    0.110545
  17 C :   -0.091715
  18 C :    0.005478
  19 C :   -0.003262
  20 C :   -0.211550
  21 H :   -0.025800
  22 C :    0.062407
  23 H :    0.023976
  24 H :   -0.002698
  25 C :   -0.033676
  26 H :    0.015124
  27 H :    0.032444
  28 C :    0.002992
  29 H :   -0.000892
  30 H :    0.027028
  31 H :    0.018436
  32 H :    0.066387
  33 H :    0.063159
Sum of atomic charges:    0.0000000

LOEWDIN ATOMIC CHARGES
----------------------
   0 S :    0.393717
   1 C :   -0.207909
   2 C :   -0.065348
   3 C :   -0.061902
   4 C :   -0.187430
   5 H :    0.044401
   6 C :   -0.024077
   7 H :    0.027381
   8 H :    0.022847
   9 C :   -0.038495
  10 H :    0.030580
  11 H :    0.022042
  12 C :   -0.072906
  13 H :    0.024214
  14 H :    0.023702
  15 H :    0.028402
  16 S :    0.409903
  17 C :   -0.180137
  18 C :   -0.064656
  19 C :   -0.044302
  20 C :   -0.212199
  21 H :    0.017794
  22 C :   -0.035048
  23 H :    0.031727
  24 H :    0.025977
  25 C :   -0.027672
  26 H :    0.011564
  27 H :    0.030662
  28 C :   -0.055183
  29 H :    0.009795
  30 H :    0.030450
  31 H :    0.015338
  32 H :    0.044171
  33 H :    0.032599

  Mayer bond orders larger than 0.100000
B(  0-S ,  1-C ) :   1.1331 B(  0-S ,  4-C ) :   1.1284 B(  1-C ,  2-C ) :   1.6407
B(  1-C , 32-H ) :   0.9546 B(  2-C ,  3-C ) :   1.2164 B(  2-C ,  6-C ) :   1.0163
B(  3-C ,  4-C ) :   1.6051 B(  3-C ,  5-H ) :   0.9815 B(  4-C , 20-C ) :   1.0351
B(  6-C ,  7-H ) :   0.9481 B(  6-C ,  8-H ) :   0.9353 B(  6-C ,  9-C ) :   1.0539
B(  9-C , 10-H ) :   0.9564 B(  9-C , 11-H ) :   0.9556 B(  9-C , 12-C ) :   1.0832
B( 12-C , 13-H ) :   0.9710 B( 12-C , 14-H ) :   0.9748 B( 12-C , 15-H ) :   0.9711
B( 16-S , 17-C ) :   1.1699 B( 16-S , 20-C ) :   1.1471 B( 17-C , 18-C ) :   1.5900
B( 17-C , 20-C ) :   0.1024 B( 17-C , 33-H ) :   0.9614 B( 18-C , 19-C ) :   1.2380
B( 18-C , 21-H ) :   1.0196 B( 19-C , 20-C ) :   1.5698 B( 19-C , 22-C ) :   1.0475
B( 22-C , 23-H ) :   0.9354 B( 22-C , 24-H ) :   0.9153 B( 22-C , 25-C ) :   1.0737
B( 25-C , 26-H ) :   0.9501 B( 25-C , 27-H ) :   0.9553 B( 25-C , 28-C ) :   1.0860
B( 28-C , 29-H ) :   0.9727 B( 28-C , 30-H ) :   0.9727 B( 28-C , 31-H ) :   0.9733

Dispersion correction           -0.015593251
FINAL SINGLE POINT ENERGY     -1339.857254527898

DIPOLE MOMENT
-------------
                                X             Y             Z
Electronic contribution:     -8.09555     -14.19449     -22.59160
Nuclear contribution   :      8.31406      14.38385      23.05591
                        -----------------------------------------
Total Dipole Moment    :      0.21851       0.18937       0.46431
                        -----------------------------------------
Magnitude (a.u.)       :      0.54699
Magnitude (Debye)      :      1.39033

Rotational constants in cm-1:     0.018426     0.009651     0.007949
Rotational constants in MHz :   552.387006   289.333520   238.306875

                             ****ORCA TERMINATED NORMALLY****
TOTAL RUN TIME: 0 days 0 hours 0 minutes 36 seconds 611 msec
