                         Program Version 4.2.1 -  RELEASE  -
|  1> ! wB97X-D3 SP def2-SVP
|  2> %pal
|  3> nprocs 16
|  4> end
|  5>
|  6> * xyz 0 1
|  7> S 	 8.32697 	 25.3587 	 67.5415
|  8> C 	 7.51237 	 23.9086 	 66.9511
|  9> C 	 7.51458 	 23.8776 	 65.5194
| 10> C 	 8.10878 	 25.0819 	 64.9487
| 11> C 	 8.45516 	 26.0269 	 65.8986
| 12> H 	 8.25465 	 25.3159 	 63.8945
| 13> C 	 6.92791 	 22.766 	 64.6582
| 14> H 	 7.74823 	 22.1449 	 64.2793
| 15> H 	 6.50594 	 23.2674 	 63.7398
| 16> C 	 5.88604 	 21.7941 	 65.3566
| 17> H 	 5.47942 	 21.1205 	 64.5434
| 18> H 	 6.38368 	 21.2178 	 66.1125
| 19> C 	 4.63024 	 22.4758 	 65.8893
| 20> H 	 3.8177 	 21.9214 	 66.2069
| 21> H 	 4.98885 	 23.051 	 66.7991
| 22> H 	 4.25643 	 23.1163 	 65.1278
| 23> S 	 7.867 	 28.2469 	 64.4076
| 24> C 	 8.74103 	 29.7673 	 64.8579
| 25> C 	 9.82391 	 29.5642 	 65.6974
| 26> C 	 9.76439 	 28.2508 	 66.2277
| 27> C 	 8.8154 	 27.4026 	 65.6762
| 28> H 	 10.4785 	 30.4095 	 65.949
| 29> C 	 10.8364 	 27.8626 	 67.3049
| 30> H 	 11.8347 	 27.7285 	 66.7994
| 31> H 	 10.7157 	 26.8796 	 67.63
| 32> C 	 10.8513 	 28.6337 	 68.5881
| 33> H 	 10.0054 	 28.5507 	 69.3194
| 34> H 	 10.7166 	 29.7758 	 68.3544
| 35> C 	 12.2237 	 28.4889 	 69.3061
| 36> H 	 12.9898 	 28.781 	 68.6508
| 37> H 	 12.4097 	 27.4024 	 69.5756
| 38> H 	 12.4061 	 29.0885 	 70.194
| 39> H 	 7.40968 	 23.0432 	 67.5628
| 40> H 	 8.55973 	 30.8036 	 64.477
| 41> *
| 42>
| 43>                          ****END OF INPUT****

CARTESIAN COORDINATES (ANGSTROEM)
---------------------------------
  S      8.326970   25.358700   67.541500
  C      7.512370   23.908600   66.951100
  C      7.514580   23.877600   65.519400
  C      8.108780   25.081900   64.948700
  C      8.455160   26.026900   65.898600
  H      8.254650   25.315900   63.894500
  C      6.927910   22.766000   64.658200
  H      7.748230   22.144900   64.279300
  H      6.505940   23.267400   63.739800
  C      5.886040   21.794100   65.356600
  H      5.479420   21.120500   64.543400
  H      6.383680   21.217800   66.112500
  C      4.630240   22.475800   65.889300
  H      3.817700   21.921400   66.206900
  H      4.988850   23.051000   66.799100
  H      4.256430   23.116300   65.127800
  S      7.867000   28.246900   64.407600
  C      8.741030   29.767300   64.857900
  C      9.823910   29.564200   65.697400
  C      9.764390   28.250800   66.227700
  C      8.815400   27.402600   65.676200
  H     10.478500   30.409500   65.949000
  C     10.836400   27.862600   67.304900
  H     11.834700   27.728500   66.799400
  H     10.715700   26.879600   67.630000
  C     10.851300   28.633700   68.588100
  H     10.005400   28.550700   69.319400
  H     10.716600   29.775800   68.354400
  C     12.223700   28.488900   69.306100
  H     12.989800   28.781000   68.650800
  H     12.409700   27.402400   69.575600
  H     12.406100   29.088500   70.194000
  H      7.409680   23.043200   67.562800
  H      8.559730   30.803600   64.477000

 Total Charge           Charge          ....    0
 Multiplicity           Mult            ....    1
 Number of Electrons    NEL             ....  134
 Basis Dimension        Dim             ....  322

ORBITAL ENERGIES
----------------

  NO   OCC          E(Eh)            E(eV)
   0   2.0000     -88.971299     -2421.0321
   1   2.0000     -88.965851     -2420.8839
   2   2.0000     -10.333292      -281.1832
   3   2.0000     -10.331818      -281.1431
   4   2.0000     -10.327322      -281.0207
   5   2.0000     -10.316140      -280.7164
   6   2.0000     -10.313080      -280.6332
   7   2.0000     -10.310836      -280.5721
   8   2.0000     -10.302245      -280.3383
   9   2.0000     -10.299560      -280.2653
  10   2.0000     -10.298554      -280.2379
  11   2.0000     -10.296777      -280.1895
  12   2.0000     -10.293515      -280.1008
  13   2.0000     -10.291786      -280.0537
  14   2.0000     -10.278529      -279.6930
  15   2.0000     -10.267244      -279.3859
  16   2.0000      -8.084209      -219.9825
  17   2.0000      -8.079515      -219.8548
  18   2.0000      -6.042912      -164.4360
  19   2.0000      -6.039178      -164.3344
  20   2.0000      -6.038149      -164.3064
  21   2.0000      -6.034646      -164.2111
  22   2.0000      -6.034199      -164.1989
  23   2.0000      -6.030190      -164.0898
  24   2.0000      -0.999838       -27.2070
  25   2.0000      -0.974246       -26.5106
  26   2.0000      -0.906344       -24.6629
  27   2.0000      -0.904371       -24.6092
  28   2.0000      -0.868732       -23.6394
  29   2.0000      -0.849245       -23.1091
  30   2.0000      -0.841164       -22.8892
  31   2.0000      -0.811736       -22.0885
  32   2.0000      -0.782537       -21.2939
  33   2.0000      -0.769231       -20.9318
  34   2.0000      -0.705365       -19.1940
  35   2.0000      -0.700573       -19.0636
  36   2.0000      -0.693409       -18.8686
  37   2.0000      -0.662172       -18.0186
  38   2.0000      -0.637659       -17.3516
  39   2.0000      -0.605255       -16.4698
  40   2.0000      -0.595622       -16.2077
  41   2.0000      -0.573558       -15.6073
  42   2.0000      -0.553822       -15.0703
  43   2.0000      -0.552069       -15.0226
  44   2.0000      -0.536025       -14.5860
  45   2.0000      -0.522440       -14.2163
  46   2.0000      -0.519673       -14.1410
  47   2.0000      -0.513243       -13.9660
  48   2.0000      -0.508507       -13.8372
  49   2.0000      -0.487282       -13.2596
  50   2.0000      -0.485081       -13.1997
  51   2.0000      -0.482456       -13.1283
  52   2.0000      -0.463859       -12.6223
  53   2.0000      -0.459822       -12.5124
  54   2.0000      -0.458044       -12.4640
  55   2.0000      -0.452496       -12.3130
  56   2.0000      -0.447078       -12.1656
  57   2.0000      -0.442366       -12.0374
  58   2.0000      -0.438203       -11.9241
  59   2.0000      -0.424554       -11.5527
  60   2.0000      -0.416239       -11.3264
  61   2.0000      -0.405097       -11.0232
  62   2.0000      -0.396682       -10.7943
  63   2.0000      -0.351049        -9.5525
  64   2.0000      -0.336415        -9.1543
  65   2.0000      -0.325875        -8.8675
  66   2.0000      -0.284680        -7.7465
  67   0.0000       0.020260         0.5513
  68   0.0000       0.064678         1.7600
  69   0.0000       0.090459         2.4615
  70   0.0000       0.110584         3.0091
  71   0.0000       0.132198         3.5973

MULLIKEN ATOMIC CHARGES
-----------------------
   0 S :    0.103312
   1 C :   -0.112462
   2 C :   -0.108003
   3 C :    0.000310
   4 C :   -0.139288
   5 H :    0.023176
   6 C :    0.035679
   7 H :    0.048913
   8 H :    0.038875
   9 C :   -0.100202
  10 H :    0.039285
  11 H :    0.032241
  12 C :   -0.025004
  13 H :    0.021176
  14 H :    0.034424
  15 H :    0.023414
  16 S :    0.101720
  17 C :   -0.108959
  18 C :   -0.036004
  19 C :   -0.030713
  20 C :   -0.123772
  21 H :    0.042232
  22 C :    0.081566
  23 H :    0.047138
  24 H :   -0.012248
  25 C :   -0.111233
  26 H :    0.047094
  27 H :    0.024225
  28 C :   -0.048211
  29 H :    0.017949
  30 H :    0.036534
  31 H :    0.034480
  32 H :    0.054202
  33 H :    0.068152
Sum of atomic charges:    0.0000000

LOEWDIN ATOMIC CHARGES
----------------------
   0 S :    0.394697
   1 C :   -0.206753
   2 C :   -0.050853
   3 C :   -0.074671
   4 C :   -0.176857
   5 H :    0.032023
   6 C :   -0.037152
   7 H :    0.038139
   8 H :    0.036793
   9 C :   -0.041071
  10 H :    0.032912
  11 H :    0.017755
  12 C :   -0.065121
  13 H :    0.014720
  14 H :    0.032482
  15 H :    0.023117
  16 S :    0.371152
  17 C :   -0.166911
  18 C :   -0.069697
  19 C :   -0.048924
  20 C :   -0.185038
  21 H :    0.041924
  22 C :   -0.038937
  23 H :    0.045123
  24 H :    0.011502
  25 C :   -0.051520
  26 H :    0.031914
  27 H :    0.023552
  28 C :   -0.066629
  29 H :    0.016417
  30 H :    0.030305
  31 H :    0.026057
  32 H :    0.021698
  33 H :    0.037851

  Mayer bond orders larger than 0.100000
B(  0-S ,  1-C ) :   1.1275 B(  0-S ,  4-C ) :   1.1410 B(  1-C ,  2-C ) :   1.6103
B(  1-C , 32-H ) :   0.9601 B(  2-C ,  3-C ) :   1.2342 B(  2-C ,  6-C ) :   1.0125
B(  3-C ,  4-C ) :   1.5653 B(  3-C ,  5-H ) :   0.9901 B(  4-C , 20-C ) :   1.0814
B(  6-C ,  7-H ) :   0.9352 B(  6-C ,  8-H ) :   0.9464 B(  6-C ,  9-C ) :   1.0757
B(  9-C , 10-H ) :   0.9571 B(  9-C , 11-H ) :   0.9558 B(  9-C , 12-C ) :   1.0750
B( 12-C , 13-H ) :   0.9759 B( 12-C , 14-H ) :   0.9709 B( 12-C , 15-H ) :   0.9745
B( 16-S , 17-C ) :   1.1378 B( 16-S , 20-C ) :   1.1035 B( 17-C , 18-C ) :   1.6447
B( 17-C , 33-H ) :   0.9577 B( 18-C , 19-C ) :   1.2145 B( 18-C , 21-H ) :   0.9822
B( 19-C , 20-C ) :   1.6119 B( 19-C , 22-C ) :   1.0302 B( 22-C , 23-H ) :   0.9439
B( 22-C , 24-H ) :   0.9242 B( 22-C , 25-C ) :   1.0335 B( 25-C , 26-H ) :   0.9557
B( 25-C , 27-H ) :   0.9603 B( 25-C , 28-C ) :   1.0691 B( 28-C , 29-H ) :   0.9768
B( 28-C , 30-H ) :   0.9751 B( 28-C , 31-H ) :   0.9744

Dispersion correction           -0.013948748
FINAL SINGLE POINT ENERGY     -1339.853289739996

DIPOLE MOMENT
-------------
                                X             Y             Z
Electronic contribution:     -2.31019       8.79198      -7.66079
Nuclear contribution   :      2.58593      -8.85460       7.54878
                        -----------------------------------------
Total Dipole Moment    :      0.27574      -0.06262      -0.11200
                        -----------------------------------------
Magnitude (a.u.)       :      0.30414
Magnitude (Debye)      :      0.77305

Rotational constants in cm-1:     0.023138     0.007389     0.005954
Rotational constants in MHz :   693.661537   221.504920   178.492285

                             ****ORCA TERMINATED NORMALLY****
TOTAL RUN TIME: 0 days 0 hours 0 minutes 31 seconds 367 msec
