                         Program Version 4.2.1 -  RELEASE  -
|  1> ! wB97X-D3 SP def2-SVP
|  2> %pal
|  3> nprocs 16
|  4> end
|  5>
|  6> * xyz 0 1
|  7> S 	 6.36432 	 -6.84418 	 80.8493
|  8> C 	 6.53036 	 -7.12921 	 82.567
|  9> C 	 5.35714 	 -6.79602 	 83.183
| 10> C 	 4.36727 	 -6.34722 	 82.3441
| 11> C 	 4.67676 	 -6.43498 	 80.9841
| 12> H 	 3.42949 	 -5.95577 	 82.601
| 13> C 	 5.10478 	 -6.90293 	 84.688
| 14> H 	 4.41791 	 -6.07493 	 85.0449
| 15> H 	 5.97986 	 -6.5962 	 85.1612
| 16> C 	 4.58139 	 -8.21624 	 85.2508
| 17> H 	 4.49712 	 -8.07439 	 86.3154
| 18> H 	 3.53948 	 -8.37107 	 84.8671
| 19> C 	 5.41014 	 -9.39343 	 84.956
| 20> H 	 5.01473 	 -10.1213 	 85.6065
| 21> H 	 5.28904 	 -9.62712 	 83.8992
| 22> H 	 6.41756 	 -9.20495 	 85.0651
| 23> S 	 4.8617 	 -5.3811 	 78.4488
| 24> C 	 3.43672 	 -5.04636 	 77.6013
| 25> C 	 2.32828 	 -5.38141 	 78.3847
| 26> C 	 2.57432 	 -6.06203 	 79.5988
| 27> C 	 3.94421 	 -6.04731 	 79.7897
| 28> H 	 1.30936 	 -5.07117 	 77.9854
| 29> C 	 1.48605 	 -6.51214 	 80.5604
| 30> H 	 1.23164 	 -5.5873 	 81.1645
| 31> H 	 1.96906 	 -7.11888 	 81.279
| 32> C 	 0.291941 	 -7.16722 	 79.9397
| 33> H 	 -0.224072 	 -6.57181 	 79.2636
| 34> H 	 -0.417985 	 -7.21076 	 80.7947
| 35> C 	 0.60507 	 -8.60078 	 79.3495
| 36> H 	 1.60145 	 -8.6593 	 78.9972
| 37> H 	 -0.0904393 	 -8.96939 	 78.5462
| 38> H 	 0.522521 	 -9.396 	 80.1129
| 39> H 	 7.37162 	 -7.6686 	 82.9527
| 40> H 	 3.27348 	 -4.51175 	 76.6683
| 41> *
| 42>
| 43>                          ****END OF INPUT****

CARTESIAN COORDINATES (ANGSTROEM)
---------------------------------
  S      6.364320   -6.844180   80.849300
  C      6.530360   -7.129210   82.567000
  C      5.357140   -6.796020   83.183000
  C      4.367270   -6.347220   82.344100
  C      4.676760   -6.434980   80.984100
  H      3.429490   -5.955770   82.601000
  C      5.104780   -6.902930   84.688000
  H      4.417910   -6.074930   85.044900
  H      5.979860   -6.596200   85.161200
  C      4.581390   -8.216240   85.250800
  H      4.497120   -8.074390   86.315400
  H      3.539480   -8.371070   84.867100
  C      5.410140   -9.393430   84.956000
  H      5.014730  -10.121300   85.606500
  H      5.289040   -9.627120   83.899200
  H      6.417560   -9.204950   85.065100
  S      4.861700   -5.381100   78.448800
  C      3.436720   -5.046360   77.601300
  C      2.328280   -5.381410   78.384700
  C      2.574320   -6.062030   79.598800
  C      3.944210   -6.047310   79.789700
  H      1.309360   -5.071170   77.985400
  C      1.486050   -6.512140   80.560400
  H      1.231640   -5.587300   81.164500
  H      1.969060   -7.118880   81.279000
  C      0.291941   -7.167220   79.939700
  H     -0.224072   -6.571810   79.263600
  H     -0.417985   -7.210760   80.794700
  C      0.605070   -8.600780   79.349500
  H      1.601450   -8.659300   78.997200
  H     -0.090439   -8.969390   78.546200
  H      0.522521   -9.396000   80.112900
  H      7.371620   -7.668600   82.952700
  H      3.273480   -4.511750   76.668300

 Total Charge           Charge          ....    0
 Multiplicity           Mult            ....    1
 Number of Electrons    NEL             ....  134
 Basis Dimension        Dim             ....  322

ORBITAL ENERGIES
----------------

  NO   OCC          E(Eh)            E(eV)
   0   2.0000     -88.969878     -2420.9935
   1   2.0000     -88.961438     -2420.7638
   2   2.0000     -10.328703      -281.0583
   3   2.0000     -10.326151      -280.9889
   4   2.0000     -10.313406      -280.6420
   5   2.0000     -10.310279      -280.5569
   6   2.0000     -10.302027      -280.3324
   7   2.0000     -10.296939      -280.1940
   8   2.0000     -10.295274      -280.1487
   9   2.0000     -10.295075      -280.1432
  10   2.0000     -10.289100      -279.9807
  11   2.0000     -10.285538      -279.8837
  12   2.0000     -10.285111      -279.8721
  13   2.0000     -10.281273      -279.7677
  14   2.0000     -10.280394      -279.7437
  15   2.0000     -10.261225      -279.2221
  16   2.0000      -8.085246      -220.0107
  17   2.0000      -8.076783      -219.7804
  18   2.0000      -6.043704      -164.4576
  19   2.0000      -6.039694      -164.3484
  20   2.0000      -6.035990      -164.2476
  21   2.0000      -6.035187      -164.2258
  22   2.0000      -6.031152      -164.1160
  23   2.0000      -6.027683      -164.0216
  24   2.0000      -1.014212       -27.5981
  25   2.0000      -0.991566       -26.9819
  26   2.0000      -0.918085       -24.9824
  27   2.0000      -0.916383       -24.9361
  28   2.0000      -0.872444       -23.7404
  29   2.0000      -0.856668       -23.3111
  30   2.0000      -0.844513       -22.9804
  31   2.0000      -0.812208       -22.1013
  32   2.0000      -0.789376       -21.4800
  33   2.0000      -0.779430       -21.2094
  34   2.0000      -0.715938       -19.4817
  35   2.0000      -0.703546       -19.1445
  36   2.0000      -0.693760       -18.8782
  37   2.0000      -0.654905       -17.8209
  38   2.0000      -0.641048       -17.4438
  39   2.0000      -0.625123       -17.0105
  40   2.0000      -0.601160       -16.3584
  41   2.0000      -0.572984       -15.5917
  42   2.0000      -0.558158       -15.1882
  43   2.0000      -0.552372       -15.0308
  44   2.0000      -0.542413       -14.7598
  45   2.0000      -0.532923       -14.5016
  46   2.0000      -0.526425       -14.3248
  47   2.0000      -0.519565       -14.1381
  48   2.0000      -0.505010       -13.7420
  49   2.0000      -0.497299       -13.5322
  50   2.0000      -0.495332       -13.4787
  51   2.0000      -0.482512       -13.1298
  52   2.0000      -0.471563       -12.8319
  53   2.0000      -0.464751       -12.6465
  54   2.0000      -0.463646       -12.6164
  55   2.0000      -0.449550       -12.2329
  56   2.0000      -0.443849       -12.0778
  57   2.0000      -0.438722       -11.9382
  58   2.0000      -0.432090       -11.7578
  59   2.0000      -0.430240       -11.7074
  60   2.0000      -0.418342       -11.3837
  61   2.0000      -0.412213       -11.2169
  62   2.0000      -0.409790       -11.1510
  63   2.0000      -0.357010        -9.7147
  64   2.0000      -0.335653        -9.1336
  65   2.0000      -0.332054        -9.0356
  66   2.0000      -0.280641        -7.6366
  67   0.0000       0.021148         0.5755
  68   0.0000       0.081727         2.2239
  69   0.0000       0.102975         2.8021
  70   0.0000       0.124439         3.3861
  71   0.0000       0.131749         3.5851

MULLIKEN ATOMIC CHARGES
-----------------------
   0 S :    0.080115
   1 C :   -0.128493
   2 C :   -0.061023
   3 C :    0.031323
   4 C :   -0.150134
   5 H :   -0.019903
   6 C :    0.056798
   7 H :    0.022918
   8 H :    0.003024
   9 C :   -0.071942
  10 H :    0.022295
  11 H :    0.025485
  12 C :    0.012877
  13 H :    0.029124
  14 H :    0.037798
  15 H :    0.005132
  16 S :    0.130860
  17 C :   -0.084073
  18 C :   -0.090967
  19 C :   -0.059088
  20 C :   -0.131592
  21 H :    0.033068
  22 C :    0.057328
  23 H :    0.054742
  24 H :    0.012573
  25 C :   -0.018862
  26 H :    0.015678
  27 H :    0.027739
  28 C :   -0.061508
  29 H :    0.039732
  30 H :    0.041489
  31 H :    0.029517
  32 H :    0.050030
  33 H :    0.057943
Sum of atomic charges:    0.0000000

LOEWDIN ATOMIC CHARGES
----------------------
   0 S :    0.403560
   1 C :   -0.195218
   2 C :   -0.066929
   3 C :   -0.068191
   4 C :   -0.180880
   5 H :    0.020592
   6 C :   -0.032807
   7 H :    0.036664
   8 H :    0.017713
   9 C :   -0.039569
  10 H :    0.021066
  11 H :    0.026532
  12 C :   -0.054677
  13 H :    0.026754
  14 H :    0.030985
  15 H :    0.011862
  16 S :    0.431163
  17 C :   -0.216224
  18 C :   -0.078564
  19 C :   -0.059883
  20 C :   -0.198318
  21 H :    0.035162
  22 C :   -0.030846
  23 H :    0.044902
  24 H :    0.024369
  25 C :   -0.035532
  26 H :    0.013632
  27 H :    0.033059
  28 C :   -0.066311
  29 H :    0.022449
  30 H :    0.033300
  31 H :    0.028384
  32 H :    0.025761
  33 H :    0.036040

  Mayer bond orders larger than 0.100000
B(  0-S ,  1-C ) :   1.1401 B(  0-S ,  4-C ) :   1.1740 B(  1-C ,  2-C ) :   1.5702
B(  1-C ,  4-C ) :   0.1096 B(  1-C , 32-H ) :   0.9778 B(  2-C ,  3-C ) :   1.2814
B(  2-C ,  6-C ) :   1.0095 B(  3-C ,  4-C ) :   1.5104 B(  3-C ,  5-H ) :   1.0043
B(  4-C , 20-C ) :   1.0671 B(  6-C ,  7-H ) :   0.9410 B(  6-C ,  8-H ) :   0.9361
B(  6-C ,  9-C ) :   1.0849 B(  9-C , 10-H ) :   0.9524 B(  9-C , 11-H ) :   0.9504
B(  9-C , 12-C ) :   1.0889 B( 12-C , 13-H ) :   0.9691 B( 12-C , 14-H ) :   0.9677
B( 12-C , 15-H ) :   0.9731 B( 16-S , 17-C ) :   1.1556 B( 16-S , 20-C ) :   1.1517
B( 17-C , 18-C ) :   1.6110 B( 17-C , 33-H ) :   0.9660 B( 18-C , 19-C ) :   1.2474
B( 18-C , 21-H ) :   0.9748 B( 19-C , 20-C ) :   1.5639 B( 19-C , 22-C ) :   1.0387
B( 22-C , 23-H ) :   0.9263 B( 22-C , 24-H ) :   0.9225 B( 22-C , 25-C ) :   1.0777
B( 25-C , 26-H ) :   0.9578 B( 25-C , 27-H ) :   0.9513 B( 25-C , 28-C ) :   1.0516
B( 28-C , 29-H ) :   0.9822 B( 28-C , 30-H ) :   0.9782 B( 28-C , 31-H ) :   0.9755

Dispersion correction           -0.014379772
FINAL SINGLE POINT ENERGY     -1339.867963581565

DIPOLE MOMENT
-------------
                                X             Y             Z
Electronic contribution:     16.85884      13.09301     -17.24819
Nuclear contribution   :    -17.44412     -13.11118      17.65523
                        -----------------------------------------
Total Dipole Moment    :     -0.58529      -0.01817       0.40703
                        -----------------------------------------
Magnitude (a.u.)       :      0.71314
Magnitude (Debye)      :      1.81265

Rotational constants in cm-1:     0.019552     0.008928     0.006755
Rotational constants in MHz :   586.163121   267.651785   202.510414

                             ****ORCA TERMINATED NORMALLY****
TOTAL RUN TIME: 0 days 0 hours 0 minutes 35 seconds 898 msec
