                         Program Version 4.2.1 -  RELEASE  -
|  1> ! wB97X-D3 SP def2-SVP
|  2> %pal
|  3> nprocs 16
|  4> end
|  5>
|  6> * xyz 0 1
|  7> S 	 -66.0467 	 60.4977 	 128.451
|  8> C 	 -67.5111 	 61.307 	 128.932
|  9> C 	 -68.6129 	 60.5526 	 128.556
| 10> C 	 -68.2801 	 59.3939 	 127.753
| 11> C 	 -66.8977 	 59.2111 	 127.635
| 12> H 	 -68.9595 	 58.6457 	 127.331
| 13> C 	 -70.0394 	 60.9275 	 128.678
| 14> H 	 -70.4277 	 61.1673 	 127.697
| 15> H 	 -70.0635 	 61.7827 	 129.304
| 16> C 	 -70.9765 	 59.9226 	 129.419
| 17> H 	 -71.8073 	 60.5128 	 129.778
| 18> H 	 -71.3696 	 59.142 	 128.757
| 19> C 	 -70.2494 	 59.2143 	 130.671
| 20> H 	 -69.3377 	 58.7282 	 130.302
| 21> H 	 -70.0633 	 59.9558 	 131.419
| 22> H 	 -70.8953 	 58.4431 	 131.005
| 23> S 	 -65.0691 	 57.2049 	 127.898
| 24> C 	 -65.0302 	 55.9682 	 126.746
| 25> C 	 -65.8786 	 56.2084 	 125.723
| 26> C 	 -66.6225 	 57.4579 	 125.778
| 27> C 	 -66.2991 	 58.0885 	 126.971
| 28> H 	 -65.8614 	 55.5011 	 124.902
| 29> C 	 -67.4407 	 58.0166 	 124.641
| 30> H 	 -66.848 	 57.797 	 123.684
| 31> H 	 -67.4531 	 59.111 	 124.749
| 32> C 	 -68.8961 	 57.3875 	 124.511
| 33> H 	 -69.4105 	 57.6076 	 125.376
| 34> H 	 -68.8871 	 56.3104 	 124.561
| 35> C 	 -69.5922 	 57.9267 	 123.267
| 36> H 	 -69.6597 	 57.0658 	 122.515
| 37> H 	 -69.0754 	 58.7728 	 122.857
| 38> H 	 -70.5865 	 58.3088 	 123.415
| 39> H 	 -67.5423 	 62.2224 	 129.527
| 40> H 	 -64.5308 	 55.0978 	 126.779
| 41> *
| 42>
| 43>                          ****END OF INPUT****

CARTESIAN COORDINATES (ANGSTROEM)
---------------------------------
  S    -66.046700   60.497700  128.451000
  C    -67.511100   61.307000  128.932000
  C    -68.612900   60.552600  128.556000
  C    -68.280100   59.393900  127.753000
  C    -66.897700   59.211100  127.635000
  H    -68.959500   58.645700  127.331000
  C    -70.039400   60.927500  128.678000
  H    -70.427700   61.167300  127.697000
  H    -70.063500   61.782700  129.304000
  C    -70.976500   59.922600  129.419000
  H    -71.807300   60.512800  129.778000
  H    -71.369600   59.142000  128.757000
  C    -70.249400   59.214300  130.671000
  H    -69.337700   58.728200  130.302000
  H    -70.063300   59.955800  131.419000
  H    -70.895300   58.443100  131.005000
  S    -65.069100   57.204900  127.898000
  C    -65.030200   55.968200  126.746000
  C    -65.878600   56.208400  125.723000
  C    -66.622500   57.457900  125.778000
  C    -66.299100   58.088500  126.971000
  H    -65.861400   55.501100  124.902000
  C    -67.440700   58.016600  124.641000
  H    -66.848000   57.797000  123.684000
  H    -67.453100   59.111000  124.749000
  C    -68.896100   57.387500  124.511000
  H    -69.410500   57.607600  125.376000
  H    -68.887100   56.310400  124.561000
  C    -69.592200   57.926700  123.267000
  H    -69.659700   57.065800  122.515000
  H    -69.075400   58.772800  122.857000
  H    -70.586500   58.308800  123.415000
  H    -67.542300   62.222400  129.527000
  H    -64.530800   55.097800  126.779000

 Total Charge           Charge          ....    0
 Multiplicity           Mult            ....    1
 Number of Electrons    NEL             ....  134
 Basis Dimension        Dim             ....  322

ORBITAL ENERGIES
----------------

  NO   OCC          E(Eh)            E(eV)
   0   2.0000     -88.966182     -2420.8929
   1   2.0000     -88.962362     -2420.7889
   2   2.0000     -10.328257      -281.0462
   3   2.0000     -10.325693      -280.9764
   4   2.0000     -10.315984      -280.7122
   5   2.0000     -10.305553      -280.4284
   6   2.0000     -10.303641      -280.3763
   7   2.0000     -10.301604      -280.3209
   8   2.0000     -10.299862      -280.2735
   9   2.0000     -10.294744      -280.1342
  10   2.0000     -10.289208      -279.9836
  11   2.0000     -10.288666      -279.9688
  12   2.0000     -10.284833      -279.8645
  13   2.0000     -10.284087      -279.8442
  14   2.0000     -10.280587      -279.7490
  15   2.0000     -10.273021      -279.5431
  16   2.0000      -8.081027      -219.8959
  17   2.0000      -8.078127      -219.8170
  18   2.0000      -6.039608      -164.3461
  19   2.0000      -6.036579      -164.2637
  20   2.0000      -6.035413      -164.2319
  21   2.0000      -6.032485      -164.1522
  22   2.0000      -6.031818      -164.1341
  23   2.0000      -6.028896      -164.0546
  24   2.0000      -1.008789       -27.4505
  25   2.0000      -0.985720       -26.8228
  26   2.0000      -0.909179       -24.7400
  27   2.0000      -0.907467       -24.6934
  28   2.0000      -0.872385       -23.7388
  29   2.0000      -0.852828       -23.2066
  30   2.0000      -0.838716       -22.8226
  31   2.0000      -0.814273       -22.1575
  32   2.0000      -0.781827       -21.2746
  33   2.0000      -0.772276       -21.0147
  34   2.0000      -0.714344       -19.4383
  35   2.0000      -0.705976       -19.2106
  36   2.0000      -0.697544       -18.9811
  37   2.0000      -0.659869       -17.9560
  38   2.0000      -0.636763       -17.3272
  39   2.0000      -0.619271       -16.8512
  40   2.0000      -0.597295       -16.2532
  41   2.0000      -0.563619       -15.3369
  42   2.0000      -0.558940       -15.2095
  43   2.0000      -0.558260       -15.1910
  44   2.0000      -0.535512       -14.5720
  45   2.0000      -0.528609       -14.3842
  46   2.0000      -0.517297       -14.0764
  47   2.0000      -0.516206       -14.0467
  48   2.0000      -0.510434       -13.8896
  49   2.0000      -0.498038       -13.5523
  50   2.0000      -0.488174       -13.2839
  51   2.0000      -0.483241       -13.1497
  52   2.0000      -0.472931       -12.8691
  53   2.0000      -0.462945       -12.5974
  54   2.0000      -0.458236       -12.4692
  55   2.0000      -0.452738       -12.3196
  56   2.0000      -0.443381       -12.0650
  57   2.0000      -0.439246       -11.9525
  58   2.0000      -0.429013       -11.6740
  59   2.0000      -0.425003       -11.5649
  60   2.0000      -0.419972       -11.4280
  61   2.0000      -0.416273       -11.3274
  62   2.0000      -0.415772       -11.3137
  63   2.0000      -0.352188        -9.5835
  64   2.0000      -0.328404        -8.9363
  65   2.0000      -0.326765        -8.8917
  66   2.0000      -0.290406        -7.9024
  67   0.0000       0.031047         0.8448
  68   0.0000       0.076878         2.0920
  69   0.0000       0.117373         3.1939
  70   0.0000       0.119084         3.2404
  71   0.0000       0.127977         3.4824

MULLIKEN ATOMIC CHARGES
-----------------------
   0 S :    0.112119
   1 C :   -0.121687
   2 C :   -0.115892
   3 C :    0.013674
   4 C :   -0.143674
   5 H :    0.018154
   6 C :    0.108821
   7 H :    0.041985
   8 H :   -0.004144
   9 C :   -0.117034
  10 H :    0.031027
  11 H :    0.031452
  12 C :   -0.041551
  13 H :    0.051671
  14 H :    0.033466
  15 H :    0.029322
  16 S :    0.108218
  17 C :   -0.017041
  18 C :   -0.053808
  19 C :   -0.014955
  20 C :   -0.170846
  21 H :    0.009054
  22 C :    0.008660
  23 H :    0.046347
  24 H :    0.044362
  25 C :   -0.026239
  26 H :   -0.007030
  27 H :    0.024228
  28 C :   -0.042934
  29 H :    0.046524
  30 H :    0.030040
  31 H :    0.028356
  32 H :    0.055162
  33 H :    0.004192
Sum of atomic charges:   -0.0000000

LOEWDIN ATOMIC CHARGES
----------------------
   0 S :    0.409385
   1 C :   -0.205923
   2 C :   -0.064641
   3 C :   -0.063420
   4 C :   -0.198841
   5 H :    0.032002
   6 C :   -0.033175
   7 H :    0.034709
   8 H :    0.022510
   9 C :   -0.035492
  10 H :    0.022114
  11 H :    0.018400
  12 C :   -0.056633
  13 H :    0.030743
  14 H :    0.021585
  15 H :    0.020673
  16 S :    0.412982
  17 C :   -0.185433
  18 C :   -0.069909
  19 C :   -0.056228
  20 C :   -0.188325
  21 H :    0.027372
  22 C :   -0.031112
  23 H :    0.041229
  24 H :    0.034586
  25 C :   -0.034295
  26 H :    0.008658
  27 H :    0.024868
  28 C :   -0.067389
  29 H :    0.037648
  30 H :    0.023896
  31 H :    0.024319
  32 H :    0.033713
  33 H :    0.009425

  Mayer bond orders larger than 0.100000
B(  0-S ,  1-C ) :   1.1280 B(  0-S ,  4-C ) :   1.1553 B(  1-C ,  2-C ) :   1.6079
B(  1-C , 32-H ) :   0.9658 B(  2-C ,  3-C ) :   1.2214 B(  2-C ,  6-C ) :   1.0464
B(  3-C ,  4-C ) :   1.5580 B(  3-C ,  5-H ) :   0.9915 B(  4-C , 20-C ) :   1.0579
B(  6-C ,  7-H ) :   0.9428 B(  6-C ,  8-H ) :   0.9298 B(  6-C ,  9-C ) :   1.0555
B(  9-C , 10-H ) :   0.9634 B(  9-C , 11-H ) :   0.9592 B(  9-C , 12-C ) :   1.0788
B( 12-C , 13-H ) :   0.9687 B( 12-C , 14-H ) :   0.9798 B( 12-C , 15-H ) :   0.9768
B( 16-S , 17-C ) :   1.1409 B( 16-S , 20-C ) :   1.1361 B( 17-C , 18-C ) :   1.6512
B( 17-C , 33-H ) :   0.9758 B( 18-C , 19-C ) :   1.2053 B( 18-C , 21-H ) :   0.9869
B( 19-C , 20-C ) :   1.6011 B( 19-C , 22-C ) :   1.0421 B( 22-C , 23-H ) :   0.9426
B( 22-C , 24-H ) :   0.9351 B( 22-C , 25-C ) :   1.0497 B( 25-C , 26-H ) :   0.9547
B( 25-C , 27-H ) :   0.9606 B( 25-C , 28-C ) :   1.0648 B( 28-C , 29-H ) :   0.9786
B( 28-C , 30-H ) :   0.9761 B( 28-C , 31-H ) :   0.9759

Dispersion correction           -0.014729646
FINAL SINGLE POINT ENERGY     -1339.874997567715

DIPOLE MOMENT
-------------
                                X             Y             Z
Electronic contribution:     26.12332       0.74472       7.64701
Nuclear contribution   :    -26.74688      -0.85770      -7.94056
                        -----------------------------------------
Total Dipole Moment    :     -0.62356      -0.11298      -0.29355
                        -----------------------------------------
Magnitude (a.u.)       :      0.69841
Magnitude (Debye)      :      1.77520

Rotational constants in cm-1:     0.015949     0.009987     0.007489
Rotational constants in MHz :   478.130823   299.401999   224.528773

                             ****ORCA TERMINATED NORMALLY****
TOTAL RUN TIME: 0 days 0 hours 0 minutes 34 seconds 938 msec
