                         Program Version 4.2.1 -  RELEASE  -
|  1> ! wB97X-D3 SP def2-SVP
|  2> %pal
|  3> nprocs 16
|  4> end
|  5>
|  6> * xyz 0 1
|  7> S 	 -44.6253 	 25.0693 	 86.463
|  8> C 	 -45.8838 	 23.8429 	 86.6293
|  9> C 	 -46.6141 	 23.7561 	 85.4689
| 10> C 	 -46.0705 	 24.6056 	 84.4036
| 11> C 	 -44.9047 	 25.1842 	 84.753
| 12> H 	 -46.4237 	 24.7384 	 83.3789
| 13> C 	 -47.8477 	 22.9883 	 85.1339
| 14> H 	 -48.4606 	 23.8093 	 84.8091
| 15> H 	 -48.4349 	 22.5395 	 85.9353
| 16> C 	 -47.7255 	 21.9952 	 83.95
| 17> H 	 -48.6844 	 21.7366 	 83.6288
| 18> H 	 -47.1834 	 22.3747 	 83.0587
| 19> C 	 -47.1898 	 20.6117 	 84.3804
| 20> H 	 -46.2002 	 20.5678 	 84.885
| 21> H 	 -47.9431 	 20.2644 	 85.1331
| 22> H 	 -47.2481 	 19.8992 	 83.6195
| 23> S 	 -44.0262 	 27.7361 	 84.4021
| 24> C 	 -43.3784 	 28.1798 	 82.8302
| 25> C 	 -43.23 	 27.1113 	 82.0291
| 26> C 	 -43.81 	 25.9058 	 82.5526
| 27> C 	 -44.1405 	 26.0318 	 83.9136
| 28> H 	 -42.816 	 27.2597 	 81.0875
| 29> C 	 -43.8853 	 24.7193 	 81.7259
| 30> H 	 -43.7985 	 24.9953 	 80.636
| 31> H 	 -44.8496 	 24.3363 	 81.8569
| 32> C 	 -42.8562 	 23.6668 	 82.0541
| 33> H 	 -42.9189 	 23.3165 	 83.1083
| 34> H 	 -41.9405 	 24.1338 	 81.876
| 35> C 	 -43.087 	 22.4768 	 81.1617
| 36> H 	 -44.1247 	 22.1042 	 81.1148
| 37> H 	 -42.4894 	 21.6438 	 81.5648
| 38> H 	 -42.6918 	 22.4698 	 80.1378
| 39> H 	 -46.2966 	 23.382 	 87.4959
| 40> H 	 -42.8849 	 29.1089 	 82.6382
| 41> *
| 42>
| 43>                          ****END OF INPUT****

CARTESIAN COORDINATES (ANGSTROEM)
---------------------------------
  S    -44.625300   25.069300   86.463000
  C    -45.883800   23.842900   86.629300
  C    -46.614100   23.756100   85.468900
  C    -46.070500   24.605600   84.403600
  C    -44.904700   25.184200   84.753000
  H    -46.423700   24.738400   83.378900
  C    -47.847700   22.988300   85.133900
  H    -48.460600   23.809300   84.809100
  H    -48.434900   22.539500   85.935300
  C    -47.725500   21.995200   83.950000
  H    -48.684400   21.736600   83.628800
  H    -47.183400   22.374700   83.058700
  C    -47.189800   20.611700   84.380400
  H    -46.200200   20.567800   84.885000
  H    -47.943100   20.264400   85.133100
  H    -47.248100   19.899200   83.619500
  S    -44.026200   27.736100   84.402100
  C    -43.378400   28.179800   82.830200
  C    -43.230000   27.111300   82.029100
  C    -43.810000   25.905800   82.552600
  C    -44.140500   26.031800   83.913600
  H    -42.816000   27.259700   81.087500
  C    -43.885300   24.719300   81.725900
  H    -43.798500   24.995300   80.636000
  H    -44.849600   24.336300   81.856900
  C    -42.856200   23.666800   82.054100
  H    -42.918900   23.316500   83.108300
  H    -41.940500   24.133800   81.876000
  C    -43.087000   22.476800   81.161700
  H    -44.124700   22.104200   81.114800
  H    -42.489400   21.643800   81.564800
  H    -42.691800   22.469800   80.137800
  H    -46.296600   23.382000   87.495900
  H    -42.884900   29.108900   82.638200

 Total Charge           Charge          ....    0
 Multiplicity           Mult            ....    1
 Number of Electrons    NEL             ....  134
 Basis Dimension        Dim             ....  322

ORBITAL ENERGIES
----------------

  NO   OCC          E(Eh)            E(eV)
   0   2.0000     -88.962753     -2420.7996
   1   2.0000     -88.961187     -2420.7570
   2   2.0000     -10.323655      -280.9209
   3   2.0000     -10.321354      -280.8583
   4   2.0000     -10.311128      -280.5800
   5   2.0000     -10.310805      -280.5713
   6   2.0000     -10.303359      -280.3686
   7   2.0000     -10.300747      -280.2976
   8   2.0000     -10.292758      -280.0802
   9   2.0000     -10.291175      -280.0371
  10   2.0000     -10.288382      -279.9611
  11   2.0000     -10.285324      -279.8779
  12   2.0000     -10.281899      -279.7847
  13   2.0000     -10.280372      -279.7431
  14   2.0000     -10.276769      -279.6451
  15   2.0000     -10.276117      -279.6274
  16   2.0000      -8.077706      -219.8056
  17   2.0000      -8.075760      -219.7526
  18   2.0000      -6.036399      -164.2588
  19   2.0000      -6.034397      -164.2043
  20   2.0000      -6.032392      -164.1497
  21   2.0000      -6.030336      -164.0938
  22   2.0000      -6.028038      -164.0312
  23   2.0000      -6.026350      -163.9853
  24   2.0000      -1.010609       -27.5001
  25   2.0000      -0.984321       -26.7847
  26   2.0000      -0.921706       -25.0809
  27   2.0000      -0.915195       -24.9037
  28   2.0000      -0.877378       -23.8747
  29   2.0000      -0.854126       -23.2420
  30   2.0000      -0.846191       -23.0260
  31   2.0000      -0.818399       -22.2698
  32   2.0000      -0.784009       -21.3340
  33   2.0000      -0.772487       -21.0204
  34   2.0000      -0.714612       -19.4456
  35   2.0000      -0.702582       -19.1182
  36   2.0000      -0.697193       -18.9716
  37   2.0000      -0.664941       -18.0940
  38   2.0000      -0.640241       -17.4219
  39   2.0000      -0.623590       -16.9687
  40   2.0000      -0.601672       -16.3723
  41   2.0000      -0.575880       -15.6705
  42   2.0000      -0.567389       -15.4394
  43   2.0000      -0.555211       -15.1081
  44   2.0000      -0.538184       -14.6447
  45   2.0000      -0.526613       -14.3299
  46   2.0000      -0.518188       -14.1006
  47   2.0000      -0.514476       -13.9996
  48   2.0000      -0.508022       -13.8240
  49   2.0000      -0.502253       -13.6670
  50   2.0000      -0.494359       -13.4522
  51   2.0000      -0.483185       -13.1481
  52   2.0000      -0.466273       -12.6879
  53   2.0000      -0.459803       -12.5119
  54   2.0000      -0.457466       -12.4483
  55   2.0000      -0.450907       -12.2698
  56   2.0000      -0.443084       -12.0569
  57   2.0000      -0.440291       -11.9809
  58   2.0000      -0.435400       -11.8478
  59   2.0000      -0.427064       -11.6210
  60   2.0000      -0.423744       -11.5307
  61   2.0000      -0.416583       -11.3358
  62   2.0000      -0.412577       -11.2268
  63   2.0000      -0.350543        -9.5388
  64   2.0000      -0.326900        -8.8954
  65   2.0000      -0.322444        -8.7741
  66   2.0000      -0.294279        -8.0078
  67   0.0000       0.028295         0.7699
  68   0.0000       0.072677         1.9776
  69   0.0000       0.108524         2.9531
  70   0.0000       0.119480         3.2512
  71   0.0000       0.125381         3.4118

MULLIKEN ATOMIC CHARGES
-----------------------
   0 S :    0.097677
   1 C :   -0.083195
   2 C :   -0.085090
   3 C :   -0.004120
   4 C :   -0.146740
   5 H :    0.029492
   6 C :    0.068123
   7 H :    0.032337
   8 H :    0.016581
   9 C :   -0.055496
  10 H :    0.011117
  11 H :    0.033952
  12 C :   -0.051941
  13 H :    0.046737
  14 H :    0.015809
  15 H :    0.021797
  16 S :    0.084045
  17 C :   -0.070629
  18 C :   -0.009377
  19 C :   -0.071411
  20 C :   -0.111748
  21 H :   -0.006672
  22 C :    0.088502
  23 H :    0.025603
  24 H :   -0.016830
  25 C :   -0.029842
  26 H :    0.049094
  27 H :    0.011742
  28 C :   -0.056558
  29 H :    0.031924
  30 H :    0.023334
  31 H :    0.029902
  32 H :    0.030802
  33 H :    0.051079
Sum of atomic charges:    0.0000000

LOEWDIN ATOMIC CHARGES
----------------------
   0 S :    0.392326
   1 C :   -0.197287
   2 C :   -0.053917
   3 C :   -0.060031
   4 C :   -0.198358
   5 H :    0.033195
   6 C :   -0.034899
   7 H :    0.038839
   8 H :    0.028923
   9 C :   -0.033439
  10 H :    0.018152
  11 H :    0.023987
  12 C :   -0.064693
  13 H :    0.028245
  14 H :    0.026734
  15 H :    0.015281
  16 S :    0.385810
  17 C :   -0.173479
  18 C :   -0.064307
  19 C :   -0.046451
  20 C :   -0.192550
  21 H :    0.022295
  22 C :   -0.036463
  23 H :    0.038273
  24 H :    0.017074
  25 C :   -0.028106
  26 H :    0.036227
  27 H :    0.019177
  28 C :   -0.075017
  29 H :    0.026587
  30 H :    0.028540
  31 H :    0.025603
  32 H :    0.027152
  33 H :    0.026577

  Mayer bond orders larger than 0.100000
B(  0-S ,  1-C ) :   1.0981 B(  0-S ,  4-C ) :   1.1256 B(  1-C ,  2-C ) :   1.6667
B(  1-C , 32-H ) :   0.9685 B(  2-C ,  3-C ) :   1.1752 B(  2-C ,  6-C ) :   1.0193
B(  3-C ,  4-C ) :   1.6262 B(  3-C ,  5-H ) :   0.9846 B(  4-C , 20-C ) :   1.0454
B(  6-C ,  7-H ) :   0.9278 B(  6-C ,  8-H ) :   0.9450 B(  6-C ,  9-C ) :   1.0805
B(  9-C , 10-H ) :   0.9507 B(  9-C , 11-H ) :   0.9563 B(  9-C , 12-C ) :   1.0707
B( 12-C , 13-H ) :   0.9790 B( 12-C , 14-H ) :   0.9741 B( 12-C , 15-H ) :   0.9752
B( 16-S , 17-C ) :   1.1466 B( 16-S , 20-C ) :   1.1258 B( 17-C , 18-C ) :   1.6429
B( 17-C , 33-H ) :   0.9602 B( 18-C , 19-C ) :   1.2183 B( 18-C , 21-H ) :   0.9979
B( 19-C , 20-C ) :   1.5856 B( 19-C , 22-C ) :   1.0711 B( 22-C , 23-H ) :   0.9303
B( 22-C , 24-H ) :   0.9053 B( 22-C , 25-C ) :   1.0785 B( 25-C , 26-H ) :   0.9535
B( 25-C , 27-H ) :   0.9492 B( 25-C , 28-C ) :   1.0884 B( 28-C , 29-H ) :   0.9725
B( 28-C , 30-H ) :   0.9705 B( 28-C , 31-H ) :   0.9719

Dispersion correction           -0.014696924
FINAL SINGLE POINT ENERGY     -1339.859858900415

DIPOLE MOMENT
-------------
                                X             Y             Z
Electronic contribution:      6.78462      25.78769      15.52192
Nuclear contribution   :     -7.13224     -26.18376     -16.16676
                        -----------------------------------------
Total Dipole Moment    :     -0.34762      -0.39608      -0.64484
                        -----------------------------------------
Magnitude (a.u.)       :      0.83279
Magnitude (Debye)      :      2.11678

Rotational constants in cm-1:     0.017733     0.010149     0.007386
Rotational constants in MHz :   531.635573   304.248957   221.420885

                             ****ORCA TERMINATED NORMALLY****
TOTAL RUN TIME: 0 days 0 hours 0 minutes 32 seconds 808 msec
