                         Program Version 4.2.1 -  RELEASE  -
|  1> ! wB97X-D3 SP def2-SVP
|  2> %pal
|  3> nprocs 16
|  4> end
|  5>
|  6> * xyz 0 1
|  7> S 	 -11.9789 	 55.8947 	 30.011
|  8> C 	 -12.0283 	 54.5432 	 28.8359
|  9> C 	 -11.4415 	 53.4303 	 29.2999
| 10> C 	 -11.0578 	 53.5425 	 30.6466
| 11> C 	 -11.3955 	 54.77 	 31.2419
| 12> H 	 -10.5297 	 52.7629 	 31.2416
| 13> C 	 -11.279 	 52.1532 	 28.5217
| 14> H 	 -10.2608 	 51.7911 	 28.4466
| 15> H 	 -11.696 	 52.3225 	 27.5756
| 16> C 	 -12.0276 	 50.9423 	 29.0402
| 17> H 	 -12.0179 	 50.7795 	 30.1223
| 18> H 	 -13.0263 	 51.2589 	 28.7932
| 19> C 	 -11.7372 	 49.6551 	 28.1856
| 20> H 	 -11.6334 	 49.9228 	 27.1482
| 21> H 	 -10.8222 	 49.191 	 28.5042
| 22> H 	 -12.4965 	 48.8639 	 28.2056
| 23> S 	 -10.0295 	 56.4587 	 32.964
| 24> C 	 -10.36 	 56.3869 	 34.6946
| 25> C 	 -11.2277 	 55.3822 	 34.9511
| 26> C 	 -11.5938 	 54.5698 	 33.7976
| 27> C 	 -11.1583 	 55.1065 	 32.665
| 28> H 	 -11.6298 	 55.2212 	 35.964
| 29> C 	 -12.6118 	 53.4337 	 33.7968
| 30> H 	 -12.6384 	 53.1436 	 34.873
| 31> H 	 -12.1374 	 52.6991 	 33.2164
| 32> C 	 -14.0501 	 53.8001 	 33.2553
| 33> H 	 -13.9076 	 54.275 	 32.316
| 34> H 	 -14.2706 	 54.5417 	 33.9985
| 35> C 	 -15.0402 	 52.5546 	 33.0616
| 36> H 	 -15.4413 	 52.3192 	 34.0242
| 37> H 	 -14.5151 	 51.7308 	 32.5055
| 38> H 	 -15.8907 	 53.0447 	 32.5844
| 39> H 	 -12.5001 	 54.5097 	 27.866
| 40> H 	 -10.0909 	 57.1568 	 35.4713
| 41> *
| 42>
| 43>                          ****END OF INPUT****

CARTESIAN COORDINATES (ANGSTROEM)
---------------------------------
  S    -11.978900   55.894700   30.011000
  C    -12.028300   54.543200   28.835900
  C    -11.441500   53.430300   29.299900
  C    -11.057800   53.542500   30.646600
  C    -11.395500   54.770000   31.241900
  H    -10.529700   52.762900   31.241600
  C    -11.279000   52.153200   28.521700
  H    -10.260800   51.791100   28.446600
  H    -11.696000   52.322500   27.575600
  C    -12.027600   50.942300   29.040200
  H    -12.017900   50.779500   30.122300
  H    -13.026300   51.258900   28.793200
  C    -11.737200   49.655100   28.185600
  H    -11.633400   49.922800   27.148200
  H    -10.822200   49.191000   28.504200
  H    -12.496500   48.863900   28.205600
  S    -10.029500   56.458700   32.964000
  C    -10.360000   56.386900   34.694600
  C    -11.227700   55.382200   34.951100
  C    -11.593800   54.569800   33.797600
  C    -11.158300   55.106500   32.665000
  H    -11.629800   55.221200   35.964000
  C    -12.611800   53.433700   33.796800
  H    -12.638400   53.143600   34.873000
  H    -12.137400   52.699100   33.216400
  C    -14.050100   53.800100   33.255300
  H    -13.907600   54.275000   32.316000
  H    -14.270600   54.541700   33.998500
  C    -15.040200   52.554600   33.061600
  H    -15.441300   52.319200   34.024200
  H    -14.515100   51.730800   32.505500
  H    -15.890700   53.044700   32.584400
  H    -12.500100   54.509700   27.866000
  H    -10.090900   57.156800   35.471300

 Total Charge           Charge          ....    0
 Multiplicity           Mult            ....    1
 Number of Electrons    NEL             ....  134
 Basis Dimension        Dim             ....  322

ORBITAL ENERGIES
----------------

  NO   OCC          E(Eh)            E(eV)
   0   2.0000     -88.973266     -2421.0857
   1   2.0000     -88.958723     -2420.6899
   2   2.0000     -10.336580      -281.2726
   3   2.0000     -10.323256      -280.9101
   4   2.0000     -10.318765      -280.7879
   5   2.0000     -10.315153      -280.6896
   6   2.0000     -10.298557      -280.2380
   7   2.0000     -10.297370      -280.2057
   8   2.0000     -10.296727      -280.1882
   9   2.0000     -10.294922      -280.1391
  10   2.0000     -10.288211      -279.9564
  11   2.0000     -10.287653      -279.9413
  12   2.0000     -10.287465      -279.9362
  13   2.0000     -10.285398      -279.8799
  14   2.0000     -10.283946      -279.8404
  15   2.0000     -10.282097      -279.7901
  16   2.0000      -8.086653      -220.0490
  17   2.0000      -8.073230      -219.6838
  18   2.0000      -6.045347      -164.5023
  19   2.0000      -6.041451      -164.3963
  20   2.0000      -6.037172      -164.2798
  21   2.0000      -6.031974      -164.1384
  22   2.0000      -6.027858      -164.0264
  23   2.0000      -6.023658      -163.9121
  24   2.0000      -1.006290       -27.3826
  25   2.0000      -0.986238       -26.8369
  26   2.0000      -0.919143       -25.0112
  27   2.0000      -0.899769       -24.4840
  28   2.0000      -0.869371       -23.6568
  29   2.0000      -0.848752       -23.0957
  30   2.0000      -0.840410       -22.8687
  31   2.0000      -0.815133       -22.1809
  32   2.0000      -0.785507       -21.3747
  33   2.0000      -0.774673       -21.0799
  34   2.0000      -0.712268       -19.3818
  35   2.0000      -0.701265       -19.0824
  36   2.0000      -0.694543       -18.8995
  37   2.0000      -0.660298       -17.9676
  38   2.0000      -0.638198       -17.3662
  39   2.0000      -0.621057       -16.8998
  40   2.0000      -0.585912       -15.9435
  41   2.0000      -0.578873       -15.7519
  42   2.0000      -0.567321       -15.4376
  43   2.0000      -0.563368       -15.3300
  44   2.0000      -0.525291       -14.2939
  45   2.0000      -0.522292       -14.2123
  46   2.0000      -0.515034       -14.0148
  47   2.0000      -0.505370       -13.7518
  48   2.0000      -0.502670       -13.6783
  49   2.0000      -0.499043       -13.5797
  50   2.0000      -0.491471       -13.3736
  51   2.0000      -0.480743       -13.0817
  52   2.0000      -0.471426       -12.8282
  53   2.0000      -0.468108       -12.7379
  54   2.0000      -0.463091       -12.6013
  55   2.0000      -0.448768       -12.2116
  56   2.0000      -0.442993       -12.0545
  57   2.0000      -0.437406       -11.9024
  58   2.0000      -0.431208       -11.7338
  59   2.0000      -0.430411       -11.7121
  60   2.0000      -0.424487       -11.5509
  61   2.0000      -0.416749       -11.3403
  62   2.0000      -0.407762       -11.0958
  63   2.0000      -0.342420        -9.3177
  64   2.0000      -0.336623        -9.1600
  65   2.0000      -0.327080        -8.9003
  66   2.0000      -0.301133        -8.1942
  67   0.0000       0.030469         0.8291
  68   0.0000       0.065927         1.7940
  69   0.0000       0.108420         2.9503
  70   0.0000       0.120445         3.2775
  71   0.0000       0.130735         3.5575

MULLIKEN ATOMIC CHARGES
-----------------------
   0 S :    0.123787
   1 C :   -0.122536
   2 C :   -0.058133
   3 C :    0.018488
   4 C :   -0.170453
   5 H :    0.035519
   6 C :    0.107617
   7 H :    0.031158
   8 H :   -0.004842
   9 C :   -0.094424
  10 H :    0.038160
  11 H :    0.014190
  12 C :   -0.044051
  13 H :    0.023065
  14 H :    0.030930
  15 H :    0.038366
  16 S :    0.081994
  17 C :   -0.095847
  18 C :   -0.050709
  19 C :   -0.064874
  20 C :   -0.169196
  21 H :    0.024164
  22 C :    0.096522
  23 H :    0.020017
  24 H :   -0.001931
  25 C :   -0.081674
  26 H :    0.035196
  27 H :    0.027090
  28 C :   -0.031279
  29 H :    0.027208
  30 H :    0.061366
  31 H :    0.039497
  32 H :    0.037581
  33 H :    0.078032
Sum of atomic charges:   -0.0000000

LOEWDIN ATOMIC CHARGES
----------------------
   0 S :    0.388964
   1 C :   -0.180051
   2 C :   -0.067301
   3 C :   -0.059217
   4 C :   -0.188051
   5 H :    0.038322
   6 C :   -0.023285
   7 H :    0.030292
   8 H :    0.021704
   9 C :   -0.039908
  10 H :    0.021075
  11 H :    0.020629
  12 C :   -0.062734
  13 H :    0.023516
  14 H :    0.022238
  15 H :    0.029291
  16 S :    0.366720
  17 C :   -0.188863
  18 C :   -0.076553
  19 C :   -0.064019
  20 C :   -0.179140
  21 H :    0.033391
  22 C :   -0.027753
  23 H :    0.029421
  24 H :    0.015368
  25 C :   -0.030865
  26 H :    0.017880
  27 H :    0.023372
  28 C :   -0.062659
  29 H :    0.021541
  30 H :    0.037827
  31 H :    0.032526
  32 H :    0.029838
  33 H :    0.046487

  Mayer bond orders larger than 0.100000
B(  0-S ,  1-C ) :   1.1134 B(  0-S ,  4-C ) :   1.1386 B(  1-C ,  2-C ) :   1.6531
B(  1-C , 32-H ) :   0.9572 B(  2-C ,  3-C ) :   1.2245 B(  2-C ,  6-C ) :   1.0338
B(  3-C ,  4-C ) :   1.5823 B(  3-C ,  5-H ) :   0.9843 B(  4-C , 20-C ) :   1.0189
B(  6-C ,  7-H ) :   0.9401 B(  6-C ,  8-H ) :   0.9337 B(  6-C ,  9-C ) :   1.0456
B(  9-C , 10-H ) :   0.9638 B(  9-C , 11-H ) :   0.9582 B(  9-C , 12-C ) :   1.0719
B( 12-C , 13-H ) :   0.9729 B( 12-C , 14-H ) :   0.9767 B( 12-C , 15-H ) :   0.9775
B( 16-S , 17-C ) :   1.1199 B( 16-S , 20-C ) :   1.1174 B( 17-C , 18-C ) :   1.6765
B( 17-C , 33-H ) :   0.9561 B( 18-C , 19-C ) :   1.1860 B( 18-C , 21-H ) :   0.9809
B( 19-C , 20-C ) :   1.6800 B( 19-C , 22-C ) :   1.0407 B( 22-C , 23-H ) :   0.9358
B( 22-C , 24-H ) :   0.9194 B( 22-C , 25-C ) :   1.0493 B( 25-C , 26-H ) :   0.9617
B( 25-C , 27-H ) :   0.9595 B( 25-C , 28-C ) :   1.0635 B( 28-C , 29-H ) :   0.9776
B( 28-C , 30-H ) :   0.9742 B( 28-C , 31-H ) :   0.9749

Dispersion correction           -0.014744362
FINAL SINGLE POINT ENERGY     -1339.858101788829

DIPOLE MOMENT
-------------
                                X             Y             Z
Electronic contribution:     13.06712      27.29106       4.35326
Nuclear contribution   :    -13.42203     -27.91744      -4.35416
                        -----------------------------------------
Total Dipole Moment    :     -0.35491      -0.62639      -0.00090
                        -----------------------------------------
Magnitude (a.u.)       :      0.71995
Magnitude (Debye)      :      1.82996

Rotational constants in cm-1:     0.018899     0.008708     0.007164
Rotational constants in MHz :   566.583748   261.049633   214.768020

                             ****ORCA TERMINATED NORMALLY****
TOTAL RUN TIME: 0 days 0 hours 0 minutes 34 seconds 835 msec
