                         Program Version 4.2.1 -  RELEASE  -
|  1> ! wB97X-D3 SP def2-SVP
|  2> %pal
|  3> nprocs 16
|  4> end
|  5>
|  6> * xyz 0 1
|  7> S 	 -49.8189 	 63.2596 	 132.513
|  8> C 	 -50.2066 	 61.6566 	 132.955
|  9> C 	 -49.2156 	 60.9745 	 133.597
| 10> C 	 -48.046 	 61.7662 	 133.72
| 11> C 	 -48.2821 	 63.0842 	 133.42
| 12> H 	 -47.1668 	 61.3725 	 134.167
| 13> C 	 -49.2611 	 59.5858 	 134.105
| 14> H 	 -48.296 	 59.1199 	 133.665
| 15> H 	 -50.1318 	 59.1352 	 133.664
| 16> C 	 -49.394 	 59.5032 	 135.657
| 17> H 	 -48.9569 	 58.5269 	 135.959
| 18> H 	 -48.7055 	 60.0903 	 136.172
| 19> C 	 -50.815 	 59.7107 	 136.34
| 20> H 	 -51.2891 	 60.6471 	 136.137
| 21> H 	 -51.4546 	 58.9197 	 135.96
| 22> H 	 -50.7148 	 59.6916 	 137.405
| 23> S 	 -47.2556 	 65.2512 	 132.177
| 24> C 	 -45.6556 	 65.8208 	 132.72
| 25> C 	 -45.3726 	 65.385 	 133.989
| 26> C 	 -46.2181 	 64.2649 	 134.323
| 27> C 	 -47.3217 	 64.1303 	 133.513
| 28> H 	 -44.4462 	 65.7751 	 134.522
| 29> C 	 -45.9674 	 63.4629 	 135.582
| 30> H 	 -46.897 	 62.9141 	 135.688
| 31> H 	 -45.7711 	 64.2053 	 136.395
| 32> C 	 -44.8354 	 62.4768 	 135.495
| 33> H 	 -43.927 	 63.1745 	 135.618
| 34> H 	 -44.6872 	 61.9199 	 134.574
| 35> C 	 -44.952 	 61.5289 	 136.688
| 36> H 	 -44.6064 	 60.497 	 136.394
| 37> H 	 -46.0044 	 61.4096 	 137.095
| 38> H 	 -44.2446 	 61.8255 	 137.456
| 39> H 	 -51.1544 	 61.1088 	 132.526
| 40> H 	 -45.1646 	 66.6648 	 132.266
| 41> *
| 42>
| 43>                          ****END OF INPUT****

CARTESIAN COORDINATES (ANGSTROEM)
---------------------------------
  S    -49.818900   63.259600  132.513000
  C    -50.206600   61.656600  132.955000
  C    -49.215600   60.974500  133.597000
  C    -48.046000   61.766200  133.720000
  C    -48.282100   63.084200  133.420000
  H    -47.166800   61.372500  134.167000
  C    -49.261100   59.585800  134.105000
  H    -48.296000   59.119900  133.665000
  H    -50.131800   59.135200  133.664000
  C    -49.394000   59.503200  135.657000
  H    -48.956900   58.526900  135.959000
  H    -48.705500   60.090300  136.172000
  C    -50.815000   59.710700  136.340000
  H    -51.289100   60.647100  136.137000
  H    -51.454600   58.919700  135.960000
  H    -50.714800   59.691600  137.405000
  S    -47.255600   65.251200  132.177000
  C    -45.655600   65.820800  132.720000
  C    -45.372600   65.385000  133.989000
  C    -46.218100   64.264900  134.323000
  C    -47.321700   64.130300  133.513000
  H    -44.446200   65.775100  134.522000
  C    -45.967400   63.462900  135.582000
  H    -46.897000   62.914100  135.688000
  H    -45.771100   64.205300  136.395000
  C    -44.835400   62.476800  135.495000
  H    -43.927000   63.174500  135.618000
  H    -44.687200   61.919900  134.574000
  C    -44.952000   61.528900  136.688000
  H    -44.606400   60.497000  136.394000
  H    -46.004400   61.409600  137.095000
  H    -44.244600   61.825500  137.456000
  H    -51.154400   61.108800  132.526000
  H    -45.164600   66.664800  132.266000

 Total Charge           Charge          ....    0
 Multiplicity           Mult            ....    1
 Number of Electrons    NEL             ....  134
 Basis Dimension        Dim             ....  322

ORBITAL ENERGIES
----------------

  NO   OCC          E(Eh)            E(eV)
   0   2.0000     -88.966060     -2420.8896
   1   2.0000     -88.961110     -2420.7549
   2   2.0000     -10.328313      -281.0477
   3   2.0000     -10.320507      -280.8353
   4   2.0000     -10.317928      -280.7651
   5   2.0000     -10.313891      -280.6552
   6   2.0000     -10.301047      -280.3057
   7   2.0000     -10.300418      -280.2886
   8   2.0000     -10.298934      -280.2482
   9   2.0000     -10.291523      -280.0466
  10   2.0000     -10.290780      -280.0264
  11   2.0000     -10.290152      -280.0093
  12   2.0000     -10.289604      -279.9944
  13   2.0000     -10.288476      -279.9637
  14   2.0000     -10.286161      -279.9007
  15   2.0000     -10.279231      -279.7121
  16   2.0000      -8.081098      -219.8979
  17   2.0000      -8.075979      -219.7586
  18   2.0000      -6.039626      -164.3466
  19   2.0000      -6.035855      -164.2440
  20   2.0000      -6.034614      -164.2102
  21   2.0000      -6.031547      -164.1267
  22   2.0000      -6.030634      -164.1019
  23   2.0000      -6.026436      -163.9877
  24   2.0000      -1.011451       -27.5230
  25   2.0000      -0.986083       -26.8327
  26   2.0000      -0.915839       -24.9212
  27   2.0000      -0.908591       -24.7240
  28   2.0000      -0.873072       -23.7575
  29   2.0000      -0.854162       -23.2429
  30   2.0000      -0.844999       -22.9936
  31   2.0000      -0.815242       -22.1839
  32   2.0000      -0.780557       -21.2400
  33   2.0000      -0.768012       -20.8987
  34   2.0000      -0.714627       -19.4460
  35   2.0000      -0.698293       -19.0015
  36   2.0000      -0.693310       -18.8659
  37   2.0000      -0.664723       -18.0880
  38   2.0000      -0.630119       -17.1464
  39   2.0000      -0.626899       -17.0588
  40   2.0000      -0.592587       -16.1251
  41   2.0000      -0.573825       -15.6146
  42   2.0000      -0.558640       -15.2014
  43   2.0000      -0.548481       -14.9249
  44   2.0000      -0.536350       -14.5948
  45   2.0000      -0.521830       -14.1997
  46   2.0000      -0.519496       -14.1362
  47   2.0000      -0.510471       -13.8906
  48   2.0000      -0.506809       -13.7910
  49   2.0000      -0.492710       -13.4073
  50   2.0000      -0.488985       -13.3060
  51   2.0000      -0.482691       -13.1347
  52   2.0000      -0.471480       -12.8296
  53   2.0000      -0.468204       -12.7405
  54   2.0000      -0.456749       -12.4288
  55   2.0000      -0.451601       -12.2887
  56   2.0000      -0.446682       -12.1548
  57   2.0000      -0.439929       -11.9711
  58   2.0000      -0.436979       -11.8908
  59   2.0000      -0.427814       -11.6414
  60   2.0000      -0.416113       -11.3230
  61   2.0000      -0.412223       -11.2172
  62   2.0000      -0.409337       -11.1386
  63   2.0000      -0.359868        -9.7925
  64   2.0000      -0.333834        -9.0841
  65   2.0000      -0.323054        -8.7907
  66   2.0000      -0.281819        -7.6687
  67   0.0000       0.023191         0.6311
  68   0.0000       0.074488         2.0269
  69   0.0000       0.099886         2.7180
  70   0.0000       0.112525         3.0620
  71   0.0000       0.127285         3.4636

MULLIKEN ATOMIC CHARGES
-----------------------
   0 S :    0.104640
   1 C :   -0.149165
   2 C :   -0.099033
   3 C :    0.023683
   4 C :   -0.118037
   5 H :   -0.012948
   6 C :    0.066030
   7 H :    0.051499
   8 H :    0.009306
   9 C :   -0.058472
  10 H :    0.019647
  11 H :    0.001056
  12 C :   -0.033483
  13 H :    0.035577
  14 H :    0.034369
  15 H :    0.033918
  16 S :    0.074333
  17 C :   -0.090972
  18 C :   -0.034626
  19 C :   -0.095094
  20 C :   -0.080344
  21 H :    0.050729
  22 C :    0.028844
  23 H :    0.020566
  24 H :    0.047458
  25 C :   -0.099266
  26 H :    0.035590
  27 H :    0.046625
  28 C :   -0.068514
  29 H :    0.032709
  30 H :    0.051554
  31 H :    0.039513
  32 H :    0.076954
  33 H :    0.055354
Sum of atomic charges:   -0.0000000

LOEWDIN ATOMIC CHARGES
----------------------
   0 S :    0.393659
   1 C :   -0.227525
   2 C :   -0.075461
   3 C :   -0.052560
   4 C :   -0.170569
   5 H :    0.024993
   6 C :   -0.031932
   7 H :    0.047358
   8 H :    0.025569
   9 C :   -0.039091
  10 H :    0.027916
  11 H :    0.010577
  12 C :   -0.056181
  13 H :    0.024037
  14 H :    0.025157
  15 H :    0.027161
  16 S :    0.379450
  17 C :   -0.167368
  18 C :   -0.074458
  19 C :   -0.055960
  20 C :   -0.198147
  21 H :    0.046189
  22 C :   -0.036086
  23 H :    0.021910
  24 H :    0.040245
  25 C :   -0.050982
  26 H :    0.033252
  27 H :    0.023461
  28 C :   -0.075834
  29 H :    0.029715
  30 H :    0.031670
  31 H :    0.027922
  32 H :    0.047341
  33 H :    0.024571

  Mayer bond orders larger than 0.100000
B(  0-S ,  1-C ) :   1.1292 B(  0-S ,  4-C ) :   1.1276 B(  1-C ,  2-C ) :   1.6397
B(  1-C , 32-H ) :   0.9430 B(  2-C ,  3-C ) :   1.2431 B(  2-C ,  6-C ) :   1.0267
B(  3-C ,  4-C ) :   1.5580 B(  3-C ,  5-H ) :   0.9905 B(  4-C , 20-C ) :   1.0868
B(  6-C ,  7-H ) :   0.9395 B(  6-C ,  8-H ) :   0.9393 B(  6-C ,  9-C ) :   1.0517
B(  9-C , 10-H ) :   0.9529 B(  9-C , 11-H ) :   0.9593 B(  9-C , 12-C ) :   1.0676
B( 12-C , 13-H ) :   0.9778 B( 12-C , 14-H ) :   0.9784 B( 12-C , 15-H ) :   0.9743
B( 16-S , 17-C ) :   1.1461 B( 16-S , 20-C ) :   1.1030 B( 17-C , 18-C ) :   1.6453
B( 17-C , 33-H ) :   0.9630 B( 18-C , 19-C ) :   1.2000 B( 18-C , 21-H ) :   0.9754
B( 19-C , 20-C ) :   1.6340 B( 19-C , 22-C ) :   1.0416 B( 22-C , 23-H ) :   0.9419
B( 22-C , 24-H ) :   0.9379 B( 22-C , 25-C ) :   1.0494 B( 25-C , 26-H ) :   0.9555
B( 25-C , 27-H ) :   0.9652 B( 25-C , 28-C ) :   1.0613 B( 28-C , 29-H ) :   0.9778
B( 28-C , 30-H ) :   0.9758 B( 28-C , 31-H ) :   0.9751

Dispersion correction           -0.014891708
FINAL SINGLE POINT ENERGY     -1339.854463060570

DIPOLE MOMENT
-------------
                                X             Y             Z
Electronic contribution:     -5.72987      21.57931     -22.40922
Nuclear contribution   :      6.17080     -22.00445      22.89745
                        -----------------------------------------
Total Dipole Moment    :      0.44093      -0.42514       0.48823
                        -----------------------------------------
Magnitude (a.u.)       :      0.78328
Magnitude (Debye)      :      1.99094

Rotational constants in cm-1:     0.017910     0.010331     0.006980
Rotational constants in MHz :   536.935834   309.704726   209.265079

                             ****ORCA TERMINATED NORMALLY****
TOTAL RUN TIME: 0 days 0 hours 0 minutes 37 seconds 327 msec
