                         Program Version 4.2.1 -  RELEASE  -
|  1> ! wB97X-D3 SP def2-SVP
|  2> %pal
|  3> nprocs 16
|  4> end
|  5>
|  6> * xyz 0 1
|  7> S 	 -13.8713 	 36.3302 	 54.2064
|  8> C 	 -13.5676 	 37.3556 	 52.7725
|  9> C 	 -14.709 	 37.8997 	 52.2457
| 10> C 	 -15.8261 	 37.5978 	 53.1191
| 11> C 	 -15.5449 	 36.8203 	 54.229
| 12> H 	 -16.8855 	 37.8584 	 53.0661
| 13> C 	 -14.8923 	 38.6826 	 50.9256
| 14> H 	 -15.5243 	 38.1719 	 50.2242
| 15> H 	 -13.9975 	 38.6692 	 50.3705
| 16> C 	 -15.4275 	 40.1084 	 51.053
| 17> H 	 -15.5657 	 40.5017 	 50.0674
| 18> H 	 -16.4311 	 40.1209 	 51.4398
| 19> C 	 -14.6407 	 41.0731 	 51.9941
| 20> H 	 -14.8868 	 42.1411 	 51.9183
| 21> H 	 -14.7521 	 40.8141 	 53.0654
| 22> H 	 -13.5625 	 41.0789 	 51.7808
| 23> S 	 -15.7788 	 35.4485 	 56.5665
| 24> C 	 -17.3273 	 35.0797 	 57.2778
| 25> C 	 -18.3374 	 35.4858 	 56.4386
| 26> C 	 -17.8449 	 36.0948 	 55.2366
| 27> C 	 -16.4905 	 36.2295 	 55.172
| 28> H 	 -19.3569 	 35.2444 	 56.6629
| 29> C 	 -18.83 	 36.6567 	 54.1774
| 30> H 	 -19.7279 	 36.0786 	 54.1593
| 31> H 	 -18.4023 	 36.5351 	 53.1729
| 32> C 	 -19.2086 	 38.1625 	 54.5777
| 33> H 	 -18.3239 	 38.7478 	 54.5343
| 34> H 	 -19.4662 	 38.1011 	 55.6561
| 35> C 	 -20.4393 	 38.7617 	 53.8168
| 36> H 	 -21.3321 	 38.1196 	 53.7973
| 37> H 	 -20.0099 	 38.9954 	 52.8091
| 38> H 	 -20.7343 	 39.6987 	 54.2396
| 39> H 	 -12.5987 	 37.5831 	 52.2925
| 40> H 	 -17.5317 	 34.5593 	 58.139
| 41> *
| 42>
| 43>                          ****END OF INPUT****

CARTESIAN COORDINATES (ANGSTROEM)
---------------------------------
  S    -13.871300   36.330200   54.206400
  C    -13.567600   37.355600   52.772500
  C    -14.709000   37.899700   52.245700
  C    -15.826100   37.597800   53.119100
  C    -15.544900   36.820300   54.229000
  H    -16.885500   37.858400   53.066100
  C    -14.892300   38.682600   50.925600
  H    -15.524300   38.171900   50.224200
  H    -13.997500   38.669200   50.370500
  C    -15.427500   40.108400   51.053000
  H    -15.565700   40.501700   50.067400
  H    -16.431100   40.120900   51.439800
  C    -14.640700   41.073100   51.994100
  H    -14.886800   42.141100   51.918300
  H    -14.752100   40.814100   53.065400
  H    -13.562500   41.078900   51.780800
  S    -15.778800   35.448500   56.566500
  C    -17.327300   35.079700   57.277800
  C    -18.337400   35.485800   56.438600
  C    -17.844900   36.094800   55.236600
  C    -16.490500   36.229500   55.172000
  H    -19.356900   35.244400   56.662900
  C    -18.830000   36.656700   54.177400
  H    -19.727900   36.078600   54.159300
  H    -18.402300   36.535100   53.172900
  C    -19.208600   38.162500   54.577700
  H    -18.323900   38.747800   54.534300
  H    -19.466200   38.101100   55.656100
  C    -20.439300   38.761700   53.816800
  H    -21.332100   38.119600   53.797300
  H    -20.009900   38.995400   52.809100
  H    -20.734300   39.698700   54.239600
  H    -12.598700   37.583100   52.292500
  H    -17.531700   34.559300   58.139000

 Total Charge           Charge          ....    0
 Multiplicity           Mult            ....    1
 Number of Electrons    NEL             ....  134
 Basis Dimension        Dim             ....  322

ORBITAL ENERGIES
----------------

  NO   OCC          E(Eh)            E(eV)
   0   2.0000     -88.968015     -2420.9428
   1   2.0000     -88.963541     -2420.8210
   2   2.0000     -10.331582      -281.1366
   3   2.0000     -10.327792      -281.0335
   4   2.0000     -10.319725      -280.8140
   5   2.0000     -10.313506      -280.6448
   6   2.0000     -10.308260      -280.5020
   7   2.0000     -10.304239      -280.3926
   8   2.0000     -10.296737      -280.1885
   9   2.0000     -10.294556      -280.1291
  10   2.0000     -10.294123      -280.1173
  11   2.0000     -10.293827      -280.1093
  12   2.0000     -10.292877      -280.0834
  13   2.0000     -10.287335      -279.9326
  14   2.0000     -10.285413      -279.8803
  15   2.0000     -10.279586      -279.7218
  16   2.0000      -8.082162      -219.9268
  17   2.0000      -8.078710      -219.8329
  18   2.0000      -6.040903      -164.3813
  19   2.0000      -6.037330      -164.2841
  20   2.0000      -6.036898      -164.2723
  21   2.0000      -6.033129      -164.1698
  22   2.0000      -6.032551      -164.1541
  23   2.0000      -6.029354      -164.0671
  24   2.0000      -1.010018       -27.4840
  25   2.0000      -0.983873       -26.7726
  26   2.0000      -0.910885       -24.7864
  27   2.0000      -0.900401       -24.5012
  28   2.0000      -0.872040       -23.7294
  29   2.0000      -0.848899       -23.0997
  30   2.0000      -0.837701       -22.7950
  31   2.0000      -0.816997       -22.2316
  32   2.0000      -0.787910       -21.4401
  33   2.0000      -0.776680       -21.1346
  34   2.0000      -0.711407       -19.3584
  35   2.0000      -0.702247       -19.1091
  36   2.0000      -0.697636       -18.9836
  37   2.0000      -0.671046       -18.2601
  38   2.0000      -0.642163       -17.4741
  39   2.0000      -0.618767       -16.8375
  40   2.0000      -0.594054       -16.1650
  41   2.0000      -0.571607       -15.5542
  42   2.0000      -0.561483       -15.2787
  43   2.0000      -0.546635       -14.8747
  44   2.0000      -0.536486       -14.5985
  45   2.0000      -0.521193       -14.1824
  46   2.0000      -0.518207       -14.1011
  47   2.0000      -0.517222       -14.0743
  48   2.0000      -0.507180       -13.8011
  49   2.0000      -0.499465       -13.5911
  50   2.0000      -0.491175       -13.3656
  51   2.0000      -0.480271       -13.0688
  52   2.0000      -0.468367       -12.7449
  53   2.0000      -0.467007       -12.7079
  54   2.0000      -0.460406       -12.5283
  55   2.0000      -0.452651       -12.3173
  56   2.0000      -0.443694       -12.0735
  57   2.0000      -0.443318       -12.0633
  58   2.0000      -0.432132       -11.7589
  59   2.0000      -0.428114       -11.6496
  60   2.0000      -0.418770       -11.3953
  61   2.0000      -0.417048       -11.3485
  62   2.0000      -0.410483       -11.1698
  63   2.0000      -0.363818        -9.9000
  64   2.0000      -0.335462        -9.1284
  65   2.0000      -0.327280        -8.9057
  66   2.0000      -0.287585        -7.8256
  67   0.0000       0.022137         0.6024
  68   0.0000       0.085732         2.3329
  69   0.0000       0.092729         2.5233
  70   0.0000       0.121188         3.2977
  71   0.0000       0.125126         3.4048

MULLIKEN ATOMIC CHARGES
-----------------------
   0 S :    0.098287
   1 C :   -0.124395
   2 C :   -0.063146
   3 C :   -0.031379
   4 C :   -0.086908
   5 H :   -0.001372
   6 C :    0.116432
   7 H :    0.028425
   8 H :   -0.002183
   9 C :   -0.058902
  10 H :    0.021392
  11 H :    0.023161
  12 C :   -0.076378
  13 H :    0.033725
  14 H :    0.049356
  15 H :    0.023242
  16 S :    0.083423
  17 C :   -0.038900
  18 C :   -0.027935
  19 C :   -0.089832
  20 C :   -0.104938
  21 H :    0.012952
  22 C :    0.042065
  23 H :    0.006579
  24 H :    0.038105
  25 C :   -0.085448
  26 H :    0.027458
  27 H :    0.028918
  28 C :   -0.027791
  29 H :    0.043013
  30 H :    0.033683
  31 H :    0.031757
  32 H :    0.053159
  33 H :    0.024374
Sum of atomic charges:   -0.0000000

LOEWDIN ATOMIC CHARGES
----------------------
   0 S :    0.385179
   1 C :   -0.186623
   2 C :   -0.056605
   3 C :   -0.072356
   4 C :   -0.186811
   5 H :    0.029753
   6 C :   -0.023715
   7 H :    0.035765
   8 H :    0.023146
   9 C :   -0.038649
  10 H :    0.023061
  11 H :    0.021753
  12 C :   -0.074879
  13 H :    0.027916
  14 H :    0.031762
  15 H :    0.022192
  16 S :    0.400233
  17 C :   -0.167861
  18 C :   -0.066938
  19 C :   -0.058646
  20 C :   -0.191329
  21 H :    0.029705
  22 C :   -0.029567
  23 H :    0.022591
  24 H :    0.027056
  25 C :   -0.036994
  26 H :    0.016569
  27 H :    0.026709
  28 C :   -0.066439
  29 H :    0.028145
  30 H :    0.030481
  31 H :    0.023149
  32 H :    0.036214
  33 H :    0.016032

  Mayer bond orders larger than 0.100000
B(  0-S ,  1-C ) :   1.1178 B(  0-S ,  4-C ) :   1.1243 B(  1-C ,  2-C ) :   1.6587
B(  1-C , 32-H ) :   0.9565 B(  2-C ,  3-C ) :   1.1880 B(  2-C ,  6-C ) :   1.0223
B(  3-C ,  4-C ) :   1.6188 B(  3-C ,  5-H ) :   0.9865 B(  4-C , 20-C ) :   1.0653
B(  6-C ,  7-H ) :   0.9366 B(  6-C ,  8-H ) :   0.9327 B(  6-C ,  9-C ) :   1.0792
B(  9-C , 10-H ) :   0.9543 B(  9-C , 11-H ) :   0.9553 B(  9-C , 12-C ) :   1.0653
B( 12-C , 13-H ) :   0.9762 B( 12-C , 14-H ) :   0.9741 B( 12-C , 15-H ) :   0.9787
B( 16-S , 17-C ) :   1.1529 B( 16-S , 20-C ) :   1.1196 B( 17-C , 18-C ) :   1.6150
B( 17-C , 33-H ) :   0.9777 B( 18-C , 19-C ) :   1.2409 B( 18-C , 21-H ) :   0.9921
B( 19-C , 20-C ) :   1.6152 B( 19-C , 22-C ) :   1.0445 B( 22-C , 23-H ) :   0.9313
B( 22-C , 24-H ) :   0.9397 B( 22-C , 25-C ) :   1.0422 B( 25-C , 26-H ) :   0.9595
B( 25-C , 27-H ) :   0.9549 B( 25-C , 28-C ) :   1.0703 B( 28-C , 29-H ) :   0.9762
B( 28-C , 30-H ) :   0.9753 B( 28-C , 31-H ) :   0.9749

Dispersion correction           -0.014536319
FINAL SINGLE POINT ENERGY     -1339.880148924412

DIPOLE MOMENT
-------------
                                X             Y             Z
Electronic contribution:     15.54013     -21.61379      15.95845
Nuclear contribution   :    -16.15375      21.90461     -16.37436
                        -----------------------------------------
Total Dipole Moment    :     -0.61362       0.29082      -0.41591
                        -----------------------------------------
Magnitude (a.u.)       :      0.79630
Magnitude (Debye)      :      2.02402

Rotational constants in cm-1:     0.017191     0.009986     0.006794
Rotational constants in MHz :   515.373969   299.381215   203.691445

                             ****ORCA TERMINATED NORMALLY****
TOTAL RUN TIME: 0 days 0 hours 0 minutes 35 seconds 59 msec
