                         Program Version 4.2.1 -  RELEASE  -
|  1> ! wB97X-D3 SP def2-SVP
|  2> %pal
|  3> nprocs 16
|  4> end
|  5>
|  6> * xyz 0 1
|  7> S 	 -66.0084 	 54.4724 	 132.333
|  8> C 	 -65.8157 	 54.8623 	 134.08
|  9> C 	 -66.9891 	 54.5324 	 134.769
| 10> C 	 -68.0943 	 54.2369 	 133.917
| 11> C 	 -67.7919 	 54.3254 	 132.562
| 12> H 	 -69.1193 	 53.9773 	 134.34
| 13> C 	 -67.1404 	 54.5282 	 136.271
| 14> H 	 -66.2055 	 54.1819 	 136.699
| 15> H 	 -67.8745 	 53.7468 	 136.595
| 16> C 	 -67.4304 	 55.9458 	 136.846
| 17> H 	 -66.5639 	 56.6328 	 136.61
| 18> H 	 -68.4767 	 56.2677 	 136.549
| 19> C 	 -67.417 	 55.9337 	 138.295
| 20> H 	 -67.4781 	 56.8984 	 138.723
| 21> H 	 -68.2104 	 55.3189 	 138.761
| 22> H 	 -66.4958 	 55.4951 	 138.711
| 23> S 	 -68.2659 	 52.5422 	 130.453
| 24> C 	 -69.8546 	 52.5097 	 129.781
| 25> C 	 -70.5787 	 53.6039 	 130.13
| 26> C 	 -69.9107 	 54.3603 	 131.141
| 27> C 	 -68.7009 	 53.8235 	 131.511
| 28> H 	 -71.567 	 53.709 	 129.764
| 29> C 	 -70.5568 	 55.5825 	 131.713
| 30> H 	 -70.9176 	 56.1903 	 130.862
| 31> H 	 -69.7386 	 56.2243 	 132.059
| 32> C 	 -71.5733 	 55.5994 	 132.836
| 33> H 	 -71.8156 	 56.6391 	 133
| 34> H 	 -71.0415 	 55.1823 	 133.714
| 35> C 	 -72.8789 	 54.7528 	 132.695
| 36> H 	 -73.3433 	 55.1418 	 131.772
| 37> H 	 -73.5321 	 54.9728 	 133.523
| 38> H 	 -72.8095 	 53.6483 	 132.596
| 39> H 	 -64.9145 	 55.0277 	 134.678
| 40> H 	 -70.1752 	 51.8088 	 129.038
| 41> *
| 42>
| 43>                          ****END OF INPUT****

CARTESIAN COORDINATES (ANGSTROEM)
---------------------------------
  S    -66.008400   54.472400  132.333000
  C    -65.815700   54.862300  134.080000
  C    -66.989100   54.532400  134.769000
  C    -68.094300   54.236900  133.917000
  C    -67.791900   54.325400  132.562000
  H    -69.119300   53.977300  134.340000
  C    -67.140400   54.528200  136.271000
  H    -66.205500   54.181900  136.699000
  H    -67.874500   53.746800  136.595000
  C    -67.430400   55.945800  136.846000
  H    -66.563900   56.632800  136.610000
  H    -68.476700   56.267700  136.549000
  C    -67.417000   55.933700  138.295000
  H    -67.478100   56.898400  138.723000
  H    -68.210400   55.318900  138.761000
  H    -66.495800   55.495100  138.711000
  S    -68.265900   52.542200  130.453000
  C    -69.854600   52.509700  129.781000
  C    -70.578700   53.603900  130.130000
  C    -69.910700   54.360300  131.141000
  C    -68.700900   53.823500  131.511000
  H    -71.567000   53.709000  129.764000
  C    -70.556800   55.582500  131.713000
  H    -70.917600   56.190300  130.862000
  H    -69.738600   56.224300  132.059000
  C    -71.573300   55.599400  132.836000
  H    -71.815600   56.639100  133.000000
  H    -71.041500   55.182300  133.714000
  C    -72.878900   54.752800  132.695000
  H    -73.343300   55.141800  131.772000
  H    -73.532100   54.972800  133.523000
  H    -72.809500   53.648300  132.596000
  H    -64.914500   55.027700  134.678000
  H    -70.175200   51.808800  129.038000

 Total Charge           Charge          ....    0
 Multiplicity           Mult            ....    1
 Number of Electrons    NEL             ....  134
 Basis Dimension        Dim             ....  322

ORBITAL ENERGIES
----------------

  NO   OCC          E(Eh)            E(eV)
   0   2.0000     -88.971607     -2421.0405
   1   2.0000     -88.963382     -2420.8167
   2   2.0000     -10.336594      -281.2730
   3   2.0000     -10.322244      -280.8825
   4   2.0000     -10.320934      -280.8469
   5   2.0000     -10.309878      -280.5460
   6   2.0000     -10.302195      -280.3370
   7   2.0000     -10.301697      -280.3234
   8   2.0000     -10.296619      -280.1853
   9   2.0000     -10.296506      -280.1822
  10   2.0000     -10.293963      -280.1130
  11   2.0000     -10.288506      -279.9645
  12   2.0000     -10.286077      -279.8984
  13   2.0000     -10.284410      -279.8530
  14   2.0000     -10.280121      -279.7363
  15   2.0000     -10.271160      -279.4925
  16   2.0000      -8.084255      -219.9838
  17   2.0000      -8.079391      -219.8514
  18   2.0000      -6.043020      -164.4389
  19   2.0000      -6.039316      -164.3381
  20   2.0000      -6.037773      -164.2962
  21   2.0000      -6.034593      -164.2096
  22   2.0000      -6.033892      -164.1906
  23   2.0000      -6.030030      -164.0854
  24   2.0000      -1.009231       -27.4626
  25   2.0000      -0.980403       -26.6781
  26   2.0000      -0.917511       -24.9667
  27   2.0000      -0.907063       -24.6824
  28   2.0000      -0.871667       -23.7193
  29   2.0000      -0.850590       -23.1457
  30   2.0000      -0.847223       -23.0541
  31   2.0000      -0.816456       -22.2169
  32   2.0000      -0.783620       -21.3234
  33   2.0000      -0.770620       -20.9696
  34   2.0000      -0.707780       -19.2597
  35   2.0000      -0.693427       -18.8691
  36   2.0000      -0.689866       -18.7722
  37   2.0000      -0.662048       -18.0153
  38   2.0000      -0.632527       -17.2119
  39   2.0000      -0.616516       -16.7762
  40   2.0000      -0.592005       -16.1093
  41   2.0000      -0.575522       -15.6608
  42   2.0000      -0.565982       -15.4011
  43   2.0000      -0.553543       -15.0627
  44   2.0000      -0.541604       -14.7378
  45   2.0000      -0.529424       -14.4064
  46   2.0000      -0.521985       -14.2039
  47   2.0000      -0.505038       -13.7428
  48   2.0000      -0.501504       -13.6466
  49   2.0000      -0.498054       -13.5527
  50   2.0000      -0.489703       -13.3255
  51   2.0000      -0.484643       -13.1878
  52   2.0000      -0.470007       -12.7895
  53   2.0000      -0.464170       -12.6307
  54   2.0000      -0.454300       -12.3621
  55   2.0000      -0.446549       -12.1512
  56   2.0000      -0.442228       -12.0336
  57   2.0000      -0.439627       -11.9629
  58   2.0000      -0.428375       -11.6567
  59   2.0000      -0.426067       -11.5939
  60   2.0000      -0.421954       -11.4820
  61   2.0000      -0.420143       -11.4327
  62   2.0000      -0.401033       -10.9127
  63   2.0000      -0.347920        -9.4674
  64   2.0000      -0.330616        -8.9965
  65   2.0000      -0.327288        -8.9059
  66   2.0000      -0.293226        -7.9791
  67   0.0000       0.027363         0.7446
  68   0.0000       0.063580         1.7301
  69   0.0000       0.098074         2.6687
  70   0.0000       0.120324         3.2742
  71   0.0000       0.131869         3.5883

MULLIKEN ATOMIC CHARGES
-----------------------
   0 S :    0.096866
   1 C :   -0.102544
   2 C :   -0.095108
   3 C :    0.009667
   4 C :   -0.141331
   5 H :    0.048250
   6 C :    0.028713
   7 H :    0.011090
   8 H :    0.035389
   9 C :   -0.067304
  10 H :    0.042451
  11 H :    0.042538
  12 C :   -0.027967
  13 H :    0.025927
  14 H :    0.020814
  15 H :    0.013514
  16 S :    0.111258
  17 C :   -0.091001
  18 C :   -0.008214
  19 C :   -0.052786
  20 C :   -0.138817
  21 H :    0.006798
  22 C :    0.036027
  23 H :    0.022125
  24 H :    0.026524
  25 C :   -0.035241
  26 H :    0.032234
  27 H :    0.013418
  28 C :   -0.068050
  29 H :    0.022430
  30 H :    0.034545
  31 H :    0.048856
  32 H :    0.051059
  33 H :    0.047873
Sum of atomic charges:   -0.0000000

LOEWDIN ATOMIC CHARGES
----------------------
   0 S :    0.368015
   1 C :   -0.190117
   2 C :   -0.062629
   3 C :   -0.060265
   4 C :   -0.174673
   5 H :    0.043176
   6 C :   -0.036325
   7 H :    0.025505
   8 H :    0.035765
   9 C :   -0.043284
  10 H :    0.037406
  11 H :    0.034207
  12 C :   -0.071659
  13 H :    0.020669
  14 H :    0.023295
  15 H :    0.022206
  16 S :    0.420917
  17 C :   -0.184254
  18 C :   -0.065170
  19 C :   -0.061211
  20 C :   -0.208544
  21 H :    0.027869
  22 C :   -0.046204
  23 H :    0.032566
  24 H :    0.036419
  25 C :   -0.035383
  26 H :    0.028645
  27 H :    0.019850
  28 C :   -0.073435
  29 H :    0.022711
  30 H :    0.024947
  31 H :    0.029937
  32 H :    0.033533
  33 H :    0.025516

  Mayer bond orders larger than 0.100000
B(  0-S ,  1-C ) :   1.1161 B(  0-S ,  4-C ) :   1.1296 B(  1-C ,  2-C ) :   1.6227
B(  1-C ,  4-C ) :   0.1002 B(  1-C , 32-H ) :   0.9614 B(  2-C ,  3-C ) :   1.2553
B(  2-C ,  6-C ) :   1.0324 B(  3-C ,  4-C ) :   1.5669 B(  3-C ,  5-H ) :   0.9724
B(  4-C , 20-C ) :   1.0405 B(  6-C ,  7-H ) :   0.9345 B(  6-C ,  8-H ) :   0.9444
B(  6-C ,  9-C ) :   1.0680 B(  9-C , 10-H ) :   0.9520 B(  9-C , 11-H ) :   0.9510
B(  9-C , 12-C ) :   1.1016 B( 12-C , 13-H ) :   0.9702 B( 12-C , 14-H ) :   0.9672
B( 12-C , 15-H ) :   0.9664 B( 16-S , 17-C ) :   1.1604 B( 16-S , 20-C ) :   1.1346
B( 17-C , 18-C ) :   1.6153 B( 17-C , 33-H ) :   0.9683 B( 18-C , 19-C ) :   1.2311
B( 18-C , 21-H ) :   1.0017 B( 19-C , 20-C ) :   1.6082 B( 19-C , 22-C ) :   1.0498
B( 22-C , 23-H ) :   0.9312 B( 22-C , 24-H ) :   0.9168 B( 22-C , 25-C ) :   1.0895
B( 25-C , 26-H ) :   0.9478 B( 25-C , 27-H ) :   0.9485 B( 25-C , 28-C ) :   1.0758
B( 28-C , 29-H ) :   0.9755 B( 28-C , 30-H ) :   0.9738 B( 28-C , 31-H ) :   0.9745

Dispersion correction           -0.014327297
FINAL SINGLE POINT ENERGY     -1339.868654238514

DIPOLE MOMENT
-------------
                                X             Y             Z
Electronic contribution:     15.93420     -11.68548     -23.67419
Nuclear contribution   :    -16.36456      11.80569      24.23275
                        -----------------------------------------
Total Dipole Moment    :     -0.43036       0.12021       0.55856
                        -----------------------------------------
Magnitude (a.u.)       :      0.71529
Magnitude (Debye)      :      1.81813

Rotational constants in cm-1:     0.018560     0.008748     0.006426
Rotational constants in MHz :   556.409046   262.259078   192.635245

                             ****ORCA TERMINATED NORMALLY****
TOTAL RUN TIME: 0 days 0 hours 0 minutes 35 seconds 617 msec
