                         Program Version 4.2.1 -  RELEASE  -
|  1> ! wB97X-D3 SP def2-SVP
|  2> %pal
|  3> nprocs 16
|  4> end
|  5>
|  6> * xyz 0 1
|  7> S 	 -48.5335 	 54.7568 	 101.226
|  8> C 	 -48.2012 	 53.1119 	 101.663
|  9> C 	 -47.5069 	 52.5623 	 100.624
| 10> C 	 -47.5269 	 53.3152 	 99.4498
| 11> C 	 -48.0501 	 54.549 	 99.5868
| 12> H 	 -47.1447 	 53.0924 	 98.4358
| 13> C 	 -47.069 	 51.111 	 100.615
| 14> H 	 -47.7638 	 50.539 	 99.903
| 15> H 	 -47.1994 	 50.7966 	 101.663
| 16> C 	 -45.6286 	 50.8565 	 100.14
| 17> H 	 -45.4321 	 49.839 	 100.201
| 18> H 	 -45.691 	 51.1038 	 99.0262
| 19> C 	 -44.4328 	 51.5918 	 100.839
| 20> H 	 -43.579 	 51.1842 	 100.365
| 21> H 	 -44.4308 	 52.7269 	 100.725
| 22> H 	 -44.4587 	 51.2598 	 101.85
| 23> S 	 -49.545 	 56.607 	 98.498
| 24> C 	 -48.9154 	 57.4942 	 97.0733
| 25> C 	 -47.7508 	 56.9864 	 96.6288
| 26> C 	 -47.1982 	 55.9684 	 97.5291
| 27> C 	 -48.0925 	 55.5999 	 98.5687
| 28> H 	 -47.3803 	 57.3986 	 95.7081
| 29> C 	 -45.8115 	 55.3922 	 97.1044
| 30> H 	 -45.8332 	 54.9395 	 96.0904
| 31> H 	 -45.5433 	 54.6312 	 97.771
| 32> C 	 -44.6202 	 56.4216 	 97.111
| 33> H 	 -44.7912 	 57.2688 	 96.4744
| 34> H 	 -43.787 	 55.9552 	 96.6606
| 35> C 	 -44.2563 	 56.9627 	 98.577
| 36> H 	 -45.0815 	 57.7064 	 98.9519
| 37> H 	 -43.3701 	 57.5401 	 98.6146
| 38> H 	 -44.0385 	 56.0807 	 99.1638
| 39> H 	 -48.4101 	 52.6356 	 102.624
| 40> H 	 -49.4193 	 58.275 	 96.4662
| 41> *
| 42>
| 43>                          ****END OF INPUT****

CARTESIAN COORDINATES (ANGSTROEM)
---------------------------------
  S    -48.533500   54.756800  101.226000
  C    -48.201200   53.111900  101.663000
  C    -47.506900   52.562300  100.624000
  C    -47.526900   53.315200   99.449800
  C    -48.050100   54.549000   99.586800
  H    -47.144700   53.092400   98.435800
  C    -47.069000   51.111000  100.615000
  H    -47.763800   50.539000   99.903000
  H    -47.199400   50.796600  101.663000
  C    -45.628600   50.856500  100.140000
  H    -45.432100   49.839000  100.201000
  H    -45.691000   51.103800   99.026200
  C    -44.432800   51.591800  100.839000
  H    -43.579000   51.184200  100.365000
  H    -44.430800   52.726900  100.725000
  H    -44.458700   51.259800  101.850000
  S    -49.545000   56.607000   98.498000
  C    -48.915400   57.494200   97.073300
  C    -47.750800   56.986400   96.628800
  C    -47.198200   55.968400   97.529100
  C    -48.092500   55.599900   98.568700
  H    -47.380300   57.398600   95.708100
  C    -45.811500   55.392200   97.104400
  H    -45.833200   54.939500   96.090400
  H    -45.543300   54.631200   97.771000
  C    -44.620200   56.421600   97.111000
  H    -44.791200   57.268800   96.474400
  H    -43.787000   55.955200   96.660600
  C    -44.256300   56.962700   98.577000
  H    -45.081500   57.706400   98.951900
  H    -43.370100   57.540100   98.614600
  H    -44.038500   56.080700   99.163800
  H    -48.410100   52.635600  102.624000
  H    -49.419300   58.275000   96.466200

 Total Charge           Charge          ....    0
 Multiplicity           Mult            ....    1
 Number of Electrons    NEL             ....  134
 Basis Dimension        Dim             ....  322

ORBITAL ENERGIES
----------------

  NO   OCC          E(Eh)            E(eV)
   0   2.0000     -88.965588     -2420.8767
   1   2.0000     -88.961644     -2420.7694
   2   2.0000     -10.337488      -281.2973
   3   2.0000     -10.324513      -280.9443
   4   2.0000     -10.319477      -280.8072
   5   2.0000     -10.316619      -280.7295
   6   2.0000     -10.313207      -280.6366
   7   2.0000     -10.297403      -280.2066
   8   2.0000     -10.295120      -280.1445
   9   2.0000     -10.294076      -280.1161
  10   2.0000     -10.293201      -280.0923
  11   2.0000     -10.287631      -279.9407
  12   2.0000     -10.287439      -279.9354
  13   2.0000     -10.286618      -279.9131
  14   2.0000     -10.281771      -279.7812
  15   2.0000     -10.279585      -279.7217
  16   2.0000      -8.079444      -219.8528
  17   2.0000      -8.077405      -219.7974
  18   2.0000      -6.038208      -164.3080
  19   2.0000      -6.035909      -164.2454
  20   2.0000      -6.034091      -164.1960
  21   2.0000      -6.031697      -164.1308
  22   2.0000      -6.029942      -164.0831
  23   2.0000      -6.028147      -164.0342
  24   2.0000      -1.013997       -27.5923
  25   2.0000      -0.982471       -26.7344
  26   2.0000      -0.908490       -24.7213
  27   2.0000      -0.896241       -24.3880
  28   2.0000      -0.873964       -23.7818
  29   2.0000      -0.847012       -23.0484
  30   2.0000      -0.836912       -22.7735
  31   2.0000      -0.819832       -22.3088
  32   2.0000      -0.781924       -21.2772
  33   2.0000      -0.772068       -21.0090
  34   2.0000      -0.713497       -19.4152
  35   2.0000      -0.696313       -18.9476
  36   2.0000      -0.691635       -18.8203
  37   2.0000      -0.652602       -17.7582
  38   2.0000      -0.639557       -17.4032
  39   2.0000      -0.622502       -16.9391
  40   2.0000      -0.591366       -16.0919
  41   2.0000      -0.565874       -15.3982
  42   2.0000      -0.549444       -14.9511
  43   2.0000      -0.546028       -14.8582
  44   2.0000      -0.543920       -14.8008
  45   2.0000      -0.533916       -14.5286
  46   2.0000      -0.522591       -14.2204
  47   2.0000      -0.513210       -13.9651
  48   2.0000      -0.504574       -13.7301
  49   2.0000      -0.497779       -13.5453
  50   2.0000      -0.486732       -13.2447
  51   2.0000      -0.479841       -13.0571
  52   2.0000      -0.468544       -12.7497
  53   2.0000      -0.462349       -12.5811
  54   2.0000      -0.460032       -12.5181
  55   2.0000      -0.445288       -12.1169
  56   2.0000      -0.439017       -11.9463
  57   2.0000      -0.435557       -11.8521
  58   2.0000      -0.431636       -11.7454
  59   2.0000      -0.422062       -11.4849
  60   2.0000      -0.416827       -11.3424
  61   2.0000      -0.414225       -11.2716
  62   2.0000      -0.410634       -11.1739
  63   2.0000      -0.355311        -9.6685
  64   2.0000      -0.330109        -8.9827
  65   2.0000      -0.328489        -8.9386
  66   2.0000      -0.294245        -8.0068
  67   0.0000       0.026703         0.7266
  68   0.0000       0.082560         2.2466
  69   0.0000       0.107628         2.9287
  70   0.0000       0.118284         3.2187
  71   0.0000       0.126734         3.4486

MULLIKEN ATOMIC CHARGES
-----------------------
   0 S :    0.107943
   1 C :   -0.129470
   2 C :   -0.065242
   3 C :   -0.012204
   4 C :   -0.116964
   5 H :    0.022096
   6 C :    0.041608
   7 H :    0.056084
   8 H :    0.008544
   9 C :   -0.103325
  10 H :    0.019075
  11 H :    0.028918
  12 C :   -0.029516
  13 H :    0.026981
  14 H :    0.058055
  15 H :    0.028305
  16 S :    0.093751
  17 C :   -0.091517
  18 C :   -0.038213
  19 C :   -0.039321
  20 C :   -0.151655
  21 H :    0.021074
  22 C :    0.075337
  23 H :    0.044130
  24 H :   -0.000732
  25 C :   -0.066522
  26 H :    0.020819
  27 H :    0.017325
  28 C :   -0.074501
  29 H :    0.065318
  30 H :    0.024123
  31 H :    0.035713
  32 H :    0.058739
  33 H :    0.065245
Sum of atomic charges:   -0.0000000

LOEWDIN ATOMIC CHARGES
----------------------
   0 S :    0.418116
   1 C :   -0.199224
   2 C :   -0.074320
   3 C :   -0.073599
   4 C :   -0.200456
   5 H :    0.037300
   6 C :   -0.035033
   7 H :    0.044206
   8 H :    0.022541
   9 C :   -0.044045
  10 H :    0.015170
  11 H :    0.025472
  12 C :   -0.060114
  13 H :    0.022717
  14 H :    0.036041
  15 H :    0.021945
  16 S :    0.376595
  17 C :   -0.174879
  18 C :   -0.070435
  19 C :   -0.048919
  20 C :   -0.189288
  21 H :    0.033017
  22 C :   -0.027710
  23 H :    0.038220
  24 H :    0.015027
  25 C :   -0.033858
  26 H :    0.016004
  27 H :    0.017420
  28 C :   -0.069793
  29 H :    0.044565
  30 H :    0.017214
  31 H :    0.023873
  32 H :    0.036301
  33 H :    0.039927

  Mayer bond orders larger than 0.100000
B(  0-S ,  1-C ) :   1.1392 B(  0-S ,  4-C ) :   1.1589 B(  1-C ,  2-C ) :   1.5864
B(  1-C , 32-H ) :   0.9707 B(  2-C ,  3-C ) :   1.2248 B(  2-C ,  6-C ) :   1.0295
B(  3-C ,  4-C ) :   1.5929 B(  3-C ,  5-H ) :   0.9944 B(  4-C , 20-C ) :   1.0395
B(  6-C ,  7-H ) :   0.9454 B(  6-C ,  8-H ) :   0.9384 B(  6-C ,  9-C ) :   1.0713
B(  9-C , 10-H ) :   0.9569 B(  9-C , 11-H ) :   0.9542 B(  9-C , 12-C ) :   1.0700
B( 12-C , 13-H ) :   0.9737 B( 12-C , 14-H ) :   0.9741 B( 12-C , 15-H ) :   0.9753
B( 16-S , 17-C ) :   1.1188 B( 16-S , 20-C ) :   1.1258 B( 17-C , 18-C ) :   1.6877
B( 17-C , 33-H ) :   0.9581 B( 18-C , 19-C ) :   1.1816 B( 18-C , 21-H ) :   0.9879
B( 19-C , 20-C ) :   1.6138 B( 19-C , 22-C ) :   1.0379 B( 22-C , 23-H ) :   0.9419
B( 22-C , 24-H ) :   0.9348 B( 22-C , 25-C ) :   1.0674 B( 25-C , 26-H ) :   0.9601
B( 25-C , 27-H ) :   0.9562 B( 25-C , 28-C ) :   1.0647 B( 28-C , 29-H ) :   0.9750
B( 28-C , 30-H ) :   0.9765 B( 28-C , 31-H ) :   0.9782

Dispersion correction           -0.014576299
FINAL SINGLE POINT ENERGY     -1339.862161459280

DIPOLE MOMENT
-------------
                                X             Y             Z
Electronic contribution:    -25.65240      10.93093       4.06321
Nuclear contribution   :     26.24456     -11.27931      -4.50559
                        -----------------------------------------
Total Dipole Moment    :      0.59216      -0.34839      -0.44238
                        -----------------------------------------
Magnitude (a.u.)       :      0.81715
Magnitude (Debye)      :      2.07702

Rotational constants in cm-1:     0.018128     0.009615     0.007205
Rotational constants in MHz :   543.458990   288.240073   215.997689

                             ****ORCA TERMINATED NORMALLY****
TOTAL RUN TIME: 0 days 0 hours 0 minutes 30 seconds 514 msec
