                         Program Version 4.2.1 -  RELEASE  -
|  1> ! wB97X-D3 SP def2-SVP
|  2> %pal
|  3> nprocs 16
|  4> end
|  5>
|  6> * xyz 0 1
|  7> S 	 -53.8029 	 38.752 	 119.104
|  8> C 	 -54.883 	 37.5855 	 119.754
|  9> C 	 -55.5295 	 36.9113 	 118.759
| 10> C 	 -55.0764 	 37.2804 	 117.451
| 11> C 	 -54.0529 	 38.211 	 117.449
| 12> H 	 -55.437 	 36.8178 	 116.505
| 13> C 	 -56.599 	 35.8317 	 119.015
| 14> H 	 -57.3284 	 36.0169 	 118.315
| 15> H 	 -57.0396 	 35.8776 	 120.018
| 16> C 	 -56.1089 	 34.3999 	 118.819
| 17> H 	 -56.9699 	 33.7488 	 118.501
| 18> H 	 -55.4615 	 34.408 	 117.989
| 19> C 	 -55.4152 	 33.8535 	 120.074
| 20> H 	 -54.8976 	 32.8636 	 119.777
| 21> H 	 -54.5384 	 34.4156 	 120.48
| 22> H 	 -56.1852 	 33.7058 	 120.892
| 23> S 	 -54.0097 	 40.4717 	 115.772
| 24> C 	 -53.2441 	 40.28 	 114.198
| 25> C 	 -52.5425 	 39.1027 	 114.14
| 26> C 	 -52.8524 	 38.2275 	 115.183
| 27> C 	 -53.5679 	 38.8073 	 116.224
| 28> H 	 -51.8394 	 38.8842 	 113.284
| 29> C 	 -52.3395 	 36.8165 	 115.212
| 30> H 	 -52.9082 	 36.1783 	 115.937
| 31> H 	 -51.3515 	 36.8344 	 115.635
| 32> C 	 -52.4356 	 36.0508 	 113.851
| 33> H 	 -52.1365 	 35.0805 	 114.09
| 34> H 	 -51.7038 	 36.3438 	 113.104
| 35> C 	 -53.9181 	 36.0387 	 113.214
| 36> H 	 -54.3533 	 35.0296 	 113.38
| 37> H 	 -53.7739 	 36.142 	 112.159
| 38> H 	 -54.5443 	 36.829 	 113.566
| 39> H 	 -54.9091 	 37.3499 	 120.874
| 40> H 	 -53.2151 	 41.0209 	 113.394
| 41> *
| 42>
| 43>                          ****END OF INPUT****

CARTESIAN COORDINATES (ANGSTROEM)
---------------------------------
  S    -53.802900   38.752000  119.104000
  C    -54.883000   37.585500  119.754000
  C    -55.529500   36.911300  118.759000
  C    -55.076400   37.280400  117.451000
  C    -54.052900   38.211000  117.449000
  H    -55.437000   36.817800  116.505000
  C    -56.599000   35.831700  119.015000
  H    -57.328400   36.016900  118.315000
  H    -57.039600   35.877600  120.018000
  C    -56.108900   34.399900  118.819000
  H    -56.969900   33.748800  118.501000
  H    -55.461500   34.408000  117.989000
  C    -55.415200   33.853500  120.074000
  H    -54.897600   32.863600  119.777000
  H    -54.538400   34.415600  120.480000
  H    -56.185200   33.705800  120.892000
  S    -54.009700   40.471700  115.772000
  C    -53.244100   40.280000  114.198000
  C    -52.542500   39.102700  114.140000
  C    -52.852400   38.227500  115.183000
  C    -53.567900   38.807300  116.224000
  H    -51.839400   38.884200  113.284000
  C    -52.339500   36.816500  115.212000
  H    -52.908200   36.178300  115.937000
  H    -51.351500   36.834400  115.635000
  C    -52.435600   36.050800  113.851000
  H    -52.136500   35.080500  114.090000
  H    -51.703800   36.343800  113.104000
  C    -53.918100   36.038700  113.214000
  H    -54.353300   35.029600  113.380000
  H    -53.773900   36.142000  112.159000
  H    -54.544300   36.829000  113.566000
  H    -54.909100   37.349900  120.874000
  H    -53.215100   41.020900  113.394000

 Total Charge           Charge          ....    0
 Multiplicity           Mult            ....    1
 Number of Electrons    NEL             ....  134
 Basis Dimension        Dim             ....  322

ORBITAL ENERGIES
----------------

  NO   OCC          E(Eh)            E(eV)
   0   2.0000     -88.965274     -2420.8682
   1   2.0000     -88.964692     -2420.8523
   2   2.0000     -10.328656      -281.0570
   3   2.0000     -10.325661      -280.9755
   4   2.0000     -10.318751      -280.7875
   5   2.0000     -10.316675      -280.7310
   6   2.0000     -10.300184      -280.2823
   7   2.0000     -10.298165      -280.2273
   8   2.0000     -10.297817      -280.2179
   9   2.0000     -10.293515      -280.1008
  10   2.0000     -10.291476      -280.0453
  11   2.0000     -10.290187      -280.0102
  12   2.0000     -10.286415      -279.9076
  13   2.0000     -10.285871      -279.8928
  14   2.0000     -10.285067      -279.8709
  15   2.0000     -10.279286      -279.7136
  16   2.0000      -8.080447      -219.8801
  17   2.0000      -8.078788      -219.8350
  18   2.0000      -6.038989      -164.3293
  19   2.0000      -6.037374      -164.2853
  20   2.0000      -6.034796      -164.2152
  21   2.0000      -6.033413      -164.1775
  22   2.0000      -6.031238      -164.1183
  23   2.0000      -6.029467      -164.0702
  24   2.0000      -1.007718       -27.4214
  25   2.0000      -0.986814       -26.8526
  26   2.0000      -0.912300       -24.8249
  27   2.0000      -0.900954       -24.5162
  28   2.0000      -0.872174       -23.7331
  29   2.0000      -0.844793       -22.9880
  30   2.0000      -0.840748       -22.8779
  31   2.0000      -0.811392       -22.0791
  32   2.0000      -0.781682       -21.2706
  33   2.0000      -0.772843       -21.0301
  34   2.0000      -0.710357       -19.3298
  35   2.0000      -0.699178       -19.0256
  36   2.0000      -0.691634       -18.8203
  37   2.0000      -0.652918       -17.7668
  38   2.0000      -0.639704       -17.4072
  39   2.0000      -0.617994       -16.8165
  40   2.0000      -0.595115       -16.1939
  41   2.0000      -0.570336       -15.5196
  42   2.0000      -0.553835       -15.0706
  43   2.0000      -0.550719       -14.9858
  44   2.0000      -0.538684       -14.6583
  45   2.0000      -0.533604       -14.5201
  46   2.0000      -0.514118       -13.9899
  47   2.0000      -0.513138       -13.9632
  48   2.0000      -0.501255       -13.6398
  49   2.0000      -0.492841       -13.4109
  50   2.0000      -0.483836       -13.1658
  51   2.0000      -0.481922       -13.1138
  52   2.0000      -0.470115       -12.7925
  53   2.0000      -0.465787       -12.6747
  54   2.0000      -0.459602       -12.5064
  55   2.0000      -0.448726       -12.2104
  56   2.0000      -0.443760       -12.0753
  57   2.0000      -0.432915       -11.7802
  58   2.0000      -0.430700       -11.7199
  59   2.0000      -0.425394       -11.5756
  60   2.0000      -0.419097       -11.4042
  61   2.0000      -0.416539       -11.3346
  62   2.0000      -0.412200       -11.2165
  63   2.0000      -0.344537        -9.3753
  64   2.0000      -0.329751        -8.9730
  65   2.0000      -0.327753        -8.9186
  66   2.0000      -0.295463        -8.0399
  67   0.0000       0.038294         1.0420
  68   0.0000       0.058060         1.5799
  69   0.0000       0.121633         3.3098
  70   0.0000       0.122888         3.3439
  71   0.0000       0.128253         3.4900

MULLIKEN ATOMIC CHARGES
-----------------------
   0 S :    0.112489
   1 C :   -0.155837
   2 C :   -0.096535
   3 C :    0.022901
   4 C :   -0.176475
   5 H :    0.030407
   6 C :    0.117459
   7 H :    0.004245
   8 H :    0.016544
   9 C :   -0.054040
  10 H :    0.037129
  11 H :    0.009450
  12 C :   -0.107788
  13 H :    0.042635
  14 H :    0.045250
  15 H :    0.046655
  16 S :    0.108419
  17 C :   -0.104389
  18 C :   -0.038374
  19 C :   -0.060834
  20 C :   -0.143089
  21 H :    0.041389
  22 C :    0.066780
  23 H :    0.026828
  24 H :    0.038458
  25 C :   -0.075278
  26 H :    0.012626
  27 H :    0.026601
  28 C :   -0.061012
  29 H :    0.040540
  30 H :    0.028737
  31 H :    0.053908
  32 H :    0.083265
  33 H :    0.060937
Sum of atomic charges:   -0.0000000

LOEWDIN ATOMIC CHARGES
----------------------
   0 S :    0.412986
   1 C :   -0.215820
   2 C :   -0.069202
   3 C :   -0.058068
   4 C :   -0.200890
   5 H :    0.037220
   6 C :   -0.022117
   7 H :    0.019793
   8 H :    0.029305
   9 C :   -0.042175
  10 H :    0.031465
  11 H :    0.014019
  12 C :   -0.080988
  13 H :    0.035068
  14 H :    0.028677
  15 H :    0.029948
  16 S :    0.389806
  17 C :   -0.180825
  18 C :   -0.078123
  19 C :   -0.061632
  20 C :   -0.193775
  21 H :    0.043614
  22 C :   -0.032586
  23 H :    0.034460
  24 H :    0.033828
  25 C :   -0.035486
  26 H :    0.016297
  27 H :    0.017736
  28 C :   -0.062937
  29 H :    0.030862
  30 H :    0.025068
  31 H :    0.023674
  32 H :    0.047754
  33 H :    0.033044

  Mayer bond orders larger than 0.100000
B(  0-S ,  1-C ) :   1.1474 B(  0-S ,  4-C ) :   1.1488 B(  1-C ,  2-C ) :   1.6070
B(  1-C , 32-H ) :   0.9558 B(  2-C ,  3-C ) :   1.2570 B(  2-C ,  6-C ) :   1.0241
B(  3-C ,  4-C ) :   1.5595 B(  3-C ,  5-H ) :   0.9848 B(  4-C , 20-C ) :   1.0496
B(  6-C ,  7-H ) :   0.9280 B(  6-C ,  8-H ) :   0.9470 B(  6-C ,  9-C ) :   1.0714
B(  9-C , 10-H ) :   0.9536 B(  9-C , 11-H ) :   0.9552 B(  9-C , 12-C ) :   1.0743
B( 12-C , 13-H ) :   0.9726 B( 12-C , 14-H ) :   0.9750 B( 12-C , 15-H ) :   0.9741
B( 16-S , 17-C ) :   1.1579 B( 16-S , 20-C ) :   1.1255 B( 17-C , 18-C ) :   1.6064
B( 17-C , 20-C ) :   0.1032 B( 17-C , 33-H ) :   0.9644 B( 18-C , 19-C ) :   1.2487
B( 18-C , 21-H ) :   0.9804 B( 19-C , 20-C ) :   1.6003 B( 19-C , 22-C ) :   1.0499
B( 22-C , 23-H ) :   0.9339 B( 22-C , 24-H ) :   0.9312 B( 22-C , 25-C ) :   1.0677
B( 25-C , 26-H ) :   0.9600 B( 25-C , 27-H ) :   0.9624 B( 25-C , 28-C ) :   1.0488
B( 28-C , 29-H ) :   0.9811 B( 28-C , 30-H ) :   0.9793 B( 28-C , 31-H ) :   0.9806

Dispersion correction           -0.015069018
FINAL SINGLE POINT ENERGY     -1339.873212506171

DIPOLE MOMENT
-------------
                                X             Y             Z
Electronic contribution:      4.05967      27.92804       4.89785
Nuclear contribution   :     -4.07725     -28.59599      -5.20418
                        -----------------------------------------
Total Dipole Moment    :     -0.01758      -0.66796      -0.30633
                        -----------------------------------------
Magnitude (a.u.)       :      0.73506
Magnitude (Debye)      :      1.86837

Rotational constants in cm-1:     0.019355     0.008977     0.006872
Rotational constants in MHz :   580.262588   269.134447   206.006001

                             ****ORCA TERMINATED NORMALLY****
TOTAL RUN TIME: 0 days 0 hours 0 minutes 30 seconds 740 msec
