                         Program Version 4.2.1 -  RELEASE  -
|  1> ! wB97X-D3 SP def2-SVP
|  2> %pal
|  3> nprocs 16
|  4> end
|  5>
|  6> * xyz 0 1
|  7> S 	 -4.56987 	 9.97673 	 80.5895
|  8> C 	 -6.19708 	 9.44605 	 80.3497
|  9> C 	 -7.18548 	 10.379 	 80.698
| 10> C 	 -6.56557 	 11.6076 	 80.995
| 11> C 	 -5.16325 	 11.5824 	 81.1014
| 12> H 	 -7.04218 	 12.5008 	 81.2623
| 13> C 	 -8.65855 	 10.1685 	 80.7171
| 14> H 	 -8.97001 	 10.6082 	 81.6463
| 15> H 	 -8.83191 	 9.10073 	 80.6853
| 16> C 	 -9.49217 	 10.6583 	 79.5547
| 17> H 	 -10.5357 	 10.3811 	 79.8248
| 18> H 	 -9.46488 	 11.7084 	 79.381
| 19> C 	 -9.28296 	 9.93775 	 78.1961
| 20> H 	 -8.24473 	 9.87726 	 77.9057
| 21> H 	 -9.60881 	 8.88605 	 78.3485
| 22> H 	 -9.89919 	 10.3992 	 77.37
| 23> S 	 -2.91037 	 12.1544 	 82.5636
| 24> C 	 -2.37702 	 13.8449 	 82.7214
| 25> C 	 -3.23047 	 14.7105 	 82.0569
| 26> C 	 -4.31517 	 14.067 	 81.4595
| 27> C 	 -4.26753 	 12.6732 	 81.5293
| 28> H 	 -3.04564 	 15.7859 	 81.9572
| 29> C 	 -5.42981 	 14.812 	 80.781
| 30> H 	 -5.09859 	 15.8522 	 80.933
| 31> H 	 -6.36342 	 14.8891 	 81.3403
| 32> C 	 -5.73772 	 14.4593 	 79.3178
| 33> H 	 -5.86384 	 13.3642 	 79.203
| 34> H 	 -4.84538 	 14.7105 	 78.6494
| 35> C 	 -6.96471 	 15.1238 	 78.7753
| 36> H 	 -7.89274 	 14.9151 	 79.2911
| 37> H 	 -7.16934 	 14.8815 	 77.774
| 38> H 	 -6.82822 	 16.2072 	 78.8716
| 39> H 	 -6.51722 	 8.48648 	 80.0778
| 40> H 	 -1.46447 	 14.0913 	 83.2904
| 41> *
| 42>
| 43>                          ****END OF INPUT****

CARTESIAN COORDINATES (ANGSTROEM)
---------------------------------
  S     -4.569870    9.976730   80.589500
  C     -6.197080    9.446050   80.349700
  C     -7.185480   10.379000   80.698000
  C     -6.565570   11.607600   80.995000
  C     -5.163250   11.582400   81.101400
  H     -7.042180   12.500800   81.262300
  C     -8.658550   10.168500   80.717100
  H     -8.970010   10.608200   81.646300
  H     -8.831910    9.100730   80.685300
  C     -9.492170   10.658300   79.554700
  H    -10.535700   10.381100   79.824800
  H     -9.464880   11.708400   79.381000
  C     -9.282960    9.937750   78.196100
  H     -8.244730    9.877260   77.905700
  H     -9.608810    8.886050   78.348500
  H     -9.899190   10.399200   77.370000
  S     -2.910370   12.154400   82.563600
  C     -2.377020   13.844900   82.721400
  C     -3.230470   14.710500   82.056900
  C     -4.315170   14.067000   81.459500
  C     -4.267530   12.673200   81.529300
  H     -3.045640   15.785900   81.957200
  C     -5.429810   14.812000   80.781000
  H     -5.098590   15.852200   80.933000
  H     -6.363420   14.889100   81.340300
  C     -5.737720   14.459300   79.317800
  H     -5.863840   13.364200   79.203000
  H     -4.845380   14.710500   78.649400
  C     -6.964710   15.123800   78.775300
  H     -7.892740   14.915100   79.291100
  H     -7.169340   14.881500   77.774000
  H     -6.828220   16.207200   78.871600
  H     -6.517220    8.486480   80.077800
  H     -1.464470   14.091300   83.290400

 Total Charge           Charge          ....    0
 Multiplicity           Mult            ....    1
 Number of Electrons    NEL             ....  134
 Basis Dimension        Dim             ....  322

ORBITAL ENERGIES
----------------

  NO   OCC          E(Eh)            E(eV)
   0   2.0000     -88.972651     -2421.0689
   1   2.0000     -88.966294     -2420.8959
   2   2.0000     -10.335439      -281.2416
   3   2.0000     -10.331566      -281.1362
   4   2.0000     -10.323497      -280.9166
   5   2.0000     -10.310986      -280.5762
   6   2.0000     -10.301640      -280.3219
   7   2.0000     -10.299479      -280.2631
   8   2.0000     -10.297084      -280.1979
   9   2.0000     -10.292003      -280.0597
  10   2.0000     -10.291694      -280.0512
  11   2.0000     -10.290642      -280.0226
  12   2.0000     -10.288330      -279.9597
  13   2.0000     -10.286980      -279.9229
  14   2.0000     -10.283695      -279.8336
  15   2.0000     -10.270361      -279.4707
  16   2.0000      -8.086550      -220.0462
  17   2.0000      -8.080187      -219.8731
  18   2.0000      -6.045047      -164.4941
  19   2.0000      -6.041174      -164.3887
  20   2.0000      -6.038627      -164.3194
  21   2.0000      -6.037388      -164.2857
  22   2.0000      -6.034846      -164.2165
  23   2.0000      -6.031039      -164.1129
  24   2.0000      -1.002965       -27.2921
  25   2.0000      -0.983033       -26.7497
  26   2.0000      -0.917574       -24.9685
  27   2.0000      -0.908891       -24.7322
  28   2.0000      -0.866996       -23.5922
  29   2.0000      -0.855373       -23.2759
  30   2.0000      -0.850912       -23.1545
  31   2.0000      -0.813266       -22.1301
  32   2.0000      -0.785088       -21.3633
  33   2.0000      -0.772941       -21.0328
  34   2.0000      -0.709452       -19.3052
  35   2.0000      -0.700555       -19.0631
  36   2.0000      -0.690216       -18.7817
  37   2.0000      -0.666449       -18.1350
  38   2.0000      -0.642424       -17.4813
  39   2.0000      -0.623689       -16.9714
  40   2.0000      -0.600448       -16.3390
  41   2.0000      -0.568025       -15.4568
  42   2.0000      -0.561947       -15.2914
  43   2.0000      -0.554118       -15.0783
  44   2.0000      -0.542299       -14.7567
  45   2.0000      -0.528474       -14.3805
  46   2.0000      -0.519571       -14.1383
  47   2.0000      -0.515897       -14.0383
  48   2.0000      -0.496020       -13.4974
  49   2.0000      -0.495300       -13.4778
  50   2.0000      -0.493551       -13.4302
  51   2.0000      -0.483935       -13.1685
  52   2.0000      -0.470117       -12.7925
  53   2.0000      -0.463308       -12.6072
  54   2.0000      -0.456165       -12.4129
  55   2.0000      -0.449304       -12.2262
  56   2.0000      -0.446065       -12.1381
  57   2.0000      -0.441289       -12.0081
  58   2.0000      -0.434910       -11.8345
  59   2.0000      -0.428872       -11.6702
  60   2.0000      -0.424672       -11.5559
  61   2.0000      -0.417589       -11.3632
  62   2.0000      -0.406335       -11.0569
  63   2.0000      -0.351822        -9.5736
  64   2.0000      -0.335108        -9.1187
  65   2.0000      -0.332597        -9.0504
  66   2.0000      -0.281293        -7.6544
  67   0.0000       0.019578         0.5327
  68   0.0000       0.069758         1.8982
  69   0.0000       0.105321         2.8659
  70   0.0000       0.118851         3.2341
  71   0.0000       0.124244         3.3809

MULLIKEN ATOMIC CHARGES
-----------------------
   0 S :    0.126130
   1 C :   -0.080360
   2 C :   -0.110729
   3 C :    0.034261
   4 C :   -0.148132
   5 H :   -0.019623
   6 C :    0.116373
   7 H :    0.031983
   8 H :    0.005953
   9 C :   -0.067615
  10 H :    0.032993
  11 H :    0.024537
  12 C :   -0.085707
  13 H :    0.039696
  14 H :    0.024992
  15 H :    0.051232
  16 S :    0.086384
  17 C :   -0.106780
  18 C :   -0.023897
  19 C :   -0.040285
  20 C :   -0.133328
  21 H :    0.028127
  22 C :    0.052341
  23 H :   -0.000916
  24 H :    0.031977
  25 C :   -0.098817
  26 H :    0.054520
  27 H :    0.039248
  28 C :   -0.014678
  29 H :    0.016907
  30 H :    0.023933
  31 H :    0.022239
  32 H :    0.015915
  33 H :    0.071124
Sum of atomic charges:    0.0000000

LOEWDIN ATOMIC CHARGES
----------------------
   0 S :    0.408031
   1 C :   -0.197585
   2 C :   -0.061977
   3 C :   -0.054367
   4 C :   -0.185496
   5 H :    0.019363
   6 C :   -0.028207
   7 H :    0.035892
   8 H :    0.031465
   9 C :   -0.038725
  10 H :    0.030793
  11 H :    0.014931
  12 C :   -0.070520
  13 H :    0.020807
  14 H :    0.024198
  15 H :    0.035615
  16 S :    0.382777
  17 C :   -0.176620
  18 C :   -0.072753
  19 C :   -0.063762
  20 C :   -0.179278
  21 H :    0.038084
  22 C :   -0.040735
  23 H :    0.030425
  24 H :    0.030286
  25 C :   -0.047916
  26 H :    0.028936
  27 H :    0.033930
  28 C :   -0.063704
  29 H :    0.020685
  30 H :    0.021721
  31 H :    0.025446
  32 H :    0.014277
  33 H :    0.033984

  Mayer bond orders larger than 0.100000
B(  0-S ,  1-C ) :   1.1503 B(  0-S ,  4-C ) :   1.1442 B(  1-C ,  2-C ) :   1.5856
B(  1-C ,  4-C ) :   0.1050 B(  1-C , 32-H ) :   0.9636 B(  2-C ,  3-C ) :   1.2616
B(  2-C ,  6-C ) :   1.0346 B(  3-C ,  4-C ) :   1.5461 B(  3-C ,  5-H ) :   0.9969
B(  4-C , 20-C ) :   1.0599 B(  6-C ,  7-H ) :   0.9300 B(  6-C ,  8-H ) :   0.9286
B(  6-C ,  9-C ) :   1.0781 B(  9-C , 10-H ) :   0.9553 B(  9-C , 11-H ) :   0.9589
B(  9-C , 12-C ) :   1.0683 B( 12-C , 13-H ) :   0.9786 B( 12-C , 14-H ) :   0.9744
B( 12-C , 15-H ) :   0.9741 B( 16-S , 17-C ) :   1.1570 B( 16-S , 20-C ) :   1.1399
B( 17-C , 18-C ) :   1.5772 B( 17-C , 20-C ) :   0.1092 B( 17-C , 33-H ) :   0.9650
B( 18-C , 19-C ) :   1.2833 B( 18-C , 21-H ) :   0.9821 B( 19-C , 20-C ) :   1.5675
B( 19-C , 22-C ) :   1.0368 B( 22-C , 23-H ) :   0.9198 B( 22-C , 24-H ) :   0.9302
B( 22-C , 25-C ) :   1.0522 B( 25-C , 26-H ) :   0.9541 B( 25-C , 27-H ) :   0.9491
B( 25-C , 28-C ) :   1.0924 B( 28-C , 29-H ) :   0.9699 B( 28-C , 30-H ) :   0.9701
B( 28-C , 31-H ) :   0.9721

Dispersion correction           -0.014887182
FINAL SINGLE POINT ENERGY     -1339.883337061792

DIPOLE MOMENT
-------------
                                X             Y             Z
Electronic contribution:     25.73284      -8.59698      15.35202
Nuclear contribution   :    -26.30441       8.93110     -15.45162
                        -----------------------------------------
Total Dipole Moment    :     -0.57157       0.33412      -0.09960
                        -----------------------------------------
Magnitude (a.u.)       :      0.66951
Magnitude (Debye)      :      1.70177

Rotational constants in cm-1:     0.020052     0.009312     0.006927
Rotational constants in MHz :   601.137272   279.172691   207.665330

                             ****ORCA TERMINATED NORMALLY****
TOTAL RUN TIME: 0 days 0 hours 0 minutes 36 seconds 344 msec
