                         Program Version 4.2.1 -  RELEASE  -
|  1> ! wB97X-D3 SP def2-SVP
|  2> %pal
|  3> nprocs 16
|  4> end
|  5>
|  6> * xyz 0 1
|  7> S 	 13.3976 	 -1.16876 	 62.3473
|  8> C 	 14.2742 	 -2.43569 	 61.5645
|  9> C 	 14.5894 	 -2.06131 	 60.2438
| 10> C 	 14.1463 	 -0.722638 	 59.9799
| 11> C 	 13.64 	 0.00121762 	 61.0344
| 12> H 	 14.3717 	 -0.155033 	 59.1209
| 13> C 	 14.9985 	 -3.0621 	 59.1913
| 14> H 	 14.2398 	 -3.86094 	 59.2945
| 15> H 	 16.0197 	 -3.40747 	 59.4922
| 16> C 	 15.1586 	 -2.62227 	 57.7154
| 17> H 	 14.148 	 -2.34329 	 57.3637
| 18> H 	 15.8499 	 -1.82089 	 57.5652
| 19> C 	 15.578 	 -3.97448 	 57.0255
| 20> H 	 14.7713 	 -4.69823 	 57.1276
| 21> H 	 15.5262 	 -3.80676 	 55.9091
| 22> H 	 16.5365 	 -4.40115 	 57.4205
| 23> S 	 14.1696 	 2.60049 	 60.1274
| 24> C 	 13.0806 	 3.89837 	 60.5821
| 25> C 	 12.023 	 3.41327 	 61.3949
| 26> C 	 12.1985 	 1.9894 	 61.6279
| 27> C 	 13.2805 	 1.42681 	 61.0637
| 28> H 	 11.3266 	 4.10345 	 61.863
| 29> C 	 11.0409 	 1.19196 	 62.2817
| 30> H 	 10.4544 	 1.87635 	 62.8207
| 31> H 	 11.4951 	 0.465025 	 63.0029
| 32> C 	 10.1729 	 0.277338 	 61.332
| 33> H 	 10.8761 	 -0.434081 	 60.8796
| 34> H 	 9.77013 	 0.927029 	 60.5509
| 35> C 	 9.18016 	 -0.557503 	 62.2561
| 36> H 	 8.56438 	 -1.23101 	 61.6541
| 37> H 	 8.49082 	 0.111576 	 62.6903
| 38> H 	 9.71553 	 -1.1499 	 63.022
| 39> H 	 14.3455 	 -3.42984 	 61.9329
| 40> H 	 13.298 	 5.01021 	 60.4318
| 41> *
| 42>
| 43>                          ****END OF INPUT****

CARTESIAN COORDINATES (ANGSTROEM)
---------------------------------
  S     13.397600   -1.168760   62.347300
  C     14.274200   -2.435690   61.564500
  C     14.589400   -2.061310   60.243800
  C     14.146300   -0.722638   59.979900
  C     13.640000    0.001218   61.034400
  H     14.371700   -0.155033   59.120900
  C     14.998500   -3.062100   59.191300
  H     14.239800   -3.860940   59.294500
  H     16.019700   -3.407470   59.492200
  C     15.158600   -2.622270   57.715400
  H     14.148000   -2.343290   57.363700
  H     15.849900   -1.820890   57.565200
  C     15.578000   -3.974480   57.025500
  H     14.771300   -4.698230   57.127600
  H     15.526200   -3.806760   55.909100
  H     16.536500   -4.401150   57.420500
  S     14.169600    2.600490   60.127400
  C     13.080600    3.898370   60.582100
  C     12.023000    3.413270   61.394900
  C     12.198500    1.989400   61.627900
  C     13.280500    1.426810   61.063700
  H     11.326600    4.103450   61.863000
  C     11.040900    1.191960   62.281700
  H     10.454400    1.876350   62.820700
  H     11.495100    0.465025   63.002900
  C     10.172900    0.277338   61.332000
  H     10.876100   -0.434081   60.879600
  H      9.770130    0.927029   60.550900
  C      9.180160   -0.557503   62.256100
  H      8.564380   -1.231010   61.654100
  H      8.490820    0.111576   62.690300
  H      9.715530   -1.149900   63.022000
  H     14.345500   -3.429840   61.932900
  H     13.298000    5.010210   60.431800

 Total Charge           Charge          ....    0
 Multiplicity           Mult            ....    1
 Number of Electrons    NEL             ....  134
 Basis Dimension        Dim             ....  322

ORBITAL ENERGIES
----------------

  NO   OCC          E(Eh)            E(eV)
   0   2.0000     -88.969930     -2420.9949
   1   2.0000     -88.966406     -2420.8990
   2   2.0000     -10.332643      -281.1655
   3   2.0000     -10.330175      -281.0984
   4   2.0000     -10.326191      -280.9899
   5   2.0000     -10.312081      -280.6060
   6   2.0000     -10.302985      -280.3585
   7   2.0000     -10.302217      -280.3376
   8   2.0000     -10.301092      -280.3070
   9   2.0000     -10.296768      -280.1893
  10   2.0000     -10.293722      -280.1064
  11   2.0000     -10.289609      -279.9945
  12   2.0000     -10.288967      -279.9770
  13   2.0000     -10.288622      -279.9676
  14   2.0000     -10.288435      -279.9626
  15   2.0000     -10.278124      -279.6820
  16   2.0000      -8.084407      -219.9879
  17   2.0000      -8.080284      -219.8757
  18   2.0000      -6.043102      -164.4412
  19   2.0000      -6.038927      -164.3276
  20   2.0000      -6.038852      -164.3255
  21   2.0000      -6.035087      -164.2231
  22   2.0000      -6.034767      -164.2143
  23   2.0000      -6.031102      -164.1146
  24   2.0000      -1.006965       -27.4009
  25   2.0000      -0.984080       -26.7782
  26   2.0000      -0.910616       -24.7791
  27   2.0000      -0.896646       -24.3990
  28   2.0000      -0.869726       -23.6665
  29   2.0000      -0.846788       -23.0423
  30   2.0000      -0.841063       -22.8865
  31   2.0000      -0.815431       -22.1890
  32   2.0000      -0.774390       -21.0722
  33   2.0000      -0.763707       -20.7815
  34   2.0000      -0.711626       -19.3643
  35   2.0000      -0.698447       -19.0057
  36   2.0000      -0.685458       -18.6523
  37   2.0000      -0.670182       -18.2366
  38   2.0000      -0.636791       -17.3280
  39   2.0000      -0.616364       -16.7721
  40   2.0000      -0.586860       -15.9693
  41   2.0000      -0.579120       -15.7587
  42   2.0000      -0.567563       -15.4442
  43   2.0000      -0.562800       -15.3146
  44   2.0000      -0.522372       -14.2145
  45   2.0000      -0.518307       -14.1039
  46   2.0000      -0.514629       -14.0038
  47   2.0000      -0.504792       -13.7361
  48   2.0000      -0.503027       -13.6881
  49   2.0000      -0.498975       -13.5778
  50   2.0000      -0.483033       -13.1440
  51   2.0000      -0.478762       -13.0278
  52   2.0000      -0.474253       -12.9051
  53   2.0000      -0.470126       -12.7928
  54   2.0000      -0.458808       -12.4848
  55   2.0000      -0.449488       -12.2312
  56   2.0000      -0.443090       -12.0571
  57   2.0000      -0.435324       -11.8458
  58   2.0000      -0.428884       -11.6705
  59   2.0000      -0.426093       -11.5946
  60   2.0000      -0.423210       -11.5161
  61   2.0000      -0.412174       -11.2158
  62   2.0000      -0.403892       -10.9905
  63   2.0000      -0.356556        -9.7024
  64   2.0000      -0.331261        -9.0141
  65   2.0000      -0.326873        -8.8947
  66   2.0000      -0.287332        -7.8187
  67   0.0000       0.022935         0.6241
  68   0.0000       0.070906         1.9294
  69   0.0000       0.107290         2.9195
  70   0.0000       0.121784         3.3139
  71   0.0000       0.134400         3.6572

MULLIKEN ATOMIC CHARGES
-----------------------
   0 S :    0.090184
   1 C :   -0.100357
   2 C :   -0.061466
   3 C :    0.010196
   4 C :   -0.145490
   5 H :   -0.003953
   6 C :   -0.023019
   7 H :    0.049458
   8 H :    0.040338
   9 C :   -0.062972
  10 H :    0.035617
  11 H :    0.043600
  12 C :   -0.063054
  13 H :    0.025938
  14 H :    0.037620
  15 H :    0.050356
  16 S :    0.107282
  17 C :   -0.131752
  18 C :   -0.033440
  19 C :   -0.062259
  20 C :   -0.104580
  21 H :    0.032308
  22 C :    0.033539
  23 H :    0.004580
  24 H :    0.030251
  25 C :   -0.070261
  26 H :    0.040677
  27 H :    0.037863
  28 C :   -0.034810
  29 H :    0.031532
  30 H :    0.021734
  31 H :    0.041850
  32 H :    0.041800
  33 H :    0.090690
Sum of atomic charges:   -0.0000000

LOEWDIN ATOMIC CHARGES
----------------------
   0 S :    0.415967
   1 C :   -0.201101
   2 C :   -0.065436
   3 C :   -0.073215
   4 C :   -0.175182
   5 H :    0.017341
   6 C :   -0.041205
   7 H :    0.038331
   8 H :    0.037199
   9 C :   -0.036040
  10 H :    0.028093
  11 H :    0.021795
  12 C :   -0.068814
  13 H :    0.023930
  14 H :    0.030578
  15 H :    0.030963
  16 S :    0.410006
  17 C :   -0.195683
  18 C :   -0.070970
  19 C :   -0.061490
  20 C :   -0.199088
  21 H :    0.034604
  22 C :   -0.033792
  23 H :    0.015850
  24 H :    0.020193
  25 C :   -0.033641
  26 H :    0.022104
  27 H :    0.023834
  28 C :   -0.059674
  29 H :    0.025634
  30 H :    0.016900
  31 H :    0.030831
  32 H :    0.023378
  33 H :    0.047802

  Mayer bond orders larger than 0.100000
B(  0-S ,  1-C ) :   1.1483 B(  0-S ,  4-C ) :   1.1443 B(  1-C ,  2-C ) :   1.5811
B(  1-C ,  4-C ) :   0.1006 B(  1-C , 32-H ) :   0.9777 B(  2-C ,  3-C ) :   1.2689
B(  2-C ,  6-C ) :   0.9962 B(  3-C ,  4-C ) :   1.5643 B(  3-C ,  5-H ) :   0.9876
B(  4-C , 20-C ) :   1.0471 B(  6-C ,  7-H ) :   0.9523 B(  6-C ,  8-H ) :   0.9381
B(  6-C ,  9-C ) :   1.0876 B(  9-C , 10-H ) :   0.9463 B(  9-C , 11-H ) :   0.9569
B(  9-C , 12-C ) :   1.0769 B( 12-C , 13-H ) :   0.9736 B( 12-C , 14-H ) :   0.9722
B( 12-C , 15-H ) :   0.9754 B( 16-S , 17-C ) :   1.1646 B( 16-S , 20-C ) :   1.1174
B( 17-C , 18-C ) :   1.6006 B( 17-C , 33-H ) :   0.9559 B( 18-C , 19-C ) :   1.2401
B( 18-C , 21-H ) :   0.9876 B( 19-C , 20-C ) :   1.6105 B( 19-C , 22-C ) :   1.0433
B( 22-C , 23-H ) :   0.9375 B( 22-C , 24-H ) :   0.9339 B( 22-C , 25-C ) :   1.0475
B( 25-C , 26-H ) :   0.9550 B( 25-C , 27-H ) :   0.9603 B( 25-C , 28-C ) :   1.0644
B( 28-C , 29-H ) :   0.9760 B( 28-C , 30-H ) :   0.9788 B( 28-C , 31-H ) :   0.9752

Dispersion correction           -0.014285822
FINAL SINGLE POINT ENERGY     -1339.867604964801

DIPOLE MOMENT
-------------
                                X             Y             Z
Electronic contribution:      7.93159      16.21521       9.16089
Nuclear contribution   :     -8.17720     -16.39386      -9.42625
                        -----------------------------------------
Total Dipole Moment    :     -0.24560      -0.17865      -0.26536
                        -----------------------------------------
Magnitude (a.u.)       :      0.40331
Magnitude (Debye)      :      1.02513

Rotational constants in cm-1:     0.018505     0.008507     0.006805
Rotational constants in MHz :   554.771620   255.031022   204.002186

                             ****ORCA TERMINATED NORMALLY****
TOTAL RUN TIME: 0 days 0 hours 0 minutes 34 seconds 424 msec
