                         Program Version 4.2.1 -  RELEASE  -
|  1> ! wB97X-D3 SP def2-SVP
|  2> %pal
|  3> nprocs 16
|  4> end
|  5>
|  6> * xyz 0 1
|  7> S 	 5.34508 	 77.5961 	 46.5688
|  8> C 	 4.28854 	 76.89 	 45.3714
|  9> C 	 4.07271 	 75.5361 	 45.667
| 10> C 	 4.48683 	 75.3115 	 46.9928
| 11> C 	 5.05493 	 76.3286 	 47.7231
| 12> H 	 4.48859 	 74.3375 	 47.5313
| 13> C 	 3.29587 	 74.468 	 44.883
| 14> H 	 3.51804 	 73.4655 	 45.2961
| 15> H 	 3.65634 	 74.3908 	 43.8721
| 16> C 	 1.8272 	 74.7047 	 44.8544
| 17> H 	 1.31794 	 74.3998 	 45.7768
| 18> H 	 1.61324 	 75.737 	 44.7349
| 19> C 	 1.28257 	 74.0092 	 43.6313
| 20> H 	 0.247972 	 73.9127 	 43.663
| 21> H 	 1.46194 	 74.7303 	 42.8362
| 22> H 	 1.77599 	 73.1275 	 43.2547
| 23> S 	 7.09551 	 76.7561 	 49.4848
| 24> C 	 6.75103 	 76.4228 	 51.1548
| 25> C 	 5.52185 	 75.7768 	 51.3222
| 26> C 	 4.79464 	 75.5363 	 50.1154
| 27> C 	 5.4426 	 76.2852 	 49.0928
| 28> H 	 5.22449 	 75.3633 	 52.2688
| 29> C 	 3.41177 	 75.0003 	 50.089
| 30> H 	 2.86269 	 75.4956 	 49.2312
| 31> H 	 3.10769 	 75.5583 	 50.97
| 32> C 	 3.22246 	 73.5355 	 50.2216
| 33> H 	 3.79144 	 73.2554 	 51.1151
| 34> H 	 3.67118 	 73.0168 	 49.3891
| 35> C 	 1.70003 	 73.1521 	 50.3244
| 36> H 	 1.03783 	 73.6252 	 49.6114
| 37> H 	 1.27397 	 73.4947 	 51.2838
| 38> H 	 1.56384 	 72.126 	 50.2651
| 39> H 	 4.0012 	 77.3704 	 44.4921
| 40> H 	 7.32833 	 76.7567 	 52.0091
| 41> *
| 42>
| 43>                          ****END OF INPUT****

CARTESIAN COORDINATES (ANGSTROEM)
---------------------------------
  S      5.345080   77.596100   46.568800
  C      4.288540   76.890000   45.371400
  C      4.072710   75.536100   45.667000
  C      4.486830   75.311500   46.992800
  C      5.054930   76.328600   47.723100
  H      4.488590   74.337500   47.531300
  C      3.295870   74.468000   44.883000
  H      3.518040   73.465500   45.296100
  H      3.656340   74.390800   43.872100
  C      1.827200   74.704700   44.854400
  H      1.317940   74.399800   45.776800
  H      1.613240   75.737000   44.734900
  C      1.282570   74.009200   43.631300
  H      0.247972   73.912700   43.663000
  H      1.461940   74.730300   42.836200
  H      1.775990   73.127500   43.254700
  S      7.095510   76.756100   49.484800
  C      6.751030   76.422800   51.154800
  C      5.521850   75.776800   51.322200
  C      4.794640   75.536300   50.115400
  C      5.442600   76.285200   49.092800
  H      5.224490   75.363300   52.268800
  C      3.411770   75.000300   50.089000
  H      2.862690   75.495600   49.231200
  H      3.107690   75.558300   50.970000
  C      3.222460   73.535500   50.221600
  H      3.791440   73.255400   51.115100
  H      3.671180   73.016800   49.389100
  C      1.700030   73.152100   50.324400
  H      1.037830   73.625200   49.611400
  H      1.273970   73.494700   51.283800
  H      1.563840   72.126000   50.265100
  H      4.001200   77.370400   44.492100
  H      7.328330   76.756700   52.009100

 Total Charge           Charge          ....    0
 Multiplicity           Mult            ....    1
 Number of Electrons    NEL             ....  134
 Basis Dimension        Dim             ....  322

ORBITAL ENERGIES
----------------

  NO   OCC          E(Eh)            E(eV)
   0   2.0000     -88.968117     -2420.9455
   1   2.0000     -88.962417     -2420.7904
   2   2.0000     -10.325586      -280.9735
   3   2.0000     -10.319157      -280.7986
   4   2.0000     -10.316726      -280.7324
   5   2.0000     -10.312961      -280.6299
   6   2.0000     -10.304280      -280.3937
   7   2.0000     -10.301827      -280.3270
   8   2.0000     -10.293863      -280.1102
   9   2.0000     -10.292144      -280.0635
  10   2.0000     -10.291305      -280.0407
  11   2.0000     -10.289503      -279.9916
  12   2.0000     -10.287535      -279.9381
  13   2.0000     -10.279754      -279.7263
  14   2.0000     -10.278283      -279.6863
  15   2.0000     -10.269529      -279.4481
  16   2.0000      -8.082833      -219.9451
  17   2.0000      -8.077475      -219.7993
  18   2.0000      -6.041309      -164.3924
  19   2.0000      -6.037595      -164.2913
  20   2.0000      -6.035962      -164.2469
  21   2.0000      -6.033395      -164.1770
  22   2.0000      -6.031997      -164.1390
  23   2.0000      -6.028176      -164.0350
  24   2.0000      -1.009042       -27.4574
  25   2.0000      -0.984750       -26.7964
  26   2.0000      -0.923560       -25.1313
  27   2.0000      -0.918554       -24.9951
  28   2.0000      -0.872207       -23.7340
  29   2.0000      -0.856145       -23.2969
  30   2.0000      -0.846343       -23.0302
  31   2.0000      -0.808766       -22.0076
  32   2.0000      -0.786296       -21.3962
  33   2.0000      -0.774612       -21.0783
  34   2.0000      -0.714604       -19.4454
  35   2.0000      -0.707067       -19.2403
  36   2.0000      -0.696527       -18.9535
  37   2.0000      -0.662752       -18.0344
  38   2.0000      -0.644726       -17.5439
  39   2.0000      -0.616079       -16.7644
  40   2.0000      -0.595196       -16.1961
  41   2.0000      -0.575272       -15.6540
  42   2.0000      -0.567784       -15.4502
  43   2.0000      -0.559466       -15.2238
  44   2.0000      -0.534106       -14.5338
  45   2.0000      -0.528802       -14.3894
  46   2.0000      -0.521540       -14.1918
  47   2.0000      -0.515810       -14.0359
  48   2.0000      -0.504457       -13.7270
  49   2.0000      -0.500137       -13.6094
  50   2.0000      -0.493640       -13.4326
  51   2.0000      -0.481260       -13.0957
  52   2.0000      -0.468011       -12.7352
  53   2.0000      -0.465110       -12.6563
  54   2.0000      -0.459203       -12.4955
  55   2.0000      -0.455047       -12.3825
  56   2.0000      -0.449064       -12.2197
  57   2.0000      -0.445907       -12.1337
  58   2.0000      -0.434126       -11.8132
  59   2.0000      -0.428271       -11.6538
  60   2.0000      -0.419364       -11.4115
  61   2.0000      -0.415519       -11.3068
  62   2.0000      -0.411664       -11.2019
  63   2.0000      -0.347241        -9.4489
  64   2.0000      -0.330376        -8.9900
  65   2.0000      -0.326735        -8.8909
  66   2.0000      -0.280169        -7.6238
  67   0.0000       0.018247         0.4965
  68   0.0000       0.069065         1.8793
  69   0.0000       0.102511         2.7895
  70   0.0000       0.120851         3.2885
  71   0.0000       0.126205         3.4342

MULLIKEN ATOMIC CHARGES
-----------------------
   0 S :    0.108958
   1 C :   -0.116715
   2 C :   -0.051553
   3 C :   -0.027162
   4 C :   -0.146181
   5 H :    0.013002
   6 C :    0.062905
   7 H :    0.027975
   8 H :    0.018228
   9 C :   -0.034815
  10 H :    0.028707
  11 H :    0.018430
  12 C :   -0.030185
  13 H :    0.017000
  14 H :    0.017133
  15 H :    0.031992
  16 S :    0.112129
  17 C :   -0.081514
  18 C :   -0.033656
  19 C :   -0.028016
  20 C :   -0.147992
  21 H :    0.010893
  22 C :   -0.013200
  23 H :    0.050450
  24 H :    0.030528
  25 C :   -0.036733
  26 H :    0.027590
  27 H :    0.027959
  28 C :   -0.016330
  29 H :    0.026610
  30 H :    0.024139
  31 H :    0.023326
  32 H :    0.027378
  33 H :    0.058721
Sum of atomic charges:    0.0000000

LOEWDIN ATOMIC CHARGES
----------------------
   0 S :    0.409169
   1 C :   -0.183833
   2 C :   -0.061397
   3 C :   -0.072116
   4 C :   -0.211063
   5 H :    0.031765
   6 C :   -0.026644
   7 H :    0.035663
   8 H :    0.026899
   9 C :   -0.035605
  10 H :    0.023542
  11 H :    0.020845
  12 C :   -0.059775
  13 H :    0.016335
  14 H :    0.028355
  15 H :    0.023512
  16 S :    0.406536
  17 C :   -0.193344
  18 C :   -0.068735
  19 C :   -0.049019
  20 C :   -0.191838
  21 H :    0.025938
  22 C :   -0.046443
  23 H :    0.040118
  24 H :    0.037616
  25 C :   -0.033128
  26 H :    0.028718
  27 H :    0.020668
  28 C :   -0.057314
  29 H :    0.025822
  30 H :    0.028474
  31 H :    0.016153
  32 H :    0.013941
  33 H :    0.030186

  Mayer bond orders larger than 0.100000
B(  0-S ,  1-C ) :   1.1661 B(  0-S ,  4-C ) :   1.1336 B(  1-C ,  2-C ) :   1.5462
B(  1-C ,  4-C ) :   0.1071 B(  1-C , 32-H ) :   0.9831 B(  2-C ,  3-C ) :   1.2705
B(  2-C ,  6-C ) :   1.0193 B(  3-C ,  4-C ) :   1.5470 B(  3-C ,  5-H ) :   0.9841
B(  4-C , 20-C ) :   1.0900 B(  6-C ,  7-H ) :   0.9362 B(  6-C ,  8-H ) :   0.9420
B(  6-C ,  9-C ) :   1.0692 B(  9-C , 10-H ) :   0.9535 B(  9-C , 11-H ) :   0.9614
B(  9-C , 12-C ) :   1.0686 B( 12-C , 13-H ) :   0.9703 B( 12-C , 14-H ) :   0.9756
B( 12-C , 15-H ) :   0.9772 B( 16-S , 17-C ) :   1.1431 B( 16-S , 20-C ) :   1.1489
B( 17-C , 18-C ) :   1.6123 B( 17-C , 20-C ) :   0.1035 B( 17-C , 33-H ) :   0.9654
B( 18-C , 19-C ) :   1.2472 B( 18-C , 21-H ) :   0.9830 B( 19-C , 20-C ) :   1.5453
B( 19-C , 22-C ) :   1.0213 B( 22-C , 23-H ) :   0.9372 B( 22-C , 24-H ) :   0.9415
B( 22-C , 25-C ) :   1.0585 B( 25-C , 26-H ) :   0.9516 B( 25-C , 27-H ) :   0.9506
B( 25-C , 28-C ) :   1.0763 B( 28-C , 29-H ) :   0.9755 B( 28-C , 30-H ) :   0.9747
B( 28-C , 31-H ) :   0.9772

Dispersion correction           -0.014058421
FINAL SINGLE POINT ENERGY     -1339.849799393233

DIPOLE MOMENT
-------------
                                X             Y             Z
Electronic contribution:     25.89478      19.91511       5.25670
Nuclear contribution   :    -26.47105     -20.45216      -5.23767
                        -----------------------------------------
Total Dipole Moment    :     -0.57627      -0.53704       0.01902
                        -----------------------------------------
Magnitude (a.u.)       :      0.78795
Magnitude (Debye)      :      2.00281

Rotational constants in cm-1:     0.017751     0.009341     0.006407
Rotational constants in MHz :   532.153370   280.024124   192.080380

                             ****ORCA TERMINATED NORMALLY****
TOTAL RUN TIME: 0 days 0 hours 0 minutes 36 seconds 435 msec
