                         Program Version 4.2.1 -  RELEASE  -
|  1> ! wB97X-D3 SP def2-SVP
|  2> %pal
|  3> nprocs 16
|  4> end
|  5>
|  6> * xyz 0 1
|  7> S 	 -87.2616 	 45.2135 	 129.892
|  8> C 	 -87.5324 	 43.603 	 130.727
|  9> C 	 -86.9914 	 42.5645 	 129.934
| 10> C 	 -86.612 	 43.0541 	 128.623
| 11> C 	 -86.6917 	 44.4345 	 128.456
| 12> H 	 -86.3385 	 42.3609 	 127.85
| 13> C 	 -86.8902 	 41.1154 	 130.317
| 14> H 	 -86.5955 	 40.569 	 129.431
| 15> H 	 -87.9142 	 40.7549 	 130.542
| 16> C 	 -85.8393 	 40.8867 	 131.489
| 17> H 	 -86.2536 	 41.4698 	 132.287
| 18> H 	 -85.7643 	 39.8768 	 131.906
| 19> C 	 -84.4382 	 41.4329 	 131.162
| 20> H 	 -84.0669 	 40.7474 	 130.387
| 21> H 	 -84.483 	 42.4398 	 130.772
| 22> H 	 -83.7327 	 41.2734 	 131.977
| 23> S 	 -84.8463 	 45.3195 	 126.679
| 24> C 	 -85.3646 	 46.0736 	 125.171
| 25> C 	 -86.7267 	 46.2444 	 125.135
| 26> C 	 -87.4119 	 45.5937 	 126.189
| 27> C 	 -86.5499 	 45.1313 	 127.182
| 28> H 	 -87.2135 	 46.7939 	 124.239
| 29> C 	 -88.9397 	 45.5682 	 126.126
| 30> H 	 -89.276 	 45.2233 	 127.11
| 31> H 	 -89.3065 	 44.7909 	 125.513
| 32> C 	 -89.664 	 46.9329 	 126.027
| 33> H 	 -89.2693 	 47.4155 	 125.176
| 34> H 	 -89.4053 	 47.4927 	 126.862
| 35> C 	 -91.1782 	 46.7248 	 125.907
| 36> H 	 -91.7136 	 46.822 	 126.841
| 37> H 	 -91.4656 	 45.7823 	 125.431
| 38> H 	 -91.6544 	 47.5238 	 125.36
| 39> H 	 -87.782 	 43.444 	 131.758
| 40> H 	 -84.7424 	 46.5692 	 124.352
| 41> *
| 42>
| 43>                          ****END OF INPUT****

CARTESIAN COORDINATES (ANGSTROEM)
---------------------------------
  S    -87.261600   45.213500  129.892000
  C    -87.532400   43.603000  130.727000
  C    -86.991400   42.564500  129.934000
  C    -86.612000   43.054100  128.623000
  C    -86.691700   44.434500  128.456000
  H    -86.338500   42.360900  127.850000
  C    -86.890200   41.115400  130.317000
  H    -86.595500   40.569000  129.431000
  H    -87.914200   40.754900  130.542000
  C    -85.839300   40.886700  131.489000
  H    -86.253600   41.469800  132.287000
  H    -85.764300   39.876800  131.906000
  C    -84.438200   41.432900  131.162000
  H    -84.066900   40.747400  130.387000
  H    -84.483000   42.439800  130.772000
  H    -83.732700   41.273400  131.977000
  S    -84.846300   45.319500  126.679000
  C    -85.364600   46.073600  125.171000
  C    -86.726700   46.244400  125.135000
  C    -87.411900   45.593700  126.189000
  C    -86.549900   45.131300  127.182000
  H    -87.213500   46.793900  124.239000
  C    -88.939700   45.568200  126.126000
  H    -89.276000   45.223300  127.110000
  H    -89.306500   44.790900  125.513000
  C    -89.664000   46.932900  126.027000
  H    -89.269300   47.415500  125.176000
  H    -89.405300   47.492700  126.862000
  C    -91.178200   46.724800  125.907000
  H    -91.713600   46.822000  126.841000
  H    -91.465600   45.782300  125.431000
  H    -91.654400   47.523800  125.360000
  H    -87.782000   43.444000  131.758000
  H    -84.742400   46.569200  124.352000

 Total Charge           Charge          ....    0
 Multiplicity           Mult            ....    1
 Number of Electrons    NEL             ....  134
 Basis Dimension        Dim             ....  322

ORBITAL ENERGIES
----------------

  NO   OCC          E(Eh)            E(eV)
   0   2.0000     -88.970611     -2421.0134
   1   2.0000     -88.965817     -2420.8830
   2   2.0000     -10.331343      -281.1301
   3   2.0000     -10.330488      -281.1069
   4   2.0000     -10.322403      -280.8869
   5   2.0000     -10.321050      -280.8500
   6   2.0000     -10.307416      -280.4790
   7   2.0000     -10.305567      -280.4287
   8   2.0000     -10.298363      -280.2327
   9   2.0000     -10.296271      -280.1758
  10   2.0000     -10.295676      -280.1596
  11   2.0000     -10.289709      -279.9972
  12   2.0000     -10.285037      -279.8701
  13   2.0000     -10.278544      -279.6934
  14   2.0000     -10.275009      -279.5972
  15   2.0000     -10.274855      -279.5930
  16   2.0000      -8.083933      -219.9750
  17   2.0000      -8.079713      -219.8602
  18   2.0000      -6.042565      -164.4266
  19   2.0000      -6.038590      -164.3184
  20   2.0000      -6.038339      -164.3116
  21   2.0000      -6.034678      -164.2119
  22   2.0000      -6.034328      -164.2024
  23   2.0000      -6.030393      -164.0953
  24   2.0000      -1.000234       -27.2178
  25   2.0000      -0.976494       -26.5718
  26   2.0000      -0.910025       -24.7630
  27   2.0000      -0.907513       -24.6947
  28   2.0000      -0.862737       -23.4763
  29   2.0000      -0.848233       -23.0816
  30   2.0000      -0.842823       -22.9344
  31   2.0000      -0.807940       -21.9852
  32   2.0000      -0.782599       -21.2956
  33   2.0000      -0.770921       -20.9778
  34   2.0000      -0.711601       -19.3636
  35   2.0000      -0.705930       -19.2093
  36   2.0000      -0.695665       -18.9300
  37   2.0000      -0.652280       -17.7494
  38   2.0000      -0.634874       -17.2758
  39   2.0000      -0.610610       -16.6155
  40   2.0000      -0.593540       -16.1511
  41   2.0000      -0.571670       -15.5559
  42   2.0000      -0.565122       -15.3778
  43   2.0000      -0.552938       -15.0462
  44   2.0000      -0.542280       -14.7562
  45   2.0000      -0.521987       -14.2040
  46   2.0000      -0.508444       -13.8355
  47   2.0000      -0.506142       -13.7728
  48   2.0000      -0.501306       -13.6412
  49   2.0000      -0.497133       -13.5277
  50   2.0000      -0.491006       -13.3609
  51   2.0000      -0.468113       -12.7380
  52   2.0000      -0.466619       -12.6973
  53   2.0000      -0.462197       -12.5770
  54   2.0000      -0.459359       -12.4998
  55   2.0000      -0.447558       -12.1787
  56   2.0000      -0.444880       -12.1058
  57   2.0000      -0.444210       -12.0876
  58   2.0000      -0.435699       -11.8560
  59   2.0000      -0.426933       -11.6174
  60   2.0000      -0.420526       -11.4431
  61   2.0000      -0.412190       -11.2163
  62   2.0000      -0.406490       -11.0612
  63   2.0000      -0.335766        -9.1367
  64   2.0000      -0.330405        -8.9908
  65   2.0000      -0.324709        -8.8358
  66   2.0000      -0.305706        -8.3187
  67   0.0000       0.034874         0.9490
  68   0.0000       0.053632         1.4594
  69   0.0000       0.105446         2.8693
  70   0.0000       0.114250         3.1089
  71   0.0000       0.120085         3.2677

MULLIKEN ATOMIC CHARGES
-----------------------
   0 S :    0.113132
   1 C :   -0.118044
   2 C :   -0.139442
   3 C :    0.055751
   4 C :   -0.151935
   5 H :    0.010985
   6 C :    0.070703
   7 H :    0.015124
   8 H :    0.048577
   9 C :   -0.072085
  10 H :    0.013464
  11 H :    0.033647
  12 C :   -0.052467
  13 H :    0.022214
  14 H :    0.058504
  15 H :    0.037330
  16 S :    0.105202
  17 C :   -0.109056
  18 C :   -0.084043
  19 C :   -0.004162
  20 C :   -0.189841
  21 H :    0.056289
  22 C :    0.060621
  23 H :    0.010168
  24 H :    0.027664
  25 C :   -0.026109
  26 H :    0.014193
  27 H :    0.023031
  28 C :   -0.041728
  29 H :    0.030728
  30 H :    0.032697
  31 H :    0.021759
  32 H :    0.049242
  33 H :    0.077889
Sum of atomic charges:    0.0000000

LOEWDIN ATOMIC CHARGES
----------------------
   0 S :    0.393367
   1 C :   -0.179130
   2 C :   -0.057724
   3 C :   -0.057016
   4 C :   -0.213302
   5 H :    0.029025
   6 C :   -0.031785
   7 H :    0.024474
   8 H :    0.039366
   9 C :   -0.037110
  10 H :    0.014139
  11 H :    0.025018
  12 C :   -0.064202
  13 H :    0.025685
  14 H :    0.029012
  15 H :    0.028104
  16 S :    0.392089
  17 C :   -0.197512
  18 C :   -0.088284
  19 C :   -0.052988
  20 C :   -0.190203
  21 H :    0.047116
  22 C :   -0.030174
  23 H :    0.029832
  24 H :    0.025617
  25 C :   -0.023740
  26 H :    0.012215
  27 H :    0.021454
  28 C :   -0.065278
  29 H :    0.027478
  30 H :    0.026956
  31 H :    0.026276
  32 H :    0.023833
  33 H :    0.047393

  Mayer bond orders larger than 0.100000
B(  0-S ,  1-C ) :   1.1266 B(  0-S ,  4-C ) :   1.1501 B(  1-C ,  2-C ) :   1.6015
B(  1-C ,  4-C ) :   0.1013 B(  1-C , 32-H ) :   0.9676 B(  2-C ,  3-C ) :   1.2455
B(  2-C ,  6-C ) :   1.0168 B(  3-C ,  4-C ) :   1.5736 B(  3-C ,  5-H ) :   0.9909
B(  4-C , 20-C ) :   0.9993 B(  6-C ,  7-H ) :   0.9456 B(  6-C ,  8-H ) :   0.9447
B(  6-C ,  9-C ) :   1.0443 B(  9-C , 10-H ) :   0.9601 B(  9-C , 11-H ) :   0.9605
B(  9-C , 12-C ) :   1.0740 B( 12-C , 13-H ) :   0.9758 B( 12-C , 14-H ) :   0.9729
B( 12-C , 15-H ) :   0.9731 B( 16-S , 17-C ) :   1.1448 B( 16-S , 20-C ) :   1.1359
B( 17-C , 18-C ) :   1.6484 B( 17-C , 20-C ) :   0.1024 B( 17-C , 33-H ) :   0.9524
B( 18-C , 19-C ) :   1.2277 B( 18-C , 21-H ) :   0.9671 B( 19-C , 20-C ) :   1.6181
B( 19-C , 22-C ) :   1.0377 B( 22-C , 23-H ) :   0.9343 B( 22-C , 24-H ) :   0.9362
B( 22-C , 25-C ) :   1.0538 B( 25-C , 26-H ) :   0.9622 B( 25-C , 27-H ) :   0.9557
B( 25-C , 28-C ) :   1.0770 B( 28-C , 29-H ) :   0.9753 B( 28-C , 30-H ) :   0.9769
B( 28-C , 31-H ) :   0.9726

Dispersion correction           -0.014267779
FINAL SINGLE POINT ENERGY     -1339.863987199841

DIPOLE MOMENT
-------------
                                X             Y             Z
Electronic contribution:     11.06716       8.50333      -1.79986
Nuclear contribution   :    -11.40195      -8.80920       1.69643
                        -----------------------------------------
Total Dipole Moment    :     -0.33479      -0.30587      -0.10344
                        -----------------------------------------
Magnitude (a.u.)       :      0.46513
Magnitude (Debye)      :      1.18226

Rotational constants in cm-1:     0.021339     0.007742     0.006341
Rotational constants in MHz :   639.741592   232.100291   190.087779

                             ****ORCA TERMINATED NORMALLY****
TOTAL RUN TIME: 0 days 0 hours 0 minutes 34 seconds 239 msec
