                         Program Version 4.2.1 -  RELEASE  -
|  1> ! wB97X-D3 SP def2-SVP
|  2> %pal
|  3> nprocs 16
|  4> end
|  5>
|  6> * xyz 0 1
|  7> S 	 1.40986 	 -14.8979 	 59.1469
|  8> C 	 1.01264 	 -13.8935 	 60.4701
|  9> C 	 2.15846 	 -13.5657 	 61.2337
| 10> C 	 3.3909 	 -14.0009 	 60.5891
| 11> C 	 3.12176 	 -14.8428 	 59.5153
| 12> H 	 4.35952 	 -13.7725 	 61.0342
| 13> C 	 2.1387 	 -12.652 	 62.4025
| 14> H 	 1.35226 	 -12.9563 	 63.1722
| 15> H 	 1.63978 	 -11.7448 	 61.9335
| 16> C 	 3.46862 	 -12.1583 	 63.0152
| 17> H 	 3.95161 	 -13.0323 	 63.4085
| 18> H 	 4.09233 	 -11.8281 	 62.1962
| 19> C 	 3.28394 	 -11.1171 	 64.1562
| 20> H 	 3.99053 	 -10.3396 	 64.2283
| 21> H 	 2.38453 	 -10.4917 	 64.2335
| 22> H 	 3.36455 	 -11.6691 	 65.1363
| 23> S 	 4.80088 	 -14.6051 	 57.2535
| 24> C 	 5.85337 	 -15.9363 	 56.9307
| 25> C 	 5.73433 	 -16.9683 	 57.7899
| 26> C 	 4.71726 	 -16.7511 	 58.7595
| 27> C 	 4.10013 	 -15.4716 	 58.5948
| 28> H 	 6.32997 	 -17.8314 	 57.6098
| 29> C 	 4.30262 	 -17.7501 	 59.8704
| 30> H 	 4.67239 	 -18.7265 	 59.6105
| 31> H 	 3.21094 	 -17.7341 	 59.9121
| 32> C 	 4.75594 	 -17.3373 	 61.2859
| 33> H 	 4.29865 	 -16.3701 	 61.5656
| 34> H 	 5.81758 	 -17.1332 	 61.3625
| 35> C 	 4.46198 	 -18.4473 	 62.298
| 36> H 	 5.08622 	 -19.3426 	 62.0694
| 37> H 	 3.41153 	 -18.6619 	 62.3121
| 38> H 	 4.54582 	 -18.1229 	 63.3629
| 39> H 	 0.0519505 	 -13.6877 	 60.8105
| 40> H 	 6.66973 	 -15.8882 	 56.2188
| 41> *
| 42>
| 43>                          ****END OF INPUT****

CARTESIAN COORDINATES (ANGSTROEM)
---------------------------------
  S      1.409860  -14.897900   59.146900
  C      1.012640  -13.893500   60.470100
  C      2.158460  -13.565700   61.233700
  C      3.390900  -14.000900   60.589100
  C      3.121760  -14.842800   59.515300
  H      4.359520  -13.772500   61.034200
  C      2.138700  -12.652000   62.402500
  H      1.352260  -12.956300   63.172200
  H      1.639780  -11.744800   61.933500
  C      3.468620  -12.158300   63.015200
  H      3.951610  -13.032300   63.408500
  H      4.092330  -11.828100   62.196200
  C      3.283940  -11.117100   64.156200
  H      3.990530  -10.339600   64.228300
  H      2.384530  -10.491700   64.233500
  H      3.364550  -11.669100   65.136300
  S      4.800880  -14.605100   57.253500
  C      5.853370  -15.936300   56.930700
  C      5.734330  -16.968300   57.789900
  C      4.717260  -16.751100   58.759500
  C      4.100130  -15.471600   58.594800
  H      6.329970  -17.831400   57.609800
  C      4.302620  -17.750100   59.870400
  H      4.672390  -18.726500   59.610500
  H      3.210940  -17.734100   59.912100
  C      4.755940  -17.337300   61.285900
  H      4.298650  -16.370100   61.565600
  H      5.817580  -17.133200   61.362500
  C      4.461980  -18.447300   62.298000
  H      5.086220  -19.342600   62.069400
  H      3.411530  -18.661900   62.312100
  H      4.545820  -18.122900   63.362900
  H      0.051950  -13.687700   60.810500
  H      6.669730  -15.888200   56.218800

 Total Charge           Charge          ....    0
 Multiplicity           Mult            ....    1
 Number of Electrons    NEL             ....  134
 Basis Dimension        Dim             ....  322

ORBITAL ENERGIES
----------------

  NO   OCC          E(Eh)            E(eV)
   0   2.0000     -88.968214     -2420.9482
   1   2.0000     -88.965983     -2420.8875
   2   2.0000     -10.330668      -281.1118
   3   2.0000     -10.324195      -280.9356
   4   2.0000     -10.309761      -280.5429
   5   2.0000     -10.307238      -280.4742
   6   2.0000     -10.305442      -280.4253
   7   2.0000     -10.303933      -280.3843
   8   2.0000     -10.299572      -280.2656
   9   2.0000     -10.299175      -280.2548
  10   2.0000     -10.294499      -280.1275
  11   2.0000     -10.290138      -280.0089
  12   2.0000     -10.286621      -279.9132
  13   2.0000     -10.284171      -279.8465
  14   2.0000     -10.279651      -279.7235
  15   2.0000     -10.276249      -279.6309
  16   2.0000      -8.083118      -219.9528
  17   2.0000      -8.081049      -219.8965
  18   2.0000      -6.041513      -164.3979
  19   2.0000      -6.039344      -164.3389
  20   2.0000      -6.037415      -164.2864
  21   2.0000      -6.035513      -164.2347
  22   2.0000      -6.034186      -164.1986
  23   2.0000      -6.032022      -164.1397
  24   2.0000      -1.003527       -27.3074
  25   2.0000      -0.984716       -26.7955
  26   2.0000      -0.910696       -24.7813
  27   2.0000      -0.902628       -24.5618
  28   2.0000      -0.867114       -23.5954
  29   2.0000      -0.848955       -23.1012
  30   2.0000      -0.846461       -23.0334
  31   2.0000      -0.816808       -22.2265
  32   2.0000      -0.779704       -21.2168
  33   2.0000      -0.765952       -20.8426
  34   2.0000      -0.717811       -19.5326
  35   2.0000      -0.697210       -18.9721
  36   2.0000      -0.685441       -18.6518
  37   2.0000      -0.654152       -17.8004
  38   2.0000      -0.638310       -17.3693
  39   2.0000      -0.623017       -16.9531
  40   2.0000      -0.593026       -16.1371
  41   2.0000      -0.571104       -15.5405
  42   2.0000      -0.566002       -15.4017
  43   2.0000      -0.563230       -15.3263
  44   2.0000      -0.519637       -14.1400
  45   2.0000      -0.515815       -14.0360
  46   2.0000      -0.511099       -13.9077
  47   2.0000      -0.508249       -13.8302
  48   2.0000      -0.500344       -13.6151
  49   2.0000      -0.499379       -13.5888
  50   2.0000      -0.489577       -13.3221
  51   2.0000      -0.481377       -13.0989
  52   2.0000      -0.470582       -12.8052
  53   2.0000      -0.469888       -12.7863
  54   2.0000      -0.456431       -12.4201
  55   2.0000      -0.455033       -12.3821
  56   2.0000      -0.446862       -12.1597
  57   2.0000      -0.430832       -11.7235
  58   2.0000      -0.428662       -11.6645
  59   2.0000      -0.425256       -11.5718
  60   2.0000      -0.421881       -11.4800
  61   2.0000      -0.418468       -11.3871
  62   2.0000      -0.416094       -11.3225
  63   2.0000      -0.339621        -9.2416
  64   2.0000      -0.330161        -8.9841
  65   2.0000      -0.309385        -8.4188
  66   2.0000      -0.305920        -8.3245
  67   0.0000       0.045779         1.2457
  68   0.0000       0.051100         1.3905
  69   0.0000       0.115773         3.1504
  70   0.0000       0.128280         3.4907
  71   0.0000       0.132356         3.6016

MULLIKEN ATOMIC CHARGES
-----------------------
   0 S :    0.135062
   1 C :   -0.090824
   2 C :   -0.113532
   3 C :    0.048874
   4 C :   -0.188269
   5 H :    0.028670
   6 C :   -0.025337
   7 H :    0.045550
   8 H :    0.047776
   9 C :   -0.058118
  10 H :    0.034081
  11 H :    0.038580
  12 C :   -0.037989
  13 H :    0.018850
  14 H :    0.030195
  15 H :    0.038477
  16 S :    0.130647
  17 C :   -0.091650
  18 C :   -0.030054
  19 C :   -0.027107
  20 C :   -0.176832
  21 H :    0.007326
  22 C :    0.111772
  23 H :    0.010245
  24 H :    0.028233
  25 C :   -0.088315
  26 H :    0.033327
  27 H :    0.020675
  28 C :   -0.046070
  29 H :    0.042847
  30 H :    0.017740
  31 H :    0.030436
  32 H :    0.023043
  33 H :    0.051691
Sum of atomic charges:    0.0000000

LOEWDIN ATOMIC CHARGES
----------------------
   0 S :    0.437055
   1 C :   -0.210704
   2 C :   -0.062397
   3 C :   -0.059763
   4 C :   -0.201589
   5 H :    0.034302
   6 C :   -0.052134
   7 H :    0.038241
   8 H :    0.044728
   9 C :   -0.039824
  10 H :    0.023593
  11 H :    0.024740
  12 C :   -0.071658
  13 H :    0.020989
  14 H :    0.029290
  15 H :    0.036077
  16 S :    0.423346
  17 C :   -0.189478
  18 C :   -0.076102
  19 C :   -0.042195
  20 C :   -0.221969
  21 H :    0.030386
  22 C :   -0.023610
  23 H :    0.023950
  24 H :    0.033589
  25 C :   -0.044488
  26 H :    0.026214
  27 H :    0.018880
  28 C :   -0.071869
  29 H :    0.029512
  30 H :    0.019912
  31 H :    0.030373
  32 H :    0.014118
  33 H :    0.028486

  Mayer bond orders larger than 0.100000
B(  0-S ,  1-C ) :   1.1599 B(  0-S ,  4-C ) :   1.1810 B(  1-C ,  2-C ) :   1.5771
B(  1-C ,  4-C ) :   0.1031 B(  1-C , 32-H ) :   0.9782 B(  2-C ,  3-C ) :   1.2709
B(  2-C ,  6-C ) :   1.0175 B(  3-C ,  4-C ) :   1.5475 B(  3-C ,  5-H ) :   0.9801
B(  4-C , 20-C ) :   0.9975 B(  6-C ,  7-H ) :   0.9384 B(  6-C ,  8-H ) :   0.9377
B(  6-C ,  9-C ) :   1.0779 B(  9-C , 10-H ) :   0.9596 B(  9-C , 11-H ) :   0.9483
B(  9-C , 12-C ) :   1.0578 B( 12-C , 13-H ) :   0.9768 B( 12-C , 14-H ) :   0.9795
B( 12-C , 15-H ) :   0.9780 B( 16-S , 17-C ) :   1.1671 B( 16-S , 20-C ) :   1.1591
B( 17-C , 18-C ) :   1.6155 B( 17-C , 33-H ) :   0.9597 B( 18-C , 19-C ) :   1.2590
B( 18-C , 21-H ) :   0.9972 B( 19-C , 20-C ) :   1.5713 B( 19-C , 22-C ) :   1.0389
B( 22-C , 23-H ) :   0.9399 B( 22-C , 24-H ) :   0.9249 B( 22-C , 25-C ) :   1.0631
B( 25-C , 26-H ) :   0.9489 B( 25-C , 27-H ) :   0.9565 B( 25-C , 28-C ) :   1.0881
B( 28-C , 29-H ) :   0.9744 B( 28-C , 30-H ) :   0.9712 B( 28-C , 31-H ) :   0.9715

Dispersion correction           -0.014477221
FINAL SINGLE POINT ENERGY     -1339.876540805644

DIPOLE MOMENT
-------------
                                X             Y             Z
Electronic contribution:     -4.11362      -0.11215     -27.97938
Nuclear contribution   :      4.32037       0.21562      28.54807
                        -----------------------------------------
Total Dipole Moment    :      0.20675       0.10348       0.56870
                        -----------------------------------------
Magnitude (a.u.)       :      0.61390
Magnitude (Debye)      :      1.56040

Rotational constants in cm-1:     0.017204     0.008451     0.007371
Rotational constants in MHz :   515.757721   253.365386   220.981200

                             ****ORCA TERMINATED NORMALLY****
TOTAL RUN TIME: 0 days 0 hours 0 minutes 30 seconds 336 msec
