                         Program Version 4.2.1 -  RELEASE  -
|  1> ! wB97X-D3 SP def2-SVP
|  2> %pal
|  3> nprocs 16
|  4> end
|  5>
|  6> * xyz 0 1
|  7> S 	 -44.7867 	 13.7882 	 80.6812
|  8> C 	 -44.0682 	 12.6741 	 79.5449
|  9> C 	 -42.7303 	 12.7655 	 79.488
| 10> C 	 -42.2721 	 13.9092 	 80.2652
| 11> C 	 -43.2904 	 14.6256 	 80.8885
| 12> H 	 -41.2863 	 14.3911 	 80.3583
| 13> C 	 -41.7924 	 11.8261 	 78.6279
| 14> H 	 -41.2077 	 12.4197 	 77.9124
| 15> H 	 -42.4633 	 11.2382 	 78.0887
| 16> C 	 -40.7825 	 11.0239 	 79.4748
| 17> H 	 -40.1762 	 10.3631 	 78.7758
| 18> H 	 -40.0226 	 11.7141 	 79.8253
| 19> C 	 -41.3231 	 10.1816 	 80.6098
| 20> H 	 -41.2296 	 10.8287 	 81.5336
| 21> H 	 -42.3734 	 9.92702 	 80.5191
| 22> H 	 -40.766 	 9.32665 	 80.9948
| 23> S 	 -41.6529 	 16.7724 	 81.453
| 24> C 	 -41.9454 	 17.7892 	 82.819
| 25> C 	 -43.0918 	 17.3783 	 83.4705
| 26> C 	 -43.7049 	 16.1925 	 82.9304
| 27> C 	 -43.0248 	 15.7182 	 81.8088
| 28> H 	 -43.4239 	 17.8691 	 84.3508
| 29> C 	 -45.0224 	 15.6798 	 83.5579
| 30> H 	 -45.8888 	 15.9352 	 82.8789
| 31> H 	 -45.3043 	 16.4284 	 84.3403
| 32> C 	 -44.9719 	 14.3466 	 84.1243
| 33> H 	 -45.1233 	 13.5654 	 83.2946
| 34> H 	 -45.959 	 14.2774 	 84.5954
| 35> C 	 -43.8715 	 13.9887 	 85.1337
| 36> H 	 -43.8766 	 12.9563 	 85.4959
| 37> H 	 -43.91 	 14.6693 	 85.9982
| 38> H 	 -42.9155 	 14.067 	 84.6871
| 39> H 	 -44.593 	 11.9767 	 78.8653
| 40> H 	 -41.2311 	 18.58 	 83.1176
| 41> *
| 42>
| 43>                          ****END OF INPUT****

CARTESIAN COORDINATES (ANGSTROEM)
---------------------------------
  S    -44.786700   13.788200   80.681200
  C    -44.068200   12.674100   79.544900
  C    -42.730300   12.765500   79.488000
  C    -42.272100   13.909200   80.265200
  C    -43.290400   14.625600   80.888500
  H    -41.286300   14.391100   80.358300
  C    -41.792400   11.826100   78.627900
  H    -41.207700   12.419700   77.912400
  H    -42.463300   11.238200   78.088700
  C    -40.782500   11.023900   79.474800
  H    -40.176200   10.363100   78.775800
  H    -40.022600   11.714100   79.825300
  C    -41.323100   10.181600   80.609800
  H    -41.229600   10.828700   81.533600
  H    -42.373400    9.927020   80.519100
  H    -40.766000    9.326650   80.994800
  S    -41.652900   16.772400   81.453000
  C    -41.945400   17.789200   82.819000
  C    -43.091800   17.378300   83.470500
  C    -43.704900   16.192500   82.930400
  C    -43.024800   15.718200   81.808800
  H    -43.423900   17.869100   84.350800
  C    -45.022400   15.679800   83.557900
  H    -45.888800   15.935200   82.878900
  H    -45.304300   16.428400   84.340300
  C    -44.971900   14.346600   84.124300
  H    -45.123300   13.565400   83.294600
  H    -45.959000   14.277400   84.595400
  C    -43.871500   13.988700   85.133700
  H    -43.876600   12.956300   85.495900
  H    -43.910000   14.669300   85.998200
  H    -42.915500   14.067000   84.687100
  H    -44.593000   11.976700   78.865300
  H    -41.231100   18.580000   83.117600

 Total Charge           Charge          ....    0
 Multiplicity           Mult            ....    1
 Number of Electrons    NEL             ....  134
 Basis Dimension        Dim             ....  322

ORBITAL ENERGIES
----------------

  NO   OCC          E(Eh)            E(eV)
   0   2.0000     -88.968619     -2420.9592
   1   2.0000     -88.965184     -2420.8657
   2   2.0000     -10.330049      -281.0949
   3   2.0000     -10.328940      -281.0647
   4   2.0000     -10.318500      -280.7806
   5   2.0000     -10.313260      -280.6381
   6   2.0000     -10.304590      -280.4022
   7   2.0000     -10.303241      -280.3655
   8   2.0000     -10.297813      -280.2177
   9   2.0000     -10.296063      -280.1701
  10   2.0000     -10.295983      -280.1679
  11   2.0000     -10.291612      -280.0490
  12   2.0000     -10.291580      -280.0481
  13   2.0000     -10.282059      -279.7890
  14   2.0000     -10.276107      -279.6271
  15   2.0000     -10.272994      -279.5424
  16   2.0000      -8.083144      -219.9535
  17   2.0000      -8.079965      -219.8670
  18   2.0000      -6.041823      -164.4064
  19   2.0000      -6.038503      -164.3160
  20   2.0000      -6.037703      -164.2942
  21   2.0000      -6.034423      -164.2050
  22   2.0000      -6.033699      -164.1853
  23   2.0000      -6.030760      -164.1053
  24   2.0000      -1.008957       -27.4551
  25   2.0000      -0.985816       -26.8254
  26   2.0000      -0.913689       -24.8627
  27   2.0000      -0.908183       -24.7129
  28   2.0000      -0.872618       -23.7451
  29   2.0000      -0.847478       -23.0611
  30   2.0000      -0.839687       -22.8491
  31   2.0000      -0.809685       -22.0326
  32   2.0000      -0.789293       -21.4778
  33   2.0000      -0.781613       -21.2688
  34   2.0000      -0.710654       -19.3379
  35   2.0000      -0.694048       -18.8860
  36   2.0000      -0.684509       -18.6264
  37   2.0000      -0.669526       -18.2187
  38   2.0000      -0.631508       -17.1842
  39   2.0000      -0.609903       -16.5963
  40   2.0000      -0.591998       -16.1091
  41   2.0000      -0.565624       -15.3914
  42   2.0000      -0.556099       -15.1322
  43   2.0000      -0.552820       -15.0430
  44   2.0000      -0.547669       -14.9028
  45   2.0000      -0.534261       -14.5380
  46   2.0000      -0.515793       -14.0354
  47   2.0000      -0.509762       -13.8713
  48   2.0000      -0.503656       -13.7052
  49   2.0000      -0.493948       -13.4410
  50   2.0000      -0.486512       -13.2387
  51   2.0000      -0.478006       -13.0072
  52   2.0000      -0.474002       -12.8982
  53   2.0000      -0.470870       -12.8130
  54   2.0000      -0.456295       -12.4164
  55   2.0000      -0.452050       -12.3009
  56   2.0000      -0.446686       -12.1549
  57   2.0000      -0.444572       -12.0974
  58   2.0000      -0.433058       -11.7841
  59   2.0000      -0.422373       -11.4934
  60   2.0000      -0.409716       -11.1489
  61   2.0000      -0.399183       -10.8623
  62   2.0000      -0.395478       -10.7615
  63   2.0000      -0.362576        -9.8662
  64   2.0000      -0.331559        -9.0222
  65   2.0000      -0.329500        -8.9662
  66   2.0000      -0.285516        -7.7693
  67   0.0000       0.023097         0.6285
  68   0.0000       0.085420         2.3244
  69   0.0000       0.108433         2.9506
  70   0.0000       0.122353         3.3294
  71   0.0000       0.126090         3.4311

MULLIKEN ATOMIC CHARGES
-----------------------
   0 S :    0.108345
   1 C :   -0.131757
   2 C :   -0.083250
   3 C :   -0.038223
   4 C :   -0.101898
   5 H :    0.027159
   6 C :    0.133875
   7 H :    0.038014
   8 H :   -0.003912
   9 C :   -0.098590
  10 H :    0.034367
  11 H :    0.031353
  12 C :   -0.053311
  13 H :    0.031185
  14 H :    0.034568
  15 H :    0.035535
  16 S :    0.084820
  17 C :   -0.101039
  18 C :   -0.016814
  19 C :   -0.089666
  20 C :   -0.133912
  21 H :    0.005744
  22 C :    0.036597
  23 H :    0.050729
  24 H :    0.008004
  25 C :   -0.076071
  26 H :    0.041413
  27 H :    0.018980
  28 C :   -0.016215
  29 H :    0.034443
  30 H :    0.027479
  31 H :    0.032872
  32 H :    0.053340
  33 H :    0.075833
Sum of atomic charges:   -0.0000000

LOEWDIN ATOMIC CHARGES
----------------------
   0 S :    0.428473
   1 C :   -0.203483
   2 C :   -0.062197
   3 C :   -0.072192
   4 C :   -0.197005
   5 H :    0.025007
   6 C :   -0.012212
   7 H :    0.036742
   8 H :    0.015996
   9 C :   -0.048627
  10 H :    0.029227
  11 H :    0.023809
  12 C :   -0.080020
  13 H :    0.036703
  14 H :    0.024917
  15 H :    0.028764
  16 S :    0.411237
  17 C :   -0.197541
  18 C :   -0.069631
  19 C :   -0.063932
  20 C :   -0.185575
  21 H :    0.024034
  22 C :   -0.047335
  23 H :    0.042999
  24 H :    0.032236
  25 C :   -0.063498
  26 H :    0.019525
  27 H :    0.027284
  28 C :   -0.060407
  29 H :    0.031630
  30 H :    0.026736
  31 H :    0.022717
  32 H :    0.036763
  33 H :    0.038859

  Mayer bond orders larger than 0.100000
B(  0-S ,  1-C ) :   1.1245 B(  0-S ,  4-C ) :   1.1392 B(  1-C ,  2-C ) :   1.6635
B(  1-C , 32-H ) :   0.9539 B(  2-C ,  3-C ) :   1.2044 B(  2-C ,  6-C ) :   1.0058
B(  3-C ,  4-C ) :   1.5730 B(  3-C ,  5-H ) :   0.9859 B(  4-C , 20-C ) :   1.0710
B(  6-C ,  7-H ) :   0.9444 B(  6-C ,  8-H ) :   0.9377 B(  6-C ,  9-C ) :   1.0750
B(  9-C , 10-H ) :   0.9582 B(  9-C , 11-H ) :   0.9610 B(  9-C , 12-C ) :   1.0592
B( 12-C , 13-H ) :   0.9707 B( 12-C , 14-H ) :   0.9804 B( 12-C , 15-H ) :   0.9755
B( 16-S , 17-C ) :   1.1562 B( 16-S , 20-C ) :   1.1438 B( 17-C , 18-C ) :   1.5870
B( 17-C , 33-H ) :   0.9649 B( 18-C , 19-C ) :   1.2609 B( 18-C , 21-H ) :   0.9933
B( 19-C , 20-C ) :   1.5662 B( 19-C , 22-C ) :   1.0207 B( 22-C , 23-H ) :   0.9340
B( 22-C , 24-H ) :   0.9263 B( 22-C , 25-C ) :   1.0862 B( 25-C , 26-H ) :   0.9402
B( 25-C , 27-H ) :   0.9437 B( 25-C , 28-C ) :   1.0699 B( 28-C , 29-H ) :   0.9725
B( 28-C , 30-H ) :   0.9740 B( 28-C , 31-H ) :   0.9711

Dispersion correction           -0.015077580
FINAL SINGLE POINT ENERGY     -1339.873062296187

DIPOLE MOMENT
-------------
                                X             Y             Z
Electronic contribution:     -2.72145      17.07021      -7.83936
Nuclear contribution   :      2.83042     -17.26665       7.99667
                        -----------------------------------------
Total Dipole Moment    :      0.10896      -0.19644       0.15731
                        -----------------------------------------
Magnitude (a.u.)       :      0.27424
Magnitude (Debye)      :      0.69706

Rotational constants in cm-1:     0.020083     0.008918     0.007751
Rotational constants in MHz :   602.087331   267.361263   232.372596

                             ****ORCA TERMINATED NORMALLY****
TOTAL RUN TIME: 0 days 0 hours 0 minutes 28 seconds 997 msec
