                         Program Version 4.2.1 -  RELEASE  -
|  1> ! wB97X-D3 SP def2-SVP
|  2> %pal
|  3> nprocs 16
|  4> end
|  5>
|  6> * xyz 0 1
|  7> S 	 -110.842 	 46.5951 	 129.657
|  8> C 	 -110.369 	 47.2291 	 131.302
|  9> C 	 -109.148 	 46.8057 	 131.686
| 10> C 	 -108.465 	 46.2049 	 130.601
| 11> C 	 -109.251 	 45.8796 	 129.502
| 12> H 	 -107.425 	 45.8478 	 130.607
| 13> C 	 -108.478 	 47.0338 	 133.09
| 14> H 	 -108.389 	 45.9573 	 133.39
| 15> H 	 -109.253 	 47.5386 	 133.726
| 16> C 	 -107.133 	 47.6994 	 133.12
| 17> H 	 -106.311 	 47.0179 	 132.729
| 18> H 	 -107.093 	 48.5618 	 132.545
| 19> C 	 -106.719 	 48.2426 	 134.474
| 20> H 	 -107.426 	 48.9428 	 134.791
| 21> H 	 -106.798 	 47.4607 	 135.278
| 22> H 	 -105.701 	 48.6962 	 134.451
| 23> S 	 -108.244 	 45.8774 	 126.885
| 24> C 	 -107.846 	 44.384 	 126.04
| 25> C 	 -108.04 	 43.3136 	 126.879
| 26> C 	 -108.525 	 43.6941 	 128.187
| 27> C 	 -108.726 	 45.0597 	 128.387
| 28> H 	 -107.879 	 42.3397 	 126.57
| 29> C 	 -108.839 	 42.5688 	 129.192
| 30> H 	 -109.237 	 41.6562 	 128.72
| 31> H 	 -109.743 	 43.0282 	 129.662
| 32> C 	 -107.801 	 42.1933 	 130.271
| 33> H 	 -108.338 	 41.643 	 130.991
| 34> H 	 -107.282 	 43.0996 	 130.752
| 35> C 	 -106.601 	 41.3805 	 129.672
| 36> H 	 -106.869 	 40.3421 	 129.315
| 37> H 	 -105.849 	 41.2638 	 130.428
| 38> H 	 -106.216 	 41.9461 	 128.827
| 39> H 	 -111.036 	 47.8596 	 131.911
| 40> H 	 -107.495 	 44.3216 	 124.989
| 41> *
| 42>
| 43>                          ****END OF INPUT****

CARTESIAN COORDINATES (ANGSTROEM)
---------------------------------
  S    -110.842000   46.595100  129.657000
  C    -110.369000   47.229100  131.302000
  C    -109.148000   46.805700  131.686000
  C    -108.465000   46.204900  130.601000
  C    -109.251000   45.879600  129.502000
  H    -107.425000   45.847800  130.607000
  C    -108.478000   47.033800  133.090000
  H    -108.389000   45.957300  133.390000
  H    -109.253000   47.538600  133.726000
  C    -107.133000   47.699400  133.120000
  H    -106.311000   47.017900  132.729000
  H    -107.093000   48.561800  132.545000
  C    -106.719000   48.242600  134.474000
  H    -107.426000   48.942800  134.791000
  H    -106.798000   47.460700  135.278000
  H    -105.701000   48.696200  134.451000
  S    -108.244000   45.877400  126.885000
  C    -107.846000   44.384000  126.040000
  C    -108.040000   43.313600  126.879000
  C    -108.525000   43.694100  128.187000
  C    -108.726000   45.059700  128.387000
  H    -107.879000   42.339700  126.570000
  C    -108.839000   42.568800  129.192000
  H    -109.237000   41.656200  128.720000
  H    -109.743000   43.028200  129.662000
  C    -107.801000   42.193300  130.271000
  H    -108.338000   41.643000  130.991000
  H    -107.282000   43.099600  130.752000
  C    -106.601000   41.380500  129.672000
  H    -106.869000   40.342100  129.315000
  H    -105.849000   41.263800  130.428000
  H    -106.216000   41.946100  128.827000
  H    -111.036000   47.859600  131.911000
  H    -107.495000   44.321600  124.989000

 Total Charge           Charge          ....    0
 Multiplicity           Mult            ....    1
 Number of Electrons    NEL             ....  134
 Basis Dimension        Dim             ....  322

ORBITAL ENERGIES
----------------

  NO   OCC          E(Eh)            E(eV)
   0   2.0000     -88.968964     -2420.9686
   1   2.0000     -88.960882     -2420.7487
   2   2.0000     -10.333121      -281.1785
   3   2.0000     -10.331319      -281.1295
   4   2.0000     -10.321577      -280.8644
   5   2.0000     -10.320285      -280.8292
   6   2.0000     -10.307437      -280.4796
   7   2.0000     -10.307252      -280.4746
   8   2.0000     -10.303292      -280.3668
   9   2.0000     -10.295319      -280.1499
  10   2.0000     -10.292301      -280.0678
  11   2.0000     -10.290697      -280.0241
  12   2.0000     -10.288621      -279.9676
  13   2.0000     -10.286861      -279.9197
  14   2.0000     -10.280879      -279.7569
  15   2.0000     -10.278734      -279.6986
  16   2.0000      -8.082406      -219.9334
  17   2.0000      -8.075220      -219.7379
  18   2.0000      -6.041036      -164.3850
  19   2.0000      -6.037217      -164.2810
  20   2.0000      -6.033826      -164.1887
  21   2.0000      -6.032962      -164.1652
  22   2.0000      -6.029627      -164.0745
  23   2.0000      -6.026044      -163.9770
  24   2.0000      -1.000201       -27.2168
  25   2.0000      -0.980250       -26.6740
  26   2.0000      -0.915580       -24.9142
  27   2.0000      -0.899013       -24.4634
  28   2.0000      -0.871715       -23.7206
  29   2.0000      -0.846742       -23.0410
  30   2.0000      -0.840152       -22.8617
  31   2.0000      -0.812833       -22.1183
  32   2.0000      -0.784221       -21.3397
  33   2.0000      -0.771161       -20.9844
  34   2.0000      -0.708601       -19.2820
  35   2.0000      -0.698047       -18.9948
  36   2.0000      -0.685819       -18.6621
  37   2.0000      -0.662046       -18.0152
  38   2.0000      -0.638172       -17.3655
  39   2.0000      -0.615649       -16.7526
  40   2.0000      -0.588515       -16.0143
  41   2.0000      -0.574086       -15.6217
  42   2.0000      -0.566574       -15.4173
  43   2.0000      -0.547270       -14.8920
  44   2.0000      -0.541433       -14.7331
  45   2.0000      -0.534276       -14.5384
  46   2.0000      -0.512462       -13.9448
  47   2.0000      -0.509792       -13.8722
  48   2.0000      -0.503782       -13.7086
  49   2.0000      -0.498054       -13.5527
  50   2.0000      -0.483799       -13.1648
  51   2.0000      -0.479056       -13.0358
  52   2.0000      -0.471332       -12.8256
  53   2.0000      -0.467957       -12.7337
  54   2.0000      -0.457635       -12.4529
  55   2.0000      -0.450637       -12.2624
  56   2.0000      -0.440723       -11.9927
  57   2.0000      -0.438602       -11.9350
  58   2.0000      -0.431463       -11.7407
  59   2.0000      -0.427351       -11.6288
  60   2.0000      -0.413681       -11.2568
  61   2.0000      -0.411495       -11.1973
  62   2.0000      -0.406889       -11.0720
  63   2.0000      -0.336157        -9.1473
  64   2.0000      -0.330141        -8.9836
  65   2.0000      -0.320373        -8.7178
  66   2.0000      -0.313284        -8.5249
  67   0.0000       0.037845         1.0298
  68   0.0000       0.057141         1.5549
  69   0.0000       0.109172         2.9707
  70   0.0000       0.123816         3.3692
  71   0.0000       0.130611         3.5541

MULLIKEN ATOMIC CHARGES
-----------------------
   0 S :    0.111327
   1 C :   -0.157738
   2 C :   -0.051895
   3 C :    0.020305
   4 C :   -0.156841
   5 H :    0.026148
   6 C :    0.053922
   7 H :    0.052438
   8 H :    0.027132
   9 C :   -0.053902
  10 H :    0.040386
  11 H :    0.020556
  12 C :   -0.054955
  13 H :    0.016524
  14 H :    0.025412
  15 H :    0.049459
  16 S :    0.091919
  17 C :   -0.105877
  18 C :    0.005408
  19 C :   -0.039796
  20 C :   -0.179788
  21 H :   -0.008891
  22 C :    0.028846
  23 H :    0.027003
  24 H :    0.035675
  25 C :   -0.046835
  26 H :    0.026882
  27 H :    0.037700
  28 C :   -0.071904
  29 H :    0.031370
  30 H :    0.032640
  31 H :    0.038011
  32 H :    0.053825
  33 H :    0.075536
Sum of atomic charges:    0.0000000

LOEWDIN ATOMIC CHARGES
----------------------
   0 S :    0.375061
   1 C :   -0.174147
   2 C :   -0.066073
   3 C :   -0.057343
   4 C :   -0.201690
   5 H :    0.033392
   6 C :   -0.027412
   7 H :    0.044443
   8 H :    0.033243
   9 C :   -0.047982
  10 H :    0.032474
  11 H :    0.018990
  12 C :   -0.062085
  13 H :    0.014698
  14 H :    0.025680
  15 H :    0.034688
  16 S :    0.390012
  17 C :   -0.181030
  18 C :   -0.071657
  19 C :   -0.051911
  20 C :   -0.197399
  21 H :    0.018573
  22 C :   -0.040369
  23 H :    0.031245
  24 H :    0.037561
  25 C :   -0.035158
  26 H :    0.017520
  27 H :    0.032888
  28 C :   -0.069806
  29 H :    0.025653
  30 H :    0.020984
  31 H :    0.025153
  32 H :    0.031297
  33 H :    0.040507

  Mayer bond orders larger than 0.100000
B(  0-S ,  1-C ) :   1.1151 B(  0-S ,  4-C ) :   1.1315 B(  1-C ,  2-C ) :   1.6539
B(  1-C , 32-H ) :   0.9616 B(  2-C ,  3-C ) :   1.2150 B(  2-C ,  6-C ) :   1.0018
B(  3-C ,  4-C ) :   1.6082 B(  3-C ,  5-H ) :   0.9822 B(  4-C , 20-C ) :   1.0278
B(  6-C ,  7-H ) :   0.9307 B(  6-C ,  8-H ) :   0.9477 B(  6-C ,  9-C ) :   1.0670
B(  9-C , 10-H ) :   0.9440 B(  9-C , 11-H ) :   0.9583 B(  9-C , 12-C ) :   1.0911
B( 12-C , 13-H ) :   0.9744 B( 12-C , 14-H ) :   0.9733 B( 12-C , 15-H ) :   0.9732
B( 16-S , 17-C ) :   1.1626 B( 16-S , 20-C ) :   1.1294 B( 17-C , 18-C ) :   1.5914
B( 17-C , 33-H ) :   0.9628 B( 18-C , 19-C ) :   1.2399 B( 18-C , 21-H ) :   1.0039
B( 19-C , 20-C ) :   1.6169 B( 19-C , 22-C ) :   1.0247 B( 22-C , 23-H ) :   0.9443
B( 22-C , 24-H ) :   0.9334 B( 22-C , 25-C ) :   1.0700 B( 25-C , 26-H ) :   0.9556
B( 25-C , 27-H ) :   0.9558 B( 25-C , 28-C ) :   1.0675 B( 28-C , 29-H ) :   0.9757
B( 28-C , 30-H ) :   0.9772 B( 28-C , 31-H ) :   0.9766

Dispersion correction           -0.014288223
FINAL SINGLE POINT ENERGY     -1339.869988516907

DIPOLE MOMENT
-------------
                                X             Y             Z
Electronic contribution:    -14.54332       8.66499     -22.21051
Nuclear contribution   :     14.84620      -8.91829      22.74285
                        -----------------------------------------
Total Dipole Moment    :      0.30288      -0.25330       0.53234
                        -----------------------------------------
Magnitude (a.u.)       :      0.66278
Magnitude (Debye)      :      1.68466

Rotational constants in cm-1:     0.017621     0.008115     0.006749
Rotational constants in MHz :   528.253694   243.291231   202.323629

                             ****ORCA TERMINATED NORMALLY****
TOTAL RUN TIME: 0 days 0 hours 0 minutes 34 seconds 196 msec
