                         Program Version 4.2.1 -  RELEASE  -
|  1> ! wB97X-D3 SP def2-SVP
|  2> %pal
|  3> nprocs 16
|  4> end
|  5>
|  6> * xyz 0 1
|  7> S 	 -63.3617 	 59.0411 	 124.862
|  8> C 	 -62.0799 	 60.0987 	 124.536
|  9> C 	 -62.4686 	 61.2755 	 123.898
| 10> C 	 -63.9061 	 61.323 	 123.746
| 11> C 	 -64.5875 	 60.2361 	 124.268
| 12> H 	 -64.4175 	 62.2134 	 123.315
| 13> C 	 -61.5679 	 62.4046 	 123.436
| 14> H 	 -60.7212 	 62.1776 	 124.078
| 15> H 	 -61.9143 	 63.4015 	 123.738
| 16> C 	 -61.1563 	 62.3317 	 121.964
| 17> H 	 -60.8223 	 61.3056 	 121.789
| 18> H 	 -62.0004 	 62.3218 	 121.318
| 19> C 	 -60.1914 	 63.4213 	 121.549
| 20> H 	 -59.2967 	 63.4257 	 122.168
| 21> H 	 -59.8796 	 63.3051 	 120.53
| 22> H 	 -60.5843 	 64.4313 	 121.692
| 23> S 	 -66.7327 	 59.4629 	 125.821
| 24> C 	 -68.3663 	 59.5953 	 125.233
| 25> C 	 -68.3995 	 60.0196 	 123.934
| 26> C 	 -67.0933 	 60.2925 	 123.421
| 27> C 	 -66.0813 	 59.988 	 124.249
| 28> H 	 -69.3197 	 60.1753 	 123.464
| 29> C 	 -66.8484 	 60.7028 	 122.044
| 30> H 	 -66.1581 	 61.5269 	 121.943
| 31> H 	 -67.7367 	 61.1972 	 121.844
| 32> C 	 -66.4134 	 59.6344 	 121.085
| 33> H 	 -67.0789 	 58.8453 	 121.089
| 34> H 	 -65.4367 	 59.2656 	 121.344
| 35> C 	 -66.3819 	 60.2611 	 119.668
| 36> H 	 -65.6736 	 61.0126 	 119.426
| 37> H 	 -67.3079 	 60.8224 	 119.422
| 38> H 	 -66.2384 	 59.5575 	 118.841
| 39> H 	 -61.0404 	 59.8455 	 124.604
| 40> H 	 -69.2153 	 59.4968 	 125.777
| 41> *
| 42>
| 43>                          ****END OF INPUT****

CARTESIAN COORDINATES (ANGSTROEM)
---------------------------------
  S    -63.361700   59.041100  124.862000
  C    -62.079900   60.098700  124.536000
  C    -62.468600   61.275500  123.898000
  C    -63.906100   61.323000  123.746000
  C    -64.587500   60.236100  124.268000
  H    -64.417500   62.213400  123.315000
  C    -61.567900   62.404600  123.436000
  H    -60.721200   62.177600  124.078000
  H    -61.914300   63.401500  123.738000
  C    -61.156300   62.331700  121.964000
  H    -60.822300   61.305600  121.789000
  H    -62.000400   62.321800  121.318000
  C    -60.191400   63.421300  121.549000
  H    -59.296700   63.425700  122.168000
  H    -59.879600   63.305100  120.530000
  H    -60.584300   64.431300  121.692000
  S    -66.732700   59.462900  125.821000
  C    -68.366300   59.595300  125.233000
  C    -68.399500   60.019600  123.934000
  C    -67.093300   60.292500  123.421000
  C    -66.081300   59.988000  124.249000
  H    -69.319700   60.175300  123.464000
  C    -66.848400   60.702800  122.044000
  H    -66.158100   61.526900  121.943000
  H    -67.736700   61.197200  121.844000
  C    -66.413400   59.634400  121.085000
  H    -67.078900   58.845300  121.089000
  H    -65.436700   59.265600  121.344000
  C    -66.381900   60.261100  119.668000
  H    -65.673600   61.012600  119.426000
  H    -67.307900   60.822400  119.422000
  H    -66.238400   59.557500  118.841000
  H    -61.040400   59.845500  124.604000
  H    -69.215300   59.496800  125.777000

 Total Charge           Charge          ....    0
 Multiplicity           Mult            ....    1
 Number of Electrons    NEL             ....  134
 Basis Dimension        Dim             ....  322

ORBITAL ENERGIES
----------------

  NO   OCC          E(Eh)            E(eV)
   0   2.0000     -88.969444     -2420.9817
   1   2.0000     -88.960235     -2420.7311
   2   2.0000     -10.339545      -281.3533
   3   2.0000     -10.326752      -281.0052
   4   2.0000     -10.312966      -280.6301
   5   2.0000     -10.309436      -280.5340
   6   2.0000     -10.301873      -280.3282
   7   2.0000     -10.298663      -280.2409
   8   2.0000     -10.294097      -280.1166
   9   2.0000     -10.292709      -280.0788
  10   2.0000     -10.288942      -279.9763
  11   2.0000     -10.283997      -279.8418
  12   2.0000     -10.278916      -279.7035
  13   2.0000     -10.277531      -279.6658
  14   2.0000     -10.274381      -279.5801
  15   2.0000     -10.274095      -279.5723
  16   2.0000      -8.084012      -219.9772
  17   2.0000      -8.075064      -219.7337
  18   2.0000      -6.042654      -164.4290
  19   2.0000      -6.038482      -164.3154
  20   2.0000      -6.034692      -164.2123
  21   2.0000      -6.033632      -164.1835
  22   2.0000      -6.029506      -164.0712
  23   2.0000      -6.025808      -163.9706
  24   2.0000      -1.005526       -27.3618
  25   2.0000      -0.986988       -26.8573
  26   2.0000      -0.919092       -25.0098
  27   2.0000      -0.913033       -24.8449
  28   2.0000      -0.868840       -23.6423
  29   2.0000      -0.853417       -23.2227
  30   2.0000      -0.848729       -23.0951
  31   2.0000      -0.820287       -22.3211
  32   2.0000      -0.780685       -21.2435
  33   2.0000      -0.772057       -21.0087
  34   2.0000      -0.718696       -19.5567
  35   2.0000      -0.708804       -19.2875
  36   2.0000      -0.698282       -19.0012
  37   2.0000      -0.673025       -18.3139
  38   2.0000      -0.640103       -17.4181
  39   2.0000      -0.622000       -16.9255
  40   2.0000      -0.602363       -16.3911
  41   2.0000      -0.575637       -15.6639
  42   2.0000      -0.567100       -15.4316
  43   2.0000      -0.553880       -15.0718
  44   2.0000      -0.531988       -14.4761
  45   2.0000      -0.529252       -14.4017
  46   2.0000      -0.517707       -14.0875
  47   2.0000      -0.515534       -14.0284
  48   2.0000      -0.503704       -13.7065
  49   2.0000      -0.498708       -13.5705
  50   2.0000      -0.492622       -13.4049
  51   2.0000      -0.483362       -13.1529
  52   2.0000      -0.468866       -12.7585
  53   2.0000      -0.464626       -12.6431
  54   2.0000      -0.457501       -12.4492
  55   2.0000      -0.446703       -12.1554
  56   2.0000      -0.445946       -12.1348
  57   2.0000      -0.443515       -12.0687
  58   2.0000      -0.442342       -12.0367
  59   2.0000      -0.428016       -11.6469
  60   2.0000      -0.425865       -11.5884
  61   2.0000      -0.411226       -11.1900
  62   2.0000      -0.408281       -11.1099
  63   2.0000      -0.354867        -9.6564
  64   2.0000      -0.330635        -8.9970
  65   2.0000      -0.329654        -8.9703
  66   2.0000      -0.293245        -7.9796
  67   0.0000       0.031684         0.8622
  68   0.0000       0.069847         1.9006
  69   0.0000       0.113156         3.0791
  70   0.0000       0.119388         3.2487
  71   0.0000       0.131922         3.5898

MULLIKEN ATOMIC CHARGES
-----------------------
   0 S :    0.115605
   1 C :   -0.094556
   2 C :   -0.137230
   3 C :    0.012124
   4 C :   -0.125667
   5 H :    0.031949
   6 C :    0.059067
   7 H :    0.014050
   8 H :    0.030253
   9 C :   -0.041120
  10 H :    0.014810
  11 H :    0.010929
  12 C :   -0.015116
  13 H :    0.021396
  14 H :    0.033920
  15 H :    0.027386
  16 S :    0.083182
  17 C :   -0.031267
  18 C :   -0.017829
  19 C :   -0.070602
  20 C :   -0.117399
  21 H :   -0.004461
  22 C :    0.073128
  23 H :    0.001362
  24 H :   -0.015021
  25 C :    0.045437
  26 H :    0.008840
  27 H :    0.033558
  28 C :   -0.067262
  29 H :    0.015190
  30 H :    0.018170
  31 H :    0.028329
  32 H :    0.044324
  33 H :    0.014520
Sum of atomic charges:   -0.0000000

LOEWDIN ATOMIC CHARGES
----------------------
   0 S :    0.407574
   1 C :   -0.212448
   2 C :   -0.065987
   3 C :   -0.064804
   4 C :   -0.181358
   5 H :    0.037003
   6 C :   -0.032311
   7 H :    0.030971
   8 H :    0.029932
   9 C :   -0.041759
  10 H :    0.026296
  11 H :    0.018440
  12 C :   -0.062352
  13 H :    0.024501
  14 H :    0.026030
  15 H :    0.026995
  16 S :    0.390123
  17 C :   -0.159762
  18 C :   -0.063216
  19 C :   -0.061733
  20 C :   -0.178065
  21 H :    0.024072
  22 C :   -0.033435
  23 H :    0.027990
  24 H :    0.020380
  25 C :   -0.013991
  26 H :    0.016457
  27 H :    0.028983
  28 C :   -0.072045
  29 H :    0.018436
  30 H :    0.026607
  31 H :    0.025240
  32 H :    0.027411
  33 H :    0.009826

  Mayer bond orders larger than 0.100000
B(  0-S ,  1-C ) :   1.1504 B(  0-S ,  4-C ) :   1.1389 B(  1-C ,  2-C ) :   1.6142
B(  1-C , 32-H ) :   0.9602 B(  2-C ,  3-C ) :   1.2508 B(  2-C ,  6-C ) :   1.0185
B(  3-C ,  4-C ) :   1.5863 B(  3-C ,  5-H ) :   0.9833 B(  4-C , 20-C ) :   1.0018
B(  6-C ,  7-H ) :   0.9364 B(  6-C ,  8-H ) :   0.9456 B(  6-C ,  9-C ) :   1.0581
B(  9-C , 10-H ) :   0.9481 B(  9-C , 11-H ) :   0.9535 B(  9-C , 12-C ) :   1.0834
B( 12-C , 13-H ) :   0.9738 B( 12-C , 14-H ) :   0.9727 B( 12-C , 15-H ) :   0.9720
B( 16-S , 17-C ) :   1.1593 B( 16-S , 20-C ) :   1.1161 B( 17-C , 18-C ) :   1.6171
B( 17-C , 33-H ) :   0.9760 B( 18-C , 19-C ) :   1.2179 B( 18-C , 21-H ) :   1.0041
B( 19-C , 20-C ) :   1.6426 B( 19-C , 22-C ) :   1.0547 B( 22-C , 23-H ) :   0.9260
B( 22-C , 24-H ) :   0.9161 B( 22-C , 25-C ) :   1.0707 B( 25-C , 26-H ) :   0.9513
B( 25-C , 27-H ) :   0.9503 B( 25-C , 28-C ) :   1.0723 B( 28-C , 29-H ) :   0.9753
B( 28-C , 30-H ) :   0.9743 B( 28-C , 31-H ) :   0.9751

Dispersion correction           -0.014045266
FINAL SINGLE POINT ENERGY     -1339.868143906908

DIPOLE MOMENT
-------------
                                X             Y             Z
Electronic contribution:     -9.77320     -14.61144      25.81332
Nuclear contribution   :      9.80152      15.09066     -26.39301
                        -----------------------------------------
Total Dipole Moment    :      0.02832       0.47921      -0.57969
                        -----------------------------------------
Magnitude (a.u.)       :      0.75266
Magnitude (Debye)      :      1.91310

Rotational constants in cm-1:     0.018698     0.008513     0.006534
Rotational constants in MHz :   560.552506   255.209273   195.896764

                             ****ORCA TERMINATED NORMALLY****
TOTAL RUN TIME: 0 days 0 hours 0 minutes 34 seconds 110 msec
