                         Program Version 4.2.1 -  RELEASE  -
|  1> ! wB97X-D3 SP def2-SVP
|  2> %pal
|  3> nprocs 16
|  4> end
|  5>
|  6> * xyz 0 1
|  7> S 	 -98.5716 	 42.8527 	 120.75
|  8> C 	 -99.5619 	 42.4819 	 122.144
|  9> C 	 -98.8004 	 41.9541 	 123.166
| 10> C 	 -97.4693 	 41.7336 	 122.764
| 11> C 	 -97.1582 	 42.2247 	 121.49
| 12> H 	 -96.6569 	 41.1588 	 123.358
| 13> C 	 -99.3534 	 41.4175 	 124.55
| 14> H 	 -98.6109 	 40.9147 	 125.136
| 15> H 	 -100.131 	 40.6914 	 124.425
| 16> C 	 -99.927 	 42.5784 	 125.279
| 17> H 	 -100.796 	 42.9128 	 124.705
| 18> H 	 -100.381 	 42.2335 	 126.199
| 19> C 	 -98.9309 	 43.7478 	 125.589
| 20> H 	 -99.3234 	 44.5095 	 126.266
| 21> H 	 -97.9458 	 43.5501 	 125.855
| 22> H 	 -98.622 	 44.2279 	 124.656
| 23> S 	 -94.5893 	 41.2236 	 121.643
| 24> C 	 -93.3794 	 41.7024 	 120.582
| 25> C 	 -93.7313 	 42.6991 	 119.716
| 26> C 	 -95.1481 	 42.9208 	 119.855
| 27> C 	 -95.8582 	 42.2292 	 120.859
| 28> H 	 -93.0976 	 43.0625 	 118.939
| 29> C 	 -95.8429 	 43.8106 	 118.845
| 30> H 	 -96.7352 	 43.276 	 118.495
| 31> H 	 -95.225 	 43.8047 	 117.896
| 32> C 	 -96.1334 	 45.2592 	 119.276
| 33> H 	 -96.7376 	 45.4312 	 120.129
| 34> H 	 -96.8248 	 45.7617 	 118.521
| 35> C 	 -94.8854 	 46.0975 	 119.281
| 36> H 	 -95.1826 	 47.1357 	 119.468
| 37> H 	 -94.3269 	 46.0266 	 118.361
| 38> H 	 -94.1744 	 45.7216 	 120.041
| 39> H 	 -100.572 	 42.8035 	 122.322
| 40> H 	 -92.4158 	 41.3239 	 120.522
| 41> *
| 42>
| 43>                          ****END OF INPUT****

CARTESIAN COORDINATES (ANGSTROEM)
---------------------------------
  S    -98.571600   42.852700  120.750000
  C    -99.561900   42.481900  122.144000
  C    -98.800400   41.954100  123.166000
  C    -97.469300   41.733600  122.764000
  C    -97.158200   42.224700  121.490000
  H    -96.656900   41.158800  123.358000
  C    -99.353400   41.417500  124.550000
  H    -98.610900   40.914700  125.136000
  H    -100.131000   40.691400  124.425000
  C    -99.927000   42.578400  125.279000
  H    -100.796000   42.912800  124.705000
  H    -100.381000   42.233500  126.199000
  C    -98.930900   43.747800  125.589000
  H    -99.323400   44.509500  126.266000
  H    -97.945800   43.550100  125.855000
  H    -98.622000   44.227900  124.656000
  S    -94.589300   41.223600  121.643000
  C    -93.379400   41.702400  120.582000
  C    -93.731300   42.699100  119.716000
  C    -95.148100   42.920800  119.855000
  C    -95.858200   42.229200  120.859000
  H    -93.097600   43.062500  118.939000
  C    -95.842900   43.810600  118.845000
  H    -96.735200   43.276000  118.495000
  H    -95.225000   43.804700  117.896000
  C    -96.133400   45.259200  119.276000
  H    -96.737600   45.431200  120.129000
  H    -96.824800   45.761700  118.521000
  C    -94.885400   46.097500  119.281000
  H    -95.182600   47.135700  119.468000
  H    -94.326900   46.026600  118.361000
  H    -94.174400   45.721600  120.041000
  H    -100.572000   42.803500  122.322000
  H    -92.415800   41.323900  120.522000

 Total Charge           Charge          ....    0
 Multiplicity           Mult            ....    1
 Number of Electrons    NEL             ....  134
 Basis Dimension        Dim             ....  322

ORBITAL ENERGIES
----------------

  NO   OCC          E(Eh)            E(eV)
   0   2.0000     -88.972836     -2421.0740
   1   2.0000     -88.964613     -2420.8502
   2   2.0000     -10.335263      -281.2368
   3   2.0000     -10.334396      -281.2132
   4   2.0000     -10.312709      -280.6231
   5   2.0000     -10.311273      -280.5840
   6   2.0000     -10.308705      -280.5141
   7   2.0000     -10.303908      -280.3836
   8   2.0000     -10.299528      -280.2644
   9   2.0000     -10.292785      -280.0809
  10   2.0000     -10.292667      -280.0777
  11   2.0000     -10.291495      -280.0458
  12   2.0000     -10.285880      -279.8930
  13   2.0000     -10.282315      -279.7960
  14   2.0000     -10.271732      -279.5080
  15   2.0000     -10.269777      -279.4548
  16   2.0000      -8.087298      -220.0666
  17   2.0000      -8.080012      -219.8683
  18   2.0000      -6.045805      -164.5147
  19   2.0000      -6.041753      -164.4045
  20   2.0000      -6.038568      -164.3178
  21   2.0000      -6.038169      -164.3069
  22   2.0000      -6.034320      -164.2022
  23   2.0000      -6.030806      -164.1066
  24   2.0000      -1.012123       -27.5413
  25   2.0000      -0.991369       -26.9765
  26   2.0000      -0.916088       -24.9280
  27   2.0000      -0.908250       -24.7147
  28   2.0000      -0.873709       -23.7748
  29   2.0000      -0.852322       -23.1929
  30   2.0000      -0.842466       -22.9247
  31   2.0000      -0.812711       -22.1150
  32   2.0000      -0.791386       -21.5347
  33   2.0000      -0.772611       -21.0238
  34   2.0000      -0.711910       -19.3721
  35   2.0000      -0.706330       -19.2202
  36   2.0000      -0.691251       -18.8099
  37   2.0000      -0.670694       -18.2505
  38   2.0000      -0.632032       -17.1985
  39   2.0000      -0.613073       -16.6826
  40   2.0000      -0.594530       -16.1780
  41   2.0000      -0.582254       -15.8439
  42   2.0000      -0.556828       -15.1521
  43   2.0000      -0.550981       -14.9930
  44   2.0000      -0.547189       -14.8898
  45   2.0000      -0.536756       -14.6059
  46   2.0000      -0.522892       -14.2286
  47   2.0000      -0.506766       -13.7898
  48   2.0000      -0.504630       -13.7317
  49   2.0000      -0.495695       -13.4885
  50   2.0000      -0.488366       -13.2891
  51   2.0000      -0.478803       -13.0289
  52   2.0000      -0.472791       -12.8653
  53   2.0000      -0.471622       -12.8335
  54   2.0000      -0.467245       -12.7144
  55   2.0000      -0.446574       -12.1519
  56   2.0000      -0.442173       -12.0321
  57   2.0000      -0.435319       -11.8456
  58   2.0000      -0.432888       -11.7795
  59   2.0000      -0.430659       -11.7188
  60   2.0000      -0.410072       -11.1586
  61   2.0000      -0.407051       -11.0764
  62   2.0000      -0.397420       -10.8144
  63   2.0000      -0.365845        -9.9551
  64   2.0000      -0.338104        -9.2003
  65   2.0000      -0.330912        -9.0046
  66   2.0000      -0.280124        -7.6226
  67   0.0000       0.016735         0.4554
  68   0.0000       0.082004         2.2314
  69   0.0000       0.110263         3.0004
  70   0.0000       0.116415         3.1678
  71   0.0000       0.129908         3.5350

MULLIKEN ATOMIC CHARGES
-----------------------
   0 S :    0.117375
   1 C :   -0.115588
   2 C :   -0.101708
   3 C :   -0.048026
   4 C :   -0.118611
   5 H :    0.054524
   6 C :    0.117230
   7 H :    0.014861
   8 H :    0.031380
   9 C :   -0.079614
  10 H :    0.021235
  11 H :    0.018498
  12 C :   -0.031210
  13 H :    0.040111
  14 H :    0.007477
  15 H :    0.027366
  16 S :    0.077423
  17 C :   -0.029590
  18 C :   -0.018282
  19 C :   -0.083130
  20 C :   -0.093432
  21 H :    0.015817
  22 C :   -0.002321
  23 H :    0.035792
  24 H :    0.024818
  25 C :   -0.044591
  26 H :    0.021691
  27 H :    0.022078
  28 C :   -0.047672
  29 H :    0.037334
  30 H :    0.016602
  31 H :    0.036629
  32 H :    0.045627
  33 H :    0.029907
Sum of atomic charges:   -0.0000000

LOEWDIN ATOMIC CHARGES
----------------------
   0 S :    0.439476
   1 C :   -0.205563
   2 C :   -0.057232
   3 C :   -0.090520
   4 C :   -0.202101
   5 H :    0.039433
   6 C :   -0.016866
   7 H :    0.024955
   8 H :    0.031495
   9 C :   -0.039359
  10 H :    0.022416
  11 H :    0.019721
  12 C :   -0.073028
  13 H :    0.028855
  14 H :    0.018133
  15 H :    0.032102
  16 S :    0.420196
  17 C :   -0.181911
  18 C :   -0.076338
  19 C :   -0.053947
  20 C :   -0.182188
  21 H :    0.031530
  22 C :   -0.044894
  23 H :    0.026126
  24 H :    0.035349
  25 C :   -0.046489
  26 H :    0.016724
  27 H :    0.030142
  28 C :   -0.065894
  29 H :    0.028524
  30 H :    0.018878
  31 H :    0.026567
  32 H :    0.026107
  33 H :    0.019601

  Mayer bond orders larger than 0.100000
B(  0-S ,  1-C ) :   1.1393 B(  0-S ,  4-C ) :   1.1654 B(  1-C ,  2-C ) :   1.5972
B(  1-C ,  4-C ) :   0.1030 B(  1-C , 32-H ) :   0.9626 B(  2-C ,  3-C ) :   1.2984
B(  2-C ,  6-C ) :   0.9968 B(  3-C ,  4-C ) :   1.5264 B(  3-C ,  5-H ) :   0.9615
B(  4-C , 20-C ) :   1.1007 B(  6-C ,  7-H ) :   0.9458 B(  6-C ,  8-H ) :   0.9444
B(  6-C ,  9-C ) :   1.0831 B(  9-C , 10-H ) :   0.9573 B(  9-C , 11-H ) :   0.9548
B(  9-C , 12-C ) :   1.0597 B( 12-C , 13-H ) :   0.9782 B( 12-C , 14-H ) :   0.9749
B( 12-C , 15-H ) :   0.9631 B( 16-S , 17-C ) :   1.1945 B( 16-S , 20-C ) :   1.1081
B( 17-C , 18-C ) :   1.5822 B( 17-C , 33-H ) :   0.9666 B( 18-C , 19-C ) :   1.2582
B( 18-C , 21-H ) :   0.9938 B( 19-C , 20-C ) :   1.5633 B( 19-C , 22-C ) :   1.0261
B( 22-C , 23-H ) :   0.9461 B( 22-C , 24-H ) :   0.9424 B( 22-C , 25-C ) :   1.0614
B( 25-C , 26-H ) :   0.9568 B( 25-C , 27-H ) :   0.9506 B( 25-C , 28-C ) :   1.0823
B( 28-C , 29-H ) :   0.9726 B( 28-C , 30-H ) :   0.9731 B( 28-C , 31-H ) :   0.9739

Dispersion correction           -0.014808900
FINAL SINGLE POINT ENERGY     -1339.863728708044

DIPOLE MOMENT
-------------
                                X             Y             Z
Electronic contribution:      4.85063     -14.20514      -6.56227
Nuclear contribution   :     -4.83247      14.30293       6.61074
                        -----------------------------------------
Total Dipole Moment    :      0.01816       0.09779       0.04847
                        -----------------------------------------
Magnitude (a.u.)       :      0.11065
Magnitude (Debye)      :      0.28125

Rotational constants in cm-1:     0.021591     0.008309     0.007072
Rotational constants in MHz :   647.296410   249.101683   212.017972

                             ****ORCA TERMINATED NORMALLY****
TOTAL RUN TIME: 0 days 0 hours 0 minutes 34 seconds 606 msec
