                         Program Version 4.2.1 -  RELEASE  -
|  1> ! wB97X-D3 SP def2-SVP
|  2> %pal
|  3> nprocs 16
|  4> end
|  5>
|  6> * xyz 0 1
|  7> S 	 15.8228 	 18.8233 	 39.0253
|  8> C 	 15.3968 	 17.6727 	 37.7727
|  9> C 	 14.0782 	 17.3344 	 37.8599
| 10> C 	 13.3735 	 18.0642 	 38.8394
| 11> C 	 14.1668 	 19.0031 	 39.4695
| 12> H 	 12.2437 	 18.0856 	 39.0308
| 13> C 	 13.4276 	 16.1594 	 37.1777
| 14> H 	 13.9717 	 15.1272 	 37.4101
| 15> H 	 13.6148 	 16.3377 	 36.0832
| 16> C 	 11.8798 	 15.9343 	 37.4116
| 17> H 	 11.7173 	 15.6754 	 38.4757
| 18> H 	 11.2761 	 16.8307 	 37.1621
| 19> C 	 11.3207 	 14.7295 	 36.7064
| 20> H 	 10.3804 	 14.411 	 37.1488
| 21> H 	 11.0364 	 14.9221 	 35.6137
| 22> H 	 12.0545 	 13.9184 	 36.8321
| 23> S 	 14.2391 	 21.7086 	 39.846
| 24> C 	 13.7647 	 22.4514 	 41.2769
| 25> C 	 13.1193 	 21.5603 	 42.0529
| 26> C 	 13.1029 	 20.1972 	 41.5445
| 27> C 	 13.7748 	 20.1423 	 40.3772
| 28> H 	 12.7081 	 22.0111 	 42.934
| 29> C 	 12.5883 	 19.042 	 42.3475
| 30> H 	 13.1571 	 19.0741 	 43.2681
| 31> H 	 12.8321 	 18.1716 	 41.7974
| 32> C 	 11.1033 	 19.2378 	 42.7927
| 33> H 	 10.939 	 20.1673 	 43.3146
| 34> H 	 10.9046 	 18.4475 	 43.4966
| 35> C 	 10.0349 	 19.2016 	 41.6355
| 36> H 	 10.1321 	 18.3564 	 40.9404
| 37> H 	 10.2691 	 20.0849 	 41.0392
| 38> H 	 9.01407 	 19.2264 	 42.0025
| 39> H 	 16.0948 	 17.0331 	 37.2316
| 40> H 	 13.6498 	 23.5419 	 41.4232
| 41> *
| 42>
| 43>                          ****END OF INPUT****

CARTESIAN COORDINATES (ANGSTROEM)
---------------------------------
  S     15.822800   18.823300   39.025300
  C     15.396800   17.672700   37.772700
  C     14.078200   17.334400   37.859900
  C     13.373500   18.064200   38.839400
  C     14.166800   19.003100   39.469500
  H     12.243700   18.085600   39.030800
  C     13.427600   16.159400   37.177700
  H     13.971700   15.127200   37.410100
  H     13.614800   16.337700   36.083200
  C     11.879800   15.934300   37.411600
  H     11.717300   15.675400   38.475700
  H     11.276100   16.830700   37.162100
  C     11.320700   14.729500   36.706400
  H     10.380400   14.411000   37.148800
  H     11.036400   14.922100   35.613700
  H     12.054500   13.918400   36.832100
  S     14.239100   21.708600   39.846000
  C     13.764700   22.451400   41.276900
  C     13.119300   21.560300   42.052900
  C     13.102900   20.197200   41.544500
  C     13.774800   20.142300   40.377200
  H     12.708100   22.011100   42.934000
  C     12.588300   19.042000   42.347500
  H     13.157100   19.074100   43.268100
  H     12.832100   18.171600   41.797400
  C     11.103300   19.237800   42.792700
  H     10.939000   20.167300   43.314600
  H     10.904600   18.447500   43.496600
  C     10.034900   19.201600   41.635500
  H     10.132100   18.356400   40.940400
  H     10.269100   20.084900   41.039200
  H      9.014070   19.226400   42.002500
  H     16.094800   17.033100   37.231600
  H     13.649800   23.541900   41.423200

 Total Charge           Charge          ....    0
 Multiplicity           Mult            ....    1
 Number of Electrons    NEL             ....  134
 Basis Dimension        Dim             ....  322

ORBITAL ENERGIES
----------------

  NO   OCC          E(Eh)            E(eV)
   0   2.0000     -88.967338     -2420.9243
   1   2.0000     -88.956472     -2420.6287
   2   2.0000     -10.330548      -281.1085
   3   2.0000     -10.321932      -280.8741
   4   2.0000     -10.310539      -280.5640
   5   2.0000     -10.307535      -280.4823
   6   2.0000     -10.307489      -280.4810
   7   2.0000     -10.299215      -280.2559
   8   2.0000     -10.298509      -280.2367
   9   2.0000     -10.296420      -280.1798
  10   2.0000     -10.294003      -280.1141
  11   2.0000     -10.289233      -279.9843
  12   2.0000     -10.288199      -279.9561
  13   2.0000     -10.286410      -279.9075
  14   2.0000     -10.284072      -279.8438
  15   2.0000     -10.278473      -279.6915
  16   2.0000      -8.082311      -219.9309
  17   2.0000      -8.073656      -219.6954
  18   2.0000      -6.040700      -164.3758
  19   2.0000      -6.036813      -164.2700
  20   2.0000      -6.033129      -164.1698
  21   2.0000      -6.032110      -164.1420
  22   2.0000      -6.027735      -164.0230
  23   2.0000      -6.024386      -163.9319
  24   2.0000      -1.017027       -27.6747
  25   2.0000      -0.995203       -27.0808
  26   2.0000      -0.909044       -24.7364
  27   2.0000      -0.908546       -24.7228
  28   2.0000      -0.872122       -23.7317
  29   2.0000      -0.851036       -23.1579
  30   2.0000      -0.842926       -22.9372
  31   2.0000      -0.819293       -22.2941
  32   2.0000      -0.783225       -21.3126
  33   2.0000      -0.771696       -20.9989
  34   2.0000      -0.709421       -19.3043
  35   2.0000      -0.700638       -19.0653
  36   2.0000      -0.684442       -18.6246
  37   2.0000      -0.653635       -17.7863
  38   2.0000      -0.636059       -17.3080
  39   2.0000      -0.618233       -16.8230
  40   2.0000      -0.596952       -16.2439
  41   2.0000      -0.573880       -15.6161
  42   2.0000      -0.566857       -15.4250
  43   2.0000      -0.549147       -14.9430
  44   2.0000      -0.538094       -14.6423
  45   2.0000      -0.525913       -14.3108
  46   2.0000      -0.520635       -14.1672
  47   2.0000      -0.509666       -13.8687
  48   2.0000      -0.498333       -13.5603
  49   2.0000      -0.494488       -13.4557
  50   2.0000      -0.489066       -13.3082
  51   2.0000      -0.485022       -13.1981
  52   2.0000      -0.469885       -12.7862
  53   2.0000      -0.462455       -12.5840
  54   2.0000      -0.457974       -12.4621
  55   2.0000      -0.453733       -12.3467
  56   2.0000      -0.442554       -12.0425
  57   2.0000      -0.436060       -11.8658
  58   2.0000      -0.429992       -11.7007
  59   2.0000      -0.429317       -11.6823
  60   2.0000      -0.425803       -11.5867
  61   2.0000      -0.413765       -11.2591
  62   2.0000      -0.411800       -11.2057
  63   2.0000      -0.348257        -9.4765
  64   2.0000      -0.333154        -9.0656
  65   2.0000      -0.321705        -8.7540
  66   2.0000      -0.301609        -8.2072
  67   0.0000       0.038741         1.0542
  68   0.0000       0.073237         1.9929
  69   0.0000       0.113115         3.0780
  70   0.0000       0.122980         3.3465
  71   0.0000       0.132680         3.6104

MULLIKEN ATOMIC CHARGES
-----------------------
   0 S :    0.124075
   1 C :   -0.118645
   2 C :   -0.070877
   3 C :    0.007332
   4 C :   -0.171199
   5 H :    0.045821
   6 C :   -0.015564
   7 H :    0.055742
   8 H :    0.044785
   9 C :   -0.107533
  10 H :    0.037424
  11 H :    0.044169
  12 C :   -0.041784
  13 H :    0.029599
  14 H :    0.042896
  15 H :    0.029586
  16 S :    0.110188
  17 C :   -0.094555
  18 C :   -0.063050
  19 C :   -0.031467
  20 C :   -0.173195
  21 H :    0.008247
  22 C :    0.123342
  23 H :    0.034622
  24 H :    0.013895
  25 C :   -0.086082
  26 H :    0.032151
  27 H :    0.026124
  28 C :   -0.064291
  29 H :    0.030216
  30 H :    0.039484
  31 H :    0.040258
  32 H :    0.048241
  33 H :    0.070045
Sum of atomic charges:    0.0000000

LOEWDIN ATOMIC CHARGES
----------------------
   0 S :    0.424739
   1 C :   -0.201750
   2 C :   -0.074036
   3 C :   -0.080340
   4 C :   -0.197765
   5 H :    0.046632
   6 C :   -0.045231
   7 H :    0.043551
   8 H :    0.037589
   9 C :   -0.053183
  10 H :    0.027980
  11 H :    0.027410
  12 C :   -0.069006
  13 H :    0.025145
  14 H :    0.031422
  15 H :    0.025736
  16 S :    0.434832
  17 C :   -0.211328
  18 C :   -0.079065
  19 C :   -0.061291
  20 C :   -0.210389
  21 H :    0.026459
  22 C :   -0.020145
  23 H :    0.038792
  24 H :    0.024915
  25 C :   -0.032608
  26 H :    0.023200
  27 H :    0.019503
  28 C :   -0.068755
  29 H :    0.021562
  30 H :    0.027314
  31 H :    0.026097
  32 H :    0.031232
  33 H :    0.040782

  Mayer bond orders larger than 0.100000
B(  0-S ,  1-C ) :   1.1303 B(  0-S ,  4-C ) :   1.1899 B(  1-C ,  2-C ) :   1.6202
B(  1-C , 32-H ) :   0.9695 B(  2-C ,  3-C ) :   1.2703 B(  2-C ,  6-C ) :   1.0004
B(  3-C ,  4-C ) :   1.5586 B(  3-C ,  5-H ) :   0.9739 B(  4-C , 20-C ) :   0.9708
B(  6-C ,  7-H ) :   0.9377 B(  6-C ,  8-H ) :   0.9391 B(  6-C ,  9-C ) :   1.0829
B(  9-C , 10-H ) :   0.9474 B(  9-C , 11-H ) :   0.9510 B(  9-C , 12-C ) :   1.0861
B( 12-C , 13-H ) :   0.9730 B( 12-C , 14-H ) :   0.9731 B( 12-C , 15-H ) :   0.9709
B( 16-S , 17-C ) :   1.1575 B( 16-S , 20-C ) :   1.1616 B( 17-C , 18-C ) :   1.6481
B( 17-C , 33-H ) :   0.9582 B( 18-C , 19-C ) :   1.1888 B( 18-C , 21-H ) :   0.9934
B( 19-C , 20-C ) :   1.6227 B( 19-C , 22-C ) :   1.0474 B( 22-C , 23-H ) :   0.9294
B( 22-C , 24-H ) :   0.9347 B( 22-C , 25-C ) :   1.0647 B( 25-C , 26-H ) :   0.9590
B( 25-C , 27-H ) :   0.9598 B( 25-C , 28-C ) :   1.0634 B( 28-C , 29-H ) :   0.9775
B( 28-C , 30-H ) :   0.9765 B( 28-C , 31-H ) :   0.9757

Dispersion correction           -0.014267499
FINAL SINGLE POINT ENERGY     -1339.875413586753

DIPOLE MOMENT
-------------
                                X             Y             Z
Electronic contribution:     23.29450      18.83762      -0.26659
Nuclear contribution   :    -23.83991     -19.18617       0.49821
                        -----------------------------------------
Total Dipole Moment    :     -0.54541      -0.34855       0.23161
                        -----------------------------------------
Magnitude (a.u.)       :      0.68746
Magnitude (Debye)      :      1.74739

Rotational constants in cm-1:     0.017987     0.009141     0.006680
Rotational constants in MHz :   539.233450   274.054385   200.248366

                             ****ORCA TERMINATED NORMALLY****
TOTAL RUN TIME: 0 days 0 hours 0 minutes 35 seconds 388 msec
