                         Program Version 4.2.1 -  RELEASE  -
|  1> ! wB97X-D3 SP def2-SVP
|  2> %pal
|  3> nprocs 16
|  4> end
|  5>
|  6> * xyz 0 1
|  7> S 	 13.5292 	 -12.6394 	 78.5331
|  8> C 	 12.841 	 -13.8102 	 79.6777
|  9> C 	 12.416 	 -14.9345 	 78.9434
| 10> C 	 12.4413 	 -14.6786 	 77.5342
| 11> C 	 13.1455 	 -13.5584 	 77.0801
| 12> H 	 12.0325 	 -15.2733 	 76.7408
| 13> C 	 11.847 	 -16.1989 	 79.5405
| 14> H 	 11.194 	 -16.3531 	 78.7294
| 15> H 	 11.3417 	 -15.9207 	 80.4483
| 16> C 	 12.8516 	 -17.4249 	 79.5754
| 17> H 	 13.2593 	 -17.6441 	 78.5437
| 18> H 	 13.7195 	 -17.2214 	 80.2012
| 19> C 	 12.2829 	 -18.7404 	 80.1024
| 20> H 	 11.6219 	 -19.3169 	 79.3341
| 21> H 	 13.2147 	 -19.1916 	 80.4522
| 22> H 	 11.6141 	 -18.3691 	 80.9126
| 23> S 	 12.5166 	 -11.3741 	 75.4643
| 24> C 	 12.8147 	 -11.4016 	 73.7554
| 25> C 	 13.0663 	 -12.685 	 73.3472
| 26> C 	 13.2761 	 -13.5667 	 74.4534
| 27> C 	 13.082 	 -13.0058 	 75.7279
| 28> H 	 13.3009 	 -13.0136 	 72.3254
| 29> C 	 13.7221 	 -14.9691 	 74.2179
| 30> H 	 14.2518 	 -15.4468 	 75.061
| 31> H 	 14.4544 	 -14.9834 	 73.4272
| 32> C 	 12.5831 	 -15.8429 	 73.7613
| 33> H 	 12.0851 	 -15.3987 	 72.9123
| 34> H 	 11.7674 	 -15.8822 	 74.5472
| 35> C 	 13.1028 	 -17.2969 	 73.6292
| 36> H 	 13.5575 	 -17.5068 	 72.6619
| 37> H 	 12.3391 	 -18.0189 	 73.6735
| 38> H 	 13.8285 	 -17.4837 	 74.4404
| 39> H 	 12.9343 	 -13.7106 	 80.7648
| 40> H 	 12.5457 	 -10.5684 	 73.1052
| 41> *
| 42>
| 43>                          ****END OF INPUT****

CARTESIAN COORDINATES (ANGSTROEM)
---------------------------------
  S     13.529200  -12.639400   78.533100
  C     12.841000  -13.810200   79.677700
  C     12.416000  -14.934500   78.943400
  C     12.441300  -14.678600   77.534200
  C     13.145500  -13.558400   77.080100
  H     12.032500  -15.273300   76.740800
  C     11.847000  -16.198900   79.540500
  H     11.194000  -16.353100   78.729400
  H     11.341700  -15.920700   80.448300
  C     12.851600  -17.424900   79.575400
  H     13.259300  -17.644100   78.543700
  H     13.719500  -17.221400   80.201200
  C     12.282900  -18.740400   80.102400
  H     11.621900  -19.316900   79.334100
  H     13.214700  -19.191600   80.452200
  H     11.614100  -18.369100   80.912600
  S     12.516600  -11.374100   75.464300
  C     12.814700  -11.401600   73.755400
  C     13.066300  -12.685000   73.347200
  C     13.276100  -13.566700   74.453400
  C     13.082000  -13.005800   75.727900
  H     13.300900  -13.013600   72.325400
  C     13.722100  -14.969100   74.217900
  H     14.251800  -15.446800   75.061000
  H     14.454400  -14.983400   73.427200
  C     12.583100  -15.842900   73.761300
  H     12.085100  -15.398700   72.912300
  H     11.767400  -15.882200   74.547200
  C     13.102800  -17.296900   73.629200
  H     13.557500  -17.506800   72.661900
  H     12.339100  -18.018900   73.673500
  H     13.828500  -17.483700   74.440400
  H     12.934300  -13.710600   80.764800
  H     12.545700  -10.568400   73.105200

 Total Charge           Charge          ....    0
 Multiplicity           Mult            ....    1
 Number of Electrons    NEL             ....  134
 Basis Dimension        Dim             ....  322

ORBITAL ENERGIES
----------------

  NO   OCC          E(Eh)            E(eV)
   0   2.0000     -88.964982     -2420.8602
   1   2.0000     -88.962758     -2420.7997
   2   2.0000     -10.334223      -281.2085
   3   2.0000     -10.330535      -281.1081
   4   2.0000     -10.323427      -280.9147
   5   2.0000     -10.319147      -280.7983
   6   2.0000     -10.307872      -280.4915
   7   2.0000     -10.301678      -280.3229
   8   2.0000     -10.296482      -280.1815
   9   2.0000     -10.296209      -280.1741
  10   2.0000     -10.294789      -280.1354
  11   2.0000     -10.292137      -280.0633
  12   2.0000     -10.289627      -279.9950
  13   2.0000     -10.289615      -279.9947
  14   2.0000     -10.285417      -279.8804
  15   2.0000     -10.277472      -279.6642
  16   2.0000      -8.078910      -219.8383
  17   2.0000      -8.077942      -219.8120
  18   2.0000      -6.037556      -164.2903
  19   2.0000      -6.036427      -164.2595
  20   2.0000      -6.033285      -164.1740
  21   2.0000      -6.032313      -164.1476
  22   2.0000      -6.029778      -164.0786
  23   2.0000      -6.028738      -164.0503
  24   2.0000      -1.006401       -27.3856
  25   2.0000      -0.984212       -26.7818
  26   2.0000      -0.916756       -24.9462
  27   2.0000      -0.911170       -24.7942
  28   2.0000      -0.872107       -23.7313
  29   2.0000      -0.850967       -23.1560
  30   2.0000      -0.847011       -23.0484
  31   2.0000      -0.816344       -22.2138
  32   2.0000      -0.780040       -21.2260
  33   2.0000      -0.770353       -20.9624
  34   2.0000      -0.705405       -19.1950
  35   2.0000      -0.698537       -19.0082
  36   2.0000      -0.691169       -18.8077
  37   2.0000      -0.663349       -18.0506
  38   2.0000      -0.643856       -17.5202
  39   2.0000      -0.619702       -16.8629
  40   2.0000      -0.604164       -16.4401
  41   2.0000      -0.567984       -15.4556
  42   2.0000      -0.565543       -15.3892
  43   2.0000      -0.558878       -15.2078
  44   2.0000      -0.533639       -14.5211
  45   2.0000      -0.525045       -14.2872
  46   2.0000      -0.519953       -14.1486
  47   2.0000      -0.517148       -14.0723
  48   2.0000      -0.509421       -13.8620
  49   2.0000      -0.507878       -13.8201
  50   2.0000      -0.492030       -13.3888
  51   2.0000      -0.478454       -13.0194
  52   2.0000      -0.469944       -12.7878
  53   2.0000      -0.463720       -12.6185
  54   2.0000      -0.461610       -12.5610
  55   2.0000      -0.449067       -12.2197
  56   2.0000      -0.448646       -12.2083
  57   2.0000      -0.435903       -11.8615
  58   2.0000      -0.434044       -11.8109
  59   2.0000      -0.420961       -11.4549
  60   2.0000      -0.418712       -11.3937
  61   2.0000      -0.409851       -11.1526
  62   2.0000      -0.404500       -11.0070
  63   2.0000      -0.352660        -9.5964
  64   2.0000      -0.328000        -8.9253
  65   2.0000      -0.324684        -8.8351
  66   2.0000      -0.292228        -7.9519
  67   0.0000       0.021647         0.5890
  68   0.0000       0.073367         1.9964
  69   0.0000       0.115413         3.1405
  70   0.0000       0.121655         3.3104
  71   0.0000       0.126765         3.4494

MULLIKEN ATOMIC CHARGES
-----------------------
   0 S :    0.088694
   1 C :   -0.131753
   2 C :   -0.096266
   3 C :    0.017418
   4 C :   -0.137497
   5 H :   -0.006507
   6 C :    0.107599
   7 H :    0.016492
   8 H :    0.028328
   9 C :   -0.109491
  10 H :    0.034035
  11 H :    0.030591
  12 C :   -0.062734
  13 H :    0.057780
  14 H :    0.048682
  15 H :    0.034233
  16 S :    0.100940
  17 C :   -0.092712
  18 C :   -0.015730
  19 C :   -0.066541
  20 C :   -0.122946
  21 H :    0.028570
  22 C :    0.044388
  23 H :    0.029321
  24 H :    0.016201
  25 C :   -0.102195
  26 H :    0.025419
  27 H :    0.031371
  28 C :   -0.010845
  29 H :    0.029648
  30 H :    0.017831
  31 H :    0.031762
  32 H :    0.065978
  33 H :    0.069937
Sum of atomic charges:   -0.0000000

LOEWDIN ATOMIC CHARGES
----------------------
   0 S :    0.393476
   1 C :   -0.190929
   2 C :   -0.061191
   3 C :   -0.061322
   4 C :   -0.197265
   5 H :    0.023844
   6 C :   -0.031641
   7 H :    0.030554
   8 H :    0.029705
   9 C :   -0.043122
  10 H :    0.028946
  11 H :    0.021490
  12 C :   -0.076870
  13 H :    0.036255
  14 H :    0.033621
  15 H :    0.028038
  16 S :    0.415281
  17 C :   -0.186284
  18 C :   -0.075592
  19 C :   -0.056954
  20 C :   -0.201057
  21 H :    0.035554
  22 C :   -0.038696
  23 H :    0.030925
  24 H :    0.027207
  25 C :   -0.039197
  26 H :    0.021193
  27 H :    0.023461
  28 C :   -0.061323
  29 H :    0.025600
  30 H :    0.017621
  31 H :    0.029584
  32 H :    0.034845
  33 H :    0.034243

  Mayer bond orders larger than 0.100000
B(  0-S ,  1-C ) :   1.1507 B(  0-S ,  4-C ) :   1.1465 B(  1-C ,  2-C ) :   1.5597
B(  1-C ,  4-C ) :   0.1027 B(  1-C , 32-H ) :   0.9709 B(  2-C ,  3-C ) :   1.2669
B(  2-C ,  6-C ) :   1.0062 B(  3-C ,  4-C ) :   1.5548 B(  3-C ,  5-H ) :   0.9833
B(  4-C , 20-C ) :   1.0541 B(  6-C ,  7-H ) :   0.9381 B(  6-C ,  8-H ) :   0.9417
B(  6-C ,  9-C ) :   1.0538 B(  9-C , 10-H ) :   0.9544 B(  9-C , 11-H ) :   0.9661
B(  9-C , 12-C ) :   1.0641 B( 12-C , 13-H ) :   0.9751 B( 12-C , 14-H ) :   0.9773
B( 12-C , 15-H ) :   0.9750 B( 16-S , 17-C ) :   1.1728 B( 16-S , 20-C ) :   1.1361
B( 17-C , 18-C ) :   1.5707 B( 17-C , 33-H ) :   0.9659 B( 18-C , 19-C ) :   1.2764
B( 18-C , 21-H ) :   0.9828 B( 19-C , 20-C ) :   1.5715 B( 19-C , 22-C ) :   1.0574
B( 22-C , 23-H ) :   0.9363 B( 22-C , 24-H ) :   0.9341 B( 22-C , 25-C ) :   1.0553
B( 25-C , 26-H ) :   0.9547 B( 25-C , 27-H ) :   0.9535 B( 25-C , 28-C ) :   1.0683
B( 28-C , 29-H ) :   0.9742 B( 28-C , 30-H ) :   0.9753 B( 28-C , 31-H ) :   0.9724

Dispersion correction           -0.013882949
FINAL SINGLE POINT ENERGY     -1339.857794204982

DIPOLE MOMENT
-------------
                                X             Y             Z
Electronic contribution:      2.20030      32.44523       1.15691
Nuclear contribution   :     -2.35759     -33.13729      -1.34195
                        -----------------------------------------
Total Dipole Moment    :     -0.15729      -0.69206      -0.18503
                        -----------------------------------------
Magnitude (a.u.)       :      0.73343
Magnitude (Debye)      :      1.86424

Rotational constants in cm-1:     0.017701     0.009034     0.006269
Rotational constants in MHz :   530.671617   270.817677   187.938375

                             ****ORCA TERMINATED NORMALLY****
TOTAL RUN TIME: 0 days 0 hours 0 minutes 30 seconds 274 msec
