                         Program Version 4.2.1 -  RELEASE  -
|  1> ! wB97X-D3 SP def2-SVP
|  2> %pal
|  3> nprocs 16
|  4> end
|  5>
|  6> * xyz 0 1
|  7> S 	 -35.1384 	 69.2008 	 172.262
|  8> C 	 -34.1126 	 70.5803 	 172.692
|  9> C 	 -34.9017 	 71.7204 	 173.016
| 10> C 	 -36.328 	 71.3376 	 172.952
| 11> C 	 -36.6689 	 70.07 	 172.514
| 12> H 	 -37.1619 	 72.0351 	 173.053
| 13> C 	 -34.3971 	 73.127 	 173.3
| 14> H 	 -34.8806 	 73.7945 	 172.533
| 15> H 	 -33.353 	 73.0435 	 173.159
| 16> C 	 -34.6453 	 73.7707 	 174.676
| 17> H 	 -35.7119 	 73.9735 	 174.655
| 18> H 	 -34.3534 	 73.0896 	 175.483
| 19> C 	 -34.013 	 75.2123 	 174.865
| 20> H 	 -32.9265 	 75.2694 	 174.73
| 21> H 	 -34.4691 	 75.8768 	 174.129
| 22> H 	 -34.3689 	 75.5465 	 175.849
| 23> S 	 -39.323 	 70.229 	 171.891
| 24> C 	 -40.3752 	 68.9008 	 172.14
| 25> C 	 -39.7347 	 67.76 	 172.601
| 26> C 	 -38.3314 	 67.9843 	 172.887
| 27> C 	 -37.965 	 69.348 	 172.566
| 28> H 	 -40.3227 	 66.9204 	 172.808
| 29> C 	 -37.3913 	 66.8627 	 173.278
| 30> H 	 -36.5329 	 67.2403 	 173.811
| 31> H 	 -36.9359 	 66.3711 	 172.41
| 32> C 	 -37.9405 	 65.8425 	 174.32
| 33> H 	 -37.1736 	 65.0842 	 174.61
| 34> H 	 -38.8404 	 65.3247 	 173.978
| 35> C 	 -38.2845 	 66.5454 	 175.688
| 36> H 	 -37.5611 	 67.2398 	 175.939
| 37> H 	 -38.5444 	 65.8793 	 176.538
| 38> H 	 -39.2009 	 67.0471 	 175.511
| 39> H 	 -33.0469 	 70.5574 	 172.674
| 40> H 	 -41.392 	 69.0409 	 171.994
| 41> *
| 42>
| 43>                          ****END OF INPUT****

CARTESIAN COORDINATES (ANGSTROEM)
---------------------------------
  S    -35.138400   69.200800  172.262000
  C    -34.112600   70.580300  172.692000
  C    -34.901700   71.720400  173.016000
  C    -36.328000   71.337600  172.952000
  C    -36.668900   70.070000  172.514000
  H    -37.161900   72.035100  173.053000
  C    -34.397100   73.127000  173.300000
  H    -34.880600   73.794500  172.533000
  H    -33.353000   73.043500  173.159000
  C    -34.645300   73.770700  174.676000
  H    -35.711900   73.973500  174.655000
  H    -34.353400   73.089600  175.483000
  C    -34.013000   75.212300  174.865000
  H    -32.926500   75.269400  174.730000
  H    -34.469100   75.876800  174.129000
  H    -34.368900   75.546500  175.849000
  S    -39.323000   70.229000  171.891000
  C    -40.375200   68.900800  172.140000
  C    -39.734700   67.760000  172.601000
  C    -38.331400   67.984300  172.887000
  C    -37.965000   69.348000  172.566000
  H    -40.322700   66.920400  172.808000
  C    -37.391300   66.862700  173.278000
  H    -36.532900   67.240300  173.811000
  H    -36.935900   66.371100  172.410000
  C    -37.940500   65.842500  174.320000
  H    -37.173600   65.084200  174.610000
  H    -38.840400   65.324700  173.978000
  C    -38.284500   66.545400  175.688000
  H    -37.561100   67.239800  175.939000
  H    -38.544400   65.879300  176.538000
  H    -39.200900   67.047100  175.511000
  H    -33.046900   70.557400  172.674000
  H    -41.392000   69.040900  171.994000

 Total Charge           Charge          ....    0
 Multiplicity           Mult            ....    1
 Number of Electrons    NEL             ....  134
 Basis Dimension        Dim             ....  322

ORBITAL ENERGIES
----------------

  NO   OCC          E(Eh)            E(eV)
   0   2.0000     -88.968807     -2420.9643
   1   2.0000     -88.964827     -2420.8560
   2   2.0000     -10.338365      -281.3212
   3   2.0000     -10.335962      -281.2558
   4   2.0000     -10.322598      -280.8922
   5   2.0000     -10.317640      -280.7573
   6   2.0000     -10.313931      -280.6563
   7   2.0000     -10.313511      -280.6449
   8   2.0000     -10.299029      -280.2508
   9   2.0000     -10.296248      -280.1752
  10   2.0000     -10.295734      -280.1612
  11   2.0000     -10.292809      -280.0816
  12   2.0000     -10.291423      -280.0438
  13   2.0000     -10.291204      -280.0379
  14   2.0000     -10.286152      -279.9004
  15   2.0000     -10.266593      -279.3682
  16   2.0000      -8.084115      -219.9800
  17   2.0000      -8.078379      -219.8239
  18   2.0000      -6.042415      -164.4225
  19   2.0000      -6.038503      -164.3160
  20   2.0000      -6.037066      -164.2769
  21   2.0000      -6.035123      -164.2241
  22   2.0000      -6.032908      -164.1638
  23   2.0000      -6.029155      -164.0616
  24   2.0000      -1.000404       -27.2224
  25   2.0000      -0.976741       -26.5785
  26   2.0000      -0.907361       -24.6905
  27   2.0000      -0.905579       -24.6421
  28   2.0000      -0.866869       -23.5887
  29   2.0000      -0.846874       -23.0446
  30   2.0000      -0.838046       -22.8044
  31   2.0000      -0.814885       -22.1741
  32   2.0000      -0.783422       -21.3180
  33   2.0000      -0.772085       -21.0095
  34   2.0000      -0.706891       -19.2355
  35   2.0000      -0.700344       -19.0573
  36   2.0000      -0.688712       -18.7408
  37   2.0000      -0.662381       -18.0243
  38   2.0000      -0.636266       -17.3137
  39   2.0000      -0.619696       -16.8628
  40   2.0000      -0.604242       -16.4423
  41   2.0000      -0.574067       -15.6212
  42   2.0000      -0.562513       -15.3068
  43   2.0000      -0.552545       -15.0355
  44   2.0000      -0.536138       -14.5891
  45   2.0000      -0.524586       -14.2747
  46   2.0000      -0.519731       -14.1426
  47   2.0000      -0.506370       -13.7790
  48   2.0000      -0.502608       -13.6767
  49   2.0000      -0.495025       -13.4703
  50   2.0000      -0.487857       -13.2753
  51   2.0000      -0.484289       -13.1782
  52   2.0000      -0.471080       -12.8187
  53   2.0000      -0.466310       -12.6889
  54   2.0000      -0.457399       -12.4465
  55   2.0000      -0.446656       -12.1541
  56   2.0000      -0.444399       -12.0927
  57   2.0000      -0.437873       -11.9151
  58   2.0000      -0.431643       -11.7456
  59   2.0000      -0.425928       -11.5901
  60   2.0000      -0.420044       -11.4300
  61   2.0000      -0.414144       -11.2694
  62   2.0000      -0.409107       -11.1324
  63   2.0000      -0.352800        -9.6002
  64   2.0000      -0.332920        -9.0592
  65   2.0000      -0.323227        -8.7955
  66   2.0000      -0.288880        -7.8608
  67   0.0000       0.022765         0.6195
  68   0.0000       0.074426         2.0252
  69   0.0000       0.110821         3.0156
  70   0.0000       0.113269         3.0822
  71   0.0000       0.120919         3.2904

MULLIKEN ATOMIC CHARGES
-----------------------
   0 S :    0.080792
   1 C :   -0.110306
   2 C :   -0.098937
   3 C :    0.012455
   4 C :   -0.122303
   5 H :    0.015186
   6 C :    0.072512
   7 H :    0.045337
   8 H :    0.004249
   9 C :   -0.092364
  10 H :    0.030910
  11 H :    0.043740
  12 C :   -0.054914
  13 H :    0.042773
  14 H :    0.026479
  15 H :    0.042700
  16 S :    0.106745
  17 C :   -0.074295
  18 C :   -0.010843
  19 C :   -0.045421
  20 C :   -0.145298
  21 H :    0.006414
  22 C :    0.060894
  23 H :    0.023453
  24 H :    0.054541
  25 C :   -0.114794
  26 H :    0.042422
  27 H :    0.032123
  28 C :   -0.037040
  29 H :    0.023598
  30 H :    0.038172
  31 H :    0.017901
  32 H :    0.045155
  33 H :    0.037966
Sum of atomic charges:   -0.0000000

LOEWDIN ATOMIC CHARGES
----------------------
   0 S :    0.391798
   1 C :   -0.186122
   2 C :   -0.057941
   3 C :   -0.069888
   4 C :   -0.191437
   5 H :    0.024931
   6 C :   -0.035365
   7 H :    0.041372
   8 H :    0.021322
   9 C :   -0.038852
  10 H :    0.024552
  11 H :    0.025865
  12 C :   -0.063694
  13 H :    0.024373
  14 H :    0.024328
  15 H :    0.031107
  16 S :    0.430113
  17 C :   -0.181080
  18 C :   -0.062794
  19 C :   -0.048282
  20 C :   -0.196681
  21 H :    0.024296
  22 C :   -0.042523
  23 H :    0.024853
  24 H :    0.037919
  25 C :   -0.039085
  26 H :    0.029719
  27 H :    0.016872
  28 C :   -0.061573
  29 H :    0.014811
  30 H :    0.030852
  31 H :    0.019543
  32 H :    0.023202
  33 H :    0.013488

  Mayer bond orders larger than 0.100000
B(  0-S ,  1-C ) :   1.1480 B(  0-S ,  4-C ) :   1.1254 B(  1-C ,  2-C ) :   1.5945
B(  1-C , 32-H ) :   0.9698 B(  2-C ,  3-C ) :   1.2317 B(  2-C ,  6-C ) :   1.0352
B(  3-C ,  4-C ) :   1.6013 B(  3-C ,  5-H ) :   0.9798 B(  4-C , 20-C ) :   1.0214
B(  6-C ,  7-H ) :   0.9378 B(  6-C ,  8-H ) :   0.9364 B(  6-C ,  9-C ) :   1.0628
B(  9-C , 10-H ) :   0.9562 B(  9-C , 11-H ) :   0.9600 B(  9-C , 12-C ) :   1.0752
B( 12-C , 13-H ) :   0.9789 B( 12-C , 14-H ) :   0.9750 B( 12-C , 15-H ) :   0.9760
B( 16-S , 17-C ) :   1.1781 B( 16-S , 20-C ) :   1.1654 B( 17-C , 18-C ) :   1.5814
B( 17-C , 33-H ) :   0.9760 B( 18-C , 19-C ) :   1.2463 B( 18-C , 21-H ) :   1.0002
B( 19-C , 20-C ) :   1.5477 B( 19-C , 22-C ) :   1.0382 B( 22-C , 23-H ) :   0.9310
B( 22-C , 24-H ) :   0.9375 B( 22-C , 25-C ) :   1.0621 B( 25-C , 26-H ) :   0.9613
B( 25-C , 27-H ) :   0.9594 B( 25-C , 28-C ) :   1.0654 B( 28-C , 29-H ) :   0.9777
B( 28-C , 30-H ) :   0.9762 B( 28-C , 31-H ) :   0.9738

Dispersion correction           -0.013691812
FINAL SINGLE POINT ENERGY     -1339.869955060955

DIPOLE MOMENT
-------------
                                X             Y             Z
Electronic contribution:     -6.69739      -4.73638     -16.61893
Nuclear contribution   :      6.68669       4.90431      16.88774
                        -----------------------------------------
Total Dipole Moment    :     -0.01069       0.16794       0.26882
                        -----------------------------------------
Magnitude (a.u.)       :      0.31714
Magnitude (Debye)      :      0.80611

Rotational constants in cm-1:     0.021176     0.006927     0.006243
Rotational constants in MHz :   634.840995   207.662307   187.148014

                             ****ORCA TERMINATED NORMALLY****
TOTAL RUN TIME: 0 days 0 hours 0 minutes 32 seconds 605 msec
