                         Program Version 4.2.1 -  RELEASE  -
|  1> ! wB97X-D3 SP def2-SVP
|  2> %pal
|  3> nprocs 16
|  4> end
|  5>
|  6> * xyz 0 1
|  7> S 	 -32.0406 	 55.8702 	 105.979
|  8> C 	 -30.4572 	 55.5769 	 105.303
|  9> C 	 -29.5475 	 56.5057 	 105.723
| 10> C 	 -30.1283 	 57.3881 	 106.689
| 11> C 	 -31.4728 	 57.1062 	 107.003
| 12> H 	 -29.6606 	 58.3226 	 107.065
| 13> C 	 -28.197 	 56.7748 	 105.083
| 14> H 	 -28.2192 	 57.7862 	 104.709
| 15> H 	 -28.0649 	 56.0631 	 104.237
| 16> C 	 -27.0685 	 56.6845 	 106.123
| 17> H 	 -27.1935 	 57.3394 	 107.004
| 18> H 	 -27.1709 	 55.6604 	 106.566
| 19> C 	 -25.6396 	 56.8583 	 105.546
| 20> H 	 -25.6591 	 57.8773 	 105.269
| 21> H 	 -24.8391 	 56.8473 	 106.245
| 22> H 	 -25.447 	 56.0956 	 104.782
| 23> S 	 -32.4128 	 59.5805 	 107.42
| 24> C 	 -33.4954 	 59.9304 	 108.718
| 25> C 	 -34.0023 	 58.7975 	 109.243
| 26> C 	 -33.363 	 57.6421 	 108.735
| 27> C 	 -32.3715 	 57.918 	 107.826
| 28> H 	 -34.6667 	 58.8665 	 110.09
| 29> C 	 -33.636 	 56.2403 	 109.364
| 30> H 	 -33.7993 	 56.4812 	 110.437
| 31> H 	 -32.8749 	 55.4064 	 109.377
| 32> C 	 -34.889 	 55.502 	 108.799
| 33> H 	 -34.7488 	 55.243 	 107.768
| 34> H 	 -35.602 	 56.4161 	 108.663
| 35> C 	 -35.5961 	 54.318 	 109.496
| 36> H 	 -34.9358 	 53.5478 	 109.853
| 37> H 	 -36.3911 	 53.8901 	 108.931
| 38> H 	 -36.0867 	 54.7227 	 110.389
| 39> H 	 -30.2308 	 55.0071 	 104.359
| 40> H 	 -33.8694 	 60.9272 	 108.95
| 41> *
| 42>
| 43>                          ****END OF INPUT****

CARTESIAN COORDINATES (ANGSTROEM)
---------------------------------
  S    -32.040600   55.870200  105.979000
  C    -30.457200   55.576900  105.303000
  C    -29.547500   56.505700  105.723000
  C    -30.128300   57.388100  106.689000
  C    -31.472800   57.106200  107.003000
  H    -29.660600   58.322600  107.065000
  C    -28.197000   56.774800  105.083000
  H    -28.219200   57.786200  104.709000
  H    -28.064900   56.063100  104.237000
  C    -27.068500   56.684500  106.123000
  H    -27.193500   57.339400  107.004000
  H    -27.170900   55.660400  106.566000
  C    -25.639600   56.858300  105.546000
  H    -25.659100   57.877300  105.269000
  H    -24.839100   56.847300  106.245000
  H    -25.447000   56.095600  104.782000
  S    -32.412800   59.580500  107.420000
  C    -33.495400   59.930400  108.718000
  C    -34.002300   58.797500  109.243000
  C    -33.363000   57.642100  108.735000
  C    -32.371500   57.918000  107.826000
  H    -34.666700   58.866500  110.090000
  C    -33.636000   56.240300  109.364000
  H    -33.799300   56.481200  110.437000
  H    -32.874900   55.406400  109.377000
  C    -34.889000   55.502000  108.799000
  H    -34.748800   55.243000  107.768000
  H    -35.602000   56.416100  108.663000
  C    -35.596100   54.318000  109.496000
  H    -34.935800   53.547800  109.853000
  H    -36.391100   53.890100  108.931000
  H    -36.086700   54.722700  110.389000
  H    -30.230800   55.007100  104.359000
  H    -33.869400   60.927200  108.950000

 Total Charge           Charge          ....    0
 Multiplicity           Mult            ....    1
 Number of Electrons    NEL             ....  134
 Basis Dimension        Dim             ....  322

ORBITAL ENERGIES
----------------

  NO   OCC          E(Eh)            E(eV)
   0   2.0000     -88.968778     -2420.9635
   1   2.0000     -88.964051     -2420.8349
   2   2.0000     -10.330339      -281.1028
   3   2.0000     -10.325057      -280.9591
   4   2.0000     -10.314375      -280.6684
   5   2.0000     -10.313721      -280.6506
   6   2.0000     -10.306596      -280.4567
   7   2.0000     -10.300053      -280.2787
   8   2.0000     -10.299852      -280.2732
   9   2.0000     -10.297603      -280.2120
  10   2.0000     -10.297389      -280.2062
  11   2.0000     -10.291851      -280.0555
  12   2.0000     -10.289615      -279.9947
  13   2.0000     -10.286896      -279.9207
  14   2.0000     -10.275540      -279.6117
  15   2.0000     -10.274121      -279.5730
  16   2.0000      -8.083869      -219.9733
  17   2.0000      -8.080176      -219.8728
  18   2.0000      -6.042310      -164.4196
  19   2.0000      -6.038541      -164.3171
  20   2.0000      -6.038304      -164.3106
  21   2.0000      -6.034686      -164.2122
  22   2.0000      -6.034517      -164.2076
  23   2.0000      -6.030951      -164.1105
  24   2.0000      -1.018113       -27.7043
  25   2.0000      -0.994403       -27.0591
  26   2.0000      -0.913425       -24.8555
  27   2.0000      -0.896856       -24.4047
  28   2.0000      -0.875177       -23.8148
  29   2.0000      -0.851943       -23.1825
  30   2.0000      -0.844451       -22.9787
  31   2.0000      -0.814790       -22.1716
  32   2.0000      -0.786362       -21.3980
  33   2.0000      -0.775899       -21.1133
  34   2.0000      -0.708154       -19.2698
  35   2.0000      -0.691861       -18.8265
  36   2.0000      -0.686337       -18.6762
  37   2.0000      -0.668083       -18.1795
  38   2.0000      -0.633013       -17.2252
  39   2.0000      -0.619141       -16.8477
  40   2.0000      -0.600691       -16.3456
  41   2.0000      -0.574047       -15.6206
  42   2.0000      -0.566164       -15.4061
  43   2.0000      -0.545806       -14.8521
  44   2.0000      -0.524057       -14.2603
  45   2.0000      -0.520767       -14.1708
  46   2.0000      -0.517194       -14.0736
  47   2.0000      -0.512044       -13.9334
  48   2.0000      -0.508174       -13.8281
  49   2.0000      -0.504387       -13.7251
  50   2.0000      -0.496536       -13.5114
  51   2.0000      -0.479445       -13.0464
  52   2.0000      -0.471530       -12.8310
  53   2.0000      -0.467184       -12.7127
  54   2.0000      -0.463043       -12.6000
  55   2.0000      -0.455154       -12.3854
  56   2.0000      -0.449840       -12.2408
  57   2.0000      -0.432731       -11.7752
  58   2.0000      -0.430794       -11.7225
  59   2.0000      -0.422969       -11.5096
  60   2.0000      -0.418444       -11.3865
  61   2.0000      -0.411598       -11.2002
  62   2.0000      -0.392668       -10.6850
  63   2.0000      -0.349335        -9.5059
  64   2.0000      -0.333255        -9.0683
  65   2.0000      -0.329159        -8.9569
  66   2.0000      -0.299240        -8.1427
  67   0.0000       0.031600         0.8599
  68   0.0000       0.073572         2.0020
  69   0.0000       0.108398         2.9497
  70   0.0000       0.119797         3.2598
  71   0.0000       0.125805         3.4233

MULLIKEN ATOMIC CHARGES
-----------------------
   0 S :    0.126802
   1 C :   -0.134993
   2 C :   -0.100343
   3 C :   -0.006560
   4 C :   -0.130323
   5 H :    0.027121
   6 C :    0.094800
   7 H :    0.033094
   8 H :    0.023078
   9 C :   -0.146030
  10 H :    0.038287
  11 H :    0.030709
  12 C :    0.001482
  13 H :    0.016947
  14 H :    0.022839
  15 H :    0.040722
  16 S :    0.110690
  17 C :   -0.091562
  18 C :   -0.027764
  19 C :   -0.021130
  20 C :   -0.152898
  21 H :    0.022608
  22 C :    0.028287
  23 H :    0.026366
  24 H :    0.044544
  25 C :   -0.124195
  26 H :    0.019905
  27 H :    0.021512
  28 C :   -0.004832
  29 H :    0.031368
  30 H :    0.033571
  31 H :    0.021944
  32 H :    0.066288
  33 H :    0.057664
Sum of atomic charges:   -0.0000000

LOEWDIN ATOMIC CHARGES
----------------------
   0 S :    0.439958
   1 C :   -0.215898
   2 C :   -0.064979
   3 C :   -0.071159
   4 C :   -0.212369
   5 H :    0.031964
   6 C :   -0.024564
   7 H :    0.030561
   8 H :    0.032405
   9 C :   -0.047882
  10 H :    0.025467
  11 H :    0.024623
  12 C :   -0.062098
  13 H :    0.021801
  14 H :    0.022512
  15 H :    0.029000
  16 S :    0.434283
  17 C :   -0.188058
  18 C :   -0.070947
  19 C :   -0.061130
  20 C :   -0.205291
  21 H :    0.034516
  22 C :   -0.038943
  23 H :    0.030403
  24 H :    0.034090
  25 C :   -0.056269
  26 H :    0.012967
  27 H :    0.026858
  28 C :   -0.063037
  29 H :    0.023738
  30 H :    0.027611
  31 H :    0.026752
  32 H :    0.041341
  33 H :    0.031775

  Mayer bond orders larger than 0.100000
B(  0-S ,  1-C ) :   1.1418 B(  0-S ,  4-C ) :   1.1808 B(  1-C ,  2-C ) :   1.6182
B(  1-C , 32-H ) :   0.9528 B(  2-C ,  3-C ) :   1.2546 B(  2-C ,  6-C ) :   1.0275
B(  3-C ,  4-C ) :   1.5383 B(  3-C ,  5-H ) :   0.9892 B(  4-C , 20-C ) :   1.0288
B(  6-C ,  7-H ) :   0.9372 B(  6-C ,  8-H ) :   0.9419 B(  6-C ,  9-C ) :   1.0448
B(  9-C , 10-H ) :   0.9603 B(  9-C , 11-H ) :   0.9578 B(  9-C , 12-C ) :   1.0785
B( 12-C , 13-H ) :   0.9725 B( 12-C , 14-H ) :   0.9737 B( 12-C , 15-H ) :   0.9758
B( 16-S , 17-C ) :   1.1584 B( 16-S , 20-C ) :   1.1582 B( 17-C , 18-C ) :   1.6184
B( 17-C , 33-H ) :   0.9658 B( 18-C , 19-C ) :   1.2402 B( 18-C , 21-H ) :   0.9903
B( 19-C , 20-C ) :   1.6047 B( 19-C , 22-C ) :   1.0222 B( 22-C , 23-H ) :   0.9437
B( 22-C , 24-H ) :   0.9511 B( 22-C , 25-C ) :   1.0404 B( 25-C , 26-H ) :   0.9554
B( 25-C , 27-H ) :   0.9589 B( 25-C , 28-C ) :   1.0733 B( 28-C , 29-H ) :   0.9751
B( 28-C , 30-H ) :   0.9727 B( 28-C , 31-H ) :   0.9741

Dispersion correction           -0.013679542
FINAL SINGLE POINT ENERGY     -1339.868088627252

DIPOLE MOMENT
-------------
                                X             Y             Z
Electronic contribution:     -8.67750      10.95694      -4.28617
Nuclear contribution   :      8.81998     -10.82557       4.31839
                        -----------------------------------------
Total Dipole Moment    :      0.14248       0.13137       0.03222
                        -----------------------------------------
Magnitude (a.u.)       :      0.19646
Magnitude (Debye)      :      0.49936

Rotational constants in cm-1:     0.021565     0.007300     0.006033
Rotational constants in MHz :   646.503593   218.858207   180.858823

                             ****ORCA TERMINATED NORMALLY****
TOTAL RUN TIME: 0 days 0 hours 0 minutes 28 seconds 512 msec
