                         Program Version 4.2.1 -  RELEASE  -
|  1> ! wB97X-D3 SP def2-SVP
|  2> %pal
|  3> nprocs 16
|  4> end
|  5>
|  6> * xyz 0 1
|  7> S 	 40.6255 	 11.9249 	 83.0321
|  8> C 	 41.5637 	 11.2551 	 81.7586
|  9> C 	 41.7537 	 9.89547 	 81.9556
| 10> C 	 41.1979 	 9.45247 	 83.2231
| 11> C 	 40.6605 	 10.504 	 84.0039
| 12> H 	 41.2158 	 8.4372 	 83.722
| 13> C 	 42.5592 	 8.92662 	 81.1247
| 14> H 	 42.6328 	 9.50359 	 80.226
| 15> H 	 42.0703 	 7.97741 	 80.9759
| 16> C 	 44.0163 	 8.78857 	 81.5389
| 17> H 	 44.016 	 8.30419 	 82.5805
| 18> H 	 44.5572 	 7.96705 	 81.0416
| 19> C 	 44.8606 	 10.2191 	 81.4698
| 20> H 	 44.5933 	 10.7697 	 82.3339
| 21> H 	 45.854 	 10.014 	 81.5438
| 22> H 	 44.5803 	 10.6681 	 80.5087
| 23> S 	 38.6491 	 11.1833 	 85.7386
| 24> C 	 38.5986 	 10.2979 	 87.2749
| 25> C 	 39.8115 	 9.6754 	 87.5678
| 26> C 	 40.6953 	 9.76377 	 86.4817
| 27> C 	 40.186 	 10.4188 	 85.3657
| 28> H 	 40.0589 	 9.05203 	 88.4294
| 29> C 	 42.0183 	 9.02775 	 86.4435
| 30> H 	 42.63 	 9.54436 	 85.702
| 31> H 	 41.8022 	 8.05213 	 85.9608
| 32> C 	 42.9542 	 9.00309 	 87.6853
| 33> H 	 42.5136 	 8.41858 	 88.5086
| 34> H 	 43.0004 	 10.0051 	 88.0887
| 35> C 	 44.4019 	 8.55535 	 87.3298
| 36> H 	 44.5556 	 7.48021 	 86.91
| 37> H 	 44.9748 	 8.52651 	 88.2357
| 38> H 	 44.8374 	 9.31961 	 86.6679
| 39> H 	 41.9816 	 11.7741 	 80.8969
| 40> H 	 37.7259 	 10.2245 	 87.9436
| 41> *
| 42>
| 43>                          ****END OF INPUT****

CARTESIAN COORDINATES (ANGSTROEM)
---------------------------------
  S     40.625500   11.924900   83.032100
  C     41.563700   11.255100   81.758600
  C     41.753700    9.895470   81.955600
  C     41.197900    9.452470   83.223100
  C     40.660500   10.504000   84.003900
  H     41.215800    8.437200   83.722000
  C     42.559200    8.926620   81.124700
  H     42.632800    9.503590   80.226000
  H     42.070300    7.977410   80.975900
  C     44.016300    8.788570   81.538900
  H     44.016000    8.304190   82.580500
  H     44.557200    7.967050   81.041600
  C     44.860600   10.219100   81.469800
  H     44.593300   10.769700   82.333900
  H     45.854000   10.014000   81.543800
  H     44.580300   10.668100   80.508700
  S     38.649100   11.183300   85.738600
  C     38.598600   10.297900   87.274900
  C     39.811500    9.675400   87.567800
  C     40.695300    9.763770   86.481700
  C     40.186000   10.418800   85.365700
  H     40.058900    9.052030   88.429400
  C     42.018300    9.027750   86.443500
  H     42.630000    9.544360   85.702000
  H     41.802200    8.052130   85.960800
  C     42.954200    9.003090   87.685300
  H     42.513600    8.418580   88.508600
  H     43.000400   10.005100   88.088700
  C     44.401900    8.555350   87.329800
  H     44.555600    7.480210   86.910000
  H     44.974800    8.526510   88.235700
  H     44.837400    9.319610   86.667900
  H     41.981600   11.774100   80.896900
  H     37.725900   10.224500   87.943600

 Total Charge           Charge          ....    0
 Multiplicity           Mult            ....    1
 Number of Electrons    NEL             ....  134
 Basis Dimension        Dim             ....  322

ORBITAL ENERGIES
----------------

  NO   OCC          E(Eh)            E(eV)
   0   2.0000     -88.967786     -2420.9365
   1   2.0000     -88.966053     -2420.8894
   2   2.0000     -10.328563      -281.0545
   3   2.0000     -10.325208      -280.9632
   4   2.0000     -10.325045      -280.9588
   5   2.0000     -10.314386      -280.6687
   6   2.0000     -10.302946      -280.3574
   7   2.0000     -10.301031      -280.3053
   8   2.0000     -10.299082      -280.2523
   9   2.0000     -10.297369      -280.2057
  10   2.0000     -10.296338      -280.1776
  11   2.0000     -10.294124      -280.1174
  12   2.0000     -10.291188      -280.0375
  13   2.0000     -10.289385      -279.9884
  14   2.0000     -10.288240      -279.9572
  15   2.0000     -10.278750      -279.6990
  16   2.0000      -8.082206      -219.9280
  17   2.0000      -8.081672      -219.9135
  18   2.0000      -6.040705      -164.3759
  19   2.0000      -6.040182      -164.3617
  20   2.0000      -6.036878      -164.2718
  21   2.0000      -6.035949      -164.2465
  22   2.0000      -6.032873      -164.1628
  23   2.0000      -6.032484      -164.1522
  24   2.0000      -1.008454       -27.4414
  25   2.0000      -0.985535       -26.8178
  26   2.0000      -0.910099       -24.7650
  27   2.0000      -0.904311       -24.6075
  28   2.0000      -0.867739       -23.6124
  29   2.0000      -0.852472       -23.1969
  30   2.0000      -0.837074       -22.7779
  31   2.0000      -0.809742       -22.0342
  32   2.0000      -0.786005       -21.3883
  33   2.0000      -0.771224       -20.9861
  34   2.0000      -0.710311       -19.3286
  35   2.0000      -0.701305       -19.0835
  36   2.0000      -0.696709       -18.9584
  37   2.0000      -0.659198       -17.9377
  38   2.0000      -0.637853       -17.3569
  39   2.0000      -0.612780       -16.6746
  40   2.0000      -0.594408       -16.1747
  41   2.0000      -0.566954       -15.4276
  42   2.0000      -0.564875       -15.3710
  43   2.0000      -0.554744       -15.0954
  44   2.0000      -0.537019       -14.6130
  45   2.0000      -0.519665       -14.1408
  46   2.0000      -0.517403       -14.0792
  47   2.0000      -0.513297       -13.9675
  48   2.0000      -0.504749       -13.7349
  49   2.0000      -0.499561       -13.5938
  50   2.0000      -0.486043       -13.2259
  51   2.0000      -0.481465       -13.1013
  52   2.0000      -0.471447       -12.8287
  53   2.0000      -0.464703       -12.6452
  54   2.0000      -0.459393       -12.5007
  55   2.0000      -0.456777       -12.4295
  56   2.0000      -0.449271       -12.2253
  57   2.0000      -0.434980       -11.8364
  58   2.0000      -0.429266       -11.6809
  59   2.0000      -0.424474       -11.5505
  60   2.0000      -0.420899       -11.4532
  61   2.0000      -0.414616       -11.2823
  62   2.0000      -0.403829       -10.9888
  63   2.0000      -0.351407        -9.5623
  64   2.0000      -0.332605        -9.0506
  65   2.0000      -0.326774        -8.8920
  66   2.0000      -0.284150        -7.7321
  67   0.0000       0.025372         0.6904
  68   0.0000       0.066967         1.8223
  69   0.0000       0.103177         2.8076
  70   0.0000       0.118953         3.2369
  71   0.0000       0.128069         3.4849

MULLIKEN ATOMIC CHARGES
-----------------------
   0 S :    0.120230
   1 C :   -0.115695
   2 C :   -0.114447
   3 C :   -0.002490
   4 C :   -0.161027
   5 H :    0.032001
   6 C :    0.115157
   7 H :    0.000567
   8 H :    0.037567
   9 C :   -0.125336
  10 H :    0.021434
  11 H :    0.030849
  12 C :   -0.020968
  13 H :    0.049581
  14 H :    0.019819
  15 H :    0.036383
  16 S :    0.107089
  17 C :   -0.099083
  18 C :   -0.024745
  19 C :   -0.042351
  20 C :   -0.146960
  21 H :    0.025621
  22 C :    0.017551
  23 H :    0.030673
  24 H :    0.047271
  25 C :   -0.067915
  26 H :    0.029364
  27 H :    0.031813
  28 C :   -0.074696
  29 H :    0.049265
  30 H :    0.030564
  31 H :    0.045742
  32 H :    0.049856
  33 H :    0.067316
Sum of atomic charges:   -0.0000000

LOEWDIN ATOMIC CHARGES
----------------------
   0 S :    0.428682
   1 C :   -0.213941
   2 C :   -0.062662
   3 C :   -0.071727
   4 C :   -0.208237
   5 H :    0.039052
   6 C :   -0.034465
   7 H :    0.024189
   8 H :    0.034065
   9 C :   -0.044296
  10 H :    0.022837
  11 H :    0.021734
  12 C :   -0.046467
  13 H :    0.026763
  14 H :    0.013006
  15 H :    0.026371
  16 S :    0.395290
  17 C :   -0.174464
  18 C :   -0.071946
  19 C :   -0.057378
  20 C :   -0.199394
  21 H :    0.036834
  22 C :   -0.042115
  23 H :    0.032166
  24 H :    0.033277
  25 C :   -0.040339
  26 H :    0.019373
  27 H :    0.028162
  28 C :   -0.071044
  29 H :    0.036725
  30 H :    0.023554
  31 H :    0.029188
  32 H :    0.033262
  33 H :    0.033945

  Mayer bond orders larger than 0.100000
B(  0-S ,  1-C ) :   1.1464 B(  0-S ,  4-C ) :   1.1620 B(  1-C ,  2-C ) :   1.5987
B(  1-C , 32-H ) :   0.9660 B(  2-C ,  3-C ) :   1.2345 B(  2-C ,  6-C ) :   1.0277
B(  3-C ,  4-C ) :   1.5454 B(  3-C ,  5-H ) :   0.9854 B(  4-C , 20-C ) :   1.0632
B(  6-C ,  7-H ) :   0.9333 B(  6-C ,  8-H ) :   0.9407 B(  6-C ,  9-C ) :   1.0679
B(  9-C , 10-H ) :   0.9558 B(  9-C , 11-H ) :   0.9616 B(  9-C , 12-C ) :   1.0465
B( 12-C , 13-H ) :   0.9775 B( 12-C , 14-H ) :   0.9773 B( 12-C , 15-H ) :   0.9800
B( 16-S , 17-C ) :   1.1612 B( 16-S , 20-C ) :   1.1241 B( 17-C , 18-C ) :   1.5820
B( 17-C , 20-C ) :   0.1068 B( 17-C , 33-H ) :   0.9652 B( 18-C , 19-C ) :   1.2634
B( 18-C , 21-H ) :   0.9887 B( 19-C , 20-C ) :   1.5898 B( 19-C , 22-C ) :   1.0389
B( 22-C , 23-H ) :   0.9356 B( 22-C , 24-H ) :   0.9310 B( 22-C , 25-C ) :   1.0538
B( 25-C , 26-H ) :   0.9517 B( 25-C , 27-H ) :   0.9550 B( 25-C , 28-C ) :   1.0874
B( 28-C , 29-H ) :   0.9749 B( 28-C , 30-H ) :   0.9736 B( 28-C , 31-H ) :   0.9734

Dispersion correction           -0.014643712
FINAL SINGLE POINT ENERGY     -1339.858144786569

DIPOLE MOMENT
-------------
                                X             Y             Z
Electronic contribution:    -27.26371      14.98078       0.47569
Nuclear contribution   :     27.83522     -15.53590      -0.30976
                        -----------------------------------------
Total Dipole Moment    :      0.57152      -0.55513       0.16593
                        -----------------------------------------
Magnitude (a.u.)       :      0.81384
Magnitude (Debye)      :      2.06861

Rotational constants in cm-1:     0.016951     0.009886     0.006833
Rotational constants in MHz :   508.172415   296.364580   204.849983

                             ****ORCA TERMINATED NORMALLY****
TOTAL RUN TIME: 0 days 0 hours 0 minutes 31 seconds 667 msec
