                         Program Version 4.2.1 -  RELEASE  -
|  1> ! wB97X-D3 SP def2-SVP
|  2> %pal
|  3> nprocs 16
|  4> end
|  5>
|  6> * xyz 0 1
|  7> S 	 -75.0071 	 51.9831 	 138.299
|  8> C 	 -74.0243 	 51.9237 	 139.752
|  9> C 	 -74.8456 	 51.7785 	 140.899
| 10> C 	 -76.2051 	 51.8006 	 140.543
| 11> C 	 -76.4608 	 51.9244 	 139.222
| 12> H 	 -77.1192 	 51.6864 	 141.13
| 13> C 	 -74.2385 	 51.6818 	 142.29
| 14> H 	 -74.0258 	 52.6632 	 142.674
| 15> H 	 -73.3099 	 51.1961 	 142.19
| 16> C 	 -75.1117 	 50.9726 	 143.362
| 17> H 	 -76.1158 	 51.4498 	 143.336
| 18> H 	 -75.3344 	 49.9373 	 143.073
| 19> C 	 -74.4933 	 51.0331 	 144.8
| 20> H 	 -74.5084 	 52.0612 	 145.215
| 21> H 	 -74.9726 	 50.4779 	 145.626
| 22> H 	 -73.5777 	 50.5836 	 144.93
| 23> S 	 -78.2534 	 53.4766 	 137.758
| 24> C 	 -79.8479 	 52.8392 	 137.303
| 25> C 	 -80.1303 	 51.7817 	 138.116
| 26> C 	 -78.9604 	 51.2844 	 138.842
| 27> C 	 -77.8098 	 52.0408 	 138.593
| 28> H 	 -81.0807 	 51.2956 	 138.042
| 29> C 	 -79.1247 	 50.1809 	 139.843
| 30> H 	 -80.1711 	 50.0197 	 140.006
| 31> H 	 -78.8515 	 50.6548 	 140.808
| 32> C 	 -78.3619 	 48.8876 	 139.584
| 33> H 	 -78.1489 	 48.4449 	 140.545
| 34> H 	 -77.3968 	 49.2767 	 139.215
| 35> C 	 -78.9265 	 47.8003 	 138.703
| 36> H 	 -78.313 	 46.8371 	 138.531
| 37> H 	 -79.104 	 48.0881 	 137.663
| 38> H 	 -79.9165 	 47.5485 	 139.102
| 39> H 	 -72.9045 	 51.7884 	 139.639
| 40> H 	 -80.5068 	 53.3165 	 136.596
| 41> *
| 42>
| 43>                          ****END OF INPUT****

CARTESIAN COORDINATES (ANGSTROEM)
---------------------------------
  S    -75.007100   51.983100  138.299000
  C    -74.024300   51.923700  139.752000
  C    -74.845600   51.778500  140.899000
  C    -76.205100   51.800600  140.543000
  C    -76.460800   51.924400  139.222000
  H    -77.119200   51.686400  141.130000
  C    -74.238500   51.681800  142.290000
  H    -74.025800   52.663200  142.674000
  H    -73.309900   51.196100  142.190000
  C    -75.111700   50.972600  143.362000
  H    -76.115800   51.449800  143.336000
  H    -75.334400   49.937300  143.073000
  C    -74.493300   51.033100  144.800000
  H    -74.508400   52.061200  145.215000
  H    -74.972600   50.477900  145.626000
  H    -73.577700   50.583600  144.930000
  S    -78.253400   53.476600  137.758000
  C    -79.847900   52.839200  137.303000
  C    -80.130300   51.781700  138.116000
  C    -78.960400   51.284400  138.842000
  C    -77.809800   52.040800  138.593000
  H    -81.080700   51.295600  138.042000
  C    -79.124700   50.180900  139.843000
  H    -80.171100   50.019700  140.006000
  H    -78.851500   50.654800  140.808000
  C    -78.361900   48.887600  139.584000
  H    -78.148900   48.444900  140.545000
  H    -77.396800   49.276700  139.215000
  C    -78.926500   47.800300  138.703000
  H    -78.313000   46.837100  138.531000
  H    -79.104000   48.088100  137.663000
  H    -79.916500   47.548500  139.102000
  H    -72.904500   51.788400  139.639000
  H    -80.506800   53.316500  136.596000

 Total Charge           Charge          ....    0
 Multiplicity           Mult            ....    1
 Number of Electrons    NEL             ....  134
 Basis Dimension        Dim             ....  322

ORBITAL ENERGIES
----------------

  NO   OCC          E(Eh)            E(eV)
   0   2.0000     -88.966506     -2420.9017
   1   2.0000     -88.960955     -2420.7506
   2   2.0000     -10.326836      -281.0075
   3   2.0000     -10.326018      -280.9852
   4   2.0000     -10.323111      -280.9061
   5   2.0000     -10.316987      -280.7395
   6   2.0000     -10.308882      -280.5189
   7   2.0000     -10.303639      -280.3763
   8   2.0000     -10.296700      -280.1874
   9   2.0000     -10.293552      -280.1018
  10   2.0000     -10.292035      -280.0605
  11   2.0000     -10.290435      -280.0170
  12   2.0000     -10.290415      -280.0164
  13   2.0000     -10.282290      -279.7953
  14   2.0000     -10.282128      -279.7909
  15   2.0000     -10.279767      -279.7267
  16   2.0000      -8.081658      -219.9131
  17   2.0000      -8.076045      -219.7604
  18   2.0000      -6.039952      -164.3555
  19   2.0000      -6.036016      -164.2483
  20   2.0000      -6.034618      -164.2103
  21   2.0000      -6.032705      -164.1582
  22   2.0000      -6.030595      -164.1008
  23   2.0000      -6.026614      -163.9925
  24   2.0000      -1.009426       -27.4679
  25   2.0000      -0.986188       -26.8355
  26   2.0000      -0.909832       -24.7578
  27   2.0000      -0.908373       -24.7181
  28   2.0000      -0.867474       -23.6052
  29   2.0000      -0.850276       -23.1372
  30   2.0000      -0.843968       -22.9655
  31   2.0000      -0.820733       -22.3333
  32   2.0000      -0.785055       -21.3624
  33   2.0000      -0.772218       -21.0131
  34   2.0000      -0.715675       -19.4745
  35   2.0000      -0.700911       -19.0728
  36   2.0000      -0.682630       -18.5753
  37   2.0000      -0.661092       -17.9892
  38   2.0000      -0.647914       -17.6306
  39   2.0000      -0.620477       -16.8840
  40   2.0000      -0.592557       -16.1243
  41   2.0000      -0.572841       -15.5878
  42   2.0000      -0.562028       -15.2935
  43   2.0000      -0.550991       -14.9932
  44   2.0000      -0.545374       -14.8404
  45   2.0000      -0.519521       -14.1369
  46   2.0000      -0.515298       -14.0220
  47   2.0000      -0.508726       -13.8431
  48   2.0000      -0.504684       -13.7332
  49   2.0000      -0.498600       -13.5676
  50   2.0000      -0.487698       -13.2709
  51   2.0000      -0.479580       -13.0500
  52   2.0000      -0.476595       -12.9688
  53   2.0000      -0.470301       -12.7975
  54   2.0000      -0.462263       -12.5788
  55   2.0000      -0.455645       -12.3987
  56   2.0000      -0.442487       -12.0407
  57   2.0000      -0.430673       -11.7192
  58   2.0000      -0.429092       -11.6762
  59   2.0000      -0.427678       -11.6377
  60   2.0000      -0.419444       -11.4137
  61   2.0000      -0.412209       -11.2168
  62   2.0000      -0.407619       -11.0919
  63   2.0000      -0.346335        -9.4243
  64   2.0000      -0.333488        -9.0747
  65   2.0000      -0.322341        -8.7713
  66   2.0000      -0.296631        -8.0717
  67   0.0000       0.029347         0.7986
  68   0.0000       0.068592         1.8665
  69   0.0000       0.105493         2.8706
  70   0.0000       0.122753         3.3403
  71   0.0000       0.131519         3.5788

MULLIKEN ATOMIC CHARGES
-----------------------
   0 S :    0.119621
   1 C :   -0.161961
   2 C :   -0.067592
   3 C :    0.031688
   4 C :   -0.186233
   5 H :    0.000256
   6 C :    0.116420
   7 H :    0.035872
   8 H :    0.011438
   9 C :   -0.106574
  10 H :    0.039017
  11 H :    0.033259
  12 C :   -0.040075
  13 H :    0.036599
  14 H :    0.022565
  15 H :    0.014831
  16 S :    0.096795
  17 C :   -0.098221
  18 C :   -0.012257
  19 C :   -0.074396
  20 C :   -0.124149
  21 H :    0.017917
  22 C :    0.063859
  23 H :   -0.001596
  24 H :    0.029240
  25 C :   -0.031556
  26 H :    0.019593
  27 H :    0.035265
  28 C :   -0.059770
  29 H :    0.051193
  30 H :    0.028097
  31 H :    0.022250
  32 H :    0.080491
  33 H :    0.058111
Sum of atomic charges:   -0.0000000

LOEWDIN ATOMIC CHARGES
----------------------
   0 S :    0.422507
   1 C :   -0.205524
   2 C :   -0.058054
   3 C :   -0.071173
   4 C :   -0.207041
   5 H :    0.033755
   6 C :   -0.023945
   7 H :    0.033368
   8 H :    0.024664
   9 C :   -0.040361
  10 H :    0.026471
  11 H :    0.024134
  12 C :   -0.074048
  13 H :    0.030844
  14 H :    0.032789
  15 H :    0.014702
  16 S :    0.402760
  17 C :   -0.172166
  18 C :   -0.068454
  19 C :   -0.059650
  20 C :   -0.210972
  21 H :    0.028941
  22 C :   -0.034152
  23 H :    0.023321
  24 H :    0.035514
  25 C :   -0.043948
  26 H :    0.024307
  27 H :    0.029183
  28 C :   -0.075180
  29 H :    0.040485
  30 H :    0.023649
  31 H :    0.022975
  32 H :    0.041000
  33 H :    0.029302

  Mayer bond orders larger than 0.100000
B(  0-S ,  1-C ) :   1.1639 B(  0-S ,  4-C ) :   1.1688 B(  1-C ,  2-C ) :   1.5642
B(  1-C ,  4-C ) :   0.1060 B(  1-C , 32-H ) :   0.9639 B(  2-C ,  3-C ) :   1.2503
B(  2-C ,  6-C ) :   1.0151 B(  3-C ,  4-C ) :   1.5805 B(  3-C ,  5-H ) :   0.9904
B(  4-C , 20-C ) :   0.9963 B(  6-C ,  7-H ) :   0.9375 B(  6-C ,  8-H ) :   0.9367
B(  6-C ,  9-C ) :   1.0625 B(  9-C , 10-H ) :   0.9523 B(  9-C , 11-H ) :   0.9621
B(  9-C , 12-C ) :   1.0759 B( 12-C , 13-H ) :   0.9757 B( 12-C , 14-H ) :   0.9713
B( 12-C , 15-H ) :   0.9756 B( 16-S , 17-C ) :   1.1449 B( 16-S , 20-C ) :   1.1575
B( 17-C , 18-C ) :   1.6085 B( 17-C , 33-H ) :   0.9734 B( 18-C , 19-C ) :   1.2354
B( 18-C , 21-H ) :   0.9912 B( 19-C , 20-C ) :   1.5906 B( 19-C , 22-C ) :   1.0423
B( 22-C , 23-H ) :   0.9282 B( 22-C , 24-H ) :   0.9322 B( 22-C , 25-C ) :   1.0578
B( 25-C , 26-H ) :   0.9502 B( 25-C , 27-H ) :   0.9567 B( 25-C , 28-C ) :   1.0781
B( 28-C , 29-H ) :   0.9729 B( 28-C , 30-H ) :   0.9751 B( 28-C , 31-H ) :   0.9711

Dispersion correction           -0.014473333
FINAL SINGLE POINT ENERGY     -1339.865954713260

DIPOLE MOMENT
-------------
                                X             Y             Z
Electronic contribution:      0.48520      18.02271     -22.48062
Nuclear contribution   :     -0.61902     -18.40312      23.06197
                        -----------------------------------------
Total Dipole Moment    :     -0.13382      -0.38042       0.58135
                        -----------------------------------------
Magnitude (a.u.)       :      0.70752
Magnitude (Debye)      :      1.79838

Rotational constants in cm-1:     0.017908     0.008555     0.007076
Rotational constants in MHz :   536.859262   256.460397   212.139874

                             ****ORCA TERMINATED NORMALLY****
TOTAL RUN TIME: 0 days 0 hours 0 minutes 35 seconds 801 msec
