                         Program Version 4.2.1 -  RELEASE  -
|  1> ! wB97X-D3 SP def2-SVP
|  2> %pal
|  3> nprocs 16
|  4> end
|  5>
|  6> * xyz 0 1
|  7> S 	 -3.2756 	 9.01459 	 83.2484
|  8> C 	 -3.35776 	 7.56286 	 84.1613
|  9> C 	 -4.47446 	 6.77019 	 83.7126
| 10> C 	 -4.98463 	 7.32162 	 82.4741
| 11> C 	 -4.39578 	 8.46092 	 82.0399
| 12> H 	 -5.66647 	 6.94195 	 81.7185
| 13> C 	 -4.84125 	 5.40412 	 84.2059
| 14> H 	 -5.83935 	 5.24696 	 83.8212
| 15> H 	 -4.99806 	 5.45911 	 85.2903
| 16> C 	 -3.86137 	 4.27514 	 83.7263
| 17> H 	 -3.5088 	 4.55413 	 82.6936
| 18> H 	 -2.98181 	 4.24621 	 84.3625
| 19> C 	 -4.50581 	 2.94086 	 83.5119
| 20> H 	 -5.23784 	 3.03753 	 82.7591
| 21> H 	 -3.82033 	 2.24051 	 83.2012
| 22> H 	 -5.04629 	 2.56112 	 84.4232
| 23> S 	 -5.3208 	 10.8193 	 80.9494
| 24> C 	 -5.42481 	 10.9243 	 79.2147
| 25> C 	 -4.79686 	 9.84822 	 78.6066
| 26> C 	 -4.26328 	 8.82554 	 79.4893
| 27> C 	 -4.63794 	 9.16642 	 80.7875
| 28> H 	 -4.76731 	 9.78963 	 77.5657
| 29> C 	 -3.72614 	 7.49346 	 79.0386
| 30> H 	 -3.96649 	 7.43598 	 77.9275
| 31> H 	 -4.14568 	 6.68316 	 79.6767
| 32> C 	 -2.178 	 7.30241 	 79.2501
| 33> H 	 -1.97756 	 7.3768 	 80.351
| 34> H 	 -1.54269 	 8.08841 	 78.7226
| 35> C 	 -1.62646 	 5.94114 	 78.7751
| 36> H 	 -0.620288 	 5.79163 	 79.0143
| 37> H 	 -1.67867 	 5.90225 	 77.6583
| 38> H 	 -2.12683 	 5.11979 	 79.2096
| 39> H 	 -2.83896 	 7.24898 	 85.0541
| 40> H 	 -6.08526 	 11.5893 	 78.7334
| 41> *
| 42>
| 43>                          ****END OF INPUT****

CARTESIAN COORDINATES (ANGSTROEM)
---------------------------------
  S     -3.275600    9.014590   83.248400
  C     -3.357760    7.562860   84.161300
  C     -4.474460    6.770190   83.712600
  C     -4.984630    7.321620   82.474100
  C     -4.395780    8.460920   82.039900
  H     -5.666470    6.941950   81.718500
  C     -4.841250    5.404120   84.205900
  H     -5.839350    5.246960   83.821200
  H     -4.998060    5.459110   85.290300
  C     -3.861370    4.275140   83.726300
  H     -3.508800    4.554130   82.693600
  H     -2.981810    4.246210   84.362500
  C     -4.505810    2.940860   83.511900
  H     -5.237840    3.037530   82.759100
  H     -3.820330    2.240510   83.201200
  H     -5.046290    2.561120   84.423200
  S     -5.320800   10.819300   80.949400
  C     -5.424810   10.924300   79.214700
  C     -4.796860    9.848220   78.606600
  C     -4.263280    8.825540   79.489300
  C     -4.637940    9.166420   80.787500
  H     -4.767310    9.789630   77.565700
  C     -3.726140    7.493460   79.038600
  H     -3.966490    7.435980   77.927500
  H     -4.145680    6.683160   79.676700
  C     -2.178000    7.302410   79.250100
  H     -1.977560    7.376800   80.351000
  H     -1.542690    8.088410   78.722600
  C     -1.626460    5.941140   78.775100
  H     -0.620288    5.791630   79.014300
  H     -1.678670    5.902250   77.658300
  H     -2.126830    5.119790   79.209600
  H     -2.838960    7.248980   85.054100
  H     -6.085260   11.589300   78.733400

 Total Charge           Charge          ....    0
 Multiplicity           Mult            ....    1
 Number of Electrons    NEL             ....  134
 Basis Dimension        Dim             ....  322

ORBITAL ENERGIES
----------------

  NO   OCC          E(Eh)            E(eV)
   0   2.0000     -88.965288     -2420.8686
   1   2.0000     -88.965107     -2420.8636
   2   2.0000     -10.329765      -281.0872
   3   2.0000     -10.320585      -280.8374
   4   2.0000     -10.315798      -280.7071
   5   2.0000     -10.315106      -280.6883
   6   2.0000     -10.309818      -280.5444
   7   2.0000     -10.306406      -280.4516
   8   2.0000     -10.305749      -280.4337
   9   2.0000     -10.294883      -280.1380
  10   2.0000     -10.294341      -280.1233
  11   2.0000     -10.292385      -280.0700
  12   2.0000     -10.291142      -280.0362
  13   2.0000     -10.290456      -280.0175
  14   2.0000     -10.272563      -279.5307
  15   2.0000     -10.271163      -279.4926
  16   2.0000      -8.080212      -219.8737
  17   2.0000      -8.079781      -219.8620
  18   2.0000      -6.038646      -164.3199
  19   2.0000      -6.038267      -164.3096
  20   2.0000      -6.034557      -164.2086
  21   2.0000      -6.034442      -164.2055
  22   2.0000      -6.031116      -164.1150
  23   2.0000      -6.030471      -164.0975
  24   2.0000      -1.005777       -27.3686
  25   2.0000      -0.981415       -26.7057
  26   2.0000      -0.911929       -24.8149
  27   2.0000      -0.903919       -24.5969
  28   2.0000      -0.869256       -23.6536
  29   2.0000      -0.854301       -23.2467
  30   2.0000      -0.850070       -23.1316
  31   2.0000      -0.815944       -22.2030
  32   2.0000      -0.784472       -21.3466
  33   2.0000      -0.769097       -20.9282
  34   2.0000      -0.704247       -19.1635
  35   2.0000      -0.702009       -19.1026
  36   2.0000      -0.686784       -18.6884
  37   2.0000      -0.664874       -18.0921
  38   2.0000      -0.646452       -17.5909
  39   2.0000      -0.611406       -16.6372
  40   2.0000      -0.595373       -16.2009
  41   2.0000      -0.568478       -15.4691
  42   2.0000      -0.565634       -15.3917
  43   2.0000      -0.560367       -15.2484
  44   2.0000      -0.529834       -14.4175
  45   2.0000      -0.522263       -14.2115
  46   2.0000      -0.521912       -14.2020
  47   2.0000      -0.517048       -14.0696
  48   2.0000      -0.504314       -13.7231
  49   2.0000      -0.500093       -13.6082
  50   2.0000      -0.492785       -13.4094
  51   2.0000      -0.482079       -13.1180
  52   2.0000      -0.467841       -12.7306
  53   2.0000      -0.463259       -12.6059
  54   2.0000      -0.459587       -12.5060
  55   2.0000      -0.452010       -12.2998
  56   2.0000      -0.444407       -12.0929
  57   2.0000      -0.438790       -11.9401
  58   2.0000      -0.430205       -11.7065
  59   2.0000      -0.424536       -11.5522
  60   2.0000      -0.419772       -11.4226
  61   2.0000      -0.416743       -11.3402
  62   2.0000      -0.414461       -11.2780
  63   2.0000      -0.340753        -9.2724
  64   2.0000      -0.331146        -9.0109
  65   2.0000      -0.324401        -8.8274
  66   2.0000      -0.294663        -8.0182
  67   0.0000       0.038556         1.0492
  68   0.0000       0.049902         1.3579
  69   0.0000       0.110815         3.0154
  70   0.0000       0.112472         3.0605
  71   0.0000       0.123049         3.3483

MULLIKEN ATOMIC CHARGES
-----------------------
   0 S :    0.130511
   1 C :   -0.106471
   2 C :   -0.127995
   3 C :    0.038648
   4 C :   -0.176817
   5 H :    0.011059
   6 C :    0.074192
   7 H :    0.013263
   8 H :    0.033540
   9 C :   -0.070477
  10 H :    0.032720
  11 H :    0.030898
  12 C :   -0.013915
  13 H :    0.018170
  14 H :    0.020285
  15 H :    0.031905
  16 S :    0.102556
  17 C :   -0.069026
  18 C :   -0.027117
  19 C :    0.025797
  20 C :   -0.206357
  21 H :   -0.005050
  22 C :    0.054912
  23 H :    0.036916
  24 H :    0.037606
  25 C :   -0.138356
  26 H :    0.048557
  27 H :    0.041395
  28 C :   -0.008275
  29 H :    0.021999
  30 H :    0.029633
  31 H :    0.016311
  32 H :    0.048021
  33 H :    0.050962
Sum of atomic charges:    0.0000000

LOEWDIN ATOMIC CHARGES
----------------------
   0 S :    0.425206
   1 C :   -0.211720
   2 C :   -0.062333
   3 C :   -0.071151
   4 C :   -0.210698
   5 H :    0.032916
   6 C :   -0.037663
   7 H :    0.029336
   8 H :    0.033129
   9 C :   -0.036229
  10 H :    0.031004
  11 H :    0.021534
  12 C :   -0.058139
  13 H :    0.019789
  14 H :    0.017186
  15 H :    0.029067
  16 S :    0.388901
  17 C :   -0.179895
  18 C :   -0.059374
  19 C :   -0.048714
  20 C :   -0.181171
  21 H :    0.018305
  22 C :   -0.034779
  23 H :    0.038828
  24 H :    0.039018
  25 C :   -0.045218
  26 H :    0.028921
  27 H :    0.029049
  28 C :   -0.063371
  29 H :    0.020593
  30 H :    0.028636
  31 H :    0.016628
  32 H :    0.029939
  33 H :    0.022469

  Mayer bond orders larger than 0.100000
B(  0-S ,  1-C ) :   1.1626 B(  0-S ,  4-C ) :   1.1379 B(  1-C ,  2-C ) :   1.5713
B(  1-C ,  4-C ) :   0.1002 B(  1-C , 32-H ) :   0.9722 B(  2-C ,  3-C ) :   1.2191
B(  2-C ,  6-C ) :   1.0526 B(  3-C ,  4-C ) :   1.6193 B(  3-C ,  5-H ) :   0.9871
B(  4-C , 20-C ) :   1.0174 B(  6-C ,  7-H ) :   0.9420 B(  6-C ,  8-H ) :   0.9302
B(  6-C ,  9-C ) :   1.0408 B(  9-C , 10-H ) :   0.9604 B(  9-C , 11-H ) :   0.9547
B(  9-C , 12-C ) :   1.0891 B( 12-C , 13-H ) :   0.9742 B( 12-C , 14-H ) :   0.9707
B( 12-C , 15-H ) :   0.9729 B( 16-S , 17-C ) :   1.1404 B( 16-S , 20-C ) :   1.1450
B( 17-C , 18-C ) :   1.6314 B( 17-C , 33-H ) :   0.9713 B( 18-C , 19-C ) :   1.2114
B( 18-C , 21-H ) :   0.9921 B( 19-C , 20-C ) :   1.6003 B( 19-C , 22-C ) :   1.0447
B( 22-C , 23-H ) :   0.9363 B( 22-C , 24-H ) :   0.9338 B( 22-C , 25-C ) :   1.0482
B( 25-C , 26-H ) :   0.9573 B( 25-C , 27-H ) :   0.9575 B( 25-C , 28-C ) :   1.0871
B( 28-C , 29-H ) :   0.9724 B( 28-C , 30-H ) :   0.9739 B( 28-C , 31-H ) :   0.9719

Dispersion correction           -0.014537045
FINAL SINGLE POINT ENERGY     -1339.864806478634

DIPOLE MOMENT
-------------
                                X             Y             Z
Electronic contribution:     -6.67569      29.97599       4.89790
Nuclear contribution   :      6.65351     -30.68329      -5.18917
                        -----------------------------------------
Total Dipole Moment    :     -0.02218      -0.70729      -0.29128
                        -----------------------------------------
Magnitude (a.u.)       :      0.76524
Magnitude (Debye)      :      1.94510

Rotational constants in cm-1:     0.017952     0.009016     0.007090
Rotational constants in MHz :   538.181833   270.300238   212.539672

                             ****ORCA TERMINATED NORMALLY****
TOTAL RUN TIME: 0 days 0 hours 0 minutes 33 seconds 669 msec
