                         Program Version 4.2.1 -  RELEASE  -
|  1> ! wB97X-D3 SP def2-SVP
|  2> %pal
|  3> nprocs 16
|  4> end
|  5>
|  6> * xyz 0 1
|  7> S 	 -100.221 	 51.5593 	 122.644
|  8> C 	 -98.8252 	 50.7528 	 123.398
|  9> C 	 -99.1439 	 50.051 	 124.505
| 10> C 	 -100.607 	 49.9425 	 124.68
| 11> C 	 -101.276 	 50.5581 	 123.611
| 12> H 	 -101.025 	 49.3062 	 125.44
| 13> C 	 -98.1423 	 49.3284 	 125.304
| 14> H 	 -98.5959 	 48.8888 	 126.152
| 15> H 	 -97.4411 	 50.0107 	 125.713
| 16> C 	 -97.3627 	 48.2099 	 124.615
| 17> H 	 -98.0579 	 47.3969 	 124.415
| 18> H 	 -97.1001 	 48.5685 	 123.599
| 19> C 	 -96.1766 	 47.5375 	 125.347
| 20> H 	 -96.4589 	 47.2654 	 126.39
| 21> H 	 -95.8159 	 46.6532 	 124.813
| 22> H 	 -95.3005 	 48.136 	 125.411
| 23> S 	 -103.421 	 49.7465 	 121.944
| 24> C 	 -104.989 	 49.9011 	 122.614
| 25> C 	 -104.961 	 50.5869 	 123.858
| 26> C 	 -103.688 	 50.906 	 124.278
| 27> C 	 -102.723 	 50.5186 	 123.359
| 28> H 	 -105.883 	 50.809 	 124.466
| 29> C 	 -103.444 	 51.5684 	 125.631
| 30> H 	 -102.983 	 52.5244 	 125.611
| 31> H 	 -102.765 	 50.9711 	 126.19
| 32> C 	 -104.686 	 51.6044 	 126.592
| 33> H 	 -105.06 	 50.6185 	 126.705
| 34> H 	 -105.512 	 52.3165 	 126.239
| 35> C 	 -104.347 	 52.1203 	 127.97
| 36> H 	 -105.256 	 52.1237 	 128.656
| 37> H 	 -103.817 	 53.0453 	 127.93
| 38> H 	 -103.66 	 51.419 	 128.388
| 39> H 	 -97.792 	 50.8535 	 123.052
| 40> H 	 -105.917 	 49.4208 	 122.194
| 41> *
| 42>
| 43>                          ****END OF INPUT****

CARTESIAN COORDINATES (ANGSTROEM)
---------------------------------
  S    -100.221000   51.559300  122.644000
  C    -98.825200   50.752800  123.398000
  C    -99.143900   50.051000  124.505000
  C    -100.607000   49.942500  124.680000
  C    -101.276000   50.558100  123.611000
  H    -101.025000   49.306200  125.440000
  C    -98.142300   49.328400  125.304000
  H    -98.595900   48.888800  126.152000
  H    -97.441100   50.010700  125.713000
  C    -97.362700   48.209900  124.615000
  H    -98.057900   47.396900  124.415000
  H    -97.100100   48.568500  123.599000
  C    -96.176600   47.537500  125.347000
  H    -96.458900   47.265400  126.390000
  H    -95.815900   46.653200  124.813000
  H    -95.300500   48.136000  125.411000
  S    -103.421000   49.746500  121.944000
  C    -104.989000   49.901100  122.614000
  C    -104.961000   50.586900  123.858000
  C    -103.688000   50.906000  124.278000
  C    -102.723000   50.518600  123.359000
  H    -105.883000   50.809000  124.466000
  C    -103.444000   51.568400  125.631000
  H    -102.983000   52.524400  125.611000
  H    -102.765000   50.971100  126.190000
  C    -104.686000   51.604400  126.592000
  H    -105.060000   50.618500  126.705000
  H    -105.512000   52.316500  126.239000
  C    -104.347000   52.120300  127.970000
  H    -105.256000   52.123700  128.656000
  H    -103.817000   53.045300  127.930000
  H    -103.660000   51.419000  128.388000
  H    -97.792000   50.853500  123.052000
  H    -105.917000   49.420800  122.194000

 Total Charge           Charge          ....    0
 Multiplicity           Mult            ....    1
 Number of Electrons    NEL             ....  134
 Basis Dimension        Dim             ....  322

ORBITAL ENERGIES
----------------

  NO   OCC          E(Eh)            E(eV)
   0   2.0000     -88.972412     -2421.0624
   1   2.0000     -88.963549     -2420.8212
   2   2.0000     -10.331353      -281.1304
   3   2.0000     -10.321696      -280.8676
   4   2.0000     -10.321640      -280.8661
   5   2.0000     -10.308530      -280.5094
   6   2.0000     -10.299607      -280.2666
   7   2.0000     -10.298225      -280.2290
   8   2.0000     -10.296864      -280.1919
   9   2.0000     -10.293249      -280.0936
  10   2.0000     -10.288832      -279.9733
  11   2.0000     -10.288776      -279.9718
  12   2.0000     -10.287749      -279.9439
  13   2.0000     -10.281676      -279.7786
  14   2.0000     -10.281603      -279.7766
  15   2.0000     -10.276898      -279.6486
  16   2.0000      -8.087150      -220.0625
  17   2.0000      -8.078153      -219.8177
  18   2.0000      -6.045457      -164.5053
  19   2.0000      -6.041533      -164.3985
  20   2.0000      -6.038255      -164.3093
  21   2.0000      -6.036750      -164.2683
  22   2.0000      -6.032892      -164.1633
  23   2.0000      -6.028629      -164.0473
  24   2.0000      -1.005710       -27.3668
  25   2.0000      -0.983125       -26.7522
  26   2.0000      -0.914526       -24.8855
  27   2.0000      -0.912116       -24.8200
  28   2.0000      -0.864318       -23.5193
  29   2.0000      -0.857690       -23.3389
  30   2.0000      -0.843189       -22.9443
  31   2.0000      -0.807406       -21.9706
  32   2.0000      -0.786957       -21.4142
  33   2.0000      -0.773006       -21.0346
  34   2.0000      -0.705297       -19.1921
  35   2.0000      -0.701158       -19.0795
  36   2.0000      -0.695184       -18.9169
  37   2.0000      -0.648846       -17.6560
  38   2.0000      -0.634447       -17.2642
  39   2.0000      -0.618698       -16.8356
  40   2.0000      -0.602286       -16.3890
  41   2.0000      -0.575018       -15.6470
  42   2.0000      -0.573094       -15.5947
  43   2.0000      -0.552228       -15.0269
  44   2.0000      -0.526911       -14.3380
  45   2.0000      -0.521374       -14.1873
  46   2.0000      -0.517820       -14.0906
  47   2.0000      -0.510976       -13.9044
  48   2.0000      -0.504868       -13.7382
  49   2.0000      -0.493993       -13.4422
  50   2.0000      -0.486707       -13.2440
  51   2.0000      -0.479012       -13.0346
  52   2.0000      -0.477753       -13.0003
  53   2.0000      -0.460932       -12.5426
  54   2.0000      -0.459340       -12.4993
  55   2.0000      -0.454875       -12.3778
  56   2.0000      -0.448191       -12.1959
  57   2.0000      -0.437231       -11.8977
  58   2.0000      -0.435807       -11.8589
  59   2.0000      -0.426791       -11.6136
  60   2.0000      -0.424240       -11.5442
  61   2.0000      -0.414693       -11.2844
  62   2.0000      -0.413259       -11.2453
  63   2.0000      -0.339259        -9.2317
  64   2.0000      -0.331997        -9.0341
  65   2.0000      -0.326738        -8.8910
  66   2.0000      -0.293728        -7.9927
  67   0.0000       0.031858         0.8669
  68   0.0000       0.061804         1.6818
  69   0.0000       0.105788         2.8786
  70   0.0000       0.128159         3.4874
  71   0.0000       0.134849         3.6694

MULLIKEN ATOMIC CHARGES
-----------------------
   0 S :    0.107999
   1 C :   -0.139139
   2 C :   -0.095298
   3 C :    0.051328
   4 C :   -0.178469
   5 H :    0.016320
   6 C :    0.124855
   7 H :   -0.005649
   8 H :    0.018933
   9 C :   -0.095989
  10 H :    0.024964
  11 H :    0.021447
  12 C :   -0.037106
  13 H :    0.033327
  14 H :    0.036987
  15 H :    0.022097
  16 S :    0.146821
  17 C :   -0.119693
  18 C :   -0.068592
  19 C :   -0.013448
  20 C :   -0.177434
  21 H :    0.040095
  22 C :    0.130453
  23 H :    0.029067
  24 H :    0.000011
  25 C :   -0.140051
  26 H :    0.029253
  27 H :    0.045328
  28 C :   -0.023502
  29 H :    0.048186
  30 H :    0.027792
  31 H :    0.011364
  32 H :    0.048998
  33 H :    0.078748
Sum of atomic charges:    0.0000000

LOEWDIN ATOMIC CHARGES
----------------------
   0 S :    0.386169
   1 C :   -0.187359
   2 C :   -0.061198
   3 C :   -0.054657
   4 C :   -0.184925
   5 H :    0.028413
   6 C :   -0.033401
   7 H :    0.022771
   8 H :    0.028661
   9 C :   -0.040091
  10 H :    0.024916
  11 H :    0.021797
  12 C :   -0.065447
  13 H :    0.029024
  14 H :    0.031846
  15 H :    0.017692
  16 S :    0.440139
  17 C :   -0.211929
  18 C :   -0.080988
  19 C :   -0.053685
  20 C :   -0.217932
  21 H :    0.041454
  22 C :   -0.021071
  23 H :    0.030146
  24 H :    0.026834
  25 C :   -0.044611
  26 H :    0.018115
  27 H :    0.027675
  28 C :   -0.063949
  29 H :    0.037362
  30 H :    0.021133
  31 H :    0.017245
  32 H :    0.028123
  33 H :    0.041728

  Mayer bond orders larger than 0.100000
B(  0-S ,  1-C ) :   1.1064 B(  0-S ,  4-C ) :   1.1536 B(  1-C ,  2-C ) :   1.6593
B(  1-C , 32-H ) :   0.9661 B(  2-C ,  3-C ) :   1.2052 B(  2-C ,  6-C ) :   1.0428
B(  3-C ,  4-C ) :   1.5939 B(  3-C ,  5-H ) :   0.9902 B(  4-C , 20-C ) :   1.0331
B(  6-C ,  7-H ) :   0.9285 B(  6-C ,  8-H ) :   0.9268 B(  6-C ,  9-C ) :   1.0615
B(  9-C , 10-H ) :   0.9552 B(  9-C , 11-H ) :   0.9578 B(  9-C , 12-C ) :   1.0786
B( 12-C , 13-H ) :   0.9737 B( 12-C , 14-H ) :   0.9735 B( 12-C , 15-H ) :   0.9753
B( 16-S , 17-C ) :   1.1959 B( 16-S , 20-C ) :   1.1610 B( 17-C , 18-C ) :   1.5249
B( 17-C , 20-C ) :   0.1120 B( 17-C , 33-H ) :   0.9584 B( 18-C , 19-C ) :   1.3379
B( 18-C , 21-H ) :   0.9709 B( 19-C , 20-C ) :   1.5453 B( 19-C , 22-C ) :   1.0190
B( 22-C , 23-H ) :   0.9244 B( 22-C , 24-H ) :   0.9221 B( 22-C , 25-C ) :   1.0801
B( 25-C , 26-H ) :   0.9526 B( 25-C , 27-H ) :   0.9483 B( 25-C , 28-C ) :   1.0889
B( 28-C , 29-H ) :   0.9707 B( 28-C , 30-H ) :   0.9727 B( 28-C , 31-H ) :   0.9707

Dispersion correction           -0.013480772
FINAL SINGLE POINT ENERGY     -1339.872101402465

DIPOLE MOMENT
-------------
                                X             Y             Z
Electronic contribution:     -8.28837       5.17328     -24.48581
Nuclear contribution   :      8.34532      -5.46072      25.12979
                        -----------------------------------------
Total Dipole Moment    :      0.05695      -0.28743       0.64398
                        -----------------------------------------
Magnitude (a.u.)       :      0.70751
Magnitude (Debye)      :      1.79835

Rotational constants in cm-1:     0.018424     0.007423     0.006148
Rotational constants in MHz :   552.348112   222.544807   184.314483

                             ****ORCA TERMINATED NORMALLY****
TOTAL RUN TIME: 0 days 0 hours 0 minutes 33 seconds 24 msec
