                         Program Version 4.2.1 -  RELEASE  -
|  1> ! wB97X-D3 SP def2-SVP
|  2> %pal
|  3> nprocs 16
|  4> end
|  5>
|  6> * xyz 0 1
|  7> S 	 55.603 	 3.95411 	 84.424
|  8> C 	 56.6373 	 3.27694 	 83.1617
|  9> C 	 55.8466 	 2.65017 	 82.1814
| 10> C 	 54.4851 	 2.56307 	 82.6214
| 11> C 	 54.1595 	 3.24241 	 83.7402
| 12> H 	 53.656 	 2.04756 	 82.0633
| 13> C 	 56.3421 	 1.95541 	 80.9178
| 14> H 	 57.3269 	 2.50583 	 80.7671
| 15> H 	 55.7451 	 2.21452 	 80.0241
| 16> C 	 56.5704 	 0.435333 	 80.9652
| 17> H 	 56.8433 	 0.114717 	 82.0108
| 18> H 	 55.6878 	 -0.171716 	 80.7633
| 19> C 	 57.584 	 -0.0465357 	 79.8886
| 20> H 	 57.196 	 0.344827 	 79.0079
| 21> H 	 58.5643 	 0.277696 	 80.1138
| 22> H 	 57.5489 	 -1.07682 	 79.615
| 23> S 	 51.7382 	 4.22926 	 83.0354
| 24> C 	 50.6727 	 4.82478 	 84.2236
| 25> C 	 51.0774 	 4.52213 	 85.5359
| 26> C 	 52.333 	 3.86437 	 85.5175
| 27> C 	 52.8747 	 3.6642 	 84.2448
| 28> H 	 50.4855 	 4.81749 	 86.4011
| 29> C 	 52.9687 	 3.58329 	 86.8893
| 30> H 	 53.9978 	 3.48322 	 86.7198
| 31> H 	 52.5375 	 2.69383 	 87.3738
| 32> C 	 52.835 	 4.71061 	 87.9488
| 33> H 	 51.7873 	 4.81481 	 88.2207
| 34> H 	 53.1886 	 5.64026 	 87.4661
| 35> C 	 53.5781 	 4.41725 	 89.2584
| 36> H 	 53.032 	 3.7189 	 89.8691
| 37> H 	 53.828 	 5.31752 	 89.8744
| 38> H 	 54.5866 	 3.88746 	 89.0907
| 39> H 	 57.7285 	 3.44869 	 83.0864
| 40> H 	 49.697 	 5.23215 	 84.0424
| 41> *
| 42>
| 43>                          ****END OF INPUT****

CARTESIAN COORDINATES (ANGSTROEM)
---------------------------------
  S     55.603000    3.954110   84.424000
  C     56.637300    3.276940   83.161700
  C     55.846600    2.650170   82.181400
  C     54.485100    2.563070   82.621400
  C     54.159500    3.242410   83.740200
  H     53.656000    2.047560   82.063300
  C     56.342100    1.955410   80.917800
  H     57.326900    2.505830   80.767100
  H     55.745100    2.214520   80.024100
  C     56.570400    0.435333   80.965200
  H     56.843300    0.114717   82.010800
  H     55.687800   -0.171716   80.763300
  C     57.584000   -0.046536   79.888600
  H     57.196000    0.344827   79.007900
  H     58.564300    0.277696   80.113800
  H     57.548900   -1.076820   79.615000
  S     51.738200    4.229260   83.035400
  C     50.672700    4.824780   84.223600
  C     51.077400    4.522130   85.535900
  C     52.333000    3.864370   85.517500
  C     52.874700    3.664200   84.244800
  H     50.485500    4.817490   86.401100
  C     52.968700    3.583290   86.889300
  H     53.997800    3.483220   86.719800
  H     52.537500    2.693830   87.373800
  C     52.835000    4.710610   87.948800
  H     51.787300    4.814810   88.220700
  H     53.188600    5.640260   87.466100
  C     53.578100    4.417250   89.258400
  H     53.032000    3.718900   89.869100
  H     53.828000    5.317520   89.874400
  H     54.586600    3.887460   89.090700
  H     57.728500    3.448690   83.086400
  H     49.697000    5.232150   84.042400

 Total Charge           Charge          ....    0
 Multiplicity           Mult            ....    1
 Number of Electrons    NEL             ....  134
 Basis Dimension        Dim             ....  322

ORBITAL ENERGIES
----------------

  NO   OCC          E(Eh)            E(eV)
   0   2.0000     -88.969223     -2420.9756
   1   2.0000     -88.964389     -2420.8441
   2   2.0000     -10.327982      -281.0387
   3   2.0000     -10.326302      -280.9930
   4   2.0000     -10.321809      -280.8707
   5   2.0000     -10.315666      -280.7035
   6   2.0000     -10.306977      -280.4671
   7   2.0000     -10.305896      -280.4377
   8   2.0000     -10.301145      -280.3084
   9   2.0000     -10.294172      -280.1187
  10   2.0000     -10.292676      -280.0780
  11   2.0000     -10.290893      -280.0294
  12   2.0000     -10.287804      -279.9454
  13   2.0000     -10.287344      -279.9329
  14   2.0000     -10.284547      -279.8567
  15   2.0000     -10.268765      -279.4273
  16   2.0000      -8.084444      -219.9889
  17   2.0000      -8.078796      -219.8352
  18   2.0000      -6.042814      -164.4333
  19   2.0000      -6.038776      -164.3234
  20   2.0000      -6.037405      -164.2862
  21   2.0000      -6.035418      -164.2321
  22   2.0000      -6.033308      -164.1747
  23   2.0000      -6.029500      -164.0710
  24   2.0000      -1.010136       -27.4872
  25   2.0000      -0.985132       -26.8068
  26   2.0000      -0.908051       -24.7093
  27   2.0000      -0.907696       -24.6997
  28   2.0000      -0.870851       -23.6971
  29   2.0000      -0.852204       -23.1896
  30   2.0000      -0.844128       -22.9699
  31   2.0000      -0.813474       -22.1357
  32   2.0000      -0.782458       -21.2918
  33   2.0000      -0.770054       -20.9542
  34   2.0000      -0.706381       -19.2216
  35   2.0000      -0.700491       -19.0613
  36   2.0000      -0.691626       -18.8201
  37   2.0000      -0.663793       -18.0627
  38   2.0000      -0.634271       -17.2594
  39   2.0000      -0.616555       -16.7773
  40   2.0000      -0.597184       -16.2502
  41   2.0000      -0.574024       -15.6200
  42   2.0000      -0.571244       -15.5443
  43   2.0000      -0.560553       -15.2534
  44   2.0000      -0.524822       -14.2811
  45   2.0000      -0.524098       -14.2614
  46   2.0000      -0.513011       -13.9597
  47   2.0000      -0.509174       -13.8553
  48   2.0000      -0.506661       -13.7870
  49   2.0000      -0.498155       -13.5555
  50   2.0000      -0.494045       -13.4436
  51   2.0000      -0.476273       -12.9601
  52   2.0000      -0.471685       -12.8352
  53   2.0000      -0.465900       -12.6778
  54   2.0000      -0.457710       -12.4549
  55   2.0000      -0.452514       -12.3135
  56   2.0000      -0.445132       -12.1127
  57   2.0000      -0.431398       -11.7389
  58   2.0000      -0.426210       -11.5978
  59   2.0000      -0.423714       -11.5299
  60   2.0000      -0.419565       -11.4170
  61   2.0000      -0.415214       -11.2985
  62   2.0000      -0.412882       -11.2351
  63   2.0000      -0.348739        -9.4897
  64   2.0000      -0.334189        -9.0938
  65   2.0000      -0.331040        -9.0080
  66   2.0000      -0.290325        -7.9002
  67   0.0000       0.028174         0.7666
  68   0.0000       0.069977         1.9042
  69   0.0000       0.108643         2.9563
  70   0.0000       0.113163         3.0793
  71   0.0000       0.130155         3.5417

MULLIKEN ATOMIC CHARGES
-----------------------
   0 S :    0.096053
   1 C :   -0.128674
   2 C :   -0.099359
   3 C :   -0.017600
   4 C :   -0.109959
   5 H :    0.029021
   6 C :    0.033982
   7 H :    0.027605
   8 H :    0.039762
   9 C :   -0.075292
  10 H :    0.037357
  11 H :    0.026733
  12 C :   -0.009365
  13 H :    0.005056
  14 H :    0.034067
  15 H :    0.022163
  16 S :    0.128395
  17 C :   -0.083605
  18 C :   -0.053437
  19 C :   -0.039757
  20 C :   -0.150566
  21 H :    0.028620
  22 C :    0.097157
  23 H :   -0.002010
  24 H :    0.039123
  25 C :   -0.100928
  26 H :    0.030672
  27 H :    0.040162
  28 C :   -0.073834
  29 H :    0.027265
  30 H :    0.049136
  31 H :    0.036157
  32 H :    0.065261
  33 H :    0.050641
Sum of atomic charges:    0.0000000

LOEWDIN ATOMIC CHARGES
----------------------
   0 S :    0.403194
   1 C :   -0.196772
   2 C :   -0.063338
   3 C :   -0.080444
   4 C :   -0.192708
   5 H :    0.037669
   6 C :   -0.039671
   7 H :    0.037169
   8 H :    0.034681
   9 C :   -0.042887
  10 H :    0.026914
  11 H :    0.024177
  12 C :   -0.055764
  13 H :    0.019015
  14 H :    0.019543
  15 H :    0.025815
  16 S :    0.441368
  17 C :   -0.195172
  18 C :   -0.072158
  19 C :   -0.052895
  20 C :   -0.207963
  21 H :    0.034851
  22 C :   -0.027001
  23 H :    0.009716
  24 H :    0.035555
  25 C :   -0.042689
  26 H :    0.019204
  27 H :    0.027371
  28 C :   -0.074666
  29 H :    0.020547
  30 H :    0.033881
  31 H :    0.032166
  32 H :    0.035747
  33 H :    0.025545

  Mayer bond orders larger than 0.100000
B(  0-S ,  1-C ) :   1.1416 B(  0-S ,  4-C ) :   1.1332 B(  1-C ,  2-C ) :   1.6044
B(  1-C , 32-H ) :   0.9643 B(  2-C ,  3-C ) :   1.2232 B(  2-C ,  6-C ) :   1.0351
B(  3-C ,  4-C ) :   1.5982 B(  3-C ,  5-H ) :   0.9886 B(  4-C , 20-C ) :   1.0609
B(  6-C ,  7-H ) :   0.9457 B(  6-C ,  8-H ) :   0.9354 B(  6-C ,  9-C ) :   1.0472
B(  9-C , 10-H ) :   0.9625 B(  9-C , 11-H ) :   0.9542 B(  9-C , 12-C ) :   1.0738
B( 12-C , 13-H ) :   0.9697 B( 12-C , 14-H ) :   0.9809 B( 12-C , 15-H ) :   0.9730
B( 16-S , 17-C ) :   1.1929 B( 16-S , 20-C ) :   1.1390 B( 17-C , 18-C ) :   1.5692
B( 17-C , 33-H ) :   0.9648 B( 18-C , 19-C ) :   1.2725 B( 18-C , 21-H ) :   0.9900
B( 19-C , 20-C ) :   1.5526 B( 19-C , 22-C ) :   1.0379 B( 22-C , 23-H ) :   0.9316
B( 22-C , 24-H ) :   0.9314 B( 22-C , 25-C ) :   1.0722 B( 25-C , 26-H ) :   0.9487
B( 25-C , 27-H ) :   0.9607 B( 25-C , 28-C ) :   1.0774 B( 28-C , 29-H ) :   0.9749
B( 28-C , 30-H ) :   0.9747 B( 28-C , 31-H ) :   0.9749

Dispersion correction           -0.013354669
FINAL SINGLE POINT ENERGY     -1339.876416600206

DIPOLE MOMENT
-------------
                                X             Y             Z
Electronic contribution:     -9.88096      10.05476      -4.26083
Nuclear contribution   :      9.80794     -10.19169       4.22234
                        -----------------------------------------
Total Dipole Moment    :     -0.07302      -0.13693      -0.03848
                        -----------------------------------------
Magnitude (a.u.)       :      0.15988
Magnitude (Debye)      :      0.40638

Rotational constants in cm-1:     0.023585     0.006867     0.005712
Rotational constants in MHz :   707.049734   205.881881   171.253302

                             ****ORCA TERMINATED NORMALLY****
TOTAL RUN TIME: 0 days 0 hours 0 minutes 26 seconds 805 msec
