                         Program Version 4.2.1 -  RELEASE  -
|  1> ! wB97X-D3 SP def2-SVP
|  2> %pal
|  3> nprocs 16
|  4> end
|  5>
|  6> * xyz 0 1
|  7> S 	 6.69729 	 -29.236 	 80.7204
|  8> C 	 6.90604 	 -29.5171 	 82.4361
|  9> C 	 7.60046 	 -28.4845 	 83.0646
| 10> C 	 7.8487 	 -27.4313 	 82.1074
| 11> C 	 7.48713 	 -27.7277 	 80.8159
| 12> H 	 8.10037 	 -26.4426 	 82.3732
| 13> C 	 8.02613 	 -28.3527 	 84.5278
| 14> H 	 8.97599 	 -27.8587 	 84.4912
| 15> H 	 8.25903 	 -29.3471 	 84.8983
| 16> C 	 7.01643 	 -27.655 	 85.462
| 17> H 	 7.57149 	 -27.2828 	 86.3055
| 18> H 	 6.80961 	 -26.7729 	 84.9044
| 19> C 	 5.77767 	 -28.4649 	 85.9573
| 20> H 	 5.01496 	 -28.6065 	 85.1622
| 21> H 	 6.00818 	 -29.5005 	 86.3756
| 22> H 	 5.38431 	 -27.9062 	 86.8432
| 23> S 	 5.97404 	 -26.2246 	 79.0864
| 24> C 	 6.74106 	 -25.2509 	 77.8742
| 25> C 	 8.10082 	 -25.253 	 78.0617
| 26> C 	 8.57671 	 -26.0801 	 79.0888
| 27> C 	 7.51864 	 -26.7094 	 79.7408
| 28> H 	 8.71195 	 -24.6868 	 77.3485
| 29> C 	 10.0223 	 -26.5061 	 79.229
| 30> H 	 10.3712 	 -26.923 	 78.2823
| 31> H 	 10.2059 	 -27.2817 	 80.0057
| 32> C 	 10.9547 	 -25.4036 	 79.7575
| 33> H 	 10.4113 	 -25.0218 	 80.6039
| 34> H 	 10.9858 	 -24.6182 	 79.0027
| 35> C 	 12.3983 	 -25.8411 	 80.1039
| 36> H 	 13.0545 	 -25.5987 	 79.3183
| 37> H 	 12.4195 	 -26.9002 	 80.3741
| 38> H 	 12.8714 	 -25.4003 	 80.9761
| 39> H 	 6.54082 	 -30.3492 	 83.0669
| 40> H 	 6.19172 	 -24.7998 	 77.0172
| 41> *
| 42>
| 43>                          ****END OF INPUT****

CARTESIAN COORDINATES (ANGSTROEM)
---------------------------------
  S      6.697290  -29.236000   80.720400
  C      6.906040  -29.517100   82.436100
  C      7.600460  -28.484500   83.064600
  C      7.848700  -27.431300   82.107400
  C      7.487130  -27.727700   80.815900
  H      8.100370  -26.442600   82.373200
  C      8.026130  -28.352700   84.527800
  H      8.975990  -27.858700   84.491200
  H      8.259030  -29.347100   84.898300
  C      7.016430  -27.655000   85.462000
  H      7.571490  -27.282800   86.305500
  H      6.809610  -26.772900   84.904400
  C      5.777670  -28.464900   85.957300
  H      5.014960  -28.606500   85.162200
  H      6.008180  -29.500500   86.375600
  H      5.384310  -27.906200   86.843200
  S      5.974040  -26.224600   79.086400
  C      6.741060  -25.250900   77.874200
  C      8.100820  -25.253000   78.061700
  C      8.576710  -26.080100   79.088800
  C      7.518640  -26.709400   79.740800
  H      8.711950  -24.686800   77.348500
  C     10.022300  -26.506100   79.229000
  H     10.371200  -26.923000   78.282300
  H     10.205900  -27.281700   80.005700
  C     10.954700  -25.403600   79.757500
  H     10.411300  -25.021800   80.603900
  H     10.985800  -24.618200   79.002700
  C     12.398300  -25.841100   80.103900
  H     13.054500  -25.598700   79.318300
  H     12.419500  -26.900200   80.374100
  H     12.871400  -25.400300   80.976100
  H      6.540820  -30.349200   83.066900
  H      6.191720  -24.799800   77.017200

 Total Charge           Charge          ....    0
 Multiplicity           Mult            ....    1
 Number of Electrons    NEL             ....  134
 Basis Dimension        Dim             ....  322

ORBITAL ENERGIES
----------------

  NO   OCC          E(Eh)            E(eV)
   0   2.0000     -88.969804     -2420.9914
   1   2.0000     -88.963566     -2420.8217
   2   2.0000     -10.326673      -281.0031
   3   2.0000     -10.323821      -280.9255
   4   2.0000     -10.317207      -280.7455
   5   2.0000     -10.316482      -280.7258
   6   2.0000     -10.301610      -280.3211
   7   2.0000     -10.301010      -280.3047
   8   2.0000     -10.293313      -280.0953
   9   2.0000     -10.292123      -280.0629
  10   2.0000     -10.291222      -280.0384
  11   2.0000     -10.290260      -280.0122
  12   2.0000     -10.287538      -279.9381
  13   2.0000     -10.287450      -279.9357
  14   2.0000     -10.282134      -279.7911
  15   2.0000     -10.273736      -279.5626
  16   2.0000      -8.084900      -220.0013
  17   2.0000      -8.078854      -219.8368
  18   2.0000      -6.043429      -164.4501
  19   2.0000      -6.039329      -164.3385
  20   2.0000      -6.037204      -164.2807
  21   2.0000      -6.035631      -164.2379
  22   2.0000      -6.033186      -164.1713
  23   2.0000      -6.029855      -164.0807
  24   2.0000      -1.009950       -27.4821
  25   2.0000      -0.987766       -26.8785
  26   2.0000      -0.909617       -24.7519
  27   2.0000      -0.907346       -24.6901
  28   2.0000      -0.865019       -23.5384
  29   2.0000      -0.851091       -23.1594
  30   2.0000      -0.845683       -23.0122
  31   2.0000      -0.810677       -22.0596
  32   2.0000      -0.784833       -21.3564
  33   2.0000      -0.775847       -21.1119
  34   2.0000      -0.706278       -19.2188
  35   2.0000      -0.698932       -19.0189
  36   2.0000      -0.692415       -18.8416
  37   2.0000      -0.656168       -17.8552
  38   2.0000      -0.637786       -17.3550
  39   2.0000      -0.620546       -16.8859
  40   2.0000      -0.600173       -16.3315
  41   2.0000      -0.570249       -15.5173
  42   2.0000      -0.567293       -15.4368
  43   2.0000      -0.545810       -14.8522
  44   2.0000      -0.539332       -14.6760
  45   2.0000      -0.518148       -14.0995
  46   2.0000      -0.516278       -14.0486
  47   2.0000      -0.509401       -13.8615
  48   2.0000      -0.500737       -13.6257
  49   2.0000      -0.493300       -13.4234
  50   2.0000      -0.484497       -13.1838
  51   2.0000      -0.482618       -13.1327
  52   2.0000      -0.472966       -12.8701
  53   2.0000      -0.469400       -12.7730
  54   2.0000      -0.462903       -12.5962
  55   2.0000      -0.451777       -12.2935
  56   2.0000      -0.445703       -12.1282
  57   2.0000      -0.434197       -11.8151
  58   2.0000      -0.430603       -11.7173
  59   2.0000      -0.425000       -11.5648
  60   2.0000      -0.419863       -11.4250
  61   2.0000      -0.418222       -11.3804
  62   2.0000      -0.412372       -11.2212
  63   2.0000      -0.339519        -9.2388
  64   2.0000      -0.332238        -9.0407
  65   2.0000      -0.327361        -8.9079
  66   2.0000      -0.300218        -8.1693
  67   0.0000       0.035753         0.9729
  68   0.0000       0.071208         1.9377
  69   0.0000       0.119176         3.2429
  70   0.0000       0.122820         3.3421
  71   0.0000       0.128541         3.4978

MULLIKEN ATOMIC CHARGES
-----------------------
   0 S :    0.130663
   1 C :   -0.130403
   2 C :   -0.117283
   3 C :    0.033730
   4 C :   -0.143556
   5 H :    0.002462
   6 C :    0.075826
   7 H :    0.022154
   8 H :    0.013457
   9 C :   -0.027473
  10 H :    0.022256
  11 H :    0.015602
  12 C :   -0.084886
  13 H :    0.054215
  14 H :    0.038148
  15 H :    0.047083
  16 S :    0.110001
  17 C :   -0.117381
  18 C :   -0.042636
  19 C :    0.012422
  20 C :   -0.189876
  21 H :    0.022395
  22 C :    0.045690
  23 H :    0.036686
  24 H :    0.028593
  25 C :   -0.094273
  26 H :    0.023320
  27 H :    0.022360
  28 C :   -0.015456
  29 H :    0.028114
  30 H :    0.023895
  31 H :    0.026287
  32 H :    0.052615
  33 H :    0.075247
Sum of atomic charges:   -0.0000000

LOEWDIN ATOMIC CHARGES
----------------------
   0 S :    0.429106
   1 C :   -0.207727
   2 C :   -0.062332
   3 C :   -0.058120
   4 C :   -0.217552
   5 H :    0.021966
   6 C :   -0.030092
   7 H :    0.031249
   8 H :    0.025762
   9 C :   -0.038169
  10 H :    0.023588
  11 H :    0.022451
  12 C :   -0.074665
  13 H :    0.030394
  14 H :    0.030813
  15 H :    0.034938
  16 S :    0.413124
  17 C :   -0.198037
  18 C :   -0.074655
  19 C :   -0.061452
  20 C :   -0.192443
  21 H :    0.033621
  22 C :   -0.029320
  23 H :    0.029292
  24 H :    0.032560
  25 C :   -0.040058
  26 H :    0.021008
  27 H :    0.018100
  28 C :   -0.066286
  29 H :    0.021887
  30 H :    0.026578
  31 H :    0.028685
  32 H :    0.035968
  33 H :    0.039819

  Mayer bond orders larger than 0.100000
B(  0-S ,  1-C ) :   1.1406 B(  0-S ,  4-C ) :   1.1572 B(  1-C ,  2-C ) :   1.6206
B(  1-C , 32-H ) :   0.9607 B(  2-C ,  3-C ) :   1.2465 B(  2-C ,  6-C ) :   1.0183
B(  3-C ,  4-C ) :   1.5777 B(  3-C ,  5-H ) :   0.9937 B(  4-C , 20-C ) :   1.0060
B(  6-C ,  7-H ) :   0.9375 B(  6-C ,  8-H ) :   0.9394 B(  6-C ,  9-C ) :   1.0702
B(  9-C , 10-H ) :   0.9559 B(  9-C , 11-H ) :   0.9542 B(  9-C , 12-C ) :   1.0654
B( 12-C , 13-H ) :   0.9760 B( 12-C , 14-H ) :   0.9753 B( 12-C , 15-H ) :   0.9748
B( 16-S , 17-C ) :   1.1577 B( 16-S , 20-C ) :   1.1670 B( 17-C , 18-C ) :   1.6014
B( 17-C , 33-H ) :   0.9638 B( 18-C , 19-C ) :   1.2472 B( 18-C , 21-H ) :   0.9877
B( 19-C , 20-C ) :   1.5819 B( 19-C , 22-C ) :   1.0503 B( 22-C , 23-H ) :   0.9440
B( 22-C , 24-H ) :   0.9331 B( 22-C , 25-C ) :   1.0474 B( 25-C , 26-H ) :   0.9595
B( 25-C , 27-H ) :   0.9639 B( 25-C , 28-C ) :   1.0710 B( 28-C , 29-H ) :   0.9767
B( 28-C , 30-H ) :   0.9740 B( 28-C , 31-H ) :   0.9760

Dispersion correction           -0.013981588
FINAL SINGLE POINT ENERGY     -1339.880658548079

DIPOLE MOMENT
-------------
                                X             Y             Z
Electronic contribution:    -16.60076      -4.17011     -17.88042
Nuclear contribution   :     16.95539       4.34798      18.21920
                        -----------------------------------------
Total Dipole Moment    :      0.35464       0.17787       0.33878
                        -----------------------------------------
Magnitude (a.u.)       :      0.52170
Magnitude (Debye)      :      1.32607

Rotational constants in cm-1:     0.017870     0.008277     0.006605
Rotational constants in MHz :   535.737526   248.141488   197.998139

                             ****ORCA TERMINATED NORMALLY****
TOTAL RUN TIME: 0 days 0 hours 0 minutes 32 seconds 826 msec
