                         Program Version 4.2.1 -  RELEASE  -
|  1> ! wB97X-D3 SP def2-SVP
|  2> %pal
|  3> nprocs 16
|  4> end
|  5>
|  6> * xyz 0 1
|  7> S 	 22.1074 	 32.6412 	 54.5355
|  8> C 	 22.159 	 31.3757 	 55.6542
|  9> C 	 22.242 	 31.8754 	 56.9439
| 10> C 	 22.5352 	 33.2952 	 57.0051
| 11> C 	 22.6881 	 33.8087 	 55.7044
| 12> H 	 22.7162 	 33.8535 	 57.8855
| 13> C 	 22.2112 	 30.9887 	 58.1566
| 14> H 	 23.1915 	 31.0792 	 58.6276
| 15> H 	 22.1368 	 29.9411 	 57.7298
| 16> C 	 21.1518 	 31.1991 	 59.2156
| 17> H 	 21.1741 	 32.2264 	 59.577
| 18> H 	 20.1727 	 31.1326 	 58.7189
| 19> C 	 21.2213 	 30.236 	 60.4283
| 20> H 	 21.1281 	 29.2231 	 59.9486
| 21> H 	 22.1629 	 30.3104 	 60.9131
| 22> H 	 20.3331 	 30.3197 	 61.0756
| 23> S 	 24.9685 	 35.4198 	 55.7736
| 24> C 	 24.9248 	 37.0529 	 55.1864
| 25> C 	 23.6196 	 37.3779 	 54.9699
| 26> C 	 22.6543 	 36.2763 	 55.0836
| 27> C 	 23.2222 	 35.1186 	 55.4069
| 28> H 	 23.3697 	 38.3928 	 54.7422
| 29> C 	 21.2179 	 36.4938 	 54.6786
| 30> H 	 20.8167 	 35.5317 	 54.5329
| 31> H 	 21.2325 	 36.9877 	 53.703
| 32> C 	 20.3493 	 37.3919 	 55.5472
| 33> H 	 19.4323 	 37.4251 	 55.0124
| 34> H 	 20.817 	 38.3486 	 55.5217
| 35> C 	 20.0942 	 36.7244 	 56.9664
| 36> H 	 19.7576 	 35.671 	 56.9413
| 37> H 	 19.4233 	 37.285 	 57.6576
| 38> H 	 21.0445 	 36.708 	 57.4338
| 39> H 	 22.1174 	 30.3396 	 55.581
| 40> H 	 25.7243 	 37.8102 	 55.3331
| 41> *
| 42>
| 43>                          ****END OF INPUT****

CARTESIAN COORDINATES (ANGSTROEM)
---------------------------------
  S     22.107400   32.641200   54.535500
  C     22.159000   31.375700   55.654200
  C     22.242000   31.875400   56.943900
  C     22.535200   33.295200   57.005100
  C     22.688100   33.808700   55.704400
  H     22.716200   33.853500   57.885500
  C     22.211200   30.988700   58.156600
  H     23.191500   31.079200   58.627600
  H     22.136800   29.941100   57.729800
  C     21.151800   31.199100   59.215600
  H     21.174100   32.226400   59.577000
  H     20.172700   31.132600   58.718900
  C     21.221300   30.236000   60.428300
  H     21.128100   29.223100   59.948600
  H     22.162900   30.310400   60.913100
  H     20.333100   30.319700   61.075600
  S     24.968500   35.419800   55.773600
  C     24.924800   37.052900   55.186400
  C     23.619600   37.377900   54.969900
  C     22.654300   36.276300   55.083600
  C     23.222200   35.118600   55.406900
  H     23.369700   38.392800   54.742200
  C     21.217900   36.493800   54.678600
  H     20.816700   35.531700   54.532900
  H     21.232500   36.987700   53.703000
  C     20.349300   37.391900   55.547200
  H     19.432300   37.425100   55.012400
  H     20.817000   38.348600   55.521700
  C     20.094200   36.724400   56.966400
  H     19.757600   35.671000   56.941300
  H     19.423300   37.285000   57.657600
  H     21.044500   36.708000   57.433800
  H     22.117400   30.339600   55.581000
  H     25.724300   37.810200   55.333100

 Total Charge           Charge          ....    0
 Multiplicity           Mult            ....    1
 Number of Electrons    NEL             ....  134
 Basis Dimension        Dim             ....  322

ORBITAL ENERGIES
----------------

  NO   OCC          E(Eh)            E(eV)
   0   2.0000     -88.969861     -2420.9930
   1   2.0000     -88.957129     -2420.6465
   2   2.0000     -10.331993      -281.1478
   3   2.0000     -10.324204      -280.9359
   4   2.0000     -10.318276      -280.7746
   5   2.0000     -10.306733      -280.4605
   6   2.0000     -10.299660      -280.2680
   7   2.0000     -10.299002      -280.2501
   8   2.0000     -10.298130      -280.2264
   9   2.0000     -10.293318      -280.0954
  10   2.0000     -10.291445      -280.0445
  11   2.0000     -10.286868      -279.9199
  12   2.0000     -10.285031      -279.8699
  13   2.0000     -10.283652      -279.8324
  14   2.0000     -10.283324      -279.8235
  15   2.0000     -10.277891      -279.6756
  16   2.0000      -8.085089      -220.0065
  17   2.0000      -8.071811      -219.6452
  18   2.0000      -6.043649      -164.4560
  19   2.0000      -6.039516      -164.3436
  20   2.0000      -6.035782      -164.2420
  21   2.0000      -6.030576      -164.1003
  22   2.0000      -6.026415      -163.9871
  23   2.0000      -6.022161      -163.8713
  24   2.0000      -1.009344       -27.4656
  25   2.0000      -0.987851       -26.8808
  26   2.0000      -0.913151       -24.8481
  27   2.0000      -0.910051       -24.7637
  28   2.0000      -0.875964       -23.8362
  29   2.0000      -0.850897       -23.1541
  30   2.0000      -0.839931       -22.8557
  31   2.0000      -0.815664       -22.1954
  32   2.0000      -0.781762       -21.2728
  33   2.0000      -0.773655       -21.0522
  34   2.0000      -0.715784       -19.4775
  35   2.0000      -0.702433       -19.1142
  36   2.0000      -0.693428       -18.8691
  37   2.0000      -0.659967       -17.9586
  38   2.0000      -0.644006       -17.5243
  39   2.0000      -0.614729       -16.7276
  40   2.0000      -0.596575       -16.2336
  41   2.0000      -0.577943       -15.7266
  42   2.0000      -0.564636       -15.3645
  43   2.0000      -0.548816       -14.9340
  44   2.0000      -0.543317       -14.7844
  45   2.0000      -0.526962       -14.3394
  46   2.0000      -0.517335       -14.0774
  47   2.0000      -0.514290       -13.9945
  48   2.0000      -0.509371       -13.8607
  49   2.0000      -0.504256       -13.7215
  50   2.0000      -0.491882       -13.3848
  51   2.0000      -0.478963       -13.0333
  52   2.0000      -0.469573       -12.7777
  53   2.0000      -0.465189       -12.6584
  54   2.0000      -0.462389       -12.5823
  55   2.0000      -0.452244       -12.3062
  56   2.0000      -0.437965       -11.9176
  57   2.0000      -0.436816       -11.8864
  58   2.0000      -0.432036       -11.7563
  59   2.0000      -0.425646       -11.5824
  60   2.0000      -0.423697       -11.5294
  61   2.0000      -0.416345       -11.3293
  62   2.0000      -0.406321       -11.0566
  63   2.0000      -0.341126        -9.2825
  64   2.0000      -0.329045        -8.9538
  65   2.0000      -0.321334        -8.7440
  66   2.0000      -0.304728        -8.2921
  67   0.0000       0.037011         1.0071
  68   0.0000       0.054682         1.4880
  69   0.0000       0.101423         2.7599
  70   0.0000       0.124583         3.3901
  71   0.0000       0.130514         3.5515

MULLIKEN ATOMIC CHARGES
-----------------------
   0 S :    0.141716
   1 C :   -0.068963
   2 C :   -0.112149
   3 C :    0.065866
   4 C :   -0.195622
   5 H :    0.008081
   6 C :    0.045510
   7 H :    0.031705
   8 H :    0.012689
   9 C :   -0.084966
  10 H :    0.022802
  11 H :    0.025136
  12 C :   -0.036783
  13 H :    0.026891
  14 H :    0.034916
  15 H :    0.047126
  16 S :    0.079966
  17 C :   -0.087162
  18 C :   -0.041925
  19 C :   -0.010607
  20 C :   -0.169633
  21 H :    0.009114
  22 C :    0.070940
  23 H :   -0.004490
  24 H :    0.030628
  25 C :   -0.024039
  26 H :    0.026228
  27 H :    0.024403
  28 C :   -0.069705
  29 H :    0.041443
  30 H :    0.039754
  31 H :    0.026962
  32 H :    0.015914
  33 H :    0.078257
Sum of atomic charges:   -0.0000000

LOEWDIN ATOMIC CHARGES
----------------------
   0 S :    0.434399
   1 C :   -0.210099
   2 C :   -0.061881
   3 C :   -0.044685
   4 C :   -0.196162
   5 H :    0.026504
   6 C :   -0.038941
   7 H :    0.030182
   8 H :    0.030858
   9 C :   -0.046697
  10 H :    0.019168
  11 H :    0.025008
  12 C :   -0.061329
  13 H :    0.029959
  14 H :    0.020521
  15 H :    0.032337
  16 S :    0.373314
  17 C :   -0.189726
  18 C :   -0.073498
  19 C :   -0.055971
  20 C :   -0.181009
  21 H :    0.022595
  22 C :   -0.026060
  23 H :    0.015814
  24 H :    0.036308
  25 C :   -0.026003
  26 H :    0.022136
  27 H :    0.020298
  28 C :   -0.069687
  29 H :    0.031440
  30 H :    0.027519
  31 H :    0.019541
  32 H :    0.020079
  33 H :    0.043770

  Mayer bond orders larger than 0.100000
B(  0-S ,  1-C ) :   1.1415 B(  0-S ,  4-C ) :   1.1527 B(  1-C ,  2-C ) :   1.6102
B(  1-C , 32-H ) :   0.9707 B(  2-C ,  3-C ) :   1.2212 B(  2-C ,  6-C ) :   1.0372
B(  3-C ,  4-C ) :   1.5563 B(  3-C ,  5-H ) :   1.0038 B(  4-C , 20-C ) :   1.0375
B(  6-C ,  7-H ) :   0.9363 B(  6-C ,  8-H ) :   0.9371 B(  6-C ,  9-C ) :   1.0629
B(  9-C , 10-H ) :   0.9534 B(  9-C , 11-H ) :   0.9534 B(  9-C , 12-C ) :   1.0792
B( 12-C , 13-H ) :   0.9752 B( 12-C , 14-H ) :   0.9762 B( 12-C , 15-H ) :   0.9747
B( 16-S , 17-C ) :   1.1366 B( 16-S , 20-C ) :   1.0986 B( 17-C , 18-C ) :   1.6564
B( 17-C , 33-H ) :   0.9583 B( 18-C , 19-C ) :   1.1838 B( 18-C , 21-H ) :   0.9897
B( 19-C , 20-C ) :   1.6629 B( 19-C , 22-C ) :   1.0395 B( 22-C , 23-H ) :   0.9271
B( 22-C , 24-H ) :   0.9360 B( 22-C , 25-C ) :   1.0813 B( 25-C , 26-H ) :   0.9548
B( 25-C , 27-H ) :   0.9589 B( 25-C , 28-C ) :   1.0557 B( 28-C , 29-H ) :   0.9757
B( 28-C , 30-H ) :   0.9778 B( 28-C , 31-H ) :   0.9780

Dispersion correction           -0.014674848
FINAL SINGLE POINT ENERGY     -1339.865862402555

DIPOLE MOMENT
-------------
                                X             Y             Z
Electronic contribution:     16.28525       2.36926     -17.65432
Nuclear contribution   :    -16.61644      -2.21820      18.04796
                        -----------------------------------------
Total Dipole Moment    :     -0.33119       0.15106       0.39364
                        -----------------------------------------
Magnitude (a.u.)       :      0.53615
Magnitude (Debye)      :      1.36279

Rotational constants in cm-1:     0.019724     0.007780     0.007142
Rotational constants in MHz :   591.324768   233.228766   214.125381

                             ****ORCA TERMINATED NORMALLY****
TOTAL RUN TIME: 0 days 0 hours 0 minutes 33 seconds 663 msec
