                         Program Version 4.2.1 -  RELEASE  -
|  1> ! wB97X-D3 SP def2-SVP
|  2> %pal
|  3> nprocs 16
|  4> end
|  5>
|  6> * xyz 0 1
|  7> S 	 40.8916 	 19.8763 	 49.8005
|  8> C 	 40.6364 	 18.1866 	 50.0769
|  9> C 	 40.4743 	 17.4056 	 48.9131
| 10> C 	 40.9387 	 18.1727 	 47.8213
| 11> C 	 41.1446 	 19.5335 	 48.0864
| 12> H 	 41.0141 	 17.8233 	 46.7729
| 13> C 	 40.1535 	 15.8874 	 48.9478
| 14> H 	 39.0956 	 15.7278 	 48.8305
| 15> H 	 40.4704 	 15.5628 	 49.9743
| 16> C 	 40.8184 	 15.0433 	 47.8691
| 17> H 	 41.7833 	 15.2672 	 47.5622
| 18> H 	 40.8924 	 14.0671 	 48.3412
| 19> C 	 39.9463 	 14.9182 	 46.5704
| 20> H 	 40.3946 	 14.4315 	 45.7032
| 21> H 	 39.0457 	 14.3245 	 46.9365
| 22> H 	 39.6433 	 15.8625 	 46.2311
| 23> S 	 43.0706 	 21.4871 	 47.8065
| 24> C 	 43.2598 	 22.3019 	 46.2794
| 25> C 	 42.3269 	 21.8612 	 45.3695
| 26> C 	 41.4125 	 20.8641 	 45.8502
| 27> C 	 41.7515 	 20.4948 	 47.1758
| 28> H 	 42.1816 	 22.3024 	 44.3876
| 29> C 	 40.2448 	 20.3346 	 45.0836
| 30> H 	 39.4608 	 21.0681 	 45.1329
| 31> H 	 39.7482 	 19.5411 	 45.6333
| 32> C 	 40.5161 	 19.6574 	 43.6759
| 33> H 	 40.8943 	 20.4679 	 42.9241
| 34> H 	 39.5658 	 19.2687 	 43.2944
| 35> C 	 41.5126 	 18.4815 	 43.7051
| 36> H 	 41.5793 	 18.0264 	 42.741
| 37> H 	 41.0956 	 17.7384 	 44.3619
| 38> H 	 42.5653 	 18.7783 	 43.9668
| 39> H 	 40.3841 	 17.7902 	 51
| 40> H 	 43.8893 	 23.2052 	 46.1674
| 41> *
| 42>
| 43>                          ****END OF INPUT****

CARTESIAN COORDINATES (ANGSTROEM)
---------------------------------
  S     40.891600   19.876300   49.800500
  C     40.636400   18.186600   50.076900
  C     40.474300   17.405600   48.913100
  C     40.938700   18.172700   47.821300
  C     41.144600   19.533500   48.086400
  H     41.014100   17.823300   46.772900
  C     40.153500   15.887400   48.947800
  H     39.095600   15.727800   48.830500
  H     40.470400   15.562800   49.974300
  C     40.818400   15.043300   47.869100
  H     41.783300   15.267200   47.562200
  H     40.892400   14.067100   48.341200
  C     39.946300   14.918200   46.570400
  H     40.394600   14.431500   45.703200
  H     39.045700   14.324500   46.936500
  H     39.643300   15.862500   46.231100
  S     43.070600   21.487100   47.806500
  C     43.259800   22.301900   46.279400
  C     42.326900   21.861200   45.369500
  C     41.412500   20.864100   45.850200
  C     41.751500   20.494800   47.175800
  H     42.181600   22.302400   44.387600
  C     40.244800   20.334600   45.083600
  H     39.460800   21.068100   45.132900
  H     39.748200   19.541100   45.633300
  C     40.516100   19.657400   43.675900
  H     40.894300   20.467900   42.924100
  H     39.565800   19.268700   43.294400
  C     41.512600   18.481500   43.705100
  H     41.579300   18.026400   42.741000
  H     41.095600   17.738400   44.361900
  H     42.565300   18.778300   43.966800
  H     40.384100   17.790200   51.000000
  H     43.889300   23.205200   46.167400

 Total Charge           Charge          ....    0
 Multiplicity           Mult            ....    1
 Number of Electrons    NEL             ....  134
 Basis Dimension        Dim             ....  322

ORBITAL ENERGIES
----------------

  NO   OCC          E(Eh)            E(eV)
   0   2.0000     -88.970163     -2421.0012
   1   2.0000     -88.963567     -2420.8217
   2   2.0000     -10.328071      -281.0411
   3   2.0000     -10.327526      -281.0263
   4   2.0000     -10.317727      -280.7596
   5   2.0000     -10.308889      -280.5191
   6   2.0000     -10.304132      -280.3897
   7   2.0000     -10.304063      -280.3878
   8   2.0000     -10.301960      -280.3306
   9   2.0000     -10.301416      -280.3158
  10   2.0000     -10.296382      -280.1788
  11   2.0000     -10.293232      -280.0931
  12   2.0000     -10.291082      -280.0346
  13   2.0000     -10.284104      -279.8447
  14   2.0000     -10.283471      -279.8275
  15   2.0000     -10.280244      -279.7397
  16   2.0000      -8.084640      -219.9942
  17   2.0000      -8.078237      -219.8200
  18   2.0000      -6.042967      -164.4375
  19   2.0000      -6.039309      -164.3380
  20   2.0000      -6.036723      -164.2676
  21   2.0000      -6.035494      -164.2341
  22   2.0000      -6.032709      -164.1584
  23   2.0000      -6.029065      -164.0592
  24   2.0000      -1.002523       -27.2800
  25   2.0000      -0.980440       -26.6791
  26   2.0000      -0.912551       -24.8318
  27   2.0000      -0.903866       -24.5954
  28   2.0000      -0.866162       -23.5695
  29   2.0000      -0.850569       -23.1452
  30   2.0000      -0.844209       -22.9721
  31   2.0000      -0.812246       -22.1023
  32   2.0000      -0.785794       -21.3826
  33   2.0000      -0.771673       -20.9983
  34   2.0000      -0.709923       -19.3180
  35   2.0000      -0.698653       -19.0113
  36   2.0000      -0.692585       -18.8462
  37   2.0000      -0.653158       -17.7733
  38   2.0000      -0.640001       -17.4153
  39   2.0000      -0.620469       -16.8838
  40   2.0000      -0.598863       -16.2959
  41   2.0000      -0.572567       -15.5803
  42   2.0000      -0.552285       -15.0284
  43   2.0000      -0.546471       -14.8702
  44   2.0000      -0.544122       -14.8063
  45   2.0000      -0.533966       -14.5300
  46   2.0000      -0.517745       -14.0886
  47   2.0000      -0.505218       -13.7477
  48   2.0000      -0.499042       -13.5796
  49   2.0000      -0.489886       -13.3305
  50   2.0000      -0.488854       -13.3024
  51   2.0000      -0.484755       -13.1909
  52   2.0000      -0.472480       -12.8568
  53   2.0000      -0.465443       -12.6654
  54   2.0000      -0.455752       -12.4016
  55   2.0000      -0.447736       -12.1835
  56   2.0000      -0.445889       -12.1332
  57   2.0000      -0.443273       -12.0621
  58   2.0000      -0.439710       -11.9651
  59   2.0000      -0.430206       -11.7065
  60   2.0000      -0.423037       -11.5114
  61   2.0000      -0.418935       -11.3998
  62   2.0000      -0.405885       -11.0447
  63   2.0000      -0.346332        -9.4242
  64   2.0000      -0.331205        -9.0126
  65   2.0000      -0.329367        -8.9625
  66   2.0000      -0.283982        -7.7275
  67   0.0000       0.024037         0.6541
  68   0.0000       0.073392         1.9971
  69   0.0000       0.107076         2.9137
  70   0.0000       0.122305         3.3281
  71   0.0000       0.126112         3.4317

MULLIKEN ATOMIC CHARGES
-----------------------
   0 S :    0.126182
   1 C :   -0.102181
   2 C :   -0.085434
   3 C :    0.019709
   4 C :   -0.157763
   5 H :    0.005493
   6 C :    0.069783
   7 H :    0.034682
   8 H :    0.037988
   9 C :   -0.053063
  10 H :    0.019946
  11 H :    0.028366
  12 C :   -0.075582
  13 H :    0.042799
  14 H :    0.039163
  15 H :    0.019814
  16 S :    0.103007
  17 C :   -0.102794
  18 C :   -0.027263
  19 C :   -0.043204
  20 C :   -0.162457
  21 H :    0.017449
  22 C :    0.079292
  23 H :    0.035533
  24 H :    0.005507
  25 C :   -0.111660
  26 H :    0.041766
  27 H :    0.034313
  28 C :   -0.044469
  29 H :    0.028571
  30 H :    0.026783
  31 H :    0.057001
  32 H :    0.018455
  33 H :    0.074270
Sum of atomic charges:    0.0000000

LOEWDIN ATOMIC CHARGES
----------------------
   0 S :    0.412673
   1 C :   -0.191865
   2 C :   -0.059728
   3 C :   -0.062351
   4 C :   -0.198244
   5 H :    0.030869
   6 C :   -0.023795
   7 H :    0.032344
   8 H :    0.038777
   9 C :   -0.037755
  10 H :    0.013791
  11 H :    0.029159
  12 C :   -0.064077
  13 H :    0.027629
  14 H :    0.033208
  15 H :    0.010379
  16 S :    0.401572
  17 C :   -0.196079
  18 C :   -0.072546
  19 C :   -0.055976
  20 C :   -0.193835
  21 H :    0.030467
  22 C :   -0.040366
  23 H :    0.035538
  24 H :    0.029657
  25 C :   -0.039835
  26 H :    0.026372
  27 H :    0.024952
  28 C :   -0.067005
  29 H :    0.025089
  30 H :    0.019344
  31 H :    0.036178
  32 H :    0.007578
  33 H :    0.037880

  Mayer bond orders larger than 0.100000
B(  0-S ,  1-C ) :   1.1641 B(  0-S ,  4-C ) :   1.1442 B(  1-C ,  2-C ) :   1.5842
B(  1-C ,  4-C ) :   0.1006 B(  1-C , 32-H ) :   0.9683 B(  2-C ,  3-C ) :   1.2753
B(  2-C ,  6-C ) :   1.0107 B(  3-C ,  4-C ) :   1.5542 B(  3-C ,  5-H ) :   0.9762
B(  4-C , 20-C ) :   1.0627 B(  6-C ,  7-H ) :   0.9301 B(  6-C ,  8-H ) :   0.9498
B(  6-C ,  9-C ) :   1.0648 B(  9-C , 10-H ) :   0.9637 B(  9-C , 11-H ) :   0.9581
B(  9-C , 12-C ) :   1.0609 B( 12-C , 13-H ) :   0.9766 B( 12-C , 14-H ) :   0.9757
B( 12-C , 15-H ) :   0.9812 B( 16-S , 17-C ) :   1.1517 B( 16-S , 20-C ) :   1.1476
B( 17-C , 18-C ) :   1.5917 B( 17-C , 33-H ) :   0.9640 B( 18-C , 19-C ) :   1.2586
B( 18-C , 21-H ) :   0.9872 B( 19-C , 20-C ) :   1.5582 B( 19-C , 22-C ) :   1.0519
B( 22-C , 23-H ) :   0.9283 B( 22-C , 24-H ) :   0.9258 B( 22-C , 25-C ) :   1.0557
B( 25-C , 26-H ) :   0.9574 B( 25-C , 27-H ) :   0.9573 B( 25-C , 28-C ) :   1.0770
B( 28-C , 29-H ) :   0.9697 B( 28-C , 30-H ) :   0.9693 B( 28-C , 31-H ) :   0.9724

Dispersion correction           -0.015136183
FINAL SINGLE POINT ENERGY     -1339.874305355718

DIPOLE MOMENT
-------------
                                X             Y             Z
Electronic contribution:      8.61244      22.63853      19.35406
Nuclear contribution   :     -8.94147     -23.09632     -19.75770
                        -----------------------------------------
Total Dipole Moment    :     -0.32903      -0.45779      -0.40364
                        -----------------------------------------
Magnitude (a.u.)       :      0.69337
Magnitude (Debye)      :      1.76240

Rotational constants in cm-1:     0.017008     0.010424     0.007102
Rotational constants in MHz :   509.890366   312.507413   212.907238

                             ****ORCA TERMINATED NORMALLY****
TOTAL RUN TIME: 0 days 0 hours 0 minutes 35 seconds 641 msec
