                         Program Version 4.2.1 -  RELEASE  -
|  1> ! wB97X-D3 SP def2-SVP
|  2> %pal
|  3> nprocs 16
|  4> end
|  5>
|  6> * xyz 0 1
|  7> S 	 -113.499 	 53.5352 	 108.512
|  8> C 	 -112.405 	 53.1395 	 107.226
|  9> C 	 -111.148 	 53.0606 	 107.794
| 10> C 	 -111.079 	 53.366 	 109.2
| 11> C 	 -112.308 	 53.4995 	 109.787
| 12> H 	 -110.24 	 53.5708 	 109.762
| 13> C 	 -109.826 	 52.8963 	 107.035
| 14> H 	 -109.766 	 51.9699 	 106.5
| 15> H 	 -109.053 	 52.9021 	 107.904
| 16> C 	 -109.375 	 54.0681 	 106.092
| 17> H 	 -108.584 	 53.6985 	 105.524
| 18> H 	 -110.251 	 54.3303 	 105.499
| 19> C 	 -108.899 	 55.2644 	 106.849
| 20> H 	 -107.906 	 55.3269 	 107.244
| 21> H 	 -109.123 	 56.1095 	 106.236
| 22> H 	 -109.571 	 55.3073 	 107.633
| 23> S 	 -113.607 	 55.0642 	 111.544
| 24> C 	 -113.618 	 54.5328 	 113.269
| 25> C 	 -112.741 	 53.4738 	 113.551
| 26> C 	 -112.135 	 53.0338 	 112.304
| 27> C 	 -112.637 	 53.6893 	 111.165
| 28> H 	 -112.474 	 53.0992 	 114.587
| 29> C 	 -110.97 	 52.0679 	 112.253
| 30> H 	 -110.094 	 52.6413 	 111.906
| 31> H 	 -111.229 	 51.2946 	 111.524
| 32> C 	 -110.504 	 51.4639 	 113.607
| 33> H 	 -110.209 	 52.2087 	 114.472
| 34> H 	 -109.451 	 51.0972 	 113.41
| 35> C 	 -111.472 	 50.4601 	 114.212
| 36> H 	 -111.441 	 49.5535 	 113.583
| 37> H 	 -112.5 	 50.7035 	 114.572
| 38> H 	 -111.009 	 50.15 	 115.175
| 39> H 	 -112.527 	 53.1833 	 106.15
| 40> H 	 -113.94 	 55.0395 	 114.15
| 41> *
| 42>
| 43>                          ****END OF INPUT****

CARTESIAN COORDINATES (ANGSTROEM)
---------------------------------
  S    -113.499000   53.535200  108.512000
  C    -112.405000   53.139500  107.226000
  C    -111.148000   53.060600  107.794000
  C    -111.079000   53.366000  109.200000
  C    -112.308000   53.499500  109.787000
  H    -110.240000   53.570800  109.762000
  C    -109.826000   52.896300  107.035000
  H    -109.766000   51.969900  106.500000
  H    -109.053000   52.902100  107.904000
  C    -109.375000   54.068100  106.092000
  H    -108.584000   53.698500  105.524000
  H    -110.251000   54.330300  105.499000
  C    -108.899000   55.264400  106.849000
  H    -107.906000   55.326900  107.244000
  H    -109.123000   56.109500  106.236000
  H    -109.571000   55.307300  107.633000
  S    -113.607000   55.064200  111.544000
  C    -113.618000   54.532800  113.269000
  C    -112.741000   53.473800  113.551000
  C    -112.135000   53.033800  112.304000
  C    -112.637000   53.689300  111.165000
  H    -112.474000   53.099200  114.587000
  C    -110.970000   52.067900  112.253000
  H    -110.094000   52.641300  111.906000
  H    -111.229000   51.294600  111.524000
  C    -110.504000   51.463900  113.607000
  H    -110.209000   52.208700  114.472000
  H    -109.451000   51.097200  113.410000
  C    -111.472000   50.460100  114.212000
  H    -111.441000   49.553500  113.583000
  H    -112.500000   50.703500  114.572000
  H    -111.009000   50.150000  115.175000
  H    -112.527000   53.183300  106.150000
  H    -113.940000   55.039500  114.150000

 Total Charge           Charge          ....    0
 Multiplicity           Mult            ....    1
 Number of Electrons    NEL             ....  134
 Basis Dimension        Dim             ....  322

ORBITAL ENERGIES
----------------

  NO   OCC          E(Eh)            E(eV)
   0   2.0000     -88.972883     -2421.0752
   1   2.0000     -88.963092     -2420.8088
   2   2.0000     -10.325779      -280.9787
   3   2.0000     -10.323631      -280.9203
   4   2.0000     -10.321159      -280.8530
   5   2.0000     -10.314295      -280.6662
   6   2.0000     -10.308054      -280.4964
   7   2.0000     -10.305944      -280.4390
   8   2.0000     -10.305714      -280.4327
   9   2.0000     -10.300470      -280.2900
  10   2.0000     -10.296025      -280.1691
  11   2.0000     -10.292971      -280.0860
  12   2.0000     -10.286312      -279.9048
  13   2.0000     -10.286026      -279.8970
  14   2.0000     -10.279084      -279.7081
  15   2.0000     -10.260379      -279.1991
  16   2.0000      -8.086708      -220.0505
  17   2.0000      -8.078165      -219.8181
  18   2.0000      -6.045363      -164.5027
  19   2.0000      -6.041499      -164.3976
  20   2.0000      -6.037199      -164.2805
  21   2.0000      -6.036839      -164.2707
  22   2.0000      -6.032387      -164.1496
  23   2.0000      -6.028934      -164.0556
  24   2.0000      -1.009810       -27.4783
  25   2.0000      -0.981828       -26.7169
  26   2.0000      -0.912089       -24.8192
  27   2.0000      -0.906778       -24.6747
  28   2.0000      -0.874995       -23.8098
  29   2.0000      -0.851287       -23.1647
  30   2.0000      -0.843637       -22.9565
  31   2.0000      -0.819325       -22.2950
  32   2.0000      -0.782236       -21.2857
  33   2.0000      -0.770148       -20.9568
  34   2.0000      -0.707850       -19.2616
  35   2.0000      -0.702720       -19.1220
  36   2.0000      -0.691945       -18.8288
  37   2.0000      -0.657285       -17.8856
  38   2.0000      -0.643838       -17.5197
  39   2.0000      -0.613250       -16.6874
  40   2.0000      -0.588408       -16.0114
  41   2.0000      -0.578093       -15.7307
  42   2.0000      -0.558383       -15.1944
  43   2.0000      -0.552446       -15.0328
  44   2.0000      -0.546231       -14.8637
  45   2.0000      -0.526301       -14.3214
  46   2.0000      -0.521922       -14.2022
  47   2.0000      -0.514977       -14.0133
  48   2.0000      -0.511716       -13.9245
  49   2.0000      -0.499493       -13.5919
  50   2.0000      -0.490567       -13.3490
  51   2.0000      -0.481227       -13.0948
  52   2.0000      -0.476572       -12.9682
  53   2.0000      -0.464663       -12.6441
  54   2.0000      -0.456049       -12.4097
  55   2.0000      -0.455235       -12.3876
  56   2.0000      -0.445034       -12.1100
  57   2.0000      -0.438528       -11.9330
  58   2.0000      -0.425658       -11.5827
  59   2.0000      -0.417994       -11.3742
  60   2.0000      -0.415546       -11.3076
  61   2.0000      -0.406924       -11.0730
  62   2.0000      -0.404695       -11.0123
  63   2.0000      -0.350228        -9.5302
  64   2.0000      -0.330696        -8.9987
  65   2.0000      -0.325318        -8.8524
  66   2.0000      -0.288799        -7.8586
  67   0.0000       0.022895         0.6230
  68   0.0000       0.069711         1.8969
  69   0.0000       0.095848         2.6082
  70   0.0000       0.120442         3.2774
  71   0.0000       0.132028         3.5927

MULLIKEN ATOMIC CHARGES
-----------------------
   0 S :    0.104974
   1 C :   -0.099867
   2 C :   -0.097050
   3 C :    0.041806
   4 C :   -0.153971
   5 H :   -0.013320
   6 C :   -0.001791
   7 H :    0.034606
   8 H :    0.026820
   9 C :   -0.034365
  10 H :    0.018279
  11 H :    0.023116
  12 C :   -0.002817
  13 H :    0.033855
  14 H :    0.019641
  15 H :    0.001922
  16 S :    0.124886
  17 C :   -0.056323
  18 C :   -0.075662
  19 C :   -0.060267
  20 C :   -0.153103
  21 H :    0.054180
  22 C :    0.071751
  23 H :    0.045258
  24 H :    0.051247
  25 C :   -0.137795
  26 H :    0.037439
  27 H :    0.040279
  28 C :   -0.064155
  29 H :    0.040243
  30 H :    0.057353
  31 H :    0.025404
  32 H :    0.054729
  33 H :    0.042697
Sum of atomic charges:    0.0000000

LOEWDIN ATOMIC CHARGES
----------------------
   0 S :    0.414298
   1 C :   -0.208279
   2 C :   -0.067999
   3 C :   -0.064041
   4 C :   -0.195163
   5 H :    0.016712
   6 C :   -0.036222
   7 H :    0.025628
   8 H :    0.034758
   9 C :   -0.029310
  10 H :    0.015204
  11 H :    0.023180
  12 C :   -0.060207
  13 H :    0.024268
  14 H :    0.027645
  15 H :    0.017286
  16 S :    0.408990
  17 C :   -0.175011
  18 C :   -0.070171
  19 C :   -0.047424
  20 C :   -0.217041
  21 H :    0.047055
  22 C :   -0.038125
  23 H :    0.036164
  24 H :    0.040207
  25 C :   -0.059638
  26 H :    0.031026
  27 H :    0.035135
  28 C :   -0.083351
  29 H :    0.029620
  30 H :    0.033529
  31 H :    0.030295
  32 H :    0.036192
  33 H :    0.024790

  Mayer bond orders larger than 0.100000
B(  0-S ,  1-C ) :   1.1363 B(  0-S ,  4-C ) :   1.1554 B(  1-C ,  2-C ) :   1.5942
B(  1-C , 32-H ) :   0.9719 B(  2-C ,  3-C ) :   1.2454 B(  2-C ,  6-C ) :   1.0141
B(  3-C ,  4-C ) :   1.5519 B(  3-C ,  5-H ) :   1.0033 B(  4-C , 20-C ) :   1.0632
B(  6-C ,  7-H ) :   0.9437 B(  6-C ,  8-H ) :   0.9520 B(  6-C ,  9-C ) :   1.0665
B(  9-C , 10-H ) :   0.9546 B(  9-C , 11-H ) :   0.9584 B(  9-C , 12-C ) :   1.0808
B( 12-C , 13-H ) :   0.9735 B( 12-C , 14-H ) :   0.9672 B( 12-C , 15-H ) :   0.9761
B( 16-S , 17-C ) :   1.1383 B( 16-S , 20-C ) :   1.1418 B( 17-C , 18-C ) :   1.6219
B( 17-C , 20-C ) :   0.1004 B( 17-C , 33-H ) :   0.9595 B( 18-C , 19-C ) :   1.2545
B( 18-C , 21-H ) :   0.9664 B( 19-C , 20-C ) :   1.5872 B( 19-C , 22-C ) :   1.0332
B( 22-C , 23-H ) :   0.9329 B( 22-C , 24-H ) :   0.9251 B( 22-C , 25-C ) :   1.0776
B( 25-C , 26-H ) :   0.9536 B( 25-C , 27-H ) :   0.9519 B( 25-C , 28-C ) :   1.0648
B( 28-C , 29-H ) :   0.9726 B( 28-C , 30-H ) :   0.9742 B( 28-C , 31-H ) :   0.9700

Dispersion correction           -0.014346832
FINAL SINGLE POINT ENERGY     -1339.836444041830

DIPOLE MOMENT
-------------
                                X             Y             Z
Electronic contribution:    -22.02260       8.76897      -1.20255
Nuclear contribution   :     22.79313      -8.88206       1.44676
                        -----------------------------------------
Total Dipole Moment    :      0.77053      -0.11309       0.24421
                        -----------------------------------------
Magnitude (a.u.)       :      0.81618
Magnitude (Debye)      :      2.07456

Rotational constants in cm-1:     0.020300     0.008011     0.006729
Rotational constants in MHz :   608.592592   240.175200   201.716460

                             ****ORCA TERMINATED NORMALLY****
TOTAL RUN TIME: 0 days 0 hours 0 minutes 35 seconds 255 msec
