                         Program Version 4.2.1 -  RELEASE  -
|  1> ! wB97X-D3 SP def2-SVP
|  2> %pal
|  3> nprocs 16
|  4> end
|  5>
|  6> * xyz 0 1
|  7> S 	 -35.8852 	 71.1991 	 168.326
|  8> C 	 -35.2612 	 71.913 	 166.848
|  9> C 	 -34.778 	 73.1497 	 167.066
| 10> C 	 -34.8495 	 73.5636 	 168.48
| 11> C 	 -35.46 	 72.6223 	 169.276
| 12> H 	 -34.4629 	 74.4685 	 168.889
| 13> C 	 -33.8994 	 73.8442 	 166.051
| 14> H 	 -34.3886 	 73.9031 	 165.086
| 15> H 	 -33.077 	 73.143 	 165.888
| 16> C 	 -33.2885 	 75.2376 	 166.23
| 17> H 	 -34.077 	 75.9352 	 166.288
| 18> H 	 -32.6634 	 75.203 	 167.142
| 19> C 	 -32.5363 	 75.8191 	 165.027
| 20> H 	 -32.2315 	 76.8795 	 165.136
| 21> H 	 -31.6287 	 75.2296 	 164.882
| 22> H 	 -33.0495 	 75.7315 	 164.106
| 23> S 	 -35.1837 	 71.2783 	 171.675
| 24> C 	 -35.7823 	 72.0042 	 173.122
| 25> C 	 -36.4142 	 73.2085 	 172.874
| 26> C 	 -36.4606 	 73.5696 	 171.458
| 27> C 	 -35.7491 	 72.6259 	 170.688
| 28> H 	 -36.9127 	 73.7072 	 173.699
| 29> C 	 -37.1895 	 74.762 	 170.913
| 30> H 	 -36.6198 	 75.2456 	 170.115
| 31> H 	 -37.316 	 75.3753 	 171.714
| 32> C 	 -38.6319 	 74.4611 	 170.4
| 33> H 	 -39.0169 	 75.3913 	 170.032
| 34> H 	 -39.1666 	 74.2299 	 171.312
| 35> C 	 -38.7924 	 73.2742 	 169.467
| 36> H 	 -38.3214 	 72.4447 	 169.923
| 37> H 	 -38.0925 	 73.3572 	 168.656
| 38> H 	 -39.8894 	 73.1133 	 169.237
| 39> H 	 -35.2471 	 71.3907 	 165.848
| 40> H 	 -35.8258 	 71.5594 	 174.101
| 41> *
| 42>
| 43>                          ****END OF INPUT****

CARTESIAN COORDINATES (ANGSTROEM)
---------------------------------
  S    -35.885200   71.199100  168.326000
  C    -35.261200   71.913000  166.848000
  C    -34.778000   73.149700  167.066000
  C    -34.849500   73.563600  168.480000
  C    -35.460000   72.622300  169.276000
  H    -34.462900   74.468500  168.889000
  C    -33.899400   73.844200  166.051000
  H    -34.388600   73.903100  165.086000
  H    -33.077000   73.143000  165.888000
  C    -33.288500   75.237600  166.230000
  H    -34.077000   75.935200  166.288000
  H    -32.663400   75.203000  167.142000
  C    -32.536300   75.819100  165.027000
  H    -32.231500   76.879500  165.136000
  H    -31.628700   75.229600  164.882000
  H    -33.049500   75.731500  164.106000
  S    -35.183700   71.278300  171.675000
  C    -35.782300   72.004200  173.122000
  C    -36.414200   73.208500  172.874000
  C    -36.460600   73.569600  171.458000
  C    -35.749100   72.625900  170.688000
  H    -36.912700   73.707200  173.699000
  C    -37.189500   74.762000  170.913000
  H    -36.619800   75.245600  170.115000
  H    -37.316000   75.375300  171.714000
  C    -38.631900   74.461100  170.400000
  H    -39.016900   75.391300  170.032000
  H    -39.166600   74.229900  171.312000
  C    -38.792400   73.274200  169.467000
  H    -38.321400   72.444700  169.923000
  H    -38.092500   73.357200  168.656000
  H    -39.889400   73.113300  169.237000
  H    -35.247100   71.390700  165.848000
  H    -35.825800   71.559400  174.101000

 Total Charge           Charge          ....    0
 Multiplicity           Mult            ....    1
 Number of Electrons    NEL             ....  134
 Basis Dimension        Dim             ....  322

ORBITAL ENERGIES
----------------

  NO   OCC          E(Eh)            E(eV)
   0   2.0000     -88.967589     -2420.9312
   1   2.0000     -88.963658     -2420.8242
   2   2.0000     -10.330875      -281.1174
   3   2.0000     -10.327345      -281.0214
   4   2.0000     -10.316952      -280.7385
   5   2.0000     -10.315578      -280.7011
   6   2.0000     -10.308938      -280.5205
   7   2.0000     -10.304252      -280.3930
   8   2.0000     -10.298313      -280.2313
   9   2.0000     -10.297334      -280.2047
  10   2.0000     -10.290582      -280.0210
  11   2.0000     -10.286887      -279.9204
  12   2.0000     -10.282401      -279.7983
  13   2.0000     -10.280035      -279.7340
  14   2.0000     -10.277454      -279.6637
  15   2.0000     -10.263821      -279.2928
  16   2.0000      -8.082392      -219.9331
  17   2.0000      -8.078218      -219.8195
  18   2.0000      -6.040917      -164.3817
  19   2.0000      -6.036886      -164.2720
  20   2.0000      -6.036824      -164.2703
  21   2.0000      -6.033191      -164.1715
  22   2.0000      -6.032731      -164.1590
  23   2.0000      -6.028821      -164.0526
  24   2.0000      -1.006048       -27.3760
  25   2.0000      -0.982754       -26.7421
  26   2.0000      -0.913585       -24.8599
  27   2.0000      -0.910458       -24.7748
  28   2.0000      -0.875068       -23.8118
  29   2.0000      -0.848155       -23.0795
  30   2.0000      -0.842533       -22.9265
  31   2.0000      -0.818102       -22.2617
  32   2.0000      -0.787621       -21.4322
  33   2.0000      -0.774238       -21.0681
  34   2.0000      -0.714559       -19.4441
  35   2.0000      -0.695327       -18.9208
  36   2.0000      -0.687933       -18.7196
  37   2.0000      -0.657648       -17.8955
  38   2.0000      -0.641237       -17.4490
  39   2.0000      -0.621180       -16.9032
  40   2.0000      -0.591944       -16.1076
  41   2.0000      -0.578529       -15.7426
  42   2.0000      -0.565728       -15.3942
  43   2.0000      -0.552240       -15.0272
  44   2.0000      -0.546185       -14.8624
  45   2.0000      -0.521873       -14.2009
  46   2.0000      -0.514349       -13.9961
  47   2.0000      -0.512861       -13.9557
  48   2.0000      -0.507286       -13.8039
  49   2.0000      -0.502749       -13.6805
  50   2.0000      -0.490842       -13.3565
  51   2.0000      -0.481129       -13.0922
  52   2.0000      -0.476193       -12.9579
  53   2.0000      -0.463043       -12.6001
  54   2.0000      -0.461852       -12.5676
  55   2.0000      -0.449807       -12.2399
  56   2.0000      -0.445925       -12.1342
  57   2.0000      -0.431469       -11.7409
  58   2.0000      -0.428867       -11.6701
  59   2.0000      -0.424569       -11.5531
  60   2.0000      -0.420923       -11.4539
  61   2.0000      -0.411899       -11.2083
  62   2.0000      -0.409326       -11.1383
  63   2.0000      -0.347400        -9.4532
  64   2.0000      -0.329826        -8.9750
  65   2.0000      -0.327564        -8.9135
  66   2.0000      -0.294849        -8.0233
  67   0.0000       0.028414         0.7732
  68   0.0000       0.069753         1.8981
  69   0.0000       0.113777         3.0960
  70   0.0000       0.121157         3.2968
  71   0.0000       0.126971         3.4551

MULLIKEN ATOMIC CHARGES
-----------------------
   0 S :    0.099478
   1 C :   -0.149922
   2 C :   -0.031407
   3 C :    0.040931
   4 C :   -0.168822
   5 H :    0.010077
   6 C :   -0.000945
   7 H :    0.018363
   8 H :    0.038996
   9 C :   -0.059923
  10 H :    0.021274
  11 H :    0.041380
  12 C :   -0.048821
  13 H :    0.044934
  14 H :    0.022671
  15 H :    0.021437
  16 S :    0.120666
  17 C :   -0.081221
  18 C :   -0.046384
  19 C :   -0.067278
  20 C :   -0.174591
  21 H :    0.021555
  22 C :    0.133672
  23 H :    0.027862
  24 H :   -0.009874
  25 C :   -0.071848
  26 H :    0.024414
  27 H :    0.011545
  28 C :   -0.008529
  29 H :    0.016054
  30 H :    0.023955
  31 H :    0.053417
  32 H :    0.071262
  33 H :    0.055622
Sum of atomic charges:   -0.0000000

LOEWDIN ATOMIC CHARGES
----------------------
   0 S :    0.393158
   1 C :   -0.198856
   2 C :   -0.064425
   3 C :   -0.057324
   4 C :   -0.186194
   5 H :    0.027507
   6 C :   -0.040864
   7 H :    0.028888
   8 H :    0.035366
   9 C :   -0.042109
  10 H :    0.018880
  11 H :    0.026820
  12 C :   -0.061416
  13 H :    0.034057
  14 H :    0.022993
  15 H :    0.019150
  16 S :    0.413984
  17 C :   -0.192063
  18 C :   -0.074005
  19 C :   -0.044333
  20 C :   -0.208620
  21 H :    0.031512
  22 C :   -0.024442
  23 H :    0.031030
  24 H :    0.018297
  25 C :   -0.029913
  26 H :    0.018323
  27 H :    0.019023
  28 C :   -0.068909
  29 H :    0.018419
  30 H :    0.022544
  31 H :    0.037900
  32 H :    0.044126
  33 H :    0.031497

  Mayer bond orders larger than 0.100000
B(  0-S ,  1-C ) :   1.1149 B(  0-S ,  4-C ) :   1.1424 B(  1-C ,  2-C ) :   1.6523
B(  1-C , 32-H ) :   0.9660 B(  2-C ,  3-C ) :   1.1954 B(  2-C ,  6-C ) :   1.0133
B(  3-C ,  4-C ) :   1.6073 B(  3-C ,  5-H ) :   0.9975 B(  4-C , 20-C ) :   1.0477
B(  6-C ,  7-H ) :   0.9374 B(  6-C ,  8-H ) :   0.9470 B(  6-C ,  9-C ) :   1.0767
B(  9-C , 10-H ) :   0.9550 B(  9-C , 11-H ) :   0.9486 B(  9-C , 12-C ) :   1.0855
B( 12-C , 13-H ) :   0.9741 B( 12-C , 14-H ) :   0.9750 B( 12-C , 15-H ) :   0.9728
B( 16-S , 17-C ) :   1.1558 B( 16-S , 20-C ) :   1.1412 B( 17-C , 18-C ) :   1.6210
B( 17-C , 33-H ) :   0.9653 B( 18-C , 19-C ) :   1.2378 B( 18-C , 21-H ) :   0.9841
B( 19-C , 20-C ) :   1.5656 B( 19-C , 22-C ) :   1.0527 B( 22-C , 23-H ) :   0.9289
B( 22-C , 24-H ) :   0.9161 B( 22-C , 25-C ) :   1.0750 B( 25-C , 26-H ) :   0.9567
B( 25-C , 27-H ) :   0.9525 B( 25-C , 28-C ) :   1.0903 B( 28-C , 29-H ) :   0.9596
B( 28-C , 30-H ) :   0.9672 B( 28-C , 31-H ) :   0.9704

Dispersion correction           -0.015306655
FINAL SINGLE POINT ENERGY     -1339.875880107017

DIPOLE MOMENT
-------------
                                X             Y             Z
Electronic contribution:      0.81270     -20.08281      14.42177
Nuclear contribution   :     -0.75999      20.60739     -14.56026
                        -----------------------------------------
Total Dipole Moment    :      0.05271       0.52459      -0.13849
                        -----------------------------------------
Magnitude (a.u.)       :      0.54511
Magnitude (Debye)      :      1.38557

Rotational constants in cm-1:     0.021099     0.007900     0.007395
Rotational constants in MHz :   632.528226   236.824698   221.709231

                             ****ORCA TERMINATED NORMALLY****
TOTAL RUN TIME: 0 days 0 hours 0 minutes 35 seconds 208 msec
