                         Program Version 4.2.1 -  RELEASE  -
|  1> ! wB97X-D3 SP def2-SVP
|  2> %pal
|  3> nprocs 16
|  4> end
|  5>
|  6> * xyz 0 1
|  7> S 	 -4.93366 	 51.5623 	 31.4927
|  8> C 	 -4.66668 	 49.8866 	 31.9211
|  9> C 	 -5.72316 	 49.4193 	 32.6995
| 10> C 	 -6.80562 	 50.3982 	 32.8544
| 11> C 	 -6.51064 	 51.602 	 32.2315
| 12> H 	 -7.73616 	 50.2572 	 33.3405
| 13> C 	 -5.87869 	 48.1259 	 33.4176
| 14> H 	 -5.21212 	 47.4386 	 32.8995
| 15> H 	 -6.89625 	 47.6678 	 33.1396
| 16> C 	 -5.74535 	 48.1792 	 35.0073
| 17> H 	 -4.6956 	 48.2818 	 35.2908
| 18> H 	 -6.30768 	 49.0198 	 35.4147
| 19> C 	 -6.23199 	 46.8567 	 35.6545
| 20> H 	 -7.10019 	 46.6839 	 35.1238
| 21> H 	 -5.51308 	 46.0388 	 35.5
| 22> H 	 -6.46576 	 46.9751 	 36.7006
| 23> S 	 -7.41394 	 53.651 	 30.8362
| 24> C 	 -8.40498 	 54.8588 	 31.5062
| 25> C 	 -8.81225 	 54.5623 	 32.8275
| 26> C 	 -8.10977 	 53.354 	 33.2824
| 27> C 	 -7.33997 	 52.796 	 32.2718
| 28> H 	 -9.44126 	 55.3409 	 33.3282
| 29> C 	 -8.2608 	 52.8595 	 34.6883
| 30> H 	 -7.37528 	 52.2845 	 34.9561
| 31> H 	 -9.18193 	 52.2225 	 34.8111
| 32> C 	 -8.3058 	 53.9573 	 35.7718
| 33> H 	 -9.28801 	 54.3627 	 35.7034
| 34> H 	 -7.56845 	 54.7325 	 35.5621
| 35> C 	 -8.14782 	 53.4247 	 37.1739
| 36> H 	 -7.25236 	 52.8264 	 37.3161
| 37> H 	 -8.9377 	 52.6811 	 37.3692
| 38> H 	 -8.05935 	 54.2073 	 37.9176
| 39> H 	 -3.77631 	 49.2372 	 31.837
| 40> H 	 -8.57325 	 55.8638 	 31.0802
| 41> *
| 42>
| 43>                          ****END OF INPUT****

CARTESIAN COORDINATES (ANGSTROEM)
---------------------------------
  S     -4.933660   51.562300   31.492700
  C     -4.666680   49.886600   31.921100
  C     -5.723160   49.419300   32.699500
  C     -6.805620   50.398200   32.854400
  C     -6.510640   51.602000   32.231500
  H     -7.736160   50.257200   33.340500
  C     -5.878690   48.125900   33.417600
  H     -5.212120   47.438600   32.899500
  H     -6.896250   47.667800   33.139600
  C     -5.745350   48.179200   35.007300
  H     -4.695600   48.281800   35.290800
  H     -6.307680   49.019800   35.414700
  C     -6.231990   46.856700   35.654500
  H     -7.100190   46.683900   35.123800
  H     -5.513080   46.038800   35.500000
  H     -6.465760   46.975100   36.700600
  S     -7.413940   53.651000   30.836200
  C     -8.404980   54.858800   31.506200
  C     -8.812250   54.562300   32.827500
  C     -8.109770   53.354000   33.282400
  C     -7.339970   52.796000   32.271800
  H     -9.441260   55.340900   33.328200
  C     -8.260800   52.859500   34.688300
  H     -7.375280   52.284500   34.956100
  H     -9.181930   52.222500   34.811100
  C     -8.305800   53.957300   35.771800
  H     -9.288010   54.362700   35.703400
  H     -7.568450   54.732500   35.562100
  C     -8.147820   53.424700   37.173900
  H     -7.252360   52.826400   37.316100
  H     -8.937700   52.681100   37.369200
  H     -8.059350   54.207300   37.917600
  H     -3.776310   49.237200   31.837000
  H     -8.573250   55.863800   31.080200

 Total Charge           Charge          ....    0
 Multiplicity           Mult            ....    1
 Number of Electrons    NEL             ....  134
 Basis Dimension        Dim             ....  322

ORBITAL ENERGIES
----------------

  NO   OCC          E(Eh)            E(eV)
   0   2.0000     -88.968863     -2420.9658
   1   2.0000     -88.965563     -2420.8760
   2   2.0000     -10.328729      -281.0590
   3   2.0000     -10.320906      -280.8461
   4   2.0000     -10.317653      -280.7576
   5   2.0000     -10.314998      -280.6854
   6   2.0000     -10.308373      -280.5051
   7   2.0000     -10.303129      -280.3624
   8   2.0000     -10.302226      -280.3378
   9   2.0000     -10.299283      -280.2577
  10   2.0000     -10.293377      -280.0970
  11   2.0000     -10.292324      -280.0684
  12   2.0000     -10.290977      -280.0317
  13   2.0000     -10.280715      -279.7525
  14   2.0000     -10.276729      -279.6440
  15   2.0000     -10.273422      -279.5540
  16   2.0000      -8.083350      -219.9591
  17   2.0000      -8.082685      -219.9410
  18   2.0000      -6.042056      -164.4127
  19   2.0000      -6.040954      -164.3827
  20   2.0000      -6.037872      -164.2988
  21   2.0000      -6.036728      -164.2677
  22   2.0000      -6.033913      -164.1911
  23   2.0000      -6.033676      -164.1847
  24   2.0000      -1.015037       -27.6206
  25   2.0000      -0.984756       -26.7966
  26   2.0000      -0.914658       -24.8891
  27   2.0000      -0.906523       -24.6677
  28   2.0000      -0.870482       -23.6870
  29   2.0000      -0.856159       -23.2973
  30   2.0000      -0.847074       -23.0501
  31   2.0000      -0.814021       -22.1506
  32   2.0000      -0.778725       -21.1902
  33   2.0000      -0.769003       -20.9256
  34   2.0000      -0.708446       -19.2778
  35   2.0000      -0.700479       -19.0610
  36   2.0000      -0.693712       -18.8769
  37   2.0000      -0.656462       -17.8632
  38   2.0000      -0.635254       -17.2861
  39   2.0000      -0.620204       -16.8766
  40   2.0000      -0.595921       -16.2158
  41   2.0000      -0.574815       -15.6415
  42   2.0000      -0.568318       -15.4647
  43   2.0000      -0.559164       -15.2156
  44   2.0000      -0.529919       -14.4198
  45   2.0000      -0.525598       -14.3023
  46   2.0000      -0.521230       -14.1834
  47   2.0000      -0.508873       -13.8471
  48   2.0000      -0.504800       -13.7363
  49   2.0000      -0.496945       -13.5226
  50   2.0000      -0.493330       -13.4242
  51   2.0000      -0.479588       -13.0502
  52   2.0000      -0.474348       -12.9077
  53   2.0000      -0.462716       -12.5911
  54   2.0000      -0.461318       -12.5531
  55   2.0000      -0.446853       -12.1595
  56   2.0000      -0.445328       -12.1180
  57   2.0000      -0.437454       -11.9037
  58   2.0000      -0.433209       -11.7882
  59   2.0000      -0.427665       -11.6374
  60   2.0000      -0.423161       -11.5148
  61   2.0000      -0.418878       -11.3983
  62   2.0000      -0.412929       -11.2364
  63   2.0000      -0.350268        -9.5313
  64   2.0000      -0.329558        -8.9677
  65   2.0000      -0.325646        -8.8613
  66   2.0000      -0.291809        -7.9405
  67   0.0000       0.030985         0.8431
  68   0.0000       0.079369         2.1598
  69   0.0000       0.111140         3.0243
  70   0.0000       0.116003         3.1566
  71   0.0000       0.127438         3.4678

MULLIKEN ATOMIC CHARGES
-----------------------
   0 S :    0.117543
   1 C :   -0.108127
   2 C :   -0.100613
   3 C :    0.019958
   4 C :   -0.125151
   5 H :    0.002920
   6 C :    0.016667
   7 H :    0.012919
   8 H :    0.037649
   9 C :   -0.070169
  10 H :    0.033901
  11 H :    0.035035
  12 C :   -0.017345
  13 H :    0.006285
  14 H :    0.038676
  15 H :    0.036011
  16 S :    0.129910
  17 C :   -0.117752
  18 C :   -0.066398
  19 C :   -0.037321
  20 C :   -0.144867
  21 H :    0.045943
  22 C :    0.023708
  23 H :    0.028128
  24 H :    0.048336
  25 C :   -0.081298
  26 H :    0.023706
  27 H :    0.036894
  28 C :   -0.028871
  29 H :    0.017862
  30 H :    0.024086
  31 H :    0.037688
  32 H :    0.055438
  33 H :    0.068648
Sum of atomic charges:    0.0000000

LOEWDIN ATOMIC CHARGES
----------------------
   0 S :    0.408548
   1 C :   -0.213343
   2 C :   -0.063057
   3 C :   -0.057339
   4 C :   -0.195806
   5 H :    0.025256
   6 C :   -0.044090
   7 H :    0.026171
   8 H :    0.037690
   9 C :   -0.030570
  10 H :    0.024465
  11 H :    0.023968
  12 C :   -0.058093
  13 H :    0.011723
  14 H :    0.028905
  15 H :    0.026384
  16 S :    0.462932
  17 C :   -0.214557
  18 C :   -0.076390
  19 C :   -0.056647
  20 C :   -0.226364
  21 H :    0.042773
  22 C :   -0.039101
  23 H :    0.029004
  24 H :    0.037258
  25 C :   -0.040583
  26 H :    0.018203
  27 H :    0.025782
  28 C :   -0.065394
  29 H :    0.021744
  30 H :    0.027387
  31 H :    0.027738
  32 H :    0.040590
  33 H :    0.034813

  Mayer bond orders larger than 0.100000
B(  0-S ,  1-C ) :   1.1156 B(  0-S ,  4-C ) :   1.1494 B(  1-C ,  2-C ) :   1.6355
B(  1-C , 32-H ) :   0.9598 B(  2-C ,  3-C ) :   1.2036 B(  2-C ,  6-C ) :   1.0455
B(  3-C ,  4-C ) :   1.5766 B(  3-C ,  5-H ) :   1.0037 B(  4-C , 20-C ) :   1.0352
B(  6-C ,  7-H ) :   0.9368 B(  6-C ,  8-H ) :   0.9421 B(  6-C ,  9-C ) :   1.0388
B(  9-C , 10-H ) :   0.9589 B(  9-C , 11-H ) :   0.9611 B(  9-C , 12-C ) :   1.0738
B( 12-C , 13-H ) :   0.9768 B( 12-C , 14-H ) :   0.9776 B( 12-C , 15-H ) :   0.9747
B( 16-S , 17-C ) :   1.1831 B( 16-S , 20-C ) :   1.1655 B( 17-C , 18-C ) :   1.5973
B( 17-C , 33-H ) :   0.9622 B( 18-C , 19-C ) :   1.2291 B( 18-C , 21-H ) :   0.9829
B( 19-C , 20-C ) :   1.5805 B( 19-C , 22-C ) :   1.0548 B( 22-C , 23-H ) :   0.9385
B( 22-C , 24-H ) :   0.9261 B( 22-C , 25-C ) :   1.0664 B( 25-C , 26-H ) :   0.9442
B( 25-C , 27-H ) :   0.9601 B( 25-C , 28-C ) :   1.0974 B( 28-C , 29-H ) :   0.9718
B( 28-C , 30-H ) :   0.9693 B( 28-C , 31-H ) :   0.9722

Dispersion correction           -0.013692368
FINAL SINGLE POINT ENERGY     -1339.876284750804

DIPOLE MOMENT
-------------
                                X             Y             Z
Electronic contribution:      5.62019      13.56562     -28.82445
Nuclear contribution   :     -5.78918     -13.72071      29.47993
                        -----------------------------------------
Total Dipole Moment    :     -0.16898      -0.15509       0.65548
                        -----------------------------------------
Magnitude (a.u.)       :      0.69445
Magnitude (Debye)      :      1.76515

Rotational constants in cm-1:     0.016327     0.009381     0.006428
Rotational constants in MHz :   489.469890   281.240778   192.705640

                             ****ORCA TERMINATED NORMALLY****
TOTAL RUN TIME: 0 days 0 hours 0 minutes 31 seconds 468 msec
