                         Program Version 4.2.1 -  RELEASE  -
|  1> ! wB97X-D3 SP def2-SVP
|  2> %pal
|  3> nprocs 16
|  4> end
|  5>
|  6> * xyz 0 1
|  7> S 	 8.76284 	 -10.2242 	 68.2884
|  8> C 	 10.2037 	 -9.32776 	 67.8724
|  9> C 	 10.1483 	 -7.96776 	 68.1613
| 10> C 	 8.8764 	 -7.60944 	 68.7591
| 11> C 	 8.04808 	 -8.72351 	 68.9005
| 12> H 	 8.57782 	 -6.60662 	 69.0956
| 13> C 	 11.078 	 -6.9695 	 67.669
| 14> H 	 11.9646 	 -7.40091 	 67.3509
| 15> H 	 11.1684 	 -6.35619 	 68.5477
| 16> C 	 10.6516 	 -5.95919 	 66.5926
| 17> H 	 9.6953 	 -5.47661 	 66.7369
| 18> H 	 11.4054 	 -5.19374 	 66.6774
| 19> C 	 10.6557 	 -6.62514 	 65.193
| 20> H 	 9.89166 	 -7.3977 	 65.106
| 21> H 	 10.4265 	 -5.79355 	 64.4944
| 22> H 	 11.5392 	 -7.17317 	 64.9572
| 23> S 	 5.48697 	 -9.14698 	 68.3278
| 24> C 	 4.21391 	 -8.67842 	 69.399
| 25> C 	 4.75102 	 -7.92263 	 70.4089
| 26> C 	 6.18399 	 -7.85563 	 70.461
| 27> C 	 6.7196 	 -8.61 	 69.461
| 28> H 	 3.96843 	 -7.56031 	 71.1167
| 29> C 	 6.91621 	 -7.08058 	 71.5402
| 30> H 	 6.4211 	 -6.09706 	 71.6138
| 31> H 	 7.98957 	 -6.82422 	 71.2783
| 32> C 	 6.96311 	 -7.6338 	 72.9864
| 33> H 	 5.94628 	 -7.53341 	 73.4644
| 34> H 	 7.59981 	 -7.04811 	 73.6146
| 35> C 	 7.18893 	 -9.16069 	 73.0007
| 36> H 	 8.16497 	 -9.34781 	 72.6129
| 37> H 	 6.38673 	 -9.83854 	 72.58
| 38> H 	 7.30992 	 -9.48407 	 74.01
| 39> H 	 11.0701 	 -9.75262 	 67.3918
| 40> H 	 3.22382 	 -9.12405 	 69.3722
| 41> *
| 42>
| 43>                          ****END OF INPUT****

CARTESIAN COORDINATES (ANGSTROEM)
---------------------------------
  S      8.762840  -10.224200   68.288400
  C     10.203700   -9.327760   67.872400
  C     10.148300   -7.967760   68.161300
  C      8.876400   -7.609440   68.759100
  C      8.048080   -8.723510   68.900500
  H      8.577820   -6.606620   69.095600
  C     11.078000   -6.969500   67.669000
  H     11.964600   -7.400910   67.350900
  H     11.168400   -6.356190   68.547700
  C     10.651600   -5.959190   66.592600
  H      9.695300   -5.476610   66.736900
  H     11.405400   -5.193740   66.677400
  C     10.655700   -6.625140   65.193000
  H      9.891660   -7.397700   65.106000
  H     10.426500   -5.793550   64.494400
  H     11.539200   -7.173170   64.957200
  S      5.486970   -9.146980   68.327800
  C      4.213910   -8.678420   69.399000
  C      4.751020   -7.922630   70.408900
  C      6.183990   -7.855630   70.461000
  C      6.719600   -8.610000   69.461000
  H      3.968430   -7.560310   71.116700
  C      6.916210   -7.080580   71.540200
  H      6.421100   -6.097060   71.613800
  H      7.989570   -6.824220   71.278300
  C      6.963110   -7.633800   72.986400
  H      5.946280   -7.533410   73.464400
  H      7.599810   -7.048110   73.614600
  C      7.188930   -9.160690   73.000700
  H      8.164970   -9.347810   72.612900
  H      6.386730   -9.838540   72.580000
  H      7.309920   -9.484070   74.010000
  H     11.070100   -9.752620   67.391800
  H      3.223820   -9.124050   69.372200

 Total Charge           Charge          ....    0
 Multiplicity           Mult            ....    1
 Number of Electrons    NEL             ....  134
 Basis Dimension        Dim             ....  322

ORBITAL ENERGIES
----------------

  NO   OCC          E(Eh)            E(eV)
   0   2.0000     -88.970670     -2421.0150
   1   2.0000     -88.955719     -2420.6082
   2   2.0000     -10.329108      -281.0693
   3   2.0000     -10.322172      -280.8806
   4   2.0000     -10.311845      -280.5996
   5   2.0000     -10.311604      -280.5930
   6   2.0000     -10.305585      -280.4292
   7   2.0000     -10.297944      -280.2213
   8   2.0000     -10.297688      -280.2143
   9   2.0000     -10.297395      -280.2064
  10   2.0000     -10.295200      -280.1466
  11   2.0000     -10.288609      -279.9673
  12   2.0000     -10.286728      -279.9161
  13   2.0000     -10.279810      -279.7279
  14   2.0000     -10.275061      -279.5986
  15   2.0000     -10.269917      -279.4586
  16   2.0000      -8.084754      -219.9973
  17   2.0000      -8.071560      -219.6383
  18   2.0000      -6.043303      -164.4466
  19   2.0000      -6.039480      -164.3426
  20   2.0000      -6.035397      -164.2315
  21   2.0000      -6.030125      -164.0881
  22   2.0000      -6.025903      -163.9732
  23   2.0000      -6.022179      -163.8718
  24   2.0000      -1.007947       -27.4276
  25   2.0000      -0.982969       -26.7480
  26   2.0000      -0.918811       -25.0021
  27   2.0000      -0.903999       -24.5991
  28   2.0000      -0.869709       -23.6660
  29   2.0000      -0.851584       -23.1728
  30   2.0000      -0.842665       -22.9301
  31   2.0000      -0.810713       -22.0606
  32   2.0000      -0.782702       -21.2984
  33   2.0000      -0.775598       -21.1051
  34   2.0000      -0.712211       -19.3802
  35   2.0000      -0.699689       -19.0395
  36   2.0000      -0.690817       -18.7981
  37   2.0000      -0.657660       -17.8959
  38   2.0000      -0.636436       -17.3183
  39   2.0000      -0.623688       -16.9714
  40   2.0000      -0.593701       -16.1554
  41   2.0000      -0.563596       -15.3362
  42   2.0000      -0.552924       -15.0458
  43   2.0000      -0.545811       -14.8523
  44   2.0000      -0.542922       -14.7737
  45   2.0000      -0.539185       -14.6720
  46   2.0000      -0.525509       -14.2998
  47   2.0000      -0.513680       -13.9779
  48   2.0000      -0.501370       -13.6430
  49   2.0000      -0.491727       -13.3806
  50   2.0000      -0.488390       -13.2898
  51   2.0000      -0.480944       -13.0872
  52   2.0000      -0.469520       -12.7763
  53   2.0000      -0.460394       -12.5280
  54   2.0000      -0.459111       -12.4931
  55   2.0000      -0.451339       -12.2816
  56   2.0000      -0.445511       -12.1230
  57   2.0000      -0.438799       -11.9403
  58   2.0000      -0.426168       -11.5966
  59   2.0000      -0.424221       -11.5436
  60   2.0000      -0.418466       -11.3870
  61   2.0000      -0.416722       -11.3396
  62   2.0000      -0.402522       -10.9532
  63   2.0000      -0.344465        -9.3734
  64   2.0000      -0.327581        -8.9139
  65   2.0000      -0.324585        -8.8324
  66   2.0000      -0.292397        -7.9565
  67   0.0000       0.027645         0.7523
  68   0.0000       0.075532         2.0553
  69   0.0000       0.107014         2.9120
  70   0.0000       0.116000         3.1565
  71   0.0000       0.128562         3.4983

MULLIKEN ATOMIC CHARGES
-----------------------
   0 S :    0.127560
   1 C :   -0.117909
   2 C :   -0.077762
   3 C :    0.007350
   4 C :   -0.149793
   5 H :    0.029544
   6 C :    0.091926
   7 H :   -0.004041
   8 H :    0.018227
   9 C :   -0.051959
  10 H :    0.028061
  11 H :    0.026061
  12 C :   -0.055983
  13 H :    0.037390
  14 H :    0.043019
  15 H :    0.018603
  16 S :    0.078599
  17 C :   -0.102518
  18 C :   -0.067815
  19 C :   -0.010490
  20 C :   -0.144799
  21 H :    0.033515
  22 C :    0.035356
  23 H :    0.031713
  24 H :    0.034214
  25 C :   -0.070946
  26 H :    0.023583
  27 H :    0.029025
  28 C :   -0.042941
  29 H :    0.021741
  30 H :    0.061397
  31 H :    0.013498
  32 H :    0.037766
  33 H :    0.068808
Sum of atomic charges:    0.0000000

LOEWDIN ATOMIC CHARGES
----------------------
   0 S :    0.401195
   1 C :   -0.202353
   2 C :   -0.061548
   3 C :   -0.052033
   4 C :   -0.194136
   5 H :    0.034645
   6 C :   -0.030980
   7 H :    0.020220
   8 H :    0.034542
   9 C :   -0.028031
  10 H :    0.023393
  11 H :    0.023323
  12 C :   -0.065825
  13 H :    0.027927
  14 H :    0.031684
  15 H :    0.017494
  16 S :    0.397413
  17 C :   -0.195909
  18 C :   -0.075391
  19 C :   -0.062838
  20 C :   -0.183636
  21 H :    0.038124
  22 C :   -0.040139
  23 H :    0.035705
  24 H :    0.033320
  25 C :   -0.039669
  26 H :    0.024231
  27 H :    0.022521
  28 C :   -0.071046
  29 H :    0.020476
  30 H :    0.039753
  31 H :    0.020285
  32 H :    0.023778
  33 H :    0.033506

  Mayer bond orders larger than 0.100000
B(  0-S ,  1-C ) :   1.1219 B(  0-S ,  4-C ) :   1.1430 B(  1-C ,  2-C ) :   1.6178
B(  1-C , 32-H ) :   0.9644 B(  2-C ,  3-C ) :   1.2095 B(  2-C ,  6-C ) :   1.0573
B(  3-C ,  4-C ) :   1.5825 B(  3-C ,  5-H ) :   0.9851 B(  4-C , 20-C ) :   1.0301
B(  6-C ,  7-H ) :   0.9369 B(  6-C ,  8-H ) :   0.9170 B(  6-C ,  9-C ) :   1.0803
B(  9-C , 10-H ) :   0.9532 B(  9-C , 11-H ) :   0.9545 B(  9-C , 12-C ) :   1.0696
B( 12-C , 13-H ) :   0.9776 B( 12-C , 14-H ) :   0.9749 B( 12-C , 15-H ) :   0.9763
B( 16-S , 17-C ) :   1.1412 B( 16-S , 20-C ) :   1.1524 B( 17-C , 18-C ) :   1.6349
B( 17-C , 33-H ) :   0.9667 B( 18-C , 19-C ) :   1.1945 B( 18-C , 21-H ) :   0.9854
B( 19-C , 20-C ) :   1.6156 B( 19-C , 22-C ) :   1.0441 B( 22-C , 23-H ) :   0.9312
B( 22-C , 24-H ) :   0.9396 B( 22-C , 25-C ) :   1.0734 B( 25-C , 26-H ) :   0.9539
B( 25-C , 27-H ) :   0.9572 B( 25-C , 28-C ) :   1.0814 B( 28-C , 29-H ) :   0.9767
B( 28-C , 30-H ) :   0.9684 B( 28-C , 31-H ) :   0.9704

Dispersion correction           -0.014911790
FINAL SINGLE POINT ENERGY     -1339.865319410903

DIPOLE MOMENT
-------------
                                X             Y             Z
Electronic contribution:    -10.74402     -14.01358      -6.18187
Nuclear contribution   :     10.95441      14.54360       6.44737
                        -----------------------------------------
Total Dipole Moment    :      0.21039       0.53002       0.26550
                        -----------------------------------------
Magnitude (a.u.)       :      0.62902
Magnitude (Debye)      :      1.59885

Rotational constants in cm-1:     0.020426     0.008386     0.007632
Rotational constants in MHz :   612.360668   251.396529   228.787521

                             ****ORCA TERMINATED NORMALLY****
TOTAL RUN TIME: 0 days 0 hours 0 minutes 35 seconds 930 msec
