                         Program Version 4.2.1 -  RELEASE  -
|  1> ! wB97X-D3 SP def2-SVP
|  2> %pal
|  3> nprocs 16
|  4> end
|  5>
|  6> * xyz 0 1
|  7> S 	 43.9753 	 22.8641 	 83.7268
|  8> C 	 44.7425 	 24.0618 	 84.6965
|  9> C 	 44.3631 	 23.8946 	 86.0326
| 10> C 	 43.4574 	 22.826 	 86.2447
| 11> C 	 43.1037 	 22.157 	 85.076
| 12> H 	 43.0351 	 22.5047 	 87.1581
| 13> C 	 44.7843 	 24.8467 	 87.1143
| 14> H 	 45.6879 	 25.447 	 86.9374
| 15> H 	 45.0302 	 24.109 	 87.8959
| 16> C 	 43.5933 	 25.6653 	 87.7078
| 17> H 	 43.1067 	 26.4078 	 87.0004
| 18> H 	 42.7207 	 25.0441 	 87.8037
| 19> C 	 43.8778 	 26.4854 	 88.9682
| 20> H 	 44.1919 	 25.8539 	 89.7492
| 21> H 	 44.735 	 27.0705 	 88.7561
| 22> H 	 43.0552 	 27.1907 	 89.2601
| 23> S 	 42.6935 	 20.0147 	 83.4225
| 24> C 	 41.2985 	 19.049 	 83.708
| 25> C 	 40.5817 	 19.4048 	 84.8094
| 26> C 	 41.1601 	 20.4846 	 85.5046
| 27> C 	 42.2381 	 20.9804 	 84.8186
| 28> H 	 39.7433 	 18.8707 	 85.1677
| 29> C 	 40.7036 	 20.8581 	 86.9189
| 30> H 	 39.5909 	 20.9767 	 86.7599
| 31> H 	 41.1293 	 21.785 	 87.1767
| 32> C 	 41.0798 	 19.894 	 88.0094
| 33> H 	 42.2033 	 19.9452 	 88.0095
| 34> H 	 40.7751 	 18.8967 	 87.7625
| 35> C 	 40.6027 	 20.0909 	 89.4953
| 36> H 	 39.5143 	 20.2261 	 89.5007
| 37> H 	 41.1134 	 20.8849 	 89.9599
| 38> H 	 40.9179 	 19.2389 	 90.1202
| 39> H 	 45.5585 	 24.6742 	 84.3911
| 40> H 	 41.0877 	 18.1135 	 83.2068
| 41> *
| 42>
| 43>                          ****END OF INPUT****

CARTESIAN COORDINATES (ANGSTROEM)
---------------------------------
  S     43.975300   22.864100   83.726800
  C     44.742500   24.061800   84.696500
  C     44.363100   23.894600   86.032600
  C     43.457400   22.826000   86.244700
  C     43.103700   22.157000   85.076000
  H     43.035100   22.504700   87.158100
  C     44.784300   24.846700   87.114300
  H     45.687900   25.447000   86.937400
  H     45.030200   24.109000   87.895900
  C     43.593300   25.665300   87.707800
  H     43.106700   26.407800   87.000400
  H     42.720700   25.044100   87.803700
  C     43.877800   26.485400   88.968200
  H     44.191900   25.853900   89.749200
  H     44.735000   27.070500   88.756100
  H     43.055200   27.190700   89.260100
  S     42.693500   20.014700   83.422500
  C     41.298500   19.049000   83.708000
  C     40.581700   19.404800   84.809400
  C     41.160100   20.484600   85.504600
  C     42.238100   20.980400   84.818600
  H     39.743300   18.870700   85.167700
  C     40.703600   20.858100   86.918900
  H     39.590900   20.976700   86.759900
  H     41.129300   21.785000   87.176700
  C     41.079800   19.894000   88.009400
  H     42.203300   19.945200   88.009500
  H     40.775100   18.896700   87.762500
  C     40.602700   20.090900   89.495300
  H     39.514300   20.226100   89.500700
  H     41.113400   20.884900   89.959900
  H     40.917900   19.238900   90.120200
  H     45.558500   24.674200   84.391100
  H     41.087700   18.113500   83.206800

 Total Charge           Charge          ....    0
 Multiplicity           Mult            ....    1
 Number of Electrons    NEL             ....  134
 Basis Dimension        Dim             ....  322

ORBITAL ENERGIES
----------------

  NO   OCC          E(Eh)            E(eV)
   0   2.0000     -88.969837     -2420.9923
   1   2.0000     -88.963708     -2420.8256
   2   2.0000     -10.333145      -281.1792
   3   2.0000     -10.328348      -281.0486
   4   2.0000     -10.313198      -280.6364
   5   2.0000     -10.308006      -280.4951
   6   2.0000     -10.301415      -280.3157
   7   2.0000     -10.301282      -280.3121
   8   2.0000     -10.296547      -280.1833
   9   2.0000     -10.295590      -280.1572
  10   2.0000     -10.292183      -280.0645
  11   2.0000     -10.291439      -280.0443
  12   2.0000     -10.287813      -279.9456
  13   2.0000     -10.287793      -279.9451
  14   2.0000     -10.283306      -279.8230
  15   2.0000     -10.274020      -279.5703
  16   2.0000      -8.084996      -220.0039
  17   2.0000      -8.078797      -219.8352
  18   2.0000      -6.043394      -164.4491
  19   2.0000      -6.039645      -164.3471
  20   2.0000      -6.037247      -164.2819
  21   2.0000      -6.035639      -164.2381
  22   2.0000      -6.033104      -164.1691
  23   2.0000      -6.029757      -164.0780
  24   2.0000      -1.012511       -27.5518
  25   2.0000      -0.989418       -26.9234
  26   2.0000      -0.913771       -24.8650
  27   2.0000      -0.908640       -24.7254
  28   2.0000      -0.868834       -23.6422
  29   2.0000      -0.857550       -23.3351
  30   2.0000      -0.848373       -23.0854
  31   2.0000      -0.818449       -22.2711
  32   2.0000      -0.790603       -21.5134
  33   2.0000      -0.771698       -20.9990
  34   2.0000      -0.708168       -19.2702
  35   2.0000      -0.699058       -19.0223
  36   2.0000      -0.694898       -18.9091
  37   2.0000      -0.668606       -18.1937
  38   2.0000      -0.645013       -17.5517
  39   2.0000      -0.625934       -17.0325
  40   2.0000      -0.600121       -16.3301
  41   2.0000      -0.572618       -15.5817
  42   2.0000      -0.563783       -15.3413
  43   2.0000      -0.552739       -15.0408
  44   2.0000      -0.527827       -14.3629
  45   2.0000      -0.525911       -14.3108
  46   2.0000      -0.521150       -14.1812
  47   2.0000      -0.513838       -13.9822
  48   2.0000      -0.506762       -13.7897
  49   2.0000      -0.503764       -13.7081
  50   2.0000      -0.495538       -13.4843
  51   2.0000      -0.484949       -13.1961
  52   2.0000      -0.474275       -12.9057
  53   2.0000      -0.466096       -12.6831
  54   2.0000      -0.464969       -12.6524
  55   2.0000      -0.458556       -12.4779
  56   2.0000      -0.450228       -12.2513
  57   2.0000      -0.441040       -12.0013
  58   2.0000      -0.440216       -11.9789
  59   2.0000      -0.424925       -11.5628
  60   2.0000      -0.418370       -11.3844
  61   2.0000      -0.414436       -11.2774
  62   2.0000      -0.401656       -10.9296
  63   2.0000      -0.357562        -9.7298
  64   2.0000      -0.337589        -9.1863
  65   2.0000      -0.328224        -8.9314
  66   2.0000      -0.283420        -7.7122
  67   0.0000       0.024363         0.6629
  68   0.0000       0.079941         2.1753
  69   0.0000       0.102840         2.7984
  70   0.0000       0.120161         3.2697
  71   0.0000       0.128993         3.5101

MULLIKEN ATOMIC CHARGES
-----------------------
   0 S :    0.089855
   1 C :   -0.099472
   2 C :   -0.090903
   3 C :    0.021597
   4 C :   -0.123256
   5 H :   -0.012135
   6 C :    0.073390
   7 H :    0.029053
   8 H :    0.027066
   9 C :   -0.100241
  10 H :    0.026524
  11 H :    0.014298
  12 C :   -0.016604
  13 H :    0.016937
  14 H :    0.015225
  15 H :    0.048895
  16 S :    0.119209
  17 C :   -0.073272
  18 C :   -0.018646
  19 C :   -0.075741
  20 C :   -0.135210
  21 H :   -0.000467
  22 C :    0.096617
  23 H :    0.033096
  24 H :   -0.001549
  25 C :   -0.086066
  26 H :    0.033067
  27 H :    0.020154
  28 C :   -0.029098
  29 H :    0.040572
  30 H :    0.019534
  31 H :    0.040048
  32 H :    0.044092
  33 H :    0.053434
Sum of atomic charges:    0.0000000

LOEWDIN ATOMIC CHARGES
----------------------
   0 S :    0.410590
   1 C :   -0.210609
   2 C :   -0.059203
   3 C :   -0.073067
   4 C :   -0.177355
   5 H :    0.020376
   6 C :   -0.032253
   7 H :    0.030767
   8 H :    0.036078
   9 C :   -0.049451
  10 H :    0.029649
  11 H :    0.017330
  12 C :   -0.063660
  13 H :    0.015741
  14 H :    0.020391
  15 H :    0.036948
  16 S :    0.415265
  17 C :   -0.188254
  18 C :   -0.064121
  19 C :   -0.054508
  20 C :   -0.191991
  21 H :    0.025979
  22 C :   -0.028214
  23 H :    0.036577
  24 H :    0.017664
  25 C :   -0.042028
  26 H :    0.030865
  27 H :    0.017744
  28 C :   -0.060968
  29 H :    0.027584
  30 H :    0.016274
  31 H :    0.034401
  32 H :    0.026123
  33 H :    0.029337

  Mayer bond orders larger than 0.100000
B(  0-S ,  1-C ) :   1.1416 B(  0-S ,  4-C ) :   1.1673 B(  1-C ,  2-C ) :   1.5842
B(  1-C ,  4-C ) :   0.1017 B(  1-C , 32-H ) :   0.9733 B(  2-C ,  3-C ) :   1.2578
B(  2-C ,  6-C ) :   1.0267 B(  3-C ,  4-C ) :   1.5489 B(  3-C ,  5-H ) :   0.9939
B(  4-C , 20-C ) :   1.0382 B(  6-C ,  7-H ) :   0.9492 B(  6-C ,  8-H ) :   0.9328
B(  6-C ,  9-C ) :   1.0481 B(  9-C , 10-H ) :   0.9529 B(  9-C , 11-H ) :   0.9557
B(  9-C , 12-C ) :   1.0791 B( 12-C , 13-H ) :   0.9757 B( 12-C , 14-H ) :   0.9717
B( 12-C , 15-H ) :   0.9734 B( 16-S , 17-C ) :   1.1508 B( 16-S , 20-C ) :   1.1404
B( 17-C , 18-C ) :   1.6134 B( 17-C , 33-H ) :   0.9639 B( 18-C , 19-C ) :   1.2457
B( 18-C , 21-H ) :   0.9954 B( 19-C , 20-C ) :   1.6174 B( 19-C , 22-C ) :   1.0417
B( 22-C , 23-H ) :   0.9244 B( 22-C , 24-H ) :   0.9289 B( 22-C , 25-C ) :   1.0674
B( 25-C , 26-H ) :   0.9515 B( 25-C , 27-H ) :   0.9571 B( 25-C , 28-C ) :   1.0804
B( 28-C , 29-H ) :   0.9758 B( 28-C , 30-H ) :   0.9765 B( 28-C , 31-H ) :   0.9732

Dispersion correction           -0.013742586
FINAL SINGLE POINT ENERGY     -1339.874196010426

DIPOLE MOMENT
-------------
                                X             Y             Z
Electronic contribution:      5.55686     -10.16386     -30.68008
Nuclear contribution   :     -5.68730      10.05321      31.37975
                        -----------------------------------------
Total Dipole Moment    :     -0.13043      -0.11065       0.69967
                        -----------------------------------------
Magnitude (a.u.)       :      0.72027
Magnitude (Debye)      :      1.83078

Rotational constants in cm-1:     0.016659     0.009336     0.006223
Rotational constants in MHz :   499.422585   279.898440   186.571083

                             ****ORCA TERMINATED NORMALLY****
TOTAL RUN TIME: 0 days 0 hours 0 minutes 28 seconds 241 msec
