                         Program Version 4.2.1 -  RELEASE  -
|  1> ! wB97X-D3 SP def2-SVP
|  2> %pal
|  3> nprocs 16
|  4> end
|  5>
|  6> * xyz 0 1
|  7> S 	 -5.94949 	 -13.9861 	 83.75
|  8> C 	 -5.34662 	 -13.394 	 82.1774
|  9> C 	 -4.78032 	 -12.1384 	 82.3259
| 10> C 	 -5.00724 	 -11.6573 	 83.6253
| 11> C 	 -5.60359 	 -12.5149 	 84.5124
| 12> H 	 -4.72131 	 -10.6851 	 84.0021
| 13> C 	 -4.00193 	 -11.3803 	 81.2774
| 14> H 	 -3.92422 	 -12.1096 	 80.4744
| 15> H 	 -2.97169 	 -11.0791 	 81.5855
| 16> C 	 -4.62815 	 -10.0907 	 80.7818
| 17> H 	 -5.6413 	 -10.3048 	 80.3814
| 18> H 	 -4.79275 	 -9.33127 	 81.5453
| 19> C 	 -3.67123 	 -9.50703 	 79.7244
| 20> H 	 -2.62764 	 -9.38527 	 80.1311
| 21> H 	 -3.69245 	 -10.0548 	 78.7739
| 22> H 	 -4.01699 	 -8.45764 	 79.4749
| 23> S 	 -5.49547 	 -13.3922 	 87.1044
| 24> C 	 -6.07047 	 -12.3723 	 88.4506
| 25> C 	 -6.52117 	 -11.2028 	 87.9401
| 26> C 	 -6.48338 	 -11.0954 	 86.5069
| 27> C 	 -6.01491 	 -12.2274 	 85.9053
| 28> H 	 -6.79143 	 -10.4182 	 88.6641
| 29> C 	 -6.83203 	 -9.80169 	 85.7361
| 30> H 	 -7.87966 	 -9.61295 	 85.9002
| 31> H 	 -6.75471 	 -10.0284 	 84.6611
| 32> C 	 -5.96738 	 -8.57606 	 86.1393
| 33> H 	 -4.95262 	 -8.90804 	 85.9727
| 34> H 	 -6.06508 	 -8.14878 	 87.084
| 35> C 	 -6.32323 	 -7.29673 	 85.2153
| 36> H 	 -6.2059 	 -7.49523 	 84.2009
| 37> H 	 -5.71811 	 -6.38273 	 85.298
| 38> H 	 -7.38056 	 -7.0006 	 85.4812
| 39> H 	 -5.357 	 -14.0479 	 81.2819
| 40> H 	 -5.84861 	 -12.6021 	 89.4912
| 41> *
| 42>
| 43>                          ****END OF INPUT****

CARTESIAN COORDINATES (ANGSTROEM)
---------------------------------
  S     -5.949490  -13.986100   83.750000
  C     -5.346620  -13.394000   82.177400
  C     -4.780320  -12.138400   82.325900
  C     -5.007240  -11.657300   83.625300
  C     -5.603590  -12.514900   84.512400
  H     -4.721310  -10.685100   84.002100
  C     -4.001930  -11.380300   81.277400
  H     -3.924220  -12.109600   80.474400
  H     -2.971690  -11.079100   81.585500
  C     -4.628150  -10.090700   80.781800
  H     -5.641300  -10.304800   80.381400
  H     -4.792750   -9.331270   81.545300
  C     -3.671230   -9.507030   79.724400
  H     -2.627640   -9.385270   80.131100
  H     -3.692450  -10.054800   78.773900
  H     -4.016990   -8.457640   79.474900
  S     -5.495470  -13.392200   87.104400
  C     -6.070470  -12.372300   88.450600
  C     -6.521170  -11.202800   87.940100
  C     -6.483380  -11.095400   86.506900
  C     -6.014910  -12.227400   85.905300
  H     -6.791430  -10.418200   88.664100
  C     -6.832030   -9.801690   85.736100
  H     -7.879660   -9.612950   85.900200
  H     -6.754710  -10.028400   84.661100
  C     -5.967380   -8.576060   86.139300
  H     -4.952620   -8.908040   85.972700
  H     -6.065080   -8.148780   87.084000
  C     -6.323230   -7.296730   85.215300
  H     -6.205900   -7.495230   84.200900
  H     -5.718110   -6.382730   85.298000
  H     -7.380560   -7.000600   85.481200
  H     -5.357000  -14.047900   81.281900
  H     -5.848610  -12.602100   89.491200

 Total Charge           Charge          ....    0
 Multiplicity           Mult            ....    1
 Number of Electrons    NEL             ....  134
 Basis Dimension        Dim             ....  322

ORBITAL ENERGIES
----------------

  NO   OCC          E(Eh)            E(eV)
   0   2.0000     -88.965785     -2420.8821
   1   2.0000     -88.960161     -2420.7290
   2   2.0000     -10.327914      -281.0368
   3   2.0000     -10.326327      -280.9936
   4   2.0000     -10.320752      -280.8419
   5   2.0000     -10.319386      -280.8048
   6   2.0000     -10.304690      -280.4049
   7   2.0000     -10.302046      -280.3329
   8   2.0000     -10.296427      -280.1800
   9   2.0000     -10.295629      -280.1583
  10   2.0000     -10.295404      -280.1522
  11   2.0000     -10.291613      -280.0490
  12   2.0000     -10.290718      -280.0247
  13   2.0000     -10.289297      -279.9860
  14   2.0000     -10.288171      -279.9554
  15   2.0000     -10.282985      -279.8143
  16   2.0000      -8.081130      -219.8987
  17   2.0000      -8.074963      -219.7309
  18   2.0000      -6.039603      -164.3460
  19   2.0000      -6.035460      -164.2332
  20   2.0000      -6.033626      -164.1833
  21   2.0000      -6.031975      -164.1384
  22   2.0000      -6.029487      -164.0707
  23   2.0000      -6.025513      -163.9626
  24   2.0000      -1.011864       -27.5342
  25   2.0000      -0.987614       -26.8743
  26   2.0000      -0.918128       -24.9835
  27   2.0000      -0.901344       -24.5268
  28   2.0000      -0.872207       -23.7339
  29   2.0000      -0.849797       -23.1241
  30   2.0000      -0.840754       -22.8781
  31   2.0000      -0.816891       -22.2287
  32   2.0000      -0.779828       -21.2202
  33   2.0000      -0.772154       -21.0114
  34   2.0000      -0.710705       -19.3393
  35   2.0000      -0.703783       -19.1509
  36   2.0000      -0.694377       -18.8950
  37   2.0000      -0.660064       -17.9612
  38   2.0000      -0.644177       -17.5289
  39   2.0000      -0.623317       -16.9613
  40   2.0000      -0.594125       -16.1670
  41   2.0000      -0.579787       -15.7768
  42   2.0000      -0.572141       -15.5688
  43   2.0000      -0.561061       -15.2672
  44   2.0000      -0.527471       -14.3532
  45   2.0000      -0.525818       -14.3082
  46   2.0000      -0.512459       -13.9447
  47   2.0000      -0.507771       -13.8171
  48   2.0000      -0.504682       -13.7331
  49   2.0000      -0.494296       -13.4505
  50   2.0000      -0.492926       -13.4132
  51   2.0000      -0.478834       -13.0297
  52   2.0000      -0.471155       -12.8208
  53   2.0000      -0.465621       -12.6702
  54   2.0000      -0.462482       -12.5848
  55   2.0000      -0.448394       -12.2014
  56   2.0000      -0.445666       -12.1272
  57   2.0000      -0.438202       -11.9241
  58   2.0000      -0.431508       -11.7419
  59   2.0000      -0.429217       -11.6796
  60   2.0000      -0.425048       -11.5661
  61   2.0000      -0.419348       -11.4110
  62   2.0000      -0.411657       -11.2018
  63   2.0000      -0.352989        -9.6053
  64   2.0000      -0.332809        -9.0562
  65   2.0000      -0.328148        -8.9293
  66   2.0000      -0.296610        -8.0712
  67   0.0000       0.033201         0.9034
  68   0.0000       0.073176         1.9912
  69   0.0000       0.106294         2.8924
  70   0.0000       0.122452         3.3321
  71   0.0000       0.128885         3.5071

MULLIKEN ATOMIC CHARGES
-----------------------
   0 S :    0.109879
   1 C :   -0.157958
   2 C :   -0.045102
   3 C :    0.009263
   4 C :   -0.135552
   5 H :   -0.004771
   6 C :    0.069224
   7 H :    0.013806
   8 H :    0.036698
   9 C :   -0.084978
  10 H :    0.033479
  11 H :    0.032727
  12 C :   -0.078290
  13 H :    0.041743
  14 H :    0.044519
  15 H :    0.035489
  16 S :    0.072497
  17 C :   -0.093957
  18 C :   -0.035813
  19 C :   -0.056285
  20 C :   -0.114331
  21 H :    0.029082
  22 C :    0.068191
  23 H :    0.025463
  24 H :    0.031198
  25 C :   -0.053575
  26 H :    0.032602
  27 H :    0.030058
  28 C :   -0.076463
  29 H :    0.016931
  30 H :    0.034763
  31 H :    0.040086
  32 H :    0.062363
  33 H :    0.067014
Sum of atomic charges:   -0.0000000

LOEWDIN ATOMIC CHARGES
----------------------
   0 S :    0.420031
   1 C :   -0.191401
   2 C :   -0.064123
   3 C :   -0.070526
   4 C :   -0.210621
   5 H :    0.026058
   6 C :   -0.031560
   7 H :    0.030100
   8 H :    0.036382
   9 C :   -0.043788
  10 H :    0.027923
  11 H :    0.022019
  12 C :   -0.072248
  13 H :    0.030132
  14 H :    0.026828
  15 H :    0.029759
  16 S :    0.378946
  17 C :   -0.170491
  18 C :   -0.072958
  19 C :   -0.061291
  20 C :   -0.190455
  21 H :    0.037267
  22 C :   -0.027106
  23 H :    0.027773
  24 H :    0.033827
  25 C :   -0.027258
  26 H :    0.021260
  27 H :    0.017217
  28 C :   -0.069408
  29 H :    0.010945
  30 H :    0.027540
  31 H :    0.031507
  32 H :    0.033450
  33 H :    0.034273

  Mayer bond orders larger than 0.100000
B(  0-S ,  1-C ) :   1.1421 B(  0-S ,  4-C ) :   1.1744 B(  1-C ,  2-C ) :   1.5837
B(  1-C ,  4-C ) :   0.1012 B(  1-C , 32-H ) :   0.9661 B(  2-C ,  3-C ) :   1.2522
B(  2-C ,  6-C ) :   1.0229 B(  3-C ,  4-C ) :   1.5688 B(  3-C ,  5-H ) :   0.9985
B(  4-C , 20-C ) :   0.9847 B(  6-C ,  7-H ) :   0.9385 B(  6-C ,  8-H ) :   0.9406
B(  6-C ,  9-C ) :   1.0620 B(  9-C , 10-H ) :   0.9513 B(  9-C , 11-H ) :   0.9566
B(  9-C , 12-C ) :   1.0815 B( 12-C , 13-H ) :   0.9708 B( 12-C , 14-H ) :   0.9764
B( 12-C , 15-H ) :   0.9739 B( 16-S , 17-C ) :   1.1324 B( 16-S , 20-C ) :   1.1374
B( 17-C , 18-C ) :   1.6402 B( 17-C , 33-H ) :   0.9687 B( 18-C , 19-C ) :   1.2067
B( 18-C , 21-H ) :   0.9887 B( 19-C , 20-C ) :   1.6455 B( 19-C , 22-C ) :   1.0372
B( 22-C , 23-H ) :   0.9300 B( 22-C , 24-H ) :   0.9407 B( 22-C , 25-C ) :   1.0487
B( 25-C , 26-H ) :   0.9602 B( 25-C , 27-H ) :   0.9610 B( 25-C , 28-C ) :   1.0657
B( 28-C , 29-H ) :   0.9798 B( 28-C , 30-H ) :   0.9777 B( 28-C , 31-H ) :   0.9779

Dispersion correction           -0.014018657
FINAL SINGLE POINT ENERGY     -1339.881477576357

DIPOLE MOMENT
-------------
                                X             Y             Z
Electronic contribution:     -4.17932     -29.47999      16.13141
Nuclear contribution   :      4.35874      30.24619     -16.33022
                        -----------------------------------------
Total Dipole Moment    :      0.17942       0.76620      -0.19880
                        -----------------------------------------
Magnitude (a.u.)       :      0.81165
Magnitude (Debye)      :      2.06305

Rotational constants in cm-1:     0.017065     0.009388     0.006406
Rotational constants in MHz :   511.584853   281.446932   192.047957

                             ****ORCA TERMINATED NORMALLY****
TOTAL RUN TIME: 0 days 0 hours 0 minutes 29 seconds 756 msec
