                         Program Version 4.2.1 -  RELEASE  -
|  1> ! wB97X-D3 SP def2-SVP
|  2> %pal
|  3> nprocs 16
|  4> end
|  5>
|  6> * xyz 0 1
|  7> S 	 -34.2186 	 64.5157 	 139.651
|  8> C 	 -33.1199 	 64.4457 	 138.306
|  9> C 	 -32.5413 	 65.7436 	 138.048
| 10> C 	 -32.6791 	 66.4954 	 139.228
| 11> C 	 -33.4469 	 65.8849 	 140.25
| 12> H 	 -32.1777 	 67.4811 	 139.342
| 13> C 	 -31.5209 	 66.1629 	 136.957
| 14> H 	 -31.3948 	 67.2667 	 136.945
| 15> H 	 -31.8233 	 65.7987 	 136.063
| 16> C 	 -30.1584 	 65.4548 	 137.107
| 17> H 	 -30.3956 	 64.4168 	 137.397
| 18> H 	 -29.8837 	 65.489 	 136.038
| 19> C 	 -29.173 	 65.9073 	 138.144
| 20> H 	 -29.6773 	 66.1405 	 139.112
| 21> H 	 -28.2597 	 65.2693 	 138.193
| 22> H 	 -28.7974 	 66.8669 	 137.817
| 23> S 	 -35.5329 	 67.3563 	 141.548
| 24> C 	 -35.2894 	 68.0102 	 143.116
| 25> C 	 -34.0692 	 67.6012 	 143.614
| 26> C 	 -33.2345 	 66.8021 	 142.666
| 27> C 	 -33.9261 	 66.5637 	 141.468
| 28> H 	 -33.64 	 67.9422 	 144.553
| 29> C 	 -31.8462 	 66.3325 	 142.962
| 30> H 	 -31.4771 	 65.6115 	 142.168
| 31> H 	 -31.9732 	 65.6703 	 143.856
| 32> C 	 -30.7942 	 67.3581 	 143.418
| 33> H 	 -30.078 	 66.7952 	 143.982
| 34> H 	 -31.1307 	 68.1662 	 144.146
| 35> C 	 -30.1662 	 67.9858 	 142.203
| 36> H 	 -30.9483 	 68.3563 	 141.455
| 37> H 	 -29.4208 	 67.2996 	 141.879
| 38> H 	 -29.4598 	 68.7313 	 142.559
| 39> H 	 -33.0906 	 63.7241 	 137.517
| 40> H 	 -36.0623 	 68.5616 	 143.659
| 41> *
| 42>
| 43>                          ****END OF INPUT****

CARTESIAN COORDINATES (ANGSTROEM)
---------------------------------
  S    -34.218600   64.515700  139.651000
  C    -33.119900   64.445700  138.306000
  C    -32.541300   65.743600  138.048000
  C    -32.679100   66.495400  139.228000
  C    -33.446900   65.884900  140.250000
  H    -32.177700   67.481100  139.342000
  C    -31.520900   66.162900  136.957000
  H    -31.394800   67.266700  136.945000
  H    -31.823300   65.798700  136.063000
  C    -30.158400   65.454800  137.107000
  H    -30.395600   64.416800  137.397000
  H    -29.883700   65.489000  136.038000
  C    -29.173000   65.907300  138.144000
  H    -29.677300   66.140500  139.112000
  H    -28.259700   65.269300  138.193000
  H    -28.797400   66.866900  137.817000
  S    -35.532900   67.356300  141.548000
  C    -35.289400   68.010200  143.116000
  C    -34.069200   67.601200  143.614000
  C    -33.234500   66.802100  142.666000
  C    -33.926100   66.563700  141.468000
  H    -33.640000   67.942200  144.553000
  C    -31.846200   66.332500  142.962000
  H    -31.477100   65.611500  142.168000
  H    -31.973200   65.670300  143.856000
  C    -30.794200   67.358100  143.418000
  H    -30.078000   66.795200  143.982000
  H    -31.130700   68.166200  144.146000
  C    -30.166200   67.985800  142.203000
  H    -30.948300   68.356300  141.455000
  H    -29.420800   67.299600  141.879000
  H    -29.459800   68.731300  142.559000
  H    -33.090600   63.724100  137.517000
  H    -36.062300   68.561600  143.659000

 Total Charge           Charge          ....    0
 Multiplicity           Mult            ....    1
 Number of Electrons    NEL             ....  134
 Basis Dimension        Dim             ....  322

ORBITAL ENERGIES
----------------

  NO   OCC          E(Eh)            E(eV)
   0   2.0000     -88.972970     -2421.0776
   1   2.0000     -88.959664     -2420.7155
   2   2.0000     -10.327326      -281.0208
   3   2.0000     -10.325344      -280.9669
   4   2.0000     -10.318672      -280.7854
   5   2.0000     -10.317178      -280.7447
   6   2.0000     -10.307068      -280.4696
   7   2.0000     -10.305206      -280.4189
   8   2.0000     -10.296731      -280.1883
   9   2.0000     -10.296232      -280.1747
  10   2.0000     -10.294974      -280.1405
  11   2.0000     -10.292801      -280.0814
  12   2.0000     -10.287858      -279.9469
  13   2.0000     -10.287046      -279.9248
  14   2.0000     -10.280323      -279.7418
  15   2.0000     -10.275461      -279.6095
  16   2.0000      -8.088481      -220.0988
  17   2.0000      -8.074545      -219.7195
  18   2.0000      -6.046613      -164.5367
  19   2.0000      -6.042951      -164.4371
  20   2.0000      -6.039516      -164.3436
  21   2.0000      -6.033193      -164.1715
  22   2.0000      -6.028936      -164.0557
  23   2.0000      -6.025239      -163.9551
  24   2.0000      -1.007061       -27.4035
  25   2.0000      -0.979788       -26.6614
  26   2.0000      -0.916777       -24.9468
  27   2.0000      -0.911375       -24.7998
  28   2.0000      -0.864835       -23.5334
  29   2.0000      -0.851374       -23.1671
  30   2.0000      -0.842365       -22.9219
  31   2.0000      -0.808025       -21.9875
  32   2.0000      -0.789130       -21.4733
  33   2.0000      -0.771888       -21.0041
  34   2.0000      -0.700066       -19.0498
  35   2.0000      -0.695922       -18.9370
  36   2.0000      -0.688681       -18.7400
  37   2.0000      -0.647481       -17.6189
  38   2.0000      -0.637010       -17.3339
  39   2.0000      -0.615758       -16.7556
  40   2.0000      -0.597532       -16.2597
  41   2.0000      -0.572111       -15.5679
  42   2.0000      -0.563086       -15.3223
  43   2.0000      -0.553376       -15.0581
  44   2.0000      -0.543233       -14.7821
  45   2.0000      -0.529814       -14.4170
  46   2.0000      -0.518931       -14.1208
  47   2.0000      -0.517127       -14.0717
  48   2.0000      -0.501911       -13.6577
  49   2.0000      -0.495208       -13.4753
  50   2.0000      -0.485300       -13.2057
  51   2.0000      -0.477142       -12.9837
  52   2.0000      -0.468365       -12.7448
  53   2.0000      -0.463174       -12.6036
  54   2.0000      -0.457993       -12.4626
  55   2.0000      -0.449015       -12.2183
  56   2.0000      -0.441256       -12.0072
  57   2.0000      -0.438225       -11.9247
  58   2.0000      -0.423610       -11.5270
  59   2.0000      -0.422581       -11.4990
  60   2.0000      -0.421083       -11.4583
  61   2.0000      -0.412356       -11.2208
  62   2.0000      -0.409077       -11.1316
  63   2.0000      -0.334449        -9.1008
  64   2.0000      -0.327401        -8.9090
  65   2.0000      -0.318917        -8.6782
  66   2.0000      -0.299268        -8.1435
  67   0.0000       0.031609         0.8601
  68   0.0000       0.058421         1.5897
  69   0.0000       0.104249         2.8367
  70   0.0000       0.120973         3.2918
  71   0.0000       0.128339         3.4923

MULLIKEN ATOMIC CHARGES
-----------------------
   0 S :    0.149785
   1 C :   -0.103252
   2 C :   -0.114335
   3 C :    0.013837
   4 C :   -0.180900
   5 H :    0.025181
   6 C :    0.100981
   7 H :    0.035435
   8 H :   -0.006658
   9 C :   -0.105044
  10 H :    0.025358
  11 H :    0.032961
  12 C :   -0.033453
  13 H :    0.046707
  14 H :    0.048302
  15 H :    0.010110
  16 S :    0.097886
  17 C :   -0.095847
  18 C :   -0.016485
  19 C :   -0.043639
  20 C :   -0.161311
  21 H :    0.016775
  22 C :    0.016581
  23 H :    0.048267
  24 H :    0.035707
  25 C :   -0.082007
  26 H :    0.017004
  27 H :    0.039865
  28 C :   -0.034491
  29 H :    0.067541
  30 H :    0.019770
  31 H :    0.016935
  32 H :    0.039477
  33 H :    0.072956
Sum of atomic charges:   -0.0000000

LOEWDIN ATOMIC CHARGES
----------------------
   0 S :    0.466684
   1 C :   -0.207168
   2 C :   -0.057575
   3 C :   -0.062408
   4 C :   -0.233522
   5 H :    0.032554
   6 C :   -0.018141
   7 H :    0.035063
   8 H :    0.015124
   9 C :   -0.044099
  10 H :    0.025226
  11 H :    0.027103
  12 C :   -0.072604
  13 H :    0.034758
  14 H :    0.035317
  15 H :    0.019154
  16 S :    0.390453
  17 C :   -0.195416
  18 C :   -0.075581
  19 C :   -0.052078
  20 C :   -0.202107
  21 H :    0.026401
  22 C :   -0.044691
  23 H :    0.042472
  24 H :    0.039730
  25 C :   -0.044890
  26 H :    0.021203
  27 H :    0.029220
  28 C :   -0.074415
  29 H :    0.038926
  30 H :    0.023542
  31 H :    0.025610
  32 H :    0.018720
  33 H :    0.037433

  Mayer bond orders larger than 0.100000
B(  0-S ,  1-C ) :   1.1902 B(  0-S ,  4-C ) :   1.1893 B(  1-C ,  2-C ) :   1.5209
B(  1-C ,  4-C ) :   0.1201 B(  1-C , 32-H ) :   0.9672 B(  2-C ,  3-C ) :   1.3189
B(  2-C ,  6-C ) :   1.0425 B(  3-C ,  4-C ) :   1.5004 B(  3-C ,  5-H ) :   0.9849
B(  4-C , 20-C ) :   1.0217 B(  6-C ,  7-H ) :   0.9460 B(  6-C ,  8-H ) :   0.9284
B(  6-C ,  9-C ) :   1.0609 B(  9-C , 10-H ) :   0.9522 B(  9-C , 11-H ) :   0.9634
B(  9-C , 12-C ) :   1.0785 B( 12-C , 13-H ) :   0.9671 B( 12-C , 14-H ) :   0.9709
B( 12-C , 15-H ) :   0.9707 B( 16-S , 17-C ) :   1.1565 B( 16-S , 20-C ) :   1.1226
B( 17-C , 18-C ) :   1.6118 B( 17-C , 33-H ) :   0.9664 B( 18-C , 19-C ) :   1.2217
B( 18-C , 21-H ) :   0.9856 B( 19-C , 20-C ) :   1.6140 B( 19-C , 22-C ) :   1.0645
B( 22-C , 23-H ) :   0.9335 B( 22-C , 24-H ) :   0.9268 B( 22-C , 25-C ) :   1.0593
B( 25-C , 26-H ) :   0.9510 B( 25-C , 27-H ) :   0.9576 B( 25-C , 28-C ) :   1.0834
B( 28-C , 29-H ) :   0.9716 B( 28-C , 30-H ) :   0.9685 B( 28-C , 31-H ) :   0.9636

Dispersion correction           -0.015389372
FINAL SINGLE POINT ENERGY     -1339.844579586760

DIPOLE MOMENT
-------------
                                X             Y             Z
Electronic contribution:    -29.28806      -4.75917       2.79454
Nuclear contribution   :     29.95588       4.91835      -2.84616
                        -----------------------------------------
Total Dipole Moment    :      0.66782       0.15918      -0.05163
                        -----------------------------------------
Magnitude (a.u.)       :      0.68847
Magnitude (Debye)      :      1.74995

Rotational constants in cm-1:     0.018413     0.009830     0.007222
Rotational constants in MHz :   552.014304   294.710446   216.510607

                             ****ORCA TERMINATED NORMALLY****
TOTAL RUN TIME: 0 days 0 hours 0 minutes 36 seconds 374 msec
