                         Program Version 4.2.1 -  RELEASE  -
|  1> ! wB97X-D3 SP def2-SVP
|  2> %pal
|  3> nprocs 16
|  4> end
|  5>
|  6> * xyz 0 1
|  7> S 	 -0.633212 	 -24.4636 	 59.2396
|  8> C 	 -2.17999 	 -24.1996 	 59.9379
|  9> C 	 -3.1526 	 -24.9074 	 59.2228
| 10> C 	 -2.59291 	 -25.4406 	 58.0394
| 11> C 	 -1.30536 	 -25.2263 	 57.8084
| 12> H 	 -3.0657 	 -25.9809 	 57.3144
| 13> C 	 -4.67244 	 -24.9557 	 59.482
| 14> H 	 -5.07603 	 -24.7808 	 58.4798
| 15> H 	 -4.94542 	 -24.1401 	 60.1573
| 16> C 	 -5.29277 	 -26.1899 	 60.208
| 17> H 	 -5.10127 	 -27.1797 	 59.7376
| 18> H 	 -4.58655 	 -26.2029 	 61.1035
| 19> C 	 -6.72065 	 -25.9884 	 60.6167
| 20> H 	 -6.80271 	 -24.993 	 61.1521
| 21> H 	 -7.39727 	 -26.1018 	 59.7722
| 22> H 	 -7.11826 	 -26.7333 	 61.3214
| 23> S 	 1.07588 	 -26.0009 	 56.8053
| 24> C 	 1.17291 	 -26.5551 	 55.1376
| 25> C 	 0.0204739 	 -26.1466 	 54.4326
| 26> C 	 -0.956803 	 -25.5627 	 55.3001
| 27> C 	 -0.533 	 -25.3809 	 56.6322
| 28> H 	 -0.110519 	 -26.2834 	 53.4004
| 29> C 	 -2.22829 	 -25.0811 	 54.6789
| 30> H 	 -3.10962 	 -25.1181 	 55.2878
| 31> H 	 -2.38495 	 -25.7758 	 53.8918
| 32> C 	 -2.19157 	 -23.7156 	 54.0137
| 33> H 	 -3.21432 	 -23.5161 	 53.6099
| 34> H 	 -1.47808 	 -23.5926 	 53.1689
| 35> C 	 -1.94743 	 -22.5944 	 55.0683
| 36> H 	 -2.06703 	 -21.5747 	 54.6718
| 37> H 	 -0.957443 	 -22.6377 	 55.4333
| 38> H 	 -2.71333 	 -22.7089 	 55.8221
| 39> H 	 -2.32324 	 -23.8051 	 60.9054
| 40> H 	 1.95168 	 -27.1416 	 54.6516
| 41> *
| 42>
| 43>                          ****END OF INPUT****

CARTESIAN COORDINATES (ANGSTROEM)
---------------------------------
  S     -0.633212  -24.463600   59.239600
  C     -2.179990  -24.199600   59.937900
  C     -3.152600  -24.907400   59.222800
  C     -2.592910  -25.440600   58.039400
  C     -1.305360  -25.226300   57.808400
  H     -3.065700  -25.980900   57.314400
  C     -4.672440  -24.955700   59.482000
  H     -5.076030  -24.780800   58.479800
  H     -4.945420  -24.140100   60.157300
  C     -5.292770  -26.189900   60.208000
  H     -5.101270  -27.179700   59.737600
  H     -4.586550  -26.202900   61.103500
  C     -6.720650  -25.988400   60.616700
  H     -6.802710  -24.993000   61.152100
  H     -7.397270  -26.101800   59.772200
  H     -7.118260  -26.733300   61.321400
  S      1.075880  -26.000900   56.805300
  C      1.172910  -26.555100   55.137600
  C      0.020474  -26.146600   54.432600
  C     -0.956803  -25.562700   55.300100
  C     -0.533000  -25.380900   56.632200
  H     -0.110519  -26.283400   53.400400
  C     -2.228290  -25.081100   54.678900
  H     -3.109620  -25.118100   55.287800
  H     -2.384950  -25.775800   53.891800
  C     -2.191570  -23.715600   54.013700
  H     -3.214320  -23.516100   53.609900
  H     -1.478080  -23.592600   53.168900
  C     -1.947430  -22.594400   55.068300
  H     -2.067030  -21.574700   54.671800
  H     -0.957443  -22.637700   55.433300
  H     -2.713330  -22.708900   55.822100
  H     -2.323240  -23.805100   60.905400
  H      1.951680  -27.141600   54.651600

 Total Charge           Charge          ....    0
 Multiplicity           Mult            ....    1
 Number of Electrons    NEL             ....  134
 Basis Dimension        Dim             ....  322

ORBITAL ENERGIES
----------------

  NO   OCC          E(Eh)            E(eV)
   0   2.0000     -88.969895     -2420.9939
   1   2.0000     -88.958961     -2420.6964
   2   2.0000     -10.326856      -281.0080
   3   2.0000     -10.326379      -280.9951
   4   2.0000     -10.320617      -280.8383
   5   2.0000     -10.311258      -280.5836
   6   2.0000     -10.306143      -280.4444
   7   2.0000     -10.302430      -280.3434
   8   2.0000     -10.297269      -280.2029
   9   2.0000     -10.297221      -280.2016
  10   2.0000     -10.293780      -280.1080
  11   2.0000     -10.289378      -279.9882
  12   2.0000     -10.284991      -279.8688
  13   2.0000     -10.284876      -279.8657
  14   2.0000     -10.277598      -279.6677
  15   2.0000     -10.266409      -279.3632
  16   2.0000      -8.084631      -219.9940
  17   2.0000      -8.074830      -219.7273
  18   2.0000      -6.043199      -164.4438
  19   2.0000      -6.038969      -164.3287
  20   2.0000      -6.035487      -164.2340
  21   2.0000      -6.033314      -164.1748
  22   2.0000      -6.029224      -164.0635
  23   2.0000      -6.025504      -163.9623
  24   2.0000      -1.015321       -27.6283
  25   2.0000      -0.987702       -26.8768
  26   2.0000      -0.913814       -24.8662
  27   2.0000      -0.908626       -24.7250
  28   2.0000      -0.877842       -23.8873
  29   2.0000      -0.854499       -23.2521
  30   2.0000      -0.844951       -22.9923
  31   2.0000      -0.817972       -22.2581
  32   2.0000      -0.783342       -21.3158
  33   2.0000      -0.772077       -21.0093
  34   2.0000      -0.707897       -19.2629
  35   2.0000      -0.697552       -18.9813
  36   2.0000      -0.690625       -18.7929
  37   2.0000      -0.669477       -18.2174
  38   2.0000      -0.651325       -17.7235
  39   2.0000      -0.627375       -17.0718
  40   2.0000      -0.600139       -16.3306
  41   2.0000      -0.568792       -15.4776
  42   2.0000      -0.565219       -15.3804
  43   2.0000      -0.551453       -15.0058
  44   2.0000      -0.544512       -14.8169
  45   2.0000      -0.524303       -14.2670
  46   2.0000      -0.520661       -14.1679
  47   2.0000      -0.514850       -14.0098
  48   2.0000      -0.505004       -13.7419
  49   2.0000      -0.502735       -13.6801
  50   2.0000      -0.496958       -13.5229
  51   2.0000      -0.480441       -13.0735
  52   2.0000      -0.472145       -12.8477
  53   2.0000      -0.469460       -12.7746
  54   2.0000      -0.460093       -12.5198
  55   2.0000      -0.448962       -12.2169
  56   2.0000      -0.441090       -12.0027
  57   2.0000      -0.435836       -11.8597
  58   2.0000      -0.429939       -11.6992
  59   2.0000      -0.423863       -11.5339
  60   2.0000      -0.419729       -11.4214
  61   2.0000      -0.409749       -11.1498
  62   2.0000      -0.407665       -11.0931
  63   2.0000      -0.361568        -9.8388
  64   2.0000      -0.334522        -9.1028
  65   2.0000      -0.325689        -8.8625
  66   2.0000      -0.282720        -7.6932
  67   0.0000       0.020368         0.5542
  68   0.0000       0.070650         1.9225
  69   0.0000       0.105008         2.8574
  70   0.0000       0.109189         2.9712
  71   0.0000       0.137790         3.7495

MULLIKEN ATOMIC CHARGES
-----------------------
   0 S :    0.089156
   1 C :   -0.098401
   2 C :   -0.076967
   3 C :   -0.001852
   4 C :   -0.088192
   5 H :   -0.029842
   6 C :    0.057057
   7 H :    0.028918
   8 H :    0.015668
   9 C :   -0.092923
  10 H :    0.036282
  11 H :    0.028730
  12 C :   -0.045805
  13 H :    0.037559
  14 H :    0.035826
  15 H :    0.037285
  16 S :    0.103339
  17 C :   -0.092959
  18 C :   -0.013198
  19 C :   -0.105052
  20 C :   -0.071168
  21 H :    0.005419
  22 C :    0.091516
  23 H :    0.012156
  24 H :    0.008171
  25 C :   -0.090056
  26 H :    0.030612
  27 H :    0.032316
  28 C :   -0.041004
  29 H :    0.027187
  30 H :    0.040689
  31 H :    0.024962
  32 H :    0.037394
  33 H :    0.067178
Sum of atomic charges:   -0.0000000

LOEWDIN ATOMIC CHARGES
----------------------
   0 S :    0.401551
   1 C :   -0.194499
   2 C :   -0.062030
   3 C :   -0.063207
   4 C :   -0.181759
   5 H :    0.015037
   6 C :   -0.029458
   7 H :    0.027547
   8 H :    0.029967
   9 C :   -0.053143
  10 H :    0.024952
  11 H :    0.030153
  12 C :   -0.072688
  13 H :    0.032999
  14 H :    0.026498
  15 H :    0.030450
  16 S :    0.420653
  17 C :   -0.181270
  18 C :   -0.060854
  19 C :   -0.050506
  20 C :   -0.209776
  21 H :    0.024218
  22 C :   -0.034487
  23 H :    0.025255
  24 H :    0.028366
  25 C :   -0.036813
  26 H :    0.027379
  27 H :    0.022536
  28 C :   -0.061741
  29 H :    0.025589
  30 H :    0.020187
  31 H :    0.023125
  32 H :    0.020047
  33 H :    0.035723

  Mayer bond orders larger than 0.100000
B(  0-S ,  1-C ) :   1.1575 B(  0-S ,  4-C ) :   1.1141 B(  1-C ,  2-C ) :   1.5914
B(  1-C , 32-H ) :   0.9729 B(  2-C ,  3-C ) :   1.2282 B(  2-C ,  6-C ) :   1.0221
B(  3-C ,  4-C ) :   1.6239 B(  3-C ,  5-H ) :   1.0084 B(  4-C , 20-C ) :   1.0415
B(  6-C ,  7-H ) :   0.9439 B(  6-C ,  8-H ) :   0.9440 B(  6-C ,  9-C ) :   1.0425
B(  9-C , 10-H ) :   0.9559 B(  9-C , 11-H ) :   0.9544 B(  9-C , 12-C ) :   1.0866
B( 12-C , 13-H ) :   0.9696 B( 12-C , 14-H ) :   0.9729 B( 12-C , 15-H ) :   0.9719
B( 16-S , 17-C ) :   1.1765 B( 16-S , 20-C ) :   1.1264 B( 17-C , 18-C ) :   1.5590
B( 17-C , 33-H ) :   0.9678 B( 18-C , 19-C ) :   1.2808 B( 18-C , 21-H ) :   0.9957
B( 19-C , 20-C ) :   1.5511 B( 19-C , 22-C ) :   1.0478 B( 22-C , 23-H ) :   0.9396
B( 22-C , 24-H ) :   0.9189 B( 22-C , 25-C ) :   1.0824 B( 25-C , 26-H ) :   0.9536
B( 25-C , 27-H ) :   0.9563 B( 25-C , 28-C ) :   1.0728 B( 28-C , 29-H ) :   0.9748
B( 28-C , 30-H ) :   0.9767 B( 28-C , 31-H ) :   0.9753

Dispersion correction           -0.014627642
FINAL SINGLE POINT ENERGY     -1339.864285957739

DIPOLE MOMENT
-------------
                                X             Y             Z
Electronic contribution:     26.71213      -4.27781       2.78627
Nuclear contribution   :    -27.32910       4.09258      -3.16813
                        -----------------------------------------
Total Dipole Moment    :     -0.61697      -0.18523      -0.38186
                        -----------------------------------------
Magnitude (a.u.)       :      0.74885
Magnitude (Debye)      :      1.90343

Rotational constants in cm-1:     0.020653     0.008045     0.006961
Rotational constants in MHz :   619.155191   241.169226   208.676321

                             ****ORCA TERMINATED NORMALLY****
TOTAL RUN TIME: 0 days 0 hours 0 minutes 34 seconds 181 msec
