                         Program Version 4.2.1 -  RELEASE  -
|  1> ! wB97X-D3 SP def2-SVP
|  2> %pal
|  3> nprocs 16
|  4> end
|  5>
|  6> * xyz 0 1
|  7> S 	 4.89633 	 -7.0486 	 79.4645
|  8> C 	 4.87527 	 -7.23251 	 81.184
|  9> C 	 3.81593 	 -6.61522 	 81.8183
| 10> C 	 3.06022 	 -5.7823 	 80.928
| 11> C 	 3.44964 	 -5.98096 	 79.6215
| 12> H 	 2.11982 	 -5.15406 	 81.0384
| 13> C 	 3.40554 	 -6.60488 	 83.28
| 14> H 	 3.24096 	 -7.64489 	 83.4898
| 15> H 	 2.4725 	 -6.01235 	 83.3607
| 16> C 	 4.47029 	 -6.12797 	 84.3063
| 17> H 	 4.11666 	 -6.36867 	 85.332
| 18> H 	 5.29476 	 -6.8976 	 84.3706
| 19> C 	 4.85456 	 -4.74215 	 84.2879
| 20> H 	 5.59148 	 -4.31922 	 85.0806
| 21> H 	 5.11786 	 -4.52636 	 83.227
| 22> H 	 4.05173 	 -4.09731 	 84.5607
| 23> S 	 3.44343 	 -4.04713 	 77.709
| 24> C 	 2.10495 	 -3.71653 	 76.6654
| 25> C 	 1.17663 	 -4.70583 	 76.9279
| 26> C 	 1.48046 	 -5.66157 	 77.9495
| 27> C 	 2.7263 	 -5.39458 	 78.5134
| 28> H 	 0.292257 	 -4.65093 	 76.3366
| 29> C 	 0.527213 	 -6.63995 	 78.4852
| 30> H 	 -0.373522 	 -6.45483 	 77.9997
| 31> H 	 0.529031 	 -6.5315 	 79.5773
| 32> C 	 1.0187 	 -8.02144 	 78.2057
| 33> H 	 2.03571 	 -8.24434 	 78.672
| 34> H 	 1.18796 	 -8.19014 	 77.1178
| 35> C 	 0.0901915 	 -9.07061 	 78.8047
| 36> H 	 -0.860532 	 -9.14387 	 78.3325
| 37> H 	 0.0442293 	 -9.17382 	 79.9263
| 38> H 	 0.552275 	 -10.0159 	 78.5925
| 39> H 	 5.67269 	 -7.68956 	 81.7813
| 40> H 	 2.12609 	 -3.06391 	 75.7776
| 41> *
| 42>
| 43>                          ****END OF INPUT****

CARTESIAN COORDINATES (ANGSTROEM)
---------------------------------
  S      4.896330   -7.048600   79.464500
  C      4.875270   -7.232510   81.184000
  C      3.815930   -6.615220   81.818300
  C      3.060220   -5.782300   80.928000
  C      3.449640   -5.980960   79.621500
  H      2.119820   -5.154060   81.038400
  C      3.405540   -6.604880   83.280000
  H      3.240960   -7.644890   83.489800
  H      2.472500   -6.012350   83.360700
  C      4.470290   -6.127970   84.306300
  H      4.116660   -6.368670   85.332000
  H      5.294760   -6.897600   84.370600
  C      4.854560   -4.742150   84.287900
  H      5.591480   -4.319220   85.080600
  H      5.117860   -4.526360   83.227000
  H      4.051730   -4.097310   84.560700
  S      3.443430   -4.047130   77.709000
  C      2.104950   -3.716530   76.665400
  C      1.176630   -4.705830   76.927900
  C      1.480460   -5.661570   77.949500
  C      2.726300   -5.394580   78.513400
  H      0.292257   -4.650930   76.336600
  C      0.527213   -6.639950   78.485200
  H     -0.373522   -6.454830   77.999700
  H      0.529031   -6.531500   79.577300
  C      1.018700   -8.021440   78.205700
  H      2.035710   -8.244340   78.672000
  H      1.187960   -8.190140   77.117800
  C      0.090191   -9.070610   78.804700
  H     -0.860532   -9.143870   78.332500
  H      0.044229   -9.173820   79.926300
  H      0.552275  -10.015900   78.592500
  H      5.672690   -7.689560   81.781300
  H      2.126090   -3.063910   75.777600

 Total Charge           Charge          ....    0
 Multiplicity           Mult            ....    1
 Number of Electrons    NEL             ....  134
 Basis Dimension        Dim             ....  322

ORBITAL ENERGIES
----------------

  NO   OCC          E(Eh)            E(eV)
   0   2.0000     -88.973334     -2421.0875
   1   2.0000     -88.957727     -2420.6628
   2   2.0000     -10.329738      -281.0865
   3   2.0000     -10.318992      -280.7941
   4   2.0000     -10.316119      -280.7159
   5   2.0000     -10.314927      -280.6834
   6   2.0000     -10.303442      -280.3709
   7   2.0000     -10.300523      -280.2915
   8   2.0000     -10.297324      -280.2044
   9   2.0000     -10.296584      -280.1843
  10   2.0000     -10.289141      -279.9818
  11   2.0000     -10.288706      -279.9699
  12   2.0000     -10.284454      -279.8542
  13   2.0000     -10.278673      -279.6969
  14   2.0000     -10.277429      -279.6631
  15   2.0000     -10.270076      -279.4630
  16   2.0000      -8.087016      -220.0589
  17   2.0000      -8.073405      -219.6885
  18   2.0000      -6.045503      -164.5065
  19   2.0000      -6.041787      -164.4054
  20   2.0000      -6.037735      -164.2951
  21   2.0000      -6.031794      -164.1334
  22   2.0000      -6.027440      -164.0150
  23   2.0000      -6.024554      -163.9365
  24   2.0000      -1.008480       -27.4421
  25   2.0000      -0.985984       -26.8300
  26   2.0000      -0.918900       -25.0045
  27   2.0000      -0.915480       -24.9115
  28   2.0000      -0.872685       -23.7470
  29   2.0000      -0.857000       -23.3202
  30   2.0000      -0.847876       -23.0719
  31   2.0000      -0.814408       -22.1612
  32   2.0000      -0.783125       -21.3099
  33   2.0000      -0.771897       -21.0044
  34   2.0000      -0.707165       -19.2429
  35   2.0000      -0.699865       -19.0443
  36   2.0000      -0.686247       -18.6737
  37   2.0000      -0.662158       -18.0182
  38   2.0000      -0.640874       -17.4391
  39   2.0000      -0.608334       -16.5536
  40   2.0000      -0.592644       -16.1267
  41   2.0000      -0.572942       -15.5905
  42   2.0000      -0.569061       -15.4849
  43   2.0000      -0.563596       -15.3362
  44   2.0000      -0.541061       -14.7230
  45   2.0000      -0.522123       -14.2077
  46   2.0000      -0.518788       -14.1169
  47   2.0000      -0.510107       -13.8807
  48   2.0000      -0.507571       -13.8117
  49   2.0000      -0.500113       -13.6088
  50   2.0000      -0.487586       -13.2679
  51   2.0000      -0.482623       -13.1328
  52   2.0000      -0.480553       -13.0765
  53   2.0000      -0.466592       -12.6966
  54   2.0000      -0.459957       -12.5161
  55   2.0000      -0.449185       -12.2230
  56   2.0000      -0.441725       -12.0199
  57   2.0000      -0.435217       -11.8429
  58   2.0000      -0.425736       -11.5849
  59   2.0000      -0.422145       -11.4871
  60   2.0000      -0.417928       -11.3724
  61   2.0000      -0.407373       -11.0852
  62   2.0000      -0.395328       -10.7574
  63   2.0000      -0.341859        -9.3025
  64   2.0000      -0.326331        -8.8799
  65   2.0000      -0.318009        -8.6535
  66   2.0000      -0.306844        -8.3496
  67   0.0000       0.034730         0.9451
  68   0.0000       0.058428         1.5899
  69   0.0000       0.108493         2.9523
  70   0.0000       0.128494         3.4965
  71   0.0000       0.132440         3.6039

MULLIKEN ATOMIC CHARGES
-----------------------
   0 S :    0.134482
   1 C :   -0.120056
   2 C :   -0.105175
   3 C :    0.021249
   4 C :   -0.179768
   5 H :    0.054424
   6 C :    0.095590
   7 H :    0.031528
   8 H :    0.029495
   9 C :   -0.084504
  10 H :    0.011359
  11 H :    0.020140
  12 C :   -0.037925
  13 H :    0.046367
  14 H :    0.045300
  15 H :    0.013884
  16 S :    0.104281
  17 C :   -0.105118
  18 C :   -0.059741
  19 C :   -0.026265
  20 C :   -0.209330
  21 H :    0.004406
  22 C :    0.197976
  23 H :   -0.006024
  24 H :    0.019659
  25 C :   -0.159494
  26 H :    0.045911
  27 H :    0.032969
  28 C :   -0.013844
  29 H :    0.023354
  30 H :    0.037447
  31 H :    0.010120
  32 H :    0.052188
  33 H :    0.075115
Sum of atomic charges:    0.0000000

LOEWDIN ATOMIC CHARGES
----------------------
   0 S :    0.399753
   1 C :   -0.207406
   2 C :   -0.068325
   3 C :   -0.061732
   4 C :   -0.185427
   5 H :    0.050860
   6 C :   -0.024177
   7 H :    0.036574
   8 H :    0.033540
   9 C :   -0.059439
  10 H :    0.024436
  11 H :    0.025907
  12 C :   -0.081103
  13 H :    0.042659
  14 H :    0.032886
  15 H :    0.021462
  16 S :    0.428021
  17 C :   -0.204823
  18 C :   -0.078182
  19 C :   -0.054413
  20 C :   -0.215624
  21 H :    0.023035
  22 C :   -0.027194
  23 H :    0.022714
  24 H :    0.036769
  25 C :   -0.044382
  26 H :    0.031154
  27 H :    0.027619
  28 C :   -0.073904
  29 H :    0.017867
  30 H :    0.033065
  31 H :    0.024335
  32 H :    0.032558
  33 H :    0.040918

  Mayer bond orders larger than 0.100000
B(  0-S ,  1-C ) :   1.1333 B(  0-S ,  4-C ) :   1.1262 B(  1-C ,  2-C ) :   1.6364
B(  1-C , 32-H ) :   0.9598 B(  2-C ,  3-C ) :   1.2056 B(  2-C ,  6-C ) :   1.0103
B(  3-C ,  4-C ) :   1.6203 B(  3-C ,  5-H ) :   0.9712 B(  4-C , 20-C ) :   1.0308
B(  6-C ,  7-H ) :   0.9238 B(  6-C ,  8-H ) :   0.9471 B(  6-C ,  9-C ) :   1.0876
B(  9-C , 10-H ) :   0.9433 B(  9-C , 11-H ) :   0.9475 B(  9-C , 12-C ) :   1.0824
B( 12-C , 13-H ) :   0.9658 B( 12-C , 14-H ) :   0.9735 B( 12-C , 15-H ) :   0.9635
B( 16-S , 17-C ) :   1.1711 B( 16-S , 20-C ) :   1.1765 B( 17-C , 18-C ) :   1.5754
B( 17-C , 20-C ) :   0.1064 B( 17-C , 33-H ) :   0.9639 B( 18-C , 19-C ) :   1.2644
B( 18-C , 21-H ) :   0.9932 B( 19-C , 20-C ) :   1.5402 B( 19-C , 22-C ) :   1.0583
B( 22-C , 23-H ) :   0.9141 B( 22-C , 24-H ) :   0.9192 B( 22-C , 25-C ) :   1.0681
B( 25-C , 26-H ) :   0.9534 B( 25-C , 27-H ) :   0.9514 B( 25-C , 28-C ) :   1.0933
B( 28-C , 29-H ) :   0.9708 B( 28-C , 30-H ) :   0.9699 B( 28-C , 31-H ) :   0.9670

Dispersion correction           -0.014973081
FINAL SINGLE POINT ENERGY     -1339.853925098509

DIPOLE MOMENT
-------------
                                X             Y             Z
Electronic contribution:     10.08857       8.78302     -17.69926
Nuclear contribution   :    -10.50836      -8.98115      18.06766
                        -----------------------------------------
Total Dipole Moment    :     -0.41979      -0.19813       0.36840
                        -----------------------------------------
Magnitude (a.u.)       :      0.59262
Magnitude (Debye)      :      1.50633

Rotational constants in cm-1:     0.018985     0.008740     0.007331
Rotational constants in MHz :   569.153536   262.004523   219.789931

                             ****ORCA TERMINATED NORMALLY****
TOTAL RUN TIME: 0 days 0 hours 0 minutes 33 seconds 803 msec
