                         Program Version 4.2.1 -  RELEASE  -
|  1> ! wB97X-D3 SP def2-SVP
|  2> %pal
|  3> nprocs 16
|  4> end
|  5>
|  6> * xyz 0 1
|  7> S 	 -63.713 	 52.8518 	 124.752
|  8> C 	 -63.9356 	 51.0879 	 124.968
|  9> C 	 -62.7305 	 50.3883 	 124.983
| 10> C 	 -61.5719 	 51.3209 	 124.843
| 11> C 	 -61.9595 	 52.6549 	 124.993
| 12> H 	 -60.4918 	 51.1331 	 124.642
| 13> C 	 -62.6449 	 48.9445 	 125.05
| 14> H 	 -61.5789 	 48.792 	 124.841
| 15> H 	 -63.0605 	 48.4806 	 124.152
| 16> C 	 -63.0815 	 48.3435 	 126.348
| 17> H 	 -62.8135 	 49.1039 	 127.144
| 18> H 	 -64.1956 	 48.3815 	 126.306
| 19> C 	 -62.6168 	 46.9886 	 126.663
| 20> H 	 -62.9174 	 46.2617 	 125.882
| 21> H 	 -61.5262 	 47.0141 	 126.667
| 22> H 	 -62.929 	 46.6233 	 127.626
| 23> S 	 -60.4111 	 53.9615 	 123.135
| 24> C 	 -59.3821 	 55.2586 	 123.591
| 25> C 	 -59.2076 	 55.2533 	 124.938
| 26> C 	 -60.1365 	 54.4205 	 125.662
| 27> C 	 -60.9997 	 53.7121 	 124.827
| 28> H 	 -58.3753 	 55.8432 	 125.43
| 29> C 	 -60.027 	 54.0993 	 127.159
| 30> H 	 -60.9393 	 53.63 	 127.501
| 31> H 	 -60.0533 	 55.0142 	 127.723
| 32> C 	 -58.7815 	 53.2957 	 127.569
| 33> H 	 -58.704 	 53.2506 	 128.637
| 34> H 	 -57.9252 	 53.8298 	 127.131
| 35> C 	 -58.671 	 51.8281 	 127.1
| 36> H 	 -57.7764 	 51.3721 	 127.576
| 37> H 	 -58.6036 	 51.7771 	 125.961
| 38> H 	 -59.4781 	 51.2515 	 127.409
| 39> H 	 -64.8776 	 50.4964 	 124.835
| 40> H 	 -59.0098 	 55.9137 	 122.794
| 41> *
| 42>
| 43>                          ****END OF INPUT****

CARTESIAN COORDINATES (ANGSTROEM)
---------------------------------
  S    -63.713000   52.851800  124.752000
  C    -63.935600   51.087900  124.968000
  C    -62.730500   50.388300  124.983000
  C    -61.571900   51.320900  124.843000
  C    -61.959500   52.654900  124.993000
  H    -60.491800   51.133100  124.642000
  C    -62.644900   48.944500  125.050000
  H    -61.578900   48.792000  124.841000
  H    -63.060500   48.480600  124.152000
  C    -63.081500   48.343500  126.348000
  H    -62.813500   49.103900  127.144000
  H    -64.195600   48.381500  126.306000
  C    -62.616800   46.988600  126.663000
  H    -62.917400   46.261700  125.882000
  H    -61.526200   47.014100  126.667000
  H    -62.929000   46.623300  127.626000
  S    -60.411100   53.961500  123.135000
  C    -59.382100   55.258600  123.591000
  C    -59.207600   55.253300  124.938000
  C    -60.136500   54.420500  125.662000
  C    -60.999700   53.712100  124.827000
  H    -58.375300   55.843200  125.430000
  C    -60.027000   54.099300  127.159000
  H    -60.939300   53.630000  127.501000
  H    -60.053300   55.014200  127.723000
  C    -58.781500   53.295700  127.569000
  H    -58.704000   53.250600  128.637000
  H    -57.925200   53.829800  127.131000
  C    -58.671000   51.828100  127.100000
  H    -57.776400   51.372100  127.576000
  H    -58.603600   51.777100  125.961000
  H    -59.478100   51.251500  127.409000
  H    -64.877600   50.496400  124.835000
  H    -59.009800   55.913700  122.794000

 Total Charge           Charge          ....    0
 Multiplicity           Mult            ....    1
 Number of Electrons    NEL             ....  134
 Basis Dimension        Dim             ....  322

ORBITAL ENERGIES
----------------

  NO   OCC          E(Eh)            E(eV)
   0   2.0000     -88.968634     -2420.9596
   1   2.0000     -88.956057     -2420.6174
   2   2.0000     -10.329801      -281.0882
   3   2.0000     -10.326591      -281.0008
   4   2.0000     -10.319812      -280.8164
   5   2.0000     -10.317141      -280.7437
   6   2.0000     -10.308224      -280.5010
   7   2.0000     -10.306713      -280.4599
   8   2.0000     -10.305149      -280.4174
   9   2.0000     -10.298790      -280.2443
  10   2.0000     -10.288261      -279.9578
  11   2.0000     -10.287975      -279.9500
  12   2.0000     -10.286376      -279.9065
  13   2.0000     -10.285012      -279.8694
  14   2.0000     -10.277707      -279.6706
  15   2.0000     -10.277248      -279.6581
  16   2.0000      -8.081909      -219.9199
  17   2.0000      -8.071362      -219.6329
  18   2.0000      -6.040629      -164.3739
  19   2.0000      -6.036879      -164.2718
  20   2.0000      -6.032242      -164.1457
  21   2.0000      -6.029792      -164.0790
  22   2.0000      -6.025966      -163.9749
  23   2.0000      -6.021972      -163.8662
  24   2.0000      -1.001278       -27.2461
  25   2.0000      -0.977595       -26.6017
  26   2.0000      -0.925108       -25.1735
  27   2.0000      -0.905041       -24.6274
  28   2.0000      -0.872597       -23.7446
  29   2.0000      -0.850432       -23.1414
  30   2.0000      -0.843415       -22.9505
  31   2.0000      -0.808854       -22.0100
  32   2.0000      -0.784371       -21.3438
  33   2.0000      -0.772359       -21.0170
  34   2.0000      -0.706491       -19.2246
  35   2.0000      -0.700245       -19.0546
  36   2.0000      -0.692230       -18.8365
  37   2.0000      -0.651523       -17.7288
  38   2.0000      -0.636548       -17.3214
  39   2.0000      -0.609613       -16.5884
  40   2.0000      -0.598984       -16.2992
  41   2.0000      -0.567832       -15.4515
  42   2.0000      -0.563194       -15.3253
  43   2.0000      -0.553191       -15.0531
  44   2.0000      -0.539337       -14.6761
  45   2.0000      -0.529332       -14.4038
  46   2.0000      -0.520807       -14.1719
  47   2.0000      -0.517861       -14.0917
  48   2.0000      -0.504695       -13.7334
  49   2.0000      -0.498643       -13.5688
  50   2.0000      -0.486812       -13.2468
  51   2.0000      -0.480214       -13.0673
  52   2.0000      -0.472275       -12.8513
  53   2.0000      -0.460424       -12.5288
  54   2.0000      -0.455697       -12.4001
  55   2.0000      -0.448171       -12.1954
  56   2.0000      -0.440798       -11.9947
  57   2.0000      -0.436983       -11.8909
  58   2.0000      -0.432272       -11.7627
  59   2.0000      -0.425944       -11.5905
  60   2.0000      -0.420542       -11.4435
  61   2.0000      -0.410222       -11.1627
  62   2.0000      -0.405095       -11.0232
  63   2.0000      -0.330489        -8.9931
  64   2.0000      -0.322427        -8.7737
  65   2.0000      -0.320945        -8.7334
  66   2.0000      -0.307467        -8.3666
  67   0.0000       0.032912         0.8956
  68   0.0000       0.046102         1.2545
  69   0.0000       0.097082         2.6417
  70   0.0000       0.108990         2.9658
  71   0.0000       0.133849         3.6422

MULLIKEN ATOMIC CHARGES
-----------------------
   0 S :    0.112856
   1 C :   -0.122522
   2 C :   -0.131313
   3 C :    0.016453
   4 C :   -0.149151
   5 H :    0.043223
   6 C :    0.088575
   7 H :    0.000655
   8 H :    0.032375
   9 C :   -0.095013
  10 H :    0.043250
  11 H :    0.025338
  12 C :   -0.009435
  13 H :    0.031695
  14 H :    0.024682
  15 H :    0.034451
  16 S :    0.080542
  17 C :   -0.101335
  18 C :   -0.047859
  19 C :   -0.036171
  20 C :   -0.192052
  21 H :    0.043682
  22 C :    0.100089
  23 H :    0.020387
  24 H :    0.017069
  25 C :   -0.073455
  26 H :    0.029707
  27 H :    0.027193
  28 C :   -0.058254
  29 H :    0.036370
  30 H :    0.043807
  31 H :    0.020618
  32 H :    0.067098
  33 H :    0.076445
Sum of atomic charges:   -0.0000000

LOEWDIN ATOMIC CHARGES
----------------------
   0 S :    0.382721
   1 C :   -0.193631
   2 C :   -0.060470
   3 C :   -0.049992
   4 C :   -0.202635
   5 H :    0.038782
   6 C :   -0.047613
   7 H :    0.029847
   8 H :    0.033861
   9 C :   -0.048826
  10 H :    0.034356
  11 H :    0.024897
  12 C :   -0.063308
  13 H :    0.030176
  14 H :    0.026105
  15 H :    0.026910
  16 S :    0.384014
  17 C :   -0.187213
  18 C :   -0.087825
  19 C :   -0.050870
  20 C :   -0.185126
  21 H :    0.041122
  22 C :   -0.029733
  23 H :    0.029215
  24 H :    0.029125
  25 C :   -0.035968
  26 H :    0.023212
  27 H :    0.024950
  28 C :   -0.064113
  29 H :    0.031002
  30 H :    0.029206
  31 H :    0.011616
  32 H :    0.040359
  33 H :    0.035848

  Mayer bond orders larger than 0.100000
B(  0-S ,  1-C ) :   1.1220 B(  0-S ,  4-C ) :   1.1242 B(  1-C ,  2-C ) :   1.6346
B(  1-C , 32-H ) :   0.9591 B(  2-C ,  3-C ) :   1.1992 B(  2-C ,  6-C ) :   1.0412
B(  3-C ,  4-C ) :   1.6029 B(  3-C ,  5-H ) :   0.9792 B(  4-C , 20-C ) :   1.0434
B(  6-C ,  7-H ) :   0.9320 B(  6-C ,  8-H ) :   0.9186 B(  6-C ,  9-C ) :   1.0503
B(  9-C , 10-H ) :   0.9554 B(  9-C , 11-H ) :   0.9438 B(  9-C , 12-C ) :   1.1000
B( 12-C , 13-H ) :   0.9676 B( 12-C , 14-H ) :   0.9714 B( 12-C , 15-H ) :   0.9704
B( 16-S , 17-C ) :   1.1655 B( 16-S , 20-C ) :   1.1297 B( 17-C , 18-C ) :   1.5875
B( 17-C , 20-C ) :   0.1009 B( 17-C , 33-H ) :   0.9699 B( 18-C , 19-C ) :   1.2345
B( 18-C , 21-H ) :   0.9828 B( 19-C , 20-C ) :   1.6025 B( 19-C , 22-C ) :   1.0484
B( 22-C , 23-H ) :   0.9329 B( 22-C , 24-H ) :   0.9267 B( 22-C , 25-C ) :   1.0734
B( 25-C , 26-H ) :   0.9551 B( 25-C , 27-H ) :   0.9562 B( 25-C , 28-C ) :   1.0800
B( 28-C , 29-H ) :   0.9713 B( 28-C , 30-H ) :   0.9725 B( 28-C , 31-H ) :   0.9745

Dispersion correction           -0.015230494
FINAL SINGLE POINT ENERGY     -1339.856903398042

DIPOLE MOMENT
-------------
                                X             Y             Z
Electronic contribution:     -8.06936      20.87342     -16.71566
Nuclear contribution   :      8.43639     -21.33787      16.96929
                        -----------------------------------------
Total Dipole Moment    :      0.36703      -0.46446       0.25363
                        -----------------------------------------
Magnitude (a.u.)       :      0.64402
Magnitude (Debye)      :      1.63697

Rotational constants in cm-1:     0.020219     0.008575     0.007016
Rotational constants in MHz :   606.146160   257.063208   210.336390

                             ****ORCA TERMINATED NORMALLY****
TOTAL RUN TIME: 0 days 0 hours 0 minutes 32 seconds 409 msec
