                         Program Version 4.2.1 -  RELEASE  -
|  1> ! wB97X-D3 SP def2-SVP
|  2> %pal
|  3> nprocs 16
|  4> end
|  5>
|  6> * xyz 0 1
|  7> S 	 -4.01272 	 23.8231 	 52.3606
|  8> C 	 -2.94766 	 23.0056 	 51.2981
|  9> C 	 -3.48625 	 21.7861 	 50.7912
| 10> C 	 -4.70464 	 21.4365 	 51.3594
| 11> C 	 -5.17795 	 22.4074 	 52.2341
| 12> H 	 -5.36247 	 20.6548 	 51.0738
| 13> C 	 -2.79295 	 20.9217 	 49.8433
| 14> H 	 -3.51746 	 20.1213 	 49.6264
| 15> H 	 -1.95089 	 20.3875 	 50.4129
| 16> C 	 -2.52655 	 21.6037 	 48.5776
| 17> H 	 -3.47455 	 21.9132 	 48.1729
| 18> H 	 -1.98074 	 22.5671 	 48.7223
| 19> C 	 -1.83749 	 20.5966 	 47.5966
| 20> H 	 -1.5223 	 21.1788 	 46.6901
| 21> H 	 -0.828994 	 20.2368 	 47.9532
| 22> H 	 -2.65331 	 19.9723 	 47.2598
| 23> S 	 -7.78297 	 21.6389 	 51.9068
| 24> C 	 -8.97764 	 22.1452 	 53.0183
| 25> C 	 -8.51895 	 23.1454 	 53.8475
| 26> C 	 -7.1055 	 23.2576 	 53.8553
| 27> C 	 -6.51543 	 22.5196 	 52.8296
| 28> H 	 -9.19475 	 23.612 	 54.5584
| 29> C 	 -6.42173 	 24.0603 	 54.9113
| 30> H 	 -6.72121 	 25.0751 	 54.6498
| 31> H 	 -5.29917 	 24.0341 	 54.8533
| 32> C 	 -6.90027 	 23.8664 	 56.404
| 33> H 	 -7.90396 	 24.2005 	 56.4404
| 34> H 	 -6.36026 	 24.6352 	 56.9636
| 35> C 	 -6.82514 	 22.421 	 56.8713
| 36> H 	 -5.78389 	 22.1641 	 56.929
| 37> H 	 -7.29046 	 21.7403 	 56.1609
| 38> H 	 -7.23177 	 22.3114 	 57.8738
| 39> H 	 -1.99126 	 23.4143 	 51.0627
| 40> H 	 -10.0627 	 21.9369 	 52.9057
| 41> *
| 42>
| 43>                          ****END OF INPUT****

CARTESIAN COORDINATES (ANGSTROEM)
---------------------------------
  S     -4.012720   23.823100   52.360600
  C     -2.947660   23.005600   51.298100
  C     -3.486250   21.786100   50.791200
  C     -4.704640   21.436500   51.359400
  C     -5.177950   22.407400   52.234100
  H     -5.362470   20.654800   51.073800
  C     -2.792950   20.921700   49.843300
  H     -3.517460   20.121300   49.626400
  H     -1.950890   20.387500   50.412900
  C     -2.526550   21.603700   48.577600
  H     -3.474550   21.913200   48.172900
  H     -1.980740   22.567100   48.722300
  C     -1.837490   20.596600   47.596600
  H     -1.522300   21.178800   46.690100
  H     -0.828994   20.236800   47.953200
  H     -2.653310   19.972300   47.259800
  S     -7.782970   21.638900   51.906800
  C     -8.977640   22.145200   53.018300
  C     -8.518950   23.145400   53.847500
  C     -7.105500   23.257600   53.855300
  C     -6.515430   22.519600   52.829600
  H     -9.194750   23.612000   54.558400
  C     -6.421730   24.060300   54.911300
  H     -6.721210   25.075100   54.649800
  H     -5.299170   24.034100   54.853300
  C     -6.900270   23.866400   56.404000
  H     -7.903960   24.200500   56.440400
  H     -6.360260   24.635200   56.963600
  C     -6.825140   22.421000   56.871300
  H     -5.783890   22.164100   56.929000
  H     -7.290460   21.740300   56.160900
  H     -7.231770   22.311400   57.873800
  H     -1.991260   23.414300   51.062700
  H    -10.062700   21.936900   52.905700

 Total Charge           Charge          ....    0
 Multiplicity           Mult            ....    1
 Number of Electrons    NEL             ....  134
 Basis Dimension        Dim             ....  322

ORBITAL ENERGIES
----------------

  NO   OCC          E(Eh)            E(eV)
   0   2.0000     -88.968769     -2420.9633
   1   2.0000     -88.963416     -2420.8176
   2   2.0000     -10.335564      -281.2450
   3   2.0000     -10.329815      -281.0886
   4   2.0000     -10.317241      -280.7464
   5   2.0000     -10.310956      -280.5754
   6   2.0000     -10.303803      -280.3807
   7   2.0000     -10.294926      -280.1392
   8   2.0000     -10.293574      -280.1024
   9   2.0000     -10.291794      -280.0540
  10   2.0000     -10.290297      -280.0132
  11   2.0000     -10.285347      -279.8785
  12   2.0000     -10.285106      -279.8720
  13   2.0000     -10.284817      -279.8641
  14   2.0000     -10.283713      -279.8340
  15   2.0000     -10.270773      -279.4819
  16   2.0000      -8.082361      -219.9322
  17   2.0000      -8.078427      -219.8252
  18   2.0000      -6.040765      -164.3776
  19   2.0000      -6.036991      -164.2749
  20   2.0000      -6.036942      -164.2735
  21   2.0000      -6.033372      -164.1764
  22   2.0000      -6.033001      -164.1663
  23   2.0000      -6.029079      -164.0596
  24   2.0000      -1.003712       -27.3124
  25   2.0000      -0.984176       -26.7808
  26   2.0000      -0.920947       -25.0602
  27   2.0000      -0.908732       -24.7279
  28   2.0000      -0.867081       -23.5945
  29   2.0000      -0.856371       -23.3030
  30   2.0000      -0.847995       -23.0751
  31   2.0000      -0.809497       -22.0275
  32   2.0000      -0.783419       -21.3179
  33   2.0000      -0.762427       -20.7467
  34   2.0000      -0.709906       -19.3175
  35   2.0000      -0.700618       -19.0648
  36   2.0000      -0.689928       -18.7739
  37   2.0000      -0.664397       -18.0792
  38   2.0000      -0.640335       -17.4244
  39   2.0000      -0.612078       -16.6555
  40   2.0000      -0.595565       -16.2061
  41   2.0000      -0.576744       -15.6940
  42   2.0000      -0.558469       -15.1967
  43   2.0000      -0.550871       -14.9900
  44   2.0000      -0.539422       -14.6784
  45   2.0000      -0.523479       -14.2446
  46   2.0000      -0.518247       -14.1022
  47   2.0000      -0.515308       -14.0222
  48   2.0000      -0.504527       -13.7289
  49   2.0000      -0.495349       -13.4791
  50   2.0000      -0.491299       -13.3689
  51   2.0000      -0.481577       -13.1044
  52   2.0000      -0.468496       -12.7484
  53   2.0000      -0.463107       -12.6018
  54   2.0000      -0.461261       -12.5516
  55   2.0000      -0.449892       -12.2422
  56   2.0000      -0.443451       -12.0669
  57   2.0000      -0.436044       -11.8654
  58   2.0000      -0.430629       -11.7180
  59   2.0000      -0.420243       -11.4354
  60   2.0000      -0.417002       -11.3472
  61   2.0000      -0.413790       -11.2598
  62   2.0000      -0.410539       -11.1713
  63   2.0000      -0.357032        -9.7153
  64   2.0000      -0.333318        -9.0700
  65   2.0000      -0.328783        -8.9466
  66   2.0000      -0.273507        -7.4425
  67   0.0000       0.017261         0.4697
  68   0.0000       0.078006         2.1227
  69   0.0000       0.097700         2.6585
  70   0.0000       0.114308         3.1105
  71   0.0000       0.128598         3.4993

MULLIKEN ATOMIC CHARGES
-----------------------
   0 S :    0.103762
   1 C :   -0.111905
   2 C :   -0.098725
   3 C :    0.011732
   4 C :   -0.118653
   5 H :    0.013655
   6 C :    0.075157
   7 H :    0.004727
   8 H :    0.055344
   9 C :   -0.108390
  10 H :    0.024078
  11 H :    0.031402
  12 C :   -0.040499
  13 H :    0.026864
  14 H :    0.049254
  15 H :    0.042784
  16 S :    0.077117
  17 C :   -0.092083
  18 C :   -0.044216
  19 C :   -0.062984
  20 C :   -0.128660
  21 H :    0.023819
  22 C :    0.021925
  23 H :    0.033504
  24 H :    0.036511
  25 C :   -0.063001
  26 H :    0.008236
  27 H :    0.030078
  28 C :   -0.019723
  29 H :    0.023559
  30 H :    0.048312
  31 H :    0.034472
  32 H :    0.041768
  33 H :    0.070779
Sum of atomic charges:    0.0000000

LOEWDIN ATOMIC CHARGES
----------------------
   0 S :    0.400189
   1 C :   -0.208185
   2 C :   -0.062384
   3 C :   -0.067121
   4 C :   -0.159328
   5 H :    0.025274
   6 C :   -0.046193
   7 H :    0.029484
   8 H :    0.042878
   9 C :   -0.043110
  10 H :    0.026567
  11 H :    0.022476
  12 C :   -0.072243
  13 H :    0.028118
  14 H :    0.035255
  15 H :    0.029047
  16 S :    0.399413
  17 C :   -0.197465
  18 C :   -0.073821
  19 C :   -0.063160
  20 C :   -0.181645
  21 H :    0.031424
  22 C :   -0.039346
  23 H :    0.037258
  24 H :    0.024954
  25 C :   -0.035086
  26 H :    0.011754
  27 H :    0.027773
  28 C :   -0.061521
  29 H :    0.024509
  30 H :    0.031309
  31 H :    0.026738
  32 H :    0.018737
  33 H :    0.037454

  Mayer bond orders larger than 0.100000
B(  0-S ,  1-C ) :   1.1598 B(  0-S ,  4-C ) :   1.1412 B(  1-C ,  2-C ) :   1.5405
B(  1-C ,  4-C ) :   0.1070 B(  1-C , 32-H ) :   0.9724 B(  2-C ,  3-C ) :   1.2917
B(  2-C ,  6-C ) :   1.0289 B(  3-C ,  4-C ) :   1.5317 B(  3-C ,  5-H ) :   0.9843
B(  4-C , 20-C ) :   1.0917 B(  6-C ,  7-H ) :   0.9368 B(  6-C ,  8-H ) :   0.9294
B(  6-C ,  9-C ) :   1.0568 B(  9-C , 10-H ) :   0.9507 B(  9-C , 11-H ) :   0.9598
B(  9-C , 12-C ) :   1.0786 B( 12-C , 13-H ) :   0.9738 B( 12-C , 14-H ) :   0.9736
B( 12-C , 15-H ) :   0.9732 B( 16-S , 17-C ) :   1.1646 B( 16-S , 20-C ) :   1.1169
B( 17-C , 18-C ) :   1.6134 B( 17-C , 33-H ) :   0.9594 B( 18-C , 19-C ) :   1.2375
B( 18-C , 21-H ) :   0.9839 B( 19-C , 20-C ) :   1.5750 B( 19-C , 22-C ) :   1.0382
B( 22-C , 23-H ) :   0.9246 B( 22-C , 24-H ) :   0.9414 B( 22-C , 25-C ) :   1.0777
B( 25-C , 26-H ) :   0.9513 B( 25-C , 27-H ) :   0.9535 B( 25-C , 28-C ) :   1.0728
B( 28-C , 29-H ) :   0.9755 B( 28-C , 30-H ) :   0.9707 B( 28-C , 31-H ) :   0.9735

Dispersion correction           -0.013966349
FINAL SINGLE POINT ENERGY     -1339.866455312209

DIPOLE MOMENT
-------------
                                X             Y             Z
Electronic contribution:     -8.54142       3.83378      -0.49960
Nuclear contribution   :      8.50272      -3.75077       0.51848
                        -----------------------------------------
Total Dipole Moment    :     -0.03870       0.08301       0.01888
                        -----------------------------------------
Magnitude (a.u.)       :      0.09352
Magnitude (Debye)      :      0.23770

Rotational constants in cm-1:     0.027250     0.006959     0.005991
Rotational constants in MHz :   816.949246   208.638999   179.604502

                             ****ORCA TERMINATED NORMALLY****
TOTAL RUN TIME: 0 days 0 hours 0 minutes 34 seconds 455 msec
