                         Program Version 4.2.1 -  RELEASE  -
|  1> ! wB97X-D3 SP def2-SVP
|  2> %pal
|  3> nprocs 16
|  4> end
|  5>
|  6> * xyz 0 1
|  7> S 	 -39.8864 	 -8.2619 	 101.155
|  8> C 	 -41.6417 	 -8.38838 	 100.953
|  9> C 	 -42.2179 	 -7.13267 	 100.724
| 10> C 	 -41.2927 	 -6.02919 	 101.019
| 11> C 	 -40.0371 	 -6.5067 	 101.265
| 12> H 	 -41.3986 	 -4.93352 	 100.946
| 13> C 	 -43.6708 	 -6.8774 	 100.332
| 14> H 	 -44.2181 	 -7.01076 	 101.29
| 15> H 	 -43.8997 	 -7.66248 	 99.599
| 16> C 	 -43.88 	 -5.4902 	 99.6577
| 17> H 	 -44.9556 	 -5.35624 	 99.4869
| 18> H 	 -43.5933 	 -4.68287 	 100.35
| 19> C 	 -43.155 	 -5.25225 	 98.3129
| 20> H 	 -42.1018 	 -4.96085 	 98.4306
| 21> H 	 -43.2262 	 -6.143 	 97.6935
| 22> H 	 -43.4807 	 -4.43425 	 97.733
| 23> S 	 -37.4809 	 -5.3404 	 100.871
| 24> C 	 -36.8144 	 -4.40111 	 102.133
| 25> C 	 -37.6121 	 -4.3115 	 103.224
| 26> C 	 -38.888 	 -4.97982 	 103.003
| 27> C 	 -38.9591 	 -5.64844 	 101.805
| 28> H 	 -37.3948 	 -3.62685 	 104.068
| 29> C 	 -39.9581 	 -4.99868 	 104.171
| 30> H 	 -40.9632 	 -4.73171 	 103.746
| 31> H 	 -39.7041 	 -4.20877 	 104.891
| 32> C 	 -40.079 	 -6.4512 	 104.777
| 33> H 	 -39.1441 	 -6.56563 	 105.259
| 34> H 	 -40.3075 	 -7.3008 	 104.08
| 35> C 	 -41.0763 	 -6.55024 	 105.904
| 36> H 	 -42.0614 	 -6.53188 	 105.501
| 37> H 	 -41.0712 	 -5.86611 	 106.764
| 38> H 	 -40.8766 	 -7.5047 	 106.285
| 39> H 	 -42.2318 	 -9.27989 	 100.761
| 40> H 	 -35.9054 	 -3.8545 	 101.99
| 41> *
| 42>
| 43>                          ****END OF INPUT****

CARTESIAN COORDINATES (ANGSTROEM)
---------------------------------
  S    -39.886400   -8.261900  101.155000
  C    -41.641700   -8.388380  100.953000
  C    -42.217900   -7.132670  100.724000
  C    -41.292700   -6.029190  101.019000
  C    -40.037100   -6.506700  101.265000
  H    -41.398600   -4.933520  100.946000
  C    -43.670800   -6.877400  100.332000
  H    -44.218100   -7.010760  101.290000
  H    -43.899700   -7.662480   99.599000
  C    -43.880000   -5.490200   99.657700
  H    -44.955600   -5.356240   99.486900
  H    -43.593300   -4.682870  100.350000
  C    -43.155000   -5.252250   98.312900
  H    -42.101800   -4.960850   98.430600
  H    -43.226200   -6.143000   97.693500
  H    -43.480700   -4.434250   97.733000
  S    -37.480900   -5.340400  100.871000
  C    -36.814400   -4.401110  102.133000
  C    -37.612100   -4.311500  103.224000
  C    -38.888000   -4.979820  103.003000
  C    -38.959100   -5.648440  101.805000
  H    -37.394800   -3.626850  104.068000
  C    -39.958100   -4.998680  104.171000
  H    -40.963200   -4.731710  103.746000
  H    -39.704100   -4.208770  104.891000
  C    -40.079000   -6.451200  104.777000
  H    -39.144100   -6.565630  105.259000
  H    -40.307500   -7.300800  104.080000
  C    -41.076300   -6.550240  105.904000
  H    -42.061400   -6.531880  105.501000
  H    -41.071200   -5.866110  106.764000
  H    -40.876600   -7.504700  106.285000
  H    -42.231800   -9.279890  100.761000
  H    -35.905400   -3.854500  101.990000

 Total Charge           Charge          ....    0
 Multiplicity           Mult            ....    1
 Number of Electrons    NEL             ....  134
 Basis Dimension        Dim             ....  322

ORBITAL ENERGIES
----------------

  NO   OCC          E(Eh)            E(eV)
   0   2.0000     -88.968946     -2420.9681
   1   2.0000     -88.960793     -2420.7463
   2   2.0000     -10.328650      -281.0569
   3   2.0000     -10.323635      -280.9204
   4   2.0000     -10.316603      -280.7290
   5   2.0000     -10.310910      -280.5741
   6   2.0000     -10.307772      -280.4887
   7   2.0000     -10.304985      -280.4129
   8   2.0000     -10.300404      -280.2882
   9   2.0000     -10.298501      -280.2365
  10   2.0000     -10.298031      -280.2237
  11   2.0000     -10.294420      -280.1254
  12   2.0000     -10.293087      -280.0891
  13   2.0000     -10.280939      -279.7586
  14   2.0000     -10.275689      -279.6157
  15   2.0000     -10.262823      -279.2656
  16   2.0000      -8.082568      -219.9379
  17   2.0000      -8.076278      -219.7667
  18   2.0000      -6.041252      -164.3908
  19   2.0000      -6.037378      -164.2854
  20   2.0000      -6.034742      -164.2137
  21   2.0000      -6.033050      -164.1676
  22   2.0000      -6.030676      -164.1030
  23   2.0000      -6.027067      -164.0048
  24   2.0000      -1.002074       -27.2678
  25   2.0000      -0.980667       -26.6853
  26   2.0000      -0.907856       -24.7040
  27   2.0000      -0.899169       -24.4676
  28   2.0000      -0.866935       -23.5905
  29   2.0000      -0.847555       -23.0631
  30   2.0000      -0.841313       -22.8933
  31   2.0000      -0.815683       -22.1959
  32   2.0000      -0.781562       -21.2674
  33   2.0000      -0.770211       -20.9585
  34   2.0000      -0.707181       -19.2434
  35   2.0000      -0.693537       -18.8721
  36   2.0000      -0.684716       -18.6321
  37   2.0000      -0.655968       -17.8498
  38   2.0000      -0.636274       -17.3139
  39   2.0000      -0.615587       -16.7510
  40   2.0000      -0.590618       -16.0715
  41   2.0000      -0.565535       -15.3890
  42   2.0000      -0.563881       -15.3440
  43   2.0000      -0.555786       -15.1237
  44   2.0000      -0.527684       -14.3590
  45   2.0000      -0.523272       -14.2390
  46   2.0000      -0.517146       -14.0722
  47   2.0000      -0.508580       -13.8392
  48   2.0000      -0.497992       -13.5510
  49   2.0000      -0.496912       -13.5217
  50   2.0000      -0.484428       -13.1820
  51   2.0000      -0.483415       -13.1544
  52   2.0000      -0.472046       -12.8450
  53   2.0000      -0.462688       -12.5904
  54   2.0000      -0.457988       -12.4625
  55   2.0000      -0.446667       -12.1544
  56   2.0000      -0.443658       -12.0725
  57   2.0000      -0.442377       -12.0377
  58   2.0000      -0.427947       -11.6450
  59   2.0000      -0.426932       -11.6174
  60   2.0000      -0.414226       -11.2717
  61   2.0000      -0.412240       -11.2176
  62   2.0000      -0.407259       -11.0821
  63   2.0000      -0.337708        -9.1895
  64   2.0000      -0.329027        -8.9533
  65   2.0000      -0.327687        -8.9168
  66   2.0000      -0.300996        -8.1905
  67   0.0000       0.041434         1.1275
  68   0.0000       0.061245         1.6666
  69   0.0000       0.110534         3.0078
  70   0.0000       0.124888         3.3984
  71   0.0000       0.128659         3.5010

MULLIKEN ATOMIC CHARGES
-----------------------
   0 S :    0.115710
   1 C :   -0.121158
   2 C :   -0.127328
   3 C :    0.024927
   4 C :   -0.152188
   5 H :    0.038939
   6 C :    0.071281
   7 H :    0.061928
   8 H :    0.033765
   9 C :   -0.098250
  10 H :    0.035447
  11 H :    0.033655
  12 C :   -0.039721
  13 H :    0.032950
  14 H :    0.032217
  15 H :    0.023526
  16 S :    0.099888
  17 C :   -0.080929
  18 C :   -0.038299
  19 C :   -0.040909
  20 C :   -0.191001
  21 H :    0.033251
  22 C :    0.066618
  23 H :    0.024671
  24 H :    0.023425
  25 C :   -0.081640
  26 H :    0.018740
  27 H :    0.058463
  28 C :   -0.018701
  29 H :    0.019366
  30 H :    0.026419
  31 H :    0.016629
  32 H :    0.045878
  33 H :    0.052431
Sum of atomic charges:   -0.0000000

LOEWDIN ATOMIC CHARGES
----------------------
   0 S :    0.391497
   1 C :   -0.204199
   2 C :   -0.056800
   3 C :   -0.063810
   4 C :   -0.186648
   5 H :    0.042069
   6 C :   -0.034494
   7 H :    0.044613
   8 H :    0.032257
   9 C :   -0.044813
  10 H :    0.027760
  11 H :    0.023747
  12 C :   -0.067005
  13 H :    0.028805
  14 H :    0.026450
  15 H :    0.022621
  16 S :    0.402110
  17 C :   -0.186489
  18 C :   -0.085226
  19 C :   -0.048596
  20 C :   -0.203869
  21 H :    0.037865
  22 C :   -0.028580
  23 H :    0.027560
  24 H :    0.028745
  25 C :   -0.035377
  26 H :    0.018587
  27 H :    0.036589
  28 C :   -0.064608
  29 H :    0.018207
  30 H :    0.023846
  31 H :    0.021820
  32 H :    0.029325
  33 H :    0.026037

  Mayer bond orders larger than 0.100000
B(  0-S ,  1-C ) :   1.1138 B(  0-S ,  4-C ) :   1.1349 B(  1-C ,  2-C ) :   1.6580
B(  1-C , 32-H ) :   0.9666 B(  2-C ,  3-C ) :   1.1783 B(  2-C ,  6-C ) :   0.9969
B(  3-C ,  4-C ) :   1.6372 B(  3-C ,  5-H ) :   0.9806 B(  4-C , 20-C ) :   1.0032
B(  6-C ,  7-H ) :   0.9396 B(  6-C ,  8-H ) :   0.9422 B(  6-C ,  9-C ) :   1.0845
B(  9-C , 10-H ) :   0.9572 B(  9-C , 11-H ) :   0.9489 B(  9-C , 12-C ) :   1.0737
B( 12-C , 13-H ) :   0.9704 B( 12-C , 14-H ) :   0.9762 B( 12-C , 15-H ) :   0.9736
B( 16-S , 17-C ) :   1.1697 B( 16-S , 20-C ) :   1.1227 B( 17-C , 18-C ) :   1.6191
B( 17-C , 33-H ) :   0.9661 B( 18-C , 19-C ) :   1.2332 B( 18-C , 21-H ) :   0.9826
B( 19-C , 20-C ) :   1.6393 B( 19-C , 22-C ) :   1.0293 B( 22-C , 23-H ) :   0.9385
B( 22-C , 24-H ) :   0.9415 B( 22-C , 25-C ) :   1.0548 B( 25-C , 26-H ) :   0.9584
B( 25-C , 27-H ) :   0.9527 B( 25-C , 28-C ) :   1.0860 B( 28-C , 29-H ) :   0.9740
B( 28-C , 30-H ) :   0.9741 B( 28-C , 31-H ) :   0.9721

Dispersion correction           -0.015329659
FINAL SINGLE POINT ENERGY     -1339.873840930150

DIPOLE MOMENT
-------------
                                X             Y             Z
Electronic contribution:     20.81106      -5.27704      -7.23475
Nuclear contribution   :    -21.35222       5.61760       7.39262
                        -----------------------------------------
Total Dipole Moment    :     -0.54116       0.34055       0.15787
                        -----------------------------------------
Magnitude (a.u.)       :      0.65860
Magnitude (Debye)      :      1.67403

Rotational constants in cm-1:     0.017005     0.009543     0.008048
Rotational constants in MHz :   509.789187   286.089553   241.263616

                             ****ORCA TERMINATED NORMALLY****
TOTAL RUN TIME: 0 days 0 hours 0 minutes 31 seconds 31 msec
