                         Program Version 4.2.1 -  RELEASE  -
|  1> ! wB97X-D3 SP def2-SVP
|  2> %pal
|  3> nprocs 16
|  4> end
|  5>
|  6> * xyz 0 1
|  7> S 	 -96.0887 	 42.1543 	 118.549
|  8> C 	 -95.3114 	 43.6116 	 118.4
|  9> C 	 -95.6008 	 44.278 	 117.163
| 10> C 	 -96.2652 	 43.3976 	 116.239
| 11> C 	 -96.5727 	 42.1407 	 116.869
| 12> H 	 -96.639 	 43.6478 	 115.244
| 13> C 	 -95.2384 	 45.7524 	 116.884
| 14> H 	 -95.5794 	 46.1292 	 115.969
| 15> H 	 -94.1762 	 45.8342 	 116.827
| 16> C 	 -95.7198 	 46.7675 	 117.983
| 17> H 	 -96.8297 	 46.7673 	 117.95
| 18> H 	 -95.493 	 46.4426 	 119.02
| 19> C 	 -95.3232 	 48.2606 	 117.77
| 20> H 	 -95.6308 	 48.6201 	 116.772
| 21> H 	 -95.7925 	 48.8382 	 118.571
| 22> H 	 -94.2323 	 48.3985 	 117.617
| 23> S 	 -96.8257 	 40.6305 	 114.579
| 24> C 	 -98.047 	 39.4 	 114.546
| 25> C 	 -98.9568 	 39.5102 	 115.546
| 26> C 	 -98.5247 	 40.4931 	 116.487
| 27> C 	 -97.3141 	 41.0826 	 116.189
| 28> H 	 -99.8422 	 38.8541 	 115.599
| 29> C 	 -99.246 	 40.797 	 117.786
| 30> H 	 -98.4272 	 40.6196 	 118.585
| 31> H 	 -99.903 	 39.9179 	 118.007
| 32> C 	 -99.9177 	 42.1419 	 117.973
| 33> H 	 -99.15 	 42.809 	 117.679
| 34> H 	 -100.17 	 42.2681 	 119.018
| 35> C 	 -101.21 	 42.432 	 117.217
| 36> H 	 -101.142 	 42.2764 	 116.111
| 37> H 	 -101.371 	 43.5079 	 117.399
| 38> H 	 -102.047 	 41.8212 	 117.649
| 39> H 	 -94.9195 	 44.1246 	 119.28
| 40> H 	 -98.0704 	 38.7578 	 113.697
| 41> *
| 42>
| 43>                          ****END OF INPUT****

CARTESIAN COORDINATES (ANGSTROEM)
---------------------------------
  S    -96.088700   42.154300  118.549000
  C    -95.311400   43.611600  118.400000
  C    -95.600800   44.278000  117.163000
  C    -96.265200   43.397600  116.239000
  C    -96.572700   42.140700  116.869000
  H    -96.639000   43.647800  115.244000
  C    -95.238400   45.752400  116.884000
  H    -95.579400   46.129200  115.969000
  H    -94.176200   45.834200  116.827000
  C    -95.719800   46.767500  117.983000
  H    -96.829700   46.767300  117.950000
  H    -95.493000   46.442600  119.020000
  C    -95.323200   48.260600  117.770000
  H    -95.630800   48.620100  116.772000
  H    -95.792500   48.838200  118.571000
  H    -94.232300   48.398500  117.617000
  S    -96.825700   40.630500  114.579000
  C    -98.047000   39.400000  114.546000
  C    -98.956800   39.510200  115.546000
  C    -98.524700   40.493100  116.487000
  C    -97.314100   41.082600  116.189000
  H    -99.842200   38.854100  115.599000
  C    -99.246000   40.797000  117.786000
  H    -98.427200   40.619600  118.585000
  H    -99.903000   39.917900  118.007000
  C    -99.917700   42.141900  117.973000
  H    -99.150000   42.809000  117.679000
  H    -100.170000   42.268100  119.018000
  C    -101.210000   42.432000  117.217000
  H    -101.142000   42.276400  116.111000
  H    -101.371000   43.507900  117.399000
  H    -102.047000   41.821200  117.649000
  H    -94.919500   44.124600  119.280000
  H    -98.070400   38.757800  113.697000

 Total Charge           Charge          ....    0
 Multiplicity           Mult            ....    1
 Number of Electrons    NEL             ....  134
 Basis Dimension        Dim             ....  322

ORBITAL ENERGIES
----------------

  NO   OCC          E(Eh)            E(eV)
   0   2.0000     -88.974938     -2421.1312
   1   2.0000     -88.961625     -2420.7689
   2   2.0000     -10.332996      -281.1751
   3   2.0000     -10.320931      -280.8468
   4   2.0000     -10.311997      -280.6037
   5   2.0000     -10.311214      -280.5824
   6   2.0000     -10.310830      -280.5720
   7   2.0000     -10.303085      -280.3612
   8   2.0000     -10.298803      -280.2447
   9   2.0000     -10.294621      -280.1309
  10   2.0000     -10.293961      -280.1129
  11   2.0000     -10.292581      -280.0754
  12   2.0000     -10.291222      -280.0384
  13   2.0000     -10.286037      -279.8973
  14   2.0000     -10.280697      -279.7520
  15   2.0000     -10.276299      -279.6323
  16   2.0000      -8.090241      -220.1466
  17   2.0000      -8.077134      -219.7900
  18   2.0000      -6.048471      -164.5873
  19   2.0000      -6.044547      -164.4805
  20   2.0000      -6.041409      -164.3951
  21   2.0000      -6.035485      -164.2339
  22   2.0000      -6.031652      -164.1296
  23   2.0000      -6.027919      -164.0280
  24   2.0000      -1.009846       -27.4793
  25   2.0000      -0.989373       -26.9222
  26   2.0000      -0.907087       -24.6831
  27   2.0000      -0.902530       -24.5591
  28   2.0000      -0.871479       -23.7142
  29   2.0000      -0.852004       -23.1842
  30   2.0000      -0.847187       -23.0531
  31   2.0000      -0.811082       -22.0707
  32   2.0000      -0.780565       -21.2403
  33   2.0000      -0.768286       -20.9061
  34   2.0000      -0.703294       -19.1376
  35   2.0000      -0.698618       -19.0104
  36   2.0000      -0.682875       -18.5820
  37   2.0000      -0.665814       -18.1177
  38   2.0000      -0.645168       -17.5559
  39   2.0000      -0.608767       -16.5654
  40   2.0000      -0.591126       -16.0853
  41   2.0000      -0.572223       -15.5710
  42   2.0000      -0.555992       -15.1293
  43   2.0000      -0.552428       -15.0323
  44   2.0000      -0.541046       -14.7226
  45   2.0000      -0.530349       -14.4315
  46   2.0000      -0.517245       -14.0750
  47   2.0000      -0.509601       -13.8669
  48   2.0000      -0.499348       -13.5880
  49   2.0000      -0.493642       -13.4327
  50   2.0000      -0.481552       -13.1037
  51   2.0000      -0.479133       -13.0379
  52   2.0000      -0.477387       -12.9904
  53   2.0000      -0.469081       -12.7643
  54   2.0000      -0.464919       -12.6511
  55   2.0000      -0.446257       -12.1433
  56   2.0000      -0.444093       -12.0844
  57   2.0000      -0.437357       -11.9011
  58   2.0000      -0.433321       -11.7913
  59   2.0000      -0.426536       -11.6066
  60   2.0000      -0.415414       -11.3040
  61   2.0000      -0.412257       -11.2181
  62   2.0000      -0.408010       -11.1025
  63   2.0000      -0.349544        -9.5116
  64   2.0000      -0.332652        -9.0519
  65   2.0000      -0.328267        -8.9326
  66   2.0000      -0.283547        -7.7157
  67   0.0000       0.027569         0.7502
  68   0.0000       0.067594         1.8393
  69   0.0000       0.102601         2.7919
  70   0.0000       0.121795         3.3142
  71   0.0000       0.133760         3.6398

MULLIKEN ATOMIC CHARGES
-----------------------
   0 S :    0.147857
   1 C :   -0.123276
   2 C :   -0.099980
   3 C :    0.014121
   4 C :   -0.179751
   5 H :    0.027253
   6 C :    0.121805
   7 H :   -0.000633
   8 H :    0.028878
   9 C :   -0.127273
  10 H :    0.033522
  11 H :    0.031242
  12 C :   -0.055468
  13 H :    0.022344
  14 H :    0.053527
  15 H :    0.030955
  16 S :    0.100426
  17 C :   -0.084890
  18 C :   -0.022135
  19 C :   -0.045832
  20 C :   -0.150065
  21 H :    0.030738
  22 C :    0.002185
  23 H :    0.040574
  24 H :    0.011824
  25 C :   -0.018379
  26 H :    0.026780
  27 H :    0.028048
  28 C :   -0.071015
  29 H :    0.043808
  30 H :    0.039254
  31 H :    0.037441
  32 H :    0.060552
  33 H :    0.045562
Sum of atomic charges:   -0.0000000

LOEWDIN ATOMIC CHARGES
----------------------
   0 S :    0.472603
   1 C :   -0.238763
   2 C :   -0.055132
   3 C :   -0.064435
   4 C :   -0.205651
   5 H :    0.033259
   6 C :   -0.025826
   7 H :    0.020708
   8 H :    0.029396
   9 C :   -0.044524
  10 H :    0.026351
  11 H :    0.020196
  12 C :   -0.073040
  13 H :    0.024913
  14 H :    0.032787
  15 H :    0.026367
  16 S :    0.412529
  17 C :   -0.176211
  18 C :   -0.073896
  19 C :   -0.062980
  20 C :   -0.203967
  21 H :    0.040601
  22 C :   -0.047461
  23 H :    0.034231
  24 H :    0.025461
  25 C :   -0.042569
  26 H :    0.021446
  27 H :    0.028045
  28 C :   -0.069036
  29 H :    0.027947
  30 H :    0.030966
  31 H :    0.028015
  32 H :    0.028124
  33 H :    0.019547

  Mayer bond orders larger than 0.100000
B(  0-S ,  1-C ) :   1.1912 B(  0-S ,  4-C ) :   1.1933 B(  1-C ,  2-C ) :   1.5267
B(  1-C ,  4-C ) :   0.1064 B(  1-C , 32-H ) :   0.9642 B(  2-C ,  3-C ) :   1.3186
B(  2-C ,  6-C ) :   1.0226 B(  3-C ,  4-C ) :   1.4866 B(  3-C ,  5-H ) :   0.9884
B(  4-C , 20-C ) :   1.0481 B(  6-C ,  7-H ) :   0.9450 B(  6-C ,  8-H ) :   0.9388
B(  6-C ,  9-C ) :   1.0480 B(  9-C , 10-H ) :   0.9583 B(  9-C , 11-H ) :   0.9604
B(  9-C , 12-C ) :   1.0769 B( 12-C , 13-H ) :   0.9724 B( 12-C , 14-H ) :   0.9745
B( 12-C , 15-H ) :   0.9750 B( 16-S , 17-C ) :   1.1664 B( 16-S , 20-C ) :   1.1366
B( 17-C , 18-C ) :   1.5936 B( 17-C , 33-H ) :   0.9724 B( 18-C , 19-C ) :   1.2379
B( 18-C , 21-H ) :   0.9941 B( 19-C , 20-C ) :   1.5889 B( 19-C , 22-C ) :   1.0250
B( 22-C , 23-H ) :   0.9405 B( 22-C , 24-H ) :   0.9340 B( 22-C , 25-C ) :   1.0591
B( 25-C , 26-H ) :   0.9523 B( 25-C , 27-H ) :   0.9492 B( 25-C , 28-C ) :   1.0842
B( 28-C , 29-H ) :   0.9761 B( 28-C , 30-H ) :   0.9733 B( 28-C , 31-H ) :   0.9739

Dispersion correction           -0.014621529
FINAL SINGLE POINT ENERGY     -1339.875458595209

DIPOLE MOMENT
-------------
                                X             Y             Z
Electronic contribution:      9.47856     -21.80610      -6.92936
Nuclear contribution   :     -9.81149      22.19106       7.01621
                        -----------------------------------------
Total Dipole Moment    :     -0.33293       0.38496       0.08685
                        -----------------------------------------
Magnitude (a.u.)       :      0.51631
Magnitude (Debye)      :      1.31235

Rotational constants in cm-1:     0.021292     0.007705     0.006879
Rotational constants in MHz :   638.329589   230.989515   206.217948

                             ****ORCA TERMINATED NORMALLY****
TOTAL RUN TIME: 0 days 0 hours 0 minutes 32 seconds 277 msec
