                         Program Version 4.2.1 -  RELEASE  -
|  1> ! wB97X-D3 SP def2-SVP
|  2> %pal
|  3> nprocs 16
|  4> end
|  5>
|  6> * xyz 0 1
|  7> S 	 42.798 	 12.3321 	 88.1903
|  8> C 	 43.7784 	 13.5411 	 87.4201
|  9> C 	 44.973 	 13.0424 	 86.9671
| 10> C 	 45.0239 	 11.6248 	 87.1023
| 11> C 	 43.8856 	 11.05 	 87.5663
| 12> H 	 45.8714 	 11.0046 	 86.9555
| 13> C 	 46.184 	 13.8761 	 86.5625
| 14> H 	 47.0133 	 13.5108 	 87.1726
| 15> H 	 46.0849 	 14.9145 	 86.8572
| 16> C 	 46.6337 	 13.9531 	 85.1225
| 17> H 	 45.6939 	 13.9622 	 84.6063
| 18> H 	 47.1859 	 14.8947 	 84.9566
| 19> C 	 47.511 	 12.8138 	 84.5535
| 20> H 	 47.0602 	 11.81 	 84.7399
| 21> H 	 47.6673 	 13.0332 	 83.5425
| 22> H 	 48.5147 	 12.8268 	 85.028
| 23> S 	 42.7108 	 9.00444 	 89.1307
| 24> C 	 42.2148 	 7.52989 	 88.4782
| 25> C 	 42.6468 	 7.48074 	 87.1646
| 26> C 	 43.3123 	 8.67632 	 86.701
| 27> C 	 43.506 	 9.62308 	 87.7351
| 28> H 	 42.2631 	 6.6482 	 86.515
| 29> C 	 43.4485 	 8.97491 	 85.1632
| 30> H 	 44.2675 	 9.66601 	 85.0679
| 31> H 	 42.5226 	 9.49041 	 84.8796
| 32> C 	 43.7475 	 7.74411 	 84.1792
| 33> H 	 43.0447 	 6.92778 	 84.2655
| 34> H 	 44.7038 	 7.33607 	 84.3193
| 35> C 	 43.7332 	 8.22306 	 82.7174
| 36> H 	 43.5914 	 7.4965 	 81.9426
| 37> H 	 44.6175 	 8.71503 	 82.232
| 38> H 	 43.0133 	 8.98515 	 82.5293
| 39> H 	 43.5794 	 14.624 	 87.5903
| 40> H 	 41.8592 	 6.64435 	 89.003
| 41> *
| 42>
| 43>                          ****END OF INPUT****

CARTESIAN COORDINATES (ANGSTROEM)
---------------------------------
  S     42.798000   12.332100   88.190300
  C     43.778400   13.541100   87.420100
  C     44.973000   13.042400   86.967100
  C     45.023900   11.624800   87.102300
  C     43.885600   11.050000   87.566300
  H     45.871400   11.004600   86.955500
  C     46.184000   13.876100   86.562500
  H     47.013300   13.510800   87.172600
  H     46.084900   14.914500   86.857200
  C     46.633700   13.953100   85.122500
  H     45.693900   13.962200   84.606300
  H     47.185900   14.894700   84.956600
  C     47.511000   12.813800   84.553500
  H     47.060200   11.810000   84.739900
  H     47.667300   13.033200   83.542500
  H     48.514700   12.826800   85.028000
  S     42.710800    9.004440   89.130700
  C     42.214800    7.529890   88.478200
  C     42.646800    7.480740   87.164600
  C     43.312300    8.676320   86.701000
  C     43.506000    9.623080   87.735100
  H     42.263100    6.648200   86.515000
  C     43.448500    8.974910   85.163200
  H     44.267500    9.666010   85.067900
  H     42.522600    9.490410   84.879600
  C     43.747500    7.744110   84.179200
  H     43.044700    6.927780   84.265500
  H     44.703800    7.336070   84.319300
  C     43.733200    8.223060   82.717400
  H     43.591400    7.496500   81.942600
  H     44.617500    8.715030   82.232000
  H     43.013300    8.985150   82.529300
  H     43.579400   14.624000   87.590300
  H     41.859200    6.644350   89.003000

 Total Charge           Charge          ....    0
 Multiplicity           Mult            ....    1
 Number of Electrons    NEL             ....  134
 Basis Dimension        Dim             ....  322

ORBITAL ENERGIES
----------------

  NO   OCC          E(Eh)            E(eV)
   0   2.0000     -88.966585     -2420.9039
   1   2.0000     -88.963694     -2420.8252
   2   2.0000     -10.334855      -281.2257
   3   2.0000     -10.330831      -281.1162
   4   2.0000     -10.317100      -280.7426
   5   2.0000     -10.315814      -280.7076
   6   2.0000     -10.310834      -280.5721
   7   2.0000     -10.302047      -280.3329
   8   2.0000     -10.299288      -280.2579
   9   2.0000     -10.296843      -280.1914
  10   2.0000     -10.291951      -280.0582
  11   2.0000     -10.290858      -280.0285
  12   2.0000     -10.289433      -279.9897
  13   2.0000     -10.283535      -279.8292
  14   2.0000     -10.278571      -279.6941
  15   2.0000     -10.273867      -279.5661
  16   2.0000      -8.082665      -219.9405
  17   2.0000      -8.078417      -219.8249
  18   2.0000      -6.041044      -164.3852
  19   2.0000      -6.037009      -164.2754
  20   2.0000      -6.036664      -164.2660
  21   2.0000      -6.033773      -164.1873
  22   2.0000      -6.033094      -164.1688
  23   2.0000      -6.028917      -164.0552
  24   2.0000      -1.010744       -27.5037
  25   2.0000      -0.990492       -26.9526
  26   2.0000      -0.911433       -24.8013
  27   2.0000      -0.898626       -24.4529
  28   2.0000      -0.870806       -23.6958
  29   2.0000      -0.850055       -23.1312
  30   2.0000      -0.843904       -22.9638
  31   2.0000      -0.820370       -22.3234
  32   2.0000      -0.783864       -21.3300
  33   2.0000      -0.772217       -21.0131
  34   2.0000      -0.713351       -19.4113
  35   2.0000      -0.699137       -19.0245
  36   2.0000      -0.695110       -18.9149
  37   2.0000      -0.652151       -17.7459
  38   2.0000      -0.641584       -17.4584
  39   2.0000      -0.623131       -16.9563
  40   2.0000      -0.593828       -16.1589
  41   2.0000      -0.574953       -15.6453
  42   2.0000      -0.560672       -15.2567
  43   2.0000      -0.550978       -14.9929
  44   2.0000      -0.540295       -14.7022
  45   2.0000      -0.527621       -14.3573
  46   2.0000      -0.515632       -14.0310
  47   2.0000      -0.511388       -13.9156
  48   2.0000      -0.503712       -13.7067
  49   2.0000      -0.495958       -13.4957
  50   2.0000      -0.491151       -13.3649
  51   2.0000      -0.481056       -13.0902
  52   2.0000      -0.474333       -12.9073
  53   2.0000      -0.470844       -12.8123
  54   2.0000      -0.458751       -12.4833
  55   2.0000      -0.448180       -12.1956
  56   2.0000      -0.444497       -12.0954
  57   2.0000      -0.434746       -11.8300
  58   2.0000      -0.431179       -11.7330
  59   2.0000      -0.420051       -11.4302
  60   2.0000      -0.417840       -11.3700
  61   2.0000      -0.416848       -11.3430
  62   2.0000      -0.411381       -11.1942
  63   2.0000      -0.352433        -9.5902
  64   2.0000      -0.331273        -9.0144
  65   2.0000      -0.328069        -8.9272
  66   2.0000      -0.294842        -8.0230
  67   0.0000       0.027817         0.7569
  68   0.0000       0.066865         1.8195
  69   0.0000       0.110507         3.0071
  70   0.0000       0.119502         3.2518
  71   0.0000       0.133707         3.6384

MULLIKEN ATOMIC CHARGES
-----------------------
   0 S :    0.098153
   1 C :   -0.133470
   2 C :   -0.073938
   3 C :    0.039120
   4 C :   -0.155932
   5 H :    0.006200
   6 C :    0.061855
   7 H :    0.023704
   8 H :    0.014569
   9 C :   -0.074335
  10 H :    0.025651
  11 H :    0.032882
  12 C :   -0.048616
  13 H :    0.039762
  14 H :    0.029626
  15 H :    0.029243
  16 S :    0.108312
  17 C :   -0.095462
  18 C :   -0.068752
  19 C :   -0.070487
  20 C :   -0.129034
  21 H :    0.042187
  22 C :    0.059656
  23 H :    0.022767
  24 H :    0.054444
  25 C :   -0.021894
  26 H :    0.032288
  27 H :    0.026400
  28 C :   -0.069595
  29 H :    0.019400
  30 H :    0.023339
  31 H :    0.013840
  32 H :    0.064735
  33 H :    0.073381
Sum of atomic charges:    0.0000000

LOEWDIN ATOMIC CHARGES
----------------------
   0 S :    0.385442
   1 C :   -0.199009
   2 C :   -0.067174
   3 C :   -0.060548
   4 C :   -0.167515
   5 H :    0.028600
   6 C :   -0.034952
   7 H :    0.031114
   8 H :    0.031583
   9 C :   -0.042883
  10 H :    0.023079
  11 H :    0.028404
  12 C :   -0.065013
  13 H :    0.027037
  14 H :    0.020033
  15 H :    0.026385
  16 S :    0.448165
  17 C :   -0.211494
  18 C :   -0.088758
  19 C :   -0.054399
  20 C :   -0.224915
  21 H :    0.037847
  22 C :   -0.021109
  23 H :    0.026308
  24 H :    0.038799
  25 C :   -0.028818
  26 H :    0.022591
  27 H :    0.021966
  28 C :   -0.079604
  29 H :    0.023112
  30 H :    0.030689
  31 H :    0.018753
  32 H :    0.035677
  33 H :    0.040609

  Mayer bond orders larger than 0.100000
B(  0-S ,  1-C ) :   1.1410 B(  0-S ,  4-C ) :   1.1306 B(  1-C ,  2-C ) :   1.6288
B(  1-C , 32-H ) :   0.9593 B(  2-C ,  3-C ) :   1.2153 B(  2-C ,  6-C ) :   1.0282
B(  3-C ,  4-C ) :   1.6148 B(  3-C ,  5-H ) :   0.9991 B(  4-C , 20-C ) :   1.0341
B(  6-C ,  7-H ) :   0.9409 B(  6-C ,  8-H ) :   0.9388 B(  6-C ,  9-C ) :   1.0636
B(  9-C , 10-H ) :   0.9526 B(  9-C , 11-H ) :   0.9566 B(  9-C , 12-C ) :   1.0875
B( 12-C , 13-H ) :   0.9750 B( 12-C , 14-H ) :   0.9733 B( 12-C , 15-H ) :   0.9731
B( 16-S , 17-C ) :   1.1919 B( 16-S , 20-C ) :   1.1629 B( 17-C , 18-C ) :   1.5661
B( 17-C , 33-H ) :   0.9629 B( 18-C , 19-C ) :   1.3027 B( 18-C , 21-H ) :   0.9793
B( 19-C , 20-C ) :   1.5316 B( 19-C , 22-C ) :   1.0273 B( 22-C , 23-H ) :   0.9379
B( 22-C , 24-H ) :   0.9389 B( 22-C , 25-C ) :   1.0615 B( 25-C , 26-H ) :   0.9570
B( 25-C , 27-H ) :   0.9600 B( 25-C , 28-C ) :   1.0664 B( 28-C , 29-H ) :   0.9743
B( 28-C , 30-H ) :   0.9743 B( 28-C , 31-H ) :   0.9764

Dispersion correction           -0.013705220
FINAL SINGLE POINT ENERGY     -1339.861646877047

DIPOLE MOMENT
-------------
                                X             Y             Z
Electronic contribution:    -15.84126      -1.38614      27.65175
Nuclear contribution   :     16.13682       1.37220     -28.13984
                        -----------------------------------------
Total Dipole Moment    :      0.29555      -0.01394      -0.48809
                        -----------------------------------------
Magnitude (a.u.)       :      0.57077
Magnitude (Debye)      :      1.45079

Rotational constants in cm-1:     0.015741     0.009461     0.006473
Rotational constants in MHz :   471.896576   283.648475   194.059246

                             ****ORCA TERMINATED NORMALLY****
TOTAL RUN TIME: 0 days 0 hours 0 minutes 29 seconds 54 msec
