                         Program Version 4.2.1 -  RELEASE  -
|  1> ! wB97X-D3 SP def2-SVP
|  2> %pal
|  3> nprocs 16
|  4> end
|  5>
|  6> * xyz 0 1
|  7> S 	 -31.6216 	 66.831 	 104.733
|  8> C 	 -29.9227 	 66.8556 	 104.391
|  9> C 	 -29.6052 	 67.7838 	 103.44
| 10> C 	 -30.6793 	 68.685 	 103.205
| 11> C 	 -31.8988 	 68.2063 	 103.706
| 12> H 	 -30.6342 	 69.605 	 102.566
| 13> C 	 -28.1948 	 68.2256 	 103.03
| 14> H 	 -27.6635 	 68.4469 	 103.994
| 15> H 	 -28.1385 	 69.1735 	 102.619
| 16> C 	 -27.2416 	 67.1933 	 102.281
| 17> H 	 -27.7477 	 67.0966 	 101.358
| 18> H 	 -26.2608 	 67.6988 	 102.071
| 19> C 	 -26.935 	 65.8581 	 102.963
| 20> H 	 -26.0564 	 65.3525 	 102.613
| 21> H 	 -26.6722 	 66.1796 	 104
| 22> H 	 -27.7645 	 65.1874 	 103.036
| 23> S 	 -34.2413 	 69.2475 	 104.826
| 24> C 	 -35.4607 	 69.9816 	 103.808
| 25> C 	 -34.9443 	 70.1106 	 102.582
| 26> C 	 -33.6947 	 69.467 	 102.267
| 27> C 	 -33.1726 	 68.8714 	 103.436
| 28> H 	 -35.447 	 70.8317 	 101.843
| 29> C 	 -33.0662 	 69.5129 	 100.895
| 30> H 	 -32.6268 	 68.4374 	 100.696
| 31> H 	 -32.1677 	 70.1646 	 101.028
| 32> C 	 -33.761 	 69.9867 	 99.6143
| 33> H 	 -33.0519 	 69.9779 	 98.8027
| 34> H 	 -34.2032 	 70.9708 	 99.5888
| 35> C 	 -34.8596 	 68.9609 	 99.3206
| 36> H 	 -34.7519 	 68.0107 	 99.8932
| 37> H 	 -34.9288 	 68.7389 	 98.32
| 38> H 	 -35.8472 	 69.3758 	 99.5561
| 39> H 	 -29.1781 	 66.3826 	 104.994
| 40> H 	 -36.3817 	 70.5138 	 104.038
| 41> *
| 42>
| 43>                          ****END OF INPUT****

CARTESIAN COORDINATES (ANGSTROEM)
---------------------------------
  S    -31.621600   66.831000  104.733000
  C    -29.922700   66.855600  104.391000
  C    -29.605200   67.783800  103.440000
  C    -30.679300   68.685000  103.205000
  C    -31.898800   68.206300  103.706000
  H    -30.634200   69.605000  102.566000
  C    -28.194800   68.225600  103.030000
  H    -27.663500   68.446900  103.994000
  H    -28.138500   69.173500  102.619000
  C    -27.241600   67.193300  102.281000
  H    -27.747700   67.096600  101.358000
  H    -26.260800   67.698800  102.071000
  C    -26.935000   65.858100  102.963000
  H    -26.056400   65.352500  102.613000
  H    -26.672200   66.179600  104.000000
  H    -27.764500   65.187400  103.036000
  S    -34.241300   69.247500  104.826000
  C    -35.460700   69.981600  103.808000
  C    -34.944300   70.110600  102.582000
  C    -33.694700   69.467000  102.267000
  C    -33.172600   68.871400  103.436000
  H    -35.447000   70.831700  101.843000
  C    -33.066200   69.512900  100.895000
  H    -32.626800   68.437400  100.696000
  H    -32.167700   70.164600  101.028000
  C    -33.761000   69.986700   99.614300
  H    -33.051900   69.977900   98.802700
  H    -34.203200   70.970800   99.588800
  C    -34.859600   68.960900   99.320600
  H    -34.751900   68.010700   99.893200
  H    -34.928800   68.738900   98.320000
  H    -35.847200   69.375800   99.556100
  H    -29.178100   66.382600  104.994000
  H    -36.381700   70.513800  104.038000

 Total Charge           Charge          ....    0
 Multiplicity           Mult            ....    1
 Number of Electrons    NEL             ....  134
 Basis Dimension        Dim             ....  322

ORBITAL ENERGIES
----------------

  NO   OCC          E(Eh)            E(eV)
   0   2.0000     -88.969951     -2420.9955
   1   2.0000     -88.962918     -2420.8041
   2   2.0000     -10.333017      -281.1757
   3   2.0000     -10.330187      -281.0987
   4   2.0000     -10.313304      -280.6393
   5   2.0000     -10.310958      -280.5754
   6   2.0000     -10.310258      -280.5564
   7   2.0000     -10.305513      -280.4273
   8   2.0000     -10.301147      -280.3085
   9   2.0000     -10.297761      -280.2163
  10   2.0000     -10.293270      -280.0941
  11   2.0000     -10.292995      -280.0866
  12   2.0000     -10.290145      -280.0091
  13   2.0000     -10.289002      -279.9780
  14   2.0000     -10.278680      -279.6971
  15   2.0000     -10.268439      -279.4184
  16   2.0000      -8.084829      -219.9994
  17   2.0000      -8.077008      -219.7866
  18   2.0000      -6.043307      -164.4467
  19   2.0000      -6.039250      -164.3363
  20   2.0000      -6.035720      -164.2403
  21   2.0000      -6.035670      -164.2389
  22   2.0000      -6.031671      -164.1301
  23   2.0000      -6.027503      -164.0167
  24   2.0000      -1.006738       -27.3947
  25   2.0000      -0.985617       -26.8200
  26   2.0000      -0.911322       -24.7983
  27   2.0000      -0.905291       -24.6342
  28   2.0000      -0.870527       -23.6882
  29   2.0000      -0.853611       -23.2279
  30   2.0000      -0.843025       -22.9399
  31   2.0000      -0.811714       -22.0878
  32   2.0000      -0.786045       -21.3894
  33   2.0000      -0.774522       -21.0758
  34   2.0000      -0.711807       -19.3692
  35   2.0000      -0.700946       -19.0737
  36   2.0000      -0.697643       -18.9838
  37   2.0000      -0.650472       -17.7002
  38   2.0000      -0.637147       -17.3377
  39   2.0000      -0.612452       -16.6657
  40   2.0000      -0.594601       -16.1799
  41   2.0000      -0.572404       -15.5759
  42   2.0000      -0.559876       -15.2350
  43   2.0000      -0.551160       -14.9978
  44   2.0000      -0.540949       -14.7200
  45   2.0000      -0.538150       -14.6438
  46   2.0000      -0.518390       -14.1061
  47   2.0000      -0.508856       -13.8467
  48   2.0000      -0.501623       -13.6498
  49   2.0000      -0.492058       -13.3896
  50   2.0000      -0.491691       -13.3796
  51   2.0000      -0.479386       -13.0447
  52   2.0000      -0.473557       -12.8861
  53   2.0000      -0.461718       -12.5640
  54   2.0000      -0.460415       -12.5285
  55   2.0000      -0.452054       -12.3010
  56   2.0000      -0.443189       -12.0598
  57   2.0000      -0.437639       -11.9088
  58   2.0000      -0.430224       -11.7070
  59   2.0000      -0.422763       -11.5040
  60   2.0000      -0.419949       -11.4274
  61   2.0000      -0.414250       -11.2723
  62   2.0000      -0.412545       -11.2259
  63   2.0000      -0.344334        -9.3698
  64   2.0000      -0.331597        -9.0232
  65   2.0000      -0.324350        -8.8260
  66   2.0000      -0.291179        -7.9234
  67   0.0000       0.020750         0.5646
  68   0.0000       0.076388         2.0786
  69   0.0000       0.109496         2.9795
  70   0.0000       0.119604         3.2546
  71   0.0000       0.127975         3.4824

MULLIKEN ATOMIC CHARGES
-----------------------
   0 S :    0.136207
   1 C :   -0.118602
   2 C :   -0.045066
   3 C :   -0.017320
   4 C :   -0.151613
   5 H :    0.035402
   6 C :    0.022281
   7 H :    0.029869
   8 H :    0.003213
   9 C :   -0.063571
  10 H :    0.024333
  11 H :    0.034123
  12 C :   -0.044139
  13 H :    0.037798
  14 H :    0.016321
  15 H :    0.042667
  16 S :    0.090008
  17 C :   -0.065298
  18 C :   -0.084311
  19 C :   -0.001302
  20 C :   -0.161483
  21 H :    0.039589
  22 C :   -0.048729
  23 H :    0.064669
  24 H :    0.044604
  25 C :   -0.017784
  26 H :    0.026088
  27 H :    0.029620
  28 C :   -0.045356
  29 H :    0.045171
  30 H :    0.010460
  31 H :    0.024454
  32 H :    0.050084
  33 H :    0.057613
Sum of atomic charges:    0.0000000

LOEWDIN ATOMIC CHARGES
----------------------
   0 S :    0.426227
   1 C :   -0.198470
   2 C :   -0.066691
   3 C :   -0.060370
   4 C :   -0.208592
   5 H :    0.038370
   6 C :   -0.032330
   7 H :    0.035194
   8 H :    0.019290
   9 C :   -0.036465
  10 H :    0.014668
  11 H :    0.030862
  12 C :   -0.066577
  13 H :    0.027400
  14 H :    0.026831
  15 H :    0.022342
  16 S :    0.383416
  17 C :   -0.192680
  18 C :   -0.086630
  19 C :   -0.055373
  20 C :   -0.183736
  21 H :    0.039472
  22 C :   -0.046211
  23 H :    0.050974
  24 H :    0.032243
  25 C :   -0.039209
  26 H :    0.027854
  27 H :    0.023748
  28 C :   -0.063293
  29 H :    0.033009
  30 H :    0.011969
  31 H :    0.025905
  32 H :    0.026520
  33 H :    0.040333

  Mayer bond orders larger than 0.100000
B(  0-S ,  1-C ) :   1.1486 B(  0-S ,  4-C ) :   1.1570 B(  1-C ,  2-C ) :   1.5891
B(  1-C , 32-H ) :   0.9638 B(  2-C ,  3-C ) :   1.2680 B(  2-C ,  6-C ) :   1.0135
B(  3-C ,  4-C ) :   1.5354 B(  3-C ,  5-H ) :   0.9826 B(  4-C , 20-C ) :   1.0723
B(  6-C ,  7-H ) :   0.9418 B(  6-C ,  8-H ) :   0.9487 B(  6-C ,  9-C ) :   1.0615
B(  9-C , 10-H ) :   0.9599 B(  9-C , 11-H ) :   0.9562 B(  9-C , 12-C ) :   1.0740
B( 12-C , 13-H ) :   0.9732 B( 12-C , 14-H ) :   0.9726 B( 12-C , 15-H ) :   0.9731
B( 16-S , 17-C ) :   1.1280 B( 16-S , 20-C ) :   1.1338 B( 17-C , 18-C ) :   1.6498
B( 17-C , 33-H ) :   0.9595 B( 18-C , 19-C ) :   1.2494 B( 18-C , 21-H ) :   0.9623
B( 19-C , 20-C ) :   1.5801 B( 19-C , 22-C ) :   1.0248 B( 22-C , 23-H ) :   0.9375
B( 22-C , 24-H ) :   0.9255 B( 22-C , 25-C ) :   1.0924 B( 25-C , 26-H ) :   0.9516
B( 25-C , 27-H ) :   0.9522 B( 25-C , 28-C ) :   1.0630 B( 28-C , 29-H ) :   0.9810
B( 28-C , 30-H ) :   0.9750 B( 28-C , 31-H ) :   0.9752

Dispersion correction           -0.014149485
FINAL SINGLE POINT ENERGY     -1339.848797561213

DIPOLE MOMENT
-------------
                                X             Y             Z
Electronic contribution:    -14.32481      -0.24028      21.48094
Nuclear contribution   :     14.72699       0.70340     -22.07686
                        -----------------------------------------
Total Dipole Moment    :      0.40218       0.46312      -0.59592
                        -----------------------------------------
Magnitude (a.u.)       :      0.85519
Magnitude (Debye)      :      2.17372

Rotational constants in cm-1:     0.020735     0.007711     0.006090
Rotational constants in MHz :   621.607280   231.179170   182.562167

                             ****ORCA TERMINATED NORMALLY****
TOTAL RUN TIME: 0 days 0 hours 0 minutes 29 seconds 345 msec
