                         Program Version 4.2.1 -  RELEASE  -
|  1> ! wB97X-D3 SP def2-SVP
|  2> %pal
|  3> nprocs 16
|  4> end
|  5>
|  6> * xyz 0 1
|  7> S 	 -32.5798 	 56.613 	 109.693
|  8> C 	 -31.3009 	 57.1113 	 108.595
|  9> C 	 -31.7569 	 57.4163 	 107.299
| 10> C 	 -33.1983 	 57.4484 	 107.283
| 11> C 	 -33.7526 	 57.0539 	 108.467
| 12> H 	 -33.8249 	 57.8013 	 106.482
| 13> C 	 -30.9288 	 57.7807 	 106.055
| 14> H 	 -29.9284 	 57.5577 	 106.374
| 15> H 	 -30.9795 	 58.8706 	 105.917
| 16> C 	 -31.1344 	 57.0948 	 104.658
| 17> H 	 -32.0882 	 57.2248 	 104.296
| 18> H 	 -30.3718 	 57.4255 	 103.946
| 19> C 	 -30.8636 	 55.5556 	 104.812
| 20> H 	 -30.8589 	 55.0258 	 103.847
| 21> H 	 -29.8803 	 55.3637 	 105.224
| 22> H 	 -31.5684 	 55.1681 	 105.506
| 23> S 	 -35.6704 	 57.2515 	 110.58
| 24> C 	 -37.305 	 57.6906 	 110.209
| 25> C 	 -37.4878 	 57.684 	 108.856
| 26> C 	 -36.3613 	 57.3668 	 108.034
| 27> C 	 -35.1846 	 57.2457 	 108.816
| 28> H 	 -38.4959 	 57.9649 	 108.442
| 29> C 	 -36.5653 	 57.3658 	 106.516
| 30> H 	 -37.4776 	 56.6802 	 106.386
| 31> H 	 -35.752 	 56.7017 	 106.075
| 32> C 	 -36.7943 	 58.6777 	 105.74
| 33> H 	 -35.8164 	 59.251 	 105.698
| 34> H 	 -37.4653 	 59.3428 	 106.354
| 35> C 	 -37.3261 	 58.339 	 104.321
| 36> H 	 -36.6471 	 57.8217 	 103.605
| 37> H 	 -37.7602 	 59.243 	 103.861
| 38> H 	 -38.1206 	 57.6945 	 104.493
| 39> H 	 -30.3327 	 57.3582 	 108.951
| 40> H 	 -38.0418 	 57.95 	 110.971
| 41> *
| 42>
| 43>                          ****END OF INPUT****

CARTESIAN COORDINATES (ANGSTROEM)
---------------------------------
  S    -32.579800   56.613000  109.693000
  C    -31.300900   57.111300  108.595000
  C    -31.756900   57.416300  107.299000
  C    -33.198300   57.448400  107.283000
  C    -33.752600   57.053900  108.467000
  H    -33.824900   57.801300  106.482000
  C    -30.928800   57.780700  106.055000
  H    -29.928400   57.557700  106.374000
  H    -30.979500   58.870600  105.917000
  C    -31.134400   57.094800  104.658000
  H    -32.088200   57.224800  104.296000
  H    -30.371800   57.425500  103.946000
  C    -30.863600   55.555600  104.812000
  H    -30.858900   55.025800  103.847000
  H    -29.880300   55.363700  105.224000
  H    -31.568400   55.168100  105.506000
  S    -35.670400   57.251500  110.580000
  C    -37.305000   57.690600  110.209000
  C    -37.487800   57.684000  108.856000
  C    -36.361300   57.366800  108.034000
  C    -35.184600   57.245700  108.816000
  H    -38.495900   57.964900  108.442000
  C    -36.565300   57.365800  106.516000
  H    -37.477600   56.680200  106.386000
  H    -35.752000   56.701700  106.075000
  C    -36.794300   58.677700  105.740000
  H    -35.816400   59.251000  105.698000
  H    -37.465300   59.342800  106.354000
  C    -37.326100   58.339000  104.321000
  H    -36.647100   57.821700  103.605000
  H    -37.760200   59.243000  103.861000
  H    -38.120600   57.694500  104.493000
  H    -30.332700   57.358200  108.951000
  H    -38.041800   57.950000  110.971000

 Total Charge           Charge          ....    0
 Multiplicity           Mult            ....    1
 Number of Electrons    NEL             ....  134
 Basis Dimension        Dim             ....  322

ORBITAL ENERGIES
----------------

  NO   OCC          E(Eh)            E(eV)
   0   2.0000     -88.969456     -2420.9820
   1   2.0000     -88.962886     -2420.8032
   2   2.0000     -10.339735      -281.3585
   3   2.0000     -10.331780      -281.1420
   4   2.0000     -10.317117      -280.7430
   5   2.0000     -10.316480      -280.7257
   6   2.0000     -10.310495      -280.5628
   7   2.0000     -10.309148      -280.5262
   8   2.0000     -10.306480      -280.4536
   9   2.0000     -10.304281      -280.3937
  10   2.0000     -10.296698      -280.1874
  11   2.0000     -10.294869      -280.1376
  12   2.0000     -10.292851      -280.0827
  13   2.0000     -10.289545      -279.9928
  14   2.0000     -10.283783      -279.8360
  15   2.0000     -10.272538      -279.5300
  16   2.0000      -8.084121      -219.9801
  17   2.0000      -8.076977      -219.7857
  18   2.0000      -6.042719      -164.4308
  19   2.0000      -6.038853      -164.3255
  20   2.0000      -6.035647      -164.2383
  21   2.0000      -6.034577      -164.2092
  22   2.0000      -6.031618      -164.1287
  23   2.0000      -6.027578      -164.0187
  24   2.0000      -1.001501       -27.2522
  25   2.0000      -0.979586       -26.6559
  26   2.0000      -0.907353       -24.6903
  27   2.0000      -0.905810       -24.6484
  28   2.0000      -0.864891       -23.5349
  29   2.0000      -0.853350       -23.2208
  30   2.0000      -0.844176       -22.9712
  31   2.0000      -0.810359       -22.0510
  32   2.0000      -0.780276       -21.2324
  33   2.0000      -0.771076       -20.9820
  34   2.0000      -0.710920       -19.3451
  35   2.0000      -0.703663       -19.1476
  36   2.0000      -0.693108       -18.8604
  37   2.0000      -0.656125       -17.8541
  38   2.0000      -0.638511       -17.3748
  39   2.0000      -0.622110       -16.9285
  40   2.0000      -0.595881       -16.2147
  41   2.0000      -0.562340       -15.3021
  42   2.0000      -0.558194       -15.1892
  43   2.0000      -0.548533       -14.9264
  44   2.0000      -0.545109       -14.8332
  45   2.0000      -0.527873       -14.3641
  46   2.0000      -0.516932       -14.0664
  47   2.0000      -0.511100       -13.9077
  48   2.0000      -0.496268       -13.5041
  49   2.0000      -0.494570       -13.4579
  50   2.0000      -0.488511       -13.2931
  51   2.0000      -0.483901       -13.1676
  52   2.0000      -0.468723       -12.7546
  53   2.0000      -0.461964       -12.5707
  54   2.0000      -0.457302       -12.4438
  55   2.0000      -0.451530       -12.2867
  56   2.0000      -0.444880       -12.1058
  57   2.0000      -0.443743       -12.0749
  58   2.0000      -0.434126       -11.8132
  59   2.0000      -0.433618       -11.7993
  60   2.0000      -0.420701       -11.4479
  61   2.0000      -0.418064       -11.3761
  62   2.0000      -0.409589       -11.1455
  63   2.0000      -0.357996        -9.7416
  64   2.0000      -0.334212        -9.0944
  65   2.0000      -0.327091        -8.9006
  66   2.0000      -0.280515        -7.6332
  67   0.0000       0.016783         0.4567
  68   0.0000       0.083129         2.2620
  69   0.0000       0.087586         2.3833
  70   0.0000       0.115946         3.1550
  71   0.0000       0.128609         3.4996

MULLIKEN ATOMIC CHARGES
-----------------------
   0 S :    0.107677
   1 C :   -0.122030
   2 C :   -0.089606
   3 C :   -0.016892
   4 C :   -0.089456
   5 H :    0.002559
   6 C :    0.058063
   7 H :    0.007177
   8 H :    0.046806
   9 C :   -0.033501
  10 H :    0.019800
  11 H :    0.038911
  12 C :   -0.070228
  13 H :    0.036765
  14 H :    0.019996
  15 H :    0.039520
  16 S :    0.073534
  17 C :   -0.088705
  18 C :   -0.052900
  19 C :   -0.026286
  20 C :   -0.130949
  21 H :    0.031266
  22 C :   -0.037897
  23 H :    0.039326
  24 H :    0.039524
  25 C :   -0.066357
  26 H :    0.042496
  27 H :    0.039442
  28 C :   -0.027041
  29 H :    0.047609
  30 H :    0.040037
  31 H :    0.010085
  32 H :    0.043562
  33 H :    0.067693
Sum of atomic charges:   -0.0000000

LOEWDIN ATOMIC CHARGES
----------------------
   0 S :    0.396638
   1 C :   -0.191133
   2 C :   -0.053265
   3 C :   -0.064182
   4 C :   -0.182567
   5 H :    0.029665
   6 C :   -0.032788
   7 H :    0.025523
   8 H :    0.035442
   9 C :   -0.024533
  10 H :    0.009680
  11 H :    0.031574
  12 C :   -0.062891
  13 H :    0.026275
  14 H :    0.021585
  15 H :    0.021692
  16 S :    0.368131
  17 C :   -0.190248
  18 C :   -0.081915
  19 C :   -0.065835
  20 C :   -0.164203
  21 H :    0.036049
  22 C :   -0.051174
  23 H :    0.039327
  24 H :    0.033905
  25 C :   -0.044321
  26 H :    0.028179
  27 H :    0.031802
  28 C :   -0.063395
  29 H :    0.033904
  30 H :    0.031753
  31 H :    0.014680
  32 H :    0.020347
  33 H :    0.036299

  Mayer bond orders larger than 0.100000
B(  0-S ,  1-C ) :   1.1337 B(  0-S ,  4-C ) :   1.1293 B(  1-C ,  2-C ) :   1.6230
B(  1-C , 32-H ) :   0.9677 B(  2-C ,  3-C ) :   1.2107 B(  2-C ,  6-C ) :   1.0174
B(  3-C ,  4-C ) :   1.5975 B(  3-C ,  5-H ) :   0.9921 B(  4-C , 20-C ) :   1.0719
B(  6-C ,  7-H ) :   0.9409 B(  6-C ,  8-H ) :   0.9385 B(  6-C ,  9-C ) :   1.0700
B(  9-C , 10-H ) :   0.9595 B(  9-C , 11-H ) :   0.9572 B(  9-C , 12-C ) :   1.0706
B( 12-C , 13-H ) :   0.9766 B( 12-C , 14-H ) :   0.9769 B( 12-C , 15-H ) :   0.9792
B( 16-S , 17-C ) :   1.1435 B( 16-S , 20-C ) :   1.1247 B( 17-C , 18-C ) :   1.6183
B( 17-C , 33-H ) :   0.9672 B( 18-C , 19-C ) :   1.2385 B( 18-C , 21-H ) :   0.9794
B( 19-C , 20-C ) :   1.5779 B( 19-C , 22-C ) :   1.0387 B( 22-C , 23-H ) :   0.9368
B( 22-C , 24-H ) :   0.9325 B( 22-C , 25-C ) :   1.0517 B( 25-C , 26-H ) :   0.9527
B( 25-C , 27-H ) :   0.9532 B( 25-C , 28-C ) :   1.0617 B( 28-C , 29-H ) :   0.9764
B( 28-C , 30-H ) :   0.9736 B( 28-C , 31-H ) :   0.9754

Dispersion correction           -0.013952658
FINAL SINGLE POINT ENERGY     -1339.867968484811

DIPOLE MOMENT
-------------
                                X             Y             Z
Electronic contribution:     -0.91316      -2.58619      31.35074
Nuclear contribution   :      0.77456       2.94068     -32.07419
                        -----------------------------------------
Total Dipole Moment    :     -0.13861       0.35449      -0.72345
                        -----------------------------------------
Magnitude (a.u.)       :      0.81747
Magnitude (Debye)      :      2.07785

Rotational constants in cm-1:     0.016003     0.009789     0.006412
Rotational constants in MHz :   479.750144   293.471259   192.237766

                             ****ORCA TERMINATED NORMALLY****
TOTAL RUN TIME: 0 days 0 hours 0 minutes 30 seconds 326 msec
