                         Program Version 4.2.1 -  RELEASE  -
|  1> ! wB97X-D3 SP def2-SVP
|  2> %pal
|  3> nprocs 16
|  4> end
|  5>
|  6> * xyz 0 1
|  7> S 	 -3.73529 	 9.91511 	 87.2758
|  8> C 	 -3.43686 	 8.70768 	 88.4772
|  9> C 	 -4.51333 	 7.78493 	 88.4897
| 10> C 	 -5.46059 	 8.0367 	 87.4791
| 11> C 	 -5.12709 	 9.12528 	 86.7041
| 12> H 	 -6.46907 	 7.54847 	 87.3191
| 13> C 	 -4.68972 	 6.66346 	 89.4827
| 14> H 	 -5.62573 	 6.93327 	 89.9559
| 15> H 	 -3.88641 	 6.52499 	 90.1828
| 16> C 	 -4.86236 	 5.26389 	 88.86
| 17> H 	 -4.90701 	 4.67969 	 89.7461
| 18> H 	 -5.81931 	 5.28457 	 88.3483
| 19> C 	 -3.70462 	 4.6613 	 88.0007
| 20> H 	 -2.77077 	 5.13796 	 88.2916
| 21> H 	 -3.53885 	 3.59252 	 88.1118
| 22> H 	 -3.90068 	 4.85075 	 86.968
| 23> S 	 -6.25926 	 11.4844 	 85.5887
| 24> C 	 -6.99874 	 11.4078 	 84.0797
| 25> C 	 -7.06365 	 10.0991 	 83.6042
| 26> C 	 -6.37157 	 9.15993 	 84.4134
| 27> C 	 -5.86604 	 9.72948 	 85.5944
| 28> H 	 -7.47935 	 9.88957 	 82.6619
| 29> C 	 -6.13246 	 7.73856 	 83.944
| 30> H 	 -6.90095 	 7.06004 	 84.209
| 31> H 	 -5.30109 	 7.3894 	 84.4764
| 32> C 	 -5.64281 	 7.64055 	 82.4753
| 33> H 	 -6.2252 	 8.3099 	 81.8621
| 34> H 	 -5.80176 	 6.58379 	 82.0637
| 35> C 	 -4.18558 	 8.12812 	 82.2946
| 36> H 	 -3.75606 	 8.16645 	 81.2933
| 37> H 	 -3.54929 	 7.48516 	 82.8135
| 38> H 	 -3.99374 	 9.101 	 82.8945
| 39> H 	 -2.73273 	 8.72997 	 89.3003
| 40> H 	 -7.39263 	 12.3365 	 83.6465
| 41> *
| 42>
| 43>                          ****END OF INPUT****

CARTESIAN COORDINATES (ANGSTROEM)
---------------------------------
  S     -3.735290    9.915110   87.275800
  C     -3.436860    8.707680   88.477200
  C     -4.513330    7.784930   88.489700
  C     -5.460590    8.036700   87.479100
  C     -5.127090    9.125280   86.704100
  H     -6.469070    7.548470   87.319100
  C     -4.689720    6.663460   89.482700
  H     -5.625730    6.933270   89.955900
  H     -3.886410    6.524990   90.182800
  C     -4.862360    5.263890   88.860000
  H     -4.907010    4.679690   89.746100
  H     -5.819310    5.284570   88.348300
  C     -3.704620    4.661300   88.000700
  H     -2.770770    5.137960   88.291600
  H     -3.538850    3.592520   88.111800
  H     -3.900680    4.850750   86.968000
  S     -6.259260   11.484400   85.588700
  C     -6.998740   11.407800   84.079700
  C     -7.063650   10.099100   83.604200
  C     -6.371570    9.159930   84.413400
  C     -5.866040    9.729480   85.594400
  H     -7.479350    9.889570   82.661900
  C     -6.132460    7.738560   83.944000
  H     -6.900950    7.060040   84.209000
  H     -5.301090    7.389400   84.476400
  C     -5.642810    7.640550   82.475300
  H     -6.225200    8.309900   81.862100
  H     -5.801760    6.583790   82.063700
  C     -4.185580    8.128120   82.294600
  H     -3.756060    8.166450   81.293300
  H     -3.549290    7.485160   82.813500
  H     -3.993740    9.101000   82.894500
  H     -2.732730    8.729970   89.300300
  H     -7.392630   12.336500   83.646500

 Total Charge           Charge          ....    0
 Multiplicity           Mult            ....    1
 Number of Electrons    NEL             ....  134
 Basis Dimension        Dim             ....  322

ORBITAL ENERGIES
----------------

  NO   OCC          E(Eh)            E(eV)
   0   2.0000     -88.966710     -2420.9072
   1   2.0000     -88.964949     -2420.8593
   2   2.0000     -10.329511      -281.0803
   3   2.0000     -10.326128      -280.9882
   4   2.0000     -10.318019      -280.7676
   5   2.0000     -10.313072      -280.6329
   6   2.0000     -10.305080      -280.4155
   7   2.0000     -10.301569      -280.3199
   8   2.0000     -10.296209      -280.1741
   9   2.0000     -10.292018      -280.0600
  10   2.0000     -10.289891      -280.0022
  11   2.0000     -10.289553      -279.9930
  12   2.0000     -10.284331      -279.8509
  13   2.0000     -10.283317      -279.8233
  14   2.0000     -10.275393      -279.6077
  15   2.0000     -10.274608      -279.5863
  16   2.0000      -8.082509      -219.9362
  17   2.0000      -8.080407      -219.8791
  18   2.0000      -6.040786      -164.3781
  19   2.0000      -6.038724      -164.3220
  20   2.0000      -6.036784      -164.2693
  21   2.0000      -6.034712      -164.2129
  22   2.0000      -6.033520      -164.1804
  23   2.0000      -6.031428      -164.1235
  24   2.0000      -1.011335       -27.5198
  25   2.0000      -0.988837       -26.9076
  26   2.0000      -0.913862       -24.8675
  27   2.0000      -0.910299       -24.7705
  28   2.0000      -0.866116       -23.5682
  29   2.0000      -0.850091       -23.1321
  30   2.0000      -0.842933       -22.9374
  31   2.0000      -0.811522       -22.0826
  32   2.0000      -0.788239       -21.4491
  33   2.0000      -0.775808       -21.1108
  34   2.0000      -0.707640       -19.2559
  35   2.0000      -0.699803       -19.0426
  36   2.0000      -0.692851       -18.8534
  37   2.0000      -0.652404       -17.7528
  38   2.0000      -0.638495       -17.3743
  39   2.0000      -0.623892       -16.9770
  40   2.0000      -0.608030       -16.5453
  41   2.0000      -0.568357       -15.4658
  42   2.0000      -0.558531       -15.1984
  43   2.0000      -0.555131       -15.1059
  44   2.0000      -0.541842       -14.7443
  45   2.0000      -0.526209       -14.3189
  46   2.0000      -0.515760       -14.0346
  47   2.0000      -0.509324       -13.8594
  48   2.0000      -0.503091       -13.6898
  49   2.0000      -0.494690       -13.4612
  50   2.0000      -0.486856       -13.2480
  51   2.0000      -0.476977       -12.9792
  52   2.0000      -0.472634       -12.8610
  53   2.0000      -0.469200       -12.7676
  54   2.0000      -0.462736       -12.5917
  55   2.0000      -0.449787       -12.2393
  56   2.0000      -0.447036       -12.1645
  57   2.0000      -0.445064       -12.1108
  58   2.0000      -0.435678       -11.8554
  59   2.0000      -0.427661       -11.6373
  60   2.0000      -0.415572       -11.3083
  61   2.0000      -0.412125       -11.2145
  62   2.0000      -0.404932       -11.0188
  63   2.0000      -0.344937        -9.3862
  64   2.0000      -0.334058        -9.0902
  65   2.0000      -0.329144        -8.9565
  66   2.0000      -0.290918        -7.9163
  67   0.0000       0.028834         0.7846
  68   0.0000       0.073112         1.9895
  69   0.0000       0.118654         3.2287
  70   0.0000       0.126869         3.4523
  71   0.0000       0.127894         3.4802

MULLIKEN ATOMIC CHARGES
-----------------------
   0 S :    0.121763
   1 C :   -0.106593
   2 C :   -0.109162
   3 C :    0.002823
   4 C :   -0.167401
   5 H :    0.039243
   6 C :    0.072041
   7 H :    0.037971
   8 H :    0.013039
   9 C :   -0.084610
  10 H :    0.023181
  11 H :    0.026712
  12 C :   -0.031881
  13 H :    0.023422
  14 H :    0.036062
  15 H :    0.034311
  16 S :    0.111118
  17 C :   -0.105269
  18 C :   -0.017276
  19 C :   -0.053325
  20 C :   -0.162195
  21 H :    0.003880
  22 C :    0.130446
  23 H :    0.031058
  24 H :    0.004915
  25 C :   -0.095877
  26 H :    0.024120
  27 H :    0.041728
  28 C :   -0.063619
  29 H :    0.042360
  30 H :    0.007819
  31 H :    0.050435
  32 H :    0.046395
  33 H :    0.072367
Sum of atomic charges:    0.0000000

LOEWDIN ATOMIC CHARGES
----------------------
   0 S :    0.443958
   1 C :   -0.219449
   2 C :   -0.060910
   3 C :   -0.076397
   4 C :   -0.209568
   5 H :    0.044886
   6 C :   -0.028165
   7 H :    0.038163
   8 H :    0.023833
   9 C :   -0.036701
  10 H :    0.021265
  11 H :    0.018335
  12 C :   -0.063134
  13 H :    0.025900
  14 H :    0.027816
  15 H :    0.024460
  16 S :    0.416468
  17 C :   -0.200784
  18 C :   -0.072901
  19 C :   -0.049602
  20 C :   -0.197984
  21 H :    0.021809
  22 C :   -0.025916
  23 H :    0.028973
  24 H :    0.025538
  25 C :   -0.038892
  26 H :    0.014469
  27 H :    0.032406
  28 C :   -0.073890
  29 H :    0.027958
  30 H :    0.013017
  31 H :    0.041880
  32 H :    0.029095
  33 H :    0.034066

  Mayer bond orders larger than 0.100000
B(  0-S ,  1-C ) :   1.1468 B(  0-S ,  4-C ) :   1.1903 B(  1-C ,  2-C ) :   1.5746
B(  1-C ,  4-C ) :   0.1027 B(  1-C , 32-H ) :   0.9687 B(  2-C ,  3-C ) :   1.2636
B(  2-C ,  6-C ) :   1.0272 B(  3-C ,  4-C ) :   1.5445 B(  3-C ,  5-H ) :   0.9853
B(  4-C , 20-C ) :   1.0344 B(  6-C ,  7-H ) :   0.9340 B(  6-C ,  8-H ) :   0.9459
B(  6-C ,  9-C ) :   1.0847 B(  9-C , 10-H ) :   0.9602 B(  9-C , 11-H ) :   0.9585
B(  9-C , 12-C ) :   1.0603 B( 12-C , 13-H ) :   0.9764 B( 12-C , 14-H ) :   0.9791
B( 12-C , 15-H ) :   0.9768 B( 16-S , 17-C ) :   1.1934 B( 16-S , 20-C ) :   1.1449
B( 17-C , 18-C ) :   1.5514 B( 17-C , 20-C ) :   0.1038 B( 17-C , 33-H ) :   0.9664
B( 18-C , 19-C ) :   1.2697 B( 18-C , 21-H ) :   1.0000 B( 19-C , 20-C ) :   1.5635
B( 19-C , 22-C ) :   1.0357 B( 22-C , 23-H ) :   0.9305 B( 22-C , 24-H ) :   0.9310
B( 22-C , 25-C ) :   1.0581 B( 25-C , 26-H ) :   0.9626 B( 25-C , 27-H ) :   0.9546
B( 25-C , 28-C ) :   1.0658 B( 28-C , 29-H ) :   0.9760 B( 28-C , 30-H ) :   0.9708
B( 28-C , 31-H ) :   0.9727

Dispersion correction           -0.014753691
FINAL SINGLE POINT ENERGY     -1339.875641531419

DIPOLE MOMENT
-------------
                                X             Y             Z
Electronic contribution:     -3.37548      25.55178       5.18399
Nuclear contribution   :      3.21755     -26.05365      -5.16192
                        -----------------------------------------
Total Dipole Moment    :     -0.15793      -0.50188       0.02207
                        -----------------------------------------
Magnitude (a.u.)       :      0.52660
Magnitude (Debye)      :      1.33852

Rotational constants in cm-1:     0.019346     0.009058     0.007216
Rotational constants in MHz :   579.989455   271.538279   216.317293

                             ****ORCA TERMINATED NORMALLY****
TOTAL RUN TIME: 0 days 0 hours 0 minutes 36 seconds 161 msec
