                         Program Version 4.2.1 -  RELEASE  -
|  1> ! wB97X-D3 SP def2-SVP
|  2> %pal
|  3> nprocs 16
|  4> end
|  5>
|  6> * xyz 0 1
|  7> S 	 46.7338 	 23.1154 	 90.6277
|  8> C 	 46.4994 	 23.234 	 92.4245
|  9> C 	 47.6795 	 23.1165 	 93.0532
| 10> C 	 48.78 	 22.9888 	 92.1712
| 11> C 	 48.4288 	 22.7562 	 90.8508
| 12> H 	 49.7862 	 22.9544 	 92.3946
| 13> C 	 47.8866 	 23.3546 	 94.5346
| 14> H 	 48.8288 	 22.9409 	 94.8173
| 15> H 	 47.307 	 22.6995 	 95.1833
| 16> C 	 47.6679 	 24.8025 	 95.0453
| 17> H 	 47.6487 	 24.8185 	 96.1688
| 18> H 	 48.5477 	 25.3803 	 94.8743
| 19> C 	 46.4346 	 25.6165 	 94.5338
| 20> H 	 46.3348 	 26.466 	 95.2369
| 21> H 	 46.6258 	 25.9501 	 93.4284
| 22> H 	 45.4475 	 25.0068 	 94.5687
| 23> S 	 48.8272 	 21.2869 	 88.7131
| 24> C 	 50.0888 	 21.6778 	 87.4923
| 25> C 	 50.7762 	 22.8898 	 87.8607
| 26> C 	 50.3441 	 23.2985 	 89.1563
| 27> C 	 49.3129 	 22.5575 	 89.7155
| 28> H 	 51.6875 	 23.262 	 87.3355
| 29> C 	 50.7793 	 24.6053 	 89.7015
| 30> H 	 51.6997 	 24.9031 	 89.2104
| 31> H 	 51.0314 	 24.4871 	 90.746
| 32> C 	 49.759 	 25.6767 	 89.4239
| 33> H 	 48.7974 	 25.4563 	 89.9076
| 34> H 	 49.734 	 25.7107 	 88.3451
| 35> C 	 50.2335 	 27.021 	 89.9671
| 36> H 	 50.7059 	 26.8717 	 90.9589
| 37> H 	 49.4961 	 27.7804 	 89.973
| 38> H 	 50.9494 	 27.3904 	 89.2622
| 39> H 	 45.5838 	 23.2911 	 92.9289
| 40> H 	 50.1612 	 21.2063 	 86.5169
| 41> *
| 42>
| 43>                          ****END OF INPUT****

CARTESIAN COORDINATES (ANGSTROEM)
---------------------------------
  S     46.733800   23.115400   90.627700
  C     46.499400   23.234000   92.424500
  C     47.679500   23.116500   93.053200
  C     48.780000   22.988800   92.171200
  C     48.428800   22.756200   90.850800
  H     49.786200   22.954400   92.394600
  C     47.886600   23.354600   94.534600
  H     48.828800   22.940900   94.817300
  H     47.307000   22.699500   95.183300
  C     47.667900   24.802500   95.045300
  H     47.648700   24.818500   96.168800
  H     48.547700   25.380300   94.874300
  C     46.434600   25.616500   94.533800
  H     46.334800   26.466000   95.236900
  H     46.625800   25.950100   93.428400
  H     45.447500   25.006800   94.568700
  S     48.827200   21.286900   88.713100
  C     50.088800   21.677800   87.492300
  C     50.776200   22.889800   87.860700
  C     50.344100   23.298500   89.156300
  C     49.312900   22.557500   89.715500
  H     51.687500   23.262000   87.335500
  C     50.779300   24.605300   89.701500
  H     51.699700   24.903100   89.210400
  H     51.031400   24.487100   90.746000
  C     49.759000   25.676700   89.423900
  H     48.797400   25.456300   89.907600
  H     49.734000   25.710700   88.345100
  C     50.233500   27.021000   89.967100
  H     50.705900   26.871700   90.958900
  H     49.496100   27.780400   89.973000
  H     50.949400   27.390400   89.262200
  H     45.583800   23.291100   92.928900
  H     50.161200   21.206300   86.516900

 Total Charge           Charge          ....    0
 Multiplicity           Mult            ....    1
 Number of Electrons    NEL             ....  134
 Basis Dimension        Dim             ....  322

ORBITAL ENERGIES
----------------

  NO   OCC          E(Eh)            E(eV)
   0   2.0000     -88.968461     -2420.9549
   1   2.0000     -88.966782     -2420.9092
   2   2.0000     -10.329487      -281.0796
   3   2.0000     -10.327659      -281.0299
   4   2.0000     -10.320046      -280.8227
   5   2.0000     -10.311138      -280.5803
   6   2.0000     -10.305808      -280.4353
   7   2.0000     -10.298694      -280.2417
   8   2.0000     -10.298015      -280.2232
   9   2.0000     -10.297646      -280.2132
  10   2.0000     -10.292251      -280.0664
  11   2.0000     -10.291312      -280.0408
  12   2.0000     -10.287422      -279.9350
  13   2.0000     -10.280198      -279.7384
  14   2.0000     -10.276615      -279.6409
  15   2.0000     -10.268678      -279.4249
  16   2.0000      -8.083334      -219.9587
  17   2.0000      -8.080365      -219.8779
  18   2.0000      -6.041721      -164.4036
  19   2.0000      -6.039050      -164.3309
  20   2.0000      -6.037621      -164.2920
  21   2.0000      -6.035080      -164.2229
  22   2.0000      -6.034389      -164.2041
  23   2.0000      -6.030930      -164.1100
  24   2.0000      -1.010352       -27.4931
  25   2.0000      -0.983745       -26.7691
  26   2.0000      -0.917653       -24.9706
  27   2.0000      -0.907537       -24.6953
  28   2.0000      -0.867272       -23.5997
  29   2.0000      -0.850552       -23.1447
  30   2.0000      -0.842920       -22.9370
  31   2.0000      -0.813546       -22.1377
  32   2.0000      -0.785401       -21.3718
  33   2.0000      -0.770374       -20.9629
  34   2.0000      -0.705440       -19.1960
  35   2.0000      -0.695158       -18.9162
  36   2.0000      -0.690365       -18.7858
  37   2.0000      -0.671820       -18.2811
  38   2.0000      -0.647679       -17.6242
  39   2.0000      -0.617828       -16.8120
  40   2.0000      -0.594173       -16.1683
  41   2.0000      -0.574618       -15.6362
  42   2.0000      -0.570359       -15.5202
  43   2.0000      -0.543787       -14.7972
  44   2.0000      -0.541516       -14.7354
  45   2.0000      -0.522337       -14.2135
  46   2.0000      -0.517603       -14.0847
  47   2.0000      -0.512598       -13.9485
  48   2.0000      -0.507677       -13.8146
  49   2.0000      -0.496786       -13.5182
  50   2.0000      -0.490333       -13.3426
  51   2.0000      -0.480093       -13.0640
  52   2.0000      -0.470184       -12.7944
  53   2.0000      -0.464171       -12.6307
  54   2.0000      -0.455098       -12.3839
  55   2.0000      -0.445091       -12.1115
  56   2.0000      -0.441475       -12.0131
  57   2.0000      -0.437604       -11.9078
  58   2.0000      -0.431332       -11.7371
  59   2.0000      -0.423303       -11.5187
  60   2.0000      -0.418554       -11.3894
  61   2.0000      -0.414191       -11.2707
  62   2.0000      -0.410694       -11.1756
  63   2.0000      -0.340880        -9.2758
  64   2.0000      -0.336528        -9.1574
  65   2.0000      -0.328148        -8.9294
  66   2.0000      -0.294692        -8.0190
  67   0.0000       0.027004         0.7348
  68   0.0000       0.059752         1.6259
  69   0.0000       0.109795         2.9877
  70   0.0000       0.113743         3.0951
  71   0.0000       0.124105         3.3771

MULLIKEN ATOMIC CHARGES
-----------------------
   0 S :    0.103390
   1 C :   -0.106320
   2 C :   -0.052064
   3 C :    0.045835
   4 C :   -0.135015
   5 H :   -0.020106
   6 C :    0.099654
   7 H :    0.001504
   8 H :    0.018962
   9 C :   -0.074036
  10 H :    0.028917
  11 H :    0.021121
  12 C :   -0.111362
  13 H :    0.047384
  14 H :    0.070091
  15 H :    0.042199
  16 S :    0.114024
  17 C :   -0.108718
  18 C :   -0.051610
  19 C :   -0.047410
  20 C :   -0.169624
  21 H :    0.050128
  22 C :    0.073868
  23 H :   -0.000694
  24 H :    0.011161
  25 C :   -0.066274
  26 H :    0.042301
  27 H :    0.021368
  28 C :   -0.009141
  29 H :    0.032405
  30 H :    0.023094
  31 H :    0.013216
  32 H :    0.024791
  33 H :    0.066961
Sum of atomic charges:   -0.0000000

LOEWDIN ATOMIC CHARGES
----------------------
   0 S :    0.381049
   1 C :   -0.160181
   2 C :   -0.063100
   3 C :   -0.053800
   4 C :   -0.191740
   5 H :    0.017341
   6 C :   -0.035763
   7 H :    0.027436
   8 H :    0.032379
   9 C :   -0.044838
  10 H :    0.028380
  11 H :    0.018824
  12 C :   -0.080994
  13 H :    0.030425
  14 H :    0.040079
  15 H :    0.028787
  16 S :    0.433779
  17 C :   -0.178126
  18 C :   -0.071021
  19 C :   -0.059579
  20 C :   -0.226029
  21 H :    0.043346
  22 C :   -0.033288
  23 H :    0.025098
  24 H :    0.023037
  25 C :   -0.033148
  26 H :    0.023874
  27 H :    0.024147
  28 C :   -0.061015
  29 H :    0.028019
  30 H :    0.019375
  31 H :    0.020615
  32 H :    0.018409
  33 H :    0.028222

  Mayer bond orders larger than 0.100000
B(  0-S ,  1-C ) :   1.1105 B(  0-S ,  4-C ) :   1.1408 B(  1-C ,  2-C ) :   1.6378
B(  1-C , 32-H ) :   0.9743 B(  2-C ,  3-C ) :   1.2101 B(  2-C ,  6-C ) :   1.0316
B(  3-C ,  4-C ) :   1.5881 B(  3-C ,  5-H ) :   1.0138 B(  4-C , 20-C ) :   1.0285
B(  6-C ,  7-H ) :   0.9339 B(  6-C ,  8-H ) :   0.9359 B(  6-C ,  9-C ) :   1.0618
B(  9-C , 10-H ) :   0.9567 B(  9-C , 11-H ) :   0.9559 B(  9-C , 12-C ) :   1.0753
B( 12-C , 13-H ) :   0.9704 B( 12-C , 14-H ) :   0.9671 B( 12-C , 15-H ) :   0.9731
B( 16-S , 17-C ) :   1.1781 B( 16-S , 20-C ) :   1.1607 B( 17-C , 18-C ) :   1.5585
B( 17-C , 20-C ) :   0.1101 B( 17-C , 33-H ) :   0.9679 B( 18-C , 19-C ) :   1.2915
B( 18-C , 21-H ) :   0.9753 B( 19-C , 20-C ) :   1.5488 B( 19-C , 22-C ) :   1.0672
B( 22-C , 23-H ) :   0.9271 B( 22-C , 24-H ) :   0.9226 B( 22-C , 25-C ) :   1.0664
B( 25-C , 26-H ) :   0.9547 B( 25-C , 27-H ) :   0.9538 B( 25-C , 28-C ) :   1.0866
B( 28-C , 29-H ) :   0.9730 B( 28-C , 30-H ) :   0.9728 B( 28-C , 31-H ) :   0.9731

Dispersion correction           -0.015251711
FINAL SINGLE POINT ENERGY     -1339.860003636352

DIPOLE MOMENT
-------------
                                X             Y             Z
Electronic contribution:     -4.64487     -22.06704     -15.97980
Nuclear contribution   :      4.98244      22.48354      16.30943
                        -----------------------------------------
Total Dipole Moment    :      0.33757       0.41650       0.32962
                        -----------------------------------------
Magnitude (a.u.)       :      0.62934
Magnitude (Debye)      :      1.59966

Rotational constants in cm-1:     0.021300     0.009099     0.007332
Rotational constants in MHz :   638.543644   272.786306   219.798234

                             ****ORCA TERMINATED NORMALLY****
TOTAL RUN TIME: 0 days 0 hours 0 minutes 31 seconds 902 msec
