                         Program Version 4.2.1 -  RELEASE  -
|  1> ! wB97X-D3 SP def2-SVP
|  2> %pal
|  3> nprocs 16
|  4> end
|  5>
|  6> * xyz 0 1
|  7> S 	 -43.7473 	 36.421 	 82.99
|  8> C 	 -43.6096 	 37.7612 	 81.8214
|  9> C 	 -43.495 	 37.289 	 80.5107
| 10> C 	 -43.525 	 35.8632 	 80.4469
| 11> C 	 -43.5612 	 35.2578 	 81.6716
| 12> H 	 -43.364 	 35.2614 	 79.504
| 13> C 	 -43.1181 	 38.2021 	 79.373
| 14> H 	 -42.7791 	 39.197 	 79.8012
| 15> H 	 -43.7806 	 38.3338 	 78.5036
| 16> C 	 -41.8546 	 37.6573 	 78.6349
| 17> H 	 -40.9558 	 37.5155 	 79.3261
| 18> H 	 -42.1019 	 36.5962 	 78.3525
| 19> C 	 -41.6217 	 38.5419 	 77.3946
| 20> H 	 -41.4351 	 39.5777 	 77.5962
| 21> H 	 -40.7192 	 38.3669 	 76.8515
| 22> H 	 -42.478 	 38.4845 	 76.7057
| 23> S 	 -45.3037 	 33.0495 	 81.8332
| 24> C 	 -44.6078 	 31.5131 	 82.2819
| 25> C 	 -43.2528 	 31.5587 	 82.4
| 26> C 	 -42.7478 	 32.8636 	 82.2183
| 27> C 	 -43.7093 	 33.8239 	 81.9955
| 28> H 	 -42.7733 	 30.6012 	 82.5025
| 29> C 	 -41.2212 	 33.1061 	 82.2902
| 30> H 	 -40.7348 	 32.3053 	 82.8497
| 31> H 	 -41.1074 	 34.0049 	 82.8698
| 32> C 	 -40.4814 	 33.1977 	 80.9237
| 33> H 	 -40.8984 	 34.0279 	 80.3305
| 34> H 	 -40.6883 	 32.1912 	 80.3983
| 35> C 	 -38.9224 	 33.3421 	 81.173
| 36> H 	 -38.4109 	 33.8514 	 80.346
| 37> H 	 -38.3858 	 32.4172 	 81.3048
| 38> H 	 -38.6249 	 33.7932 	 82.072
| 39> H 	 -43.5592 	 38.7949 	 82.0535
| 40> H 	 -45.1703 	 30.5902 	 82.2463
| 41> *
| 42>
| 43>                          ****END OF INPUT****

CARTESIAN COORDINATES (ANGSTROEM)
---------------------------------
  S    -43.747300   36.421000   82.990000
  C    -43.609600   37.761200   81.821400
  C    -43.495000   37.289000   80.510700
  C    -43.525000   35.863200   80.446900
  C    -43.561200   35.257800   81.671600
  H    -43.364000   35.261400   79.504000
  C    -43.118100   38.202100   79.373000
  H    -42.779100   39.197000   79.801200
  H    -43.780600   38.333800   78.503600
  C    -41.854600   37.657300   78.634900
  H    -40.955800   37.515500   79.326100
  H    -42.101900   36.596200   78.352500
  C    -41.621700   38.541900   77.394600
  H    -41.435100   39.577700   77.596200
  H    -40.719200   38.366900   76.851500
  H    -42.478000   38.484500   76.705700
  S    -45.303700   33.049500   81.833200
  C    -44.607800   31.513100   82.281900
  C    -43.252800   31.558700   82.400000
  C    -42.747800   32.863600   82.218300
  C    -43.709300   33.823900   81.995500
  H    -42.773300   30.601200   82.502500
  C    -41.221200   33.106100   82.290200
  H    -40.734800   32.305300   82.849700
  H    -41.107400   34.004900   82.869800
  C    -40.481400   33.197700   80.923700
  H    -40.898400   34.027900   80.330500
  H    -40.688300   32.191200   80.398300
  C    -38.922400   33.342100   81.173000
  H    -38.410900   33.851400   80.346000
  H    -38.385800   32.417200   81.304800
  H    -38.624900   33.793200   82.072000
  H    -43.559200   38.794900   82.053500
  H    -45.170300   30.590200   82.246300

 Total Charge           Charge          ....    0
 Multiplicity           Mult            ....    1
 Number of Electrons    NEL             ....  134
 Basis Dimension        Dim             ....  322

ORBITAL ENERGIES
----------------

  NO   OCC          E(Eh)            E(eV)
   0   2.0000     -88.967122     -2420.9185
   1   2.0000     -88.963708     -2420.8256
   2   2.0000     -10.331519      -281.1349
   3   2.0000     -10.325478      -280.9705
   4   2.0000     -10.316493      -280.7261
   5   2.0000     -10.313901      -280.6555
   6   2.0000     -10.304166      -280.3906
   7   2.0000     -10.302717      -280.3512
   8   2.0000     -10.301170      -280.3091
   9   2.0000     -10.299930      -280.2754
  10   2.0000     -10.298793      -280.2444
  11   2.0000     -10.298301      -280.2310
  12   2.0000     -10.289389      -279.9885
  13   2.0000     -10.288051      -279.9521
  14   2.0000     -10.278690      -279.6974
  15   2.0000     -10.274797      -279.5914
  16   2.0000      -8.080971      -219.8944
  17   2.0000      -8.078232      -219.8199
  18   2.0000      -6.039526      -164.3439
  19   2.0000      -6.036684      -164.2665
  20   2.0000      -6.035604      -164.2371
  21   2.0000      -6.032865      -164.1626
  22   2.0000      -6.031729      -164.1317
  23   2.0000      -6.028973      -164.0567
  24   2.0000      -1.003540       -27.3077
  25   2.0000      -0.982837       -26.7444
  26   2.0000      -0.911469       -24.8023
  27   2.0000      -0.898038       -24.4369
  28   2.0000      -0.867146       -23.5962
  29   2.0000      -0.845570       -23.0091
  30   2.0000      -0.844059       -22.9680
  31   2.0000      -0.816642       -22.2220
  32   2.0000      -0.781755       -21.2726
  33   2.0000      -0.770447       -20.9649
  34   2.0000      -0.710804       -19.3420
  35   2.0000      -0.697764       -18.9871
  36   2.0000      -0.687508       -18.7080
  37   2.0000      -0.659943       -17.9580
  38   2.0000      -0.641808       -17.4645
  39   2.0000      -0.619452       -16.8561
  40   2.0000      -0.592762       -16.1299
  41   2.0000      -0.579285       -15.7632
  42   2.0000      -0.562795       -15.3144
  43   2.0000      -0.555204       -15.1079
  44   2.0000      -0.521067       -14.1790
  45   2.0000      -0.513327       -13.9683
  46   2.0000      -0.508954       -13.8493
  47   2.0000      -0.506442       -13.7810
  48   2.0000      -0.503685       -13.7060
  49   2.0000      -0.499341       -13.5878
  50   2.0000      -0.489879       -13.3303
  51   2.0000      -0.477355       -12.9895
  52   2.0000      -0.469270       -12.7695
  53   2.0000      -0.465164       -12.6578
  54   2.0000      -0.458494       -12.4763
  55   2.0000      -0.455048       -12.3825
  56   2.0000      -0.446229       -12.1425
  57   2.0000      -0.436553       -11.8792
  58   2.0000      -0.431981       -11.7548
  59   2.0000      -0.426063       -11.5938
  60   2.0000      -0.420583       -11.4446
  61   2.0000      -0.414108       -11.2684
  62   2.0000      -0.411414       -11.1951
  63   2.0000      -0.338736        -9.2175
  64   2.0000      -0.329757        -8.9731
  65   2.0000      -0.319523        -8.6947
  66   2.0000      -0.313965        -8.5434
  67   0.0000       0.043662         1.1881
  68   0.0000       0.050996         1.3877
  69   0.0000       0.113105         3.0777
  70   0.0000       0.115162         3.1337
  71   0.0000       0.128975         3.5096

MULLIKEN ATOMIC CHARGES
-----------------------
   0 S :    0.109983
   1 C :   -0.104424
   2 C :   -0.057560
   3 C :    0.032424
   4 C :   -0.189724
   5 H :    0.045478
   6 C :    0.040501
   7 H :    0.035076
   8 H :    0.038170
   9 C :   -0.144553
  10 H :    0.048251
  11 H :    0.032418
  12 C :   -0.023229
  13 H :    0.019666
  14 H :    0.022766
  15 H :    0.035939
  16 S :    0.109515
  17 C :   -0.095025
  18 C :   -0.031515
  19 C :   -0.013517
  20 C :   -0.171150
  21 H :    0.017164
  22 C :    0.072358
  23 H :    0.017787
  24 H :    0.026731
  25 C :   -0.089709
  26 H :    0.041339
  27 H :    0.043346
  28 C :   -0.029951
  29 H :    0.036817
  30 H :    0.020039
  31 H :    0.014116
  32 H :    0.035518
  33 H :    0.054957
Sum of atomic charges:   -0.0000000

LOEWDIN ATOMIC CHARGES
----------------------
   0 S :    0.390107
   1 C :   -0.177833
   2 C :   -0.065720
   3 C :   -0.064807
   4 C :   -0.188727
   5 H :    0.044078
   6 C :   -0.035078
   7 H :    0.036406
   8 H :    0.032632
   9 C :   -0.046544
  10 H :    0.030144
  11 H :    0.021521
  12 C :   -0.071155
  13 H :    0.024034
  14 H :    0.024523
  15 H :    0.029109
  16 S :    0.395699
  17 C :   -0.176160
  18 C :   -0.078136
  19 C :   -0.049642
  20 C :   -0.204945
  21 H :    0.034381
  22 C :   -0.029488
  23 H :    0.027532
  24 H :    0.026908
  25 C :   -0.036807
  26 H :    0.024167
  27 H :    0.033482
  28 C :   -0.072189
  29 H :    0.029831
  30 H :    0.025606
  31 H :    0.018067
  32 H :    0.021019
  33 H :    0.027988

  Mayer bond orders larger than 0.100000
B(  0-S ,  1-C ) :   1.1326 B(  0-S ,  4-C ) :   1.1496 B(  1-C ,  2-C ) :   1.6233
B(  1-C , 32-H ) :   0.9714 B(  2-C ,  3-C ) :   1.2186 B(  2-C ,  6-C ) :   1.0236
B(  3-C ,  4-C ) :   1.6207 B(  3-C ,  5-H ) :   0.9765 B(  4-C , 20-C ) :   0.9991
B(  6-C ,  7-H ) :   0.9507 B(  6-C ,  8-H ) :   0.9411 B(  6-C ,  9-C ) :   1.0384
B(  9-C , 10-H ) :   0.9585 B(  9-C , 11-H ) :   0.9544 B(  9-C , 12-C ) :   1.0739
B( 12-C , 13-H ) :   0.9720 B( 12-C , 14-H ) :   0.9707 B( 12-C , 15-H ) :   0.9720
B( 16-S , 17-C ) :   1.1640 B( 16-S , 20-C ) :   1.1314 B( 17-C , 18-C ) :   1.6258
B( 17-C , 33-H ) :   0.9620 B( 18-C , 19-C ) :   1.2340 B( 18-C , 21-H ) :   0.9962
B( 19-C , 20-C ) :   1.6218 B( 19-C , 22-C ) :   1.0315 B( 22-C , 23-H ) :   0.9448
B( 22-C , 24-H ) :   0.9279 B( 22-C , 25-C ) :   1.0626 B( 25-C , 26-H ) :   0.9607
B( 25-C , 27-H ) :   0.9588 B( 25-C , 28-C ) :   1.0581 B( 28-C , 29-H ) :   0.9780
B( 28-C , 30-H ) :   0.9735 B( 28-C , 31-H ) :   0.9758

Dispersion correction           -0.014363695
FINAL SINGLE POINT ENERGY     -1339.874668444123

DIPOLE MOMENT
-------------
                                X             Y             Z
Electronic contribution:    -23.69544      -6.36133      17.52333
Nuclear contribution   :     24.25915       6.31879     -17.98878
                        -----------------------------------------
Total Dipole Moment    :      0.56371      -0.04254      -0.46545
                        -----------------------------------------
Magnitude (a.u.)       :      0.73227
Magnitude (Debye)      :      1.86129

Rotational constants in cm-1:     0.016894     0.008956     0.007126
Rotational constants in MHz :   506.464666   268.504348   213.625914

                             ****ORCA TERMINATED NORMALLY****
TOTAL RUN TIME: 0 days 0 hours 0 minutes 29 seconds 776 msec
