                         Program Version 4.2.1 -  RELEASE  -
|  1> ! wB97X-D3 SP def2-SVP
|  2> %pal
|  3> nprocs 16
|  4> end
|  5>
|  6> * xyz 0 1
|  7> S 	 38.0824 	 25.1292 	 93.3637
|  8> C 	 38.8986 	 26.3721 	 92.5022
|  9> C 	 40.279 	 26.3155 	 92.585
| 10> C 	 40.6074 	 25.0595 	 93.1527
| 11> C 	 39.5495 	 24.2028 	 93.4779
| 12> H 	 41.5754 	 24.6371 	 93.0643
| 13> C 	 41.3578 	 27.2381 	 92.1351
| 14> H 	 42.2565 	 26.9367 	 92.7062
| 15> H 	 41.1565 	 28.3026 	 92.3979
| 16> C 	 41.5497 	 27.265 	 90.6366
| 17> H 	 40.6078 	 27.5574 	 90.1759
| 18> H 	 42.3106 	 27.9983 	 90.4105
| 19> C 	 41.9327 	 25.9586 	 90.0096
| 20> H 	 42.2175 	 26.024 	 88.9059
| 21> H 	 42.8338 	 25.6154 	 90.4696
| 22> H 	 41.1914 	 25.1816 	 90.2131
| 23> S 	 39.4731 	 22.2871 	 95.5176
| 24> C 	 40.0767 	 20.7017 	 95.1123
| 25> C 	 40.3154 	 20.4867 	 93.7892
| 26> C 	 39.9485 	 21.6797 	 93.0656
| 27> C 	 39.6382 	 22.797 	 93.8584
| 28> H 	 40.6098 	 19.5693 	 93.4515
| 29> C 	 40.1933 	 21.8526 	 91.5854
| 30> H 	 41.1472 	 21.4334 	 91.3957
| 31> H 	 40.2072 	 22.8676 	 91.2014
| 32> C 	 39.1049 	 21.0166 	 90.7869
| 33> H 	 38.1874 	 21.4691 	 91.0938
| 34> H 	 39.0955 	 19.9994 	 91.1068
| 35> C 	 39.1922 	 21.2791 	 89.264
| 36> H 	 38.3168 	 20.876 	 88.7893
| 37> H 	 40.0301 	 20.8141 	 88.7775
| 38> H 	 39.2128 	 22.3635 	 89.0965
| 39> H 	 38.3032 	 27.2422 	 92.14
| 40> H 	 40.3977 	 19.93 	 95.8508
| 41> *
| 42>
| 43>                          ****END OF INPUT****

CARTESIAN COORDINATES (ANGSTROEM)
---------------------------------
  S     38.082400   25.129200   93.363700
  C     38.898600   26.372100   92.502200
  C     40.279000   26.315500   92.585000
  C     40.607400   25.059500   93.152700
  C     39.549500   24.202800   93.477900
  H     41.575400   24.637100   93.064300
  C     41.357800   27.238100   92.135100
  H     42.256500   26.936700   92.706200
  H     41.156500   28.302600   92.397900
  C     41.549700   27.265000   90.636600
  H     40.607800   27.557400   90.175900
  H     42.310600   27.998300   90.410500
  C     41.932700   25.958600   90.009600
  H     42.217500   26.024000   88.905900
  H     42.833800   25.615400   90.469600
  H     41.191400   25.181600   90.213100
  S     39.473100   22.287100   95.517600
  C     40.076700   20.701700   95.112300
  C     40.315400   20.486700   93.789200
  C     39.948500   21.679700   93.065600
  C     39.638200   22.797000   93.858400
  H     40.609800   19.569300   93.451500
  C     40.193300   21.852600   91.585400
  H     41.147200   21.433400   91.395700
  H     40.207200   22.867600   91.201400
  C     39.104900   21.016600   90.786900
  H     38.187400   21.469100   91.093800
  H     39.095500   19.999400   91.106800
  C     39.192200   21.279100   89.264000
  H     38.316800   20.876000   88.789300
  H     40.030100   20.814100   88.777500
  H     39.212800   22.363500   89.096500
  H     38.303200   27.242200   92.140000
  H     40.397700   19.930000   95.850800

 Total Charge           Charge          ....    0
 Multiplicity           Mult            ....    1
 Number of Electrons    NEL             ....  134
 Basis Dimension        Dim             ....  322

ORBITAL ENERGIES
----------------

  NO   OCC          E(Eh)            E(eV)
   0   2.0000     -88.966083     -2420.8902
   1   2.0000     -88.963777     -2420.8275
   2   2.0000     -10.327047      -281.0132
   3   2.0000     -10.323353      -280.9127
   4   2.0000     -10.318398      -280.7779
   5   2.0000     -10.316395      -280.7234
   6   2.0000     -10.304535      -280.4007
   7   2.0000     -10.299856      -280.2733
   8   2.0000     -10.296350      -280.1779
   9   2.0000     -10.289808      -279.9999
  10   2.0000     -10.289670      -279.9961
  11   2.0000     -10.283551      -279.8296
  12   2.0000     -10.282200      -279.7929
  13   2.0000     -10.279705      -279.7250
  14   2.0000     -10.276224      -279.6303
  15   2.0000     -10.273019      -279.5430
  16   2.0000      -8.081687      -219.9139
  17   2.0000      -8.078890      -219.8378
  18   2.0000      -6.039998      -164.3567
  19   2.0000      -6.037404      -164.2861
  20   2.0000      -6.036064      -164.2496
  21   2.0000      -6.033349      -164.1758
  22   2.0000      -6.032613      -164.1558
  23   2.0000      -6.029629      -164.0745
  24   2.0000      -1.008622       -27.4460
  25   2.0000      -0.988749       -26.9052
  26   2.0000      -0.922212       -25.0947
  27   2.0000      -0.902206       -24.5503
  28   2.0000      -0.871025       -23.7018
  29   2.0000      -0.852199       -23.1895
  30   2.0000      -0.846735       -23.0408
  31   2.0000      -0.814559       -22.1653
  32   2.0000      -0.786863       -21.4116
  33   2.0000      -0.765934       -20.8421
  34   2.0000      -0.703922       -19.1547
  35   2.0000      -0.701413       -19.0864
  36   2.0000      -0.692850       -18.8534
  37   2.0000      -0.661091       -17.9892
  38   2.0000      -0.644120       -17.5274
  39   2.0000      -0.616830       -16.7848
  40   2.0000      -0.594684       -16.1822
  41   2.0000      -0.584005       -15.8916
  42   2.0000      -0.566204       -15.4072
  43   2.0000      -0.549033       -14.9400
  44   2.0000      -0.546616       -14.8742
  45   2.0000      -0.518459       -14.1080
  46   2.0000      -0.515022       -14.0145
  47   2.0000      -0.512177       -13.9370
  48   2.0000      -0.504834       -13.7372
  49   2.0000      -0.499413       -13.5897
  50   2.0000      -0.489574       -13.3220
  51   2.0000      -0.476062       -12.9543
  52   2.0000      -0.469546       -12.7770
  53   2.0000      -0.467297       -12.7158
  54   2.0000      -0.461664       -12.5625
  55   2.0000      -0.450927       -12.2704
  56   2.0000      -0.441892       -12.0245
  57   2.0000      -0.438713       -11.9380
  58   2.0000      -0.435047       -11.8382
  59   2.0000      -0.426906       -11.6167
  60   2.0000      -0.420788       -11.4502
  61   2.0000      -0.420044       -11.4300
  62   2.0000      -0.409143       -11.1333
  63   2.0000      -0.338371        -9.2075
  64   2.0000      -0.331916        -9.0319
  65   2.0000      -0.320778        -8.7288
  66   2.0000      -0.300595        -8.1796
  67   0.0000       0.041237         1.1221
  68   0.0000       0.052558         1.4302
  69   0.0000       0.110048         2.9946
  70   0.0000       0.121703         3.3117
  71   0.0000       0.128440         3.4950

MULLIKEN ATOMIC CHARGES
-----------------------
   0 S :    0.129740
   1 C :   -0.155461
   2 C :   -0.078678
   3 C :    0.052993
   4 C :   -0.197664
   5 H :    0.001821
   6 C :    0.059382
   7 H :    0.032499
   8 H :    0.036406
   9 C :   -0.044202
  10 H :    0.025271
  11 H :    0.028368
  12 C :   -0.070382
  13 H :    0.045756
  14 H :    0.008420
  15 H :    0.047681
  16 S :    0.114793
  17 C :   -0.099010
  18 C :    0.008997
  19 C :   -0.030783
  20 C :   -0.165780
  21 H :   -0.013258
  22 C :    0.069276
  23 H :    0.012977
  24 H :    0.030902
  25 C :   -0.089112
  26 H :    0.021554
  27 H :    0.024512
  28 C :   -0.018094
  29 H :    0.027887
  30 H :    0.026146
  31 H :    0.029501
  32 H :    0.059965
  33 H :    0.067579
Sum of atomic charges:    0.0000000

LOEWDIN ATOMIC CHARGES
----------------------
   0 S :    0.426483
   1 C :   -0.205496
   2 C :   -0.070758
   3 C :   -0.052557
   4 C :   -0.207991
   5 H :    0.022794
   6 C :   -0.032378
   7 H :    0.034950
   8 H :    0.038817
   9 C :   -0.039410
  10 H :    0.024357
  11 H :    0.024080
  12 C :   -0.071994
  13 H :    0.036464
  14 H :    0.016347
  15 H :    0.024911
  16 S :    0.405593
  17 C :   -0.180847
  18 C :   -0.062799
  19 C :   -0.040854
  20 C :   -0.216266
  21 H :    0.019132
  22 C :   -0.026454
  23 H :    0.020771
  24 H :    0.026831
  25 C :   -0.030066
  26 H :    0.022130
  27 H :    0.016276
  28 C :   -0.061973
  29 H :    0.023856
  30 H :    0.019718
  31 H :    0.028046
  32 H :    0.030287
  33 H :    0.038000

  Mayer bond orders larger than 0.100000
B(  0-S ,  1-C ) :   1.1772 B(  0-S ,  4-C ) :   1.1554 B(  1-C ,  2-C ) :   1.5739
B(  1-C ,  4-C ) :   0.1039 B(  1-C , 32-H ) :   0.9614 B(  2-C ,  3-C ) :   1.2653
B(  2-C ,  6-C ) :   1.0204 B(  3-C ,  4-C ) :   1.5716 B(  3-C ,  5-H ) :   0.9919
B(  4-C , 20-C ) :   1.0342 B(  6-C ,  7-H ) :   0.9416 B(  6-C ,  8-H ) :   0.9330
B(  6-C ,  9-C ) :   1.0815 B(  9-C , 10-H ) :   0.9525 B(  9-C , 11-H ) :   0.9535
B(  9-C , 12-C ) :   1.0844 B( 12-C , 13-H ) :   0.9696 B( 12-C , 14-H ) :   0.9698
B( 12-C , 15-H ) :   0.9708 B( 16-S , 17-C ) :   1.1640 B( 16-S , 20-C ) :   1.1261
B( 17-C , 18-C ) :   1.6317 B( 17-C , 33-H ) :   0.9555 B( 18-C , 19-C ) :   1.2123
B( 18-C , 21-H ) :   1.0063 B( 19-C , 20-C ) :   1.6060 B( 19-C , 22-C ) :   1.0521
B( 22-C , 23-H ) :   0.9368 B( 22-C , 24-H ) :   0.9408 B( 22-C , 25-C ) :   1.0455
B( 25-C , 26-H ) :   0.9559 B( 25-C , 27-H ) :   0.9647 B( 25-C , 28-C ) :   1.0819
B( 28-C , 29-H ) :   0.9748 B( 28-C , 30-H ) :   0.9764 B( 28-C , 31-H ) :   0.9729

Dispersion correction           -0.015249152
FINAL SINGLE POINT ENERGY     -1339.874057256279

DIPOLE MOMENT
-------------
                                X             Y             Z
Electronic contribution:    -11.12691      -1.54634      26.21171
Nuclear contribution   :     11.60946       1.55171     -26.69748
                        -----------------------------------------
Total Dipole Moment    :      0.48255       0.00537      -0.48577
                        -----------------------------------------
Magnitude (a.u.)       :      0.68473
Magnitude (Debye)      :      1.74045

Rotational constants in cm-1:     0.017217     0.009699     0.007607
Rotational constants in MHz :   516.151717   290.770271   228.043394

                             ****ORCA TERMINATED NORMALLY****
TOTAL RUN TIME: 0 days 0 hours 0 minutes 31 seconds 441 msec
