                         Program Version 4.2.1 -  RELEASE  -
|  1> ! wB97X-D3 SP def2-SVP
|  2> %pal
|  3> nprocs 16
|  4> end
|  5>
|  6> * xyz 0 1
|  7> S 	 -92.9907 	 54.5366 	 126.339
|  8> C 	 -91.6554 	 53.8778 	 125.435
|  9> C 	 -92.1012 	 53.2697 	 124.267
| 10> C 	 -93.5884 	 53.1975 	 124.281
| 11> C 	 -94.139 	 53.9744 	 125.213
| 12> H 	 -94.2332 	 52.72 	 123.557
| 13> C 	 -91.1947 	 52.4394 	 123.345
| 14> H 	 -91.3485 	 52.636 	 122.266
| 15> H 	 -91.5653 	 51.4167 	 123.564
| 16> C 	 -89.6771 	 52.3234 	 123.586
| 17> H 	 -89.4247 	 52.1702 	 124.607
| 18> H 	 -89.2511 	 51.5093 	 123.04
| 19> C 	 -88.9563 	 53.5858 	 123.149
| 20> H 	 -89.0617 	 53.7764 	 122.102
| 21> H 	 -89.4218 	 54.3966 	 123.804
| 22> H 	 -87.8337 	 53.6114 	 123.279
| 23> S 	 -96.4592 	 52.9636 	 126.487
| 24> C 	 -97.9879 	 53.7875 	 126.319
| 25> C 	 -97.7632 	 55.0158 	 125.728
| 26> C 	 -96.4205 	 55.2893 	 125.234
| 27> C 	 -95.5672 	 54.1649 	 125.507
| 28> H 	 -98.6387 	 55.5661 	 125.578
| 29> C 	 -96.0613 	 56.5395 	 124.451
| 30> H 	 -96.9738 	 57.1062 	 124.108
| 31> H 	 -95.4432 	 56.1637 	 123.603
| 32> C 	 -95.1677 	 57.4446 	 125.279
| 33> H 	 -94.259 	 56.9303 	 125.785
| 34> H 	 -95.767 	 57.914 	 126.072
| 35> C 	 -94.7703 	 58.5981 	 124.35
| 36> H 	 -94.0559 	 59.285 	 124.868
| 37> H 	 -95.6077 	 59.226 	 124.072
| 38> H 	 -94.2719 	 58.1932 	 123.432
| 39> H 	 -90.5818 	 53.751 	 125.708
| 40> H 	 -98.9618 	 53.4265 	 126.697
| 41> *
| 42>
| 43>                          ****END OF INPUT****

CARTESIAN COORDINATES (ANGSTROEM)
---------------------------------
  S    -92.990700   54.536600  126.339000
  C    -91.655400   53.877800  125.435000
  C    -92.101200   53.269700  124.267000
  C    -93.588400   53.197500  124.281000
  C    -94.139000   53.974400  125.213000
  H    -94.233200   52.720000  123.557000
  C    -91.194700   52.439400  123.345000
  H    -91.348500   52.636000  122.266000
  H    -91.565300   51.416700  123.564000
  C    -89.677100   52.323400  123.586000
  H    -89.424700   52.170200  124.607000
  H    -89.251100   51.509300  123.040000
  C    -88.956300   53.585800  123.149000
  H    -89.061700   53.776400  122.102000
  H    -89.421800   54.396600  123.804000
  H    -87.833700   53.611400  123.279000
  S    -96.459200   52.963600  126.487000
  C    -97.987900   53.787500  126.319000
  C    -97.763200   55.015800  125.728000
  C    -96.420500   55.289300  125.234000
  C    -95.567200   54.164900  125.507000
  H    -98.638700   55.566100  125.578000
  C    -96.061300   56.539500  124.451000
  H    -96.973800   57.106200  124.108000
  H    -95.443200   56.163700  123.603000
  C    -95.167700   57.444600  125.279000
  H    -94.259000   56.930300  125.785000
  H    -95.767000   57.914000  126.072000
  C    -94.770300   58.598100  124.350000
  H    -94.055900   59.285000  124.868000
  H    -95.607700   59.226000  124.072000
  H    -94.271900   58.193200  123.432000
  H    -90.581800   53.751000  125.708000
  H    -98.961800   53.426500  126.697000

 Total Charge           Charge          ....    0
 Multiplicity           Mult            ....    1
 Number of Electrons    NEL             ....  134
 Basis Dimension        Dim             ....  322

ORBITAL ENERGIES
----------------

  NO   OCC          E(Eh)            E(eV)
   0   2.0000     -88.965657     -2420.8786
   1   2.0000     -88.963918     -2420.8313
   2   2.0000     -10.332196      -281.1534
   3   2.0000     -10.323657      -280.9210
   4   2.0000     -10.319542      -280.8090
   5   2.0000     -10.317462      -280.7524
   6   2.0000     -10.312646      -280.6214
   7   2.0000     -10.312428      -280.6154
   8   2.0000     -10.301704      -280.3236
   9   2.0000     -10.297326      -280.2045
  10   2.0000     -10.297259      -280.2027
  11   2.0000     -10.290305      -280.0134
  12   2.0000     -10.286380      -279.9066
  13   2.0000     -10.285787      -279.8905
  14   2.0000     -10.281426      -279.7718
  15   2.0000     -10.276816      -279.6464
  16   2.0000      -8.080972      -219.8944
  17   2.0000      -8.077946      -219.8121
  18   2.0000      -6.039628      -164.3466
  19   2.0000      -6.036501      -164.2615
  20   2.0000      -6.035330      -164.2297
  21   2.0000      -6.032433      -164.1509
  22   2.0000      -6.031561      -164.1271
  23   2.0000      -6.028814      -164.0524
  24   2.0000      -1.009019       -27.4568
  25   2.0000      -0.978886       -26.6368
  26   2.0000      -0.915912       -24.9232
  27   2.0000      -0.909691       -24.7540
  28   2.0000      -0.868236       -23.6259
  29   2.0000      -0.848450       -23.0875
  30   2.0000      -0.842083       -22.9142
  31   2.0000      -0.814963       -22.1763
  32   2.0000      -0.781174       -21.2568
  33   2.0000      -0.765022       -20.8173
  34   2.0000      -0.705045       -19.1853
  35   2.0000      -0.699844       -19.0437
  36   2.0000      -0.683137       -18.5891
  37   2.0000      -0.653776       -17.7901
  38   2.0000      -0.641625       -17.4595
  39   2.0000      -0.610582       -16.6148
  40   2.0000      -0.594136       -16.1673
  41   2.0000      -0.581832       -15.8325
  42   2.0000      -0.568347       -15.4655
  43   2.0000      -0.551971       -15.0199
  44   2.0000      -0.543135       -14.7795
  45   2.0000      -0.517303       -14.0765
  46   2.0000      -0.514028       -13.9874
  47   2.0000      -0.510187       -13.8829
  48   2.0000      -0.506484       -13.7821
  49   2.0000      -0.497020       -13.5246
  50   2.0000      -0.488914       -13.3040
  51   2.0000      -0.479039       -13.0353
  52   2.0000      -0.473856       -12.8943
  53   2.0000      -0.461605       -12.5609
  54   2.0000      -0.455817       -12.4034
  55   2.0000      -0.445157       -12.1133
  56   2.0000      -0.438342       -11.9279
  57   2.0000      -0.437106       -11.8943
  58   2.0000      -0.432202       -11.7608
  59   2.0000      -0.426167       -11.5966
  60   2.0000      -0.419223       -11.4076
  61   2.0000      -0.411268       -11.1912
  62   2.0000      -0.411170       -11.1885
  63   2.0000      -0.334190        -9.0938
  64   2.0000      -0.328511        -8.9392
  65   2.0000      -0.319389        -8.6910
  66   2.0000      -0.310733        -8.4555
  67   0.0000       0.044076         1.1994
  68   0.0000       0.053820         1.4645
  69   0.0000       0.110724         3.0130
  70   0.0000       0.124103         3.3770
  71   0.0000       0.127219         3.4618

MULLIKEN ATOMIC CHARGES
-----------------------
   0 S :    0.125814
   1 C :   -0.135311
   2 C :   -0.099090
   3 C :    0.033847
   4 C :   -0.155790
   5 H :    0.016616
   6 C :    0.022472
   7 H :    0.043612
   8 H :    0.048264
   9 C :   -0.040086
  10 H :    0.017167
  11 H :    0.024478
  12 C :   -0.090055
  13 H :    0.026271
  14 H :    0.038328
  15 H :    0.040912
  16 S :    0.109657
  17 C :   -0.112723
  18 C :   -0.024456
  19 C :    0.002795
  20 C :   -0.181392
  21 H :   -0.003475
  22 C :    0.055069
  23 H :    0.038466
  24 H :    0.042089
  25 C :   -0.117451
  26 H :    0.057826
  27 H :    0.028865
  28 C :   -0.050333
  29 H :    0.035624
  30 H :    0.027317
  31 H :    0.034805
  32 H :    0.067668
  33 H :    0.072198
Sum of atomic charges:   -0.0000000

LOEWDIN ATOMIC CHARGES
----------------------
   0 S :    0.435324
   1 C :   -0.215894
   2 C :   -0.057937
   3 C :   -0.053742
   4 C :   -0.214723
   5 H :    0.034152
   6 C :   -0.036637
   7 H :    0.035331
   8 H :    0.043722
   9 C :   -0.041736
  10 H :    0.017706
  11 H :    0.025067
  12 C :   -0.074547
  13 H :    0.017945
  14 H :    0.031200
  15 H :    0.029190
  16 S :    0.395032
  17 C :   -0.191546
  18 C :   -0.075961
  19 C :   -0.041463
  20 C :   -0.203693
  21 H :    0.019840
  22 C :   -0.036682
  23 H :    0.039304
  24 H :    0.039160
  25 C :   -0.051671
  26 H :    0.025894
  27 H :    0.024096
  28 C :   -0.071424
  29 H :    0.027472
  30 H :    0.021327
  31 H :    0.026604
  32 H :    0.039398
  33 H :    0.039891

  Mayer bond orders larger than 0.100000
B(  0-S ,  1-C ) :   1.1292 B(  0-S ,  4-C ) :   1.1449 B(  1-C ,  2-C ) :   1.6524
B(  1-C , 32-H ) :   0.9501 B(  2-C ,  3-C ) :   1.1943 B(  2-C ,  6-C ) :   1.0040
B(  3-C ,  4-C ) :   1.6565 B(  3-C ,  5-H ) :   0.9911 B(  4-C , 20-C ) :   0.9992
B(  6-C ,  7-H ) :   0.9426 B(  6-C ,  8-H ) :   0.9391 B(  6-C ,  9-C ) :   1.0885
B(  9-C , 10-H ) :   0.9489 B(  9-C , 11-H ) :   0.9501 B(  9-C , 12-C ) :   1.0752
B( 12-C , 13-H ) :   0.9755 B( 12-C , 14-H ) :   0.9751 B( 12-C , 15-H ) :   0.9746
B( 16-S , 17-C ) :   1.1558 B( 16-S , 20-C ) :   1.1496 B( 17-C , 18-C ) :   1.6104
B( 17-C , 20-C ) :   0.1042 B( 17-C , 33-H ) :   0.9634 B( 18-C , 19-C ) :   1.2401
B( 18-C , 21-H ) :   0.9965 B( 19-C , 20-C ) :   1.5616 B( 19-C , 22-C ) :   1.0380
B( 22-C , 23-H ) :   0.9391 B( 22-C , 24-H ) :   0.9310 B( 22-C , 25-C ) :   1.0625
B( 25-C , 26-H ) :   0.9493 B( 25-C , 27-H ) :   0.9496 B( 25-C , 28-C ) :   1.0818
B( 28-C , 29-H ) :   0.9732 B( 28-C , 30-H ) :   0.9709 B( 28-C , 31-H ) :   0.9749

Dispersion correction           -0.014222154
FINAL SINGLE POINT ENERGY     -1339.867801401329

DIPOLE MOMENT
-------------
                                X             Y             Z
Electronic contribution:    -15.66054     -10.58150      14.70083
Nuclear contribution   :     15.71617      10.52365     -15.12059
                        -----------------------------------------
Total Dipole Moment    :      0.05563      -0.05785      -0.41976
                        -----------------------------------------
Magnitude (a.u.)       :      0.42737
Magnitude (Debye)      :      1.08628

Rotational constants in cm-1:     0.021216     0.007939     0.006462
Rotational constants in MHz :   636.038428   238.001664   193.719459

                             ****ORCA TERMINATED NORMALLY****
TOTAL RUN TIME: 0 days 0 hours 0 minutes 31 seconds 528 msec
