                         Program Version 4.2.1 -  RELEASE  -
|  1> ! wB97X-D3 SP def2-SVP
|  2> %pal
|  3> nprocs 16
|  4> end
|  5>
|  6> * xyz 0 1
|  7> S 	 -2.683 	 -8.42021 	 84.3861
|  8> C 	 -1.86307 	 -9.82112 	 85.0286
|  9> C 	 -2.44633 	 -10.2423 	 86.2576
| 10> C 	 -3.45299 	 -9.41538 	 86.6771
| 11> C 	 -3.60294 	 -8.30082 	 85.8891
| 12> H 	 -3.93054 	 -9.40766 	 87.6106
| 13> C 	 -2.00911 	 -11.4425 	 87.0177
| 14> H 	 -1.77715 	 -12.2573 	 86.371
| 15> H 	 -2.91982 	 -11.7552 	 87.5253
| 16> C 	 -0.769049 	 -11.2985 	 87.9513
| 17> H 	 -0.441532 	 -12.2975 	 88.2228
| 18> H 	 0.0622442 	 -10.8938 	 87.3521
| 19> C 	 -1.1923 	 -10.5685 	 89.2594
| 20> H 	 -0.292896 	 -10.5933 	 89.9136
| 21> H 	 -1.61177 	 -9.59388 	 89.262
| 22> H 	 -1.88424 	 -11.2253 	 89.7616
| 23> S 	 -5.58701 	 -6.8167 	 84.8769
| 24> C 	 -6.44238 	 -5.60241 	 85.8413
| 25> C 	 -5.95708 	 -5.50619 	 87.1055
| 26> C 	 -4.88401 	 -6.47181 	 87.3257
| 27> C 	 -4.45972 	 -7.15127 	 86.1812
| 28> H 	 -6.45598 	 -4.93177 	 87.8846
| 29> C 	 -4.07475 	 -6.67633 	 88.5863
| 30> H 	 -3.06129 	 -6.86244 	 88.2747
| 31> H 	 -4.41858 	 -7.58107 	 89.2304
| 32> C 	 -3.86599 	 -5.3686 	 89.4339
| 33> H 	 -4.76982 	 -5.11025 	 89.8533
| 34> H 	 -3.51173 	 -4.52471 	 88.8175
| 35> C 	 -2.80802 	 -5.54257 	 90.5613
| 36> H 	 -1.98445 	 -5.92035 	 90.1283
| 37> H 	 -3.26922 	 -6.18721 	 91.2545
| 38> H 	 -2.70885 	 -4.53265 	 91.0037
| 39> H 	 -1.23176 	 -10.4837 	 84.4155
| 40> H 	 -7.44972 	 -5.17306 	 85.5526
| 41> *
| 42>
| 43>                          ****END OF INPUT****

CARTESIAN COORDINATES (ANGSTROEM)
---------------------------------
  S     -2.683000   -8.420210   84.386100
  C     -1.863070   -9.821120   85.028600
  C     -2.446330  -10.242300   86.257600
  C     -3.452990   -9.415380   86.677100
  C     -3.602940   -8.300820   85.889100
  H     -3.930540   -9.407660   87.610600
  C     -2.009110  -11.442500   87.017700
  H     -1.777150  -12.257300   86.371000
  H     -2.919820  -11.755200   87.525300
  C     -0.769049  -11.298500   87.951300
  H     -0.441532  -12.297500   88.222800
  H      0.062244  -10.893800   87.352100
  C     -1.192300  -10.568500   89.259400
  H     -0.292896  -10.593300   89.913600
  H     -1.611770   -9.593880   89.262000
  H     -1.884240  -11.225300   89.761600
  S     -5.587010   -6.816700   84.876900
  C     -6.442380   -5.602410   85.841300
  C     -5.957080   -5.506190   87.105500
  C     -4.884010   -6.471810   87.325700
  C     -4.459720   -7.151270   86.181200
  H     -6.455980   -4.931770   87.884600
  C     -4.074750   -6.676330   88.586300
  H     -3.061290   -6.862440   88.274700
  H     -4.418580   -7.581070   89.230400
  C     -3.865990   -5.368600   89.433900
  H     -4.769820   -5.110250   89.853300
  H     -3.511730   -4.524710   88.817500
  C     -2.808020   -5.542570   90.561300
  H     -1.984450   -5.920350   90.128300
  H     -3.269220   -6.187210   91.254500
  H     -2.708850   -4.532650   91.003700
  H     -1.231760  -10.483700   84.415500
  H     -7.449720   -5.173060   85.552600

 Total Charge           Charge          ....    0
 Multiplicity           Mult            ....    1
 Number of Electrons    NEL             ....  134
 Basis Dimension        Dim             ....  322

ORBITAL ENERGIES
----------------

  NO   OCC          E(Eh)            E(eV)
   0   2.0000     -88.970469     -2421.0095
   1   2.0000     -88.960533     -2420.7392
   2   2.0000     -10.329890      -281.0906
   3   2.0000     -10.325971      -280.9840
   4   2.0000     -10.322086      -280.8782
   5   2.0000     -10.315777      -280.7066
   6   2.0000     -10.308514      -280.5089
   7   2.0000     -10.298959      -280.2489
   8   2.0000     -10.297340      -280.2049
   9   2.0000     -10.297016      -280.1960
  10   2.0000     -10.293170      -280.0914
  11   2.0000     -10.284618      -279.8587
  12   2.0000     -10.284593      -279.8580
  13   2.0000     -10.280326      -279.7419
  14   2.0000     -10.278504      -279.6923
  15   2.0000     -10.268158      -279.4108
  16   2.0000      -8.084749      -219.9972
  17   2.0000      -8.075311      -219.7404
  18   2.0000      -6.043116      -164.4416
  19   2.0000      -6.039306      -164.3379
  20   2.0000      -6.035697      -164.2397
  21   2.0000      -6.033887      -164.1904
  22   2.0000      -6.029797      -164.0791
  23   2.0000      -6.025988      -163.9755
  24   2.0000      -1.007732       -27.4218
  25   2.0000      -0.983195       -26.7541
  26   2.0000      -0.911178       -24.7944
  27   2.0000      -0.905595       -24.6425
  28   2.0000      -0.869385       -23.6572
  29   2.0000      -0.856868       -23.3166
  30   2.0000      -0.846508       -23.0347
  31   2.0000      -0.818088       -22.2613
  32   2.0000      -0.780890       -21.2491
  33   2.0000      -0.764685       -20.8081
  34   2.0000      -0.710004       -19.3202
  35   2.0000      -0.703106       -19.1325
  36   2.0000      -0.695511       -18.9258
  37   2.0000      -0.653971       -17.7955
  38   2.0000      -0.641027       -17.4432
  39   2.0000      -0.619985       -16.8706
  40   2.0000      -0.592745       -16.1294
  41   2.0000      -0.575462       -15.6591
  42   2.0000      -0.570712       -15.5299
  43   2.0000      -0.546162       -14.8618
  44   2.0000      -0.542557       -14.7637
  45   2.0000      -0.524897       -14.2832
  46   2.0000      -0.516890       -14.0653
  47   2.0000      -0.512458       -13.9447
  48   2.0000      -0.506466       -13.7816
  49   2.0000      -0.497996       -13.5512
  50   2.0000      -0.487861       -13.2754
  51   2.0000      -0.478599       -13.0233
  52   2.0000      -0.476100       -12.9553
  53   2.0000      -0.471021       -12.8171
  54   2.0000      -0.457584       -12.4515
  55   2.0000      -0.448540       -12.2054
  56   2.0000      -0.444675       -12.1002
  57   2.0000      -0.440099       -11.9757
  58   2.0000      -0.433469       -11.7953
  59   2.0000      -0.423199       -11.5158
  60   2.0000      -0.422088       -11.4856
  61   2.0000      -0.416750       -11.3404
  62   2.0000      -0.406496       -11.0613
  63   2.0000      -0.351599        -9.5675
  64   2.0000      -0.337088        -9.1726
  65   2.0000      -0.324489        -8.8298
  66   2.0000      -0.286404        -7.7935
  67   0.0000       0.023288         0.6337
  68   0.0000       0.065547         1.7836
  69   0.0000       0.104148         2.8340
  70   0.0000       0.121810         3.3146
  71   0.0000       0.130056         3.5390

MULLIKEN ATOMIC CHARGES
-----------------------
   0 S :    0.123017
   1 C :   -0.117515
   2 C :   -0.093539
   3 C :    0.061818
   4 C :   -0.162569
   5 H :   -0.013037
   6 C :    0.056781
   7 H :    0.011109
   8 H :    0.015325
   9 C :   -0.040531
  10 H :    0.023763
  11 H :    0.034792
  12 C :   -0.048358
  13 H :    0.032534
  14 H :    0.040304
  15 H :    0.018216
  16 S :    0.076854
  17 C :   -0.098057
  18 C :   -0.020695
  19 C :   -0.056848
  20 C :   -0.119008
  21 H :    0.030318
  22 C :   -0.016893
  23 H :    0.039327
  24 H :    0.058584
  25 C :   -0.110191
  26 H :    0.009651
  27 H :    0.038523
  28 C :    0.020321
  29 H :    0.011818
  30 H :    0.018188
  31 H :    0.039674
  32 H :    0.056435
  33 H :    0.079892
Sum of atomic charges:   -0.0000000

LOEWDIN ATOMIC CHARGES
----------------------
   0 S :    0.410942
   1 C :   -0.208816
   2 C :   -0.060513
   3 C :   -0.058365
   4 C :   -0.187499
   5 H :    0.025709
   6 C :   -0.035163
   7 H :    0.025272
   8 H :    0.029261
   9 C :   -0.029017
  10 H :    0.024309
  11 H :    0.026150
  12 C :   -0.065704
  13 H :    0.030581
  14 H :    0.019252
  15 H :    0.023984
  16 S :    0.387550
  17 C :   -0.183765
  18 C :   -0.075235
  19 C :   -0.057891
  20 C :   -0.192540
  21 H :    0.037056
  22 C :   -0.044264
  23 H :    0.030139
  24 H :    0.037697
  25 C :   -0.032469
  26 H :    0.004113
  27 H :    0.027502
  28 C :   -0.042296
  29 H :    0.006586
  30 H :    0.018981
  31 H :    0.034548
  32 H :    0.029805
  33 H :    0.044103

  Mayer bond orders larger than 0.100000
B(  0-S ,  1-C ) :   1.1492 B(  0-S ,  4-C ) :   1.1660 B(  1-C ,  2-C ) :   1.5574
B(  1-C ,  4-C ) :   0.1157 B(  1-C , 32-H ) :   0.9638 B(  2-C ,  3-C ) :   1.2909
B(  2-C ,  6-C ) :   1.0287 B(  3-C ,  4-C ) :   1.5379 B(  3-C ,  5-H ) :   0.9982
B(  4-C , 20-C ) :   1.0207 B(  6-C ,  7-H ) :   0.9319 B(  6-C ,  8-H ) :   0.9428
B(  6-C ,  9-C ) :   1.0730 B(  9-C , 10-H ) :   0.9535 B(  9-C , 11-H ) :   0.9565
B(  9-C , 12-C ) :   1.0675 B( 12-C , 13-H ) :   0.9740 B( 12-C , 14-H ) :   0.9813
B( 12-C , 15-H ) :   0.9732 B( 16-S , 17-C ) :   1.1519 B( 16-S , 20-C ) :   1.1271
B( 17-C , 18-C ) :   1.6281 B( 17-C , 33-H ) :   0.9534 B( 18-C , 19-C ) :   1.2213
B( 18-C , 21-H ) :   0.9890 B( 19-C , 20-C ) :   1.6218 B( 19-C , 22-C ) :   1.0333
B( 22-C , 23-H ) :   0.9502 B( 22-C , 24-H ) :   0.9275 B( 22-C , 25-C ) :   1.0632
B( 25-C , 26-H ) :   0.9523 B( 25-C , 27-H ) :   0.9621 B( 25-C , 28-C ) :   1.0816
B( 28-C , 29-H ) :   0.9795 B( 28-C , 30-H ) :   0.9765 B( 28-C , 31-H ) :   0.9743

Dispersion correction           -0.014415072
FINAL SINGLE POINT ENERGY     -1339.854277209771

DIPOLE MOMENT
-------------
                                X             Y             Z
Electronic contribution:    -11.70893       4.89587     -28.50629
Nuclear contribution   :     11.70011      -5.16987      29.22292
                        -----------------------------------------
Total Dipole Moment    :     -0.00882      -0.27400       0.71663
                        -----------------------------------------
Magnitude (a.u.)       :      0.76728
Magnitude (Debye)      :      1.95026

Rotational constants in cm-1:     0.016238     0.010197     0.006816
Rotational constants in MHz :   486.814888   305.701528   204.326952

                             ****ORCA TERMINATED NORMALLY****
TOTAL RUN TIME: 0 days 0 hours 0 minutes 35 seconds 0 msec
