                         Program Version 4.2.1 -  RELEASE  -
|  1> ! wB97X-D3 SP def2-SVP
|  2> %pal
|  3> nprocs 16
|  4> end
|  5>
|  6> * xyz 0 1
|  7> S 	 -35.7819 	 33.2526 	 44.4545
|  8> C 	 -35.4783 	 33.0715 	 46.1973
|  9> C 	 -34.3099 	 33.7302 	 46.5489
| 10> C 	 -33.7921 	 34.5094 	 45.57
| 11> C 	 -34.4518 	 34.3767 	 44.3439
| 12> H 	 -32.9968 	 35.2833 	 45.6441
| 13> C 	 -33.7418 	 33.65 	 47.9468
| 14> H 	 -34.2502 	 32.8171 	 48.4302
| 15> H 	 -34.0274 	 34.6255 	 48.4354
| 16> C 	 -32.2236 	 33.3104 	 48.0506
| 17> H 	 -31.606 	 34.1008 	 47.6317
| 18> H 	 -31.9516 	 33.2718 	 49.0987
| 19> C 	 -31.8989 	 31.8879 	 47.4667
| 20> H 	 -32.5867 	 31.0683 	 47.8137
| 21> H 	 -31.9582 	 31.8157 	 46.3586
| 22> H 	 -30.8381 	 31.5769 	 47.7649
| 23> S 	 -35.4744 	 36.2717 	 42.6618
| 24> C 	 -34.4206 	 36.8772 	 41.3246
| 25> C 	 -33.1585 	 36.3636 	 41.4029
| 26> C 	 -32.9527 	 35.4448 	 42.4676
| 27> C 	 -34.1408 	 35.2506 	 43.2313
| 28> H 	 -32.3641 	 36.6209 	 40.7754
| 29> C 	 -31.6454 	 34.8074 	 42.7704
| 30> H 	 -31.6128 	 33.8477 	 42.2262
| 31> H 	 -31.6871 	 34.4401 	 43.7314
| 32> C 	 -30.402 	 35.6949 	 42.5534
| 33> H 	 -30.2958 	 36.0197 	 41.5103
| 34> H 	 -29.5109 	 35.0859 	 42.7185
| 35> C 	 -30.3463 	 36.8868 	 43.5319
| 36> H 	 -31.2144 	 37.4924 	 43.4936
| 37> H 	 -29.4694 	 37.5596 	 43.4497
| 38> H 	 -30.2525 	 36.471 	 44.571
| 39> H 	 -36.0649 	 32.3723 	 46.9074
| 40> H 	 -34.5933 	 37.7284 	 40.5913
| 41> *
| 42>
| 43>                          ****END OF INPUT****

CARTESIAN COORDINATES (ANGSTROEM)
---------------------------------
  S    -35.781900   33.252600   44.454500
  C    -35.478300   33.071500   46.197300
  C    -34.309900   33.730200   46.548900
  C    -33.792100   34.509400   45.570000
  C    -34.451800   34.376700   44.343900
  H    -32.996800   35.283300   45.644100
  C    -33.741800   33.650000   47.946800
  H    -34.250200   32.817100   48.430200
  H    -34.027400   34.625500   48.435400
  C    -32.223600   33.310400   48.050600
  H    -31.606000   34.100800   47.631700
  H    -31.951600   33.271800   49.098700
  C    -31.898900   31.887900   47.466700
  H    -32.586700   31.068300   47.813700
  H    -31.958200   31.815700   46.358600
  H    -30.838100   31.576900   47.764900
  S    -35.474400   36.271700   42.661800
  C    -34.420600   36.877200   41.324600
  C    -33.158500   36.363600   41.402900
  C    -32.952700   35.444800   42.467600
  C    -34.140800   35.250600   43.231300
  H    -32.364100   36.620900   40.775400
  C    -31.645400   34.807400   42.770400
  H    -31.612800   33.847700   42.226200
  H    -31.687100   34.440100   43.731400
  C    -30.402000   35.694900   42.553400
  H    -30.295800   36.019700   41.510300
  H    -29.510900   35.085900   42.718500
  C    -30.346300   36.886800   43.531900
  H    -31.214400   37.492400   43.493600
  H    -29.469400   37.559600   43.449700
  H    -30.252500   36.471000   44.571000
  H    -36.064900   32.372300   46.907400
  H    -34.593300   37.728400   40.591300

 Total Charge           Charge          ....    0
 Multiplicity           Mult            ....    1
 Number of Electrons    NEL             ....  134
 Basis Dimension        Dim             ....  322

ORBITAL ENERGIES
----------------

  NO   OCC          E(Eh)            E(eV)
   0   2.0000     -88.971780     -2421.0452
   1   2.0000     -88.966897     -2420.9123
   2   2.0000     -10.327732      -281.0319
   3   2.0000     -10.327480      -281.0250
   4   2.0000     -10.322916      -280.9008
   5   2.0000     -10.320991      -280.8485
   6   2.0000     -10.302629      -280.3488
   7   2.0000     -10.295853      -280.1644
   8   2.0000     -10.294047      -280.1152
   9   2.0000     -10.293869      -280.1104
  10   2.0000     -10.293279      -280.0944
  11   2.0000     -10.291173      -280.0370
  12   2.0000     -10.289769      -279.9989
  13   2.0000     -10.287202      -279.9290
  14   2.0000     -10.285077      -279.8712
  15   2.0000     -10.280870      -279.7567
  16   2.0000      -8.085656      -220.0219
  17   2.0000      -8.080151      -219.8721
  18   2.0000      -6.044043      -164.4668
  19   2.0000      -6.040278      -164.3643
  20   2.0000      -6.038832      -164.3250
  21   2.0000      -6.036594      -164.2641
  22   2.0000      -6.034889      -164.2177
  23   2.0000      -6.030788      -164.1061
  24   2.0000      -1.005433       -27.3592
  25   2.0000      -0.979613       -26.6566
  26   2.0000      -0.911261       -24.7967
  27   2.0000      -0.906503       -24.6672
  28   2.0000      -0.866337       -23.5742
  29   2.0000      -0.849061       -23.1041
  30   2.0000      -0.843643       -22.9567
  31   2.0000      -0.812524       -22.1099
  32   2.0000      -0.780975       -21.2514
  33   2.0000      -0.766160       -20.8483
  34   2.0000      -0.713276       -19.4092
  35   2.0000      -0.702211       -19.1081
  36   2.0000      -0.693742       -18.8777
  37   2.0000      -0.656961       -17.8768
  38   2.0000      -0.633366       -17.2348
  39   2.0000      -0.619551       -16.8588
  40   2.0000      -0.593723       -16.1560
  41   2.0000      -0.559239       -15.2177
  42   2.0000      -0.553698       -15.0669
  43   2.0000      -0.551109       -14.9964
  44   2.0000      -0.541003       -14.7214
  45   2.0000      -0.535396       -14.5689
  46   2.0000      -0.517752       -14.0888
  47   2.0000      -0.505737       -13.7618
  48   2.0000      -0.493773       -13.4362
  49   2.0000      -0.491003       -13.3609
  50   2.0000      -0.482576       -13.1316
  51   2.0000      -0.478901       -13.0316
  52   2.0000      -0.467952       -12.7336
  53   2.0000      -0.462215       -12.5775
  54   2.0000      -0.455621       -12.3981
  55   2.0000      -0.450434       -12.2569
  56   2.0000      -0.447475       -12.1764
  57   2.0000      -0.440385       -11.9835
  58   2.0000      -0.436937       -11.8897
  59   2.0000      -0.425641       -11.5823
  60   2.0000      -0.424015       -11.5380
  61   2.0000      -0.420165       -11.4333
  62   2.0000      -0.418201       -11.3798
  63   2.0000      -0.344992        -9.3877
  64   2.0000      -0.333852        -9.0846
  65   2.0000      -0.327306        -8.9065
  66   2.0000      -0.287006        -7.8098
  67   0.0000       0.026340         0.7167
  68   0.0000       0.064462         1.7541
  69   0.0000       0.108237         2.9453
  70   0.0000       0.118065         3.2127
  71   0.0000       0.125939         3.4270

MULLIKEN ATOMIC CHARGES
-----------------------
   0 S :    0.128471
   1 C :   -0.173631
   2 C :   -0.061482
   3 C :    0.008310
   4 C :   -0.167966
   5 H :    0.032929
   6 C :    0.053827
   7 H :    0.012210
   8 H :    0.056286
   9 C :   -0.052897
  10 H :    0.032470
  11 H :    0.032651
  12 C :   -0.112431
  13 H :    0.038888
  14 H :    0.049936
  15 H :    0.044878
  16 S :    0.106460
  17 C :   -0.095977
  18 C :   -0.012539
  19 C :   -0.068688
  20 C :   -0.188233
  21 H :   -0.009391
  22 C :    0.149252
  23 H :    0.038606
  24 H :   -0.024898
  25 C :   -0.076244
  26 H :    0.032141
  27 H :    0.028303
  28 C :   -0.059483
  29 H :    0.038575
  30 H :    0.038767
  31 H :    0.026798
  32 H :    0.078679
  33 H :    0.075420
Sum of atomic charges:   -0.0000000

LOEWDIN ATOMIC CHARGES
----------------------
   0 S :    0.408099
   1 C :   -0.209769
   2 C :   -0.076137
   3 C :   -0.066228
   4 C :   -0.202876
   5 H :    0.039777
   6 C :   -0.030663
   7 H :    0.026032
   8 H :    0.040848
   9 C :   -0.040306
  10 H :    0.021630
  11 H :    0.026422
  12 C :   -0.078876
  13 H :    0.029415
  14 H :    0.028023
  15 H :    0.032666
  16 S :    0.379615
  17 C :   -0.181862
  18 C :   -0.067566
  19 C :   -0.050709
  20 C :   -0.193405
  21 H :    0.021677
  22 C :   -0.031640
  23 H :    0.043794
  24 H :    0.017745
  25 C :   -0.038557
  26 H :    0.021079
  27 H :    0.028015
  28 C :   -0.067483
  29 H :    0.019578
  30 H :    0.029713
  31 H :    0.028704
  32 H :    0.046568
  33 H :    0.046678

  Mayer bond orders larger than 0.100000
B(  0-S ,  1-C ) :   1.1371 B(  0-S ,  4-C ) :   1.1699 B(  1-C ,  2-C ) :   1.5744
B(  1-C ,  4-C ) :   0.1078 B(  1-C , 32-H ) :   0.9538 B(  2-C ,  3-C ) :   1.2849
B(  2-C ,  6-C ) :   1.0145 B(  3-C ,  4-C ) :   1.5244 B(  3-C ,  5-H ) :   0.9859
B(  4-C , 20-C ) :   1.0571 B(  6-C ,  7-H ) :   0.9415 B(  6-C ,  8-H ) :   0.9402
B(  6-C ,  9-C ) :   1.0736 B(  9-C , 10-H ) :   0.9556 B(  9-C , 11-H ) :   0.9583
B(  9-C , 12-C ) :   1.0582 B( 12-C , 13-H ) :   0.9758 B( 12-C , 14-H ) :   0.9761
B( 12-C , 15-H ) :   0.9768 B( 16-S , 17-C ) :   1.1281 B( 16-S , 20-C ) :   1.1411
B( 17-C , 18-C ) :   1.6244 B( 17-C , 33-H ) :   0.9538 B( 18-C , 19-C ) :   1.2527
B( 18-C , 21-H ) :   0.9891 B( 19-C , 20-C ) :   1.5701 B( 19-C , 22-C ) :   1.0473
B( 22-C , 23-H ) :   0.9107 B( 22-C , 24-H ) :   0.9166 B( 22-C , 25-C ) :   1.0725
B( 25-C , 26-H ) :   0.9549 B( 25-C , 27-H ) :   0.9526 B( 25-C , 28-C ) :   1.0666
B( 28-C , 29-H ) :   0.9784 B( 28-C , 30-H ) :   0.9753 B( 28-C , 31-H ) :   0.9731

Dispersion correction           -0.015170159
FINAL SINGLE POINT ENERGY     -1339.875651649558

DIPOLE MOMENT
-------------
                                X             Y             Z
Electronic contribution:    -26.09747       2.44156     -12.31571
Nuclear contribution   :     26.80788      -2.41228      12.62189
                        -----------------------------------------
Total Dipole Moment    :      0.71040       0.02928       0.30619
                        -----------------------------------------
Magnitude (a.u.)       :      0.77413
Magnitude (Debye)      :      1.96769

Rotational constants in cm-1:     0.018034     0.009908     0.007104
Rotational constants in MHz :   540.641891   297.044028   212.962883

                             ****ORCA TERMINATED NORMALLY****
TOTAL RUN TIME: 0 days 0 hours 0 minutes 35 seconds 572 msec
