                         Program Version 4.2.1 -  RELEASE  -
|  1> ! wB97X-D3 SP def2-SVP
|  2> %pal
|  3> nprocs 16
|  4> end
|  5>
|  6> * xyz 0 1
|  7> S 	 46.7177 	 22.5153 	 90.2437
|  8> C 	 47.1947 	 23.653 	 91.3899
|  9> C 	 47.1579 	 24.9677 	 90.9076
| 10> C 	 46.7852 	 24.974 	 89.4793
| 11> C 	 46.3864 	 23.7337 	 89.0184
| 12> H 	 46.7177 	 25.9383 	 88.8438
| 13> C 	 47.3442 	 26.2848 	 91.6793
| 14> H 	 48.0974 	 26.8792 	 91.2135
| 15> H 	 47.666 	 25.9361 	 92.6572
| 16> C 	 45.9797 	 27.0311 	 91.8532
| 17> H 	 46.2992 	 28.0748 	 92.3308
| 18> H 	 45.6632 	 27.327 	 90.9217
| 19> C 	 44.9492 	 26.2155 	 92.745
| 20> H 	 44.5714 	 25.3285 	 92.385
| 21> H 	 45.3767 	 26.0102 	 93.7258
| 22> H 	 44.0839 	 26.7972 	 93.064
| 23> S 	 44.6565 	 22.4063 	 87.4791
| 24> C 	 44.6649 	 22.576 	 85.7015
| 25> C 	 45.7067 	 23.3034 	 85.2798
| 26> C 	 46.4334 	 23.9228 	 86.3665
| 27> C 	 45.959 	 23.5079 	 87.663
| 28> H 	 45.8317 	 23.4926 	 84.2209
| 29> C 	 47.6639 	 24.814 	 86.2408
| 30> H 	 47.6352 	 25.6393 	 86.8771
| 31> H 	 47.5881 	 25.2345 	 85.2231
| 32> C 	 48.9656 	 24.0897 	 86.4995
| 33> H 	 49.0565 	 23.2776 	 85.7771
| 34> H 	 48.867 	 23.636 	 87.4754
| 35> C 	 50.1125 	 25.0637 	 86.4815
| 36> H 	 51.0424 	 24.5451 	 86.6614
| 37> H 	 50.0063 	 25.6637 	 87.3226
| 38> H 	 50.0328 	 25.6523 	 85.5759
| 39> H 	 47.5962 	 23.3212 	 92.3705
| 40> H 	 43.9269 	 22.1324 	 84.9993
| 41> *
| 42>
| 43>                          ****END OF INPUT****

CARTESIAN COORDINATES (ANGSTROEM)
---------------------------------
  S     46.717700   22.515300   90.243700
  C     47.194700   23.653000   91.389900
  C     47.157900   24.967700   90.907600
  C     46.785200   24.974000   89.479300
  C     46.386400   23.733700   89.018400
  H     46.717700   25.938300   88.843800
  C     47.344200   26.284800   91.679300
  H     48.097400   26.879200   91.213500
  H     47.666000   25.936100   92.657200
  C     45.979700   27.031100   91.853200
  H     46.299200   28.074800   92.330800
  H     45.663200   27.327000   90.921700
  C     44.949200   26.215500   92.745000
  H     44.571400   25.328500   92.385000
  H     45.376700   26.010200   93.725800
  H     44.083900   26.797200   93.064000
  S     44.656500   22.406300   87.479100
  C     44.664900   22.576000   85.701500
  C     45.706700   23.303400   85.279800
  C     46.433400   23.922800   86.366500
  C     45.959000   23.507900   87.663000
  H     45.831700   23.492600   84.220900
  C     47.663900   24.814000   86.240800
  H     47.635200   25.639300   86.877100
  H     47.588100   25.234500   85.223100
  C     48.965600   24.089700   86.499500
  H     49.056500   23.277600   85.777100
  H     48.867000   23.636000   87.475400
  C     50.112500   25.063700   86.481500
  H     51.042400   24.545100   86.661400
  H     50.006300   25.663700   87.322600
  H     50.032800   25.652300   85.575900
  H     47.596200   23.321200   92.370500
  H     43.926900   22.132400   84.999300

 Total Charge           Charge          ....    0
 Multiplicity           Mult            ....    1
 Number of Electrons    NEL             ....  134
 Basis Dimension        Dim             ....  322

ORBITAL ENERGIES
----------------

  NO   OCC          E(Eh)            E(eV)
   0   2.0000     -88.969166     -2420.9741
   1   2.0000     -88.962371     -2420.7892
   2   2.0000     -10.330659      -281.1115
   3   2.0000     -10.326816      -281.0069
   4   2.0000     -10.317443      -280.7519
   5   2.0000     -10.316739      -280.7327
   6   2.0000     -10.307938      -280.4932
   7   2.0000     -10.306954      -280.4665
   8   2.0000     -10.303307      -280.3672
   9   2.0000     -10.299197      -280.2554
  10   2.0000     -10.294456      -280.1264
  11   2.0000     -10.294232      -280.1203
  12   2.0000     -10.282074      -279.7895
  13   2.0000     -10.275659      -279.6149
  14   2.0000     -10.273376      -279.5528
  15   2.0000     -10.265881      -279.3488
  16   2.0000      -8.084831      -219.9994
  17   2.0000      -8.077359      -219.7961
  18   2.0000      -6.043425      -164.4500
  19   2.0000      -6.039108      -164.3325
  20   2.0000      -6.035869      -164.2443
  21   2.0000      -6.035524      -164.2350
  22   2.0000      -6.031741      -164.1320
  23   2.0000      -6.028202      -164.0357
  24   2.0000      -1.008231       -27.4354
  25   2.0000      -0.983910       -26.7736
  26   2.0000      -0.914339       -24.8804
  27   2.0000      -0.905416       -24.6376
  28   2.0000      -0.876842       -23.8601
  29   2.0000      -0.848856       -23.0986
  30   2.0000      -0.838602       -22.8195
  31   2.0000      -0.816876       -22.2283
  32   2.0000      -0.783186       -21.3116
  33   2.0000      -0.766549       -20.8589
  34   2.0000      -0.712750       -19.3949
  35   2.0000      -0.699863       -19.0442
  36   2.0000      -0.689659       -18.7666
  37   2.0000      -0.660161       -17.9639
  38   2.0000      -0.636072       -17.3084
  39   2.0000      -0.619431       -16.8556
  40   2.0000      -0.593892       -16.1606
  41   2.0000      -0.571842       -15.5606
  42   2.0000      -0.563001       -15.3200
  43   2.0000      -0.553715       -15.0673
  44   2.0000      -0.536143       -14.5892
  45   2.0000      -0.527732       -14.3603
  46   2.0000      -0.511677       -13.9234
  47   2.0000      -0.508655       -13.8412
  48   2.0000      -0.502340       -13.6694
  49   2.0000      -0.493147       -13.4192
  50   2.0000      -0.491165       -13.3653
  51   2.0000      -0.486949       -13.2506
  52   2.0000      -0.467261       -12.7148
  53   2.0000      -0.465099       -12.6560
  54   2.0000      -0.452840       -12.3224
  55   2.0000      -0.448808       -12.2127
  56   2.0000      -0.445490       -12.1224
  57   2.0000      -0.439761       -11.9665
  58   2.0000      -0.434419       -11.8212
  59   2.0000      -0.430701       -11.7200
  60   2.0000      -0.424402       -11.5486
  61   2.0000      -0.411974       -11.2104
  62   2.0000      -0.409133       -11.1331
  63   2.0000      -0.359340        -9.7781
  64   2.0000      -0.332010        -9.0344
  65   2.0000      -0.324168        -8.8211
  66   2.0000      -0.284828        -7.7506
  67   0.0000       0.029239         0.7956
  68   0.0000       0.072806         1.9812
  69   0.0000       0.111196         3.0258
  70   0.0000       0.116079         3.1587
  71   0.0000       0.132281         3.5996

MULLIKEN ATOMIC CHARGES
-----------------------
   0 S :    0.129966
   1 C :   -0.142543
   2 C :   -0.112202
   3 C :   -0.039197
   4 C :   -0.117812
   5 H :    0.057734
   6 C :    0.093126
   7 H :    0.031391
   8 H :    0.010099
   9 C :   -0.070209
  10 H :    0.039762
  11 H :    0.013108
  12 C :   -0.018819
  13 H :    0.035630
  14 H :    0.016743
  15 H :    0.027396
  16 S :    0.091709
  17 C :   -0.102274
  18 C :   -0.020703
  19 C :   -0.056326
  20 C :   -0.167923
  21 H :    0.022117
  22 C :    0.080602
  23 H :   -0.013051
  24 H :    0.010843
  25 C :   -0.074775
  26 H :    0.021843
  27 H :    0.030098
  28 C :    0.026093
  29 H :    0.029562
  30 H :    0.005872
  31 H :    0.027870
  32 H :    0.067153
  33 H :    0.067118
Sum of atomic charges:   -0.0000000

LOEWDIN ATOMIC CHARGES
----------------------
   0 S :    0.429437
   1 C :   -0.227350
   2 C :   -0.064739
   3 C :   -0.070796
   4 C :   -0.207345
   5 H :    0.045418
   6 C :   -0.026543
   7 H :    0.027170
   8 H :    0.025877
   9 C :   -0.029166
  10 H :    0.036869
  11 H :    0.005965
  12 C :   -0.059661
  13 H :    0.017561
  14 H :    0.027185
  15 H :    0.030203
  16 S :    0.403713
  17 C :   -0.182159
  18 C :   -0.073232
  19 C :   -0.051563
  20 C :   -0.205703
  21 H :    0.036034
  22 C :   -0.031479
  23 H :    0.013929
  24 H :    0.028170
  25 C :   -0.035401
  26 H :    0.020682
  27 H :    0.024671
  28 C :   -0.053678
  29 H :    0.028082
  30 H :    0.016837
  31 H :    0.025425
  32 H :    0.036474
  33 H :    0.039113

  Mayer bond orders larger than 0.100000
B(  0-S ,  1-C ) :   1.1540 B(  0-S ,  4-C ) :   1.1364 B(  1-C ,  2-C ) :   1.5976
B(  1-C , 32-H ) :   0.9610 B(  2-C ,  3-C ) :   1.2343 B(  2-C ,  6-C ) :   1.0239
B(  3-C ,  4-C ) :   1.5720 B(  3-C ,  5-H ) :   0.9754 B(  4-C , 20-C ) :   1.0728
B(  6-C ,  7-H ) :   0.9408 B(  6-C ,  8-H ) :   0.9418 B(  6-C ,  9-C ) :   1.0655
B(  9-C , 10-H ) :   0.9579 B(  9-C , 11-H ) :   0.9633 B(  9-C , 12-C ) :   1.0507
B( 12-C , 13-H ) :   0.9805 B( 12-C , 14-H ) :   0.9741 B( 12-C , 15-H ) :   0.9749
B( 16-S , 17-C ) :   1.1386 B( 16-S , 20-C ) :   1.1527 B( 17-C , 18-C ) :   1.6321
B( 17-C , 33-H ) :   0.9605 B( 18-C , 19-C ) :   1.2483 B( 18-C , 21-H ) :   0.9868
B( 19-C , 20-C ) :   1.5452 B( 19-C , 22-C ) :   1.0485 B( 22-C , 23-H ) :   0.9333
B( 22-C , 24-H ) :   0.9213 B( 22-C , 25-C ) :   1.0678 B( 25-C , 26-H ) :   0.9527
B( 25-C , 27-H ) :   0.9529 B( 25-C , 28-C ) :   1.0843 B( 28-C , 29-H ) :   0.9691
B( 28-C , 30-H ) :   0.9691 B( 28-C , 31-H ) :   0.9729

Dispersion correction           -0.015045132
FINAL SINGLE POINT ENERGY     -1339.864860321008

DIPOLE MOMENT
-------------
                                X             Y             Z
Electronic contribution:    -11.19680     -19.57413      -4.09648
Nuclear contribution   :     11.44303      20.07414       4.08590
                        -----------------------------------------
Total Dipole Moment    :      0.24624       0.50002      -0.01057
                        -----------------------------------------
Magnitude (a.u.)       :      0.55746
Magnitude (Debye)      :      1.41695

Rotational constants in cm-1:     0.018349     0.009240     0.007576
Rotational constants in MHz :   550.074488   276.997303   227.112665

                             ****ORCA TERMINATED NORMALLY****
TOTAL RUN TIME: 0 days 0 hours 0 minutes 31 seconds 374 msec
