                         Program Version 4.2.1 -  RELEASE  -
|  1> ! wB97X-D3 SP def2-SVP
|  2> %pal
|  3> nprocs 16
|  4> end
|  5>
|  6> * xyz 0 1
|  7> S 	 -22.8419 	 0.364356 	 77.7206
|  8> C 	 -21.4007 	 -0.662462 	 77.9119
|  9> C 	 -21.0449 	 -1.30022 	 76.7364
| 10> C 	 -21.9942 	 -1.00789 	 75.7105
| 11> C 	 -22.9861 	 -0.0907053 	 76.0768
| 12> H 	 -21.7699 	 -1.40053 	 74.7547
| 13> C 	 -20.0359 	 -2.46244 	 76.6036
| 14> H 	 -20.0397 	 -2.91672 	 75.6293
| 15> H 	 -20.472 	 -3.29092 	 77.231
| 16> C 	 -18.5649 	 -2.10263 	 76.8149
| 17> H 	 -18.5249 	 -1.75519 	 77.8832
| 18> H 	 -17.9226 	 -3.01204 	 76.6514
| 19> C 	 -17.8745 	 -1.04047 	 75.9429
| 20> H 	 -18.5636 	 -0.234808 	 76.0039
| 21> H 	 -16.8548 	 -0.838843 	 76.2584
| 22> H 	 -17.9129 	 -1.39453 	 74.9109
| 23> S 	 -24.5162 	 2.06663 	 75.414
| 24> C 	 -25.5395 	 1.99404 	 74.0139
| 25> C 	 -25.4903 	 0.707825 	 73.4334
| 26> C 	 -24.7857 	 -0.266647 	 74.2146
| 27> C 	 -24.0478 	 0.357891 	 75.2451
| 28> H 	 -25.9895 	 0.49121 	 72.512
| 29> C 	 -24.6872 	 -1.74811 	 73.8038
| 30> H 	 -23.6864 	 -2.12344 	 73.7344
| 31> H 	 -25.0198 	 -1.74215 	 72.7272
| 32> C 	 -25.6156 	 -2.69519 	 74.6503
| 33> H 	 -26.7112 	 -2.49446 	 74.4538
| 34> H 	 -25.4833 	 -2.53857 	 75.7115
| 35> C 	 -25.3147 	 -4.14904 	 74.306
| 36> H 	 -24.2479 	 -4.32346 	 74.4029
| 37> H 	 -25.6925 	 -4.31259 	 73.2713
| 38> H 	 -25.9207 	 -4.76525 	 74.9394
| 39> H 	 -20.8963 	 -0.851107 	 78.8196
| 40> H 	 -25.9718 	 2.91032 	 73.4483
| 41> *
| 42>
| 43>                          ****END OF INPUT****

CARTESIAN COORDINATES (ANGSTROEM)
---------------------------------
  S    -22.841900    0.364356   77.720600
  C    -21.400700   -0.662462   77.911900
  C    -21.044900   -1.300220   76.736400
  C    -21.994200   -1.007890   75.710500
  C    -22.986100   -0.090705   76.076800
  H    -21.769900   -1.400530   74.754700
  C    -20.035900   -2.462440   76.603600
  H    -20.039700   -2.916720   75.629300
  H    -20.472000   -3.290920   77.231000
  C    -18.564900   -2.102630   76.814900
  H    -18.524900   -1.755190   77.883200
  H    -17.922600   -3.012040   76.651400
  C    -17.874500   -1.040470   75.942900
  H    -18.563600   -0.234808   76.003900
  H    -16.854800   -0.838843   76.258400
  H    -17.912900   -1.394530   74.910900
  S    -24.516200    2.066630   75.414000
  C    -25.539500    1.994040   74.013900
  C    -25.490300    0.707825   73.433400
  C    -24.785700   -0.266647   74.214600
  C    -24.047800    0.357891   75.245100
  H    -25.989500    0.491210   72.512000
  C    -24.687200   -1.748110   73.803800
  H    -23.686400   -2.123440   73.734400
  H    -25.019800   -1.742150   72.727200
  C    -25.615600   -2.695190   74.650300
  H    -26.711200   -2.494460   74.453800
  H    -25.483300   -2.538570   75.711500
  C    -25.314700   -4.149040   74.306000
  H    -24.247900   -4.323460   74.402900
  H    -25.692500   -4.312590   73.271300
  H    -25.920700   -4.765250   74.939400
  H    -20.896300   -0.851107   78.819600
  H    -25.971800    2.910320   73.448300

 Total Charge           Charge          ....    0
 Multiplicity           Mult            ....    1
 Number of Electrons    NEL             ....  134
 Basis Dimension        Dim             ....  322

ORBITAL ENERGIES
----------------

  NO   OCC          E(Eh)            E(eV)
   0   2.0000     -88.972409     -2421.0623
   1   2.0000     -88.967311     -2420.9236
   2   2.0000     -10.329682      -281.0849
   3   2.0000     -10.328946      -281.0649
   4   2.0000     -10.325341      -280.9668
   5   2.0000     -10.313524      -280.6452
   6   2.0000     -10.308583      -280.5108
   7   2.0000     -10.302541      -280.3464
   8   2.0000     -10.300131      -280.2808
   9   2.0000     -10.298330      -280.2318
  10   2.0000     -10.296980      -280.1951
  11   2.0000     -10.292056      -280.0611
  12   2.0000     -10.291373      -280.0425
  13   2.0000     -10.288230      -279.9570
  14   2.0000     -10.276441      -279.6362
  15   2.0000     -10.275056      -279.5985
  16   2.0000      -8.087072      -220.0604
  17   2.0000      -8.081773      -219.9162
  18   2.0000      -6.045569      -164.5083
  19   2.0000      -6.041610      -164.4006
  20   2.0000      -6.040251      -164.3636
  21   2.0000      -6.037828      -164.2977
  22   2.0000      -6.036227      -164.2541
  23   2.0000      -6.032678      -164.1575
  24   2.0000      -1.007862       -27.4253
  25   2.0000      -0.979960       -26.6661
  26   2.0000      -0.912414       -24.8281
  27   2.0000      -0.903862       -24.5953
  28   2.0000      -0.869441       -23.6587
  29   2.0000      -0.854515       -23.2525
  30   2.0000      -0.846034       -23.0218
  31   2.0000      -0.807619       -21.9764
  32   2.0000      -0.786864       -21.4117
  33   2.0000      -0.771484       -20.9932
  34   2.0000      -0.705501       -19.1977
  35   2.0000      -0.694540       -18.8994
  36   2.0000      -0.688414       -18.7327
  37   2.0000      -0.661746       -18.0070
  38   2.0000      -0.635660       -17.2972
  39   2.0000      -0.619327       -16.8528
  40   2.0000      -0.592560       -16.1244
  41   2.0000      -0.575518       -15.6606
  42   2.0000      -0.561587       -15.2816
  43   2.0000      -0.555792       -15.1239
  44   2.0000      -0.543098       -14.7784
  45   2.0000      -0.526251       -14.3200
  46   2.0000      -0.511807       -13.9270
  47   2.0000      -0.509859       -13.8740
  48   2.0000      -0.501391       -13.6436
  49   2.0000      -0.499449       -13.5907
  50   2.0000      -0.491242       -13.3674
  51   2.0000      -0.483571       -13.1586
  52   2.0000      -0.472183       -12.8487
  53   2.0000      -0.462563       -12.5870
  54   2.0000      -0.456818       -12.4306
  55   2.0000      -0.453851       -12.3499
  56   2.0000      -0.448092       -12.1932
  57   2.0000      -0.439566       -11.9612
  58   2.0000      -0.436969       -11.8905
  59   2.0000      -0.422369       -11.4932
  60   2.0000      -0.416142       -11.3238
  61   2.0000      -0.413370       -11.2484
  62   2.0000      -0.399881       -10.8813
  63   2.0000      -0.352010        -9.5787
  64   2.0000      -0.336859        -9.1664
  65   2.0000      -0.331985        -9.0338
  66   2.0000      -0.280735        -7.6392
  67   0.0000       0.019052         0.5184
  68   0.0000       0.070720         1.9244
  69   0.0000       0.097665         2.6576
  70   0.0000       0.109964         2.9923
  71   0.0000       0.140642         3.8271

MULLIKEN ATOMIC CHARGES
-----------------------
   0 S :    0.123222
   1 C :   -0.114093
   2 C :   -0.093215
   3 C :    0.006443
   4 C :   -0.104364
   5 H :   -0.004767
   6 C :    0.053939
   7 H :    0.005885
   8 H :    0.060185
   9 C :   -0.128025
  10 H :    0.030376
  11 H :    0.036695
  12 C :   -0.019856
  13 H :    0.031616
  14 H :    0.050684
  15 H :    0.021652
  16 S :    0.102103
  17 C :   -0.121964
  18 C :   -0.041272
  19 C :   -0.028160
  20 C :   -0.144017
  21 H :    0.015135
  22 C :    0.045512
  23 H :    0.017304
  24 H :    0.020053
  25 C :   -0.094822
  26 H :    0.036338
  27 H :    0.038808
  28 C :   -0.023407
  29 H :    0.035243
  30 H :    0.029658
  31 H :    0.029917
  32 H :    0.031679
  33 H :    0.095519
Sum of atomic charges:   -0.0000000

LOEWDIN ATOMIC CHARGES
----------------------
   0 S :    0.419245
   1 C :   -0.186567
   2 C :   -0.062501
   3 C :   -0.063134
   4 C :   -0.205948
   5 H :    0.021133
   6 C :   -0.036060
   7 H :    0.022935
   8 H :    0.047376
   9 C :   -0.050078
  10 H :    0.021921
  11 H :    0.026614
  12 C :   -0.058521
  13 H :    0.022168
  14 H :    0.031583
  15 H :    0.023531
  16 S :    0.401368
  17 C :   -0.215367
  18 C :   -0.069405
  19 C :   -0.053184
  20 C :   -0.187582
  21 H :    0.026441
  22 C :   -0.030505
  23 H :    0.021519
  24 H :    0.035049
  25 C :   -0.039105
  26 H :    0.030178
  27 H :    0.022357
  28 C :   -0.061791
  29 H :    0.023527
  30 H :    0.028316
  31 H :    0.023165
  32 H :    0.018098
  33 H :    0.053227

  Mayer bond orders larger than 0.100000
B(  0-S ,  1-C ) :   1.1338 B(  0-S ,  4-C ) :   1.1583 B(  1-C ,  2-C ) :   1.6009
B(  1-C , 32-H ) :   0.9714 B(  2-C ,  3-C ) :   1.2760 B(  2-C ,  6-C ) :   1.0054
B(  3-C ,  4-C ) :   1.5193 B(  3-C ,  5-H ) :   0.9987 B(  4-C , 20-C ) :   1.0899
B(  6-C ,  7-H ) :   0.9433 B(  6-C ,  8-H ) :   0.9463 B(  6-C ,  9-C ) :   1.0597
B(  9-C , 10-H ) :   0.9604 B(  9-C , 11-H ) :   0.9586 B(  9-C , 12-C ) :   1.0711
B( 12-C , 13-H ) :   0.9751 B( 12-C , 14-H ) :   0.9733 B( 12-C , 15-H ) :   0.9732
B( 16-S , 17-C ) :   1.1590 B( 16-S , 20-C ) :   1.1403 B( 17-C , 18-C ) :   1.5895
B( 17-C , 20-C ) :   0.1076 B( 17-C , 33-H ) :   0.9537 B( 18-C , 19-C ) :   1.2684
B( 18-C , 21-H ) :   0.9852 B( 19-C , 20-C ) :   1.5490 B( 19-C , 22-C ) :   1.0336
B( 22-C , 23-H ) :   0.9479 B( 22-C , 24-H ) :   0.9334 B( 22-C , 25-C ) :   1.0464
B( 25-C , 26-H ) :   0.9543 B( 25-C , 27-H ) :   0.9626 B( 25-C , 28-C ) :   1.0843
B( 28-C , 29-H ) :   0.9754 B( 28-C , 30-H ) :   0.9745 B( 28-C , 31-H ) :   0.9729

Dispersion correction           -0.014007972
FINAL SINGLE POINT ENERGY     -1339.869087996432

DIPOLE MOMENT
-------------
                                X             Y             Z
Electronic contribution:    -11.40054      23.15393       7.95699
Nuclear contribution   :     11.57614     -23.74219      -8.34507
                        -----------------------------------------
Total Dipole Moment    :      0.17560      -0.58826      -0.38808
                        -----------------------------------------
Magnitude (a.u.)       :      0.72629
Magnitude (Debye)      :      1.84607

Rotational constants in cm-1:     0.017711     0.008659     0.006881
Rotational constants in MHz :   530.949311   259.593848   206.277502

                             ****ORCA TERMINATED NORMALLY****
TOTAL RUN TIME: 0 days 0 hours 0 minutes 32 seconds 24 msec
