                         Program Version 4.2.1 -  RELEASE  -
|  1> ! wB97X-D3 SP def2-SVP
|  2> %pal
|  3> nprocs 16
|  4> end
|  5>
|  6> * xyz 0 1
|  7> S 	 -12.2511 	 32.498 	 35.2372
|  8> C 	 -11.5689 	 32.7182 	 33.6943
|  9> C 	 -12.4647 	 33.2738 	 32.7726
| 10> C 	 -13.7635 	 33.4245 	 33.3243
| 11> C 	 -13.8463 	 32.9889 	 34.6853
| 12> H 	 -14.7025 	 33.7196 	 32.8513
| 13> C 	 -12.1141 	 33.5405 	 31.3274
| 14> H 	 -13.0647 	 33.6691 	 30.7475
| 15> H 	 -11.6165 	 32.681 	 30.869
| 16> C 	 -11.1814 	 34.7675 	 31.2001
| 17> H 	 -11.5449 	 35.6943 	 31.6179
| 18> H 	 -10.2076 	 34.5671 	 31.705
| 19> C 	 -10.7706 	 35.0541 	 29.7808
| 20> H 	 -11.5613 	 34.7432 	 29.0843
| 21> H 	 -10.4801 	 36.1606 	 29.7009
| 22> H 	 -9.90473 	 34.4395 	 29.6109
| 23> S 	 -14.854 	 33.3412 	 37.1754
| 24> C 	 -16.4484 	 32.7959 	 37.5572
| 25> C 	 -17.0852 	 32.3126 	 36.4136
| 26> C 	 -16.3656 	 32.532 	 35.2007
| 27> C 	 -15.0488 	 32.9483 	 35.4971
| 28> H 	 -18.0834 	 31.8616 	 36.4802
| 29> C 	 -17.0815 	 32.175 	 33.896
| 30> H 	 -17.8211 	 31.3827 	 34.0039
| 31> H 	 -16.2851 	 31.7006 	 33.2763
| 32> C 	 -17.5849 	 33.4052 	 33.1501
| 33> H 	 -18.1438 	 33.0684 	 32.2957
| 34> H 	 -16.8304 	 34.0531 	 32.6686
| 35> C 	 -18.3934 	 34.3232 	 34.1729
| 36> H 	 -19.053 	 33.6772 	 34.7167
| 37> H 	 -19.1492 	 35.0914 	 33.8475
| 38> H 	 -17.7663 	 34.7572 	 34.9604
| 39> H 	 -10.5115 	 32.6043 	 33.466
| 40> H 	 -16.9607 	 32.6726 	 38.5234
| 41> *
| 42>
| 43>                          ****END OF INPUT****

CARTESIAN COORDINATES (ANGSTROEM)
---------------------------------
  S    -12.251100   32.498000   35.237200
  C    -11.568900   32.718200   33.694300
  C    -12.464700   33.273800   32.772600
  C    -13.763500   33.424500   33.324300
  C    -13.846300   32.988900   34.685300
  H    -14.702500   33.719600   32.851300
  C    -12.114100   33.540500   31.327400
  H    -13.064700   33.669100   30.747500
  H    -11.616500   32.681000   30.869000
  C    -11.181400   34.767500   31.200100
  H    -11.544900   35.694300   31.617900
  H    -10.207600   34.567100   31.705000
  C    -10.770600   35.054100   29.780800
  H    -11.561300   34.743200   29.084300
  H    -10.480100   36.160600   29.700900
  H     -9.904730   34.439500   29.610900
  S    -14.854000   33.341200   37.175400
  C    -16.448400   32.795900   37.557200
  C    -17.085200   32.312600   36.413600
  C    -16.365600   32.532000   35.200700
  C    -15.048800   32.948300   35.497100
  H    -18.083400   31.861600   36.480200
  C    -17.081500   32.175000   33.896000
  H    -17.821100   31.382700   34.003900
  H    -16.285100   31.700600   33.276300
  C    -17.584900   33.405200   33.150100
  H    -18.143800   33.068400   32.295700
  H    -16.830400   34.053100   32.668600
  C    -18.393400   34.323200   34.172900
  H    -19.053000   33.677200   34.716700
  H    -19.149200   35.091400   33.847500
  H    -17.766300   34.757200   34.960400
  H    -10.511500   32.604300   33.466000
  H    -16.960700   32.672600   38.523400

 Total Charge           Charge          ....    0
 Multiplicity           Mult            ....    1
 Number of Electrons    NEL             ....  134
 Basis Dimension        Dim             ....  322

ORBITAL ENERGIES
----------------

  NO   OCC          E(Eh)            E(eV)
   0   2.0000     -88.970826     -2421.0193
   1   2.0000     -88.969058     -2420.9711
   2   2.0000     -10.331727      -281.1406
   3   2.0000     -10.330215      -281.0994
   4   2.0000     -10.315544      -280.7002
   5   2.0000     -10.310660      -280.5673
   6   2.0000     -10.306289      -280.4484
   7   2.0000     -10.301086      -280.3068
   8   2.0000     -10.299280      -280.2577
   9   2.0000     -10.297245      -280.2023
  10   2.0000     -10.297006      -280.1958
  11   2.0000     -10.295599      -280.1575
  12   2.0000     -10.292461      -280.0721
  13   2.0000     -10.283310      -279.8231
  14   2.0000     -10.278255      -279.6855
  15   2.0000     -10.278205      -279.6842
  16   2.0000      -8.085673      -220.0223
  17   2.0000      -8.084098      -219.9795
  18   2.0000      -6.044093      -164.4681
  19   2.0000      -6.042616      -164.4279
  20   2.0000      -6.040000      -164.3567
  21   2.0000      -6.038476      -164.3153
  22   2.0000      -6.036703      -164.2670
  23   2.0000      -6.034928      -164.2187
  24   2.0000      -1.007518       -27.4160
  25   2.0000      -0.985298       -26.8113
  26   2.0000      -0.913246       -24.8507
  27   2.0000      -0.909844       -24.7581
  28   2.0000      -0.868363       -23.6293
  29   2.0000      -0.853355       -23.2210
  30   2.0000      -0.841550       -22.8997
  31   2.0000      -0.808491       -22.0002
  32   2.0000      -0.782146       -21.2833
  33   2.0000      -0.767891       -20.8954
  34   2.0000      -0.712586       -19.3905
  35   2.0000      -0.693922       -18.8826
  36   2.0000      -0.689875       -18.7725
  37   2.0000      -0.663639       -18.0585
  38   2.0000      -0.638307       -17.3692
  39   2.0000      -0.615052       -16.7364
  40   2.0000      -0.591213       -16.0877
  41   2.0000      -0.569472       -15.4961
  42   2.0000      -0.561507       -15.2794
  43   2.0000      -0.548460       -14.9244
  44   2.0000      -0.547543       -14.8994
  45   2.0000      -0.527660       -14.3584
  46   2.0000      -0.514213       -13.9925
  47   2.0000      -0.506091       -13.7714
  48   2.0000      -0.504723       -13.7342
  49   2.0000      -0.500144       -13.6096
  50   2.0000      -0.485450       -13.2098
  51   2.0000      -0.478546       -13.0219
  52   2.0000      -0.470564       -12.8047
  53   2.0000      -0.463536       -12.6135
  54   2.0000      -0.461829       -12.5670
  55   2.0000      -0.446429       -12.1479
  56   2.0000      -0.438365       -11.9285
  57   2.0000      -0.437848       -11.9145
  58   2.0000      -0.433952       -11.8084
  59   2.0000      -0.423416       -11.5217
  60   2.0000      -0.422672       -11.5015
  61   2.0000      -0.414592       -11.2816
  62   2.0000      -0.412498       -11.2246
  63   2.0000      -0.351011        -9.5515
  64   2.0000      -0.331990        -9.0339
  65   2.0000      -0.331738        -9.0270
  66   2.0000      -0.279551        -7.6070
  67   0.0000       0.022550         0.6136
  68   0.0000       0.074931         2.0390
  69   0.0000       0.115825         3.1518
  70   0.0000       0.121787         3.3140
  71   0.0000       0.127380         3.4662

MULLIKEN ATOMIC CHARGES
-----------------------
   0 S :    0.134798
   1 C :   -0.119530
   2 C :   -0.066767
   3 C :    0.027680
   4 C :   -0.152520
   5 H :   -0.013227
   6 C :    0.051267
   7 H :    0.029902
   8 H :    0.033400
   9 C :   -0.102569
  10 H :    0.030831
  11 H :    0.027452
  12 C :   -0.045559
  13 H :    0.032714
  14 H :    0.047918
  15 H :    0.024849
  16 S :    0.120347
  17 C :   -0.093639
  18 C :   -0.065342
  19 C :   -0.051337
  20 C :   -0.163868
  21 H :    0.026450
  22 C :    0.058410
  23 H :    0.035433
  24 H :    0.033413
  25 C :   -0.056880
  26 H :    0.028158
  27 H :    0.046345
  28 C :   -0.074219
  29 H :    0.004528
  30 H :    0.040126
  31 H :    0.058048
  32 H :    0.050695
  33 H :    0.062694
Sum of atomic charges:    0.0000000

LOEWDIN ATOMIC CHARGES
----------------------
   0 S :    0.434685
   1 C :   -0.218313
   2 C :   -0.063992
   3 C :   -0.064948
   4 C :   -0.198953
   5 H :    0.028848
   6 C :   -0.033057
   7 H :    0.033295
   8 H :    0.033148
   9 C :   -0.046598
  10 H :    0.021426
  11 H :    0.025967
  12 C :   -0.069926
  13 H :    0.023210
  14 H :    0.037498
  15 H :    0.020698
  16 S :    0.427260
  17 C :   -0.211167
  18 C :   -0.071959
  19 C :   -0.054227
  20 C :   -0.204490
  21 H :    0.031720
  22 C :   -0.031797
  23 H :    0.034018
  24 H :    0.037079
  25 C :   -0.036305
  26 H :    0.023929
  27 H :    0.024203
  28 C :   -0.078583
  29 H :    0.016518
  30 H :    0.030999
  31 H :    0.032727
  32 H :    0.029012
  33 H :    0.038076

  Mayer bond orders larger than 0.100000
B(  0-S ,  1-C ) :   1.1643 B(  0-S ,  4-C ) :   1.1695 B(  1-C ,  2-C ) :   1.5593
B(  1-C ,  4-C ) :   0.1049 B(  1-C , 32-H ) :   0.9652 B(  2-C ,  3-C ) :   1.2895
B(  2-C ,  6-C ) :   1.0218 B(  3-C ,  4-C ) :   1.5066 B(  3-C ,  5-H ) :   0.9933
B(  4-C , 20-C ) :   1.0814 B(  6-C ,  7-H ) :   0.9422 B(  6-C ,  8-H ) :   0.9432
B(  6-C ,  9-C ) :   1.0594 B(  9-C , 10-H ) :   0.9637 B(  9-C , 11-H ) :   0.9620
B(  9-C , 12-C ) :   1.0709 B( 12-C , 13-H ) :   0.9730 B( 12-C , 14-H ) :   0.9760
B( 12-C , 15-H ) :   0.9801 B( 16-S , 17-C ) :   1.1483 B( 16-S , 20-C ) :   1.1592
B( 17-C , 18-C ) :   1.5996 B( 17-C , 20-C ) :   0.1006 B( 17-C , 33-H ) :   0.9642
B( 18-C , 19-C ) :   1.2689 B( 18-C , 21-H ) :   0.9814 B( 19-C , 20-C ) :   1.5360
B( 19-C , 22-C ) :   1.0360 B( 22-C , 23-H ) :   0.9426 B( 22-C , 24-H ) :   0.9272
B( 22-C , 25-C ) :   1.0703 B( 25-C , 26-H ) :   0.9558 B( 25-C , 27-H ) :   0.9529
B( 25-C , 28-C ) :   1.0543 B( 28-C , 29-H ) :   0.9743 B( 28-C , 30-H ) :   0.9765
B( 28-C , 31-H ) :   0.9687

Dispersion correction           -0.014608147
FINAL SINGLE POINT ENERGY     -1339.873715530280

DIPOLE MOMENT
-------------
                                X             Y             Z
Electronic contribution:      5.61825      -7.93337      25.23928
Nuclear contribution   :     -5.89728       7.83099     -25.72821
                        -----------------------------------------
Total Dipole Moment    :     -0.27904      -0.10238      -0.48894
                        -----------------------------------------
Magnitude (a.u.)       :      0.57219
Magnitude (Debye)      :      1.45439

Rotational constants in cm-1:     0.021687     0.007949     0.006273
Rotational constants in MHz :   650.171705   238.293118   188.058934

                             ****ORCA TERMINATED NORMALLY****
TOTAL RUN TIME: 0 days 0 hours 0 minutes 34 seconds 446 msec
