                         Program Version 4.2.1 -  RELEASE  -
|  1> ! wB97X-D3 SP def2-SVP
|  2> %pal
|  3> nprocs 16
|  4> end
|  5>
|  6> * xyz 0 1
|  7> S 	 17.3705 	 -6.43111 	 82.7142
|  8> C 	 15.9008 	 -5.44633 	 82.6896
|  9> C 	 15.1814 	 -5.67564 	 81.5015
| 10> C 	 15.8476 	 -6.57701 	 80.6574
| 11> C 	 17.0754 	 -6.9988 	 81.1075
| 12> H 	 15.4881 	 -6.85335 	 79.6047
| 13> C 	 13.7986 	 -5.05082 	 81.2637
| 14> H 	 13.5316 	 -5.124 	 80.1712
| 15> H 	 13.8691 	 -4.02714 	 81.523
| 16> C 	 12.6752 	 -5.5123 	 82.1506
| 17> H 	 12.5523 	 -6.61733 	 82.0674
| 18> H 	 12.8643 	 -5.29271 	 83.2159
| 19> C 	 11.3316 	 -4.696 	 81.9576
| 20> H 	 10.7116 	 -5.07052 	 82.7619
| 21> H 	 11.4696 	 -3.63375 	 82.2045
| 22> H 	 10.9573 	 -4.86295 	 80.9308
| 23> S 	 18.388 	 -9.42887 	 81.4896
| 24> C 	 19.0953 	 -10.127 	 80.1359
| 25> C 	 18.9784 	 -9.38944 	 78.9833
| 26> C 	 18.2194 	 -8.22803 	 79.1561
| 27> C 	 17.827 	 -8.07624 	 80.5012
| 28> H 	 19.3013 	 -9.74309 	 78.032
| 29> C 	 17.9634 	 -7.25583 	 78.0326
| 30> H 	 17.5362 	 -6.37675 	 78.3663
| 31> H 	 17.2359 	 -7.75688 	 77.384
| 32> C 	 19.2936 	 -6.88637 	 77.336
| 33> H 	 19.8382 	 -7.75944 	 77.0607
| 34> H 	 20.0175 	 -6.4334 	 78.0434
| 35> C 	 19.0848 	 -5.96143 	 76.1632
| 36> H 	 18.5605 	 -4.9978 	 76.5596
| 37> H 	 18.4778 	 -6.56892 	 75.4285
| 38> H 	 20.0532 	 -5.72815 	 75.6892
| 39> H 	 15.5297 	 -4.90026 	 83.5224
| 40> H 	 19.4689 	 -11.0955 	 80.0131
| 41> *
| 42>
| 43>                          ****END OF INPUT****

CARTESIAN COORDINATES (ANGSTROEM)
---------------------------------
  S     17.370500   -6.431110   82.714200
  C     15.900800   -5.446330   82.689600
  C     15.181400   -5.675640   81.501500
  C     15.847600   -6.577010   80.657400
  C     17.075400   -6.998800   81.107500
  H     15.488100   -6.853350   79.604700
  C     13.798600   -5.050820   81.263700
  H     13.531600   -5.124000   80.171200
  H     13.869100   -4.027140   81.523000
  C     12.675200   -5.512300   82.150600
  H     12.552300   -6.617330   82.067400
  H     12.864300   -5.292710   83.215900
  C     11.331600   -4.696000   81.957600
  H     10.711600   -5.070520   82.761900
  H     11.469600   -3.633750   82.204500
  H     10.957300   -4.862950   80.930800
  S     18.388000   -9.428870   81.489600
  C     19.095300  -10.127000   80.135900
  C     18.978400   -9.389440   78.983300
  C     18.219400   -8.228030   79.156100
  C     17.827000   -8.076240   80.501200
  H     19.301300   -9.743090   78.032000
  C     17.963400   -7.255830   78.032600
  H     17.536200   -6.376750   78.366300
  H     17.235900   -7.756880   77.384000
  C     19.293600   -6.886370   77.336000
  H     19.838200   -7.759440   77.060700
  H     20.017500   -6.433400   78.043400
  C     19.084800   -5.961430   76.163200
  H     18.560500   -4.997800   76.559600
  H     18.477800   -6.568920   75.428500
  H     20.053200   -5.728150   75.689200
  H     15.529700   -4.900260   83.522400
  H     19.468900  -11.095500   80.013100

 Total Charge           Charge          ....    0
 Multiplicity           Mult            ....    1
 Number of Electrons    NEL             ....  134
 Basis Dimension        Dim             ....  322

ORBITAL ENERGIES
----------------

  NO   OCC          E(Eh)            E(eV)
   0   2.0000     -88.968767     -2420.9632
   1   2.0000     -88.968018     -2420.9428
   2   2.0000     -10.324383      -280.9407
   3   2.0000     -10.323838      -280.9259
   4   2.0000     -10.313200      -280.6365
   5   2.0000     -10.305561      -280.4286
   6   2.0000     -10.302043      -280.3328
   7   2.0000     -10.297922      -280.2207
   8   2.0000     -10.294545      -280.1288
   9   2.0000     -10.291575      -280.0480
  10   2.0000     -10.290320      -280.0138
  11   2.0000     -10.289117      -279.9811
  12   2.0000     -10.286590      -279.9123
  13   2.0000     -10.285065      -279.8708
  14   2.0000     -10.284044      -279.8431
  15   2.0000     -10.282068      -279.7893
  16   2.0000      -8.084290      -219.9847
  17   2.0000      -8.082539      -219.9371
  18   2.0000      -6.042633      -164.4284
  19   2.0000      -6.040982      -164.3835
  20   2.0000      -6.038702      -164.3214
  21   2.0000      -6.037020      -164.2757
  22   2.0000      -6.035177      -164.2255
  23   2.0000      -6.033458      -164.1787
  24   2.0000      -1.010903       -27.5081
  25   2.0000      -0.987885       -26.8817
  26   2.0000      -0.915340       -24.9077
  27   2.0000      -0.911474       -24.8025
  28   2.0000      -0.867967       -23.6186
  29   2.0000      -0.856817       -23.3152
  30   2.0000      -0.845650       -23.0113
  31   2.0000      -0.812122       -22.0990
  32   2.0000      -0.784851       -21.3569
  33   2.0000      -0.769360       -20.9353
  34   2.0000      -0.703451       -19.1419
  35   2.0000      -0.699179       -19.0256
  36   2.0000      -0.693518       -18.8716
  37   2.0000      -0.656283       -17.8584
  38   2.0000      -0.639532       -17.4025
  39   2.0000      -0.618616       -16.8334
  40   2.0000      -0.602448       -16.3934
  41   2.0000      -0.571108       -15.5406
  42   2.0000      -0.565298       -15.3825
  43   2.0000      -0.561721       -15.2852
  44   2.0000      -0.527137       -14.3441
  45   2.0000      -0.522104       -14.2072
  46   2.0000      -0.518893       -14.1198
  47   2.0000      -0.516252       -14.0479
  48   2.0000      -0.502054       -13.6616
  49   2.0000      -0.499428       -13.5901
  50   2.0000      -0.494572       -13.4580
  51   2.0000      -0.474412       -12.9094
  52   2.0000      -0.471488       -12.8299
  53   2.0000      -0.464244       -12.6327
  54   2.0000      -0.458859       -12.4862
  55   2.0000      -0.457692       -12.4544
  56   2.0000      -0.443143       -12.0585
  57   2.0000      -0.438298       -11.9267
  58   2.0000      -0.434558       -11.8249
  59   2.0000      -0.428323       -11.6553
  60   2.0000      -0.423526       -11.5247
  61   2.0000      -0.413093       -11.2408
  62   2.0000      -0.408411       -11.1134
  63   2.0000      -0.349245        -9.5034
  64   2.0000      -0.334976        -9.1152
  65   2.0000      -0.332606        -9.0507
  66   2.0000      -0.281897        -7.6708
  67   0.0000       0.028765         0.7827
  68   0.0000       0.071919         1.9570
  69   0.0000       0.112308         3.0560
  70   0.0000       0.126307         3.4370
  71   0.0000       0.137360         3.7377

MULLIKEN ATOMIC CHARGES
-----------------------
   0 S :    0.106587
   1 C :   -0.126388
   2 C :   -0.069039
   3 C :   -0.013077
   4 C :   -0.148739
   5 H :    0.037979
   6 C :    0.100261
   7 H :    0.029077
   8 H :    0.009711
   9 C :   -0.126279
  10 H :    0.041013
  11 H :    0.024769
  12 C :   -0.055921
  13 H :    0.038618
  14 H :    0.035247
  15 H :    0.046909
  16 S :    0.133546
  17 C :   -0.049355
  18 C :   -0.051188
  19 C :   -0.050471
  20 C :   -0.163047
  21 H :    0.003974
  22 C :    0.128456
  23 H :   -0.001164
  24 H :    0.034710
  25 C :   -0.109193
  26 H :    0.014171
  27 H :    0.034858
  28 C :   -0.057586
  29 H :    0.052299
  30 H :    0.036573
  31 H :    0.041535
  32 H :    0.039952
  33 H :    0.031204
Sum of atomic charges:    0.0000000

LOEWDIN ATOMIC CHARGES
----------------------
   0 S :    0.411105
   1 C :   -0.192403
   2 C :   -0.059620
   3 C :   -0.076191
   4 C :   -0.203517
   5 H :    0.042719
   6 C :   -0.036348
   7 H :    0.033605
   8 H :    0.027333
   9 C :   -0.044829
  10 H :    0.025660
  11 H :    0.023003
  12 C :   -0.064144
  13 H :    0.028643
  14 H :    0.026243
  15 H :    0.026498
  16 S :    0.433369
  17 C :   -0.200184
  18 C :   -0.070905
  19 C :   -0.049207
  20 C :   -0.198878
  21 H :    0.024733
  22 C :   -0.021596
  23 H :    0.016786
  24 H :    0.034961
  25 C :   -0.045191
  26 H :    0.014292
  27 H :    0.029787
  28 C :   -0.072282
  29 H :    0.037666
  30 H :    0.029617
  31 H :    0.027547
  32 H :    0.020252
  33 H :    0.021476

  Mayer bond orders larger than 0.100000
B(  0-S ,  1-C ) :   1.1437 B(  0-S ,  4-C ) :   1.1614 B(  1-C ,  2-C ) :   1.5643
B(  1-C ,  4-C ) :   0.1018 B(  1-C , 32-H ) :   0.9758 B(  2-C ,  3-C ) :   1.2974
B(  2-C ,  6-C ) :   1.0184 B(  3-C ,  4-C ) :   1.5325 B(  3-C ,  5-H ) :   0.9772
B(  4-C , 20-C ) :   1.0617 B(  6-C ,  7-H ) :   0.9447 B(  6-C ,  8-H ) :   0.9284
B(  6-C ,  9-C ) :   1.0699 B(  9-C , 10-H ) :   0.9579 B(  9-C , 11-H ) :   0.9559
B(  9-C , 12-C ) :   1.0700 B( 12-C , 13-H ) :   0.9768 B( 12-C , 14-H ) :   0.9739
B( 12-C , 15-H ) :   0.9776 B( 16-S , 17-C ) :   1.1734 B( 16-S , 20-C ) :   1.1430
B( 17-C , 18-C ) :   1.5880 B( 17-C , 33-H ) :   0.9645 B( 18-C , 19-C ) :   1.2819
B( 18-C , 21-H ) :   0.9892 B( 19-C , 20-C ) :   1.5629 B( 19-C , 22-C ) :   1.0437
B( 22-C , 23-H ) :   0.9238 B( 22-C , 24-H ) :   0.9271 B( 22-C , 25-C ) :   1.0577
B( 25-C , 26-H ) :   0.9525 B( 25-C , 27-H ) :   0.9525 B( 25-C , 28-C ) :   1.0896
B( 28-C , 29-H ) :   0.9712 B( 28-C , 30-H ) :   0.9731 B( 28-C , 31-H ) :   0.9718

Dispersion correction           -0.013376646
FINAL SINGLE POINT ENERGY     -1339.876352549373

DIPOLE MOMENT
-------------
                                X             Y             Z
Electronic contribution:     15.00476     -13.72906      16.53368
Nuclear contribution   :    -15.35168      13.80430     -16.95971
                        -----------------------------------------
Total Dipole Moment    :     -0.34691       0.07523      -0.42603
                        -----------------------------------------
Magnitude (a.u.)       :      0.55453
Magnitude (Debye)      :      1.40951

Rotational constants in cm-1:     0.019106     0.007463     0.006100
Rotational constants in MHz :   572.778219   223.743621   182.868231

                             ****ORCA TERMINATED NORMALLY****
TOTAL RUN TIME: 0 days 0 hours 0 minutes 29 seconds 562 msec
