                         Program Version 4.2.1 -  RELEASE  -
|  1> ! wB97X-D3 SP def2-SVP
|  2> %pal
|  3> nprocs 16
|  4> end
|  5>
|  6> * xyz 0 1
|  7> S 	 -85.4979 	 54.9828 	 136.298
|  8> C 	 -86.0333 	 55.4949 	 137.814
|  9> C 	 -85.0156 	 55.3458 	 138.773
| 10> C 	 -83.7724 	 54.8458 	 138.247
| 11> C 	 -83.9028 	 54.5274 	 136.917
| 12> H 	 -82.8944 	 54.7218 	 138.824
| 13> C 	 -85.0213 	 55.7243 	 140.262
| 14> H 	 -85.333 	 56.7079 	 140.388
| 15> H 	 -84.0719 	 55.7741 	 140.796
| 16> C 	 -85.9925 	 54.8008 	 140.929
| 17> H 	 -87.0329 	 54.8431 	 140.422
| 18> H 	 -85.5517 	 53.8 	 140.804
| 19> C 	 -86.1008 	 55.1864 	 142.384
| 20> H 	 -85.1265 	 55.1469 	 142.839
| 21> H 	 -86.4706 	 56.2102 	 142.57
| 22> H 	 -86.6642 	 54.5046 	 142.97
| 23> S 	 -82.771 	 54.9735 	 134.377
| 24> C 	 -81.3896 	 54.0063 	 133.907
| 25> C 	 -80.9737 	 53.2174 	 134.987
| 26> C 	 -81.7413 	 53.36 	 136.147
| 27> C 	 -82.8246 	 54.1716 	 135.923
| 28> H 	 -80.0793 	 52.5774 	 134.857
| 29> C 	 -81.5083 	 52.5009 	 137.321
| 30> H 	 -82.1913 	 51.6329 	 137.173
| 31> H 	 -81.8388 	 52.9877 	 138.252
| 32> C 	 -80.1252 	 52.0778 	 137.632
| 33> H 	 -79.7278 	 51.3233 	 136.946
| 34> H 	 -80.2345 	 51.5127 	 138.484
| 35> C 	 -78.9845 	 53.0549 	 137.706
| 36> H 	 -78.0909 	 52.5298 	 138.043
| 37> H 	 -79.2294 	 53.7713 	 138.431
| 38> H 	 -78.8105 	 53.6609 	 136.796
| 39> H 	 -87.0234 	 55.8758 	 137.952
| 40> H 	 -80.9927 	 54.0459 	 132.92
| 41> *
| 42>
| 43>                          ****END OF INPUT****

CARTESIAN COORDINATES (ANGSTROEM)
---------------------------------
  S    -85.497900   54.982800  136.298000
  C    -86.033300   55.494900  137.814000
  C    -85.015600   55.345800  138.773000
  C    -83.772400   54.845800  138.247000
  C    -83.902800   54.527400  136.917000
  H    -82.894400   54.721800  138.824000
  C    -85.021300   55.724300  140.262000
  H    -85.333000   56.707900  140.388000
  H    -84.071900   55.774100  140.796000
  C    -85.992500   54.800800  140.929000
  H    -87.032900   54.843100  140.422000
  H    -85.551700   53.800000  140.804000
  C    -86.100800   55.186400  142.384000
  H    -85.126500   55.146900  142.839000
  H    -86.470600   56.210200  142.570000
  H    -86.664200   54.504600  142.970000
  S    -82.771000   54.973500  134.377000
  C    -81.389600   54.006300  133.907000
  C    -80.973700   53.217400  134.987000
  C    -81.741300   53.360000  136.147000
  C    -82.824600   54.171600  135.923000
  H    -80.079300   52.577400  134.857000
  C    -81.508300   52.500900  137.321000
  H    -82.191300   51.632900  137.173000
  H    -81.838800   52.987700  138.252000
  C    -80.125200   52.077800  137.632000
  H    -79.727800   51.323300  136.946000
  H    -80.234500   51.512700  138.484000
  C    -78.984500   53.054900  137.706000
  H    -78.090900   52.529800  138.043000
  H    -79.229400   53.771300  138.431000
  H    -78.810500   53.660900  136.796000
  H    -87.023400   55.875800  137.952000
  H    -80.992700   54.045900  132.920000

 Total Charge           Charge          ....    0
 Multiplicity           Mult            ....    1
 Number of Electrons    NEL             ....  134
 Basis Dimension        Dim             ....  322

ORBITAL ENERGIES
----------------

  NO   OCC          E(Eh)            E(eV)
   0   2.0000     -88.965522     -2420.8749
   1   2.0000     -88.965465     -2420.8734
   2   2.0000     -10.330950      -281.1194
   3   2.0000     -10.324043      -280.9315
   4   2.0000     -10.314386      -280.6687
   5   2.0000     -10.312154      -280.6080
   6   2.0000     -10.303172      -280.3636
   7   2.0000     -10.293259      -280.0938
   8   2.0000     -10.292651      -280.0773
   9   2.0000     -10.291550      -280.0473
  10   2.0000     -10.288908      -279.9754
  11   2.0000     -10.287608      -279.9401
  12   2.0000     -10.281865      -279.7838
  13   2.0000     -10.274700      -279.5888
  14   2.0000     -10.273266      -279.5498
  15   2.0000     -10.271358      -279.4979
  16   2.0000      -8.080983      -219.8947
  17   2.0000      -8.080237      -219.8744
  18   2.0000      -6.039361      -164.3394
  19   2.0000      -6.038676      -164.3207
  20   2.0000      -6.035271      -164.2281
  21   2.0000      -6.034730      -164.2134
  22   2.0000      -6.031977      -164.1384
  23   2.0000      -6.031094      -164.1144
  24   2.0000      -1.007720       -27.4215
  25   2.0000      -0.987769       -26.8786
  26   2.0000      -0.923172       -25.1208
  27   2.0000      -0.918590       -24.9961
  28   2.0000      -0.865635       -23.5551
  29   2.0000      -0.855617       -23.2825
  30   2.0000      -0.850013       -23.1300
  31   2.0000      -0.812592       -22.1118
  32   2.0000      -0.790336       -21.5061
  33   2.0000      -0.770948       -20.9786
  34   2.0000      -0.705692       -19.2029
  35   2.0000      -0.700014       -19.0484
  36   2.0000      -0.690646       -18.7934
  37   2.0000      -0.662033       -18.0148
  38   2.0000      -0.646390       -17.5892
  39   2.0000      -0.624456       -16.9923
  40   2.0000      -0.604669       -16.4539
  41   2.0000      -0.572318       -15.5736
  42   2.0000      -0.563873       -15.3438
  43   2.0000      -0.559044       -15.2124
  44   2.0000      -0.537841       -14.6354
  45   2.0000      -0.526557       -14.3283
  46   2.0000      -0.522472       -14.2172
  47   2.0000      -0.514125       -13.9900
  48   2.0000      -0.506463       -13.7816
  49   2.0000      -0.499130       -13.5820
  50   2.0000      -0.490135       -13.3373
  51   2.0000      -0.485688       -13.2163
  52   2.0000      -0.482596       -13.1321
  53   2.0000      -0.463386       -12.6094
  54   2.0000      -0.460661       -12.5352
  55   2.0000      -0.444981       -12.1085
  56   2.0000      -0.443530       -12.0691
  57   2.0000      -0.441467       -12.0129
  58   2.0000      -0.436811       -11.8862
  59   2.0000      -0.423936       -11.5359
  60   2.0000      -0.419779       -11.4228
  61   2.0000      -0.412870       -11.2348
  62   2.0000      -0.404737       -11.0135
  63   2.0000      -0.353863        -9.6291
  64   2.0000      -0.332345        -9.0436
  65   2.0000      -0.326031        -8.8718
  66   2.0000      -0.284206        -7.7336
  67   0.0000       0.027939         0.7603
  68   0.0000       0.077505         2.1090
  69   0.0000       0.110417         3.0046
  70   0.0000       0.126196         3.4340
  71   0.0000       0.134304         3.6546

MULLIKEN ATOMIC CHARGES
-----------------------
   0 S :    0.107769
   1 C :   -0.116408
   2 C :   -0.089720
   3 C :    0.030412
   4 C :   -0.144194
   5 H :    0.008249
   6 C :    0.092396
   7 H :    0.001990
   8 H :    0.014389
   9 C :   -0.119682
  10 H :    0.047286
  11 H :    0.032731
  12 C :   -0.002509
  13 H :    0.009159
  14 H :    0.029462
  15 H :    0.021341
  16 S :    0.111334
  17 C :   -0.102929
  18 C :   -0.045711
  19 C :   -0.043519
  20 C :   -0.127160
  21 H :    0.030330
  22 C :    0.074951
  23 H :    0.055549
  24 H :    0.007642
  25 C :   -0.058523
  26 H :    0.011326
  27 H :    0.001715
  28 C :   -0.018185
  29 H :    0.036847
  30 H :    0.004553
  31 H :    0.042391
  32 H :    0.046986
  33 H :    0.049734
Sum of atomic charges:    0.0000000

LOEWDIN ATOMIC CHARGES
----------------------
   0 S :    0.425668
   1 C :   -0.218695
   2 C :   -0.050936
   3 C :   -0.060380
   4 C :   -0.179631
   5 H :    0.025157
   6 C :   -0.031911
   7 H :    0.018334
   8 H :    0.029319
   9 C :   -0.043344
  10 H :    0.032768
  11 H :    0.027500
  12 C :   -0.067553
  13 H :    0.021696
  14 H :    0.027642
  15 H :    0.019338
  16 S :    0.409050
  17 C :   -0.185987
  18 C :   -0.069355
  19 C :   -0.072221
  20 C :   -0.198702
  21 H :    0.036264
  22 C :   -0.033080
  23 H :    0.050437
  24 H :    0.029999
  25 C :   -0.047794
  26 H :    0.020986
  27 H :    0.019258
  28 C :   -0.059088
  29 H :    0.032062
  30 H :    0.014190
  31 H :    0.031542
  32 H :    0.024899
  33 H :    0.022567

  Mayer bond orders larger than 0.100000
B(  0-S ,  1-C ) :   1.1562 B(  0-S ,  4-C ) :   1.1704 B(  1-C ,  2-C ) :   1.5709
B(  1-C , 32-H ) :   0.9757 B(  2-C ,  3-C ) :   1.2737 B(  2-C ,  6-C ) :   1.0097
B(  3-C ,  4-C ) :   1.5437 B(  3-C ,  5-H ) :   0.9934 B(  4-C , 20-C ) :   1.0178
B(  6-C ,  7-H ) :   0.9344 B(  6-C ,  8-H ) :   0.9496 B(  6-C ,  9-C ) :   1.0525
B(  9-C , 10-H ) :   0.9578 B(  9-C , 11-H ) :   0.9535 B(  9-C , 12-C ) :   1.0883
B( 12-C , 13-H ) :   0.9656 B( 12-C , 14-H ) :   0.9718 B( 12-C , 15-H ) :   0.9706
B( 16-S , 17-C ) :   1.1578 B( 16-S , 20-C ) :   1.1569 B( 17-C , 18-C ) :   1.5730
B( 17-C , 20-C ) :   0.1033 B( 17-C , 33-H ) :   0.9757 B( 18-C , 19-C ) :   1.2630
B( 18-C , 21-H ) :   0.9850 B( 19-C , 20-C ) :   1.5820 B( 19-C , 22-C ) :   1.0512
B( 22-C , 23-H ) :   0.9205 B( 22-C , 24-H ) :   0.9251 B( 22-C , 25-C ) :   1.0926
B( 25-C , 26-H ) :   0.9375 B( 25-C , 27-H ) :   0.9435 B( 25-C , 28-C ) :   1.0862
B( 28-C , 29-H ) :   0.9697 B( 28-C , 30-H ) :   0.9715 B( 28-C , 31-H ) :   0.9681

Dispersion correction           -0.013881688
FINAL SINGLE POINT ENERGY     -1339.869932597418

DIPOLE MOMENT
-------------
                                X             Y             Z
Electronic contribution:     -8.07401       6.30142     -26.95590
Nuclear contribution   :      8.36755      -6.46502      27.55307
                        -----------------------------------------
Total Dipole Moment    :      0.29354      -0.16360       0.59717
                        -----------------------------------------
Magnitude (a.u.)       :      0.68523
Magnitude (Debye)      :      1.74172

Rotational constants in cm-1:     0.020057     0.008188     0.006108
Rotational constants in MHz :   601.284548   245.468188   183.105322

                             ****ORCA TERMINATED NORMALLY****
TOTAL RUN TIME: 0 days 0 hours 0 minutes 32 seconds 282 msec
