                         Program Version 4.2.1 -  RELEASE  -
|  1> ! wB97X-D3 SP def2-SVP
|  2> %pal
|  3> nprocs 16
|  4> end
|  5>
|  6> * xyz 0 1
|  7> S 	 -17.8374 	 37.0313 	 57.1179
|  8> C 	 -17.0432 	 36.82 	 55.6092
|  9> C 	 -17.8674 	 37.1129 	 54.5563
| 10> C 	 -19.2571 	 37.2893 	 54.9659
| 11> C 	 -19.396 	 37.2625 	 56.3515
| 12> H 	 -20.0724 	 37.5698 	 54.3535
| 13> C 	 -17.4692 	 37.1538 	 53.1286
| 14> H 	 -17.8836 	 36.2586 	 52.6457
| 15> H 	 -16.3499 	 37.1002 	 53.1021
| 16> C 	 -18.0884 	 38.2908 	 52.304
| 17> H 	 -18.0416 	 37.9798 	 51.2512
| 18> H 	 -19.1649 	 38.3279 	 52.5517
| 19> C 	 -17.4674 	 39.7072 	 52.427
| 20> H 	 -18.1771 	 40.4574 	 51.9876
| 21> H 	 -17.5816 	 40.069 	 53.4702
| 22> H 	 -16.451 	 39.7762 	 52.0121
| 23> S 	 -20.2849 	 38.2864 	 58.7167
| 24> C 	 -21.9954 	 38.3145 	 59.0645
| 25> C 	 -22.783 	 37.8025 	 58.0478
| 26> C 	 -21.9634 	 37.376 	 56.9779
| 27> C 	 -20.6026 	 37.5636 	 57.1719
| 28> H 	 -23.8832 	 37.9572 	 58.1915
| 29> C 	 -22.4401 	 36.6182 	 55.7415
| 30> H 	 -21.6746 	 35.867 	 55.5171
| 31> H 	 -22.3279 	 37.3758 	 54.9098
| 32> C 	 -23.8277 	 36.0907 	 55.6107
| 33> H 	 -24.4528 	 36.9037 	 55.7791
| 34> H 	 -23.9448 	 35.3229 	 56.3471
| 35> C 	 -24.0801 	 35.5206 	 54.222
| 36> H 	 -23.5559 	 34.5426 	 54.1487
| 37> H 	 -23.7738 	 36.0651 	 53.3794
| 38> H 	 -25.126 	 35.2688 	 54.0438
| 39> H 	 -15.9322 	 36.57 	 55.5501
| 40> H 	 -22.4716 	 38.7846 	 59.874
| 41> *
| 42>
| 43>                          ****END OF INPUT****

CARTESIAN COORDINATES (ANGSTROEM)
---------------------------------
  S    -17.837400   37.031300   57.117900
  C    -17.043200   36.820000   55.609200
  C    -17.867400   37.112900   54.556300
  C    -19.257100   37.289300   54.965900
  C    -19.396000   37.262500   56.351500
  H    -20.072400   37.569800   54.353500
  C    -17.469200   37.153800   53.128600
  H    -17.883600   36.258600   52.645700
  H    -16.349900   37.100200   53.102100
  C    -18.088400   38.290800   52.304000
  H    -18.041600   37.979800   51.251200
  H    -19.164900   38.327900   52.551700
  C    -17.467400   39.707200   52.427000
  H    -18.177100   40.457400   51.987600
  H    -17.581600   40.069000   53.470200
  H    -16.451000   39.776200   52.012100
  S    -20.284900   38.286400   58.716700
  C    -21.995400   38.314500   59.064500
  C    -22.783000   37.802500   58.047800
  C    -21.963400   37.376000   56.977900
  C    -20.602600   37.563600   57.171900
  H    -23.883200   37.957200   58.191500
  C    -22.440100   36.618200   55.741500
  H    -21.674600   35.867000   55.517100
  H    -22.327900   37.375800   54.909800
  C    -23.827700   36.090700   55.610700
  H    -24.452800   36.903700   55.779100
  H    -23.944800   35.322900   56.347100
  C    -24.080100   35.520600   54.222000
  H    -23.555900   34.542600   54.148700
  H    -23.773800   36.065100   53.379400
  H    -25.126000   35.268800   54.043800
  H    -15.932200   36.570000   55.550100
  H    -22.471600   38.784600   59.874000

 Total Charge           Charge          ....    0
 Multiplicity           Mult            ....    1
 Number of Electrons    NEL             ....  134
 Basis Dimension        Dim             ....  322

ORBITAL ENERGIES
----------------

  NO   OCC          E(Eh)            E(eV)
   0   2.0000     -88.967479     -2420.9282
   1   2.0000     -88.964201     -2420.8390
   2   2.0000     -10.334828      -281.2250
   3   2.0000     -10.326261      -280.9918
   4   2.0000     -10.314843      -280.6812
   5   2.0000     -10.312119      -280.6070
   6   2.0000     -10.304689      -280.4048
   7   2.0000     -10.299927      -280.2753
   8   2.0000     -10.298226      -280.2290
   9   2.0000     -10.294383      -280.1244
  10   2.0000     -10.292697      -280.0785
  11   2.0000     -10.291493      -280.0458
  12   2.0000     -10.289188      -279.9830
  13   2.0000     -10.283404      -279.8256
  14   2.0000     -10.278521      -279.6928
  15   2.0000     -10.275795      -279.6186
  16   2.0000      -8.082459      -219.9349
  17   2.0000      -8.079651      -219.8585
  18   2.0000      -6.040894      -164.3811
  19   2.0000      -6.038260      -164.3094
  20   2.0000      -6.036954      -164.2739
  21   2.0000      -6.034091      -164.1960
  22   2.0000      -6.033273      -164.1737
  23   2.0000      -6.030238      -164.0911
  24   2.0000      -1.009420       -27.4677
  25   2.0000      -0.987499       -26.8712
  26   2.0000      -0.917199       -24.9582
  27   2.0000      -0.911248       -24.7963
  28   2.0000      -0.869070       -23.6486
  29   2.0000      -0.855816       -23.2879
  30   2.0000      -0.842102       -22.9148
  31   2.0000      -0.818565       -22.2743
  32   2.0000      -0.781660       -21.2701
  33   2.0000      -0.772754       -21.0277
  34   2.0000      -0.712426       -19.3861
  35   2.0000      -0.703867       -19.1532
  36   2.0000      -0.687006       -18.6944
  37   2.0000      -0.652175       -17.7466
  38   2.0000      -0.636601       -17.3228
  39   2.0000      -0.625784       -17.0284
  40   2.0000      -0.595098       -16.1934
  41   2.0000      -0.580678       -15.8011
  42   2.0000      -0.567339       -15.4381
  43   2.0000      -0.548269       -14.9192
  44   2.0000      -0.539116       -14.6701
  45   2.0000      -0.526314       -14.3217
  46   2.0000      -0.517915       -14.0932
  47   2.0000      -0.509111       -13.8536
  48   2.0000      -0.505459       -13.7542
  49   2.0000      -0.497977       -13.5507
  50   2.0000      -0.489779       -13.3276
  51   2.0000      -0.479158       -13.0385
  52   2.0000      -0.474578       -12.9139
  53   2.0000      -0.465959       -12.6794
  54   2.0000      -0.460157       -12.5215
  55   2.0000      -0.454348       -12.3634
  56   2.0000      -0.442612       -12.0441
  57   2.0000      -0.433537       -11.7971
  58   2.0000      -0.429381       -11.6841
  59   2.0000      -0.427586       -11.6352
  60   2.0000      -0.422810       -11.5052
  61   2.0000      -0.419101       -11.4043
  62   2.0000      -0.411094       -11.1864
  63   2.0000      -0.358394        -9.7524
  64   2.0000      -0.334108        -9.0915
  65   2.0000      -0.324644        -8.8340
  66   2.0000      -0.283988        -7.7277
  67   0.0000       0.026281         0.7151
  68   0.0000       0.078430         2.1342
  69   0.0000       0.104019         2.8305
  70   0.0000       0.120636         3.2827
  71   0.0000       0.136296         3.7088

MULLIKEN ATOMIC CHARGES
-----------------------
   0 S :    0.100406
   1 C :   -0.153433
   2 C :   -0.068738
   3 C :    0.000053
   4 C :   -0.113142
   5 H :   -0.002431
   6 C :    0.074937
   7 H :    0.038938
   8 H :    0.022460
   9 C :   -0.106243
  10 H :    0.030331
  11 H :    0.026863
  12 C :   -0.056836
  13 H :    0.031851
  14 H :    0.037031
  15 H :    0.051436
  16 S :    0.105683
  17 C :   -0.069956
  18 C :   -0.081337
  19 C :   -0.008328
  20 C :   -0.135646
  21 H :    0.045288
  22 C :   -0.047878
  23 H :    0.039133
  24 H :    0.037911
  25 C :    0.019185
  26 H :    0.013524
  27 H :    0.028719
  28 C :   -0.040584
  29 H :    0.027595
  30 H :    0.016883
  31 H :    0.029415
  32 H :    0.075462
  33 H :    0.031450
Sum of atomic charges:    0.0000000

LOEWDIN ATOMIC CHARGES
----------------------
   0 S :    0.406815
   1 C :   -0.219710
   2 C :   -0.066174
   3 C :   -0.066629
   4 C :   -0.181794
   5 H :    0.021298
   6 C :   -0.037559
   7 H :    0.039099
   8 H :    0.032112
   9 C :   -0.045272
  10 H :    0.025006
  11 H :    0.025566
  12 C :   -0.076939
  13 H :    0.032859
  14 H :    0.031222
  15 H :    0.028681
  16 S :    0.414421
  17 C :   -0.178906
  18 C :   -0.081713
  19 C :   -0.059833
  20 C :   -0.201194
  21 H :    0.047030
  22 C :   -0.039615
  23 H :    0.031188
  24 H :    0.032950
  25 C :   -0.033650
  26 H :    0.016056
  27 H :    0.026308
  28 C :   -0.059994
  29 H :    0.031188
  30 H :    0.016217
  31 H :    0.027453
  32 H :    0.044970
  33 H :    0.018542

  Mayer bond orders larger than 0.100000
B(  0-S ,  1-C ) :   1.1295 B(  0-S ,  4-C ) :   1.1553 B(  1-C ,  2-C ) :   1.6222
B(  1-C , 32-H ) :   0.9574 B(  2-C ,  3-C ) :   1.2074 B(  2-C ,  6-C ) :   1.0404
B(  3-C ,  4-C ) :   1.5726 B(  3-C ,  5-H ) :   0.9951 B(  4-C , 20-C ) :   1.0498
B(  6-C ,  7-H ) :   0.9293 B(  6-C ,  8-H ) :   0.9435 B(  6-C ,  9-C ) :   1.0674
B(  9-C , 10-H ) :   0.9559 B(  9-C , 11-H ) :   0.9533 B(  9-C , 12-C ) :   1.0789
B( 12-C , 13-H ) :   0.9699 B( 12-C , 14-H ) :   0.9732 B( 12-C , 15-H ) :   0.9751
B( 16-S , 17-C ) :   1.1651 B( 16-S , 20-C ) :   1.1360 B( 17-C , 18-C ) :   1.6192
B( 17-C , 33-H ) :   0.9653 B( 18-C , 19-C ) :   1.2383 B( 18-C , 21-H ) :   0.9840
B( 19-C , 20-C ) :   1.5973 B( 19-C , 22-C ) :   1.0190 B( 22-C , 23-H ) :   0.9432
B( 22-C , 24-H ) :   0.9256 B( 22-C , 25-C ) :   1.0816 B( 25-C , 26-H ) :   0.9391
B( 25-C , 27-H ) :   0.9490 B( 25-C , 28-C ) :   1.0923 B( 28-C , 29-H ) :   0.9727
B( 28-C , 30-H ) :   0.9761 B( 28-C , 31-H ) :   0.9729

Dispersion correction           -0.013656404
FINAL SINGLE POINT ENERGY     -1339.878349843254

DIPOLE MOMENT
-------------
                                X             Y             Z
Electronic contribution:      9.73287       1.50478      26.62794
Nuclear contribution   :    -10.10159      -1.45701     -27.20248
                        -----------------------------------------
Total Dipole Moment    :     -0.36872       0.04776      -0.57454
                        -----------------------------------------
Magnitude (a.u.)       :      0.68435
Magnitude (Debye)      :      1.73948

Rotational constants in cm-1:     0.016356     0.009165     0.006775
Rotational constants in MHz :   490.349917   274.771013   203.102494

                             ****ORCA TERMINATED NORMALLY****
TOTAL RUN TIME: 0 days 0 hours 0 minutes 34 seconds 175 msec
