                         Program Version 4.2.1 -  RELEASE  -
|  1> ! wB97X-D3 SP def2-SVP
|  2> %pal
|  3> nprocs 16
|  4> end
|  5>
|  6> * xyz 0 1
|  7> S 	 -32.9063 	 68.7452 	 146.756
|  8> C 	 -33.5494 	 70.1539 	 145.924
|  9> C 	 -33.9841 	 69.9327 	 144.625
| 10> C 	 -33.6438 	 68.6006 	 144.217
| 11> C 	 -33.098 	 67.8329 	 145.252
| 12> H 	 -33.9883 	 68.2237 	 143.263
| 13> C 	 -34.4415 	 71.0195 	 143.626
| 14> H 	 -34.5869 	 70.5891 	 142.636
| 15> H 	 -33.5832 	 71.6413 	 143.555
| 16> C 	 -35.7797 	 71.7731 	 143.984
| 17> H 	 -35.7254 	 72.3165 	 144.844
| 18> H 	 -36.1127 	 72.4916 	 143.166
| 19> C 	 -37.0266 	 70.8211 	 144.246
| 20> H 	 -36.9617 	 70.5072 	 145.304
| 21> H 	 -38.0045 	 71.3842 	 144.048
| 22> H 	 -37.0751 	 69.9601 	 143.592
| 23> S 	 -31.5429 	 65.8947 	 144.048
| 24> C 	 -31.7009 	 64.1956 	 144.513
| 25> C 	 -32.7053 	 64.051 	 145.455
| 26> C 	 -33.1993 	 65.2772 	 145.952
| 27> C 	 -32.7726 	 66.403 	 145.224
| 28> H 	 -32.887 	 63.0684 	 145.916
| 29> C 	 -34.2956 	 65.3774 	 147.031
| 30> H 	 -34.2289 	 66.4222 	 147.454
| 31> H 	 -33.918 	 64.7174 	 147.732
| 32> C 	 -35.7381 	 65.0687 	 146.534
| 33> H 	 -36.3534 	 64.7827 	 147.35
| 34> H 	 -35.7764 	 64.2418 	 145.819
| 35> C 	 -36.3983 	 66.3155 	 145.867
| 36> H 	 -35.9258 	 66.6209 	 144.899
| 37> H 	 -36.3252 	 67.1936 	 146.483
| 38> H 	 -37.3848 	 66.2711 	 145.455
| 39> H 	 -33.437 	 71.1489 	 146.282
| 40> H 	 -31.1394 	 63.3401 	 144.078
| 41> *
| 42>
| 43>                          ****END OF INPUT****

CARTESIAN COORDINATES (ANGSTROEM)
---------------------------------
  S    -32.906300   68.745200  146.756000
  C    -33.549400   70.153900  145.924000
  C    -33.984100   69.932700  144.625000
  C    -33.643800   68.600600  144.217000
  C    -33.098000   67.832900  145.252000
  H    -33.988300   68.223700  143.263000
  C    -34.441500   71.019500  143.626000
  H    -34.586900   70.589100  142.636000
  H    -33.583200   71.641300  143.555000
  C    -35.779700   71.773100  143.984000
  H    -35.725400   72.316500  144.844000
  H    -36.112700   72.491600  143.166000
  C    -37.026600   70.821100  144.246000
  H    -36.961700   70.507200  145.304000
  H    -38.004500   71.384200  144.048000
  H    -37.075100   69.960100  143.592000
  S    -31.542900   65.894700  144.048000
  C    -31.700900   64.195600  144.513000
  C    -32.705300   64.051000  145.455000
  C    -33.199300   65.277200  145.952000
  C    -32.772600   66.403000  145.224000
  H    -32.887000   63.068400  145.916000
  C    -34.295600   65.377400  147.031000
  H    -34.228900   66.422200  147.454000
  H    -33.918000   64.717400  147.732000
  C    -35.738100   65.068700  146.534000
  H    -36.353400   64.782700  147.350000
  H    -35.776400   64.241800  145.819000
  C    -36.398300   66.315500  145.867000
  H    -35.925800   66.620900  144.899000
  H    -36.325200   67.193600  146.483000
  H    -37.384800   66.271100  145.455000
  H    -33.437000   71.148900  146.282000
  H    -31.139400   63.340100  144.078000

 Total Charge           Charge          ....    0
 Multiplicity           Mult            ....    1
 Number of Electrons    NEL             ....  134
 Basis Dimension        Dim             ....  322

ORBITAL ENERGIES
----------------

  NO   OCC          E(Eh)            E(eV)
   0   2.0000     -88.974100     -2421.1083
   1   2.0000     -88.963974     -2420.8328
   2   2.0000     -10.336446      -281.2690
   3   2.0000     -10.328043      -281.0403
   4   2.0000     -10.321518      -280.8628
   5   2.0000     -10.313204      -280.6365
   6   2.0000     -10.305171      -280.4180
   7   2.0000     -10.302340      -280.3409
   8   2.0000     -10.299309      -280.2585
   9   2.0000     -10.299127      -280.2535
  10   2.0000     -10.294355      -280.1236
  11   2.0000     -10.292246      -280.0662
  12   2.0000     -10.289460      -279.9904
  13   2.0000     -10.287364      -279.9334
  14   2.0000     -10.284736      -279.8619
  15   2.0000     -10.269205      -279.4393
  16   2.0000      -8.087753      -220.0789
  17   2.0000      -8.077875      -219.8102
  18   2.0000      -6.046206      -164.5256
  19   2.0000      -6.042521      -164.4253
  20   2.0000      -6.038526      -164.3166
  21   2.0000      -6.036462      -164.2605
  22   2.0000      -6.032367      -164.1490
  23   2.0000      -6.028731      -164.0501
  24   2.0000      -1.000793       -27.2330
  25   2.0000      -0.979275       -26.6474
  26   2.0000      -0.903333       -24.5809
  27   2.0000      -0.898989       -24.4627
  28   2.0000      -0.863370       -23.4935
  29   2.0000      -0.849031       -23.1033
  30   2.0000      -0.839800       -22.8521
  31   2.0000      -0.809424       -22.0255
  32   2.0000      -0.781941       -21.2777
  33   2.0000      -0.769138       -20.9293
  34   2.0000      -0.708575       -19.2813
  35   2.0000      -0.703170       -19.1342
  36   2.0000      -0.694980       -18.9114
  37   2.0000      -0.658522       -17.9193
  38   2.0000      -0.637945       -17.3594
  39   2.0000      -0.612297       -16.6614
  40   2.0000      -0.587492       -15.9865
  41   2.0000      -0.571640       -15.5551
  42   2.0000      -0.552331       -15.0297
  43   2.0000      -0.548475       -14.9248
  44   2.0000      -0.539716       -14.6864
  45   2.0000      -0.534200       -14.5363
  46   2.0000      -0.513361       -13.9693
  47   2.0000      -0.509028       -13.8514
  48   2.0000      -0.499942       -13.6041
  49   2.0000      -0.486775       -13.2458
  50   2.0000      -0.481227       -13.0948
  51   2.0000      -0.472762       -12.8645
  52   2.0000      -0.467391       -12.7184
  53   2.0000      -0.459792       -12.5116
  54   2.0000      -0.454143       -12.3579
  55   2.0000      -0.449759       -12.2386
  56   2.0000      -0.443896       -12.0790
  57   2.0000      -0.437883       -11.9154
  58   2.0000      -0.430989       -11.7278
  59   2.0000      -0.427451       -11.6315
  60   2.0000      -0.425658       -11.5827
  61   2.0000      -0.417860       -11.3705
  62   2.0000      -0.404682       -11.0120
  63   2.0000      -0.342526        -9.3206
  64   2.0000      -0.336882        -9.1670
  65   2.0000      -0.329791        -8.9741
  66   2.0000      -0.289890        -7.8883
  67   0.0000       0.029838         0.8119
  68   0.0000       0.060460         1.6452
  69   0.0000       0.102779         2.7968
  70   0.0000       0.113446         3.0870
  71   0.0000       0.127857         3.4792

MULLIKEN ATOMIC CHARGES
-----------------------
   0 S :    0.125092
   1 C :   -0.114342
   2 C :   -0.107593
   3 C :    0.042121
   4 C :   -0.150974
   5 H :    0.016757
   6 C :    0.078379
   7 H :    0.022802
   8 H :    0.042054
   9 C :   -0.070643
  10 H :    0.014392
  11 H :    0.043564
  12 C :   -0.101275
  13 H :    0.052369
  14 H :    0.044655
  15 H :    0.030688
  16 S :    0.102472
  17 C :   -0.112470
  18 C :   -0.040720
  19 C :   -0.069949
  20 C :   -0.158937
  21 H :    0.029332
  22 C :    0.094618
  23 H :    0.024420
  24 H :    0.008457
  25 C :   -0.017631
  26 H :    0.027041
  27 H :    0.028393
  28 C :   -0.062226
  29 H :    0.021267
  30 H :    0.026547
  31 H :    0.020873
  32 H :    0.036406
  33 H :    0.074065
Sum of atomic charges:    0.0000000

LOEWDIN ATOMIC CHARGES
----------------------
   0 S :    0.412590
   1 C :   -0.194767
   2 C :   -0.058929
   3 C :   -0.057574
   4 C :   -0.185350
   5 H :    0.031135
   6 C :   -0.023935
   7 H :    0.030598
   8 H :    0.032639
   9 C :   -0.036388
  10 H :    0.007577
  11 H :    0.032277
  12 C :   -0.072516
  13 H :    0.029713
  14 H :    0.034610
  15 H :    0.018323
  16 S :    0.393769
  17 C :   -0.187215
  18 C :   -0.080141
  19 C :   -0.060560
  20 C :   -0.197319
  21 H :    0.036258
  22 C :   -0.025302
  23 H :    0.026537
  24 H :    0.019081
  25 C :   -0.029115
  26 H :    0.020363
  27 H :    0.025997
  28 C :   -0.074733
  29 H :    0.029906
  30 H :    0.021103
  31 H :    0.022192
  32 H :    0.019358
  33 H :    0.039819

  Mayer bond orders larger than 0.100000
B(  0-S ,  1-C ) :   1.1385 B(  0-S ,  4-C ) :   1.1500 B(  1-C ,  2-C ) :   1.6151
B(  1-C , 32-H ) :   0.9678 B(  2-C ,  3-C ) :   1.2593 B(  2-C ,  6-C ) :   1.0014
B(  3-C ,  4-C ) :   1.5674 B(  3-C ,  5-H ) :   0.9856 B(  4-C , 20-C ) :   1.0287
B(  6-C ,  7-H ) :   0.9475 B(  6-C ,  8-H ) :   0.9474 B(  6-C ,  9-C ) :   1.0581
B(  9-C , 10-H ) :   0.9643 B(  9-C , 11-H ) :   0.9653 B(  9-C , 12-C ) :   1.0601
B( 12-C , 13-H ) :   0.9771 B( 12-C , 14-H ) :   0.9774 B( 12-C , 15-H ) :   0.9815
B( 16-S , 17-C ) :   1.1572 B( 16-S , 20-C ) :   1.1426 B( 17-C , 18-C ) :   1.6019
B( 17-C , 20-C ) :   0.1060 B( 17-C , 33-H ) :   0.9618 B( 18-C , 19-C ) :   1.2647
B( 18-C , 21-H ) :   0.9803 B( 19-C , 20-C ) :   1.5708 B( 19-C , 22-C ) :   1.0330
B( 22-C , 23-H ) :   0.9355 B( 22-C , 24-H ) :   0.9259 B( 22-C , 25-C ) :   1.0597
B( 25-C , 26-H ) :   0.9570 B( 25-C , 27-H ) :   0.9593 B( 25-C , 28-C ) :   1.0691
B( 28-C , 29-H ) :   0.9710 B( 28-C , 30-H ) :   0.9776 B( 28-C , 31-H ) :   0.9733

Dispersion correction           -0.016125449
FINAL SINGLE POINT ENERGY     -1339.869046806804

DIPOLE MOMENT
-------------
                                X             Y             Z
Electronic contribution:     24.14810      -7.85311       1.99183
Nuclear contribution   :    -24.50915       7.95082      -2.10026
                        -----------------------------------------
Total Dipole Moment    :     -0.36106       0.09771      -0.10842
                        -----------------------------------------
Magnitude (a.u.)       :      0.38944
Magnitude (Debye)      :      0.98988

Rotational constants in cm-1:     0.021353     0.008664     0.007578
Rotational constants in MHz :   640.133954   259.734685   227.193777

                             ****ORCA TERMINATED NORMALLY****
TOTAL RUN TIME: 0 days 0 hours 0 minutes 36 seconds 786 msec
