                         Program Version 4.2.1 -  RELEASE  -
|  1> ! wB97X-D3 SP def2-SVP
|  2> %pal
|  3> nprocs 16
|  4> end
|  5>
|  6> * xyz 0 1
|  7> S 	 -32.3554 	 73.3591 	 167.561
|  8> C 	 -31.3691 	 73.1858 	 166.166
|  9> C 	 -31.7064 	 74.1286 	 165.184
| 10> C 	 -32.7987 	 74.9909 	 165.563
| 11> C 	 -33.2922 	 74.6719 	 166.799
| 12> H 	 -33.1862 	 75.8056 	 164.972
| 13> C 	 -30.9875 	 74.2614 	 163.86
| 14> H 	 -31.6288 	 73.9411 	 162.993
| 15> H 	 -30.1378 	 73.5882 	 163.689
| 16> C 	 -30.5227 	 75.6839 	 163.392
| 17> H 	 -30.1459 	 75.6265 	 162.329
| 18> H 	 -31.44 	 76.3531 	 163.428
| 19> C 	 -29.4565 	 76.2511 	 164.279
| 20> H 	 -28.4805 	 75.7045 	 164.298
| 21> H 	 -29.1261 	 77.2293 	 163.987
| 22> H 	 -29.9068 	 76.5813 	 165.236
| 23> S 	 -34.1073 	 76.3777 	 168.873
| 24> C 	 -35.8443 	 76.7245 	 168.942
| 25> C 	 -36.5325 	 76.1733 	 167.929
| 26> C 	 -35.706 	 75.4162 	 167.041
| 27> C 	 -34.381 	 75.3763 	 167.412
| 28> H 	 -37.5341 	 76.3352 	 167.865
| 29> C 	 -36.2992 	 74.8825 	 165.673
| 30> H 	 -35.5438 	 74.6331 	 164.89
| 31> H 	 -36.6021 	 75.8642 	 165.214
| 32> C 	 -37.2906 	 73.852 	 165.848
| 33> H 	 -37.5728 	 73.5972 	 164.77
| 34> H 	 -38.0833 	 74.3025 	 166.269
| 35> C 	 -36.7685 	 72.7196 	 166.786
| 36> H 	 -37.1017 	 71.7611 	 166.454
| 37> H 	 -37.1311 	 72.9046 	 167.825
| 38> H 	 -35.699 	 72.4929 	 166.812
| 39> H 	 -30.5589 	 72.4405 	 166.141
| 40> H 	 -36.1881 	 77.3052 	 169.794
| 41> *
| 42>
| 43>                          ****END OF INPUT****

CARTESIAN COORDINATES (ANGSTROEM)
---------------------------------
  S    -32.355400   73.359100  167.561000
  C    -31.369100   73.185800  166.166000
  C    -31.706400   74.128600  165.184000
  C    -32.798700   74.990900  165.563000
  C    -33.292200   74.671900  166.799000
  H    -33.186200   75.805600  164.972000
  C    -30.987500   74.261400  163.860000
  H    -31.628800   73.941100  162.993000
  H    -30.137800   73.588200  163.689000
  C    -30.522700   75.683900  163.392000
  H    -30.145900   75.626500  162.329000
  H    -31.440000   76.353100  163.428000
  C    -29.456500   76.251100  164.279000
  H    -28.480500   75.704500  164.298000
  H    -29.126100   77.229300  163.987000
  H    -29.906800   76.581300  165.236000
  S    -34.107300   76.377700  168.873000
  C    -35.844300   76.724500  168.942000
  C    -36.532500   76.173300  167.929000
  C    -35.706000   75.416200  167.041000
  C    -34.381000   75.376300  167.412000
  H    -37.534100   76.335200  167.865000
  C    -36.299200   74.882500  165.673000
  H    -35.543800   74.633100  164.890000
  H    -36.602100   75.864200  165.214000
  C    -37.290600   73.852000  165.848000
  H    -37.572800   73.597200  164.770000
  H    -38.083300   74.302500  166.269000
  C    -36.768500   72.719600  166.786000
  H    -37.101700   71.761100  166.454000
  H    -37.131100   72.904600  167.825000
  H    -35.699000   72.492900  166.812000
  H    -30.558900   72.440500  166.141000
  H    -36.188100   77.305200  169.794000

 Total Charge           Charge          ....    0
 Multiplicity           Mult            ....    1
 Number of Electrons    NEL             ....  134
 Basis Dimension        Dim             ....  322

ORBITAL ENERGIES
----------------

  NO   OCC          E(Eh)            E(eV)
   0   2.0000     -88.966889     -2420.9121
   1   2.0000     -88.958997     -2420.6974
   2   2.0000     -10.326523      -280.9990
   3   2.0000     -10.322080      -280.8781
   4   2.0000     -10.317282      -280.7475
   5   2.0000     -10.317043      -280.7410
   6   2.0000     -10.305714      -280.4327
   7   2.0000     -10.303674      -280.3772
   8   2.0000     -10.295838      -280.1640
   9   2.0000     -10.295372      -280.1513
  10   2.0000     -10.294102      -280.1168
  11   2.0000     -10.292121      -280.0628
  12   2.0000     -10.286158      -279.9006
  13   2.0000     -10.278816      -279.7008
  14   2.0000     -10.274537      -279.5844
  15   2.0000     -10.273420      -279.5540
  16   2.0000      -8.081525      -219.9095
  17   2.0000      -8.073442      -219.6895
  18   2.0000      -6.040008      -164.3570
  19   2.0000      -6.035959      -164.2468
  20   2.0000      -6.032397      -164.1499
  21   2.0000      -6.031932      -164.1372
  22   2.0000      -6.028165      -164.0347
  23   2.0000      -6.024075      -163.9234
  24   2.0000      -1.003333       -27.3021
  25   2.0000      -0.981650       -26.7121
  26   2.0000      -0.915706       -24.9176
  27   2.0000      -0.905706       -24.6455
  28   2.0000      -0.874457       -23.7952
  29   2.0000      -0.847907       -23.0727
  30   2.0000      -0.838462       -22.8157
  31   2.0000      -0.813577       -22.1385
  32   2.0000      -0.784291       -21.3417
  33   2.0000      -0.771727       -20.9998
  34   2.0000      -0.708690       -19.2844
  35   2.0000      -0.694149       -18.8888
  36   2.0000      -0.686136       -18.6707
  37   2.0000      -0.659534       -17.9468
  38   2.0000      -0.642836       -17.4925
  39   2.0000      -0.624969       -17.0063
  40   2.0000      -0.606003       -16.4902
  41   2.0000      -0.567683       -15.4474
  42   2.0000      -0.552702       -15.0398
  43   2.0000      -0.545528       -14.8446
  44   2.0000      -0.542218       -14.7545
  45   2.0000      -0.537382       -14.6229
  46   2.0000      -0.516390       -14.0517
  47   2.0000      -0.510646       -13.8954
  48   2.0000      -0.499302       -13.5867
  49   2.0000      -0.494287       -13.4502
  50   2.0000      -0.489636       -13.3237
  51   2.0000      -0.476965       -12.9789
  52   2.0000      -0.473164       -12.8755
  53   2.0000      -0.464879       -12.6500
  54   2.0000      -0.458457       -12.4752
  55   2.0000      -0.444794       -12.1035
  56   2.0000      -0.439789       -11.9673
  57   2.0000      -0.431895       -11.7525
  58   2.0000      -0.427870       -11.6429
  59   2.0000      -0.421572       -11.4715
  60   2.0000      -0.412125       -11.2145
  61   2.0000      -0.406885       -11.0719
  62   2.0000      -0.402844       -10.9620
  63   2.0000      -0.344344        -9.3701
  64   2.0000      -0.329666        -8.9707
  65   2.0000      -0.325011        -8.8440
  66   2.0000      -0.298766        -8.1298
  67   0.0000       0.037821         1.0292
  68   0.0000       0.064442         1.7536
  69   0.0000       0.114858         3.1254
  70   0.0000       0.120903         3.2900
  71   0.0000       0.127073         3.4578

MULLIKEN ATOMIC CHARGES
-----------------------
   0 S :    0.119988
   1 C :   -0.134476
   2 C :   -0.045885
   3 C :    0.038423
   4 C :   -0.154953
   5 H :    0.021219
   6 C :    0.038898
   7 H :    0.037167
   8 H :    0.013838
   9 C :   -0.120626
  10 H :    0.039786
  11 H :    0.035500
  12 C :   -0.034563
  13 H :    0.040081
  14 H :    0.009224
  15 H :    0.036314
  16 S :    0.083229
  17 C :   -0.097134
  18 C :    0.020248
  19 C :   -0.024410
  20 C :   -0.193621
  21 H :   -0.017742
  22 C :    0.015625
  23 H :    0.025804
  24 H :    0.033312
  25 C :    0.001066
  26 H :    0.037765
  27 H :   -0.002432
  28 C :   -0.045385
  29 H :    0.020276
  30 H :    0.045831
  31 H :    0.033842
  32 H :    0.061568
  33 H :    0.062221
Sum of atomic charges:   -0.0000000

LOEWDIN ATOMIC CHARGES
----------------------
   0 S :    0.407745
   1 C :   -0.205394
   2 C :   -0.064565
   3 C :   -0.050917
   4 C :   -0.185968
   5 H :    0.033171
   6 C :   -0.044640
   7 H :    0.036559
   8 H :    0.026784
   9 C :   -0.048473
  10 H :    0.029984
  11 H :    0.026512
  12 C :   -0.082085
  13 H :    0.031842
  14 H :    0.021051
  15 H :    0.034169
  16 S :    0.363003
  17 C :   -0.158960
  18 C :   -0.066032
  19 C :   -0.043632
  20 C :   -0.193064
  21 H :    0.017658
  22 C :   -0.036922
  23 H :    0.028960
  24 H :    0.034171
  25 C :   -0.040478
  26 H :    0.036933
  27 H :    0.007454
  28 C :   -0.065124
  29 H :    0.022503
  30 H :    0.036236
  31 H :    0.029118
  32 H :    0.033938
  33 H :    0.028459

  Mayer bond orders larger than 0.100000
B(  0-S ,  1-C ) :   1.1455 B(  0-S ,  4-C ) :   1.1388 B(  1-C ,  2-C ) :   1.5949
B(  1-C , 32-H ) :   0.9678 B(  2-C ,  3-C ) :   1.2240 B(  2-C ,  6-C ) :   1.0274
B(  3-C ,  4-C ) :   1.5847 B(  3-C ,  5-H ) :   0.9933 B(  4-C , 20-C ) :   1.0555
B(  6-C ,  7-H ) :   0.9371 B(  6-C ,  8-H ) :   0.9464 B(  6-C ,  9-C ) :   1.0685
B(  9-C , 10-H ) :   0.9541 B(  9-C , 11-H ) :   0.9520 B(  9-C , 12-C ) :   1.0901
B( 12-C , 13-H ) :   0.9721 B( 12-C , 14-H ) :   0.9658 B( 12-C , 15-H ) :   0.9669
B( 16-S , 17-C ) :   1.1414 B( 16-S , 20-C ) :   1.1172 B( 17-C , 18-C ) :   1.6329
B( 17-C , 33-H ) :   0.9676 B( 18-C , 19-C ) :   1.2010 B( 18-C , 21-H ) :   1.0102
B( 19-C , 20-C ) :   1.6425 B( 19-C , 22-C ) :   1.0028 B( 22-C , 23-H ) :   0.9400
B( 22-C , 24-H ) :   0.9444 B( 22-C , 25-C ) :   1.0743 B( 25-C , 26-H ) :   0.9527
B( 25-C , 27-H ) :   0.9561 B( 25-C , 28-C ) :   1.0551 B( 28-C , 29-H ) :   0.9732
B( 28-C , 30-H ) :   0.9709 B( 28-C , 31-H ) :   0.9780

Dispersion correction           -0.015415432
FINAL SINGLE POINT ENERGY     -1339.857857742711

DIPOLE MOMENT
-------------
                                X             Y             Z
Electronic contribution:      0.43739       1.25156      19.43084
Nuclear contribution   :     -0.65021      -1.14362     -19.99165
                        -----------------------------------------
Total Dipole Moment    :     -0.21283       0.10794      -0.56081
                        -----------------------------------------
Magnitude (a.u.)       :      0.60947
Magnitude (Debye)      :      1.54914

Rotational constants in cm-1:     0.020080     0.008474     0.007774
Rotational constants in MHz :   601.971067   254.050793   233.045065

                             ****ORCA TERMINATED NORMALLY****
TOTAL RUN TIME: 0 days 0 hours 0 minutes 37 seconds 287 msec
