                         Program Version 4.2.1 -  RELEASE  -
|  1> ! wB97X-D3 SP def2-SVP
|  2> %pal
|  3> nprocs 16
|  4> end
|  5>
|  6> * xyz 0 1
|  7> S 	 -9.39748 	 64.8606 	 53.9099
|  8> C 	 -8.93369 	 63.3691 	 53.0667
|  9> C 	 -7.92697 	 63.7183 	 52.1773
| 10> C 	 -7.56244 	 65.0601 	 52.2073
| 11> C 	 -8.30223 	 65.863 	 53.1117
| 12> H 	 -6.78458 	 65.6024 	 51.66
| 13> C 	 -7.11796 	 62.6801 	 51.4391
| 14> H 	 -6.72673 	 63.0459 	 50.5411
| 15> H 	 -7.84481 	 61.8043 	 51.1688
| 16> C 	 -5.97411 	 61.9709 	 52.1753
| 17> H 	 -6.34283 	 61.4858 	 53.1165
| 18> H 	 -5.45296 	 61.1262 	 51.5957
| 19> C 	 -4.915 	 63.0022 	 52.6984
| 20> H 	 -4.48264 	 63.6371 	 51.9412
| 21> H 	 -5.34394 	 63.6377 	 53.5039
| 22> H 	 -4.03489 	 62.4416 	 53.0344
| 23> S 	 -6.36521 	 67.7561 	 53.4056
| 24> C 	 -6.76452 	 69.4016 	 53.8493
| 25> C 	 -8.12671 	 69.5349 	 54.0906
| 26> C 	 -8.8508 	 68.2862 	 53.9551
| 27> C 	 -8.06067 	 67.2378 	 53.4311
| 28> H 	 -8.57027 	 70.4889 	 54.3053
| 29> C 	 -10.3755 	 68.1608 	 54.0874
| 30> H 	 -10.7991 	 67.3739 	 53.4181
| 31> H 	 -10.6065 	 69.12 	 53.6268
| 32> C 	 -10.9844 	 68.2123 	 55.5509
| 33> H 	 -10.8451 	 69.219 	 55.9269
| 34> H 	 -10.4272 	 67.542 	 56.1449
| 35> C 	 -12.5184 	 67.9523 	 55.5008
| 36> H 	 -12.8907 	 67.9642 	 56.5413
| 37> H 	 -12.7257 	 66.966 	 54.9518
| 38> H 	 -13.1069 	 68.7608 	 54.9262
| 39> H 	 -9.25137 	 62.3654 	 53.357
| 40> H 	 -6.03109 	 70.1789 	 53.8228
| 41> *
| 42>
| 43>                          ****END OF INPUT****

CARTESIAN COORDINATES (ANGSTROEM)
---------------------------------
  S     -9.397480   64.860600   53.909900
  C     -8.933690   63.369100   53.066700
  C     -7.926970   63.718300   52.177300
  C     -7.562440   65.060100   52.207300
  C     -8.302230   65.863000   53.111700
  H     -6.784580   65.602400   51.660000
  C     -7.117960   62.680100   51.439100
  H     -6.726730   63.045900   50.541100
  H     -7.844810   61.804300   51.168800
  C     -5.974110   61.970900   52.175300
  H     -6.342830   61.485800   53.116500
  H     -5.452960   61.126200   51.595700
  C     -4.915000   63.002200   52.698400
  H     -4.482640   63.637100   51.941200
  H     -5.343940   63.637700   53.503900
  H     -4.034890   62.441600   53.034400
  S     -6.365210   67.756100   53.405600
  C     -6.764520   69.401600   53.849300
  C     -8.126710   69.534900   54.090600
  C     -8.850800   68.286200   53.955100
  C     -8.060670   67.237800   53.431100
  H     -8.570270   70.488900   54.305300
  C    -10.375500   68.160800   54.087400
  H    -10.799100   67.373900   53.418100
  H    -10.606500   69.120000   53.626800
  C    -10.984400   68.212300   55.550900
  H    -10.845100   69.219000   55.926900
  H    -10.427200   67.542000   56.144900
  C    -12.518400   67.952300   55.500800
  H    -12.890700   67.964200   56.541300
  H    -12.725700   66.966000   54.951800
  H    -13.106900   68.760800   54.926200
  H     -9.251370   62.365400   53.357000
  H     -6.031090   70.178900   53.822800

 Total Charge           Charge          ....    0
 Multiplicity           Mult            ....    1
 Number of Electrons    NEL             ....  134
 Basis Dimension        Dim             ....  322

ORBITAL ENERGIES
----------------

  NO   OCC          E(Eh)            E(eV)
   0   2.0000     -88.969371     -2420.9797
   1   2.0000     -88.965731     -2420.8806
   2   2.0000     -10.331563      -281.1361
   3   2.0000     -10.330068      -281.0954
   4   2.0000     -10.322247      -280.8826
   5   2.0000     -10.319444      -280.8063
   6   2.0000     -10.311811      -280.5986
   7   2.0000     -10.302797      -280.3534
   8   2.0000     -10.301661      -280.3225
   9   2.0000     -10.296195      -280.1737
  10   2.0000     -10.295408      -280.1523
  11   2.0000     -10.293514      -280.1007
  12   2.0000     -10.292892      -280.0838
  13   2.0000     -10.292648      -280.0772
  14   2.0000     -10.288312      -279.9592
  15   2.0000     -10.274333      -279.5788
  16   2.0000      -8.084241      -219.9834
  17   2.0000      -8.080122      -219.8713
  18   2.0000      -6.042631      -164.4283
  19   2.0000      -6.038723      -164.3220
  20   2.0000      -6.038370      -164.3124
  21   2.0000      -6.035466      -164.2334
  22   2.0000      -6.034628      -164.2106
  23   2.0000      -6.030866      -164.1082
  24   2.0000      -1.011935       -27.5361
  25   2.0000      -0.984384       -26.7864
  26   2.0000      -0.910670       -24.7806
  27   2.0000      -0.900321       -24.4990
  28   2.0000      -0.870910       -23.6987
  29   2.0000      -0.849184       -23.1075
  30   2.0000      -0.840989       -22.8845
  31   2.0000      -0.811635       -22.0857
  32   2.0000      -0.781110       -21.2551
  33   2.0000      -0.766670       -20.8621
  34   2.0000      -0.707469       -19.2512
  35   2.0000      -0.697229       -18.9726
  36   2.0000      -0.695164       -18.9164
  37   2.0000      -0.668278       -18.1848
  38   2.0000      -0.638044       -17.3621
  39   2.0000      -0.609568       -16.5872
  40   2.0000      -0.593054       -16.1378
  41   2.0000      -0.576637       -15.6911
  42   2.0000      -0.561273       -15.2730
  43   2.0000      -0.545406       -14.8413
  44   2.0000      -0.539892       -14.6912
  45   2.0000      -0.522696       -14.2233
  46   2.0000      -0.520228       -14.1561
  47   2.0000      -0.510066       -13.8796
  48   2.0000      -0.508150       -13.8275
  49   2.0000      -0.499589       -13.5945
  50   2.0000      -0.485941       -13.2231
  51   2.0000      -0.479350       -13.0438
  52   2.0000      -0.471133       -12.8202
  53   2.0000      -0.466637       -12.6978
  54   2.0000      -0.458210       -12.4685
  55   2.0000      -0.449082       -12.2201
  56   2.0000      -0.437904       -11.9160
  57   2.0000      -0.437128       -11.8949
  58   2.0000      -0.429765       -11.6945
  59   2.0000      -0.421363       -11.4659
  60   2.0000      -0.415890       -11.3169
  61   2.0000      -0.411543       -11.1986
  62   2.0000      -0.407389       -11.0856
  63   2.0000      -0.356715        -9.7067
  64   2.0000      -0.334203        -9.0941
  65   2.0000      -0.328594        -8.9415
  66   2.0000      -0.284731        -7.7479
  67   0.0000       0.016185         0.4404
  68   0.0000       0.076757         2.0887
  69   0.0000       0.106696         2.9033
  70   0.0000       0.115332         3.1384
  71   0.0000       0.128766         3.5039

MULLIKEN ATOMIC CHARGES
-----------------------
   0 S :    0.107794
   1 C :   -0.135879
   2 C :   -0.049230
   3 C :   -0.010849
   4 C :   -0.134611
   5 H :    0.018018
   6 C :    0.062579
   7 H :    0.014433
   8 H :    0.035572
   9 C :   -0.093369
  10 H :    0.029128
  11 H :    0.047950
  12 C :   -0.081846
  13 H :    0.021884
  14 H :    0.061406
  15 H :    0.029588
  16 S :    0.084756
  17 C :   -0.080489
  18 C :   -0.016547
  19 C :   -0.038080
  20 C :   -0.132653
  21 H :    0.018021
  22 C :   -0.015526
  23 H :    0.044572
  24 H :    0.025014
  25 C :   -0.027285
  26 H :    0.025412
  27 H :    0.029896
  28 C :   -0.098462
  29 H :    0.047523
  30 H :    0.050290
  31 H :    0.044083
  32 H :    0.060640
  33 H :    0.056266
Sum of atomic charges:    0.0000000

LOEWDIN ATOMIC CHARGES
----------------------
   0 S :    0.442260
   1 C :   -0.195124
   2 C :   -0.066970
   3 C :   -0.077248
   4 C :   -0.215418
   5 H :    0.028418
   6 C :   -0.033899
   7 H :    0.019751
   8 H :    0.040682
   9 C :   -0.046625
  10 H :    0.024927
  11 H :    0.033177
  12 C :   -0.076172
  13 H :    0.017457
  14 H :    0.032972
  15 H :    0.026386
  16 S :    0.399420
  17 C :   -0.175645
  18 C :   -0.068340
  19 C :   -0.054857
  20 C :   -0.191056
  21 H :    0.030371
  22 C :   -0.044017
  23 H :    0.029222
  24 H :    0.032717
  25 C :   -0.031207
  26 H :    0.023752
  27 H :    0.016808
  28 C :   -0.076979
  29 H :    0.028401
  30 H :    0.033240
  31 H :    0.033051
  32 H :    0.034901
  33 H :    0.025644

  Mayer bond orders larger than 0.100000
B(  0-S ,  1-C ) :   1.1506 B(  0-S ,  4-C ) :   1.1873 B(  1-C ,  2-C ) :   1.5330
B(  1-C ,  4-C ) :   0.1082 B(  1-C , 32-H ) :   0.9760 B(  2-C ,  3-C ) :   1.2918
B(  2-C ,  6-C ) :   1.0338 B(  3-C ,  4-C ) :   1.4745 B(  3-C ,  5-H ) :   0.9965
B(  4-C , 20-C ) :   1.0903 B(  6-C ,  7-H ) :   0.9432 B(  6-C ,  8-H ) :   0.9389
B(  6-C ,  9-C ) :   1.0665 B(  9-C , 10-H ) :   0.9544 B(  9-C , 11-H ) :   0.9584
B(  9-C , 12-C ) :   1.0698 B( 12-C , 13-H ) :   0.9768 B( 12-C , 14-H ) :   0.9731
B( 12-C , 15-H ) :   0.9734 B( 16-S , 17-C ) :   1.1555 B( 16-S , 20-C ) :   1.1282
B( 17-C , 18-C ) :   1.5954 B( 17-C , 33-H ) :   0.9717 B( 18-C , 19-C ) :   1.2415
B( 18-C , 21-H ) :   0.9911 B( 19-C , 20-C ) :   1.5581 B( 19-C , 22-C ) :   1.0281
B( 22-C , 23-H ) :   0.9519 B( 22-C , 24-H ) :   0.9361 B( 22-C , 25-C ) :   1.0390
B( 25-C , 26-H ) :   0.9543 B( 25-C , 27-H ) :   0.9629 B( 25-C , 28-C ) :   1.0771
B( 28-C , 29-H ) :   0.9748 B( 28-C , 30-H ) :   0.9752 B( 28-C , 31-H ) :   0.9747

Dispersion correction           -0.014606648
FINAL SINGLE POINT ENERGY     -1339.875740688337

DIPOLE MOMENT
-------------
                                X             Y             Z
Electronic contribution:      4.14924       6.37724      -1.12830
Nuclear contribution   :     -4.15184      -6.27049       1.15744
                        -----------------------------------------
Total Dipole Moment    :     -0.00260       0.10675       0.02914
                        -----------------------------------------
Magnitude (a.u.)       :      0.11069
Magnitude (Debye)      :      0.28134

Rotational constants in cm-1:     0.021263     0.008702     0.006488
Rotational constants in MHz :   637.458890   260.888272   194.498919

                             ****ORCA TERMINATED NORMALLY****
TOTAL RUN TIME: 0 days 0 hours 0 minutes 33 seconds 314 msec
