                         Program Version 4.2.1 -  RELEASE  -
|  1> ! wB97X-D3 SP def2-SVP
|  2> %pal
|  3> nprocs 16
|  4> end
|  5>
|  6> * xyz 0 1
|  7> S 	 -6.15138 	 46.0393 	 39.3999
|  8> C 	 -7.78628 	 45.3309 	 39.3265
|  9> C 	 -8.30717 	 45.1374 	 40.5849
| 10> C 	 -7.42274 	 45.5641 	 41.5956
| 11> C 	 -6.24959 	 46.1404 	 41.1349
| 12> H 	 -7.52896 	 45.5544 	 42.6587
| 13> C 	 -9.70748 	 44.653 	 40.895
| 14> H 	 -9.76929 	 43.6266 	 41.2334
| 15> H 	 -10.3699 	 44.8828 	 40.0761
| 16> C 	 -10.438 	 45.4664 	 42.0372
| 17> H 	 -11.4312 	 44.8905 	 42.3094
| 18> H 	 -9.92502 	 45.3369 	 42.9848
| 19> C 	 -10.6612 	 46.902 	 41.645
| 20> H 	 -11.3188 	 47.4892 	 42.2645
| 21> H 	 -9.77362 	 47.5261 	 41.7579
| 22> H 	 -11.0515 	 46.9925 	 40.6683
| 23> S 	 -4.26331 	 45.6092 	 42.9244
| 24> C 	 -3.279 	 46.9046 	 43.5784
| 25> C 	 -3.66448 	 48.1151 	 43.0142
| 26> C 	 -4.72502 	 48.0575 	 42.0628
| 27> C 	 -5.2322 	 46.7397 	 41.962
| 28> H 	 -3.00497 	 48.959 	 43.3442
| 29> C 	 -5.23974 	 49.2762 	 41.3576
| 30> H 	 -5.57537 	 48.8423 	 40.4782
| 31> H 	 -4.45 	 49.999 	 41.0819
| 32> C 	 -6.26655 	 50.0267 	 42.2277
| 33> H 	 -5.77209 	 50.6466 	 42.9842
| 34> H 	 -6.89636 	 49.2341 	 42.6832
| 35> C 	 -7.37391 	 50.6898 	 41.4683
| 36> H 	 -7.83755 	 49.9657 	 40.8683
| 37> H 	 -6.98286 	 51.5164 	 40.8682
| 38> H 	 -8.21849 	 51.0427 	 42.1543
| 39> H 	 -8.38386 	 45.1165 	 38.4564
| 40> H 	 -2.4105 	 46.7741 	 44.2165
| 41> *
| 42>
| 43>                          ****END OF INPUT****

CARTESIAN COORDINATES (ANGSTROEM)
---------------------------------
  S     -6.151380   46.039300   39.399900
  C     -7.786280   45.330900   39.326500
  C     -8.307170   45.137400   40.584900
  C     -7.422740   45.564100   41.595600
  C     -6.249590   46.140400   41.134900
  H     -7.528960   45.554400   42.658700
  C     -9.707480   44.653000   40.895000
  H     -9.769290   43.626600   41.233400
  H    -10.369900   44.882800   40.076100
  C    -10.438000   45.466400   42.037200
  H    -11.431200   44.890500   42.309400
  H     -9.925020   45.336900   42.984800
  C    -10.661200   46.902000   41.645000
  H    -11.318800   47.489200   42.264500
  H     -9.773620   47.526100   41.757900
  H    -11.051500   46.992500   40.668300
  S     -4.263310   45.609200   42.924400
  C     -3.279000   46.904600   43.578400
  C     -3.664480   48.115100   43.014200
  C     -4.725020   48.057500   42.062800
  C     -5.232200   46.739700   41.962000
  H     -3.004970   48.959000   43.344200
  C     -5.239740   49.276200   41.357600
  H     -5.575370   48.842300   40.478200
  H     -4.450000   49.999000   41.081900
  C     -6.266550   50.026700   42.227700
  H     -5.772090   50.646600   42.984200
  H     -6.896360   49.234100   42.683200
  C     -7.373910   50.689800   41.468300
  H     -7.837550   49.965700   40.868300
  H     -6.982860   51.516400   40.868200
  H     -8.218490   51.042700   42.154300
  H     -8.383860   45.116500   38.456400
  H     -2.410500   46.774100   44.216500

 Total Charge           Charge          ....    0
 Multiplicity           Mult            ....    1
 Number of Electrons    NEL             ....  134
 Basis Dimension        Dim             ....  322

ORBITAL ENERGIES
----------------

  NO   OCC          E(Eh)            E(eV)
   0   2.0000     -88.970583     -2421.0126
   1   2.0000     -88.965203     -2420.8663
   2   2.0000     -10.328798      -281.0609
   3   2.0000     -10.327495      -281.0254
   4   2.0000     -10.317818      -280.7621
   5   2.0000     -10.316175      -280.7174
   6   2.0000     -10.308388      -280.5055
   7   2.0000     -10.301090      -280.3069
   8   2.0000     -10.296158      -280.1727
   9   2.0000     -10.296069      -280.1703
  10   2.0000     -10.294112      -280.1170
  11   2.0000     -10.290587      -280.0211
  12   2.0000     -10.285592      -279.8852
  13   2.0000     -10.283804      -279.8365
  14   2.0000     -10.274247      -279.5765
  15   2.0000     -10.271477      -279.5011
  16   2.0000      -8.084378      -219.9871
  17   2.0000      -8.079408      -219.8519
  18   2.0000      -6.042920      -164.4362
  19   2.0000      -6.038995      -164.3294
  20   2.0000      -6.037826      -164.2976
  21   2.0000      -6.035168      -164.2253
  22   2.0000      -6.033912      -164.1911
  23   2.0000      -6.030360      -164.0944
  24   2.0000      -1.005710       -27.3668
  25   2.0000      -0.981710       -26.7137
  26   2.0000      -0.913715       -24.8634
  27   2.0000      -0.911860       -24.8130
  28   2.0000      -0.870170       -23.6785
  29   2.0000      -0.853047       -23.2126
  30   2.0000      -0.845948       -23.0194
  31   2.0000      -0.813253       -22.1298
  32   2.0000      -0.786964       -21.4144
  33   2.0000      -0.773378       -21.0447
  34   2.0000      -0.709973       -19.3194
  35   2.0000      -0.696507       -18.9529
  36   2.0000      -0.691323       -18.8118
  37   2.0000      -0.659109       -17.9353
  38   2.0000      -0.638244       -17.3675
  39   2.0000      -0.621013       -16.8986
  40   2.0000      -0.591506       -16.0957
  41   2.0000      -0.575405       -15.6576
  42   2.0000      -0.566462       -15.4142
  43   2.0000      -0.564416       -15.3585
  44   2.0000      -0.529739       -14.4149
  45   2.0000      -0.526424       -14.3247
  46   2.0000      -0.517819       -14.0906
  47   2.0000      -0.514238       -13.9931
  48   2.0000      -0.508991       -13.8504
  49   2.0000      -0.495067       -13.4715
  50   2.0000      -0.489407       -13.3174
  51   2.0000      -0.483086       -13.1454
  52   2.0000      -0.477435       -12.9917
  53   2.0000      -0.469447       -12.7743
  54   2.0000      -0.458874       -12.4866
  55   2.0000      -0.447324       -12.1723
  56   2.0000      -0.441722       -12.0199
  57   2.0000      -0.436441       -11.8762
  58   2.0000      -0.429375       -11.6839
  59   2.0000      -0.424112       -11.5407
  60   2.0000      -0.418347       -11.3838
  61   2.0000      -0.409762       -11.1502
  62   2.0000      -0.405527       -11.0350
  63   2.0000      -0.336510        -9.1569
  64   2.0000      -0.334067        -9.0904
  65   2.0000      -0.328277        -8.9329
  66   2.0000      -0.299830        -8.1588
  67   0.0000       0.032961         0.8969
  68   0.0000       0.059786         1.6268
  69   0.0000       0.110854         3.0165
  70   0.0000       0.116868         3.1802
  71   0.0000       0.121762         3.3133

MULLIKEN ATOMIC CHARGES
-----------------------
   0 S :    0.124703
   1 C :   -0.124048
   2 C :   -0.057739
   3 C :    0.037184
   4 C :   -0.166901
   5 H :    0.001282
   6 C :    0.092364
   7 H :    0.045259
   8 H :    0.019996
   9 C :   -0.140461
  10 H :    0.037853
  11 H :    0.027681
  12 C :   -0.007997
  13 H :    0.020072
  14 H :    0.031615
  15 H :    0.018551
  16 S :    0.111995
  17 C :   -0.106010
  18 C :   -0.063712
  19 C :   -0.030545
  20 C :   -0.200061
  21 H :    0.034367
  22 C :    0.139146
  23 H :   -0.011984
  24 H :    0.029948
  25 C :   -0.078487
  26 H :    0.039300
  27 H :    0.029584
  28 C :   -0.049468
  29 H :    0.026223
  30 H :    0.029081
  31 H :    0.039917
  32 H :    0.039834
  33 H :    0.061457
Sum of atomic charges:    0.0000000

LOEWDIN ATOMIC CHARGES
----------------------
   0 S :    0.403598
   1 C :   -0.185285
   2 C :   -0.066058
   3 C :   -0.056921
   4 C :   -0.204982
   5 H :    0.027699
   6 C :   -0.024603
   7 H :    0.034586
   8 H :    0.027329
   9 C :   -0.047404
  10 H :    0.033570
  11 H :    0.016795
  12 C :   -0.068938
  13 H :    0.026319
  14 H :    0.030614
  15 H :    0.020088
  16 S :    0.403757
  17 C :   -0.189608
  18 C :   -0.081379
  19 C :   -0.045528
  20 C :   -0.201566
  21 H :    0.039916
  22 C :   -0.027111
  23 H :    0.015357
  24 H :    0.035938
  25 C :   -0.041833
  26 H :    0.025106
  27 H :    0.032059
  28 C :   -0.063985
  29 H :    0.018526
  30 H :    0.019261
  31 H :    0.034495
  32 H :    0.028369
  33 H :    0.031818

  Mayer bond orders larger than 0.100000
B(  0-S ,  1-C ) :   1.1310 B(  0-S ,  4-C ) :   1.1404 B(  1-C ,  2-C ) :   1.6246
B(  1-C , 32-H ) :   0.9672 B(  2-C ,  3-C ) :   1.2239 B(  2-C ,  6-C ) :   1.0200
B(  3-C ,  4-C ) :   1.5814 B(  3-C ,  5-H ) :   0.9977 B(  4-C , 20-C ) :   1.0457
B(  6-C ,  7-H ) :   0.9345 B(  6-C ,  8-H ) :   0.9501 B(  6-C ,  9-C ) :   1.0728
B(  9-C , 10-H ) :   0.9567 B(  9-C , 11-H ) :   0.9509 B(  9-C , 12-C ) :   1.0725
B( 12-C , 13-H ) :   0.9692 B( 12-C , 14-H ) :   0.9679 B( 12-C , 15-H ) :   0.9754
B( 16-S , 17-C ) :   1.1564 B( 16-S , 20-C ) :   1.1524 B( 17-C , 18-C ) :   1.6125
B( 17-C , 20-C ) :   0.1086 B( 17-C , 33-H ) :   0.9668 B( 18-C , 19-C ) :   1.2325
B( 18-C , 21-H ) :   0.9832 B( 19-C , 20-C ) :   1.5572 B( 19-C , 22-C ) :   1.0518
B( 22-C , 23-H ) :   0.9169 B( 22-C , 24-H ) :   0.9293 B( 22-C , 25-C ) :   1.0550
B( 25-C , 26-H ) :   0.9559 B( 25-C , 27-H ) :   0.9610 B( 25-C , 28-C ) :   1.0801
B( 28-C , 29-H ) :   0.9767 B( 28-C , 30-H ) :   0.9721 B( 28-C , 31-H ) :   0.9741

Dispersion correction           -0.015259839
FINAL SINGLE POINT ENERGY     -1339.868570845000

DIPOLE MOMENT
-------------
                                X             Y             Z
Electronic contribution:     21.62678     -14.79969      -3.33551
Nuclear contribution   :    -21.95348      15.11369       3.50850
                        -----------------------------------------
Total Dipole Moment    :     -0.32670       0.31401       0.17299
                        -----------------------------------------
Magnitude (a.u.)       :      0.48503
Magnitude (Debye)      :      1.23286

Rotational constants in cm-1:     0.017329     0.009762     0.008100
Rotational constants in MHz :   519.507798   292.655848   242.826870

                             ****ORCA TERMINATED NORMALLY****
TOTAL RUN TIME: 0 days 0 hours 0 minutes 35 seconds 322 msec
