                         Program Version 4.2.1 -  RELEASE  -
|  1> ! wB97X-D3 SP def2-SVP
|  2> %pal
|  3> nprocs 16
|  4> end
|  5>
|  6> * xyz 0 1
|  7> S 	 -21.276 	 45.1651 	 56.7972
|  8> C 	 -20.7553 	 46.4941 	 57.802
|  9> C 	 -20.9404 	 46.1655 	 59.1738
| 10> C 	 -21.4818 	 44.8825 	 59.3675
| 11> C 	 -21.806 	 44.2632 	 58.1545
| 12> H 	 -21.7633 	 44.4828 	 60.3362
| 13> C 	 -20.4071 	 46.9736 	 60.3245
| 14> H 	 -19.2993 	 46.9128 	 60.4108
| 15> H 	 -20.7121 	 46.5218 	 61.3085
| 16> C 	 -20.7725 	 48.4181 	 60.3276
| 17> H 	 -20.0239 	 49.0607 	 60.8397
| 18> H 	 -20.5928 	 48.7905 	 59.2998
| 19> C 	 -22.1769 	 48.6214 	 60.9147
| 20> H 	 -22.8333 	 47.8893 	 60.3682
| 21> H 	 -22.2509 	 48.4724 	 62.0143
| 22> H 	 -22.3626 	 49.7048 	 60.6741
| 23> S 	 -21.4269 	 41.5363 	 58.4575
| 24> C 	 -22.6616 	 40.4592 	 57.8752
| 25> C 	 -23.7526 	 41.1688 	 57.5567
| 26> C 	 -23.6305 	 42.5808 	 57.6076
| 27> C 	 -22.362 	 42.9325 	 58.0432
| 28> H 	 -24.5556 	 40.594 	 57.1537
| 29> C 	 -24.7503 	 43.4158 	 57.2419
| 30> H 	 -25.5701 	 42.961 	 56.635
| 31> H 	 -24.2334 	 44.0894 	 56.5696
| 32> C 	 -25.4775 	 44.218 	 58.3296
| 33> H 	 -26.3233 	 44.6532 	 57.8149
| 34> H 	 -24.8418 	 44.9363 	 58.7317
| 35> C 	 -26.0093 	 43.3343 	 59.4797
| 36> H 	 -26.8895 	 43.7924 	 59.9513
| 37> H 	 -25.2246 	 43.359 	 60.2314
| 38> H 	 -26.3867 	 42.3385 	 59.2518
| 39> H 	 -20.3543 	 47.4139 	 57.582
| 40> H 	 -22.5854 	 39.3714 	 57.7267
| 41> *
| 42>
| 43>                          ****END OF INPUT****

CARTESIAN COORDINATES (ANGSTROEM)
---------------------------------
  S    -21.276000   45.165100   56.797200
  C    -20.755300   46.494100   57.802000
  C    -20.940400   46.165500   59.173800
  C    -21.481800   44.882500   59.367500
  C    -21.806000   44.263200   58.154500
  H    -21.763300   44.482800   60.336200
  C    -20.407100   46.973600   60.324500
  H    -19.299300   46.912800   60.410800
  H    -20.712100   46.521800   61.308500
  C    -20.772500   48.418100   60.327600
  H    -20.023900   49.060700   60.839700
  H    -20.592800   48.790500   59.299800
  C    -22.176900   48.621400   60.914700
  H    -22.833300   47.889300   60.368200
  H    -22.250900   48.472400   62.014300
  H    -22.362600   49.704800   60.674100
  S    -21.426900   41.536300   58.457500
  C    -22.661600   40.459200   57.875200
  C    -23.752600   41.168800   57.556700
  C    -23.630500   42.580800   57.607600
  C    -22.362000   42.932500   58.043200
  H    -24.555600   40.594000   57.153700
  C    -24.750300   43.415800   57.241900
  H    -25.570100   42.961000   56.635000
  H    -24.233400   44.089400   56.569600
  C    -25.477500   44.218000   58.329600
  H    -26.323300   44.653200   57.814900
  H    -24.841800   44.936300   58.731700
  C    -26.009300   43.334300   59.479700
  H    -26.889500   43.792400   59.951300
  H    -25.224600   43.359000   60.231400
  H    -26.386700   42.338500   59.251800
  H    -20.354300   47.413900   57.582000
  H    -22.585400   39.371400   57.726700

 Total Charge           Charge          ....    0
 Multiplicity           Mult            ....    1
 Number of Electrons    NEL             ....  134
 Basis Dimension        Dim             ....  322

ORBITAL ENERGIES
----------------

  NO   OCC          E(Eh)            E(eV)
   0   2.0000     -88.976473     -2421.1729
   1   2.0000     -88.962552     -2420.7941
   2   2.0000     -10.326611      -281.0014
   3   2.0000     -10.319610      -280.8109
   4   2.0000     -10.311467      -280.5893
   5   2.0000     -10.310157      -280.5536
   6   2.0000     -10.300764      -280.2981
   7   2.0000     -10.295590      -280.1572
   8   2.0000     -10.292820      -280.0819
   9   2.0000     -10.290618      -280.0220
  10   2.0000     -10.286657      -279.9142
  11   2.0000     -10.286087      -279.8987
  12   2.0000     -10.283091      -279.8171
  13   2.0000     -10.280000      -279.7330
  14   2.0000     -10.277456      -279.6638
  15   2.0000     -10.272543      -279.5301
  16   2.0000      -8.090732      -220.1600
  17   2.0000      -8.077828      -219.8089
  18   2.0000      -6.049167      -164.6062
  19   2.0000      -6.045098      -164.4955
  20   2.0000      -6.041810      -164.4060
  21   2.0000      -6.036374      -164.2581
  22   2.0000      -6.032215      -164.1449
  23   2.0000      -6.028561      -164.0455
  24   2.0000      -1.012839       -27.5607
  25   2.0000      -0.989835       -26.9348
  26   2.0000      -0.918402       -24.9910
  27   2.0000      -0.913323       -24.8528
  28   2.0000      -0.869994       -23.6737
  29   2.0000      -0.852970       -23.2105
  30   2.0000      -0.848278       -23.0828
  31   2.0000      -0.813533       -22.1374
  32   2.0000      -0.782434       -21.2911
  33   2.0000      -0.771598       -20.9962
  34   2.0000      -0.715097       -19.4588
  35   2.0000      -0.701000       -19.0752
  36   2.0000      -0.688835       -18.7442
  37   2.0000      -0.659253       -17.9392
  38   2.0000      -0.641037       -17.4435
  39   2.0000      -0.612466       -16.6661
  40   2.0000      -0.595394       -16.2015
  41   2.0000      -0.581205       -15.8154
  42   2.0000      -0.560848       -15.2614
  43   2.0000      -0.558178       -15.1888
  44   2.0000      -0.544563       -14.8183
  45   2.0000      -0.532142       -14.4803
  46   2.0000      -0.518099       -14.0982
  47   2.0000      -0.508825       -13.8458
  48   2.0000      -0.505201       -13.7472
  49   2.0000      -0.493842       -13.4381
  50   2.0000      -0.487940       -13.2775
  51   2.0000      -0.480946       -13.0872
  52   2.0000      -0.474041       -12.8993
  53   2.0000      -0.469648       -12.7798
  54   2.0000      -0.467355       -12.7174
  55   2.0000      -0.446741       -12.1564
  56   2.0000      -0.436276       -11.8717
  57   2.0000      -0.434365       -11.8197
  58   2.0000      -0.429292       -11.6816
  59   2.0000      -0.424200       -11.5431
  60   2.0000      -0.419646       -11.4191
  61   2.0000      -0.410179       -11.1615
  62   2.0000      -0.405881       -11.0446
  63   2.0000      -0.337303        -9.1785
  64   2.0000      -0.334843        -9.1115
  65   2.0000      -0.322215        -8.7679
  66   2.0000      -0.299360        -8.1460
  67   0.0000       0.038143         1.0379
  68   0.0000       0.057214         1.5569
  69   0.0000       0.111108         3.0234
  70   0.0000       0.120607         3.2819
  71   0.0000       0.131042         3.5658

MULLIKEN ATOMIC CHARGES
-----------------------
   0 S :    0.153502
   1 C :   -0.082070
   2 C :   -0.084185
   3 C :    0.028630
   4 C :   -0.180543
   5 H :    0.016232
   6 C :    0.030147
   7 H :    0.044982
   8 H :    0.015264
   9 C :   -0.089363
  10 H :    0.020566
  11 H :    0.018329
  12 C :   -0.064970
  13 H :    0.049106
  14 H :    0.047378
  15 H :    0.044107
  16 S :    0.121671
  17 C :   -0.105816
  18 C :   -0.032359
  19 C :    0.011152
  20 C :   -0.182826
  21 H :    0.002826
  22 C :    0.050090
  23 H :    0.027161
  24 H :    0.017549
  25 C :   -0.025359
  26 H :    0.026640
  27 H :    0.022004
  28 C :   -0.060381
  29 H :    0.025308
  30 H :    0.035356
  31 H :    0.029270
  32 H :    0.007739
  33 H :    0.062861
Sum of atomic charges:   -0.0000000

LOEWDIN ATOMIC CHARGES
----------------------
   0 S :    0.451651
   1 C :   -0.199965
   2 C :   -0.060051
   3 C :   -0.062451
   4 C :   -0.210503
   5 H :    0.033142
   6 C :   -0.044033
   7 H :    0.038762
   8 H :    0.029464
   9 C :   -0.054853
  10 H :    0.023911
  11 H :    0.022558
  12 C :   -0.069483
  13 H :    0.032832
  14 H :    0.029434
  15 H :    0.033127
  16 S :    0.417308
  17 C :   -0.191161
  18 C :   -0.074399
  19 C :   -0.053210
  20 C :   -0.217080
  21 H :    0.026682
  22 C :   -0.042096
  23 H :    0.035879
  24 H :    0.032244
  25 C :   -0.024067
  26 H :    0.023900
  27 H :    0.016547
  28 C :   -0.069326
  29 H :    0.026858
  30 H :    0.027499
  31 H :    0.023208
  32 H :    0.009052
  33 H :    0.038619

  Mayer bond orders larger than 0.100000
B(  0-S ,  1-C ) :   1.1515 B(  0-S ,  4-C ) :   1.1884 B(  1-C ,  2-C ) :   1.5531
B(  1-C ,  4-C ) :   0.1099 B(  1-C , 32-H ) :   0.9764 B(  2-C ,  3-C ) :   1.2899
B(  2-C ,  6-C ) :   1.0241 B(  3-C ,  4-C ) :   1.5175 B(  3-C ,  5-H ) :   0.9963
B(  4-C , 20-C ) :   1.0320 B(  6-C ,  7-H ) :   0.9337 B(  6-C ,  8-H ) :   0.9471
B(  6-C ,  9-C ) :   1.0740 B(  9-C , 10-H ) :   0.9485 B(  9-C , 11-H ) :   0.9552
B(  9-C , 12-C ) :   1.0641 B( 12-C , 13-H ) :   0.9770 B( 12-C , 14-H ) :   0.9731
B( 12-C , 15-H ) :   0.9741 B( 16-S , 17-C ) :   1.1476 B( 16-S , 20-C ) :   1.1473
B( 17-C , 18-C ) :   1.6278 B( 17-C , 33-H ) :   0.9626 B( 18-C , 19-C ) :   1.2336
B( 18-C , 21-H ) :   0.9939 B( 19-C , 20-C ) :   1.5651 B( 19-C , 22-C ) :   1.0454
B( 22-C , 23-H ) :   0.9420 B( 22-C , 24-H ) :   0.9084 B( 22-C , 25-C ) :   1.0881
B( 25-C , 26-H ) :   0.9592 B( 25-C , 27-H ) :   0.9580 B( 25-C , 28-C ) :   1.0688
B( 28-C , 29-H ) :   0.9753 B( 28-C , 30-H ) :   0.9764 B( 28-C , 31-H ) :   0.9782

Dispersion correction           -0.015182802
FINAL SINGLE POINT ENERGY     -1339.866745913830

DIPOLE MOMENT
-------------
                                X             Y             Z
Electronic contribution:     13.45597     -16.55042     -13.17145
Nuclear contribution   :    -13.68812      16.75583      13.32788
                        -----------------------------------------
Total Dipole Moment    :     -0.23216       0.20541       0.15642
                        -----------------------------------------
Magnitude (a.u.)       :      0.34722
Magnitude (Debye)      :      0.88255

Rotational constants in cm-1:     0.021054     0.008575     0.007394
Rotational constants in MHz :   631.173597   257.067484   221.654737

                             ****ORCA TERMINATED NORMALLY****
TOTAL RUN TIME: 0 days 0 hours 0 minutes 35 seconds 214 msec
