                         Program Version 4.2.1 -  RELEASE  -
|  1> ! wB97X-D3 SP def2-SVP
|  2> %pal
|  3> nprocs 16
|  4> end
|  5>
|  6> * xyz 0 1
|  7> S 	 -21.5031 	 47.8847 	 64.7027
|  8> C 	 -22.1436 	 49.1565 	 63.6479
|  9> C 	 -21.7209 	 50.3712 	 64.1774
| 10> C 	 -21.2237 	 50.2882 	 65.5398
| 11> C 	 -21.1872 	 48.9877 	 66.0081
| 12> H 	 -21.1849 	 51.0788 	 66.2363
| 13> C 	 -21.6854 	 51.6331 	 63.3808
| 14> H 	 -22.3121 	 52.3947 	 63.8387
| 15> H 	 -22.027 	 51.4969 	 62.354
| 16> C 	 -20.358 	 52.3799 	 63.3198
| 17> H 	 -20.4563 	 53.1353 	 62.5724
| 18> H 	 -20.1566 	 52.8833 	 64.2694
| 19> C 	 -19.1058 	 51.5652 	 62.9106
| 20> H 	 -19.3864 	 51.0609 	 61.9421
| 21> H 	 -18.2792 	 52.1289 	 62.794
| 22> H 	 -18.8895 	 50.7647 	 63.6159
| 23> S 	 -22.0705 	 46.9171 	 67.5662
| 24> C 	 -21.5143 	 46.8292 	 69.2228
| 25> C 	 -20.8169 	 47.962 	 69.6044
| 26> C 	 -20.6468 	 48.8896 	 68.545
| 27> C 	 -21.101 	 48.4213 	 67.3479
| 28> H 	 -20.505 	 48.2103 	 70.6605
| 29> C 	 -19.873 	 50.2332 	 68.7878
| 30> H 	 -19.9974 	 50.5463 	 69.8382
| 31> H 	 -20.4102 	 50.9462 	 68.1946
| 32> C 	 -18.4876 	 50.1953 	 68.3636
| 33> H 	 -18.4182 	 50.0612 	 67.3138
| 34> H 	 -17.9521 	 49.3285 	 68.7709
| 35> C 	 -17.7044 	 51.4415 	 68.865
| 36> H 	 -18.0725 	 52.2963 	 68.2666
| 37> H 	 -16.6087 	 51.3034 	 68.7834
| 38> H 	 -17.8544 	 51.6633 	 69.9498
| 39> H 	 -22.3323 	 48.9292 	 62.6378
| 40> H 	 -21.7844 	 45.9814 	 69.745
| 41> *
| 42>
| 43>                          ****END OF INPUT****

CARTESIAN COORDINATES (ANGSTROEM)
---------------------------------
  S    -21.503100   47.884700   64.702700
  C    -22.143600   49.156500   63.647900
  C    -21.720900   50.371200   64.177400
  C    -21.223700   50.288200   65.539800
  C    -21.187200   48.987700   66.008100
  H    -21.184900   51.078800   66.236300
  C    -21.685400   51.633100   63.380800
  H    -22.312100   52.394700   63.838700
  H    -22.027000   51.496900   62.354000
  C    -20.358000   52.379900   63.319800
  H    -20.456300   53.135300   62.572400
  H    -20.156600   52.883300   64.269400
  C    -19.105800   51.565200   62.910600
  H    -19.386400   51.060900   61.942100
  H    -18.279200   52.128900   62.794000
  H    -18.889500   50.764700   63.615900
  S    -22.070500   46.917100   67.566200
  C    -21.514300   46.829200   69.222800
  C    -20.816900   47.962000   69.604400
  C    -20.646800   48.889600   68.545000
  C    -21.101000   48.421300   67.347900
  H    -20.505000   48.210300   70.660500
  C    -19.873000   50.233200   68.787800
  H    -19.997400   50.546300   69.838200
  H    -20.410200   50.946200   68.194600
  C    -18.487600   50.195300   68.363600
  H    -18.418200   50.061200   67.313800
  H    -17.952100   49.328500   68.770900
  C    -17.704400   51.441500   68.865000
  H    -18.072500   52.296300   68.266600
  H    -16.608700   51.303400   68.783400
  H    -17.854400   51.663300   69.949800
  H    -22.332300   48.929200   62.637800
  H    -21.784400   45.981400   69.745000

 Total Charge           Charge          ....    0
 Multiplicity           Mult            ....    1
 Number of Electrons    NEL             ....  134
 Basis Dimension        Dim             ....  322

ORBITAL ENERGIES
----------------

  NO   OCC          E(Eh)            E(eV)
   0   2.0000     -88.965001     -2420.8607
   1   2.0000     -88.960031     -2420.7255
   2   2.0000     -10.333740      -281.1954
   3   2.0000     -10.329258      -281.0734
   4   2.0000     -10.315664      -280.7035
   5   2.0000     -10.311950      -280.6024
   6   2.0000     -10.307730      -280.4876
   7   2.0000     -10.304477      -280.3991
   8   2.0000     -10.300763      -280.2980
   9   2.0000     -10.294361      -280.1238
  10   2.0000     -10.293214      -280.0926
  11   2.0000     -10.288849      -279.9738
  12   2.0000     -10.285727      -279.8889
  13   2.0000     -10.283596      -279.8309
  14   2.0000     -10.279450      -279.7181
  15   2.0000     -10.268329      -279.4154
  16   2.0000      -8.079132      -219.8444
  17   2.0000      -8.075202      -219.7374
  18   2.0000      -6.037637      -164.2925
  19   2.0000      -6.033812      -164.1884
  20   2.0000      -6.033796      -164.1879
  21   2.0000      -6.029798      -164.0792
  22   2.0000      -6.029679      -164.0759
  23   2.0000      -6.025780      -163.9698
  24   2.0000      -1.008313       -27.4376
  25   2.0000      -0.983329       -26.7577
  26   2.0000      -0.919541       -25.0220
  27   2.0000      -0.914247       -24.8779
  28   2.0000      -0.869102       -23.6495
  29   2.0000      -0.852907       -23.2088
  30   2.0000      -0.839224       -22.8364
  31   2.0000      -0.816004       -22.2046
  32   2.0000      -0.785435       -21.3728
  33   2.0000      -0.777690       -21.1620
  34   2.0000      -0.709142       -19.2967
  35   2.0000      -0.698970       -19.0199
  36   2.0000      -0.695800       -18.9337
  37   2.0000      -0.665005       -18.0957
  38   2.0000      -0.644813       -17.5463
  39   2.0000      -0.622935       -16.9509
  40   2.0000      -0.604089       -16.4381
  41   2.0000      -0.572594       -15.5811
  42   2.0000      -0.561214       -15.2714
  43   2.0000      -0.558229       -15.1902
  44   2.0000      -0.544728       -14.8228
  45   2.0000      -0.530658       -14.4399
  46   2.0000      -0.519322       -14.1315
  47   2.0000      -0.517428       -14.0799
  48   2.0000      -0.507650       -13.8139
  49   2.0000      -0.497104       -13.5269
  50   2.0000      -0.490984       -13.3604
  51   2.0000      -0.480914       -13.0863
  52   2.0000      -0.469619       -12.7790
  53   2.0000      -0.465129       -12.6568
  54   2.0000      -0.457321       -12.4443
  55   2.0000      -0.451198       -12.2777
  56   2.0000      -0.446934       -12.1617
  57   2.0000      -0.444924       -12.1070
  58   2.0000      -0.430984       -11.7277
  59   2.0000      -0.425118       -11.5681
  60   2.0000      -0.418117       -11.3775
  61   2.0000      -0.412078       -11.2132
  62   2.0000      -0.406077       -11.0499
  63   2.0000      -0.358986        -9.7685
  64   2.0000      -0.335092        -9.1183
  65   2.0000      -0.321559        -8.7501
  66   2.0000      -0.288219        -7.8428
  67   0.0000       0.016056         0.4369
  68   0.0000       0.076384         2.0785
  69   0.0000       0.094414         2.5691
  70   0.0000       0.104656         2.8478
  71   0.0000       0.129578         3.5260

MULLIKEN ATOMIC CHARGES
-----------------------
   0 S :    0.071260
   1 C :   -0.092984
   2 C :   -0.105114
   3 C :    0.029678
   4 C :   -0.126144
   5 H :   -0.000546
   6 C :    0.083812
   7 H :    0.031731
   8 H :    0.017689
   9 C :   -0.101139
  10 H :    0.024045
  11 H :    0.024071
  12 C :   -0.022387
  13 H :    0.022858
  14 H :    0.015172
  15 H :    0.038580
  16 S :    0.092953
  17 C :   -0.064554
  18 C :   -0.025355
  19 C :   -0.076687
  20 C :   -0.114077
  21 H :    0.036682
  22 C :    0.087037
  23 H :    0.017880
  24 H :    0.005908
  25 C :   -0.037756
  26 H :    0.026147
  27 H :    0.022922
  28 C :   -0.072846
  29 H :    0.035307
  30 H :    0.043583
  31 H :    0.034333
  32 H :    0.043209
  33 H :    0.034731
Sum of atomic charges:   -0.0000000

LOEWDIN ATOMIC CHARGES
----------------------
   0 S :    0.389631
   1 C :   -0.186690
   2 C :   -0.050456
   3 C :   -0.074818
   4 C :   -0.175232
   5 H :    0.020653
   6 C :   -0.035390
   7 H :    0.036481
   8 H :    0.028958
   9 C :   -0.037412
  10 H :    0.022708
  11 H :    0.018673
  12 C :   -0.057379
  13 H :    0.029725
  14 H :    0.008031
  15 H :    0.026174
  16 S :    0.387689
  17 C :   -0.162917
  18 C :   -0.075401
  19 C :   -0.051268
  20 C :   -0.183723
  21 H :    0.041517
  22 C :   -0.022812
  23 H :    0.031087
  24 H :    0.023329
  25 C :   -0.043312
  26 H :    0.023527
  27 H :    0.025920
  28 C :   -0.068547
  29 H :    0.026138
  30 H :    0.029368
  31 H :    0.027080
  32 H :    0.017980
  33 H :    0.010687

  Mayer bond orders larger than 0.100000
B(  0-S ,  1-C ) :   1.1063 B(  0-S ,  4-C ) :   1.1606 B(  1-C ,  2-C ) :   1.6219
B(  1-C , 32-H ) :   0.9729 B(  2-C ,  3-C ) :   1.2059 B(  2-C ,  6-C ) :   1.0480
B(  3-C ,  4-C ) :   1.5787 B(  3-C ,  5-H ) :   0.9883 B(  4-C , 20-C ) :   1.0556
B(  6-C ,  7-H ) :   0.9284 B(  6-C ,  8-H ) :   0.9437 B(  6-C ,  9-C ) :   1.0787
B(  9-C , 10-H ) :   0.9564 B(  9-C , 11-H ) :   0.9512 B(  9-C , 12-C ) :   1.0811
B( 12-C , 13-H ) :   0.9747 B( 12-C , 14-H ) :   0.9758 B( 12-C , 15-H ) :   0.9723
B( 16-S , 17-C ) :   1.1568 B( 16-S , 20-C ) :   1.1240 B( 17-C , 18-C ) :   1.5769
B( 17-C , 20-C ) :   0.1036 B( 17-C , 33-H ) :   0.9835 B( 18-C , 19-C ) :   1.2518
B( 18-C , 21-H ) :   0.9823 B( 19-C , 20-C ) :   1.6247 B( 19-C , 22-C ) :   1.0260
B( 22-C , 23-H ) :   0.9341 B( 22-C , 24-H ) :   0.9258 B( 22-C , 25-C ) :   1.0835
B( 25-C , 26-H ) :   0.9480 B( 25-C , 27-H ) :   0.9511 B( 25-C , 28-C ) :   1.0758
B( 28-C , 29-H ) :   0.9757 B( 28-C , 30-H ) :   0.9762 B( 28-C , 31-H ) :   0.9755

Dispersion correction           -0.014674535
FINAL SINGLE POINT ENERGY     -1339.866079718762

DIPOLE MOMENT
-------------
                                X             Y             Z
Electronic contribution:    -16.60824     -24.44690       2.09938
Nuclear contribution   :     16.84822      25.04769      -1.91184
                        -----------------------------------------
Total Dipole Moment    :      0.23998       0.60079       0.18754
                        -----------------------------------------
Magnitude (a.u.)       :      0.67358
Magnitude (Debye)      :      1.71209

Rotational constants in cm-1:     0.017538     0.010225     0.006967
Rotational constants in MHz :   525.765388   306.550535   208.862584

                             ****ORCA TERMINATED NORMALLY****
TOTAL RUN TIME: 0 days 0 hours 0 minutes 34 seconds 527 msec
