                         Program Version 4.2.1 -  RELEASE  -
|  1> ! wB97X-D3 SP def2-SVP
|  2> %pal
|  3> nprocs 16
|  4> end
|  5>
|  6> * xyz 0 1
|  7> S 	 38.3335 	 11.2129 	 77.0033
|  8> C 	 38.9804 	 9.76663 	 77.8024
|  9> C 	 39.5276 	 10.127 	 79.0567
| 10> C 	 39.3484 	 11.5367 	 79.321
| 11> C 	 38.7003 	 12.2591 	 78.3453
| 12> H 	 39.6392 	 12.0701 	 80.2418
| 13> C 	 40.1191 	 9.05281 	 80.0264
| 14> H 	 39.3567 	 8.49112 	 80.5529
| 15> H 	 40.4944 	 9.61095 	 80.8358
| 16> C 	 41.2336 	 8.12214 	 79.5336
| 17> H 	 41.5718 	 7.55043 	 80.4775
| 18> H 	 40.8834 	 7.3351 	 78.8587
| 19> C 	 42.3278 	 8.81691 	 78.7488
| 20> H 	 42.0446 	 9.32143 	 77.8924
| 21> H 	 42.9585 	 9.54743 	 79.3781
| 22> H 	 43.0705 	 8.01138 	 78.4365
| 23> S 	 39.1506 	 14.3288 	 76.6274
| 24> C 	 38.8713 	 16.0072 	 77.1183
| 25> C 	 38.5638 	 16.0971 	 78.449
| 26> C 	 38.3479 	 14.8086 	 79.0097
| 27> C 	 38.6162 	 13.7109 	 78.1848
| 28> H 	 38.3331 	 17.0012 	 78.9044
| 29> C 	 37.8083 	 14.7022 	 80.4392
| 30> H 	 37.9555 	 13.673 	 80.7789
| 31> H 	 36.7502 	 14.8977 	 80.3769
| 32> C 	 38.5505 	 15.617 	 81.464
| 33> H 	 38.0235 	 15.466 	 82.4008
| 34> H 	 38.4498 	 16.678 	 81.163
| 35> C 	 40.0574 	 15.385 	 81.5671
| 36> H 	 40.3501 	 14.4722 	 82.0852
| 37> H 	 40.55 	 16.1962 	 82.0568
| 38> H 	 40.5139 	 15.2936 	 80.6095
| 39> H 	 38.8375 	 8.76359 	 77.3698
| 40> H 	 38.8463 	 16.816 	 76.3751
| 41> *
| 42>
| 43>                          ****END OF INPUT****

CARTESIAN COORDINATES (ANGSTROEM)
---------------------------------
  S     38.333500   11.212900   77.003300
  C     38.980400    9.766630   77.802400
  C     39.527600   10.127000   79.056700
  C     39.348400   11.536700   79.321000
  C     38.700300   12.259100   78.345300
  H     39.639200   12.070100   80.241800
  C     40.119100    9.052810   80.026400
  H     39.356700    8.491120   80.552900
  H     40.494400    9.610950   80.835800
  C     41.233600    8.122140   79.533600
  H     41.571800    7.550430   80.477500
  H     40.883400    7.335100   78.858700
  C     42.327800    8.816910   78.748800
  H     42.044600    9.321430   77.892400
  H     42.958500    9.547430   79.378100
  H     43.070500    8.011380   78.436500
  S     39.150600   14.328800   76.627400
  C     38.871300   16.007200   77.118300
  C     38.563800   16.097100   78.449000
  C     38.347900   14.808600   79.009700
  C     38.616200   13.710900   78.184800
  H     38.333100   17.001200   78.904400
  C     37.808300   14.702200   80.439200
  H     37.955500   13.673000   80.778900
  H     36.750200   14.897700   80.376900
  C     38.550500   15.617000   81.464000
  H     38.023500   15.466000   82.400800
  H     38.449800   16.678000   81.163000
  C     40.057400   15.385000   81.567100
  H     40.350100   14.472200   82.085200
  H     40.550000   16.196200   82.056800
  H     40.513900   15.293600   80.609500
  H     38.837500    8.763590   77.369800
  H     38.846300   16.816000   76.375100

 Total Charge           Charge          ....    0
 Multiplicity           Mult            ....    1
 Number of Electrons    NEL             ....  134
 Basis Dimension        Dim             ....  322

ORBITAL ENERGIES
----------------

  NO   OCC          E(Eh)            E(eV)
   0   2.0000     -88.966210     -2420.8936
   1   2.0000     -88.961678     -2420.7703
   2   2.0000     -10.332183      -281.1530
   3   2.0000     -10.329579      -281.0821
   4   2.0000     -10.323679      -280.9216
   5   2.0000     -10.320887      -280.8456
   6   2.0000     -10.313545      -280.6458
   7   2.0000     -10.303444      -280.3710
   8   2.0000     -10.300748      -280.2976
   9   2.0000     -10.295512      -280.1551
  10   2.0000     -10.291770      -280.0533
  11   2.0000     -10.290432      -280.0169
  12   2.0000     -10.290411      -280.0163
  13   2.0000     -10.290327      -280.0140
  14   2.0000     -10.278854      -279.7018
  15   2.0000     -10.270834      -279.4836
  16   2.0000      -8.080737      -219.8880
  17   2.0000      -8.076292      -219.7671
  18   2.0000      -6.039214      -164.3354
  19   2.0000      -6.035152      -164.2248
  20   2.0000      -6.034877      -164.2174
  21   2.0000      -6.031640      -164.1293
  22   2.0000      -6.030741      -164.1048
  23   2.0000      -6.027031      -164.0039
  24   2.0000      -1.005325       -27.3563
  25   2.0000      -0.980945       -26.6929
  26   2.0000      -0.909751       -24.7556
  27   2.0000      -0.905144       -24.6302
  28   2.0000      -0.869274       -23.6541
  29   2.0000      -0.847115       -23.0512
  30   2.0000      -0.840392       -22.8682
  31   2.0000      -0.815768       -22.1982
  32   2.0000      -0.785753       -21.3814
  33   2.0000      -0.774880       -21.0856
  34   2.0000      -0.705623       -19.2010
  35   2.0000      -0.699557       -19.0359
  36   2.0000      -0.692267       -18.8375
  37   2.0000      -0.662419       -18.0253
  38   2.0000      -0.641888       -17.4667
  39   2.0000      -0.612418       -16.6648
  40   2.0000      -0.595815       -16.2129
  41   2.0000      -0.572428       -15.5766
  42   2.0000      -0.555957       -15.1284
  43   2.0000      -0.549534       -14.9536
  44   2.0000      -0.544351       -14.8126
  45   2.0000      -0.535693       -14.5769
  46   2.0000      -0.519284       -14.1304
  47   2.0000      -0.510670       -13.8960
  48   2.0000      -0.503695       -13.7062
  49   2.0000      -0.499262       -13.5856
  50   2.0000      -0.492078       -13.3901
  51   2.0000      -0.478010       -13.0073
  52   2.0000      -0.469068       -12.7640
  53   2.0000      -0.464782       -12.6474
  54   2.0000      -0.457485       -12.4488
  55   2.0000      -0.447251       -12.1703
  56   2.0000      -0.443094       -12.0572
  57   2.0000      -0.441236       -12.0066
  58   2.0000      -0.429240       -11.6802
  59   2.0000      -0.425859       -11.5882
  60   2.0000      -0.418587       -11.3903
  61   2.0000      -0.411408       -11.1950
  62   2.0000      -0.404372       -11.0035
  63   2.0000      -0.352847        -9.6015
  64   2.0000      -0.331413        -9.0182
  65   2.0000      -0.329535        -8.9671
  66   2.0000      -0.289783        -7.8854
  67   0.0000       0.024399         0.6639
  68   0.0000       0.070484         1.9180
  69   0.0000       0.108938         2.9644
  70   0.0000       0.116987         3.1834
  71   0.0000       0.132862         3.6154

MULLIKEN ATOMIC CHARGES
-----------------------
   0 S :    0.094426
   1 C :   -0.135570
   2 C :   -0.112005
   3 C :    0.028905
   4 C :   -0.144367
   5 H :    0.018759
   6 C :    0.112429
   7 H :    0.036801
   8 H :   -0.004303
   9 C :   -0.096773
  10 H :    0.043695
  11 H :    0.029346
  12 C :   -0.061944
  13 H :    0.037665
  14 H :    0.034238
  15 H :    0.036332
  16 S :    0.084544
  17 C :   -0.099865
  18 C :    0.011834
  19 C :   -0.098707
  20 C :   -0.117894
  21 H :   -0.002595
  22 C :    0.081028
  23 H :    0.015011
  24 H :    0.044103
  25 C :   -0.089952
  26 H :    0.034181
  27 H :    0.029808
  28 C :   -0.038099
  29 H :    0.025307
  30 H :    0.029477
  31 H :    0.034856
  32 H :    0.071220
  33 H :    0.068112
Sum of atomic charges:    0.0000000

LOEWDIN ATOMIC CHARGES
----------------------
   0 S :    0.402410
   1 C :   -0.190686
   2 C :   -0.059600
   3 C :   -0.067539
   4 C :   -0.200251
   5 H :    0.033679
   6 C :   -0.034555
   7 H :    0.034724
   8 H :    0.022655
   9 C :   -0.048392
  10 H :    0.037846
  11 H :    0.021858
  12 C :   -0.068778
  13 H :    0.015540
  14 H :    0.030214
  15 H :    0.034118
  16 S :    0.389726
  17 C :   -0.168381
  18 C :   -0.066619
  19 C :   -0.060411
  20 C :   -0.197289
  21 H :    0.022506
  22 C :   -0.028225
  23 H :    0.026244
  24 H :    0.033557
  25 C :   -0.038970
  26 H :    0.025352
  27 H :    0.022846
  28 C :   -0.065284
  29 H :    0.023042
  30 H :    0.025765
  31 H :    0.025238
  32 H :    0.035169
  33 H :    0.032493

  Mayer bond orders larger than 0.100000
B(  0-S ,  1-C ) :   1.1487 B(  0-S ,  4-C ) :   1.1551 B(  1-C ,  2-C ) :   1.5678
B(  1-C ,  4-C ) :   0.1016 B(  1-C , 32-H ) :   0.9733 B(  2-C ,  3-C ) :   1.2688
B(  2-C ,  6-C ) :   1.0048 B(  3-C ,  4-C ) :   1.5637 B(  3-C ,  5-H ) :   0.9818
B(  4-C , 20-C ) :   1.0322 B(  6-C ,  7-H ) :   0.9387 B(  6-C ,  8-H ) :   0.9328
B(  6-C ,  9-C ) :   1.0731 B(  9-C , 10-H ) :   0.9538 B(  9-C , 11-H ) :   0.9543
B(  9-C , 12-C ) :   1.0795 B( 12-C , 13-H ) :   0.9708 B( 12-C , 14-H ) :   0.9761
B( 12-C , 15-H ) :   0.9726 B( 16-S , 17-C ) :   1.1602 B( 16-S , 20-C ) :   1.1303
B( 17-C , 18-C ) :   1.5912 B( 17-C , 33-H ) :   0.9643 B( 18-C , 19-C ) :   1.2441
B( 18-C , 21-H ) :   1.0042 B( 19-C , 20-C ) :   1.6001 B( 19-C , 22-C ) :   1.0295
B( 22-C , 23-H ) :   0.9405 B( 22-C , 24-H ) :   0.9369 B( 22-C , 25-C ) :   1.0680
B( 25-C , 26-H ) :   0.9577 B( 25-C , 27-H ) :   0.9549 B( 25-C , 28-C ) :   1.0751
B( 28-C , 29-H ) :   0.9736 B( 28-C , 30-H ) :   0.9739 B( 28-C , 31-H ) :   0.9713

Dispersion correction           -0.014557649
FINAL SINGLE POINT ENERGY     -1339.879113573841

DIPOLE MOMENT
-------------
                                X             Y             Z
Electronic contribution:    -11.46327       5.28974     -21.10237
Nuclear contribution   :     11.52249      -5.30914      21.68356
                        -----------------------------------------
Total Dipole Moment    :      0.05922      -0.01940       0.58119
                        -----------------------------------------
Magnitude (a.u.)       :      0.58453
Magnitude (Debye)      :      1.48575

Rotational constants in cm-1:     0.020565     0.008210     0.006721
Rotational constants in MHz :   616.532223   246.141813   201.503491

                             ****ORCA TERMINATED NORMALLY****
TOTAL RUN TIME: 0 days 0 hours 0 minutes 29 seconds 884 msec
