                         Program Version 4.2.1 -  RELEASE  -
|  1> ! wB97X-D3 SP def2-SVP
|  2> %pal
|  3> nprocs 16
|  4> end
|  5>
|  6> * xyz 0 1
|  7> S 	 -47.1687 	 4.31924 	 95.1221
|  8> C 	 -48.2934 	 3.85958 	 96.5181
|  9> C 	 -49.2573 	 2.97251 	 96.08
| 10> C 	 -49.2807 	 2.88705 	 94.6317
| 11> C 	 -48.2692 	 3.60242 	 93.9914
| 12> H 	 -49.9843 	 2.37558 	 94.0556
| 13> C 	 -50.3468 	 2.21605 	 96.8897
| 14> H 	 -49.9334 	 1.25657 	 97.1962
| 15> H 	 -51.1285 	 2.00679 	 96.1811
| 16> C 	 -50.9254 	 2.90808 	 98.0706
| 17> H 	 -51.5934 	 2.16867 	 98.6185
| 18> H 	 -50.0902 	 3.17204 	 98.7533
| 19> C 	 -51.6705 	 4.06293 	 97.6945
| 20> H 	 -51.4881 	 4.88096 	 98.3915
| 21> H 	 -51.3706 	 4.50268 	 96.7277
| 22> H 	 -52.7298 	 3.80056 	 97.5775
| 23> S 	 -49.4508 	 4.5889 	 91.7271
| 24> C 	 -48.4934 	 4.65544 	 90.3159
| 25> C 	 -47.2624 	 4.16452 	 90.4886
| 26> C 	 -46.9636 	 3.74284 	 91.7787
| 27> C 	 -48.1231 	 3.87883 	 92.5755
| 28> H 	 -46.5767 	 4.24216 	 89.67
| 29> C 	 -45.5621 	 3.29775 	 92.1357
| 30> H 	 -45.4583 	 2.8629 	 93.1332
| 31> H 	 -44.924 	 4.23413 	 92.1566
| 32> C 	 -44.8401 	 2.38718 	 91.09
| 33> H 	 -43.904 	 2.06475 	 91.5682
| 34> H 	 -44.4483 	 2.94364 	 90.2266
| 35> C 	 -45.7213 	 1.18141 	 90.6564
| 36> H 	 -45.0724 	 0.569346 	 89.9459
| 37> H 	 -46.6825 	 1.29727 	 90.1861
| 38> H 	 -45.8258 	 0.571743 	 91.4919
| 39> H 	 -48.1422 	 4.09911 	 97.6104
| 40> H 	 -48.8272 	 4.95652 	 89.3136
| 41> *
| 42>
| 43>                          ****END OF INPUT****

CARTESIAN COORDINATES (ANGSTROEM)
---------------------------------
  S    -47.168700    4.319240   95.122100
  C    -48.293400    3.859580   96.518100
  C    -49.257300    2.972510   96.080000
  C    -49.280700    2.887050   94.631700
  C    -48.269200    3.602420   93.991400
  H    -49.984300    2.375580   94.055600
  C    -50.346800    2.216050   96.889700
  H    -49.933400    1.256570   97.196200
  H    -51.128500    2.006790   96.181100
  C    -50.925400    2.908080   98.070600
  H    -51.593400    2.168670   98.618500
  H    -50.090200    3.172040   98.753300
  C    -51.670500    4.062930   97.694500
  H    -51.488100    4.880960   98.391500
  H    -51.370600    4.502680   96.727700
  H    -52.729800    3.800560   97.577500
  S    -49.450800    4.588900   91.727100
  C    -48.493400    4.655440   90.315900
  C    -47.262400    4.164520   90.488600
  C    -46.963600    3.742840   91.778700
  C    -48.123100    3.878830   92.575500
  H    -46.576700    4.242160   89.670000
  C    -45.562100    3.297750   92.135700
  H    -45.458300    2.862900   93.133200
  H    -44.924000    4.234130   92.156600
  C    -44.840100    2.387180   91.090000
  H    -43.904000    2.064750   91.568200
  H    -44.448300    2.943640   90.226600
  C    -45.721300    1.181410   90.656400
  H    -45.072400    0.569346   89.945900
  H    -46.682500    1.297270   90.186100
  H    -45.825800    0.571743   91.491900
  H    -48.142200    4.099110   97.610400
  H    -48.827200    4.956520   89.313600

 Total Charge           Charge          ....    0
 Multiplicity           Mult            ....    1
 Number of Electrons    NEL             ....  134
 Basis Dimension        Dim             ....  322

ORBITAL ENERGIES
----------------

  NO   OCC          E(Eh)            E(eV)
   0   2.0000     -88.968628     -2420.9595
   1   2.0000     -88.965243     -2420.8673
   2   2.0000     -10.326631      -281.0019
   3   2.0000     -10.323517      -280.9172
   4   2.0000     -10.322684      -280.8945
   5   2.0000     -10.307264      -280.4749
   6   2.0000     -10.306357      -280.4502
   7   2.0000     -10.300914      -280.3021
   8   2.0000     -10.297301      -280.2038
   9   2.0000     -10.293284      -280.0945
  10   2.0000     -10.289776      -279.9990
  11   2.0000     -10.289534      -279.9924
  12   2.0000     -10.282037      -279.7885
  13   2.0000     -10.280114      -279.7361
  14   2.0000     -10.273918      -279.5675
  15   2.0000     -10.267026      -279.3800
  16   2.0000      -8.084306      -219.9852
  17   2.0000      -8.078558      -219.8287
  18   2.0000      -6.042665      -164.4293
  19   2.0000      -6.038729      -164.3222
  20   2.0000      -6.037377      -164.2854
  21   2.0000      -6.035127      -164.2241
  22   2.0000      -6.033325      -164.1751
  23   2.0000      -6.029011      -164.0577
  24   2.0000      -1.011929       -27.5360
  25   2.0000      -0.979475       -26.6529
  26   2.0000      -0.926615       -25.2145
  27   2.0000      -0.906540       -24.6682
  28   2.0000      -0.870948       -23.6997
  29   2.0000      -0.851769       -23.1778
  30   2.0000      -0.840163       -22.8620
  31   2.0000      -0.809151       -22.0181
  32   2.0000      -0.787524       -21.4296
  33   2.0000      -0.776068       -21.1179
  34   2.0000      -0.709183       -19.2978
  35   2.0000      -0.696311       -18.9476
  36   2.0000      -0.691831       -18.8257
  37   2.0000      -0.655215       -17.8293
  38   2.0000      -0.631322       -17.1791
  39   2.0000      -0.609082       -16.5740
  40   2.0000      -0.598332       -16.2815
  41   2.0000      -0.581352       -15.8194
  42   2.0000      -0.560622       -15.2553
  43   2.0000      -0.548175       -14.9166
  44   2.0000      -0.542074       -14.7506
  45   2.0000      -0.533704       -14.5228
  46   2.0000      -0.517751       -14.0887
  47   2.0000      -0.513697       -13.9784
  48   2.0000      -0.500363       -13.6156
  49   2.0000      -0.494848       -13.4655
  50   2.0000      -0.488307       -13.2875
  51   2.0000      -0.477981       -13.0065
  52   2.0000      -0.474625       -12.9152
  53   2.0000      -0.465366       -12.6633
  54   2.0000      -0.456440       -12.4204
  55   2.0000      -0.452358       -12.3093
  56   2.0000      -0.443387       -12.0652
  57   2.0000      -0.434931       -11.8351
  58   2.0000      -0.429729       -11.6935
  59   2.0000      -0.421755       -11.4765
  60   2.0000      -0.416361       -11.3298
  61   2.0000      -0.415349       -11.3022
  62   2.0000      -0.408942       -11.1279
  63   2.0000      -0.344537        -9.3753
  64   2.0000      -0.332706        -9.0534
  65   2.0000      -0.327733        -8.9181
  66   2.0000      -0.289966        -7.8904
  67   0.0000       0.032623         0.8877
  68   0.0000       0.071173         1.9367
  69   0.0000       0.094940         2.5834
  70   0.0000       0.120024         3.2660
  71   0.0000       0.127375         3.4661

MULLIKEN ATOMIC CHARGES
-----------------------
   0 S :    0.098558
   1 C :   -0.165543
   2 C :   -0.085546
   3 C :    0.024263
   4 C :   -0.143760
   5 H :   -0.014214
   6 C :    0.094596
   7 H :    0.038188
   8 H :    0.012267
   9 C :   -0.090335
  10 H :    0.038123
  11 H :    0.026974
  12 C :   -0.042472
  13 H :    0.029792
  14 H :    0.037215
  15 H :    0.034355
  16 S :    0.140084
  17 C :   -0.089394
  18 C :   -0.034624
  19 C :   -0.014610
  20 C :   -0.174685
  21 H :    0.004583
  22 C :    0.049880
  23 H :    0.030603
  24 H :    0.050124
  25 C :   -0.090972
  26 H :    0.030911
  27 H :    0.028966
  28 C :   -0.040350
  29 H :    0.029697
  30 H :    0.050661
  31 H :    0.018739
  32 H :    0.065508
  33 H :    0.052417
Sum of atomic charges:   -0.0000000

LOEWDIN ATOMIC CHARGES
----------------------
   0 S :    0.377783
   1 C :   -0.188407
   2 C :   -0.055114
   3 C :   -0.066365
   4 C :   -0.189361
   5 H :    0.018060
   6 C :   -0.024914
   7 H :    0.034331
   8 H :    0.025487
   9 C :   -0.056752
  10 H :    0.034986
  11 H :    0.023697
  12 C :   -0.072707
  13 H :    0.029692
  14 H :    0.030100
  15 H :    0.030351
  16 S :    0.442287
  17 C :   -0.202891
  18 C :   -0.072023
  19 C :   -0.056676
  20 C :   -0.212409
  21 H :    0.029388
  22 C :   -0.040728
  23 H :    0.025216
  24 H :    0.044886
  25 C :   -0.041495
  26 H :    0.030593
  27 H :    0.019899
  28 C :   -0.066212
  29 H :    0.032830
  30 H :    0.026881
  31 H :    0.017672
  32 H :    0.038049
  33 H :    0.033868

  Mayer bond orders larger than 0.100000
B(  0-S ,  1-C ) :   1.1023 B(  0-S ,  4-C ) :   1.1394 B(  1-C ,  2-C ) :   1.6519
B(  1-C , 32-H ) :   0.9608 B(  2-C ,  3-C ) :   1.1931 B(  2-C ,  6-C ) :   0.9986
B(  3-C ,  4-C ) :   1.5960 B(  3-C ,  5-H ) :   1.0054 B(  4-C , 20-C ) :   1.0381
B(  6-C ,  7-H ) :   0.9261 B(  6-C ,  8-H ) :   0.9457 B(  6-C ,  9-C ) :   1.0956
B(  9-C , 10-H ) :   0.9495 B(  9-C , 11-H ) :   0.9519 B(  9-C , 12-C ) :   1.0791
B( 12-C , 13-H ) :   0.9706 B( 12-C , 14-H ) :   0.9762 B( 12-C , 15-H ) :   0.9699
B( 16-S , 17-C ) :   1.1542 B( 16-S , 20-C ) :   1.1669 B( 17-C , 18-C ) :   1.6212
B( 17-C , 33-H ) :   0.9576 B( 18-C , 19-C ) :   1.2607 B( 18-C , 21-H ) :   0.9913
B( 19-C , 20-C ) :   1.5427 B( 19-C , 22-C ) :   1.0475 B( 22-C , 23-H ) :   0.9340
B( 22-C , 24-H ) :   0.9309 B( 22-C , 25-C ) :   1.0733 B( 25-C , 26-H ) :   0.9534
B( 25-C , 27-H ) :   0.9532 B( 25-C , 28-C ) :   1.0713 B( 28-C , 29-H ) :   0.9736
B( 28-C , 30-H ) :   0.9751 B( 28-C , 31-H ) :   0.9761

Dispersion correction           -0.014485969
FINAL SINGLE POINT ENERGY     -1339.866994946134

DIPOLE MOMENT
-------------
                                X             Y             Z
Electronic contribution:     -0.11581      10.87486      -5.75796
Nuclear contribution   :      0.14364     -11.16691       5.70130
                        -----------------------------------------
Total Dipole Moment    :      0.02783      -0.29204      -0.05666
                        -----------------------------------------
Magnitude (a.u.)       :      0.29879
Magnitude (Debye)      :      0.75946

Rotational constants in cm-1:     0.025522     0.007313     0.006506
Rotational constants in MHz :   765.121031   219.231869   195.034695

                             ****ORCA TERMINATED NORMALLY****
TOTAL RUN TIME: 0 days 0 hours 0 minutes 28 seconds 323 msec
