                         Program Version 4.2.1 -  RELEASE  -
|  1> ! wB97X-D3 SP def2-SVP
|  2> %pal
|  3> nprocs 16
|  4> end
|  5>
|  6> * xyz 0 1
|  7> S 	 22.5471 	 -11.2677 	 79.2021
|  8> C 	 24.2114 	 -11.8196 	 79.2612
|  9> C 	 25.0675 	 -10.8962 	 79.8521
| 10> C 	 24.3899 	 -9.65752 	 79.7777
| 11> C 	 23.11 	 -9.65783 	 79.3764
| 12> H 	 24.9015 	 -8.65733 	 79.9444
| 13> C 	 26.4542 	 -11.0989 	 80.4217
| 14> H 	 27.2801 	 -10.3792 	 80.1173
| 15> H 	 26.8226 	 -12.0432 	 80.0466
| 16> C 	 26.3629 	 -11.0927 	 81.9473
| 17> H 	 25.8046 	 -10.2687 	 82.2389
| 18> H 	 25.764 	 -11.8896 	 82.3059
| 19> C 	 27.7415 	 -11.3815 	 82.5271
| 20> H 	 27.9703 	 -12.4039 	 82.2422
| 21> H 	 28.5914 	 -10.7431 	 82.1918
| 22> H 	 27.6987 	 -11.3376 	 83.5768
| 23> S 	 20.5063 	 -9.02753 	 78.8495
| 24> C 	 19.9243 	 -7.43644 	 79.2606
| 25> C 	 20.9604 	 -6.56197 	 79.6461
| 26> C 	 22.1877 	 -7.22152 	 79.7962
| 27> C 	 22.1516 	 -8.56486 	 79.2869
| 28> H 	 20.732 	 -5.55201 	 79.9196
| 29> C 	 23.344 	 -6.49324 	 80.4125
| 30> H 	 23.8037 	 -7.28955 	 81.1181
| 31> H 	 22.8528 	 -5.82709 	 81.0449
| 32> C 	 24.5166 	 -5.83424 	 79.6334
| 33> H 	 24.0587 	 -5.23643 	 78.8778
| 34> H 	 25.1148 	 -6.52013 	 79.0268
| 35> C 	 25.5124 	 -4.96971 	 80.4683
| 36> H 	 25.8963 	 -5.42942 	 81.3558
| 37> H 	 24.9093 	 -4.13925 	 80.8154
| 38> H 	 26.3453 	 -4.55161 	 79.9567
| 39> H 	 24.507 	 -12.8695 	 79.2671
| 40> H 	 18.8601 	 -7.12164 	 79.1551
| 41> *
| 42>
| 43>                          ****END OF INPUT****

CARTESIAN COORDINATES (ANGSTROEM)
---------------------------------
  S     22.547100  -11.267700   79.202100
  C     24.211400  -11.819600   79.261200
  C     25.067500  -10.896200   79.852100
  C     24.389900   -9.657520   79.777700
  C     23.110000   -9.657830   79.376400
  H     24.901500   -8.657330   79.944400
  C     26.454200  -11.098900   80.421700
  H     27.280100  -10.379200   80.117300
  H     26.822600  -12.043200   80.046600
  C     26.362900  -11.092700   81.947300
  H     25.804600  -10.268700   82.238900
  H     25.764000  -11.889600   82.305900
  C     27.741500  -11.381500   82.527100
  H     27.970300  -12.403900   82.242200
  H     28.591400  -10.743100   82.191800
  H     27.698700  -11.337600   83.576800
  S     20.506300   -9.027530   78.849500
  C     19.924300   -7.436440   79.260600
  C     20.960400   -6.561970   79.646100
  C     22.187700   -7.221520   79.796200
  C     22.151600   -8.564860   79.286900
  H     20.732000   -5.552010   79.919600
  C     23.344000   -6.493240   80.412500
  H     23.803700   -7.289550   81.118100
  H     22.852800   -5.827090   81.044900
  C     24.516600   -5.834240   79.633400
  H     24.058700   -5.236430   78.877800
  H     25.114800   -6.520130   79.026800
  C     25.512400   -4.969710   80.468300
  H     25.896300   -5.429420   81.355800
  H     24.909300   -4.139250   80.815400
  H     26.345300   -4.551610   79.956700
  H     24.507000  -12.869500   79.267100
  H     18.860100   -7.121640   79.155100

 Total Charge           Charge          ....    0
 Multiplicity           Mult            ....    1
 Number of Electrons    NEL             ....  134
 Basis Dimension        Dim             ....  322

ORBITAL ENERGIES
----------------

  NO   OCC          E(Eh)            E(eV)
   0   2.0000     -88.971665     -2421.0421
   1   2.0000     -88.963697     -2420.8253
   2   2.0000     -10.331762      -281.1415
   3   2.0000     -10.323125      -280.9065
   4   2.0000     -10.321127      -280.8521
   5   2.0000     -10.311006      -280.5767
   6   2.0000     -10.307778      -280.4889
   7   2.0000     -10.301051      -280.3058
   8   2.0000     -10.297646      -280.2132
   9   2.0000     -10.296632      -280.1856
  10   2.0000     -10.294877      -280.1378
  11   2.0000     -10.292167      -280.0641
  12   2.0000     -10.287497      -279.9370
  13   2.0000     -10.277772      -279.6724
  14   2.0000     -10.277688      -279.6701
  15   2.0000     -10.277610      -279.6680
  16   2.0000      -8.085960      -220.0302
  17   2.0000      -8.079287      -219.8486
  18   2.0000      -6.044405      -164.4766
  19   2.0000      -6.040466      -164.3694
  20   2.0000      -6.037829      -164.2977
  21   2.0000      -6.036915      -164.2728
  22   2.0000      -6.034099      -164.1962
  23   2.0000      -6.029533      -164.0719
  24   2.0000      -1.013574       -27.5807
  25   2.0000      -0.985553       -26.8183
  26   2.0000      -0.920300       -25.0426
  27   2.0000      -0.908105       -24.7108
  28   2.0000      -0.871761       -23.7218
  29   2.0000      -0.857518       -23.3343
  30   2.0000      -0.845636       -23.0109
  31   2.0000      -0.812827       -22.1181
  32   2.0000      -0.786347       -21.3976
  33   2.0000      -0.771755       -21.0005
  34   2.0000      -0.716506       -19.4971
  35   2.0000      -0.709340       -19.3021
  36   2.0000      -0.690814       -18.7980
  37   2.0000      -0.667685       -18.1686
  38   2.0000      -0.639359       -17.3978
  39   2.0000      -0.618655       -16.8345
  40   2.0000      -0.592887       -16.1333
  41   2.0000      -0.571616       -15.5545
  42   2.0000      -0.565585       -15.3904
  43   2.0000      -0.556268       -15.1368
  44   2.0000      -0.531886       -14.4733
  45   2.0000      -0.525956       -14.3120
  46   2.0000      -0.521968       -14.2035
  47   2.0000      -0.511956       -13.9310
  48   2.0000      -0.503145       -13.6913
  49   2.0000      -0.494417       -13.4538
  50   2.0000      -0.490767       -13.3545
  51   2.0000      -0.484752       -13.1908
  52   2.0000      -0.468938       -12.7604
  53   2.0000      -0.465438       -12.6652
  54   2.0000      -0.459332       -12.4991
  55   2.0000      -0.457250       -12.4424
  56   2.0000      -0.452124       -12.3029
  57   2.0000      -0.446890       -12.1605
  58   2.0000      -0.432188       -11.7604
  59   2.0000      -0.426174       -11.5968
  60   2.0000      -0.422181       -11.4881
  61   2.0000      -0.418938       -11.3999
  62   2.0000      -0.411552       -11.1989
  63   2.0000      -0.358489        -9.7550
  64   2.0000      -0.337810        -9.1923
  65   2.0000      -0.328381        -8.9357
  66   2.0000      -0.275948        -7.5089
  67   0.0000       0.015798         0.4299
  68   0.0000       0.083402         2.2695
  69   0.0000       0.086579         2.3559
  70   0.0000       0.118359         3.2207
  71   0.0000       0.132220         3.5979

MULLIKEN ATOMIC CHARGES
-----------------------
   0 S :    0.089146
   1 C :   -0.100849
   2 C :   -0.093729
   3 C :   -0.064022
   4 C :   -0.069863
   5 H :    0.020729
   6 C :    0.053240
   7 H :    0.040963
   8 H :    0.006273
   9 C :   -0.042805
  10 H :    0.012207
  11 H :    0.015355
  12 C :   -0.015759
  13 H :    0.024032
  14 H :    0.034151
  15 H :    0.025475
  16 S :    0.097149
  17 C :   -0.112324
  18 C :   -0.019680
  19 C :   -0.073310
  20 C :   -0.096645
  21 H :    0.013637
  22 C :    0.042974
  23 H :    0.034782
  24 H :   -0.000509
  25 C :   -0.027613
  26 H :    0.016718
  27 H :    0.028573
  28 C :   -0.034788
  29 H :    0.025162
  30 H :    0.022468
  31 H :    0.033978
  32 H :    0.040986
  33 H :    0.073898
Sum of atomic charges:    0.0000000

LOEWDIN ATOMIC CHARGES
----------------------
   0 S :    0.400719
   1 C :   -0.195964
   2 C :   -0.055298
   3 C :   -0.083037
   4 C :   -0.198095
   5 H :    0.037552
   6 C :   -0.028812
   7 H :    0.037712
   8 H :    0.024911
   9 C :   -0.032675
  10 H :    0.014374
  11 H :    0.025570
  12 C :   -0.057965
  13 H :    0.027256
  14 H :    0.026705
  15 H :    0.019833
  16 S :    0.409776
  17 C :   -0.193853
  18 C :   -0.070433
  19 C :   -0.053503
  20 C :   -0.189844
  21 H :    0.030105
  22 C :   -0.037158
  23 H :    0.039884
  24 H :    0.022050
  25 C :   -0.037067
  26 H :    0.021704
  27 H :    0.022368
  28 C :   -0.060459
  29 H :    0.022121
  30 H :    0.025702
  31 H :    0.025615
  32 H :    0.023285
  33 H :    0.036918

  Mayer bond orders larger than 0.100000
B(  0-S ,  1-C ) :   1.1297 B(  0-S ,  4-C ) :   1.1249 B(  1-C ,  2-C ) :   1.6339
B(  1-C , 32-H ) :   0.9596 B(  2-C ,  3-C ) :   1.2277 B(  2-C ,  6-C ) :   1.0277
B(  3-C ,  4-C ) :   1.6105 B(  3-C ,  5-H ) :   0.9768 B(  4-C , 20-C ) :   1.0931
B(  6-C ,  7-H ) :   0.9480 B(  6-C ,  8-H ) :   0.9350 B(  6-C ,  9-C ) :   1.0528
B(  9-C , 10-H ) :   0.9621 B(  9-C , 11-H ) :   0.9470 B(  9-C , 12-C ) :   1.0727
B( 12-C , 13-H ) :   0.9728 B( 12-C , 14-H ) :   0.9754 B( 12-C , 15-H ) :   0.9735
B( 16-S , 17-C ) :   1.1757 B( 16-S , 20-C ) :   1.1440 B( 17-C , 18-C ) :   1.5614
B( 17-C , 20-C ) :   0.1068 B( 17-C , 33-H ) :   0.9617 B( 18-C , 19-C ) :   1.2932
B( 18-C , 21-H ) :   0.9904 B( 19-C , 20-C ) :   1.5139 B( 19-C , 22-C ) :   1.0464
B( 22-C , 23-H ) :   0.9212 B( 22-C , 24-H ) :   0.9276 B( 22-C , 25-C ) :   1.0513
B( 25-C , 26-H ) :   0.9511 B( 25-C , 27-H ) :   0.9531 B( 25-C , 28-C ) :   1.0708
B( 28-C , 29-H ) :   0.9786 B( 28-C , 30-H ) :   0.9764 B( 28-C , 31-H ) :   0.9758

Dispersion correction           -0.013734873
FINAL SINGLE POINT ENERGY     -1339.853761012342

DIPOLE MOMENT
-------------
                                X             Y             Z
Electronic contribution:    -27.74559     -10.41701     -13.89133
Nuclear contribution   :     28.18714      10.81552      14.39917
                        -----------------------------------------
Total Dipole Moment    :      0.44155       0.39851       0.50784
                        -----------------------------------------
Magnitude (a.u.)       :      0.78210
Magnitude (Debye)      :      1.98795

Rotational constants in cm-1:     0.016598     0.009501     0.006424
Rotational constants in MHz :   497.582076   284.836098   192.592370

                             ****ORCA TERMINATED NORMALLY****
TOTAL RUN TIME: 0 days 0 hours 0 minutes 28 seconds 996 msec
