                         Program Version 4.2.1 -  RELEASE  -
|  1> ! wB97X-D3 SP def2-SVP
|  2> %pal
|  3> nprocs 16
|  4> end
|  5>
|  6> * xyz 0 1
|  7> S 	 -67.2239 	 38.3011 	 131.307
|  8> C 	 -66.3473 	 39.7601 	 130.955
|  9> C 	 -65.8222 	 40.3045 	 132.094
| 10> C 	 -65.9128 	 39.3728 	 133.205
| 11> C 	 -66.5216 	 38.1711 	 132.83
| 12> H 	 -65.4736 	 39.5503 	 134.154
| 13> C 	 -64.9573 	 41.5261 	 132.204
| 14> H 	 -64.0356 	 41.3206 	 131.751
| 15> H 	 -64.6676 	 41.5843 	 133.247
| 16> C 	 -65.5681 	 42.8761 	 131.638
| 17> H 	 -64.6828 	 43.5369 	 131.728
| 18> H 	 -65.8347 	 42.8435 	 130.546
| 19> C 	 -66.8828 	 43.2686 	 132.36
| 20> H 	 -67.7352 	 42.5445 	 132.343
| 21> H 	 -66.5191 	 43.5387 	 133.356
| 22> H 	 -67.3414 	 44.2315 	 132.003
| 23> S 	 -68.6617 	 36.7565 	 133.906
| 24> C 	 -68.413 	 35.5326 	 135.086
| 25> C 	 -67.1023 	 35.5736 	 135.528
| 26> C 	 -66.3074 	 36.501 	 134.797
| 27> C 	 -66.9719 	 37.1342 	 133.779
| 28> H 	 -66.8429 	 34.9344 	 136.381
| 29> C 	 -64.7813 	 36.6658 	 135.018
| 30> H 	 -64.5388 	 36.8434 	 136.11
| 31> H 	 -64.4118 	 37.5709 	 134.57
| 32> C 	 -63.805 	 35.5771 	 134.623
| 33> H 	 -63.7087 	 34.8445 	 135.365
| 34> H 	 -62.8085 	 36.0242 	 134.714
| 35> C 	 -63.898 	 35.1307 	 133.212
| 36> H 	 -64.9602 	 34.8018 	 133.055
| 37> H 	 -63.2846 	 34.2965 	 132.853
| 38> H 	 -63.6481 	 35.9155 	 132.476
| 39> H 	 -66.3869 	 40.399 	 130.144
| 40> H 	 -69.2497 	 35.0128 	 135.477
| 41> *
| 42>
| 43>                          ****END OF INPUT****

CARTESIAN COORDINATES (ANGSTROEM)
---------------------------------
  S    -67.223900   38.301100  131.307000
  C    -66.347300   39.760100  130.955000
  C    -65.822200   40.304500  132.094000
  C    -65.912800   39.372800  133.205000
  C    -66.521600   38.171100  132.830000
  H    -65.473600   39.550300  134.154000
  C    -64.957300   41.526100  132.204000
  H    -64.035600   41.320600  131.751000
  H    -64.667600   41.584300  133.247000
  C    -65.568100   42.876100  131.638000
  H    -64.682800   43.536900  131.728000
  H    -65.834700   42.843500  130.546000
  C    -66.882800   43.268600  132.360000
  H    -67.735200   42.544500  132.343000
  H    -66.519100   43.538700  133.356000
  H    -67.341400   44.231500  132.003000
  S    -68.661700   36.756500  133.906000
  C    -68.413000   35.532600  135.086000
  C    -67.102300   35.573600  135.528000
  C    -66.307400   36.501000  134.797000
  C    -66.971900   37.134200  133.779000
  H    -66.842900   34.934400  136.381000
  C    -64.781300   36.665800  135.018000
  H    -64.538800   36.843400  136.110000
  H    -64.411800   37.570900  134.570000
  C    -63.805000   35.577100  134.623000
  H    -63.708700   34.844500  135.365000
  H    -62.808500   36.024200  134.714000
  C    -63.898000   35.130700  133.212000
  H    -64.960200   34.801800  133.055000
  H    -63.284600   34.296500  132.853000
  H    -63.648100   35.915500  132.476000
  H    -66.386900   40.399000  130.144000
  H    -69.249700   35.012800  135.477000

 Total Charge           Charge          ....    0
 Multiplicity           Mult            ....    1
 Number of Electrons    NEL             ....  134
 Basis Dimension        Dim             ....  322

ORBITAL ENERGIES
----------------

  NO   OCC          E(Eh)            E(eV)
   0   2.0000     -88.969106     -2420.9725
   1   2.0000     -88.961126     -2420.7553
   2   2.0000     -10.327557      -281.0271
   3   2.0000     -10.324909      -280.9550
   4   2.0000     -10.312984      -280.6306
   5   2.0000     -10.303771      -280.3798
   6   2.0000     -10.301880      -280.3284
   7   2.0000     -10.301437      -280.3164
   8   2.0000     -10.296908      -280.1931
   9   2.0000     -10.296029      -280.1692
  10   2.0000     -10.292687      -280.0782
  11   2.0000     -10.291020      -280.0329
  12   2.0000     -10.290226      -280.0113
  13   2.0000     -10.286351      -279.9058
  14   2.0000     -10.273875      -279.5664
  15   2.0000     -10.269818      -279.4559
  16   2.0000      -8.084974      -220.0033
  17   2.0000      -8.077068      -219.7882
  18   2.0000      -6.043412      -164.4496
  19   2.0000      -6.039343      -164.3389
  20   2.0000      -6.035703      -164.2398
  21   2.0000      -6.035400      -164.2316
  22   2.0000      -6.031376      -164.1221
  23   2.0000      -6.027958      -164.0291
  24   2.0000      -1.015429       -27.6312
  25   2.0000      -0.992251       -27.0005
  26   2.0000      -0.911546       -24.8044
  27   2.0000      -0.909768       -24.7560
  28   2.0000      -0.868126       -23.6229
  29   2.0000      -0.851399       -23.1677
  30   2.0000      -0.843112       -22.9422
  31   2.0000      -0.812862       -22.1191
  32   2.0000      -0.785403       -21.3719
  33   2.0000      -0.777921       -21.1683
  34   2.0000      -0.708617       -19.2825
  35   2.0000      -0.702048       -19.1037
  36   2.0000      -0.693566       -18.8729
  37   2.0000      -0.659334       -17.9414
  38   2.0000      -0.638826       -17.3834
  39   2.0000      -0.614475       -16.7207
  40   2.0000      -0.597662       -16.2632
  41   2.0000      -0.577788       -15.7224
  42   2.0000      -0.552436       -15.0325
  43   2.0000      -0.551037       -14.9945
  44   2.0000      -0.545178       -14.8351
  45   2.0000      -0.537921       -14.6376
  46   2.0000      -0.517038       -14.0693
  47   2.0000      -0.509339       -13.8598
  48   2.0000      -0.501795       -13.6545
  49   2.0000      -0.499042       -13.5796
  50   2.0000      -0.493656       -13.4331
  51   2.0000      -0.478345       -13.0164
  52   2.0000      -0.471033       -12.8175
  53   2.0000      -0.466929       -12.7058
  54   2.0000      -0.462356       -12.5813
  55   2.0000      -0.448331       -12.1997
  56   2.0000      -0.442821       -12.0498
  57   2.0000      -0.436455       -11.8765
  58   2.0000      -0.428527       -11.6608
  59   2.0000      -0.418872       -11.3981
  60   2.0000      -0.416916       -11.3449
  61   2.0000      -0.411619       -11.2007
  62   2.0000      -0.398790       -10.8516
  63   2.0000      -0.349899        -9.5212
  64   2.0000      -0.330530        -8.9942
  65   2.0000      -0.328089        -8.9278
  66   2.0000      -0.294213        -8.0059
  67   0.0000       0.030212         0.8221
  68   0.0000       0.072759         1.9799
  69   0.0000       0.111409         3.0316
  70   0.0000       0.121662         3.3106
  71   0.0000       0.128237         3.4895

MULLIKEN ATOMIC CHARGES
-----------------------
   0 S :    0.122033
   1 C :   -0.056697
   2 C :   -0.123580
   3 C :    0.034235
   4 C :   -0.137622
   5 H :    0.007575
   6 C :    0.076616
   7 H :    0.030619
   8 H :    0.010173
   9 C :   -0.100114
  10 H :    0.041315
  11 H :    0.040061
  12 C :   -0.073704
  13 H :    0.064152
  14 H :    0.028682
  15 H :    0.036398
  16 S :    0.097439
  17 C :   -0.095487
  18 C :   -0.031150
  19 C :   -0.043461
  20 C :   -0.132410
  21 H :    0.028456
  22 C :    0.049589
  23 H :    0.027314
  24 H :    0.003229
  25 C :   -0.017882
  26 H :    0.006771
  27 H :    0.010643
  28 C :   -0.068895
  29 H :    0.041998
  30 H :    0.029787
  31 H :    0.032625
  32 H :    0.009153
  33 H :    0.052138
Sum of atomic charges:   -0.0000000

LOEWDIN ATOMIC CHARGES
----------------------
   0 S :    0.448625
   1 C :   -0.196581
   2 C :   -0.059246
   3 C :   -0.055926
   4 C :   -0.213299
   5 H :    0.021905
   6 C :   -0.030248
   7 H :    0.029820
   8 H :    0.029504
   9 C :   -0.043754
  10 H :    0.030227
  11 H :    0.024650
  12 C :   -0.077517
  13 H :    0.036097
  14 H :    0.025446
  15 H :    0.029792
  16 S :    0.417591
  17 C :   -0.187518
  18 C :   -0.072152
  19 C :   -0.067389
  20 C :   -0.198968
  21 H :    0.037172
  22 C :   -0.032044
  23 H :    0.038377
  24 H :    0.022672
  25 C :   -0.046924
  26 H :    0.013534
  27 H :    0.028504
  28 C :   -0.075001
  29 H :    0.030724
  30 H :    0.025975
  31 H :    0.029134
  32 H :    0.014276
  33 H :    0.022540

  Mayer bond orders larger than 0.100000
B(  0-S ,  1-C ) :   1.1376 B(  0-S ,  4-C ) :   1.1777 B(  1-C ,  2-C ) :   1.6089
B(  1-C , 32-H ) :   0.9724 B(  2-C ,  3-C ) :   1.2603 B(  2-C ,  6-C ) :   1.0171
B(  3-C ,  4-C ) :   1.5288 B(  3-C ,  5-H ) :   0.9917 B(  4-C , 20-C ) :   1.0268
B(  6-C ,  7-H ) :   0.9388 B(  6-C ,  8-H ) :   0.9407 B(  6-C ,  9-C ) :   1.0567
B(  9-C , 10-H ) :   0.9600 B(  9-C , 11-H ) :   0.9607 B(  9-C , 12-C ) :   1.0567
B( 12-C , 13-H ) :   0.9732 B( 12-C , 14-H ) :   0.9778 B( 12-C , 15-H ) :   0.9754
B( 16-S , 17-C ) :   1.1718 B( 16-S , 20-C ) :   1.1558 B( 17-C , 18-C ) :   1.5751
B( 17-C , 33-H ) :   0.9765 B( 18-C , 19-C ) :   1.2418 B( 18-C , 21-H ) :   0.9989
B( 19-C , 20-C ) :   1.5989 B( 19-C , 22-C ) :   1.0429 B( 22-C , 23-H ) :   0.9332
B( 22-C , 24-H ) :   0.9348 B( 22-C , 25-C ) :   1.0888 B( 25-C , 26-H ) :   0.9533
B( 25-C , 27-H ) :   0.9431 B( 25-C , 28-C ) :   1.0761 B( 28-C , 29-H ) :   0.9738
B( 28-C , 30-H ) :   0.9728 B( 28-C , 31-H ) :   0.9723

Dispersion correction           -0.014724764
FINAL SINGLE POINT ENERGY     -1339.860987983920

DIPOLE MOMENT
-------------
                                X             Y             Z
Electronic contribution:    -17.80328     -11.05418      -2.55867
Nuclear contribution   :     18.24391      11.45053       2.87713
                        -----------------------------------------
Total Dipole Moment    :      0.44063       0.39635       0.31845
                        -----------------------------------------
Magnitude (a.u.)       :      0.67280
Magnitude (Debye)      :      1.71012

Rotational constants in cm-1:     0.021633     0.008142     0.007094
Rotational constants in MHz :   648.555458   244.103512   212.665974

                             ****ORCA TERMINATED NORMALLY****
TOTAL RUN TIME: 0 days 0 hours 0 minutes 35 seconds 634 msec
