                         Program Version 4.2.1 -  RELEASE  -
|  1> ! wB97X-D3 SP def2-SVP
|  2> %pal
|  3> nprocs 16
|  4> end
|  5>
|  6> * xyz 0 1
|  7> S 	 -86.1636 	 47.9655 	 129.447
|  8> C 	 -86.3983 	 46.232 	 129.465
|  9> C 	 -85.9178 	 45.6407 	 128.285
| 10> C 	 -85.628 	 46.6815 	 127.335
| 11> C 	 -85.6015 	 47.9848 	 127.81
| 12> H 	 -85.2515 	 46.4439 	 126.362
| 13> C 	 -85.9716 	 44.072 	 128.035
| 14> H 	 -85.0081 	 43.5601 	 127.862
| 15> H 	 -86.2934 	 44.0933 	 127.021
| 16> C 	 -86.7153 	 43.195 	 129.007
| 17> H 	 -87.6986 	 43.7026 	 129.301
| 18> H 	 -87.0121 	 42.1873 	 128.506
| 19> C 	 -85.8843 	 42.8139 	 130.27
| 20> H 	 -86.4891 	 41.987 	 130.78
| 21> H 	 -84.9052 	 42.3486 	 130.148
| 22> H 	 -85.851 	 43.7072 	 130.874
| 23> S 	 -84.1891 	 50.1788 	 128.399
| 24> C 	 -83.5989 	 51.2492 	 127.154
| 25> C 	 -83.9086 	 50.7584 	 125.889
| 26> C 	 -84.7086 	 49.5607 	 125.95
| 27> C 	 -84.9463 	 49.1423 	 127.284
| 28> H 	 -83.5405 	 51.3226 	 125.084
| 29> C 	 -85.1718 	 48.8815 	 124.642
| 30> H 	 -86.1686 	 48.4349 	 124.743
| 31> H 	 -84.6429 	 47.9676 	 124.35
| 32> C 	 -85.1223 	 49.7217 	 123.35
| 33> H 	 -85.4613 	 49.1077 	 122.564
| 34> H 	 -84.0838 	 49.8938 	 123.066
| 35> C 	 -85.9826 	 50.9305 	 123.398
| 36> H 	 -85.9735 	 51.4289 	 122.476
| 37> H 	 -85.541 	 51.586 	 124.156
| 38> H 	 -87.0087 	 50.6951 	 123.588
| 39> H 	 -86.7881 	 45.6808 	 130.314
| 40> H 	 -82.8933 	 52.1041 	 127.343
| 41> *
| 42>
| 43>                          ****END OF INPUT****

CARTESIAN COORDINATES (ANGSTROEM)
---------------------------------
  S    -86.163600   47.965500  129.447000
  C    -86.398300   46.232000  129.465000
  C    -85.917800   45.640700  128.285000
  C    -85.628000   46.681500  127.335000
  C    -85.601500   47.984800  127.810000
  H    -85.251500   46.443900  126.362000
  C    -85.971600   44.072000  128.035000
  H    -85.008100   43.560100  127.862000
  H    -86.293400   44.093300  127.021000
  C    -86.715300   43.195000  129.007000
  H    -87.698600   43.702600  129.301000
  H    -87.012100   42.187300  128.506000
  C    -85.884300   42.813900  130.270000
  H    -86.489100   41.987000  130.780000
  H    -84.905200   42.348600  130.148000
  H    -85.851000   43.707200  130.874000
  S    -84.189100   50.178800  128.399000
  C    -83.598900   51.249200  127.154000
  C    -83.908600   50.758400  125.889000
  C    -84.708600   49.560700  125.950000
  C    -84.946300   49.142300  127.284000
  H    -83.540500   51.322600  125.084000
  C    -85.171800   48.881500  124.642000
  H    -86.168600   48.434900  124.743000
  H    -84.642900   47.967600  124.350000
  C    -85.122300   49.721700  123.350000
  H    -85.461300   49.107700  122.564000
  H    -84.083800   49.893800  123.066000
  C    -85.982600   50.930500  123.398000
  H    -85.973500   51.428900  122.476000
  H    -85.541000   51.586000  124.156000
  H    -87.008700   50.695100  123.588000
  H    -86.788100   45.680800  130.314000
  H    -82.893300   52.104100  127.343000

 Total Charge           Charge          ....    0
 Multiplicity           Mult            ....    1
 Number of Electrons    NEL             ....  134
 Basis Dimension        Dim             ....  322

ORBITAL ENERGIES
----------------

  NO   OCC          E(Eh)            E(eV)
   0   2.0000     -88.967789     -2420.9366
   1   2.0000     -88.965659     -2420.8787
   2   2.0000     -10.329941      -281.0920
   3   2.0000     -10.328346      -281.0486
   4   2.0000     -10.319840      -280.8171
   5   2.0000     -10.316335      -280.7218
   6   2.0000     -10.312070      -280.6057
   7   2.0000     -10.311151      -280.5807
   8   2.0000     -10.305036      -280.4143
   9   2.0000     -10.298275      -280.2303
  10   2.0000     -10.295798      -280.1629
  11   2.0000     -10.295035      -280.1421
  12   2.0000     -10.293342      -280.0961
  13   2.0000     -10.287360      -279.9333
  14   2.0000     -10.278318      -279.6872
  15   2.0000     -10.263577      -279.2861
  16   2.0000      -8.083398      -219.9604
  17   2.0000      -8.080809      -219.8900
  18   2.0000      -6.041799      -164.4057
  19   2.0000      -6.039329      -164.3385
  20   2.0000      -6.037654      -164.2929
  21   2.0000      -6.035203      -164.2262
  22   2.0000      -6.034321      -164.2022
  23   2.0000      -6.031578      -164.1276
  24   2.0000      -1.013015       -27.5655
  25   2.0000      -0.984448       -26.7882
  26   2.0000      -0.914431       -24.8829
  27   2.0000      -0.909565       -24.7505
  28   2.0000      -0.871837       -23.7239
  29   2.0000      -0.852363       -23.1940
  30   2.0000      -0.842099       -22.9147
  31   2.0000      -0.813469       -22.1356
  32   2.0000      -0.788849       -21.4657
  33   2.0000      -0.777810       -21.1653
  34   2.0000      -0.707837       -19.2612
  35   2.0000      -0.699478       -19.0338
  36   2.0000      -0.690345       -18.7852
  37   2.0000      -0.663482       -18.0543
  38   2.0000      -0.637103       -17.3365
  39   2.0000      -0.619937       -16.8693
  40   2.0000      -0.599863       -16.3231
  41   2.0000      -0.580900       -15.8071
  42   2.0000      -0.553212       -15.0537
  43   2.0000      -0.548253       -14.9187
  44   2.0000      -0.541560       -14.7366
  45   2.0000      -0.538517       -14.6538
  46   2.0000      -0.522233       -14.2107
  47   2.0000      -0.509691       -13.8694
  48   2.0000      -0.506609       -13.7855
  49   2.0000      -0.497876       -13.5479
  50   2.0000      -0.495350       -13.4792
  51   2.0000      -0.477253       -12.9867
  52   2.0000      -0.471233       -12.8229
  53   2.0000      -0.467562       -12.7230
  54   2.0000      -0.465505       -12.6670
  55   2.0000      -0.446131       -12.1398
  56   2.0000      -0.436693       -11.8830
  57   2.0000      -0.436060       -11.8658
  58   2.0000      -0.432411       -11.7665
  59   2.0000      -0.430229       -11.7071
  60   2.0000      -0.418785       -11.3957
  61   2.0000      -0.416569       -11.3354
  62   2.0000      -0.409150       -11.1335
  63   2.0000      -0.359780        -9.7901
  64   2.0000      -0.332161        -9.0386
  65   2.0000      -0.327323        -8.9069
  66   2.0000      -0.280887        -7.6433
  67   0.0000       0.021117         0.5746
  68   0.0000       0.078604         2.1389
  69   0.0000       0.109247         2.9728
  70   0.0000       0.120384         3.2758
  71   0.0000       0.134372         3.6565

MULLIKEN ATOMIC CHARGES
-----------------------
   0 S :    0.101149
   1 C :   -0.139088
   2 C :   -0.090761
   3 C :    0.013120
   4 C :   -0.120544
   5 H :   -0.005632
   6 C :    0.096994
   7 H :    0.031113
   8 H :    0.015444
   9 C :   -0.138508
  10 H :    0.047496
  11 H :    0.046795
  12 C :   -0.061855
  13 H :    0.042927
  14 H :    0.043012
  15 H :    0.032689
  16 S :    0.113411
  17 C :   -0.120046
  18 C :   -0.035095
  19 C :   -0.019479
  20 C :   -0.120520
  21 H :    0.013489
  22 C :    0.032207
  23 H :    0.022136
  24 H :    0.036335
  25 C :   -0.073714
  26 H :    0.006538
  27 H :    0.023019
  28 C :    0.005671
  29 H :    0.016019
  30 H :    0.027015
  31 H :    0.025398
  32 H :    0.056235
  33 H :    0.077029
Sum of atomic charges:   -0.0000000

LOEWDIN ATOMIC CHARGES
----------------------
   0 S :    0.412655
   1 C :   -0.203955
   2 C :   -0.052408
   3 C :   -0.066327
   4 C :   -0.197289
   5 H :    0.022536
   6 C :   -0.040424
   7 H :    0.037081
   8 H :    0.029132
   9 C :   -0.055074
  10 H :    0.031642
  11 H :    0.037378
  12 C :   -0.069267
  13 H :    0.036053
  14 H :    0.026990
  15 H :    0.019914
  16 S :    0.435908
  17 C :   -0.202824
  18 C :   -0.066430
  19 C :   -0.055483
  20 C :   -0.210745
  21 H :    0.026152
  22 C :   -0.038655
  23 H :    0.030474
  24 H :    0.032236
  25 C :   -0.042422
  26 H :    0.020269
  27 H :    0.021952
  28 C :   -0.057676
  29 H :    0.019123
  30 H :    0.027198
  31 H :    0.025514
  32 H :    0.025294
  33 H :    0.041478

  Mayer bond orders larger than 0.100000
B(  0-S ,  1-C ) :   1.1443 B(  0-S ,  4-C ) :   1.1482 B(  1-C ,  2-C ) :   1.5949
B(  1-C , 32-H ) :   0.9581 B(  2-C ,  3-C ) :   1.2861 B(  2-C ,  6-C ) :   0.9897
B(  3-C ,  4-C ) :   1.5373 B(  3-C ,  5-H ) :   0.9889 B(  4-C , 20-C ) :   1.0915
B(  6-C ,  7-H ) :   0.9348 B(  6-C ,  8-H ) :   0.9372 B(  6-C ,  9-C ) :   1.0744
B(  9-C , 10-H ) :   0.9528 B(  9-C , 11-H ) :   0.9539 B(  9-C , 12-C ) :   1.0632
B( 12-C , 13-H ) :   0.9749 B( 12-C , 14-H ) :   0.9741 B( 12-C , 15-H ) :   0.9792
B( 16-S , 17-C ) :   1.1615 B( 16-S , 20-C ) :   1.1671 B( 17-C , 18-C ) :   1.5897
B( 17-C , 33-H ) :   0.9592 B( 18-C , 19-C ) :   1.2588 B( 18-C , 21-H ) :   0.9904
B( 19-C , 20-C ) :   1.5454 B( 19-C , 22-C ) :   1.0296 B( 22-C , 23-H ) :   0.9322
B( 22-C , 24-H ) :   0.9307 B( 22-C , 25-C ) :   1.0957 B( 25-C , 26-H ) :   0.9433
B( 25-C , 27-H ) :   0.9426 B( 25-C , 28-C ) :   1.0948 B( 28-C , 29-H ) :   0.9679
B( 28-C , 30-H ) :   0.9709 B( 28-C , 31-H ) :   0.9688

Dispersion correction           -0.013683766
FINAL SINGLE POINT ENERGY     -1339.861567710771

DIPOLE MOMENT
-------------
                                X             Y             Z
Electronic contribution:      4.15880      15.49271      14.25424
Nuclear contribution   :     -3.98108     -15.98545     -14.79134
                        -----------------------------------------
Total Dipole Moment    :      0.17772      -0.49274      -0.53710
                        -----------------------------------------
Magnitude (a.u.)       :      0.75024
Magnitude (Debye)      :      1.90695

Rotational constants in cm-1:     0.025098     0.006957     0.005816
Rotational constants in MHz :   752.428499   208.577415   174.358381

                             ****ORCA TERMINATED NORMALLY****
TOTAL RUN TIME: 0 days 0 hours 0 minutes 33 seconds 537 msec
