                         Program Version 4.2.1 -  RELEASE  -
|  1> ! wB97X-D3 SP def2-SVP
|  2> %pal
|  3> nprocs 16
|  4> end
|  5>
|  6> * xyz 0 1
|  7> S 	 -89.929 	 40.3716 	 113.428
|  8> C 	 -88.3656 	 40.5327 	 112.702
|  9> C 	 -87.509 	 41.4284 	 113.361
| 10> C 	 -88.2779 	 42.2948 	 114.268
| 11> C 	 -89.6659 	 41.9239 	 114.285
| 12> H 	 -87.8437 	 43.0968 	 114.845
| 13> C 	 -85.9888 	 41.5431 	 113.176
| 14> H 	 -85.643 	 40.7641 	 112.547
| 15> H 	 -85.513 	 41.4032 	 114.144
| 16> C 	 -85.492 	 42.9192 	 112.728
| 17> H 	 -85.3876 	 43.7023 	 113.399
| 18> H 	 -84.5315 	 42.7324 	 112.325
| 19> C 	 -86.2768 	 43.2931 	 111.456
| 20> H 	 -85.768 	 44.1059 	 110.878
| 21> H 	 -86.1766 	 42.4237 	 110.844
| 22> H 	 -87.3483 	 43.6544 	 111.553
| 23> S 	 -92.2062 	 42.8022 	 114.093
| 24> C 	 -92.9227 	 43.6624 	 115.363
| 25> C 	 -92.1072 	 43.6885 	 116.495
| 26> C 	 -90.8353 	 43.0746 	 116.269
| 27> C 	 -90.76 	 42.5114 	 115.026
| 28> H 	 -92.5343 	 44.1073 	 117.347
| 29> C 	 -89.822 	 42.8719 	 117.354
| 30> H 	 -89.9014 	 43.6369 	 118.093
| 31> H 	 -88.905 	 43.1517 	 116.916
| 32> C 	 -89.7004 	 41.4642 	 117.968
| 33> H 	 -89.1086 	 40.818 	 117.332
| 34> H 	 -90.6349 	 40.9688 	 118.151
| 35> C 	 -88.9177 	 41.5085 	 119.27
| 36> H 	 -88.0936 	 42.1901 	 119.26
| 37> H 	 -88.48 	 40.5911 	 119.55
| 38> H 	 -89.4935 	 41.8516 	 120.099
| 39> H 	 -88.0126 	 39.8202 	 111.912
| 40> H 	 -93.9318 	 44.0004 	 115.461
| 41> *
| 42>
| 43>                          ****END OF INPUT****

CARTESIAN COORDINATES (ANGSTROEM)
---------------------------------
  S    -89.929000   40.371600  113.428000
  C    -88.365600   40.532700  112.702000
  C    -87.509000   41.428400  113.361000
  C    -88.277900   42.294800  114.268000
  C    -89.665900   41.923900  114.285000
  H    -87.843700   43.096800  114.845000
  C    -85.988800   41.543100  113.176000
  H    -85.643000   40.764100  112.547000
  H    -85.513000   41.403200  114.144000
  C    -85.492000   42.919200  112.728000
  H    -85.387600   43.702300  113.399000
  H    -84.531500   42.732400  112.325000
  C    -86.276800   43.293100  111.456000
  H    -85.768000   44.105900  110.878000
  H    -86.176600   42.423700  110.844000
  H    -87.348300   43.654400  111.553000
  S    -92.206200   42.802200  114.093000
  C    -92.922700   43.662400  115.363000
  C    -92.107200   43.688500  116.495000
  C    -90.835300   43.074600  116.269000
  C    -90.760000   42.511400  115.026000
  H    -92.534300   44.107300  117.347000
  C    -89.822000   42.871900  117.354000
  H    -89.901400   43.636900  118.093000
  H    -88.905000   43.151700  116.916000
  C    -89.700400   41.464200  117.968000
  H    -89.108600   40.818000  117.332000
  H    -90.634900   40.968800  118.151000
  C    -88.917700   41.508500  119.270000
  H    -88.093600   42.190100  119.260000
  H    -88.480000   40.591100  119.550000
  H    -89.493500   41.851600  120.099000
  H    -88.012600   39.820200  111.912000
  H    -93.931800   44.000400  115.461000

 Total Charge           Charge          ....    0
 Multiplicity           Mult            ....    1
 Number of Electrons    NEL             ....  134
 Basis Dimension        Dim             ....  322

ORBITAL ENERGIES
----------------

  NO   OCC          E(Eh)            E(eV)
   0   2.0000     -88.966810     -2420.9100
   1   2.0000     -88.963949     -2420.8321
   2   2.0000     -10.335734      -281.2496
   3   2.0000     -10.318611      -280.7837
   4   2.0000     -10.315629      -280.7025
   5   2.0000     -10.309892      -280.5464
   6   2.0000     -10.307461      -280.4803
   7   2.0000     -10.304263      -280.3932
   8   2.0000     -10.299506      -280.2638
   9   2.0000     -10.293061      -280.0884
  10   2.0000     -10.287083      -279.9258
  11   2.0000     -10.282930      -279.8127
  12   2.0000     -10.280877      -279.7569
  13   2.0000     -10.278564      -279.6940
  14   2.0000     -10.275179      -279.6018
  15   2.0000     -10.264785      -279.3190
  16   2.0000      -8.081130      -219.8987
  17   2.0000      -8.079782      -219.8621
  18   2.0000      -6.039566      -164.3449
  19   2.0000      -6.038135      -164.3060
  20   2.0000      -6.036045      -164.2491
  21   2.0000      -6.033992      -164.1933
  22   2.0000      -6.031661      -164.1298
  23   2.0000      -6.030764      -164.1054
  24   2.0000      -1.007665       -27.4200
  25   2.0000      -0.977527       -26.5999
  26   2.0000      -0.915253       -24.9053
  27   2.0000      -0.912280       -24.8244
  28   2.0000      -0.866851       -23.5882
  29   2.0000      -0.856620       -23.3098
  30   2.0000      -0.840659       -22.8755
  31   2.0000      -0.808359       -21.9966
  32   2.0000      -0.784648       -21.3514
  33   2.0000      -0.770842       -20.9757
  34   2.0000      -0.712716       -19.3940
  35   2.0000      -0.703771       -19.1506
  36   2.0000      -0.690235       -18.7823
  37   2.0000      -0.665269       -18.1029
  38   2.0000      -0.633365       -17.2347
  39   2.0000      -0.622462       -16.9381
  40   2.0000      -0.596435       -16.2298
  41   2.0000      -0.568238       -15.4625
  42   2.0000      -0.562750       -15.3132
  43   2.0000      -0.557325       -15.1656
  44   2.0000      -0.538782       -14.6610
  45   2.0000      -0.528004       -14.3677
  46   2.0000      -0.518278       -14.1031
  47   2.0000      -0.513128       -13.9629
  48   2.0000      -0.506062       -13.7707
  49   2.0000      -0.491763       -13.3816
  50   2.0000      -0.486416       -13.2361
  51   2.0000      -0.481486       -13.1019
  52   2.0000      -0.466284       -12.6882
  53   2.0000      -0.459672       -12.5083
  54   2.0000      -0.454945       -12.3797
  55   2.0000      -0.447711       -12.1828
  56   2.0000      -0.443143       -12.0585
  57   2.0000      -0.442265       -12.0347
  58   2.0000      -0.439544       -11.9606
  59   2.0000      -0.424954       -11.5636
  60   2.0000      -0.420076       -11.4309
  61   2.0000      -0.417360       -11.3569
  62   2.0000      -0.413700       -11.2573
  63   2.0000      -0.343391        -9.3441
  64   2.0000      -0.331485        -9.0202
  65   2.0000      -0.323941        -8.8149
  66   2.0000      -0.286573        -7.7980
  67   0.0000       0.024959         0.6792
  68   0.0000       0.072622         1.9762
  69   0.0000       0.096136         2.6160
  70   0.0000       0.126072         3.4306
  71   0.0000       0.137683         3.7466

MULLIKEN ATOMIC CHARGES
-----------------------
   0 S :    0.109548
   1 C :   -0.133430
   2 C :   -0.117095
   3 C :    0.031718
   4 C :   -0.152769
   5 H :    0.021442
   6 C :    0.092440
   7 H :    0.011250
   8 H :    0.033174
   9 C :   -0.035361
  10 H :    0.021611
  11 H :    0.016699
  12 C :   -0.082472
  13 H :    0.026992
  14 H :    0.014570
  15 H :    0.062040
  16 S :    0.127138
  17 C :   -0.077491
  18 C :   -0.043330
  19 C :   -0.033104
  20 C :   -0.160389
  21 H :   -0.008922
  22 C :    0.127811
  23 H :   -0.000505
  24 H :   -0.014581
  25 C :   -0.023967
  26 H :    0.030760
  27 H :    0.030760
  28 C :   -0.028219
  29 H :    0.007731
  30 H :    0.017522
  31 H :    0.019253
  32 H :    0.061534
  33 H :    0.047641
Sum of atomic charges:    0.0000000

LOEWDIN ATOMIC CHARGES
----------------------
   0 S :    0.393758
   1 C :   -0.215347
   2 C :   -0.055501
   3 C :   -0.057375
   4 C :   -0.177837
   5 H :    0.028344
   6 C :   -0.025444
   7 H :    0.025268
   8 H :    0.035960
   9 C :   -0.035301
  10 H :    0.012425
  11 H :    0.026880
  12 C :   -0.070415
  13 H :    0.023787
  14 H :    0.018983
  15 H :    0.034135
  16 S :    0.439944
  17 C :   -0.201058
  18 C :   -0.065437
  19 C :   -0.051554
  20 C :   -0.212244
  21 H :    0.020219
  22 C :   -0.027684
  23 H :    0.025286
  24 H :    0.025243
  25 C :   -0.027064
  26 H :    0.027621
  27 H :    0.024020
  28 C :   -0.060176
  29 H :    0.019704
  30 H :    0.020355
  31 H :    0.020200
  32 H :    0.032813
  33 H :    0.027491

  Mayer bond orders larger than 0.100000
B(  0-S ,  1-C ) :   1.1347 B(  0-S ,  4-C ) :   1.1488 B(  1-C ,  2-C ) :   1.6188
B(  1-C , 32-H ) :   0.9581 B(  2-C ,  3-C ) :   1.2226 B(  2-C ,  6-C ) :   1.0357
B(  3-C ,  4-C ) :   1.5633 B(  3-C ,  5-H ) :   0.9914 B(  4-C , 20-C ) :   1.0515
B(  6-C ,  7-H ) :   0.9387 B(  6-C ,  8-H ) :   0.9342 B(  6-C ,  9-C ) :   1.0782
B(  9-C , 10-H ) :   0.9595 B(  9-C , 11-H ) :   0.9509 B(  9-C , 12-C ) :   1.0730
B( 12-C , 13-H ) :   0.9758 B( 12-C , 14-H ) :   0.9770 B( 12-C , 15-H ) :   0.9699
B( 16-S , 17-C ) :   1.1771 B( 16-S , 20-C ) :   1.1459 B( 17-C , 18-C ) :   1.5955
B( 17-C , 33-H ) :   0.9654 B( 18-C , 19-C ) :   1.2345 B( 18-C , 21-H ) :   1.0051
B( 19-C , 20-C ) :   1.5780 B( 19-C , 22-C ) :   1.0551 B( 22-C , 23-H ) :   0.9309
B( 22-C , 24-H ) :   0.9053 B( 22-C , 25-C ) :   1.0594 B( 25-C , 26-H ) :   0.9513
B( 25-C , 27-H ) :   0.9623 B( 25-C , 28-C ) :   1.0864 B( 28-C , 29-H ) :   0.9705
B( 28-C , 30-H ) :   0.9733 B( 28-C , 31-H ) :   0.9743

Dispersion correction           -0.014586601
FINAL SINGLE POINT ENERGY     -1339.860899426231

DIPOLE MOMENT
-------------
                                X             Y             Z
Electronic contribution:    -21.80274      -3.98924      -9.27564
Nuclear contribution   :     22.33594       4.10622       9.69093
                        -----------------------------------------
Total Dipole Moment    :      0.53320       0.11698       0.41529
                        -----------------------------------------
Magnitude (a.u.)       :      0.68589
Magnitude (Debye)      :      1.74340

Rotational constants in cm-1:     0.017727     0.008991     0.007400
Rotational constants in MHz :   531.454092   269.529226   221.841555

                             ****ORCA TERMINATED NORMALLY****
TOTAL RUN TIME: 0 days 0 hours 0 minutes 34 seconds 241 msec
