                         Program Version 4.2.1 -  RELEASE  -
|  1> ! wB97X-D3 SP def2-SVP
|  2> %pal
|  3> nprocs 16
|  4> end
|  5>
|  6> * xyz 0 1
|  7> S 	 65.8027 	 -7.43908 	 88.7254
|  8> C 	 64.4047 	 -6.43557 	 89.1024
|  9> C 	 64.6928 	 -5.10708 	 88.9621
| 10> C 	 65.8749 	 -4.9165 	 88.2528
| 11> C 	 66.6584 	 -5.9987 	 88.0717
| 12> H 	 66.4181 	 -4.0546 	 87.8581
| 13> C 	 63.8012 	 -3.95103 	 89.2478
| 14> H 	 63.2201 	 -4.26668 	 90.1177
| 15> H 	 63.0838 	 -3.89465 	 88.4024
| 16> C 	 64.4583 	 -2.53448 	 89.4855
| 17> H 	 65.1334 	 -2.88535 	 90.2306
| 18> H 	 64.8878 	 -2.20216 	 88.5382
| 19> C 	 63.6493 	 -1.54366 	 90.1909
| 20> H 	 62.9136 	 -1.07768 	 89.5851
| 21> H 	 63.1074 	 -2.12938 	 90.9839
| 22> H 	 64.2508 	 -0.80548 	 90.8055
| 23> S 	 68.7009 	 -7.69012 	 87.2934
| 24> C 	 69.8703 	 -7.1312 	 86.1666
| 25> C 	 69.7346 	 -5.76926 	 85.894
| 26> C 	 68.6035 	 -5.18283 	 86.5131
| 27> C 	 67.9086 	 -6.09209 	 87.3252
| 28> H 	 70.3265 	 -5.3057 	 85.1521
| 29> C 	 68.2953 	 -3.73544 	 86.0788
| 30> H 	 67.1969 	 -3.57115 	 85.9417
| 31> H 	 68.7101 	 -3.5011 	 85.0482
| 32> C 	 68.9063 	 -2.65217 	 86.894
| 33> H 	 68.4404 	 -2.58278 	 87.8937
| 34> H 	 68.669 	 -1.65843 	 86.4462
| 35> C 	 70.4098 	 -2.79176 	 87.0448
| 36> H 	 70.9165 	 -2.66941 	 86.0461
| 37> H 	 70.7844 	 -3.73391 	 87.378
| 38> H 	 70.8857 	 -1.95243 	 87.6119
| 39> H 	 63.4717 	 -6.7901 	 89.5039
| 40> H 	 70.6542 	 -7.72846 	 85.7414
| 41> *
| 42>
| 43>                          ****END OF INPUT****

CARTESIAN COORDINATES (ANGSTROEM)
---------------------------------
  S     65.802700   -7.439080   88.725400
  C     64.404700   -6.435570   89.102400
  C     64.692800   -5.107080   88.962100
  C     65.874900   -4.916500   88.252800
  C     66.658400   -5.998700   88.071700
  H     66.418100   -4.054600   87.858100
  C     63.801200   -3.951030   89.247800
  H     63.220100   -4.266680   90.117700
  H     63.083800   -3.894650   88.402400
  C     64.458300   -2.534480   89.485500
  H     65.133400   -2.885350   90.230600
  H     64.887800   -2.202160   88.538200
  C     63.649300   -1.543660   90.190900
  H     62.913600   -1.077680   89.585100
  H     63.107400   -2.129380   90.983900
  H     64.250800   -0.805480   90.805500
  S     68.700900   -7.690120   87.293400
  C     69.870300   -7.131200   86.166600
  C     69.734600   -5.769260   85.894000
  C     68.603500   -5.182830   86.513100
  C     67.908600   -6.092090   87.325200
  H     70.326500   -5.305700   85.152100
  C     68.295300   -3.735440   86.078800
  H     67.196900   -3.571150   85.941700
  H     68.710100   -3.501100   85.048200
  C     68.906300   -2.652170   86.894000
  H     68.440400   -2.582780   87.893700
  H     68.669000   -1.658430   86.446200
  C     70.409800   -2.791760   87.044800
  H     70.916500   -2.669410   86.046100
  H     70.784400   -3.733910   87.378000
  H     70.885700   -1.952430   87.611900
  H     63.471700   -6.790100   89.503900
  H     70.654200   -7.728460   85.741400

 Total Charge           Charge          ....    0
 Multiplicity           Mult            ....    1
 Number of Electrons    NEL             ....  134
 Basis Dimension        Dim             ....  322

ORBITAL ENERGIES
----------------

  NO   OCC          E(Eh)            E(eV)
   0   2.0000     -88.970276     -2421.0043
   1   2.0000     -88.963752     -2420.8268
   2   2.0000     -10.336379      -281.2672
   3   2.0000     -10.327871      -281.0357
   4   2.0000     -10.316823      -280.7350
   5   2.0000     -10.312451      -280.6161
   6   2.0000     -10.309237      -280.5286
   7   2.0000     -10.302954      -280.3576
   8   2.0000     -10.297044      -280.1968
   9   2.0000     -10.292814      -280.0817
  10   2.0000     -10.291163      -280.0368
  11   2.0000     -10.289798      -279.9996
  12   2.0000     -10.284893      -279.8662
  13   2.0000     -10.284064      -279.8436
  14   2.0000     -10.281399      -279.7711
  15   2.0000     -10.279075      -279.7078
  16   2.0000      -8.084955      -220.0028
  17   2.0000      -8.077658      -219.8043
  18   2.0000      -6.043425      -164.4499
  19   2.0000      -6.039515      -164.3435
  20   2.0000      -6.036419      -164.2593
  21   2.0000      -6.035726      -164.2405
  22   2.0000      -6.032435      -164.1509
  23   2.0000      -6.028062      -164.0319
  24   2.0000      -1.008274       -27.4365
  25   2.0000      -0.987331       -26.8666
  26   2.0000      -0.918810       -25.0021
  27   2.0000      -0.916398       -24.9364
  28   2.0000      -0.876044       -23.8384
  29   2.0000      -0.855975       -23.2923
  30   2.0000      -0.847196       -23.0534
  31   2.0000      -0.816907       -22.2292
  32   2.0000      -0.786876       -21.4120
  33   2.0000      -0.772517       -21.0213
  34   2.0000      -0.713505       -19.4155
  35   2.0000      -0.696896       -18.9635
  36   2.0000      -0.687758       -18.7148
  37   2.0000      -0.667245       -18.1567
  38   2.0000      -0.643559       -17.5121
  39   2.0000      -0.617587       -16.8054
  40   2.0000      -0.597817       -16.2674
  41   2.0000      -0.587074       -15.9751
  42   2.0000      -0.561460       -15.2781
  43   2.0000      -0.556075       -15.1316
  44   2.0000      -0.552932       -15.0460
  45   2.0000      -0.524607       -14.2753
  46   2.0000      -0.520110       -14.1529
  47   2.0000      -0.506335       -13.7781
  48   2.0000      -0.503680       -13.7058
  49   2.0000      -0.495349       -13.4791
  50   2.0000      -0.493251       -13.4220
  51   2.0000      -0.487305       -13.2603
  52   2.0000      -0.477291       -12.9877
  53   2.0000      -0.468400       -12.7458
  54   2.0000      -0.461411       -12.5556
  55   2.0000      -0.448147       -12.1947
  56   2.0000      -0.445995       -12.1361
  57   2.0000      -0.439804       -11.9677
  58   2.0000      -0.432045       -11.7565
  59   2.0000      -0.424541       -11.5524
  60   2.0000      -0.417716       -11.3666
  61   2.0000      -0.408328       -11.1112
  62   2.0000      -0.402649       -10.9566
  63   2.0000      -0.363705        -9.8969
  64   2.0000      -0.338924        -9.2226
  65   2.0000      -0.329026        -8.9532
  66   2.0000      -0.278036        -7.5657
  67   0.0000       0.017096         0.4652
  68   0.0000       0.080865         2.2004
  69   0.0000       0.094158         2.5622
  70   0.0000       0.117397         3.1945
  71   0.0000       0.127222         3.4619

MULLIKEN ATOMIC CHARGES
-----------------------
   0 S :    0.088175
   1 C :   -0.122081
   2 C :   -0.048507
   3 C :   -0.030921
   4 C :   -0.091543
   5 H :   -0.010210
   6 C :    0.031558
   7 H :    0.016055
   8 H :    0.044607
   9 C :   -0.075953
  10 H :    0.028877
  11 H :    0.045689
  12 C :   -0.026754
  13 H :    0.028724
  14 H :    0.018444
  15 H :    0.047592
  16 S :    0.109026
  17 C :   -0.076915
  18 C :   -0.029540
  19 C :   -0.050715
  20 C :   -0.119872
  21 H :    0.005859
  22 C :    0.005686
  23 H :    0.044256
  24 H :    0.031563
  25 C :   -0.048812
  26 H :    0.033432
  27 H :    0.032435
  28 C :   -0.076229
  29 H :    0.012944
  30 H :    0.048746
  31 H :    0.040454
  32 H :    0.039813
  33 H :    0.054119
Sum of atomic charges:   -0.0000000

LOEWDIN ATOMIC CHARGES
----------------------
   0 S :    0.365052
   1 C :   -0.183909
   2 C :   -0.069237
   3 C :   -0.074578
   4 C :   -0.167719
   5 H :    0.035142
   6 C :   -0.034274
   7 H :    0.027210
   8 H :    0.033883
   9 C :   -0.045330
  10 H :    0.030041
  11 H :    0.024507
  12 C :   -0.065343
  13 H :    0.017728
  14 H :    0.031905
  15 H :    0.037010
  16 S :    0.411179
  17 C :   -0.190380
  18 C :   -0.066804
  19 C :   -0.057480
  20 C :   -0.179014
  21 H :    0.024554
  22 C :   -0.040611
  23 H :    0.032867
  24 H :    0.038523
  25 C :   -0.048898
  26 H :    0.021712
  27 H :    0.030276
  28 C :   -0.072668
  29 H :    0.024954
  30 H :    0.022483
  31 H :    0.032622
  32 H :    0.026720
  33 H :    0.027877

  Mayer bond orders larger than 0.100000
B(  0-S ,  1-C ) :   1.1282 B(  0-S ,  4-C ) :   1.1018 B(  1-C ,  2-C ) :   1.6217
B(  1-C , 32-H ) :   0.9708 B(  2-C ,  3-C ) :   1.1958 B(  2-C ,  6-C ) :   1.0278
B(  3-C ,  4-C ) :   1.6464 B(  3-C ,  5-H ) :   0.9762 B(  4-C , 20-C ) :   1.0878
B(  6-C ,  7-H ) :   0.9345 B(  6-C ,  8-H ) :   0.9305 B(  6-C ,  9-C ) :   1.0612
B(  9-C , 10-H ) :   0.9579 B(  9-C , 11-H ) :   0.9452 B(  9-C , 12-C ) :   1.0976
B( 12-C , 13-H ) :   0.9732 B( 12-C , 14-H ) :   0.9663 B( 12-C , 15-H ) :   0.9719
B( 16-S , 17-C ) :   1.1664 B( 16-S , 20-C ) :   1.1357 B( 17-C , 18-C ) :   1.5883
B( 17-C , 20-C ) :   0.1006 B( 17-C , 33-H ) :   0.9677 B( 18-C , 19-C ) :   1.2659
B( 18-C , 21-H ) :   0.9929 B( 19-C , 20-C ) :   1.5782 B( 19-C , 22-C ) :   1.0198
B( 22-C , 23-H ) :   0.9354 B( 22-C , 24-H ) :   0.9383 B( 22-C , 25-C ) :   1.0801
B( 25-C , 26-H ) :   0.9483 B( 25-C , 27-H ) :   0.9515 B( 25-C , 28-C ) :   1.0812
B( 28-C , 29-H ) :   0.9688 B( 28-C , 30-H ) :   0.9706 B( 28-C , 31-H ) :   0.9716

Dispersion correction           -0.014193110
FINAL SINGLE POINT ENERGY     -1339.861473496785

DIPOLE MOMENT
-------------
                                X             Y             Z
Electronic contribution:      3.01279     -30.92289      -1.78927
Nuclear contribution   :     -3.05878      31.63733       1.57250
                        -----------------------------------------
Total Dipole Moment    :     -0.04600       0.71444      -0.21677
                        -----------------------------------------
Magnitude (a.u.)       :      0.74802
Magnitude (Debye)      :      1.90131

Rotational constants in cm-1:     0.017738     0.009595     0.006476
Rotational constants in MHz :   531.783589   287.660047   194.134330

                             ****ORCA TERMINATED NORMALLY****
TOTAL RUN TIME: 0 days 0 hours 0 minutes 29 seconds 415 msec
