                         Program Version 4.2.1 -  RELEASE  -
|  1> ! wB97X-D3 SP def2-SVP
|  2> %pal
|  3> nprocs 16
|  4> end
|  5>
|  6> * xyz 0 1
|  7> S 	 -30.3767 	 67.9525 	 108.441
|  8> C 	 -31.618 	 68.4254 	 107.306
|  9> C 	 -31.9872 	 67.3739 	 106.439
| 10> C 	 -31.1777 	 66.2458 	 106.706
| 11> C 	 -30.2065 	 66.3898 	 107.708
| 12> H 	 -31.2787 	 65.3341 	 106.169
| 13> C 	 -32.9756 	 67.4485 	 105.285
| 14> H 	 -32.4316 	 67.1315 	 104.44
| 15> H 	 -33.1557 	 68.4862 	 105.184
| 16> C 	 -34.3986 	 66.7879 	 105.469
| 17> H 	 -35.0112 	 66.7877 	 104.587
| 18> H 	 -34.276 	 65.7039 	 105.68
| 19> C 	 -35.3305 	 67.494 	 106.456
| 20> H 	 -36.2736 	 66.8954 	 106.422
| 21> H 	 -34.9417 	 67.4821 	 107.454
| 22> H 	 -35.4689 	 68.519 	 106.197
| 23> S 	 -27.579 	 65.9969 	 108.485
| 24> C 	 -26.9379 	 64.3239 	 108.612
| 25> C 	 -27.9713 	 63.3938 	 108.482
| 26> C 	 -29.2006 	 64.0307 	 108.187
| 27> C 	 -29.1798 	 65.4004 	 108.039
| 28> H 	 -27.7916 	 62.2736 	 108.559
| 29> C 	 -30.3867 	 63.1134 	 107.852
| 30> H 	 -31.1815 	 63.6925 	 107.444
| 31> H 	 -30.7645 	 62.8603 	 108.777
| 32> C 	 -30.1927 	 61.8281 	 107.089
| 33> H 	 -31.1167 	 61.2042 	 107.031
| 34> H 	 -29.5319 	 61.1882 	 107.636
| 35> C 	 -29.6201 	 62.0352 	 105.7
| 36> H 	 -30.2201 	 62.4967 	 104.937
| 37> H 	 -29.5363 	 61 	 105.396
| 38> H 	 -28.6443 	 62.4798 	 105.886
| 39> H 	 -32.3585 	 69.2403 	 107.356
| 40> H 	 -25.9111 	 63.9931 	 108.75
| 41> *
| 42>
| 43>                          ****END OF INPUT****

CARTESIAN COORDINATES (ANGSTROEM)
---------------------------------
  S    -30.376700   67.952500  108.441000
  C    -31.618000   68.425400  107.306000
  C    -31.987200   67.373900  106.439000
  C    -31.177700   66.245800  106.706000
  C    -30.206500   66.389800  107.708000
  H    -31.278700   65.334100  106.169000
  C    -32.975600   67.448500  105.285000
  H    -32.431600   67.131500  104.440000
  H    -33.155700   68.486200  105.184000
  C    -34.398600   66.787900  105.469000
  H    -35.011200   66.787700  104.587000
  H    -34.276000   65.703900  105.680000
  C    -35.330500   67.494000  106.456000
  H    -36.273600   66.895400  106.422000
  H    -34.941700   67.482100  107.454000
  H    -35.468900   68.519000  106.197000
  S    -27.579000   65.996900  108.485000
  C    -26.937900   64.323900  108.612000
  C    -27.971300   63.393800  108.482000
  C    -29.200600   64.030700  108.187000
  C    -29.179800   65.400400  108.039000
  H    -27.791600   62.273600  108.559000
  C    -30.386700   63.113400  107.852000
  H    -31.181500   63.692500  107.444000
  H    -30.764500   62.860300  108.777000
  C    -30.192700   61.828100  107.089000
  H    -31.116700   61.204200  107.031000
  H    -29.531900   61.188200  107.636000
  C    -29.620100   62.035200  105.700000
  H    -30.220100   62.496700  104.937000
  H    -29.536300   61.000000  105.396000
  H    -28.644300   62.479800  105.886000
  H    -32.358500   69.240300  107.356000
  H    -25.911100   63.993100  108.750000

 Total Charge           Charge          ....    0
 Multiplicity           Mult            ....    1
 Number of Electrons    NEL             ....  134
 Basis Dimension        Dim             ....  322

ORBITAL ENERGIES
----------------

  NO   OCC          E(Eh)            E(eV)
   0   2.0000     -88.974113     -2421.1087
   1   2.0000     -88.967645     -2420.9327
   2   2.0000     -10.333768      -281.1961
   3   2.0000     -10.331229      -281.1270
   4   2.0000     -10.325185      -280.9626
   5   2.0000     -10.316749      -280.7330
   6   2.0000     -10.303386      -280.3694
   7   2.0000     -10.302450      -280.3439
   8   2.0000     -10.301739      -280.3246
   9   2.0000     -10.291926      -280.0575
  10   2.0000     -10.291863      -280.0558
  11   2.0000     -10.289861      -280.0014
  12   2.0000     -10.285567      -279.8845
  13   2.0000     -10.277873      -279.6752
  14   2.0000     -10.276183      -279.6292
  15   2.0000     -10.270619      -279.4778
  16   2.0000      -8.088435      -220.0975
  17   2.0000      -8.081317      -219.9038
  18   2.0000      -6.047016      -164.5477
  19   2.0000      -6.042904      -164.4358
  20   2.0000      -6.040009      -164.3570
  21   2.0000      -6.039228      -164.3357
  22   2.0000      -6.036005      -164.2480
  23   2.0000      -6.031906      -164.1365
  24   2.0000      -1.005927       -27.3727
  25   2.0000      -0.982996       -26.7487
  26   2.0000      -0.914874       -24.8950
  27   2.0000      -0.909721       -24.7548
  28   2.0000      -0.868947       -23.6452
  29   2.0000      -0.854403       -23.2495
  30   2.0000      -0.846824       -23.0433
  31   2.0000      -0.814516       -22.1641
  32   2.0000      -0.787733       -21.4353
  33   2.0000      -0.777548       -21.1582
  34   2.0000      -0.710446       -19.3322
  35   2.0000      -0.699541       -19.0355
  36   2.0000      -0.695911       -18.9367
  37   2.0000      -0.659857       -17.9556
  38   2.0000      -0.634806       -17.2739
  39   2.0000      -0.621975       -16.9248
  40   2.0000      -0.595656       -16.2086
  41   2.0000      -0.568331       -15.4651
  42   2.0000      -0.560188       -15.2435
  43   2.0000      -0.554402       -15.0861
  44   2.0000      -0.547702       -14.9037
  45   2.0000      -0.540949       -14.7200
  46   2.0000      -0.525160       -14.2903
  47   2.0000      -0.514173       -13.9914
  48   2.0000      -0.507896       -13.8205
  49   2.0000      -0.499263       -13.5857
  50   2.0000      -0.486274       -13.2322
  51   2.0000      -0.476867       -12.9762
  52   2.0000      -0.468568       -12.7504
  53   2.0000      -0.465432       -12.6650
  54   2.0000      -0.459449       -12.5022
  55   2.0000      -0.449317       -12.2265
  56   2.0000      -0.446743       -12.1565
  57   2.0000      -0.440614       -11.9897
  58   2.0000      -0.430087       -11.7033
  59   2.0000      -0.427621       -11.6362
  60   2.0000      -0.421838       -11.4788
  61   2.0000      -0.418322       -11.3831
  62   2.0000      -0.405390       -11.0312
  63   2.0000      -0.354580        -9.6486
  64   2.0000      -0.334901        -9.1131
  65   2.0000      -0.330764        -9.0006
  66   2.0000      -0.284279        -7.7356
  67   0.0000       0.023469         0.6386
  68   0.0000       0.068768         1.8713
  69   0.0000       0.105477         2.8702
  70   0.0000       0.117236         3.1902
  71   0.0000       0.131316         3.5733

MULLIKEN ATOMIC CHARGES
-----------------------
   0 S :    0.133628
   1 C :   -0.113746
   2 C :   -0.137558
   3 C :    0.020462
   4 C :   -0.135560
   5 H :   -0.003141
   6 C :    0.119104
   7 H :    0.030649
   8 H :   -0.001633
   9 C :   -0.078190
  10 H :    0.025664
  11 H :    0.029513
  12 C :   -0.053226
  13 H :    0.044421
  14 H :    0.034291
  15 H :    0.026418
  16 S :    0.093439
  17 C :   -0.090940
  18 C :   -0.066053
  19 C :   -0.064003
  20 C :   -0.140771
  21 H :    0.051225
  22 C :    0.149701
  23 H :   -0.008448
  24 H :    0.004355
  25 C :   -0.096055
  26 H :    0.027952
  27 H :    0.010799
  28 C :   -0.025751
  29 H :    0.034600
  30 H :    0.022120
  31 H :    0.041973
  32 H :    0.055343
  33 H :    0.059418
Sum of atomic charges:   -0.0000000

LOEWDIN ATOMIC CHARGES
----------------------
   0 S :    0.426266
   1 C :   -0.216972
   2 C :   -0.059700
   3 C :   -0.063148
   4 C :   -0.198587
   5 H :    0.020988
   6 C :   -0.022940
   7 H :    0.030740
   8 H :    0.024704
   9 C :   -0.040460
  10 H :    0.022961
  11 H :    0.023976
  12 C :   -0.061417
  13 H :    0.036514
  14 H :    0.020407
  15 H :    0.019907
  16 S :    0.381205
  17 C :   -0.170367
  18 C :   -0.079556
  19 C :   -0.057161
  20 C :   -0.190892
  21 H :    0.046297
  22 C :   -0.030602
  23 H :    0.022525
  24 H :    0.026351
  25 C :   -0.040140
  26 H :    0.029982
  27 H :    0.015801
  28 C :   -0.062683
  29 H :    0.021904
  30 H :    0.027217
  31 H :    0.029091
  32 H :    0.034966
  33 H :    0.032823

  Mayer bond orders larger than 0.100000
B(  0-S ,  1-C ) :   1.1477 B(  0-S ,  4-C ) :   1.1594 B(  1-C ,  2-C ) :   1.5829
B(  1-C ,  4-C ) :   0.1044 B(  1-C , 32-H ) :   0.9518 B(  2-C ,  3-C ) :   1.2918
B(  2-C ,  6-C ) :   1.0152 B(  3-C ,  4-C ) :   1.5263 B(  3-C ,  5-H ) :   0.9937
B(  4-C , 20-C ) :   1.0612 B(  6-C ,  7-H ) :   0.9424 B(  6-C ,  8-H ) :   0.9361
B(  6-C ,  9-C ) :   1.0580 B(  9-C , 10-H ) :   0.9599 B(  9-C , 11-H ) :   0.9597
B(  9-C , 12-C ) :   1.0727 B( 12-C , 13-H ) :   0.9735 B( 12-C , 14-H ) :   0.9787
B( 12-C , 15-H ) :   0.9745 B( 16-S , 17-C ) :   1.1493 B( 16-S , 20-C ) :   1.1148
B( 17-C , 18-C ) :   1.6107 B( 17-C , 20-C ) :   0.1024 B( 17-C , 33-H ) :   0.9658
B( 18-C , 19-C ) :   1.2453 B( 18-C , 21-H ) :   0.9749 B( 19-C , 20-C ) :   1.6043
B( 19-C , 22-C ) :   1.0232 B( 22-C , 23-H ) :   0.9333 B( 22-C , 24-H ) :   0.9063
B( 22-C , 25-C ) :   1.0882 B( 25-C , 26-H ) :   0.9484 B( 25-C , 27-H ) :   0.9448
B( 25-C , 28-C ) :   1.0824 B( 28-C , 29-H ) :   0.9764 B( 28-C , 30-H ) :   0.9732
B( 28-C , 31-H ) :   0.9705

Dispersion correction           -0.014377808
FINAL SINGLE POINT ENERGY     -1339.860694339528

DIPOLE MOMENT
-------------
                                X             Y             Z
Electronic contribution:     20.95680      14.30537      14.18020
Nuclear contribution   :    -21.45743     -14.89988     -14.50875
                        -----------------------------------------
Total Dipole Moment    :     -0.50063      -0.59451      -0.32855
                        -----------------------------------------
Magnitude (a.u.)       :      0.84382
Magnitude (Debye)      :      2.14481

Rotational constants in cm-1:     0.019395     0.008721     0.006458
Rotational constants in MHz :   581.452650   261.438890   193.609218

                             ****ORCA TERMINATED NORMALLY****
TOTAL RUN TIME: 0 days 0 hours 0 minutes 28 seconds 644 msec
