                         Program Version 4.2.1 -  RELEASE  -
|  1> ! wB97X-D3 SP def2-SVP
|  2> %pal
|  3> nprocs 16
|  4> end
|  5>
|  6> * xyz 0 1
|  7> S 	 66.7007 	 21.802 	 71.7274
|  8> C 	 65.8961 	 20.8164 	 72.937
|  9> C 	 65.569 	 21.5534 	 74.0916
| 10> C 	 66.2939 	 22.8209 	 74.0684
| 11> C 	 66.85 	 23.1701 	 72.8815
| 12> H 	 66.2062 	 23.6685 	 74.7291
| 13> C 	 64.7971 	 21.0914 	 75.2917
| 14> H 	 64.3141 	 20.1183 	 74.9743
| 15> H 	 64.0019 	 21.8031 	 75.5697
| 16> C 	 65.624 	 20.8936 	 76.5112
| 17> H 	 66.623 	 20.557 	 76.1924
| 18> H 	 65.7346 	 21.8631 	 76.9802
| 19> C 	 65.0907 	 19.9421 	 77.5881
| 20> H 	 65.8017 	 19.7545 	 78.3641
| 21> H 	 64.1139 	 20.2509 	 77.8744
| 22> H 	 64.9063 	 18.9947 	 77.1569
| 23> S 	 66.6578 	 25.2245 	 70.9863
| 24> C 	 67.6731 	 26.6163 	 70.9948
| 25> C 	 68.4871 	 26.5274 	 72.1105
| 26> C 	 68.3023 	 25.3344 	 72.9606
| 27> C 	 67.3257 	 24.4954 	 72.4634
| 28> H 	 69.1888 	 27.3201 	 72.3384
| 29> C 	 69.228 	 25.1041 	 74.1186
| 30> H 	 68.6567 	 24.4209 	 74.8204
| 31> H 	 69.378 	 26.0835 	 74.5386
| 32> C 	 70.5841 	 24.5236 	 73.6487
| 33> H 	 71.0127 	 25.0912 	 72.8428
| 34> H 	 70.4873 	 23.551 	 73.1745
| 35> C 	 71.6686 	 24.3727 	 74.749
| 36> H 	 72.5977 	 24.4355 	 74.2369
| 37> H 	 71.6853 	 23.4357 	 75.3954
| 38> H 	 71.527 	 25.1912 	 75.4274
| 39> H 	 65.7203 	 19.787 	 72.9378
| 40> H 	 67.5162 	 27.4842 	 70.3664
| 41> *
| 42>
| 43>                          ****END OF INPUT****

CARTESIAN COORDINATES (ANGSTROEM)
---------------------------------
  S     66.700700   21.802000   71.727400
  C     65.896100   20.816400   72.937000
  C     65.569000   21.553400   74.091600
  C     66.293900   22.820900   74.068400
  C     66.850000   23.170100   72.881500
  H     66.206200   23.668500   74.729100
  C     64.797100   21.091400   75.291700
  H     64.314100   20.118300   74.974300
  H     64.001900   21.803100   75.569700
  C     65.624000   20.893600   76.511200
  H     66.623000   20.557000   76.192400
  H     65.734600   21.863100   76.980200
  C     65.090700   19.942100   77.588100
  H     65.801700   19.754500   78.364100
  H     64.113900   20.250900   77.874400
  H     64.906300   18.994700   77.156900
  S     66.657800   25.224500   70.986300
  C     67.673100   26.616300   70.994800
  C     68.487100   26.527400   72.110500
  C     68.302300   25.334400   72.960600
  C     67.325700   24.495400   72.463400
  H     69.188800   27.320100   72.338400
  C     69.228000   25.104100   74.118600
  H     68.656700   24.420900   74.820400
  H     69.378000   26.083500   74.538600
  C     70.584100   24.523600   73.648700
  H     71.012700   25.091200   72.842800
  H     70.487300   23.551000   73.174500
  C     71.668600   24.372700   74.749000
  H     72.597700   24.435500   74.236900
  H     71.685300   23.435700   75.395400
  H     71.527000   25.191200   75.427400
  H     65.720300   19.787000   72.937800
  H     67.516200   27.484200   70.366400

 Total Charge           Charge          ....    0
 Multiplicity           Mult            ....    1
 Number of Electrons    NEL             ....  134
 Basis Dimension        Dim             ....  322

ORBITAL ENERGIES
----------------

  NO   OCC          E(Eh)            E(eV)
   0   2.0000     -88.967512     -2420.9291
   1   2.0000     -88.960774     -2420.7457
   2   2.0000     -10.333869      -281.1989
   3   2.0000     -10.331414      -281.1321
   4   2.0000     -10.319388      -280.8048
   5   2.0000     -10.316775      -280.7337
   6   2.0000     -10.308917      -280.5199
   7   2.0000     -10.305941      -280.4389
   8   2.0000     -10.297039      -280.1967
   9   2.0000     -10.296252      -280.1753
  10   2.0000     -10.295958      -280.1673
  11   2.0000     -10.294498      -280.1275
  12   2.0000     -10.283941      -279.8403
  13   2.0000     -10.282295      -279.7955
  14   2.0000     -10.276265      -279.6314
  15   2.0000     -10.271808      -279.5101
  16   2.0000      -8.081282      -219.9028
  17   2.0000      -8.075853      -219.7551
  18   2.0000      -6.039988      -164.3564
  19   2.0000      -6.035945      -164.2464
  20   2.0000      -6.034526      -164.2078
  21   2.0000      -6.031850      -164.1350
  22   2.0000      -6.030089      -164.0871
  23   2.0000      -6.026606      -163.9923
  24   2.0000      -1.002929       -27.2911
  25   2.0000      -0.981266       -26.7016
  26   2.0000      -0.919097       -25.0099
  27   2.0000      -0.907767       -24.7016
  28   2.0000      -0.872199       -23.7337
  29   2.0000      -0.849959       -23.1285
  30   2.0000      -0.844016       -22.9668
  31   2.0000      -0.818432       -22.2707
  32   2.0000      -0.782718       -21.2988
  33   2.0000      -0.773764       -21.0552
  34   2.0000      -0.707784       -19.2598
  35   2.0000      -0.698674       -19.0119
  36   2.0000      -0.695454       -18.9243
  37   2.0000      -0.662301       -18.0221
  38   2.0000      -0.647146       -17.6097
  39   2.0000      -0.615005       -16.7351
  40   2.0000      -0.592675       -16.1275
  41   2.0000      -0.582037       -15.8380
  42   2.0000      -0.561343       -15.2749
  43   2.0000      -0.557113       -15.1598
  44   2.0000      -0.534972       -14.5573
  45   2.0000      -0.531651       -14.4669
  46   2.0000      -0.516650       -14.0588
  47   2.0000      -0.513912       -13.9842
  48   2.0000      -0.511138       -13.9088
  49   2.0000      -0.504582       -13.7304
  50   2.0000      -0.487423       -13.2635
  51   2.0000      -0.480808       -13.0834
  52   2.0000      -0.470525       -12.8036
  53   2.0000      -0.464566       -12.6415
  54   2.0000      -0.460934       -12.5427
  55   2.0000      -0.446402       -12.1472
  56   2.0000      -0.442724       -12.0471
  57   2.0000      -0.438936       -11.9440
  58   2.0000      -0.432705       -11.7745
  59   2.0000      -0.421416       -11.4673
  60   2.0000      -0.418417       -11.3857
  61   2.0000      -0.414994       -11.2926
  62   2.0000      -0.408893       -11.1266
  63   2.0000      -0.355061        -9.6617
  64   2.0000      -0.329103        -8.9553
  65   2.0000      -0.323522        -8.8035
  66   2.0000      -0.294471        -8.0130
  67   0.0000       0.033552         0.9130
  68   0.0000       0.061265         1.6671
  69   0.0000       0.111121         3.0238
  70   0.0000       0.122844         3.3427
  71   0.0000       0.125021         3.4020

MULLIKEN ATOMIC CHARGES
-----------------------
   0 S :    0.112047
   1 C :   -0.082910
   2 C :   -0.114532
   3 C :    0.040669
   4 C :   -0.154612
   5 H :    0.017192
   6 C :    0.062907
   7 H :    0.020217
   8 H :    0.040624
   9 C :   -0.099615
  10 H :    0.030577
  11 H :    0.027306
  12 C :    0.011372
  13 H :    0.037226
  14 H :    0.016094
  15 H :    0.005189
  16 S :    0.089219
  17 C :   -0.087179
  18 C :   -0.045255
  19 C :   -0.067915
  20 C :   -0.157385
  21 H :    0.018072
  22 C :    0.096269
  23 H :    0.036047
  24 H :    0.020117
  25 C :   -0.080362
  26 H :    0.020286
  27 H :    0.029199
  28 C :   -0.031649
  29 H :    0.028598
  30 H :    0.045644
  31 H :    0.016640
  32 H :    0.028917
  33 H :    0.070988
Sum of atomic charges:   -0.0000000

LOEWDIN ATOMIC CHARGES
----------------------
   0 S :    0.383939
   1 C :   -0.186100
   2 C :   -0.053082
   3 C :   -0.064567
   4 C :   -0.175468
   5 H :    0.030509
   6 C :   -0.039232
   7 H :    0.032300
   8 H :    0.037458
   9 C :   -0.044359
  10 H :    0.024537
  11 H :    0.022309
  12 C :   -0.053934
  13 H :    0.028106
  14 H :    0.021319
  15 H :    0.018076
  16 S :    0.399388
  17 C :   -0.193125
  18 C :   -0.075257
  19 C :   -0.057396
  20 C :   -0.193490
  21 H :    0.026549
  22 C :   -0.032052
  23 H :    0.038571
  24 H :    0.028574
  25 C :   -0.039086
  26 H :    0.023354
  27 H :    0.028121
  28 C :   -0.065946
  29 H :    0.023410
  30 H :    0.032676
  31 H :    0.018273
  32 H :    0.019188
  33 H :    0.036439

  Mayer bond orders larger than 0.100000
B(  0-S ,  1-C ) :   1.1316 B(  0-S ,  4-C ) :   1.1140 B(  1-C ,  2-C ) :   1.6303
B(  1-C , 32-H ) :   0.9687 B(  2-C ,  3-C ) :   1.1949 B(  2-C ,  6-C ) :   1.0538
B(  3-C ,  4-C ) :   1.6451 B(  3-C ,  5-H ) :   0.9747 B(  4-C , 20-C ) :   1.0363
B(  6-C ,  7-H ) :   0.9412 B(  6-C ,  8-H ) :   0.9289 B(  6-C ,  9-C ) :   1.0580
B(  9-C , 10-H ) :   0.9602 B(  9-C , 11-H ) :   0.9476 B(  9-C , 12-C ) :   1.0948
B( 12-C , 13-H ) :   0.9733 B( 12-C , 14-H ) :   0.9703 B( 12-C , 15-H ) :   0.9711
B( 16-S , 17-C ) :   1.1550 B( 16-S , 20-C ) :   1.1321 B( 17-C , 18-C ) :   1.6012
B( 17-C , 33-H ) :   0.9695 B( 18-C , 19-C ) :   1.2326 B( 18-C , 21-H ) :   0.9870
B( 19-C , 20-C ) :   1.6047 B( 19-C , 22-C ) :   1.0542 B( 22-C , 23-H ) :   0.9303
B( 22-C , 24-H ) :   0.9205 B( 22-C , 25-C ) :   1.0722 B( 25-C , 26-H ) :   0.9588
B( 25-C , 27-H ) :   0.9522 B( 25-C , 28-C ) :   1.0718 B( 28-C , 29-H ) :   0.9763
B( 28-C , 30-H ) :   0.9778 B( 28-C , 31-H ) :   0.9759

Dispersion correction           -0.013581089
FINAL SINGLE POINT ENERGY     -1339.870803168054

DIPOLE MOMENT
-------------
                                X             Y             Z
Electronic contribution:     -8.63993       6.74731     -26.05866
Nuclear contribution   :      8.77642      -6.65374      26.67919
                        -----------------------------------------
Total Dipole Moment    :      0.13649       0.09358       0.62053
                        -----------------------------------------
Magnitude (a.u.)       :      0.64221
Magnitude (Debye)      :      1.63238

Rotational constants in cm-1:     0.017747     0.008061     0.006405
Rotational constants in MHz :   532.031179   241.675500   192.006496

                             ****ORCA TERMINATED NORMALLY****
TOTAL RUN TIME: 0 days 0 hours 0 minutes 29 seconds 516 msec
