                         Program Version 4.2.1 -  RELEASE  -
|  1> ! wB97X-D3 SP def2-SVP
|  2> %pal
|  3> nprocs 16
|  4> end
|  5>
|  6> * xyz 0 1
|  7> S 	 -15.4374 	 56.77 	 62.2499
|  8> C 	 -15.4486 	 54.9839 	 62.1859
|  9> C 	 -16.4611 	 54.4948 	 63.0585
| 10> C 	 -16.866 	 55.5136 	 63.9152
| 11> C 	 -16.2889 	 56.7345 	 63.7511
| 12> H 	 -17.5336 	 55.4023 	 64.7719
| 13> C 	 -16.9222 	 53.0159 	 63.1902
| 14> H 	 -17.4184 	 52.8956 	 64.1445
| 15> H 	 -16.0719 	 52.3638 	 63.1715
| 16> C 	 -17.7715 	 52.6234 	 61.9602
| 17> H 	 -17.215 	 52.3854 	 61.05
| 18> H 	 -18.3052 	 51.6654 	 62.2196
| 19> C 	 -18.857 	 53.6704 	 61.6087
| 20> H 	 -19.3656 	 53.2913 	 60.7662
| 21> H 	 -19.6329 	 53.9782 	 62.3041
| 22> H 	 -18.438 	 54.5978 	 61.2572
| 23> S 	 -16.501 	 59.4542 	 63.7342
| 24> C 	 -16.7589 	 60.2874 	 65.2134
| 25> C 	 -16.8632 	 59.4714 	 66.2803
| 26> C 	 -16.7483 	 58.0885 	 65.8937
| 27> C 	 -16.4877 	 57.9047 	 64.5397
| 28> H 	 -17.0959 	 59.8569 	 67.2406
| 29> C 	 -16.9287 	 56.9951 	 66.982
| 30> H 	 -16.2523 	 57.1602 	 67.8675
| 31> H 	 -16.4358 	 56.0841 	 66.7373
| 32> C 	 -18.3933 	 56.7038 	 67.5555
| 33> H 	 -19.0191 	 57.3409 	 66.9903
| 34> H 	 -18.407 	 57.1553 	 68.5365
| 35> C 	 -18.8139 	 55.1832 	 67.6673
| 36> H 	 -17.9755 	 54.6608 	 68.0137
| 37> H 	 -19.1076 	 54.8127 	 66.7052
| 38> H 	 -19.6223 	 54.9205 	 68.379
| 39> H 	 -14.9786 	 54.3557 	 61.4649
| 40> H 	 -16.9024 	 61.3715 	 65.1688
| 41> *
| 42>
| 43>                          ****END OF INPUT****

CARTESIAN COORDINATES (ANGSTROEM)
---------------------------------
  S    -15.437400   56.770000   62.249900
  C    -15.448600   54.983900   62.185900
  C    -16.461100   54.494800   63.058500
  C    -16.866000   55.513600   63.915200
  C    -16.288900   56.734500   63.751100
  H    -17.533600   55.402300   64.771900
  C    -16.922200   53.015900   63.190200
  H    -17.418400   52.895600   64.144500
  H    -16.071900   52.363800   63.171500
  C    -17.771500   52.623400   61.960200
  H    -17.215000   52.385400   61.050000
  H    -18.305200   51.665400   62.219600
  C    -18.857000   53.670400   61.608700
  H    -19.365600   53.291300   60.766200
  H    -19.632900   53.978200   62.304100
  H    -18.438000   54.597800   61.257200
  S    -16.501000   59.454200   63.734200
  C    -16.758900   60.287400   65.213400
  C    -16.863200   59.471400   66.280300
  C    -16.748300   58.088500   65.893700
  C    -16.487700   57.904700   64.539700
  H    -17.095900   59.856900   67.240600
  C    -16.928700   56.995100   66.982000
  H    -16.252300   57.160200   67.867500
  H    -16.435800   56.084100   66.737300
  C    -18.393300   56.703800   67.555500
  H    -19.019100   57.340900   66.990300
  H    -18.407000   57.155300   68.536500
  C    -18.813900   55.183200   67.667300
  H    -17.975500   54.660800   68.013700
  H    -19.107600   54.812700   66.705200
  H    -19.622300   54.920500   68.379000
  H    -14.978600   54.355700   61.464900
  H    -16.902400   61.371500   65.168800

 Total Charge           Charge          ....    0
 Multiplicity           Mult            ....    1
 Number of Electrons    NEL             ....  134
 Basis Dimension        Dim             ....  322

ORBITAL ENERGIES
----------------

  NO   OCC          E(Eh)            E(eV)
   0   2.0000     -88.966558     -2420.9031
   1   2.0000     -88.963213     -2420.8121
   2   2.0000     -10.326823      -281.0071
   3   2.0000     -10.322254      -280.8828
   4   2.0000     -10.315820      -280.7077
   5   2.0000     -10.313637      -280.6483
   6   2.0000     -10.308478      -280.5079
   7   2.0000     -10.303587      -280.3748
   8   2.0000     -10.295473      -280.1541
   9   2.0000     -10.295141      -280.1450
  10   2.0000     -10.293899      -280.1112
  11   2.0000     -10.290445      -280.0173
  12   2.0000     -10.289523      -279.9921
  13   2.0000     -10.285566      -279.8845
  14   2.0000     -10.282158      -279.7917
  15   2.0000     -10.266162      -279.3565
  16   2.0000      -8.081023      -219.8958
  17   2.0000      -8.079253      -219.8477
  18   2.0000      -6.039556      -164.3447
  19   2.0000      -6.037768      -164.2960
  20   2.0000      -6.035818      -164.2430
  21   2.0000      -6.033633      -164.1835
  22   2.0000      -6.031530      -164.1263
  23   2.0000      -6.029887      -164.0816
  24   2.0000      -1.013376       -27.5754
  25   2.0000      -0.987407       -26.8687
  26   2.0000      -0.909512       -24.7491
  27   2.0000      -0.896739       -24.4015
  28   2.0000      -0.870691       -23.6927
  29   2.0000      -0.851049       -23.1582
  30   2.0000      -0.841799       -22.9065
  31   2.0000      -0.813386       -22.1334
  32   2.0000      -0.787916       -21.4403
  33   2.0000      -0.776404       -21.1270
  34   2.0000      -0.712713       -19.3939
  35   2.0000      -0.704030       -19.1576
  36   2.0000      -0.697909       -18.9911
  37   2.0000      -0.663739       -18.0613
  38   2.0000      -0.636445       -17.3185
  39   2.0000      -0.618126       -16.8201
  40   2.0000      -0.602766       -16.4021
  41   2.0000      -0.569788       -15.5047
  42   2.0000      -0.553514       -15.0619
  43   2.0000      -0.549966       -14.9653
  44   2.0000      -0.544792       -14.8245
  45   2.0000      -0.520003       -14.1500
  46   2.0000      -0.516635       -14.0584
  47   2.0000      -0.508434       -13.8352
  48   2.0000      -0.505724       -13.7615
  49   2.0000      -0.500183       -13.6107
  50   2.0000      -0.490330       -13.3426
  51   2.0000      -0.480321       -13.0702
  52   2.0000      -0.473103       -12.8738
  53   2.0000      -0.466329       -12.6895
  54   2.0000      -0.459448       -12.5022
  55   2.0000      -0.452468       -12.3123
  56   2.0000      -0.441086       -12.0026
  57   2.0000      -0.438185       -11.9236
  58   2.0000      -0.433659       -11.8005
  59   2.0000      -0.430188       -11.7060
  60   2.0000      -0.423025       -11.5111
  61   2.0000      -0.410253       -11.1635
  62   2.0000      -0.406039       -11.0489
  63   2.0000      -0.358654        -9.7595
  64   2.0000      -0.335911        -9.1406
  65   2.0000      -0.328719        -8.9449
  66   2.0000      -0.280521        -7.6334
  67   0.0000       0.020019         0.5447
  68   0.0000       0.074491         2.0270
  69   0.0000       0.099719         2.7135
  70   0.0000       0.122339         3.3290
  71   0.0000       0.129783         3.5316

MULLIKEN ATOMIC CHARGES
-----------------------
   0 S :    0.101655
   1 C :   -0.106327
   2 C :   -0.109066
   3 C :    0.001522
   4 C :   -0.113701
   5 H :   -0.007834
   6 C :    0.127400
   7 H :    0.023985
   8 H :    0.027508
   9 C :   -0.106247
  10 H :    0.036867
  11 H :    0.034953
  12 C :   -0.037553
  13 H :    0.014078
  14 H :    0.031644
  15 H :    0.034346
  16 S :    0.092324
  17 C :   -0.093167
  18 C :    0.004103
  19 C :   -0.050061
  20 C :   -0.118121
  21 H :    0.006938
  22 C :   -0.003710
  23 H :    0.032166
  24 H :    0.007895
  25 C :   -0.036425
  26 H :    0.023225
  27 H :    0.024292
  28 C :   -0.049999
  29 H :    0.025653
  30 H :    0.040873
  31 H :    0.040949
  32 H :    0.035175
  33 H :    0.064660
Sum of atomic charges:    0.0000000

LOEWDIN ATOMIC CHARGES
----------------------
   0 S :    0.398498
   1 C :   -0.186501
   2 C :   -0.052212
   3 C :   -0.071439
   4 C :   -0.194782
   5 H :    0.030233
   6 C :   -0.023077
   7 H :    0.029752
   8 H :    0.031062
   9 C :   -0.039684
  10 H :    0.026695
  11 H :    0.028856
  12 C :   -0.070919
  13 H :    0.020576
  14 H :    0.025743
  15 H :    0.024988
  16 S :    0.409750
  17 C :   -0.186686
  18 C :   -0.067426
  19 C :   -0.055739
  20 C :   -0.191838
  21 H :    0.029650
  22 C :   -0.046019
  23 H :    0.038998
  24 H :    0.020434
  25 C :   -0.033984
  26 H :    0.017070
  27 H :    0.023331
  28 C :   -0.060476
  29 H :    0.019041
  30 H :    0.021584
  31 H :    0.033520
  32 H :    0.019916
  33 H :    0.031084

  Mayer bond orders larger than 0.100000
B(  0-S ,  1-C ) :   1.1374 B(  0-S ,  4-C ) :   1.1383 B(  1-C ,  2-C ) :   1.5677
B(  1-C ,  4-C ) :   0.1154 B(  1-C , 32-H ) :   0.9756 B(  2-C ,  3-C ) :   1.2604
B(  2-C ,  6-C ) :   1.0112 B(  3-C ,  4-C ) :   1.5546 B(  3-C ,  5-H ) :   0.9963
B(  4-C , 20-C ) :   1.0919 B(  6-C ,  7-H ) :   0.9462 B(  6-C ,  8-H ) :   0.9418
B(  6-C ,  9-C ) :   1.0625 B(  9-C , 10-H ) :   0.9571 B(  9-C , 11-H ) :   0.9592
B(  9-C , 12-C ) :   1.0776 B( 12-C , 13-H ) :   0.9719 B( 12-C , 14-H ) :   0.9790
B( 12-C , 15-H ) :   0.9659 B( 16-S , 17-C ) :   1.1594 B( 16-S , 20-C ) :   1.1308
B( 17-C , 18-C ) :   1.6061 B( 17-C , 33-H ) :   0.9656 B( 18-C , 19-C ) :   1.2260
B( 18-C , 21-H ) :   1.0052 B( 19-C , 20-C ) :   1.6021 B( 19-C , 22-C ) :   1.0464
B( 22-C , 23-H ) :   0.9401 B( 22-C , 24-H ) :   0.9443 B( 22-C , 25-C ) :   1.0217
B( 25-C , 26-H ) :   0.9696 B( 25-C , 27-H ) :   0.9597 B( 25-C , 28-C ) :   1.0674
B( 28-C , 29-H ) :   0.9782 B( 28-C , 30-H ) :   0.9779 B( 28-C , 31-H ) :   0.9749

Dispersion correction           -0.014886736
FINAL SINGLE POINT ENERGY     -1339.860277086245

DIPOLE MOMENT
-------------
                                X             Y             Z
Electronic contribution:     14.82276      22.05445     -10.55213
Nuclear contribution   :    -15.19461     -22.49852      10.97696
                        -----------------------------------------
Total Dipole Moment    :     -0.37185      -0.44408       0.42483
                        -----------------------------------------
Magnitude (a.u.)       :      0.71830
Magnitude (Debye)      :      1.82577

Rotational constants in cm-1:     0.017770     0.009809     0.007016
Rotational constants in MHz :   532.728003   294.062721   210.331681

                             ****ORCA TERMINATED NORMALLY****
TOTAL RUN TIME: 0 days 0 hours 0 minutes 32 seconds 689 msec
