                         Program Version 4.2.1 -  RELEASE  -
|  1> ! wB97X-D3 SP def2-SVP
|  2> %pal
|  3> nprocs 16
|  4> end
|  5>
|  6> * xyz 0 1
|  7> S 	 52.6031 	 -0.633549 	 90.7722
|  8> C 	 53.9201 	 -1.77917 	 90.7325
|  9> C 	 55.143 	 -1.16618 	 90.7871
| 10> C 	 54.9819 	 0.25366 	 90.7934
| 11> C 	 53.7028 	 0.6485 	 90.6088
| 12> H 	 55.8271 	 0.910327 	 90.6391
| 13> C 	 56.4803 	 -1.8072 	 90.7492
| 14> H 	 56.4867 	 -2.612 	 91.4804
| 15> H 	 57.2142 	 -1.16393 	 91.1665
| 16> C 	 56.9153 	 -2.2387 	 89.3768
| 17> H 	 56.0919 	 -2.94217 	 89.0855
| 18> H 	 56.7358 	 -1.44485 	 88.6082
| 19> C 	 58.2864 	 -2.82576 	 89.2649
| 20> H 	 58.8267 	 -2.86582 	 88.2836
| 21> H 	 58.9339 	 -2.2617 	 89.8978
| 22> H 	 58.2169 	 -3.85266 	 89.6606
| 23> S 	 52.0198 	 2.12081 	 89.0122
| 24> C 	 52.1275 	 3.82315 	 88.8505
| 25> C 	 52.9326 	 4.29308 	 89.8235
| 26> C 	 53.6877 	 3.28019 	 90.5511
| 27> C 	 53.3161 	 2.00685 	 90.2067
| 28> H 	 53.0015 	 5.40412 	 90.0027
| 29> C 	 54.6856 	 3.6046 	 91.5914
| 30> H 	 55.5358 	 3.87242 	 91.0775
| 31> H 	 54.8106 	 2.61758 	 92.1045
| 32> C 	 54.2321 	 4.71514 	 92.5088
| 33> H 	 53.2301 	 4.53796 	 92.9319
| 34> H 	 54.3152 	 5.60087 	 91.8262
| 35> C 	 55.1308 	 4.79677 	 93.7816
| 36> H 	 55.0425 	 5.81355 	 94.1675
| 37> H 	 56.2253 	 4.71341 	 93.4734
| 38> H 	 54.9181 	 4.0891 	 94.6234
| 39> H 	 53.7093 	 -2.90726 	 90.7061
| 40> H 	 51.5421 	 4.45311 	 88.2399
| 41> *
| 42>
| 43>                          ****END OF INPUT****

CARTESIAN COORDINATES (ANGSTROEM)
---------------------------------
  S     52.603100   -0.633549   90.772200
  C     53.920100   -1.779170   90.732500
  C     55.143000   -1.166180   90.787100
  C     54.981900    0.253660   90.793400
  C     53.702800    0.648500   90.608800
  H     55.827100    0.910327   90.639100
  C     56.480300   -1.807200   90.749200
  H     56.486700   -2.612000   91.480400
  H     57.214200   -1.163930   91.166500
  C     56.915300   -2.238700   89.376800
  H     56.091900   -2.942170   89.085500
  H     56.735800   -1.444850   88.608200
  C     58.286400   -2.825760   89.264900
  H     58.826700   -2.865820   88.283600
  H     58.933900   -2.261700   89.897800
  H     58.216900   -3.852660   89.660600
  S     52.019800    2.120810   89.012200
  C     52.127500    3.823150   88.850500
  C     52.932600    4.293080   89.823500
  C     53.687700    3.280190   90.551100
  C     53.316100    2.006850   90.206700
  H     53.001500    5.404120   90.002700
  C     54.685600    3.604600   91.591400
  H     55.535800    3.872420   91.077500
  H     54.810600    2.617580   92.104500
  C     54.232100    4.715140   92.508800
  H     53.230100    4.537960   92.931900
  H     54.315200    5.600870   91.826200
  C     55.130800    4.796770   93.781600
  H     55.042500    5.813550   94.167500
  H     56.225300    4.713410   93.473400
  H     54.918100    4.089100   94.623400
  H     53.709300   -2.907260   90.706100
  H     51.542100    4.453110   88.239900

 Total Charge           Charge          ....    0
 Multiplicity           Mult            ....    1
 Number of Electrons    NEL             ....  134
 Basis Dimension        Dim             ....  322

ORBITAL ENERGIES
----------------

  NO   OCC          E(Eh)            E(eV)
   0   2.0000     -88.966897     -2420.9123
   1   2.0000     -88.955804     -2420.6105
   2   2.0000     -10.325526      -280.9718
   3   2.0000     -10.324383      -280.9408
   4   2.0000     -10.317372      -280.7500
   5   2.0000     -10.308604      -280.5114
   6   2.0000     -10.298688      -280.2416
   7   2.0000     -10.297672      -280.2139
   8   2.0000     -10.292711      -280.0789
   9   2.0000     -10.292176      -280.0643
  10   2.0000     -10.287682      -279.9421
  11   2.0000     -10.287441      -279.9355
  12   2.0000     -10.286254      -279.9032
  13   2.0000     -10.286101      -279.8990
  14   2.0000     -10.279989      -279.7327
  15   2.0000     -10.279926      -279.7310
  16   2.0000      -8.082882      -219.9464
  17   2.0000      -8.071447      -219.6353
  18   2.0000      -6.041379      -164.3943
  19   2.0000      -6.037267      -164.2824
  20   2.0000      -6.033530      -164.1807
  21   2.0000      -6.030053      -164.0861
  22   2.0000      -6.025804      -163.9705
  23   2.0000      -6.022060      -163.8686
  24   2.0000      -1.016542       -27.6615
  25   2.0000      -0.992420       -27.0051
  26   2.0000      -0.922959       -25.1150
  27   2.0000      -0.916221       -24.9316
  28   2.0000      -0.873202       -23.7610
  29   2.0000      -0.856675       -23.3113
  30   2.0000      -0.841033       -22.8857
  31   2.0000      -0.818280       -22.2665
  32   2.0000      -0.784019       -21.3342
  33   2.0000      -0.772922       -21.0323
  34   2.0000      -0.704129       -19.1603
  35   2.0000      -0.701117       -19.0784
  36   2.0000      -0.698136       -18.9973
  37   2.0000      -0.655172       -17.8281
  38   2.0000      -0.638084       -17.3631
  39   2.0000      -0.625184       -17.0121
  40   2.0000      -0.595257       -16.1978
  41   2.0000      -0.577120       -15.7042
  42   2.0000      -0.574403       -15.6303
  43   2.0000      -0.557786       -15.1781
  44   2.0000      -0.527959       -14.3665
  45   2.0000      -0.524760       -14.2795
  46   2.0000      -0.521674       -14.1955
  47   2.0000      -0.517732       -14.0882
  48   2.0000      -0.504406       -13.7256
  49   2.0000      -0.500384       -13.6161
  50   2.0000      -0.491530       -13.3752
  51   2.0000      -0.485987       -13.2244
  52   2.0000      -0.472497       -12.8573
  53   2.0000      -0.467197       -12.7131
  54   2.0000      -0.458771       -12.4838
  55   2.0000      -0.455767       -12.4020
  56   2.0000      -0.445900       -12.1335
  57   2.0000      -0.436718       -11.8837
  58   2.0000      -0.431933       -11.7535
  59   2.0000      -0.427320       -11.6280
  60   2.0000      -0.418171       -11.3790
  61   2.0000      -0.405428       -11.0323
  62   2.0000      -0.400551       -10.8995
  63   2.0000      -0.356761        -9.7080
  64   2.0000      -0.333761        -9.0821
  65   2.0000      -0.321746        -8.7552
  66   2.0000      -0.291966        -7.9448
  67   0.0000       0.033021         0.8985
  68   0.0000       0.079427         2.1613
  69   0.0000       0.112040         3.0488
  70   0.0000       0.131962         3.5909
  71   0.0000       0.138659         3.7731

MULLIKEN ATOMIC CHARGES
-----------------------
   0 S :    0.124493
   1 C :   -0.169574
   2 C :   -0.089448
   3 C :    0.013846
   4 C :   -0.127035
   5 H :    0.015007
   6 C :    0.100717
   7 H :    0.020231
   8 H :   -0.002525
   9 C :   -0.094643
  10 H :    0.020498
  11 H :    0.031847
  12 C :   -0.017030
  13 H :    0.048538
  14 H :    0.016272
  15 H :    0.033017
  16 S :    0.078911
  17 C :   -0.053323
  18 C :   -0.065624
  19 C :   -0.075443
  20 C :   -0.139918
  21 H :    0.035245
  22 C :    0.104055
  23 H :    0.016918
  24 H :    0.032795
  25 C :   -0.114587
  26 H :    0.045873
  27 H :    0.044517
  28 C :   -0.064560
  29 H :    0.030730
  30 H :    0.029470
  31 H :    0.056183
  32 H :    0.075073
  33 H :    0.039474
Sum of atomic charges:   -0.0000000

LOEWDIN ATOMIC CHARGES
----------------------
   0 S :    0.425262
   1 C :   -0.207281
   2 C :   -0.059603
   3 C :   -0.067180
   4 C :   -0.204611
   5 H :    0.031034
   6 C :   -0.032077
   7 H :    0.031630
   8 H :    0.021704
   9 C :   -0.050622
  10 H :    0.025732
  11 H :    0.028972
  12 C :   -0.069755
  13 H :    0.036065
  14 H :    0.019798
  15 H :    0.030946
  16 S :    0.396849
  17 C :   -0.186581
  18 C :   -0.083470
  19 C :   -0.059174
  20 C :   -0.187729
  21 H :    0.036679
  22 C :   -0.035121
  23 H :    0.022245
  24 H :    0.036393
  25 C :   -0.041080
  26 H :    0.031492
  27 H :    0.030464
  28 C :   -0.074877
  29 H :    0.024693
  30 H :    0.027907
  31 H :    0.033223
  32 H :    0.042207
  33 H :    0.025864

  Mayer bond orders larger than 0.100000
B(  0-S ,  1-C ) :   1.1259 B(  0-S ,  4-C ) :   1.1643 B(  1-C ,  2-C ) :   1.6200
B(  1-C , 32-H ) :   0.9595 B(  2-C ,  3-C ) :   1.2527 B(  2-C ,  6-C ) :   1.0329
B(  3-C ,  4-C ) :   1.5672 B(  3-C ,  5-H ) :   0.9918 B(  4-C , 20-C ) :   1.0314
B(  6-C ,  7-H ) :   0.9294 B(  6-C ,  8-H ) :   0.9277 B(  6-C ,  9-C ) :   1.0579
B(  9-C , 10-H ) :   0.9554 B(  9-C , 11-H ) :   0.9547 B(  9-C , 12-C ) :   1.0699
B( 12-C , 13-H ) :   0.9748 B( 12-C , 14-H ) :   0.9723 B( 12-C , 15-H ) :   0.9718
B( 16-S , 17-C ) :   1.1519 B( 16-S , 20-C ) :   1.1181 B( 17-C , 18-C ) :   1.6321
B( 17-C , 33-H ) :   0.9703 B( 18-C , 19-C ) :   1.2111 B( 18-C , 21-H ) :   0.9783
B( 19-C , 20-C ) :   1.6290 B( 19-C , 22-C ) :   1.0431 B( 22-C , 23-H ) :   0.9112
B( 22-C , 24-H ) :   0.9336 B( 22-C , 25-C ) :   1.0713 B( 25-C , 26-H ) :   0.9619
B( 25-C , 27-H ) :   0.9463 B( 25-C , 28-C ) :   1.0807 B( 28-C , 29-H ) :   0.9742
B( 28-C , 30-H ) :   0.9720 B( 28-C , 31-H ) :   0.9759

Dispersion correction           -0.013440982
FINAL SINGLE POINT ENERGY     -1339.869596198723

DIPOLE MOMENT
-------------
                                X             Y             Z
Electronic contribution:    -24.04125      -1.47904      -8.19569
Nuclear contribution   :     24.62144       1.65841       8.34634
                        -----------------------------------------
Total Dipole Moment    :      0.58019       0.17936       0.15064
                        -----------------------------------------
Magnitude (a.u.)       :      0.62569
Magnitude (Debye)      :      1.59038

Rotational constants in cm-1:     0.018343     0.007789     0.006475
Rotational constants in MHz :   549.907928   233.501927   194.101938

                             ****ORCA TERMINATED NORMALLY****
TOTAL RUN TIME: 0 days 0 hours 0 minutes 29 seconds 879 msec
