                         Program Version 4.2.1 -  RELEASE  -
|  1> ! wB97X-D3 SP def2-SVP
|  2> %pal
|  3> nprocs 16
|  4> end
|  5>
|  6> * xyz 0 1
|  7> S 	 3.93825 	 -20.8928 	 54.0194
|  8> C 	 2.79446 	 -21.9178 	 54.9673
|  9> C 	 3.16311 	 -23.2358 	 54.9439
| 10> C 	 4.54252 	 -23.3497 	 54.5595
| 11> C 	 5.19164 	 -22.1896 	 54.2939
| 12> H 	 5.21211 	 -24.2128 	 54.5023
| 13> C 	 2.36325 	 -24.4616 	 55.3387
| 14> H 	 1.65056 	 -24.6298 	 54.504
| 15> H 	 1.73089 	 -24.2598 	 56.2034
| 16> C 	 3.1888 	 -25.754 	 55.6154
| 17> H 	 3.59786 	 -26.197 	 54.7234
| 18> H 	 3.94435 	 -25.5338 	 56.281
| 19> C 	 2.35402 	 -26.9287 	 56.2025
| 20> H 	 1.37304 	 -26.8622 	 55.7252
| 21> H 	 2.68547 	 -27.9045 	 56.0867
| 22> H 	 2.32212 	 -26.8121 	 57.3452
| 23> S 	 7.06994 	 -22.0741 	 52.2609
| 24> C 	 8.74212 	 -21.7939 	 52.7402
| 25> C 	 8.93988 	 -21.6368 	 54.0983
| 26> C 	 7.72049 	 -21.5605 	 54.7818
| 27> C 	 6.58318 	 -21.9137 	 53.989
| 28> H 	 9.89274 	 -21.5293 	 54.5143
| 29> C 	 7.65969 	 -21.3306 	 56.3051
| 30> H 	 6.5693 	 -21.1414 	 56.4442
| 31> H 	 7.99954 	 -20.3317 	 56.5867
| 32> C 	 8.14488 	 -22.4014 	 57.2681
| 33> H 	 7.9304 	 -22.1487 	 58.2721
| 34> H 	 9.1802 	 -22.5663 	 57.1645
| 35> C 	 7.4351 	 -23.7103 	 57.0175
| 36> H 	 7.98972 	 -24.2315 	 56.2005
| 37> H 	 6.41885 	 -23.5065 	 56.6806
| 38> H 	 7.26009 	 -24.1736 	 57.9399
| 39> H 	 1.79982 	 -21.5929 	 55.3462
| 40> H 	 9.61938 	 -21.647 	 52.0626
| 41> *
| 42>
| 43>                          ****END OF INPUT****

CARTESIAN COORDINATES (ANGSTROEM)
---------------------------------
  S      3.938250  -20.892800   54.019400
  C      2.794460  -21.917800   54.967300
  C      3.163110  -23.235800   54.943900
  C      4.542520  -23.349700   54.559500
  C      5.191640  -22.189600   54.293900
  H      5.212110  -24.212800   54.502300
  C      2.363250  -24.461600   55.338700
  H      1.650560  -24.629800   54.504000
  H      1.730890  -24.259800   56.203400
  C      3.188800  -25.754000   55.615400
  H      3.597860  -26.197000   54.723400
  H      3.944350  -25.533800   56.281000
  C      2.354020  -26.928700   56.202500
  H      1.373040  -26.862200   55.725200
  H      2.685470  -27.904500   56.086700
  H      2.322120  -26.812100   57.345200
  S      7.069940  -22.074100   52.260900
  C      8.742120  -21.793900   52.740200
  C      8.939880  -21.636800   54.098300
  C      7.720490  -21.560500   54.781800
  C      6.583180  -21.913700   53.989000
  H      9.892740  -21.529300   54.514300
  C      7.659690  -21.330600   56.305100
  H      6.569300  -21.141400   56.444200
  H      7.999540  -20.331700   56.586700
  C      8.144880  -22.401400   57.268100
  H      7.930400  -22.148700   58.272100
  H      9.180200  -22.566300   57.164500
  C      7.435100  -23.710300   57.017500
  H      7.989720  -24.231500   56.200500
  H      6.418850  -23.506500   56.680600
  H      7.260090  -24.173600   57.939900
  H      1.799820  -21.592900   55.346200
  H      9.619380  -21.647000   52.062600

 Total Charge           Charge          ....    0
 Multiplicity           Mult            ....    1
 Number of Electrons    NEL             ....  134
 Basis Dimension        Dim             ....  322

ORBITAL ENERGIES
----------------

  NO   OCC          E(Eh)            E(eV)
   0   2.0000     -88.969596     -2420.9858
   1   2.0000     -88.958831     -2420.6929
   2   2.0000     -10.332100      -281.1507
   3   2.0000     -10.328761      -281.0599
   4   2.0000     -10.322428      -280.8875
   5   2.0000     -10.320035      -280.8224
   6   2.0000     -10.309803      -280.5440
   7   2.0000     -10.305541      -280.4280
   8   2.0000     -10.300674      -280.2956
   9   2.0000     -10.295492      -280.1546
  10   2.0000     -10.288420      -279.9621
  11   2.0000     -10.288035      -279.9517
  12   2.0000     -10.284350      -279.8514
  13   2.0000     -10.281012      -279.7606
  14   2.0000     -10.273990      -279.5695
  15   2.0000     -10.265346      -279.3343
  16   2.0000      -8.083165      -219.9541
  17   2.0000      -8.072262      -219.6574
  18   2.0000      -6.041645      -164.4015
  19   2.0000      -6.037877      -164.2990
  20   2.0000      -6.033985      -164.1931
  21   2.0000      -6.031003      -164.1119
  22   2.0000      -6.027426      -164.0146
  23   2.0000      -6.022347      -163.8764
  24   2.0000      -0.998027       -27.1577
  25   2.0000      -0.977867       -26.6091
  26   2.0000      -0.910258       -24.7694
  27   2.0000      -0.908527       -24.7223
  28   2.0000      -0.870065       -23.6757
  29   2.0000      -0.849435       -23.1143
  30   2.0000      -0.839717       -22.8499
  31   2.0000      -0.815604       -22.1937
  32   2.0000      -0.781674       -21.2704
  33   2.0000      -0.768034       -20.8993
  34   2.0000      -0.714717       -19.4484
  35   2.0000      -0.698097       -18.9962
  36   2.0000      -0.690204       -18.7814
  37   2.0000      -0.658458       -17.9176
  38   2.0000      -0.641638       -17.4599
  39   2.0000      -0.614332       -16.7168
  40   2.0000      -0.593856       -16.1597
  41   2.0000      -0.574927       -15.6445
  42   2.0000      -0.564157       -15.3515
  43   2.0000      -0.559946       -15.2369
  44   2.0000      -0.544083       -14.8053
  45   2.0000      -0.525889       -14.3102
  46   2.0000      -0.514330       -13.9956
  47   2.0000      -0.506255       -13.7759
  48   2.0000      -0.498700       -13.5703
  49   2.0000      -0.496720       -13.5164
  50   2.0000      -0.485737       -13.2176
  51   2.0000      -0.481395       -13.0994
  52   2.0000      -0.469132       -12.7657
  53   2.0000      -0.462245       -12.5783
  54   2.0000      -0.454819       -12.3763
  55   2.0000      -0.449849       -12.2410
  56   2.0000      -0.444108       -12.0848
  57   2.0000      -0.436458       -11.8766
  58   2.0000      -0.426968       -11.6184
  59   2.0000      -0.425214       -11.5707
  60   2.0000      -0.415930       -11.3180
  61   2.0000      -0.414181       -11.2704
  62   2.0000      -0.412029       -11.2119
  63   2.0000      -0.338891        -9.2217
  64   2.0000      -0.325793        -8.8653
  65   2.0000      -0.314639        -8.5618
  66   2.0000      -0.305877        -8.3233
  67   0.0000       0.034673         0.9435
  68   0.0000       0.038880         1.0580
  69   0.0000       0.098405         2.6777
  70   0.0000       0.114934         3.1275
  71   0.0000       0.126690         3.4474

MULLIKEN ATOMIC CHARGES
-----------------------
   0 S :    0.082014
   1 C :   -0.135999
   2 C :   -0.075171
   3 C :    0.064102
   4 C :   -0.186094
   5 H :    0.024330
   6 C :    0.056867
   7 H :    0.046413
   8 H :    0.030401
   9 C :   -0.062989
  10 H :    0.034021
  11 H :    0.021245
  12 C :   -0.047510
  13 H :    0.030949
  14 H :    0.022093
  15 H :    0.037051
  16 S :    0.116395
  17 C :   -0.096059
  18 C :   -0.019521
  19 C :   -0.013359
  20 C :   -0.199990
  21 H :    0.001020
  22 C :    0.036760
  23 H :    0.025518
  24 H :    0.025016
  25 C :   -0.015840
  26 H :    0.016048
  27 H :    0.018508
  28 C :   -0.034921
  29 H :    0.050262
  30 H :    0.008825
  31 H :    0.016822
  32 H :    0.053757
  33 H :    0.069037
Sum of atomic charges:    0.0000000

LOEWDIN ATOMIC CHARGES
----------------------
   0 S :    0.335126
   1 C :   -0.173468
   2 C :   -0.066295
   3 C :   -0.053486
   4 C :   -0.175773
   5 H :    0.037991
   6 C :   -0.031116
   7 H :    0.040284
   8 H :    0.032838
   9 C :   -0.035003
  10 H :    0.024807
  11 H :    0.013695
  12 C :   -0.062870
  13 H :    0.026282
  14 H :    0.014899
  15 H :    0.033066
  16 S :    0.389398
  17 C :   -0.180745
  18 C :   -0.071021
  19 C :   -0.040643
  20 C :   -0.198172
  21 H :    0.025773
  22 C :   -0.038904
  23 H :    0.035190
  24 H :    0.029724
  25 C :   -0.033370
  26 H :    0.022267
  27 H :    0.016087
  28 C :   -0.063396
  29 H :    0.034107
  30 H :    0.022382
  31 H :    0.018931
  32 H :    0.033297
  33 H :    0.038118

  Mayer bond orders larger than 0.100000
B(  0-S ,  1-C ) :   1.1151 B(  0-S ,  4-C ) :   1.0912 B(  1-C ,  2-C ) :   1.6643
B(  1-C , 32-H ) :   0.9677 B(  2-C ,  3-C ) :   1.1759 B(  2-C ,  6-C ) :   1.0085
B(  3-C ,  4-C ) :   1.6447 B(  3-C ,  5-H ) :   0.9867 B(  4-C , 20-C ) :   1.0480
B(  6-C ,  7-H ) :   0.9228 B(  6-C ,  8-H ) :   0.9454 B(  6-C ,  9-C ) :   1.0874
B(  9-C , 10-H ) :   0.9461 B(  9-C , 11-H ) :   0.9608 B(  9-C , 12-C ) :   1.0754
B( 12-C , 13-H ) :   0.9756 B( 12-C , 14-H ) :   0.9776 B( 12-C , 15-H ) :   0.9763
B( 16-S , 17-C ) :   1.1592 B( 16-S , 20-C ) :   1.1371 B( 17-C , 18-C ) :   1.6052
B( 17-C , 20-C ) :   0.1121 B( 17-C , 33-H ) :   0.9560 B( 18-C , 19-C ) :   1.2554
B( 18-C , 21-H ) :   0.9991 B( 19-C , 20-C ) :   1.5651 B( 19-C , 22-C ) :   1.0385
B( 22-C , 23-H ) :   0.9297 B( 22-C , 24-H ) :   0.9353 B( 22-C , 25-C ) :   1.0798
B( 25-C , 26-H ) :   0.9516 B( 25-C , 27-H ) :   0.9584 B( 25-C , 28-C ) :   1.0811
B( 28-C , 29-H ) :   0.9728 B( 28-C , 30-H ) :   0.9730 B( 28-C , 31-H ) :   0.9698

Dispersion correction           -0.015334100
FINAL SINGLE POINT ENERGY     -1339.838124234538

DIPOLE MOMENT
-------------
                                X             Y             Z
Electronic contribution:      3.15790      19.28819     -20.39350
Nuclear contribution   :     -3.07680     -19.77504      20.84410
                        -----------------------------------------
Total Dipole Moment    :      0.08109      -0.48685       0.45059
                        -----------------------------------------
Magnitude (a.u.)       :      0.66831
Magnitude (Debye)      :      1.69870

Rotational constants in cm-1:     0.018180     0.008807     0.007491
Rotational constants in MHz :   545.024848   264.026496   224.588874

                             ****ORCA TERMINATED NORMALLY****
TOTAL RUN TIME: 0 days 0 hours 0 minutes 36 seconds 527 msec
