                         Program Version 4.2.1 -  RELEASE  -
|  1> ! wB97X-D3 SP def2-SVP
|  2> %pal
|  3> nprocs 16
|  4> end
|  5>
|  6> * xyz 0 1
|  7> S 	 -28.3007 	 75.9946 	 157.272
|  8> C 	 -27.3561 	 77.2006 	 158.202
|  9> C 	 -28.025 	 77.3768 	 159.404
| 10> C 	 -29.0101 	 76.4061 	 159.709
| 11> C 	 -29.2976 	 75.545 	 158.661
| 12> H 	 -29.5534 	 76.2055 	 160.614
| 13> C 	 -27.6489 	 78.2787 	 160.495
| 14> H 	 -26.6233 	 78.5506 	 160.22
| 15> H 	 -27.6129 	 77.7772 	 161.44
| 16> C 	 -28.6832 	 79.5087 	 160.549
| 17> H 	 -28.8094 	 79.7905 	 159.613
| 18> H 	 -29.6147 	 78.9964 	 160.798
| 19> C 	 -28.21 	 80.7165 	 161.486
| 20> H 	 -27.8601 	 80.4481 	 162.474
| 21> H 	 -27.4343 	 81.2991 	 160.969
| 22> H 	 -29.0859 	 81.3548 	 161.703
| 23> S 	 -29.6531 	 72.8187 	 158.441
| 24> C 	 -31.1458 	 72.1192 	 158.986
| 25> C 	 -32.1045 	 73.0268 	 159.282
| 26> C 	 -31.6329 	 74.391 	 159.063
| 27> C 	 -30.2518 	 74.4189 	 158.684
| 28> H 	 -33.0435 	 72.6466 	 159.631
| 29> C 	 -32.5229 	 75.6297 	 159.158
| 30> H 	 -31.9648 	 76.4511 	 158.742
| 31> H 	 -32.842 	 75.8405 	 160.273
| 32> C 	 -33.9287 	 75.5841 	 158.378
| 33> H 	 -34.2631 	 76.6027 	 158.27
| 34> H 	 -34.5622 	 74.9506 	 158.967
| 35> C 	 -33.9099 	 75.0278 	 156.902
| 36> H 	 -33.4934 	 73.9843 	 156.803
| 37> H 	 -33.3413 	 75.5527 	 156.144
| 38> H 	 -34.8977 	 75.01 	 156.485
| 39> H 	 -26.5589 	 77.8227 	 157.766
| 40> H 	 -31.3379 	 71.0466 	 159.006
| 41> *
| 42>
| 43>                          ****END OF INPUT****

CARTESIAN COORDINATES (ANGSTROEM)
---------------------------------
  S    -28.300700   75.994600  157.272000
  C    -27.356100   77.200600  158.202000
  C    -28.025000   77.376800  159.404000
  C    -29.010100   76.406100  159.709000
  C    -29.297600   75.545000  158.661000
  H    -29.553400   76.205500  160.614000
  C    -27.648900   78.278700  160.495000
  H    -26.623300   78.550600  160.220000
  H    -27.612900   77.777200  161.440000
  C    -28.683200   79.508700  160.549000
  H    -28.809400   79.790500  159.613000
  H    -29.614700   78.996400  160.798000
  C    -28.210000   80.716500  161.486000
  H    -27.860100   80.448100  162.474000
  H    -27.434300   81.299100  160.969000
  H    -29.085900   81.354800  161.703000
  S    -29.653100   72.818700  158.441000
  C    -31.145800   72.119200  158.986000
  C    -32.104500   73.026800  159.282000
  C    -31.632900   74.391000  159.063000
  C    -30.251800   74.418900  158.684000
  H    -33.043500   72.646600  159.631000
  C    -32.522900   75.629700  159.158000
  H    -31.964800   76.451100  158.742000
  H    -32.842000   75.840500  160.273000
  C    -33.928700   75.584100  158.378000
  H    -34.263100   76.602700  158.270000
  H    -34.562200   74.950600  158.967000
  C    -33.909900   75.027800  156.902000
  H    -33.493400   73.984300  156.803000
  H    -33.341300   75.552700  156.144000
  H    -34.897700   75.010000  156.485000
  H    -26.558900   77.822700  157.766000
  H    -31.337900   71.046600  159.006000

 Total Charge           Charge          ....    0
 Multiplicity           Mult            ....    1
 Number of Electrons    NEL             ....  134
 Basis Dimension        Dim             ....  322

ORBITAL ENERGIES
----------------

  NO   OCC          E(Eh)            E(eV)
   0   2.0000     -88.965788     -2420.8822
   1   2.0000     -88.962742     -2420.7993
   2   2.0000     -10.331810      -281.1429
   3   2.0000     -10.330990      -281.1205
   4   2.0000     -10.321339      -280.8579
   5   2.0000     -10.315792      -280.7070
   6   2.0000     -10.314922      -280.6833
   7   2.0000     -10.302314      -280.3402
   8   2.0000     -10.297925      -280.2208
   9   2.0000     -10.295297      -280.1493
  10   2.0000     -10.293193      -280.0920
  11   2.0000     -10.289957      -280.0040
  12   2.0000     -10.286467      -279.9090
  13   2.0000     -10.285125      -279.8725
  14   2.0000     -10.284924      -279.8670
  15   2.0000     -10.275254      -279.6039
  16   2.0000      -8.081314      -219.9037
  17   2.0000      -8.076598      -219.7754
  18   2.0000      -6.039769      -164.3505
  19   2.0000      -6.035645      -164.2383
  20   2.0000      -6.035210      -164.2264
  21   2.0000      -6.032146      -164.1430
  22   2.0000      -6.031152      -164.1160
  23   2.0000      -6.027366      -164.0130
  24   2.0000      -1.004095       -27.3228
  25   2.0000      -0.983780       -26.7700
  26   2.0000      -0.906918       -24.6785
  27   2.0000      -0.894382       -24.3374
  28   2.0000      -0.867323       -23.6011
  29   2.0000      -0.843341       -22.9485
  30   2.0000      -0.840512       -22.8715
  31   2.0000      -0.817299       -22.2398
  32   2.0000      -0.778063       -21.1722
  33   2.0000      -0.767755       -20.8917
  34   2.0000      -0.715499       -19.4697
  35   2.0000      -0.705509       -19.1979
  36   2.0000      -0.693000       -18.8575
  37   2.0000      -0.652705       -17.7610
  38   2.0000      -0.642889       -17.4939
  39   2.0000      -0.617371       -16.7995
  40   2.0000      -0.590731       -16.0746
  41   2.0000      -0.571130       -15.5412
  42   2.0000      -0.555593       -15.1185
  43   2.0000      -0.548515       -14.9259
  44   2.0000      -0.531688       -14.4680
  45   2.0000      -0.519619       -14.1396
  46   2.0000      -0.518422       -14.1070
  47   2.0000      -0.510076       -13.8799
  48   2.0000      -0.503291       -13.6952
  49   2.0000      -0.497645       -13.5416
  50   2.0000      -0.489829       -13.3289
  51   2.0000      -0.474937       -12.9237
  52   2.0000      -0.469253       -12.7690
  53   2.0000      -0.463509       -12.6127
  54   2.0000      -0.460993       -12.5443
  55   2.0000      -0.449161       -12.2223
  56   2.0000      -0.444032       -12.0827
  57   2.0000      -0.436222       -11.8702
  58   2.0000      -0.431774       -11.7492
  59   2.0000      -0.426492       -11.6054
  60   2.0000      -0.419238       -11.4080
  61   2.0000      -0.415419       -11.3041
  62   2.0000      -0.409153       -11.1336
  63   2.0000      -0.345131        -9.3915
  64   2.0000      -0.326601        -8.8873
  65   2.0000      -0.324741        -8.8366
  66   2.0000      -0.297773        -8.1028
  67   0.0000       0.029477         0.8021
  68   0.0000       0.068552         1.8654
  69   0.0000       0.116345         3.1659
  70   0.0000       0.125029         3.4022
  71   0.0000       0.126375         3.4388

MULLIKEN ATOMIC CHARGES
-----------------------
   0 S :    0.086026
   1 C :   -0.131325
   2 C :   -0.091528
   3 C :    0.035258
   4 C :   -0.151396
   5 H :    0.012956
   6 C :    0.053889
   7 H :    0.010091
   8 H :    0.028037
   9 C :   -0.019012
  10 H :   -0.006008
  11 H :    0.020430
  12 C :   -0.046529
  13 H :    0.030888
  14 H :    0.043426
  15 H :    0.038379
  16 S :    0.122958
  17 C :   -0.097576
  18 C :   -0.024611
  19 C :   -0.031872
  20 C :   -0.169141
  21 H :    0.014950
  22 C :    0.030246
  23 H :    0.032888
  24 H :    0.054281
  25 C :   -0.061694
  26 H :    0.040629
  27 H :    0.032169
  28 C :   -0.079179
  29 H :    0.040305
  30 H :    0.027785
  31 H :    0.027730
  32 H :    0.067597
  33 H :    0.058950
Sum of atomic charges:    0.0000000

LOEWDIN ATOMIC CHARGES
----------------------
   0 S :    0.374544
   1 C :   -0.190552
   2 C :   -0.067313
   3 C :   -0.061316
   4 C :   -0.187574
   5 H :    0.033031
   6 C :   -0.028820
   7 H :    0.025387
   8 H :    0.026076
   9 C :   -0.016733
  10 H :    0.002003
  11 H :    0.025154
  12 C :   -0.065833
  13 H :    0.022825
  14 H :    0.029713
  15 H :    0.030230
  16 S :    0.425443
  17 C :   -0.185396
  18 C :   -0.072734
  19 C :   -0.049847
  20 C :   -0.216471
  21 H :    0.031932
  22 C :   -0.038711
  23 H :    0.026778
  24 H :    0.043413
  25 C :   -0.030342
  26 H :    0.028111
  27 H :    0.018971
  28 C :   -0.078664
  29 H :    0.031029
  30 H :    0.023489
  31 H :    0.022612
  32 H :    0.037795
  33 H :    0.031770

  Mayer bond orders larger than 0.100000
B(  0-S ,  1-C ) :   1.1215 B(  0-S ,  4-C ) :   1.1495 B(  1-C ,  2-C ) :   1.5953
B(  1-C , 32-H ) :   0.9692 B(  2-C ,  3-C ) :   1.2128 B(  2-C ,  6-C ) :   1.0444
B(  3-C ,  4-C ) :   1.5842 B(  3-C ,  5-H ) :   0.9987 B(  4-C , 20-C ) :   1.0226
B(  6-C ,  7-H ) :   0.9448 B(  6-C ,  8-H ) :   0.9472 B(  6-C ,  9-C ) :   1.0336
B(  9-C , 10-H ) :   0.9578 B(  9-C , 11-H ) :   0.9608 B(  9-C , 12-C ) :   1.0626
B( 12-C , 13-H ) :   0.9792 B( 12-C , 14-H ) :   0.9785 B( 12-C , 15-H ) :   0.9769
B( 16-S , 17-C ) :   1.1595 B( 16-S , 20-C ) :   1.1549 B( 17-C , 18-C ) :   1.6307
B( 17-C , 33-H ) :   0.9627 B( 18-C , 19-C ) :   1.2119 B( 18-C , 21-H ) :   0.9971
B( 19-C , 20-C ) :   1.5743 B( 19-C , 22-C ) :   1.0496 B( 22-C , 23-H ) :   0.9379
B( 22-C , 24-H ) :   0.9400 B( 22-C , 25-C ) :   1.0562 B( 25-C , 26-H ) :   0.9608
B( 25-C , 27-H ) :   0.9582 B( 25-C , 28-C ) :   1.0733 B( 28-C , 29-H ) :   0.9722
B( 28-C , 30-H ) :   0.9776 B( 28-C , 31-H ) :   0.9755

Dispersion correction           -0.014264346
FINAL SINGLE POINT ENERGY     -1339.856857770743

DIPOLE MOMENT
-------------
                                X             Y             Z
Electronic contribution:     12.28208     -19.88717      -9.09030
Nuclear contribution   :    -12.68676      20.17968       9.49734
                        -----------------------------------------
Total Dipole Moment    :     -0.40468       0.29252       0.40704
                        -----------------------------------------
Magnitude (a.u.)       :      0.64422
Magnitude (Debye)      :      1.63747

Rotational constants in cm-1:     0.019400     0.007811     0.006617
Rotational constants in MHz :   581.597510   234.166360   198.381370

                             ****ORCA TERMINATED NORMALLY****
TOTAL RUN TIME: 0 days 0 hours 0 minutes 33 seconds 682 msec
