                         Program Version 4.2.1 -  RELEASE  -
|  1> ! wB97X-D3 SP def2-SVP
|  2> %pal
|  3> nprocs 16
|  4> end
|  5>
|  6> * xyz 0 1
|  7> S 	 -18.2665 	 -10.8299 	 87.1382
|  8> C 	 -16.5885 	 -11.0405 	 86.5932
|  9> C 	 -15.7019 	 -10.8789 	 87.6087
| 10> C 	 -16.414 	 -10.4779 	 88.8221
| 11> C 	 -17.7972 	 -10.3735 	 88.7521
| 12> H 	 -15.9624 	 -10.1921 	 89.7728
| 13> C 	 -14.178 	 -10.8317 	 87.5562
| 14> H 	 -13.8469 	 -9.87661 	 87.8539
| 15> H 	 -13.7844 	 -10.8346 	 86.524
| 16> C 	 -13.4334 	 -11.7841 	 88.5194
| 17> H 	 -13.7557 	 -11.5628 	 89.5335
| 18> H 	 -13.6964 	 -12.7518 	 88.1952
| 19> C 	 -11.9128 	 -11.7316 	 88.3293
| 20> H 	 -11.4195 	 -12.6666 	 88.3801
| 21> H 	 -11.684 	 -11.2761 	 87.3104
| 22> H 	 -11.3392 	 -11.0598 	 88.9674
| 23> S 	 -19.4865 	 -11.635 	 90.4944
| 24> C 	 -20.3262 	 -10.6232 	 91.729
| 25> C 	 -19.8714 	 -9.29081 	 91.6434
| 26> C 	 -18.9217 	 -9.06292 	 90.5821
| 27> C 	 -18.7347 	 -10.1808 	 89.8018
| 28> H 	 -20.3544 	 -8.5575 	 92.3068
| 29> C 	 -18.1817 	 -7.76204 	 90.3268
| 30> H 	 -17.9644 	 -7.83659 	 89.22
| 31> H 	 -17.2556 	 -7.66407 	 90.9458
| 32> C 	 -19.0775 	 -6.53071 	 90.703
| 33> H 	 -19.5932 	 -6.7071 	 91.6172
| 34> H 	 -19.8336 	 -6.45845 	 89.9298
| 35> C 	 -18.3945 	 -5.25224 	 90.9676
| 36> H 	 -19.0179 	 -4.39221 	 91.0233
| 37> H 	 -17.724 	 -5.09604 	 90.1074
| 38> H 	 -17.9405 	 -5.24493 	 91.9513
| 39> H 	 -16.3536 	 -11.2227 	 85.5881
| 40> H 	 -21.227 	 -10.9764 	 92.1229
| 41> *
| 42>
| 43>                          ****END OF INPUT****

CARTESIAN COORDINATES (ANGSTROEM)
---------------------------------
  S    -18.266500  -10.829900   87.138200
  C    -16.588500  -11.040500   86.593200
  C    -15.701900  -10.878900   87.608700
  C    -16.414000  -10.477900   88.822100
  C    -17.797200  -10.373500   88.752100
  H    -15.962400  -10.192100   89.772800
  C    -14.178000  -10.831700   87.556200
  H    -13.846900   -9.876610   87.853900
  H    -13.784400  -10.834600   86.524000
  C    -13.433400  -11.784100   88.519400
  H    -13.755700  -11.562800   89.533500
  H    -13.696400  -12.751800   88.195200
  C    -11.912800  -11.731600   88.329300
  H    -11.419500  -12.666600   88.380100
  H    -11.684000  -11.276100   87.310400
  H    -11.339200  -11.059800   88.967400
  S    -19.486500  -11.635000   90.494400
  C    -20.326200  -10.623200   91.729000
  C    -19.871400   -9.290810   91.643400
  C    -18.921700   -9.062920   90.582100
  C    -18.734700  -10.180800   89.801800
  H    -20.354400   -8.557500   92.306800
  C    -18.181700   -7.762040   90.326800
  H    -17.964400   -7.836590   89.220000
  H    -17.255600   -7.664070   90.945800
  C    -19.077500   -6.530710   90.703000
  H    -19.593200   -6.707100   91.617200
  H    -19.833600   -6.458450   89.929800
  C    -18.394500   -5.252240   90.967600
  H    -19.017900   -4.392210   91.023300
  H    -17.724000   -5.096040   90.107400
  H    -17.940500   -5.244930   91.951300
  H    -16.353600  -11.222700   85.588100
  H    -21.227000  -10.976400   92.122900

 Total Charge           Charge          ....    0
 Multiplicity           Mult            ....    1
 Number of Electrons    NEL             ....  134
 Basis Dimension        Dim             ....  322

ORBITAL ENERGIES
----------------

  NO   OCC          E(Eh)            E(eV)
   0   2.0000     -88.962197     -2420.7845
   1   2.0000     -88.961827     -2420.7744
   2   2.0000     -10.325583      -280.9734
   3   2.0000     -10.324404      -280.9413
   4   2.0000     -10.320727      -280.8413
   5   2.0000     -10.315107      -280.6883
   6   2.0000     -10.306492      -280.4539
   7   2.0000     -10.306387      -280.4510
   8   2.0000     -10.303470      -280.3717
   9   2.0000     -10.300202      -280.2827
  10   2.0000     -10.298089      -280.2252
  11   2.0000     -10.292942      -280.0852
  12   2.0000     -10.285946      -279.8948
  13   2.0000     -10.280316      -279.7416
  14   2.0000     -10.278387      -279.6891
  15   2.0000     -10.271567      -279.5035
  16   2.0000      -8.076661      -219.7771
  17   2.0000      -8.076076      -219.7612
  18   2.0000      -6.035236      -164.2271
  19   2.0000      -6.034694      -164.2124
  20   2.0000      -6.031080      -164.1140
  21   2.0000      -6.030739      -164.1047
  22   2.0000      -6.027402      -164.0139
  23   2.0000      -6.026723      -163.9955
  24   2.0000      -1.004558       -27.3354
  25   2.0000      -0.977503       -26.5992
  26   2.0000      -0.913620       -24.8609
  27   2.0000      -0.909851       -24.7583
  28   2.0000      -0.875266       -23.8172
  29   2.0000      -0.853549       -23.2263
  30   2.0000      -0.841851       -22.9079
  31   2.0000      -0.811740       -22.0886
  32   2.0000      -0.783458       -21.3190
  33   2.0000      -0.773510       -21.0483
  34   2.0000      -0.710224       -19.3262
  35   2.0000      -0.701639       -19.0926
  36   2.0000      -0.699891       -19.0450
  37   2.0000      -0.654718       -17.8158
  38   2.0000      -0.650908       -17.7121
  39   2.0000      -0.615696       -16.7539
  40   2.0000      -0.596693       -16.2368
  41   2.0000      -0.574115       -15.6225
  42   2.0000      -0.572868       -15.5885
  43   2.0000      -0.562968       -15.3191
  44   2.0000      -0.538720       -14.6593
  45   2.0000      -0.522671       -14.2226
  46   2.0000      -0.517839       -14.0911
  47   2.0000      -0.511973       -13.9315
  48   2.0000      -0.511208       -13.9107
  49   2.0000      -0.503561       -13.7026
  50   2.0000      -0.496474       -13.5097
  51   2.0000      -0.470818       -12.8116
  52   2.0000      -0.469163       -12.7666
  53   2.0000      -0.460936       -12.5427
  54   2.0000      -0.459481       -12.5031
  55   2.0000      -0.451455       -12.2847
  56   2.0000      -0.443838       -12.0775
  57   2.0000      -0.432146       -11.7593
  58   2.0000      -0.430278       -11.7085
  59   2.0000      -0.422178       -11.4880
  60   2.0000      -0.419091       -11.4040
  61   2.0000      -0.415439       -11.3047
  62   2.0000      -0.412213       -11.2169
  63   2.0000      -0.336905        -9.1676
  64   2.0000      -0.328592        -8.9414
  65   2.0000      -0.322932        -8.7874
  66   2.0000      -0.307915        -8.3788
  67   0.0000       0.030470         0.8291
  68   0.0000       0.058432         1.5900
  69   0.0000       0.110856         3.0165
  70   0.0000       0.120861         3.2888
  71   0.0000       0.125700         3.4205

MULLIKEN ATOMIC CHARGES
-----------------------
   0 S :    0.096510
   1 C :   -0.114405
   2 C :   -0.029772
   3 C :    0.034594
   4 C :   -0.213004
   5 H :    0.014251
   6 C :    0.047115
   7 H :    0.016154
   8 H :    0.017086
   9 C :   -0.038305
  10 H :    0.040241
  11 H :    0.023339
  12 C :   -0.061088
  13 H :    0.034014
  14 H :    0.023601
  15 H :    0.029129
  16 S :    0.091679
  17 C :   -0.088873
  18 C :   -0.051692
  19 C :   -0.035260
  20 C :   -0.138808
  21 H :    0.039829
  22 C :    0.065339
  23 H :    0.058174
  24 H :    0.045083
  25 C :   -0.094437
  26 H :    0.016664
  27 H :    0.030114
  28 C :   -0.022875
  29 H :    0.019882
  30 H :    0.031719
  31 H :    0.028627
  32 H :    0.030091
  33 H :    0.055284
Sum of atomic charges:    0.0000000

LOEWDIN ATOMIC CHARGES
----------------------
   0 S :    0.393010
   1 C :   -0.168567
   2 C :   -0.061606
   3 C :   -0.051943
   4 C :   -0.211957
   5 H :    0.028527
   6 C :   -0.032348
   7 H :    0.025005
   8 H :    0.029504
   9 C :   -0.030950
  10 H :    0.026448
  11 H :    0.021481
  12 C :   -0.069046
  13 H :    0.022401
  14 H :    0.031903
  15 H :    0.023981
  16 S :    0.373262
  17 C :   -0.160600
  18 C :   -0.067343
  19 C :   -0.054943
  20 C :   -0.195434
  21 H :    0.035595
  22 C :   -0.030794
  23 H :    0.043665
  24 H :    0.036201
  25 C :   -0.045715
  26 H :    0.016855
  27 H :    0.024539
  28 C :   -0.064656
  29 H :    0.023915
  30 H :    0.028074
  31 H :    0.026035
  32 H :    0.018430
  33 H :    0.017072

  Mayer bond orders larger than 0.100000
B(  0-S ,  1-C ) :   1.1367 B(  0-S ,  4-C ) :   1.1296 B(  1-C ,  2-C ) :   1.6271
B(  1-C , 32-H ) :   0.9781 B(  2-C ,  3-C ) :   1.2068 B(  2-C ,  6-C ) :   1.0237
B(  3-C ,  4-C ) :   1.6083 B(  3-C ,  5-H ) :   0.9879 B(  4-C , 20-C ) :   1.0349
B(  6-C ,  7-H ) :   0.9409 B(  6-C ,  8-H ) :   0.9428 B(  6-C ,  9-C ) :   1.0580
B(  9-C , 10-H ) :   0.9590 B(  9-C , 11-H ) :   0.9596 B(  9-C , 12-C ) :   1.0721
B( 12-C , 13-H ) :   0.9792 B( 12-C , 14-H ) :   0.9734 B( 12-C , 15-H ) :   0.9743
B( 16-S , 17-C ) :   1.1410 B( 16-S , 20-C ) :   1.1356 B( 17-C , 18-C ) :   1.6239
B( 17-C , 20-C ) :   0.1070 B( 17-C , 33-H ) :   0.9698 B( 18-C , 19-C ) :   1.2107
B( 18-C , 21-H ) :   0.9806 B( 19-C , 20-C ) :   1.6184 B( 19-C , 22-C ) :   1.0399
B( 22-C , 23-H ) :   0.9274 B( 22-C , 24-H ) :   0.9344 B( 22-C , 25-C ) :   1.0534
B( 25-C , 26-H ) :   0.9561 B( 25-C , 27-H ) :   0.9554 B( 25-C , 28-C ) :   1.0993
B( 28-C , 29-H ) :   0.9676 B( 28-C , 30-H ) :   0.9719 B( 28-C , 31-H ) :   0.9725

Dispersion correction           -0.013393969
FINAL SINGLE POINT ENERGY     -1339.859491888757

DIPOLE MOMENT
-------------
                                X             Y             Z
Electronic contribution:    -20.51217     -15.13696      -3.98683
Nuclear contribution   :     20.96354      15.60817       4.15023
                        -----------------------------------------
Total Dipole Moment    :      0.45137       0.47120       0.16340
                        -----------------------------------------
Magnitude (a.u.)       :      0.67266
Magnitude (Debye)      :      1.70975

Rotational constants in cm-1:     0.017355     0.007540     0.006513
Rotational constants in MHz :   520.287234   226.044670   195.266318

                             ****ORCA TERMINATED NORMALLY****
TOTAL RUN TIME: 0 days 0 hours 0 minutes 33 seconds 130 msec
