                         Program Version 4.2.1 -  RELEASE  -
|  1> ! wB97X-D3 SP def2-SVP
|  2> %pal
|  3> nprocs 16
|  4> end
|  5>
|  6> * xyz 0 1
|  7> S 	 -58.0523 	 18.8773 	 85.4087
|  8> C 	 -56.3493 	 19.318 	 85.0822
|  9> C 	 -55.9787 	 20.4088 	 85.8124
| 10> C 	 -57.0316 	 20.9705 	 86.5679
| 11> C 	 -58.2058 	 20.1757 	 86.5663
| 12> H 	 -56.9419 	 21.7971 	 87.2806
| 13> C 	 -54.5482 	 20.97 	 85.99
| 14> H 	 -53.8687 	 20.1102 	 85.7951
| 15> H 	 -54.3448 	 21.3341 	 86.9881
| 16> C 	 -54.1375 	 22.0787 	 84.9475
| 17> H 	 -53.1233 	 22.437 	 85.2081
| 18> H 	 -53.9615 	 21.5532 	 84.0025
| 19> C 	 -55.2182 	 23.0421 	 84.5303
| 20> H 	 -56.1662 	 22.6223 	 84.3102
| 21> H 	 -55.3441 	 23.8637 	 85.33
| 22> H 	 -54.9208 	 23.6458 	 83.6686
| 23> S 	 -60.8325 	 20.1046 	 86.9906
| 24> C 	 -61.569 	 20.5583 	 88.5972
| 25> C 	 -60.5408 	 20.7168 	 89.549
| 26> C 	 -59.2335 	 20.5496 	 88.9687
| 27> C 	 -59.2222 	 20.2161 	 87.6058
| 28> H 	 -60.7834 	 20.9163 	 90.6085
| 29> C 	 -58.0053 	 20.6182 	 89.8132
| 30> H 	 -58.1349 	 21.5666 	 90.406
| 31> H 	 -57.0935 	 20.73 	 89.2863
| 32> C 	 -57.8695 	 19.493 	 90.804
| 33> H 	 -58.046 	 18.5174 	 90.2775
| 34> H 	 -58.6383 	 19.6545 	 91.5277
| 35> C 	 -56.65 	 19.5384 	 91.7138
| 36> H 	 -56.6893 	 18.5167 	 92.1047
| 37> H 	 -56.8378 	 20.0914 	 92.5589
| 38> H 	 -55.7216 	 19.716 	 91.1784
| 39> H 	 -55.6382 	 18.7642 	 84.5168
| 40> H 	 -62.6356 	 20.6668 	 88.8508
| 41> *
| 42>
| 43>                          ****END OF INPUT****

CARTESIAN COORDINATES (ANGSTROEM)
---------------------------------
  S    -58.052300   18.877300   85.408700
  C    -56.349300   19.318000   85.082200
  C    -55.978700   20.408800   85.812400
  C    -57.031600   20.970500   86.567900
  C    -58.205800   20.175700   86.566300
  H    -56.941900   21.797100   87.280600
  C    -54.548200   20.970000   85.990000
  H    -53.868700   20.110200   85.795100
  H    -54.344800   21.334100   86.988100
  C    -54.137500   22.078700   84.947500
  H    -53.123300   22.437000   85.208100
  H    -53.961500   21.553200   84.002500
  C    -55.218200   23.042100   84.530300
  H    -56.166200   22.622300   84.310200
  H    -55.344100   23.863700   85.330000
  H    -54.920800   23.645800   83.668600
  S    -60.832500   20.104600   86.990600
  C    -61.569000   20.558300   88.597200
  C    -60.540800   20.716800   89.549000
  C    -59.233500   20.549600   88.968700
  C    -59.222200   20.216100   87.605800
  H    -60.783400   20.916300   90.608500
  C    -58.005300   20.618200   89.813200
  H    -58.134900   21.566600   90.406000
  H    -57.093500   20.730000   89.286300
  C    -57.869500   19.493000   90.804000
  H    -58.046000   18.517400   90.277500
  H    -58.638300   19.654500   91.527700
  C    -56.650000   19.538400   91.713800
  H    -56.689300   18.516700   92.104700
  H    -56.837800   20.091400   92.558900
  H    -55.721600   19.716000   91.178400
  H    -55.638200   18.764200   84.516800
  H    -62.635600   20.666800   88.850800

 Total Charge           Charge          ....    0
 Multiplicity           Mult            ....    1
 Number of Electrons    NEL             ....  134
 Basis Dimension        Dim             ....  322

ORBITAL ENERGIES
----------------

  NO   OCC          E(Eh)            E(eV)
   0   2.0000     -88.970499     -2421.0104
   1   2.0000     -88.964658     -2420.8514
   2   2.0000     -10.333909      -281.2000
   3   2.0000     -10.329636      -281.0837
   4   2.0000     -10.328389      -281.0497
   5   2.0000     -10.315569      -280.7009
   6   2.0000     -10.306950      -280.4664
   7   2.0000     -10.304808      -280.4081
   8   2.0000     -10.301975      -280.3310
   9   2.0000     -10.299127      -280.2535
  10   2.0000     -10.295712      -280.1606
  11   2.0000     -10.289162      -279.9823
  12   2.0000     -10.283521      -279.8288
  13   2.0000     -10.280181      -279.7379
  14   2.0000     -10.276903      -279.6488
  15   2.0000     -10.271228      -279.4943
  16   2.0000      -8.084517      -219.9909
  17   2.0000      -8.078808      -219.8356
  18   2.0000      -6.043104      -164.4412
  19   2.0000      -6.039143      -164.3334
  20   2.0000      -6.037514      -164.2891
  21   2.0000      -6.035201      -164.2262
  22   2.0000      -6.033256      -164.1733
  23   2.0000      -6.029525      -164.0717
  24   2.0000      -1.004318       -27.3289
  25   2.0000      -0.978998       -26.6399
  26   2.0000      -0.915745       -24.9187
  27   2.0000      -0.906149       -24.6576
  28   2.0000      -0.869226       -23.6528
  29   2.0000      -0.852468       -23.1968
  30   2.0000      -0.844189       -22.9715
  31   2.0000      -0.813440       -22.1348
  32   2.0000      -0.783940       -21.3321
  33   2.0000      -0.772714       -21.0266
  34   2.0000      -0.705792       -19.2056
  35   2.0000      -0.697820       -18.9887
  36   2.0000      -0.690460       -18.7884
  37   2.0000      -0.662918       -18.0389
  38   2.0000      -0.636930       -17.3317
  39   2.0000      -0.614600       -16.7241
  40   2.0000      -0.594321       -16.1723
  41   2.0000      -0.573062       -15.5938
  42   2.0000      -0.572031       -15.5658
  43   2.0000      -0.546457       -14.8699
  44   2.0000      -0.541251       -14.7282
  45   2.0000      -0.526092       -14.3157
  46   2.0000      -0.519198       -14.1281
  47   2.0000      -0.508754       -13.8439
  48   2.0000      -0.507271       -13.8035
  49   2.0000      -0.504413       -13.7258
  50   2.0000      -0.489460       -13.3189
  51   2.0000      -0.479802       -13.0561
  52   2.0000      -0.478518       -13.0211
  53   2.0000      -0.469329       -12.7711
  54   2.0000      -0.457386       -12.4461
  55   2.0000      -0.448246       -12.1974
  56   2.0000      -0.442916       -12.0524
  57   2.0000      -0.432144       -11.7592
  58   2.0000      -0.426929       -11.6173
  59   2.0000      -0.424972       -11.5641
  60   2.0000      -0.414221       -11.2715
  61   2.0000      -0.412981       -11.2378
  62   2.0000      -0.400268       -10.8918
  63   2.0000      -0.350556        -9.5391
  64   2.0000      -0.334341        -9.0979
  65   2.0000      -0.325669        -8.8619
  66   2.0000      -0.287404        -7.8207
  67   0.0000       0.020847         0.5673
  68   0.0000       0.065774         1.7898
  69   0.0000       0.097875         2.6633
  70   0.0000       0.112329         3.0566
  71   0.0000       0.129558         3.5254

MULLIKEN ATOMIC CHARGES
-----------------------
   0 S :    0.111682
   1 C :   -0.098587
   2 C :   -0.114830
   3 C :    0.012410
   4 C :   -0.120374
   5 H :    0.027699
   6 C :    0.061258
   7 H :    0.027754
   8 H :    0.032689
   9 C :   -0.072850
  10 H :    0.035131
  11 H :    0.017366
  12 C :   -0.056676
  13 H :    0.051230
  14 H :    0.026157
  15 H :    0.031568
  16 S :    0.084972
  17 C :   -0.104097
  18 C :   -0.044982
  19 C :   -0.053482
  20 C :   -0.126517
  21 H :    0.038215
  22 C :    0.075729
  23 H :    0.019089
  24 H :    0.001895
  25 C :   -0.110923
  26 H :    0.046921
  27 H :    0.008232
  28 C :    0.008380
  29 H :    0.026534
  30 H :    0.015950
  31 H :    0.038083
  32 H :    0.033932
  33 H :    0.070443
Sum of atomic charges:    0.0000000

LOEWDIN ATOMIC CHARGES
----------------------
   0 S :    0.396564
   1 C :   -0.184308
   2 C :   -0.065494
   3 C :   -0.061544
   4 C :   -0.197427
   5 H :    0.032935
   6 C :   -0.025356
   7 H :    0.034536
   8 H :    0.025819
   9 C :   -0.047557
  10 H :    0.027633
  11 H :    0.023448
  12 C :   -0.070464
  13 H :    0.025298
  14 H :    0.027018
  15 H :    0.028187
  16 S :    0.389032
  17 C :   -0.169819
  18 C :   -0.068243
  19 C :   -0.056370
  20 C :   -0.204551
  21 H :    0.039414
  22 C :   -0.038621
  23 H :    0.034706
  24 H :    0.016878
  25 C :   -0.042778
  26 H :    0.029532
  27 H :    0.019415
  28 C :   -0.055388
  29 H :    0.037221
  30 H :    0.015059
  31 H :    0.023952
  32 H :    0.024522
  33 H :    0.036751

  Mayer bond orders larger than 0.100000
B(  0-S ,  1-C ) :   1.1190 B(  0-S ,  4-C ) :   1.1574 B(  1-C ,  2-C ) :   1.6347
B(  1-C , 32-H ) :   0.9683 B(  2-C ,  3-C ) :   1.2415 B(  2-C ,  6-C ) :   1.0098
B(  3-C ,  4-C ) :   1.5517 B(  3-C ,  5-H ) :   0.9910 B(  4-C , 20-C ) :   1.0255
B(  6-C ,  7-H ) :   0.9456 B(  6-C ,  8-H ) :   0.9519 B(  6-C ,  9-C ) :   1.0606
B(  9-C , 10-H ) :   0.9592 B(  9-C , 11-H ) :   0.9549 B(  9-C , 12-C ) :   1.0874
B( 12-C , 13-H ) :   0.9633 B( 12-C , 14-H ) :   0.9742 B( 12-C , 15-H ) :   0.9730
B( 16-S , 17-C ) :   1.1474 B( 16-S , 20-C ) :   1.1289 B( 17-C , 18-C ) :   1.6059
B( 17-C , 20-C ) :   0.1018 B( 17-C , 33-H ) :   0.9655 B( 18-C , 19-C ) :   1.2370
B( 18-C , 21-H ) :   0.9835 B( 19-C , 20-C ) :   1.5922 B( 19-C , 22-C ) :   1.0500
B( 22-C , 23-H ) :   0.9247 B( 22-C , 24-H ) :   0.9365 B( 22-C , 25-C ) :   1.0701
B( 25-C , 26-H ) :   0.9606 B( 25-C , 27-H ) :   0.9508 B( 25-C , 28-C ) :   1.0799
B( 28-C , 29-H ) :   0.9692 B( 28-C , 30-H ) :   0.9758 B( 28-C , 31-H ) :   0.9754

Dispersion correction           -0.014283117
FINAL SINGLE POINT ENERGY     -1339.855327099340

DIPOLE MOMENT
-------------
                                X             Y             Z
Electronic contribution:    -21.64597      -9.41607     -11.58111
Nuclear contribution   :     22.14988       9.60245      12.17475
                        -----------------------------------------
Total Dipole Moment    :      0.50391       0.18638       0.59364
                        -----------------------------------------
Magnitude (a.u.)       :      0.80067
Magnitude (Debye)      :      2.03514

Rotational constants in cm-1:     0.017466     0.008906     0.007092
Rotational constants in MHz :   523.616382   266.985075   212.600425

                             ****ORCA TERMINATED NORMALLY****
TOTAL RUN TIME: 0 days 0 hours 0 minutes 30 seconds 64 msec
