                         Program Version 4.2.1 -  RELEASE  -
|  1> ! wB97X-D3 SP def2-SVP
|  2> %pal
|  3> nprocs 16
|  4> end
|  5>
|  6> * xyz 0 1
|  7> S 	 -46.6852 	 64.1626 	 137.517
|  8> C 	 -46.7445 	 62.4937 	 136.986
|  9> C 	 -48.0558 	 62.0683 	 136.96
| 10> C 	 -48.8731 	 62.8375 	 137.801
| 11> C 	 -48.3224 	 64.1152 	 138.102
| 12> H 	 -49.9033 	 62.571 	 138.09
| 13> C 	 -48.5262 	 60.7711 	 136.304
| 14> H 	 -48.0845 	 60.6369 	 135.331
| 15> H 	 -49.6083 	 60.7845 	 136.076
| 16> C 	 -48.1685 	 59.4682 	 137.094
| 17> H 	 -47.1675 	 59.1674 	 137.004
| 18> H 	 -48.4023 	 59.5629 	 138.111
| 19> C 	 -48.9348 	 58.198 	 136.703
| 20> H 	 -48.8877 	 57.9111 	 135.624
| 21> H 	 -48.4317 	 57.3814 	 137.119
| 22> H 	 -49.9352 	 58.0509 	 137.15
| 23> S 	 -50.6061 	 65.6661 	 138.106
| 24> C 	 -50.8497 	 66.9296 	 139.275
| 25> C 	 -49.8223 	 66.8845 	 140.223
| 26> C 	 -48.7479 	 65.9769 	 139.911
| 27> C 	 -49.0685 	 65.1547 	 138.82
| 28> H 	 -49.8865 	 67.5756 	 141.106
| 29> C 	 -47.6541 	 65.709 	 140.924
| 30> H 	 -47.3244 	 66.5932 	 141.472
| 31> H 	 -46.8337 	 65.2903 	 140.378
| 32> C 	 -47.9875 	 64.6909 	 142.015
| 33> H 	 -48.0497 	 63.7428 	 141.557
| 34> H 	 -48.9037 	 65.0028 	 142.484
| 35> C 	 -46.8171 	 64.4788 	 143.035
| 36> H 	 -47.0638 	 63.6861 	 143.787
| 37> H 	 -46.4889 	 65.4146 	 143.479
| 38> H 	 -45.9978 	 64.1635 	 142.384
| 39> H 	 -45.9655 	 61.8954 	 136.49
| 40> H 	 -51.6647 	 67.5884 	 139.465
| 41> *
| 42>
| 43>                          ****END OF INPUT****

CARTESIAN COORDINATES (ANGSTROEM)
---------------------------------
  S    -46.685200   64.162600  137.517000
  C    -46.744500   62.493700  136.986000
  C    -48.055800   62.068300  136.960000
  C    -48.873100   62.837500  137.801000
  C    -48.322400   64.115200  138.102000
  H    -49.903300   62.571000  138.090000
  C    -48.526200   60.771100  136.304000
  H    -48.084500   60.636900  135.331000
  H    -49.608300   60.784500  136.076000
  C    -48.168500   59.468200  137.094000
  H    -47.167500   59.167400  137.004000
  H    -48.402300   59.562900  138.111000
  C    -48.934800   58.198000  136.703000
  H    -48.887700   57.911100  135.624000
  H    -48.431700   57.381400  137.119000
  H    -49.935200   58.050900  137.150000
  S    -50.606100   65.666100  138.106000
  C    -50.849700   66.929600  139.275000
  C    -49.822300   66.884500  140.223000
  C    -48.747900   65.976900  139.911000
  C    -49.068500   65.154700  138.820000
  H    -49.886500   67.575600  141.106000
  C    -47.654100   65.709000  140.924000
  H    -47.324400   66.593200  141.472000
  H    -46.833700   65.290300  140.378000
  C    -47.987500   64.690900  142.015000
  H    -48.049700   63.742800  141.557000
  H    -48.903700   65.002800  142.484000
  C    -46.817100   64.478800  143.035000
  H    -47.063800   63.686100  143.787000
  H    -46.488900   65.414600  143.479000
  H    -45.997800   64.163500  142.384000
  H    -45.965500   61.895400  136.490000
  H    -51.664700   67.588400  139.465000

 Total Charge           Charge          ....    0
 Multiplicity           Mult            ....    1
 Number of Electrons    NEL             ....  134
 Basis Dimension        Dim             ....  322

ORBITAL ENERGIES
----------------

  NO   OCC          E(Eh)            E(eV)
   0   2.0000     -88.973607     -2421.0949
   1   2.0000     -88.968760     -2420.9631
   2   2.0000     -10.334154      -281.2066
   3   2.0000     -10.332903      -281.1726
   4   2.0000     -10.317687      -280.7585
   5   2.0000     -10.315651      -280.7031
   6   2.0000     -10.307065      -280.4695
   7   2.0000     -10.300375      -280.2875
   8   2.0000     -10.298616      -280.2396
   9   2.0000     -10.296578      -280.1841
  10   2.0000     -10.295063      -280.1429
  11   2.0000     -10.285106      -279.8720
  12   2.0000     -10.281143      -279.7641
  13   2.0000     -10.279940      -279.7314
  14   2.0000     -10.276659      -279.6421
  15   2.0000     -10.275805      -279.6189
  16   2.0000      -8.087454      -220.0708
  17   2.0000      -8.082894      -219.9467
  18   2.0000      -6.046002      -164.5201
  19   2.0000      -6.042044      -164.4124
  20   2.0000      -6.041450      -164.3962
  21   2.0000      -6.038249      -164.3091
  22   2.0000      -6.037331      -164.2841
  23   2.0000      -6.033766      -164.1871
  24   2.0000      -1.005562       -27.3627
  25   2.0000      -0.984563       -26.7913
  26   2.0000      -0.909149       -24.7392
  27   2.0000      -0.908054       -24.7094
  28   2.0000      -0.868887       -23.6436
  29   2.0000      -0.852264       -23.1913
  30   2.0000      -0.845467       -23.0063
  31   2.0000      -0.810049       -22.0426
  32   2.0000      -0.783242       -21.3131
  33   2.0000      -0.770090       -20.9552
  34   2.0000      -0.705922       -19.2091
  35   2.0000      -0.704516       -19.1708
  36   2.0000      -0.690780       -18.7971
  37   2.0000      -0.661367       -17.9967
  38   2.0000      -0.633817       -17.2470
  39   2.0000      -0.616199       -16.7676
  40   2.0000      -0.592838       -16.1319
  41   2.0000      -0.572627       -15.5820
  42   2.0000      -0.571896       -15.5621
  43   2.0000      -0.566059       -15.4033
  44   2.0000      -0.522769       -14.2253
  45   2.0000      -0.518918       -14.1205
  46   2.0000      -0.515481       -14.0269
  47   2.0000      -0.510992       -13.9048
  48   2.0000      -0.505478       -13.7547
  49   2.0000      -0.496019       -13.4974
  50   2.0000      -0.493284       -13.4230
  51   2.0000      -0.478298       -13.0151
  52   2.0000      -0.469462       -12.7747
  53   2.0000      -0.466622       -12.6974
  54   2.0000      -0.458615       -12.4796
  55   2.0000      -0.445798       -12.1308
  56   2.0000      -0.442111       -12.0304
  57   2.0000      -0.432796       -11.7770
  58   2.0000      -0.428905       -11.6711
  59   2.0000      -0.427121       -11.6226
  60   2.0000      -0.425942       -11.5905
  61   2.0000      -0.421785       -11.4774
  62   2.0000      -0.414510       -11.2794
  63   2.0000      -0.340994        -9.2789
  64   2.0000      -0.332442        -9.0462
  65   2.0000      -0.328969        -8.9517
  66   2.0000      -0.292542        -7.9605
  67   0.0000       0.023997         0.6530
  68   0.0000       0.066496         1.8095
  69   0.0000       0.106249         2.8912
  70   0.0000       0.116824         3.1789
  71   0.0000       0.127499         3.4694

MULLIKEN ATOMIC CHARGES
-----------------------
   0 S :    0.136292
   1 C :   -0.130656
   2 C :   -0.079059
   3 C :   -0.005029
   4 C :   -0.130613
   5 H :    0.025448
   6 C :    0.069441
   7 H :    0.019902
   8 H :    0.030996
   9 C :   -0.034995
  10 H :    0.019090
  11 H :    0.019060
  12 C :   -0.064443
  13 H :    0.029719
  14 H :    0.006468
  15 H :    0.036627
  16 S :    0.118506
  17 C :   -0.072409
  18 C :   -0.079859
  19 C :   -0.011602
  20 C :   -0.171912
  21 H :    0.038158
  22 C :    0.056507
  23 H :    0.018001
  24 H :    0.005431
  25 C :   -0.046261
  26 H :    0.021791
  27 H :    0.022094
  28 C :   -0.060110
  29 H :    0.053874
  30 H :    0.026200
  31 H :    0.026635
  32 H :    0.058192
  33 H :    0.048516
Sum of atomic charges:   -0.0000000

LOEWDIN ATOMIC CHARGES
----------------------
   0 S :    0.425254
   1 C :   -0.204259
   2 C :   -0.064624
   3 C :   -0.064673
   4 C :   -0.208160
   5 H :    0.033384
   6 C :   -0.030745
   7 H :    0.029068
   8 H :    0.034909
   9 C :   -0.030377
  10 H :    0.018875
  11 H :    0.020763
  12 C :   -0.073477
  13 H :    0.027342
  14 H :    0.019650
  15 H :    0.027534
  16 S :    0.416626
  17 C :   -0.193958
  18 C :   -0.075695
  19 C :   -0.054228
  20 C :   -0.192846
  21 H :    0.037614
  22 C :   -0.032092
  23 H :    0.028027
  24 H :    0.019504
  25 C :   -0.029471
  26 H :    0.020458
  27 H :    0.016233
  28 C :   -0.065723
  29 H :    0.034392
  30 H :    0.018571
  31 H :    0.026371
  32 H :    0.035735
  33 H :    0.030018

  Mayer bond orders larger than 0.100000
B(  0-S ,  1-C ) :   1.1475 B(  0-S ,  4-C ) :   1.1534 B(  1-C ,  2-C ) :   1.5770
B(  1-C ,  4-C ) :   0.1050 B(  1-C , 32-H ) :   0.9656 B(  2-C ,  3-C ) :   1.2706
B(  2-C ,  6-C ) :   1.0415 B(  3-C ,  4-C ) :   1.5197 B(  3-C ,  5-H ) :   0.9879
B(  4-C , 20-C ) :   1.0649 B(  6-C ,  7-H ) :   0.9335 B(  6-C ,  8-H ) :   0.9486
B(  6-C ,  9-C ) :   1.0577 B(  9-C , 10-H ) :   0.9596 B(  9-C , 11-H ) :   0.9576
B(  9-C , 12-C ) :   1.0906 B( 12-C , 13-H ) :   0.9717 B( 12-C , 14-H ) :   0.9685
B( 12-C , 15-H ) :   0.9754 B( 16-S , 17-C ) :   1.1562 B( 16-S , 20-C ) :   1.1428
B( 17-C , 18-C ) :   1.6102 B( 17-C , 20-C ) :   0.1010 B( 17-C , 33-H ) :   0.9677
B( 18-C , 19-C ) :   1.2442 B( 18-C , 21-H ) :   0.9774 B( 19-C , 20-C ) :   1.5527
B( 19-C , 22-C ) :   1.0718 B( 22-C , 23-H ) :   0.9365 B( 22-C , 24-H ) :   0.9231
B( 22-C , 25-C ) :   1.0679 B( 25-C , 26-H ) :   0.9561 B( 25-C , 27-H ) :   0.9581
B( 25-C , 28-C ) :   1.0727 B( 28-C , 29-H ) :   0.9746 B( 28-C , 30-H ) :   0.9768
B( 28-C , 31-H ) :   0.9757

Dispersion correction           -0.013729729
FINAL SINGLE POINT ENERGY     -1339.863959247696

DIPOLE MOMENT
-------------
                                X             Y             Z
Electronic contribution:     -4.16252      20.27909     -10.89470
Nuclear contribution   :      4.12151     -20.71385      11.12646
                        -----------------------------------------
Total Dipole Moment    :     -0.04101      -0.43476       0.23175
                        -----------------------------------------
Magnitude (a.u.)       :      0.49438
Magnitude (Debye)      :      1.25661

Rotational constants in cm-1:     0.018461     0.007556     0.006564
Rotational constants in MHz :   553.457717   226.512361   196.790203

                             ****ORCA TERMINATED NORMALLY****
TOTAL RUN TIME: 0 days 0 hours 0 minutes 32 seconds 878 msec
