                         Program Version 4.2.1 -  RELEASE  -
|  1> ! wB97X-D3 SP def2-SVP
|  2> %pal
|  3> nprocs 16
|  4> end
|  5>
|  6> * xyz 0 1
|  7> S 	 -104.128 	 41.0853 	 128.778
|  8> C 	 -102.717 	 40.2208 	 129.39
|  9> C 	 -103.06 	 39.1247 	 130.147
| 10> C 	 -104.491 	 38.9598 	 130.249
| 11> C 	 -105.234 	 39.8782 	 129.534
| 12> H 	 -105.024 	 38.1713 	 130.803
| 13> C 	 -102.188 	 38.2099 	 130.797
| 14> H 	 -102.274 	 38.4175 	 131.84
| 15> H 	 -101.189 	 38.4916 	 130.622
| 16> C 	 -102.208 	 36.7331 	 130.483
| 17> H 	 -101.555 	 36.1817 	 131.167
| 18> H 	 -103.242 	 36.474 	 130.803
| 19> C 	 -102.052 	 36.4884 	 128.935
| 20> H 	 -101.228 	 37.0936 	 128.459
| 21> H 	 -102.075 	 35.4316 	 128.584
| 22> H 	 -102.923 	 36.8698 	 128.355
| 23> S 	 -107.447 	 41.109 	 130.475
| 24> C 	 -109.055 	 40.5604 	 129.967
| 25> C 	 -108.979 	 39.4816 	 129.15
| 26> C 	 -107.637 	 39.1121 	 128.779
| 27> C 	 -106.686 	 39.9223 	 129.373
| 28> H 	 -109.932 	 39.0876 	 128.843
| 29> C 	 -107.328 	 37.989 	 127.88
| 30> H 	 -108.091 	 37.1443 	 127.952
| 31> H 	 -106.499 	 37.4663 	 128.247
| 32> C 	 -106.934 	 38.4921 	 126.516
| 33> H 	 -106.174 	 39.2044 	 126.606
| 34> H 	 -107.775 	 39.1216 	 126.046
| 35> C 	 -106.607 	 37.3358 	 125.462
| 36> H 	 -106.28 	 37.8345 	 124.539
| 37> H 	 -107.44 	 36.7188 	 125.208
| 38> H 	 -105.749 	 36.8426 	 125.761
| 39> H 	 -101.756 	 40.4464 	 129.092
| 40> H 	 -109.985 	 41.0647 	 130.221
| 41> *
| 42>
| 43>                          ****END OF INPUT****

CARTESIAN COORDINATES (ANGSTROEM)
---------------------------------
  S    -104.128000   41.085300  128.778000
  C    -102.717000   40.220800  129.390000
  C    -103.060000   39.124700  130.147000
  C    -104.491000   38.959800  130.249000
  C    -105.234000   39.878200  129.534000
  H    -105.024000   38.171300  130.803000
  C    -102.188000   38.209900  130.797000
  H    -102.274000   38.417500  131.840000
  H    -101.189000   38.491600  130.622000
  C    -102.208000   36.733100  130.483000
  H    -101.555000   36.181700  131.167000
  H    -103.242000   36.474000  130.803000
  C    -102.052000   36.488400  128.935000
  H    -101.228000   37.093600  128.459000
  H    -102.075000   35.431600  128.584000
  H    -102.923000   36.869800  128.355000
  S    -107.447000   41.109000  130.475000
  C    -109.055000   40.560400  129.967000
  C    -108.979000   39.481600  129.150000
  C    -107.637000   39.112100  128.779000
  C    -106.686000   39.922300  129.373000
  H    -109.932000   39.087600  128.843000
  C    -107.328000   37.989000  127.880000
  H    -108.091000   37.144300  127.952000
  H    -106.499000   37.466300  128.247000
  C    -106.934000   38.492100  126.516000
  H    -106.174000   39.204400  126.606000
  H    -107.775000   39.121600  126.046000
  C    -106.607000   37.335800  125.462000
  H    -106.280000   37.834500  124.539000
  H    -107.440000   36.718800  125.208000
  H    -105.749000   36.842600  125.761000
  H    -101.756000   40.446400  129.092000
  H    -109.985000   41.064700  130.221000

 Total Charge           Charge          ....    0
 Multiplicity           Mult            ....    1
 Number of Electrons    NEL             ....  134
 Basis Dimension        Dim             ....  322

ORBITAL ENERGIES
----------------

  NO   OCC          E(Eh)            E(eV)
   0   2.0000     -88.964912     -2420.8583
   1   2.0000     -88.959701     -2420.7165
   2   2.0000     -10.334141      -281.2063
   3   2.0000     -10.327754      -281.0325
   4   2.0000     -10.316444      -280.7247
   5   2.0000     -10.311597      -280.5928
   6   2.0000     -10.306532      -280.4550
   7   2.0000     -10.298261      -280.2299
   8   2.0000     -10.297959      -280.2217
   9   2.0000     -10.296495      -280.1819
  10   2.0000     -10.291751      -280.0528
  11   2.0000     -10.290267      -280.0124
  12   2.0000     -10.286652      -279.9140
  13   2.0000     -10.285849      -279.8922
  14   2.0000     -10.277428      -279.6630
  15   2.0000     -10.272659      -279.5333
  16   2.0000      -8.078659      -219.8315
  17   2.0000      -8.073968      -219.7038
  18   2.0000      -6.037290      -164.2830
  19   2.0000      -6.033318      -164.1749
  20   2.0000      -6.032590      -164.1551
  21   2.0000      -6.029335      -164.0665
  22   2.0000      -6.028577      -164.0459
  23   2.0000      -6.024595      -163.9376
  24   2.0000      -1.001650       -27.2563
  25   2.0000      -0.982098       -26.7242
  26   2.0000      -0.921551       -25.0767
  27   2.0000      -0.910512       -24.7763
  28   2.0000      -0.869831       -23.6693
  29   2.0000      -0.843974       -22.9657
  30   2.0000      -0.841364       -22.8947
  31   2.0000      -0.817985       -22.2585
  32   2.0000      -0.784483       -21.3469
  33   2.0000      -0.774471       -21.0744
  34   2.0000      -0.716213       -19.4892
  35   2.0000      -0.704744       -19.1771
  36   2.0000      -0.697342       -18.9756
  37   2.0000      -0.659961       -17.9584
  38   2.0000      -0.644090       -17.5266
  39   2.0000      -0.625624       -17.0241
  40   2.0000      -0.599597       -16.3159
  41   2.0000      -0.570620       -15.5274
  42   2.0000      -0.562479       -15.3058
  43   2.0000      -0.555003       -15.1024
  44   2.0000      -0.536941       -14.6109
  45   2.0000      -0.523600       -14.2479
  46   2.0000      -0.518243       -14.1021
  47   2.0000      -0.512851       -13.9554
  48   2.0000      -0.506333       -13.7780
  49   2.0000      -0.497097       -13.5267
  50   2.0000      -0.491731       -13.3807
  51   2.0000      -0.481635       -13.1059
  52   2.0000      -0.470498       -12.8029
  53   2.0000      -0.466146       -12.6845
  54   2.0000      -0.459210       -12.4957
  55   2.0000      -0.447018       -12.1640
  56   2.0000      -0.441497       -12.0137
  57   2.0000      -0.438686       -11.9373
  58   2.0000      -0.436133       -11.8678
  59   2.0000      -0.425122       -11.5682
  60   2.0000      -0.418913       -11.3992
  61   2.0000      -0.409173       -11.1342
  62   2.0000      -0.406712       -11.0672
  63   2.0000      -0.338167        -9.2020
  64   2.0000      -0.326825        -8.8934
  65   2.0000      -0.322973        -8.7885
  66   2.0000      -0.308185        -8.3861
  67   0.0000       0.038506         1.0478
  68   0.0000       0.055337         1.5058
  69   0.0000       0.111504         3.0342
  70   0.0000       0.118838         3.2338
  71   0.0000       0.122935         3.3452

MULLIKEN ATOMIC CHARGES
-----------------------
   0 S :    0.097518
   1 C :   -0.081739
   2 C :   -0.091401
   3 C :    0.045722
   4 C :   -0.176949
   5 H :    0.028213
   6 C :    0.085741
   7 H :    0.032382
   8 H :   -0.012920
   9 C :   -0.040282
  10 H :    0.039322
  11 H :    0.020206
  12 C :   -0.088655
  13 H :    0.038296
  14 H :    0.046006
  15 H :    0.037765
  16 S :    0.086834
  17 C :   -0.090603
  18 C :   -0.034056
  19 C :   -0.012548
  20 C :   -0.173820
  21 H :    0.013173
  22 C :    0.112552
  23 H :    0.028436
  24 H :   -0.005493
  25 C :   -0.098950
  26 H :    0.017439
  27 H :    0.028170
  28 C :   -0.005140
  29 H :    0.025504
  30 H :    0.038802
  31 H :    0.016070
  32 H :    0.015586
  33 H :    0.058815
Sum of atomic charges:   -0.0000000

LOEWDIN ATOMIC CHARGES
----------------------
   0 S :    0.373057
   1 C :   -0.172660
   2 C :   -0.062223
   3 C :   -0.053980
   4 C :   -0.186338
   5 H :    0.037186
   6 C :   -0.042939
   7 H :    0.038219
   8 H :    0.021591
   9 C :   -0.034333
  10 H :    0.028545
  11 H :    0.023131
  12 C :   -0.082077
  13 H :    0.030092
  14 H :    0.031078
  15 H :    0.032607
  16 S :    0.375527
  17 C :   -0.170049
  18 C :   -0.072633
  19 C :   -0.044355
  20 C :   -0.189286
  21 H :    0.032544
  22 C :   -0.041481
  23 H :    0.038131
  24 H :    0.022873
  25 C :   -0.030667
  26 H :    0.015509
  27 H :    0.028573
  28 C :   -0.057084
  29 H :    0.030869
  30 H :    0.023633
  31 H :    0.013493
  32 H :    0.011720
  33 H :    0.031727

  Mayer bond orders larger than 0.100000
B(  0-S ,  1-C ) :   1.1244 B(  0-S ,  4-C ) :   1.1277 B(  1-C ,  2-C ) :   1.6262
B(  1-C , 32-H ) :   0.9735 B(  2-C ,  3-C ) :   1.1886 B(  2-C ,  6-C ) :   1.0478
B(  3-C ,  4-C ) :   1.6234 B(  3-C ,  5-H ) :   0.9887 B(  4-C , 20-C ) :   1.0048
B(  6-C ,  7-H ) :   0.9209 B(  6-C ,  8-H ) :   0.9233 B(  6-C ,  9-C ) :   1.0683
B(  9-C , 10-H ) :   0.9571 B(  9-C , 11-H ) :   0.9547 B(  9-C , 12-C ) :   1.0537
B( 12-C , 13-H ) :   0.9779 B( 12-C , 14-H ) :   0.9770 B( 12-C , 15-H ) :   0.9681
B( 16-S , 17-C ) :   1.1386 B( 16-S , 20-C ) :   1.1320 B( 17-C , 18-C ) :   1.6533
B( 17-C , 33-H ) :   0.9642 B( 18-C , 19-C ) :   1.1928 B( 18-C , 21-H ) :   0.9971
B( 19-C , 20-C ) :   1.6284 B( 19-C , 22-C ) :   1.0586 B( 22-C , 23-H ) :   0.9337
B( 22-C , 24-H ) :   0.9112 B( 22-C , 25-C ) :   1.0555 B( 25-C , 26-H ) :   0.9550
B( 25-C , 27-H ) :   0.9573 B( 25-C , 28-C ) :   1.0759 B( 28-C , 29-H ) :   0.9730
B( 28-C , 30-H ) :   0.9784 B( 28-C , 31-H ) :   0.9754

Dispersion correction           -0.015110419
FINAL SINGLE POINT ENERGY     -1339.861572560254

DIPOLE MOMENT
-------------
                                X             Y             Z
Electronic contribution:     -8.27642      23.02794      10.93648
Nuclear contribution   :      8.32129     -23.69428     -10.97541
                        -----------------------------------------
Total Dipole Moment    :      0.04487      -0.66634      -0.03894
                        -----------------------------------------
Magnitude (a.u.)       :      0.66898
Magnitude (Debye)      :      1.70042

Rotational constants in cm-1:     0.017427     0.009577     0.007650
Rotational constants in MHz :   522.453872   287.123929   229.336405

                             ****ORCA TERMINATED NORMALLY****
TOTAL RUN TIME: 0 days 0 hours 0 minutes 35 seconds 382 msec
