                         Program Version 4.2.1 -  RELEASE  -
|  1> ! wB97X-D3 SP def2-SVP
|  2> %pal
|  3> nprocs 16
|  4> end
|  5>
|  6> * xyz 0 1
|  7> S 	 -0.00765691 	 -11.4103 	 83.4778
|  8> C 	 -0.469395 	 -13.0269 	 83.9963
|  9> C 	 -1.84699 	 -13.2433 	 83.9546
| 10> C 	 -2.57966 	 -12.1831 	 83.3616
| 11> C 	 -1.69783 	 -11.1175 	 82.9705
| 12> H 	 -3.64862 	 -12.153 	 83.1514
| 13> C 	 -2.58144 	 -14.5112 	 84.3801
| 14> H 	 -1.80767 	 -15.1411 	 84.7284
| 15> H 	 -2.94527 	 -15.0128 	 83.4238
| 16> C 	 -3.74315 	 -14.2803 	 85.353
| 17> H 	 -3.30259 	 -13.7331 	 86.1532
| 18> H 	 -4.52295 	 -13.7742 	 85.0173
| 19> C 	 -4.22201 	 -15.5542 	 86.0339
| 20> H 	 -4.43876 	 -16.2516 	 85.2674
| 21> H 	 -3.48686 	 -15.9891 	 86.7361
| 22> H 	 -5.18815 	 -15.3714 	 86.4458
| 23> S 	 -1.61953 	 -9.37784 	 80.7144
| 24> C 	 -2.64743 	 -7.9966 	 80.763
| 25> C 	 -3.24769 	 -7.88097 	 82.0074
| 26> C 	 -2.90551 	 -8.8597 	 82.9882
| 27> C 	 -2.14395 	 -9.91011 	 82.3647
| 28> H 	 -3.9312 	 -6.98376 	 82.2149
| 29> C 	 -3.46088 	 -8.86251 	 84.4187
| 30> H 	 -3.30641 	 -7.90845 	 84.9281
| 31> H 	 -2.99393 	 -9.6606 	 84.9429
| 32> C 	 -4.97945 	 -8.94928 	 84.4821
| 33> H 	 -5.2421 	 -9.51293 	 83.5478
| 34> H 	 -5.45714 	 -7.88551 	 84.3789
| 35> C 	 -5.44243 	 -9.65781 	 85.7723
| 36> H 	 -5.23426 	 -10.7235 	 85.7078
| 37> H 	 -6.56736 	 -9.5268 	 85.8038
| 38> H 	 -4.89022 	 -9.22404 	 86.6058
| 39> H 	 0.254472 	 -13.6943 	 84.369
| 40> H 	 -2.70844 	 -7.28007 	 80.0027
| 41> *
| 42>
| 43>                          ****END OF INPUT****

CARTESIAN COORDINATES (ANGSTROEM)
---------------------------------
  S     -0.007657  -11.410300   83.477800
  C     -0.469395  -13.026900   83.996300
  C     -1.846990  -13.243300   83.954600
  C     -2.579660  -12.183100   83.361600
  C     -1.697830  -11.117500   82.970500
  H     -3.648620  -12.153000   83.151400
  C     -2.581440  -14.511200   84.380100
  H     -1.807670  -15.141100   84.728400
  H     -2.945270  -15.012800   83.423800
  C     -3.743150  -14.280300   85.353000
  H     -3.302590  -13.733100   86.153200
  H     -4.522950  -13.774200   85.017300
  C     -4.222010  -15.554200   86.033900
  H     -4.438760  -16.251600   85.267400
  H     -3.486860  -15.989100   86.736100
  H     -5.188150  -15.371400   86.445800
  S     -1.619530   -9.377840   80.714400
  C     -2.647430   -7.996600   80.763000
  C     -3.247690   -7.880970   82.007400
  C     -2.905510   -8.859700   82.988200
  C     -2.143950   -9.910110   82.364700
  H     -3.931200   -6.983760   82.214900
  C     -3.460880   -8.862510   84.418700
  H     -3.306410   -7.908450   84.928100
  H     -2.993930   -9.660600   84.942900
  C     -4.979450   -8.949280   84.482100
  H     -5.242100   -9.512930   83.547800
  H     -5.457140   -7.885510   84.378900
  C     -5.442430   -9.657810   85.772300
  H     -5.234260  -10.723500   85.707800
  H     -6.567360   -9.526800   85.803800
  H     -4.890220   -9.224040   86.605800
  H      0.254472  -13.694300   84.369000
  H     -2.708440   -7.280070   80.002700

 Total Charge           Charge          ....    0
 Multiplicity           Mult            ....    1
 Number of Electrons    NEL             ....  134
 Basis Dimension        Dim             ....  322

ORBITAL ENERGIES
----------------

  NO   OCC          E(Eh)            E(eV)
   0   2.0000     -88.969891     -2420.9938
   1   2.0000     -88.965550     -2420.8757
   2   2.0000     -10.332323      -281.1568
   3   2.0000     -10.328974      -281.0657
   4   2.0000     -10.313873      -280.6548
   5   2.0000     -10.313652      -280.6487
   6   2.0000     -10.309769      -280.5431
   7   2.0000     -10.301845      -280.3274
   8   2.0000     -10.300273      -280.2847
   9   2.0000     -10.297341      -280.2049
  10   2.0000     -10.293793      -280.1084
  11   2.0000     -10.293633      -280.1040
  12   2.0000     -10.287341      -279.9328
  13   2.0000     -10.285521      -279.8833
  14   2.0000     -10.274558      -279.5849
  15   2.0000     -10.273198      -279.5479
  16   2.0000      -8.083627      -219.9667
  17   2.0000      -8.079685      -219.8594
  18   2.0000      -6.042004      -164.4113
  19   2.0000      -6.038366      -164.3123
  20   2.0000      -6.038124      -164.3057
  21   2.0000      -6.034500      -164.2071
  22   2.0000      -6.034226      -164.1997
  23   2.0000      -6.030605      -164.1011
  24   2.0000      -0.996469       -27.1153
  25   2.0000      -0.975962       -26.5573
  26   2.0000      -0.915602       -24.9148
  27   2.0000      -0.910540       -24.7771
  28   2.0000      -0.869699       -23.6657
  29   2.0000      -0.852814       -23.2063
  30   2.0000      -0.843683       -22.9578
  31   2.0000      -0.806616       -21.9491
  32   2.0000      -0.782600       -21.2956
  33   2.0000      -0.768616       -20.9151
  34   2.0000      -0.714992       -19.4559
  35   2.0000      -0.700499       -19.0615
  36   2.0000      -0.689547       -18.7635
  37   2.0000      -0.647224       -17.6118
  38   2.0000      -0.641422       -17.4540
  39   2.0000      -0.617293       -16.7974
  40   2.0000      -0.597620       -16.2621
  41   2.0000      -0.578403       -15.7391
  42   2.0000      -0.567530       -15.4433
  43   2.0000      -0.558350       -15.1935
  44   2.0000      -0.529454       -14.4072
  45   2.0000      -0.525109       -14.2889
  46   2.0000      -0.517606       -14.0848
  47   2.0000      -0.510411       -13.8890
  48   2.0000      -0.505770       -13.7627
  49   2.0000      -0.496974       -13.5234
  50   2.0000      -0.487077       -13.2540
  51   2.0000      -0.482280       -13.1235
  52   2.0000      -0.475087       -12.9278
  53   2.0000      -0.469121       -12.7654
  54   2.0000      -0.456236       -12.4148
  55   2.0000      -0.451251       -12.2792
  56   2.0000      -0.443481       -12.0677
  57   2.0000      -0.435912       -11.8618
  58   2.0000      -0.433010       -11.7828
  59   2.0000      -0.426019       -11.5926
  60   2.0000      -0.420748       -11.4491
  61   2.0000      -0.417237       -11.3536
  62   2.0000      -0.410193       -11.1619
  63   2.0000      -0.335356        -9.1255
  64   2.0000      -0.327954        -8.9241
  65   2.0000      -0.324485        -8.8297
  66   2.0000      -0.294236        -8.0066
  67   0.0000       0.026748         0.7279
  68   0.0000       0.055970         1.5230
  69   0.0000       0.110786         3.0147
  70   0.0000       0.115997         3.1565
  71   0.0000       0.124671         3.3925

MULLIKEN ATOMIC CHARGES
-----------------------
   0 S :    0.121044
   1 C :   -0.117854
   2 C :   -0.081529
   3 C :    0.019533
   4 C :   -0.173986
   5 H :    0.027539
   6 C :    0.076840
   7 H :   -0.002289
   8 H :    0.044778
   9 C :   -0.031451
  10 H :    0.023189
  11 H :   -0.000099
  12 C :   -0.022889
  13 H :    0.009340
  14 H :    0.044427
  15 H :    0.021585
  16 S :    0.112337
  17 C :   -0.070227
  18 C :   -0.058432
  19 C :   -0.033034
  20 C :   -0.195124
  21 H :    0.039778
  22 C :    0.111076
  23 H :    0.031982
  24 H :    0.025026
  25 C :   -0.156444
  26 H :    0.040114
  27 H :    0.044719
  28 C :   -0.050923
  29 H :    0.038138
  30 H :    0.048292
  31 H :    0.041961
  32 H :    0.031743
  33 H :    0.040842
Sum of atomic charges:   -0.0000000

LOEWDIN ATOMIC CHARGES
----------------------
   0 S :    0.395295
   1 C :   -0.192814
   2 C :   -0.062848
   3 C :   -0.050711
   4 C :   -0.187495
   5 H :    0.035756
   6 C :   -0.027552
   7 H :    0.021659
   8 H :    0.038322
   9 C :   -0.027767
  10 H :    0.026975
  11 H :    0.003259
  12 C :   -0.055506
  13 H :    0.017549
  14 H :    0.030464
  15 H :    0.024368
  16 S :    0.397392
  17 C :   -0.186019
  18 C :   -0.084875
  19 C :   -0.040497
  20 C :   -0.201944
  21 H :    0.039990
  22 C :   -0.033045
  23 H :    0.036740
  24 H :    0.025181
  25 C :   -0.052567
  26 H :    0.023102
  27 H :    0.029509
  28 C :   -0.065964
  29 H :    0.024992
  30 H :    0.035498
  31 H :    0.026706
  32 H :    0.016368
  33 H :    0.020479

  Mayer bond orders larger than 0.100000
B(  0-S ,  1-C ) :   1.1373 B(  0-S ,  4-C ) :   1.1526 B(  1-C ,  2-C ) :   1.5968
B(  1-C ,  4-C ) :   0.1008 B(  1-C , 32-H ) :   0.9720 B(  2-C ,  3-C ) :   1.2430
B(  2-C ,  6-C ) :   1.0288 B(  3-C ,  4-C ) :   1.5408 B(  3-C ,  5-H ) :   0.9933
B(  4-C , 20-C ) :   1.0974 B(  6-C ,  7-H ) :   0.9387 B(  6-C ,  8-H ) :   0.9339
B(  6-C ,  9-C ) :   1.0567 B(  9-C , 10-H ) :   0.9565 B(  9-C , 11-H ) :   0.9540
B(  9-C , 12-C ) :   1.0985 B( 12-C , 13-H ) :   0.9698 B( 12-C , 14-H ) :   0.9775
B( 12-C , 15-H ) :   0.9717 B( 16-S , 17-C ) :   1.1634 B( 16-S , 20-C ) :   1.1316
B( 17-C , 18-C ) :   1.5945 B( 17-C , 20-C ) :   0.1068 B( 17-C , 33-H ) :   0.9751
B( 18-C , 19-C ) :   1.2542 B( 18-C , 21-H ) :   0.9752 B( 19-C , 20-C ) :   1.5354
B( 19-C , 22-C ) :   1.0678 B( 22-C , 23-H ) :   0.9248 B( 22-C , 24-H ) :   0.9348
B( 22-C , 25-C ) :   1.0406 B( 25-C , 26-H ) :   0.9636 B( 25-C , 27-H ) :   0.9525
B( 25-C , 28-C ) :   1.0765 B( 28-C , 29-H ) :   0.9753 B( 28-C , 30-H ) :   0.9738
B( 28-C , 31-H ) :   0.9727

Dispersion correction           -0.014639944
FINAL SINGLE POINT ENERGY     -1339.857936186652

DIPOLE MOMENT
-------------
                                X             Y             Z
Electronic contribution:     22.46824      11.18908     -20.37248
Nuclear contribution   :    -22.99404     -11.29870      20.80483
                        -----------------------------------------
Total Dipole Moment    :     -0.52580      -0.10962       0.43235
                        -----------------------------------------
Magnitude (a.u.)       :      0.68950
Magnitude (Debye)      :      1.75256

Rotational constants in cm-1:     0.017511     0.009176     0.006771
Rotational constants in MHz :   524.953558   275.094359   202.988476

                             ****ORCA TERMINATED NORMALLY****
TOTAL RUN TIME: 0 days 0 hours 0 minutes 33 seconds 490 msec
