                         Program Version 4.2.1 -  RELEASE  -
|  1> ! wB97X-D3 SP def2-SVP
|  2> %pal
|  3> nprocs 16
|  4> end
|  5>
|  6> * xyz 0 1
|  7> S 	 57.5962 	 8.24546 	 65.5768
|  8> C 	 57.4966 	 9.83392 	 66.3049
|  9> C 	 56.1849 	 10.1374 	 66.7633
| 10> C 	 55.2577 	 9.02619 	 66.5147
| 11> C 	 55.8413 	 8.01504 	 65.7675
| 12> H 	 54.227 	 8.97894 	 66.9529
| 13> C 	 55.7705 	 11.4388 	 67.4333
| 14> H 	 54.752 	 11.5931 	 67.3029
| 15> H 	 56.2045 	 12.1649 	 66.7011
| 16> C 	 56.3945 	 11.729 	 68.7871
| 17> H 	 55.9116 	 10.958 	 69.4173
| 18> H 	 57.4472 	 11.535 	 68.8272
| 19> C 	 56.097 	 13.1263 	 69.3393
| 20> H 	 56.3393 	 13.9159 	 68.5845
| 21> H 	 55.0276 	 13.1434 	 69.5871
| 22> H 	 56.7566 	 13.3918 	 70.1766
| 23> S 	 56.1364 	 5.31597 	 66.0953
| 24> C 	 54.7572 	 4.28548 	 65.7165
| 25> C 	 53.7323 	 4.95788 	 65.0496
| 26> C 	 54.0361 	 6.38193 	 64.9522
| 27> C 	 55.2368 	 6.75044 	 65.554
| 28> H 	 52.7815 	 4.62096 	 64.6933
| 29> C 	 53.0702 	 7.47155 	 64.4267
| 30> H 	 53.3253 	 8.44762 	 64.8876
| 31> H 	 52.0157 	 7.33166 	 64.7434
| 32> C 	 53.1441 	 7.63922 	 62.8084
| 33> H 	 52.7663 	 6.75629 	 62.3092
| 34> H 	 54.1811 	 7.59466 	 62.6054
| 35> C 	 52.5173 	 8.91745 	 62.3826
| 36> H 	 52.9096 	 9.8194 	 62.8574
| 37> H 	 51.4048 	 8.86661 	 62.4626
| 38> H 	 52.8412 	 9.159 	 61.3868
| 39> H 	 58.4462 	 10.4112 	 66.4136
| 40> H 	 54.896 	 3.22211 	 65.7848
| 41> *
| 42>
| 43>                          ****END OF INPUT****

CARTESIAN COORDINATES (ANGSTROEM)
---------------------------------
  S     57.596200    8.245460   65.576800
  C     57.496600    9.833920   66.304900
  C     56.184900   10.137400   66.763300
  C     55.257700    9.026190   66.514700
  C     55.841300    8.015040   65.767500
  H     54.227000    8.978940   66.952900
  C     55.770500   11.438800   67.433300
  H     54.752000   11.593100   67.302900
  H     56.204500   12.164900   66.701100
  C     56.394500   11.729000   68.787100
  H     55.911600   10.958000   69.417300
  H     57.447200   11.535000   68.827200
  C     56.097000   13.126300   69.339300
  H     56.339300   13.915900   68.584500
  H     55.027600   13.143400   69.587100
  H     56.756600   13.391800   70.176600
  S     56.136400    5.315970   66.095300
  C     54.757200    4.285480   65.716500
  C     53.732300    4.957880   65.049600
  C     54.036100    6.381930   64.952200
  C     55.236800    6.750440   65.554000
  H     52.781500    4.620960   64.693300
  C     53.070200    7.471550   64.426700
  H     53.325300    8.447620   64.887600
  H     52.015700    7.331660   64.743400
  C     53.144100    7.639220   62.808400
  H     52.766300    6.756290   62.309200
  H     54.181100    7.594660   62.605400
  C     52.517300    8.917450   62.382600
  H     52.909600    9.819400   62.857400
  H     51.404800    8.866610   62.462600
  H     52.841200    9.159000   61.386800
  H     58.446200   10.411200   66.413600
  H     54.896000    3.222110   65.784800

 Total Charge           Charge          ....    0
 Multiplicity           Mult            ....    1
 Number of Electrons    NEL             ....  134
 Basis Dimension        Dim             ....  322

ORBITAL ENERGIES
----------------

  NO   OCC          E(Eh)            E(eV)
   0   2.0000     -88.968759     -2420.9630
   1   2.0000     -88.962864     -2420.8026
   2   2.0000     -10.328745      -281.0595
   3   2.0000     -10.322962      -280.9021
   4   2.0000     -10.322797      -280.8976
   5   2.0000     -10.320916      -280.8464
   6   2.0000     -10.311752      -280.5970
   7   2.0000     -10.304606      -280.4026
   8   2.0000     -10.304002      -280.3862
   9   2.0000     -10.300440      -280.2892
  10   2.0000     -10.295754      -280.1617
  11   2.0000     -10.290215      -280.0110
  12   2.0000     -10.286970      -279.9227
  13   2.0000     -10.284615      -279.8586
  14   2.0000     -10.280567      -279.7484
  15   2.0000     -10.274536      -279.5843
  16   2.0000      -8.083024      -219.9503
  17   2.0000      -8.077315      -219.7949
  18   2.0000      -6.041559      -164.3992
  19   2.0000      -6.037690      -164.2939
  20   2.0000      -6.035848      -164.2438
  21   2.0000      -6.033695      -164.1852
  22   2.0000      -6.031972      -164.1383
  23   2.0000      -6.027951      -164.0289
  24   2.0000      -1.000942       -27.2370
  25   2.0000      -0.973227       -26.4828
  26   2.0000      -0.913824       -24.8664
  27   2.0000      -0.897682       -24.4272
  28   2.0000      -0.869449       -23.6589
  29   2.0000      -0.852494       -23.1975
  30   2.0000      -0.844456       -22.9788
  31   2.0000      -0.810216       -22.0471
  32   2.0000      -0.778285       -21.1782
  33   2.0000      -0.762513       -20.7490
  34   2.0000      -0.704774       -19.1779
  35   2.0000      -0.701756       -19.0957
  36   2.0000      -0.693618       -18.8743
  37   2.0000      -0.664991       -18.0953
  38   2.0000      -0.640593       -17.4314
  39   2.0000      -0.613181       -16.6855
  40   2.0000      -0.594338       -16.1728
  41   2.0000      -0.575319       -15.6552
  42   2.0000      -0.559369       -15.2212
  43   2.0000      -0.548361       -14.9217
  44   2.0000      -0.529507       -14.4086
  45   2.0000      -0.521541       -14.1918
  46   2.0000      -0.516611       -14.0577
  47   2.0000      -0.508179       -13.8282
  48   2.0000      -0.499439       -13.5904
  49   2.0000      -0.495783       -13.4909
  50   2.0000      -0.492072       -13.3900
  51   2.0000      -0.480709       -13.0808
  52   2.0000      -0.477222       -12.9859
  53   2.0000      -0.462345       -12.5811
  54   2.0000      -0.451758       -12.2929
  55   2.0000      -0.451367       -12.2823
  56   2.0000      -0.442872       -12.0511
  57   2.0000      -0.442347       -12.0369
  58   2.0000      -0.432414       -11.7666
  59   2.0000      -0.424584       -11.5535
  60   2.0000      -0.418492       -11.3878
  61   2.0000      -0.412133       -11.2147
  62   2.0000      -0.405960       -11.0467
  63   2.0000      -0.349847        -9.5198
  64   2.0000      -0.328709        -8.9446
  65   2.0000      -0.324875        -8.8403
  66   2.0000      -0.285581        -7.7711
  67   0.0000       0.024011         0.6534
  68   0.0000       0.064263         1.7487
  69   0.0000       0.102723         2.7952
  70   0.0000       0.114120         3.1054
  71   0.0000       0.132071         3.5938

MULLIKEN ATOMIC CHARGES
-----------------------
   0 S :    0.103169
   1 C :   -0.149178
   2 C :   -0.100703
   3 C :    0.003376
   4 C :   -0.139096
   5 H :    0.052780
   6 C :    0.078589
   7 H :    0.002403
   8 H :    0.028094
   9 C :   -0.062510
  10 H :    0.030862
  11 H :    0.024584
  12 C :   -0.051812
  13 H :    0.031187
  14 H :    0.040813
  15 H :    0.041175
  16 S :    0.091557
  17 C :   -0.087330
  18 C :    0.011192
  19 C :   -0.052987
  20 C :   -0.153507
  21 H :    0.011433
  22 C :    0.010363
  23 H :    0.015795
  24 H :    0.029307
  25 C :   -0.049624
  26 H :    0.025650
  27 H :    0.019728
  28 C :   -0.029747
  29 H :    0.026929
  30 H :    0.041960
  31 H :    0.020701
  32 H :    0.072789
  33 H :    0.062060
Sum of atomic charges:    0.0000000

LOEWDIN ATOMIC CHARGES
----------------------
   0 S :    0.394605
   1 C :   -0.205823
   2 C :   -0.055372
   3 C :   -0.061026
   4 C :   -0.192160
   5 H :    0.044471
   6 C :   -0.035761
   7 H :    0.019266
   8 H :    0.038982
   9 C :   -0.041489
  10 H :    0.028299
  11 H :    0.020999
  12 C :   -0.068495
  13 H :    0.027429
  14 H :    0.028689
  15 H :    0.029758
  16 S :    0.383355
  17 C :   -0.174942
  18 C :   -0.062326
  19 C :   -0.056003
  20 C :   -0.192037
  21 H :    0.029571
  22 C :   -0.034838
  23 H :    0.027624
  24 H :    0.026217
  25 C :   -0.034735
  26 H :    0.022317
  27 H :    0.020112
  28 C :   -0.070921
  29 H :    0.028356
  30 H :    0.030879
  31 H :    0.026031
  32 H :    0.035015
  33 H :    0.023952

  Mayer bond orders larger than 0.100000
B(  0-S ,  1-C ) :   1.1411 B(  0-S ,  4-C ) :   1.1370 B(  1-C ,  2-C ) :   1.5896
B(  1-C , 32-H ) :   0.9657 B(  2-C ,  3-C ) :   1.2490 B(  2-C ,  6-C ) :   1.0164
B(  3-C ,  4-C ) :   1.5614 B(  3-C ,  5-H ) :   0.9746 B(  4-C , 20-C ) :   1.0772
B(  6-C ,  7-H ) :   0.9454 B(  6-C ,  8-H ) :   0.9326 B(  6-C ,  9-C ) :   1.0522
B(  9-C , 10-H ) :   0.9558 B(  9-C , 11-H ) :   0.9578 B(  9-C , 12-C ) :   1.0802
B( 12-C , 13-H ) :   0.9746 B( 12-C , 14-H ) :   0.9757 B( 12-C , 15-H ) :   0.9749
B( 16-S , 17-C ) :   1.1526 B( 16-S , 20-C ) :   1.1190 B( 17-C , 18-C ) :   1.5883
B( 17-C , 33-H ) :   0.9694 B( 18-C , 19-C ) :   1.2419 B( 18-C , 21-H ) :   0.9930
B( 19-C , 20-C ) :   1.6056 B( 19-C , 22-C ) :   1.0410 B( 22-C , 23-H ) :   0.9422
B( 22-C , 24-H ) :   0.9441 B( 22-C , 25-C ) :   1.0381 B( 25-C , 26-H ) :   0.9563
B( 25-C , 27-H ) :   0.9566 B( 25-C , 28-C ) :   1.0983 B( 28-C , 29-H ) :   0.9687
B( 28-C , 30-H ) :   0.9733 B( 28-C , 31-H ) :   0.9674

Dispersion correction           -0.013687572
FINAL SINGLE POINT ENERGY     -1339.869976247250

DIPOLE MOMENT
-------------
                                X             Y             Z
Electronic contribution:     14.19180     -22.92632      -0.38942
Nuclear contribution   :    -14.53635      23.39502       0.48425
                        -----------------------------------------
Total Dipole Moment    :     -0.34455       0.46871       0.09482
                        -----------------------------------------
Magnitude (a.u.)       :      0.58940
Magnitude (Debye)      :      1.49814

Rotational constants in cm-1:     0.018471     0.007821     0.006413
Rotational constants in MHz :   553.749129   234.471600   192.264064

                             ****ORCA TERMINATED NORMALLY****
TOTAL RUN TIME: 0 days 0 hours 0 minutes 28 seconds 993 msec
