                         Program Version 4.2.1 -  RELEASE  -
|  1> ! wB97X-D3 SP def2-SVP
|  2> %pal
|  3> nprocs 16
|  4> end
|  5>
|  6> * xyz 0 1
|  7> S 	 37.7607 	 28.0384 	 54.4086
|  8> C 	 38.3738 	 29.6198 	 54.4423
|  9> C 	 37.6503 	 30.4734 	 55.2919
| 10> C 	 36.7377 	 29.7106 	 56.0631
| 11> C 	 36.5875 	 28.372 	 55.6347
| 12> H 	 36.2273 	 30.1107 	 56.9325
| 13> C 	 37.8396 	 32.0097 	 55.5969
| 14> H 	 38.6496 	 32.3746 	 54.9919
| 15> H 	 38.1901 	 32.0287 	 56.6575
| 16> C 	 36.6285 	 32.8519 	 55.5355
| 17> H 	 35.796 	 32.3919 	 56.0125
| 18> H 	 36.851 	 33.7698 	 56.0755
| 19> C 	 36.2989 	 33.412 	 54.1452
| 20> H 	 37.0193 	 34.2628 	 54.0935
| 21> H 	 36.5273 	 32.7148 	 53.333
| 22> H 	 35.2507 	 33.7063 	 53.9219
| 23> S 	 34.9879 	 26.1707 	 54.9961
| 24> C 	 34.1145 	 25.4107 	 56.3952
| 25> C 	 34.3486 	 26.0433 	 57.5752
| 26> C 	 35.2041 	 27.168 	 57.4616
| 27> C 	 35.5869 	 27.4212 	 56.1447
| 28> H 	 33.9286 	 25.735 	 58.5071
| 29> C 	 35.6111 	 27.8768 	 58.6727
| 30> H 	 34.7425 	 27.9784 	 59.2847
| 31> H 	 35.9986 	 28.9303 	 58.6145
| 32> C 	 36.655 	 27.2672 	 59.5916
| 33> H 	 37.6009 	 26.9918 	 59.1119
| 34> H 	 36.3185 	 26.3203 	 59.8339
| 35> C 	 36.8626 	 28.0247 	 60.9133
| 36> H 	 37.6189 	 27.5209 	 61.6427
| 37> H 	 35.9243 	 28.051 	 61.5572
| 38> H 	 37.3481 	 29.0062 	 60.749
| 39> H 	 39.2036 	 30.0295 	 53.8122
| 40> H 	 33.325 	 24.6717 	 56.1778
| 41> *
| 42>
| 43>                          ****END OF INPUT****

CARTESIAN COORDINATES (ANGSTROEM)
---------------------------------
  S     37.760700   28.038400   54.408600
  C     38.373800   29.619800   54.442300
  C     37.650300   30.473400   55.291900
  C     36.737700   29.710600   56.063100
  C     36.587500   28.372000   55.634700
  H     36.227300   30.110700   56.932500
  C     37.839600   32.009700   55.596900
  H     38.649600   32.374600   54.991900
  H     38.190100   32.028700   56.657500
  C     36.628500   32.851900   55.535500
  H     35.796000   32.391900   56.012500
  H     36.851000   33.769800   56.075500
  C     36.298900   33.412000   54.145200
  H     37.019300   34.262800   54.093500
  H     36.527300   32.714800   53.333000
  H     35.250700   33.706300   53.921900
  S     34.987900   26.170700   54.996100
  C     34.114500   25.410700   56.395200
  C     34.348600   26.043300   57.575200
  C     35.204100   27.168000   57.461600
  C     35.586900   27.421200   56.144700
  H     33.928600   25.735000   58.507100
  C     35.611100   27.876800   58.672700
  H     34.742500   27.978400   59.284700
  H     35.998600   28.930300   58.614500
  C     36.655000   27.267200   59.591600
  H     37.600900   26.991800   59.111900
  H     36.318500   26.320300   59.833900
  C     36.862600   28.024700   60.913300
  H     37.618900   27.520900   61.642700
  H     35.924300   28.051000   61.557200
  H     37.348100   29.006200   60.749000
  H     39.203600   30.029500   53.812200
  H     33.325000   24.671700   56.177800

 Total Charge           Charge          ....    0
 Multiplicity           Mult            ....    1
 Number of Electrons    NEL             ....  134
 Basis Dimension        Dim             ....  322

ORBITAL ENERGIES
----------------

  NO   OCC          E(Eh)            E(eV)
   0   2.0000     -88.970987     -2421.0236
   1   2.0000     -88.966784     -2420.9093
   2   2.0000     -10.334934      -281.2279
   3   2.0000     -10.329582      -281.0822
   4   2.0000     -10.324089      -280.9327
   5   2.0000     -10.314530      -280.6726
   6   2.0000     -10.302676      -280.3501
   7   2.0000     -10.302190      -280.3368
   8   2.0000     -10.296585      -280.1843
   9   2.0000     -10.295112      -280.1442
  10   2.0000     -10.294911      -280.1388
  11   2.0000     -10.291350      -280.0419
  12   2.0000     -10.289270      -279.9853
  13   2.0000     -10.280692      -279.7519
  14   2.0000     -10.280126      -279.7364
  15   2.0000     -10.279069      -279.7077
  16   2.0000      -8.086379      -220.0416
  17   2.0000      -8.080106      -219.8708
  18   2.0000      -6.044772      -164.4866
  19   2.0000      -6.040719      -164.3763
  20   2.0000      -6.038735      -164.3223
  21   2.0000      -6.037298      -164.2832
  22   2.0000      -6.035034      -164.2216
  23   2.0000      -6.030610      -164.1012
  24   2.0000      -1.005851       -27.3706
  25   2.0000      -0.983355       -26.7585
  26   2.0000      -0.917310       -24.9613
  27   2.0000      -0.913982       -24.8707
  28   2.0000      -0.867792       -23.6138
  29   2.0000      -0.853285       -23.2191
  30   2.0000      -0.846687       -23.0395
  31   2.0000      -0.808747       -22.0071
  32   2.0000      -0.782420       -21.2907
  33   2.0000      -0.771003       -20.9801
  34   2.0000      -0.708623       -19.2826
  35   2.0000      -0.697639       -18.9837
  36   2.0000      -0.690596       -18.7921
  37   2.0000      -0.665925       -18.1207
  38   2.0000      -0.633910       -17.2496
  39   2.0000      -0.626129       -17.0378
  40   2.0000      -0.606765       -16.5109
  41   2.0000      -0.569412       -15.4945
  42   2.0000      -0.563978       -15.3466
  43   2.0000      -0.550139       -14.9700
  44   2.0000      -0.547462       -14.8972
  45   2.0000      -0.521119       -14.1804
  46   2.0000      -0.518879       -14.1194
  47   2.0000      -0.514040       -13.9877
  48   2.0000      -0.499000       -13.5785
  49   2.0000      -0.490445       -13.3457
  50   2.0000      -0.488995       -13.3062
  51   2.0000      -0.481670       -13.1069
  52   2.0000      -0.465059       -12.6549
  53   2.0000      -0.462558       -12.5868
  54   2.0000      -0.461005       -12.5446
  55   2.0000      -0.450350       -12.2546
  56   2.0000      -0.442673       -12.0457
  57   2.0000      -0.440369       -11.9830
  58   2.0000      -0.429810       -11.6957
  59   2.0000      -0.428294       -11.6545
  60   2.0000      -0.424817       -11.5599
  61   2.0000      -0.410111       -11.1597
  62   2.0000      -0.407581       -11.0908
  63   2.0000      -0.355984        -9.6868
  64   2.0000      -0.335379        -9.1261
  65   2.0000      -0.329994        -8.9796
  66   2.0000      -0.280562        -7.6345
  67   0.0000       0.023834         0.6486
  68   0.0000       0.072220         1.9652
  69   0.0000       0.100377         2.7314
  70   0.0000       0.112184         3.0527
  71   0.0000       0.137852         3.7511

MULLIKEN ATOMIC CHARGES
-----------------------
   0 S :    0.137532
   1 C :   -0.142856
   2 C :   -0.095498
   3 C :   -0.010858
   4 C :   -0.133817
   5 H :    0.017369
   6 C :    0.069162
   7 H :    0.007983
   8 H :    0.041375
   9 C :   -0.042754
  10 H :    0.024554
  11 H :    0.026172
  12 C :   -0.076973
  13 H :    0.030766
  14 H :    0.033058
  15 H :    0.043802
  16 S :    0.073564
  17 C :   -0.101459
  18 C :    0.000378
  19 C :    0.002586
  20 C :   -0.133642
  21 H :    0.012897
  22 C :    0.029044
  23 H :    0.009713
  24 H :    0.020080
  25 C :   -0.014810
  26 H :    0.030946
  27 H :   -0.011542
  28 C :   -0.116305
  29 H :    0.044196
  30 H :    0.045614
  31 H :    0.044894
  32 H :    0.061774
  33 H :    0.073056
Sum of atomic charges:   -0.0000000

LOEWDIN ATOMIC CHARGES
----------------------
   0 S :    0.445221
   1 C :   -0.232812
   2 C :   -0.064749
   3 C :   -0.066351
   4 C :   -0.207232
   5 H :    0.025151
   6 C :   -0.025080
   7 H :    0.023958
   8 H :    0.040791
   9 C :   -0.045438
  10 H :    0.018974
  11 H :    0.028410
  12 C :   -0.070592
  13 H :    0.028865
  14 H :    0.022876
  15 H :    0.030664
  16 S :    0.348912
  17 C :   -0.160314
  18 C :   -0.059009
  19 C :   -0.058893
  20 C :   -0.166214
  21 H :    0.031171
  22 C :   -0.038689
  23 H :    0.029005
  24 H :    0.034072
  25 C :   -0.039671
  26 H :    0.029492
  27 H :    0.009424
  28 C :   -0.079860
  29 H :    0.037852
  30 H :    0.032071
  31 H :    0.025784
  32 H :    0.038633
  33 H :    0.033578

  Mayer bond orders larger than 0.100000
B(  0-S ,  1-C ) :   1.1629 B(  0-S ,  4-C ) :   1.1657 B(  1-C ,  2-C ) :   1.5782
B(  1-C ,  4-C ) :   0.1001 B(  1-C , 32-H ) :   0.9581 B(  2-C ,  3-C ) :   1.2950
B(  2-C ,  6-C ) :   1.0123 B(  3-C ,  4-C ) :   1.5205 B(  3-C ,  5-H ) :   0.9853
B(  4-C , 20-C ) :   1.0699 B(  6-C ,  7-H ) :   0.9426 B(  6-C ,  8-H ) :   0.9394
B(  6-C ,  9-C ) :   1.0799 B(  9-C , 10-H ) :   0.9540 B(  9-C , 11-H ) :   0.9604
B(  9-C , 12-C ) :   1.0531 B( 12-C , 13-H ) :   0.9830 B( 12-C , 14-H ) :   0.9813
B( 12-C , 15-H ) :   0.9760 B( 16-S , 17-C ) :   1.1239 B( 16-S , 20-C ) :   1.1188
B( 17-C , 18-C ) :   1.6279 B( 17-C , 33-H ) :   0.9623 B( 18-C , 19-C ) :   1.2240
B( 18-C , 21-H ) :   0.9909 B( 19-C , 20-C ) :   1.6026 B( 19-C , 22-C ) :   1.0525
B( 22-C , 23-H ) :   0.9228 B( 22-C , 24-H ) :   0.9377 B( 22-C , 25-C ) :   1.0630
B( 25-C , 26-H ) :   0.9497 B( 25-C , 27-H ) :   0.9432 B( 25-C , 28-C ) :   1.0810
B( 28-C , 29-H ) :   0.9726 B( 28-C , 30-H ) :   0.9720 B( 28-C , 31-H ) :   0.9745

Dispersion correction           -0.013680095
FINAL SINGLE POINT ENERGY     -1339.863206871561

DIPOLE MOMENT
-------------
                                X             Y             Z
Electronic contribution:     -2.16546     -20.89984     -17.69242
Nuclear contribution   :      2.15011      21.25468      18.31691
                        -----------------------------------------
Total Dipole Moment    :     -0.01535       0.35483       0.62449
                        -----------------------------------------
Magnitude (a.u.)       :      0.71842
Magnitude (Debye)      :      1.82609

Rotational constants in cm-1:     0.016914     0.008673     0.006882
Rotational constants in MHz :   507.063523   260.020873   206.321122

                             ****ORCA TERMINATED NORMALLY****
TOTAL RUN TIME: 0 days 0 hours 0 minutes 34 seconds 555 msec
