                         Program Version 4.2.1 -  RELEASE  -
|  1> ! wB97X-D3 SP def2-SVP
|  2> %pal
|  3> nprocs 16
|  4> end
|  5>
|  6> * xyz 0 1
|  7> S 	 36.9544 	 28.8262 	 92.09
|  8> C 	 35.8658 	 30.142 	 92.437
|  9> C 	 34.8721 	 29.7576 	 93.3245
| 10> C 	 34.9936 	 28.3837 	 93.6604
| 11> C 	 35.9082 	 27.681 	 92.9142
| 12> H 	 34.4961 	 27.7646 	 94.3957
| 13> C 	 33.7083 	 30.6897 	 93.7802
| 14> H 	 34.1141 	 31.6643 	 93.816
| 15> H 	 33.5191 	 30.4953 	 94.8353
| 16> C 	 32.3959 	 30.7252 	 93.0287
| 17> H 	 31.9873 	 29.7369 	 93.1301
| 18> H 	 31.7136 	 31.3515 	 93.5191
| 19> C 	 32.4014 	 31.1031 	 91.5655
| 20> H 	 32.8795 	 30.425 	 90.8717
| 21> H 	 31.3608 	 31.2711 	 91.2174
| 22> H 	 32.8829 	 32.0446 	 91.3936
| 23> S 	 36.7079 	 25.6645 	 94.5372
| 24> C 	 36.8529 	 23.9892 	 93.8738
| 25> C 	 36.575 	 23.99 	 92.5222
| 26> C 	 36.2157 	 25.2466 	 91.9838
| 27> C 	 36.1411 	 26.2411 	 92.9686
| 28> H 	 36.7673 	 23.0136 	 91.9829
| 29> C 	 35.8336 	 25.5017 	 90.5078
| 30> H 	 36.705 	 26.2369 	 90.2377
| 31> H 	 34.901 	 26.1162 	 90.4093
| 32> C 	 35.7721 	 24.2809 	 89.529
| 33> H 	 34.828 	 23.8594 	 89.7925
| 34> H 	 36.5919 	 23.5915 	 89.7668
| 35> C 	 35.8603 	 24.6849 	 88.0753
| 36> H 	 36.8893 	 24.6133 	 87.8356
| 37> H 	 35.4834 	 25.6468 	 87.6972
| 38> H 	 35.3373 	 23.893 	 87.5326
| 39> H 	 35.8969 	 31.0933 	 91.91
| 40> H 	 37.2081 	 23.056 	 94.3929
| 41> *
| 42>
| 43>                          ****END OF INPUT****

CARTESIAN COORDINATES (ANGSTROEM)
---------------------------------
  S     36.954400   28.826200   92.090000
  C     35.865800   30.142000   92.437000
  C     34.872100   29.757600   93.324500
  C     34.993600   28.383700   93.660400
  C     35.908200   27.681000   92.914200
  H     34.496100   27.764600   94.395700
  C     33.708300   30.689700   93.780200
  H     34.114100   31.664300   93.816000
  H     33.519100   30.495300   94.835300
  C     32.395900   30.725200   93.028700
  H     31.987300   29.736900   93.130100
  H     31.713600   31.351500   93.519100
  C     32.401400   31.103100   91.565500
  H     32.879500   30.425000   90.871700
  H     31.360800   31.271100   91.217400
  H     32.882900   32.044600   91.393600
  S     36.707900   25.664500   94.537200
  C     36.852900   23.989200   93.873800
  C     36.575000   23.990000   92.522200
  C     36.215700   25.246600   91.983800
  C     36.141100   26.241100   92.968600
  H     36.767300   23.013600   91.982900
  C     35.833600   25.501700   90.507800
  H     36.705000   26.236900   90.237700
  H     34.901000   26.116200   90.409300
  C     35.772100   24.280900   89.529000
  H     34.828000   23.859400   89.792500
  H     36.591900   23.591500   89.766800
  C     35.860300   24.684900   88.075300
  H     36.889300   24.613300   87.835600
  H     35.483400   25.646800   87.697200
  H     35.337300   23.893000   87.532600
  H     35.896900   31.093300   91.910000
  H     37.208100   23.056000   94.392900

 Total Charge           Charge          ....    0
 Multiplicity           Mult            ....    1
 Number of Electrons    NEL             ....  134
 Basis Dimension        Dim             ....  322

ORBITAL ENERGIES
----------------

  NO   OCC          E(Eh)            E(eV)
   0   2.0000     -88.966895     -2420.9123
   1   2.0000     -88.963671     -2420.8246
   2   2.0000     -10.326365      -280.9947
   3   2.0000     -10.325740      -280.9777
   4   2.0000     -10.324714      -280.9498
   5   2.0000     -10.313934      -280.6564
   6   2.0000     -10.309123      -280.5255
   7   2.0000     -10.304081      -280.3883
   8   2.0000     -10.302386      -280.3422
   9   2.0000     -10.298710      -280.2421
  10   2.0000     -10.291291      -280.0403
  11   2.0000     -10.288684      -279.9693
  12   2.0000     -10.288510      -279.9646
  13   2.0000     -10.278064      -279.6803
  14   2.0000     -10.275897      -279.6214
  15   2.0000     -10.273211      -279.5483
  16   2.0000      -8.080235      -219.8744
  17   2.0000      -8.078374      -219.8237
  18   2.0000      -6.038848      -164.3254
  19   2.0000      -6.036936      -164.2734
  20   2.0000      -6.034921      -164.2185
  21   2.0000      -6.032881      -164.1630
  22   2.0000      -6.030972      -164.1111
  23   2.0000      -6.029084      -164.0597
  24   2.0000      -1.004097       -27.3229
  25   2.0000      -0.979801       -26.6617
  26   2.0000      -0.910817       -24.7846
  27   2.0000      -0.903982       -24.5986
  28   2.0000      -0.869569       -23.6622
  29   2.0000      -0.850739       -23.1498
  30   2.0000      -0.844816       -22.9886
  31   2.0000      -0.814102       -22.1528
  32   2.0000      -0.785712       -21.3803
  33   2.0000      -0.769418       -20.9369
  34   2.0000      -0.707212       -19.2442
  35   2.0000      -0.700172       -19.0527
  36   2.0000      -0.692552       -18.8453
  37   2.0000      -0.655062       -17.8251
  38   2.0000      -0.635983       -17.3060
  39   2.0000      -0.611216       -16.6320
  40   2.0000      -0.591455       -16.0943
  41   2.0000      -0.569759       -15.5039
  42   2.0000      -0.566271       -15.4090
  43   2.0000      -0.548596       -14.9280
  44   2.0000      -0.542951       -14.7745
  45   2.0000      -0.524045       -14.2600
  46   2.0000      -0.517474       -14.0812
  47   2.0000      -0.508228       -13.8296
  48   2.0000      -0.502859       -13.6835
  49   2.0000      -0.491199       -13.3662
  50   2.0000      -0.488162       -13.2836
  51   2.0000      -0.485259       -13.2046
  52   2.0000      -0.474702       -12.9173
  53   2.0000      -0.462900       -12.5961
  54   2.0000      -0.460432       -12.5290
  55   2.0000      -0.447373       -12.1736
  56   2.0000      -0.442800       -12.0492
  57   2.0000      -0.437630       -11.9085
  58   2.0000      -0.429055       -11.6752
  59   2.0000      -0.421596       -11.4722
  60   2.0000      -0.417294       -11.3551
  61   2.0000      -0.415605       -11.3092
  62   2.0000      -0.413035       -11.2392
  63   2.0000      -0.339071        -9.2266
  64   2.0000      -0.331267        -9.0142
  65   2.0000      -0.324533        -8.8310
  66   2.0000      -0.296091        -8.0570
  67   0.0000       0.027477         0.7477
  68   0.0000       0.063317         1.7229
  69   0.0000       0.103649         2.8204
  70   0.0000       0.121661         3.3106
  71   0.0000       0.132219         3.5979

MULLIKEN ATOMIC CHARGES
-----------------------
   0 S :    0.112512
   1 C :   -0.133703
   2 C :   -0.072966
   3 C :    0.016201
   4 C :   -0.156171
   5 H :    0.010756
   6 C :    0.084106
   7 H :    0.002764
   8 H :    0.021818
   9 C :   -0.008387
  10 H :    0.017630
  11 H :    0.015856
  12 C :   -0.054008
  13 H :    0.038306
  14 H :    0.031529
  15 H :    0.010974
  16 S :    0.105574
  17 C :   -0.110409
  18 C :   -0.085189
  19 C :    0.004331
  20 C :   -0.185180
  21 H :    0.044187
  22 C :   -0.018178
  23 H :    0.044940
  24 H :    0.056912
  25 C :   -0.063948
  26 H :    0.031952
  27 H :    0.037705
  28 C :   -0.027830
  29 H :    0.026191
  30 H :    0.042968
  31 H :    0.030477
  32 H :    0.055153
  33 H :    0.073127
Sum of atomic charges:   -0.0000000

LOEWDIN ATOMIC CHARGES
----------------------
   0 S :    0.402397
   1 C :   -0.196600
   2 C :   -0.062863
   3 C :   -0.063263
   4 C :   -0.199034
   5 H :    0.030164
   6 C :   -0.027112
   7 H :    0.021183
   8 H :    0.034220
   9 C :   -0.036534
  10 H :    0.023967
  11 H :    0.022093
  12 C :   -0.066369
  13 H :    0.024854
  14 H :    0.032287
  15 H :    0.017875
  16 S :    0.386644
  17 C :   -0.182048
  18 C :   -0.087451
  19 C :   -0.056308
  20 C :   -0.199831
  21 H :    0.043787
  22 C :   -0.042685
  23 H :    0.039150
  24 H :    0.038450
  25 C :   -0.039363
  26 H :    0.021302
  27 H :    0.026878
  28 C :   -0.063229
  29 H :    0.024239
  30 H :    0.029498
  31 H :    0.030506
  32 H :    0.029911
  33 H :    0.043282

  Mayer bond orders larger than 0.100000
B(  0-S ,  1-C ) :   1.1477 B(  0-S ,  4-C ) :   1.1349 B(  1-C ,  2-C ) :   1.6040
B(  1-C , 32-H ) :   0.9682 B(  2-C ,  3-C ) :   1.2237 B(  2-C ,  6-C ) :   1.0160
B(  3-C ,  4-C ) :   1.5849 B(  3-C ,  5-H ) :   1.0005 B(  4-C , 20-C ) :   1.0420
B(  6-C ,  7-H ) :   0.9361 B(  6-C ,  8-H ) :   0.9370 B(  6-C ,  9-C ) :   1.0834
B(  9-C , 10-H ) :   0.9499 B(  9-C , 11-H ) :   0.9482 B(  9-C , 12-C ) :   1.0861
B( 12-C , 13-H ) :   0.9748 B( 12-C , 14-H ) :   0.9717 B( 12-C , 15-H ) :   0.9729
B( 16-S , 17-C ) :   1.1404 B( 16-S , 20-C ) :   1.1430 B( 17-C , 18-C ) :   1.6301
B( 17-C , 20-C ) :   0.1089 B( 17-C , 33-H ) :   0.9560 B( 18-C , 19-C ) :   1.2462
B( 18-C , 21-H ) :   0.9723 B( 19-C , 20-C ) :   1.5878 B( 19-C , 22-C ) :   1.0058
B( 22-C , 23-H ) :   0.9340 B( 22-C , 24-H ) :   0.9445 B( 22-C , 25-C ) :   1.0617
B( 25-C , 26-H ) :   0.9596 B( 25-C , 27-H ) :   0.9533 B( 25-C , 28-C ) :   1.0723
B( 28-C , 29-H ) :   0.9778 B( 28-C , 30-H ) :   0.9786 B( 28-C , 31-H ) :   0.9720

Dispersion correction           -0.013861027
FINAL SINGLE POINT ENERGY     -1339.866004858876

DIPOLE MOMENT
-------------
                                X             Y             Z
Electronic contribution:     15.99246      -4.04952      16.96011
Nuclear contribution   :    -16.34219       3.95745     -17.29322
                        -----------------------------------------
Total Dipole Moment    :     -0.34973      -0.09207      -0.33311
                        -----------------------------------------
Magnitude (a.u.)       :      0.49168
Magnitude (Debye)      :      1.24976

Rotational constants in cm-1:     0.017886     0.008064     0.006534
Rotational constants in MHz :   536.209418   241.745142   195.890480

                             ****ORCA TERMINATED NORMALLY****
TOTAL RUN TIME: 0 days 0 hours 0 minutes 28 seconds 686 msec
