                         Program Version 4.2.1 -  RELEASE  -
|  1> ! wB97X-D3 SP def2-SVP
|  2> %pal
|  3> nprocs 16
|  4> end
|  5>
|  6> * xyz 0 1
|  7> S 	 -0.311577 	 61.3584 	 49.5969
|  8> C 	 -1.81458 	 62.1075 	 50.1725
|  9> C 	 -2.52546 	 62.7737 	 49.1656
| 10> C 	 -1.83249 	 62.6668 	 47.8692
| 11> C 	 -0.682298 	 61.9014 	 47.9096
| 12> H 	 -2.2627 	 63.1236 	 46.9292
| 13> C 	 -3.9362 	 63.3736 	 49.3404
| 14> H 	 -4.21586 	 63.8451 	 48.3748
| 15> H 	 -3.7541 	 64.1884 	 50.0685
| 16> C 	 -5.03498 	 62.3689 	 49.7066
| 17> H 	 -5.06636 	 61.6994 	 48.7811
| 18> H 	 -4.75466 	 61.8649 	 50.6052
| 19> C 	 -6.41722 	 62.9882 	 50.0117
| 20> H 	 -6.77679 	 63.6012 	 49.1089
| 21> H 	 -7.08168 	 62.1783 	 50.2146
| 22> H 	 -6.34251 	 63.7224 	 50.7903
| 23> S 	 1.85002 	 61.9997 	 46.7856
| 24> C 	 2.04062 	 61.2574 	 45.2273
| 25> C 	 0.922832 	 60.5727 	 44.8199
| 26> C 	 -0.198186 	 60.7879 	 45.6999
| 27> C 	 0.120656 	 61.6225 	 46.7474
| 28> H 	 0.913876 	 59.9481 	 43.9014
| 29> C 	 -1.54721 	 60.174 	 45.4887
| 30> H 	 -1.63325 	 59.7622 	 44.5341
| 31> H 	 -2.16785 	 60.9943 	 45.6193
| 32> C 	 -2.00143 	 59.224 	 46.5339
| 33> H 	 -2.19327 	 59.8947 	 47.3582
| 34> H 	 -1.21945 	 58.5452 	 46.6742
| 35> C 	 -3.2032 	 58.4258 	 46.2008
| 36> H 	 -3.37185 	 58.1469 	 45.1573
| 37> H 	 -4.02601 	 59.0359 	 46.5378
| 38> H 	 -3.37077 	 57.4845 	 46.8009
| 39> H 	 -2.18778 	 61.9482 	 51.1139
| 40> H 	 2.92916 	 61.1404 	 44.7159
| 41> *
| 42>
| 43>                          ****END OF INPUT****

CARTESIAN COORDINATES (ANGSTROEM)
---------------------------------
  S     -0.311577   61.358400   49.596900
  C     -1.814580   62.107500   50.172500
  C     -2.525460   62.773700   49.165600
  C     -1.832490   62.666800   47.869200
  C     -0.682298   61.901400   47.909600
  H     -2.262700   63.123600   46.929200
  C     -3.936200   63.373600   49.340400
  H     -4.215860   63.845100   48.374800
  H     -3.754100   64.188400   50.068500
  C     -5.034980   62.368900   49.706600
  H     -5.066360   61.699400   48.781100
  H     -4.754660   61.864900   50.605200
  C     -6.417220   62.988200   50.011700
  H     -6.776790   63.601200   49.108900
  H     -7.081680   62.178300   50.214600
  H     -6.342510   63.722400   50.790300
  S      1.850020   61.999700   46.785600
  C      2.040620   61.257400   45.227300
  C      0.922832   60.572700   44.819900
  C     -0.198186   60.787900   45.699900
  C      0.120656   61.622500   46.747400
  H      0.913876   59.948100   43.901400
  C     -1.547210   60.174000   45.488700
  H     -1.633250   59.762200   44.534100
  H     -2.167850   60.994300   45.619300
  C     -2.001430   59.224000   46.533900
  H     -2.193270   59.894700   47.358200
  H     -1.219450   58.545200   46.674200
  C     -3.203200   58.425800   46.200800
  H     -3.371850   58.146900   45.157300
  H     -4.026010   59.035900   46.537800
  H     -3.370770   57.484500   46.800900
  H     -2.187780   61.948200   51.113900
  H      2.929160   61.140400   44.715900

 Total Charge           Charge          ....    0
 Multiplicity           Mult            ....    1
 Number of Electrons    NEL             ....  134
 Basis Dimension        Dim             ....  322

ORBITAL ENERGIES
----------------

  NO   OCC          E(Eh)            E(eV)
   0   2.0000     -88.969913     -2420.9944
   1   2.0000     -88.965556     -2420.8758
   2   2.0000     -10.333703      -281.1944
   3   2.0000     -10.320853      -280.8447
   4   2.0000     -10.313678      -280.6494
   5   2.0000     -10.310809      -280.5714
   6   2.0000     -10.308838      -280.5177
   7   2.0000     -10.304196      -280.3914
   8   2.0000     -10.301166      -280.3090
   9   2.0000     -10.299461      -280.2626
  10   2.0000     -10.295249      -280.1480
  11   2.0000     -10.294529      -280.1284
  12   2.0000     -10.284688      -279.8606
  13   2.0000     -10.272189      -279.5205
  14   2.0000     -10.271795      -279.5098
  15   2.0000     -10.264742      -279.3178
  16   2.0000      -8.082941      -219.9480
  17   2.0000      -8.080265      -219.8752
  18   2.0000      -6.041660      -164.4019
  19   2.0000      -6.038776      -164.3235
  20   2.0000      -6.037773      -164.2961
  21   2.0000      -6.034943      -164.2192
  22   2.0000      -6.033492      -164.1797
  23   2.0000      -6.030864      -164.1081
  24   2.0000      -1.003733       -27.3130
  25   2.0000      -0.975235       -26.5375
  26   2.0000      -0.924134       -25.1470
  27   2.0000      -0.909310       -24.7436
  28   2.0000      -0.870591       -23.6900
  29   2.0000      -0.853830       -23.2339
  30   2.0000      -0.844373       -22.9766
  31   2.0000      -0.814603       -22.1665
  32   2.0000      -0.784899       -21.3582
  33   2.0000      -0.771448       -20.9922
  34   2.0000      -0.710261       -19.3272
  35   2.0000      -0.699063       -19.0225
  36   2.0000      -0.689445       -18.7607
  37   2.0000      -0.662961       -18.0401
  38   2.0000      -0.640048       -17.4166
  39   2.0000      -0.612635       -16.6706
  40   2.0000      -0.597307       -16.2535
  41   2.0000      -0.586098       -15.9485
  42   2.0000      -0.575392       -15.6572
  43   2.0000      -0.557737       -15.1768
  44   2.0000      -0.532692       -14.4953
  45   2.0000      -0.524604       -14.2752
  46   2.0000      -0.518330       -14.1045
  47   2.0000      -0.514233       -13.9930
  48   2.0000      -0.504068       -13.7164
  49   2.0000      -0.497257       -13.5310
  50   2.0000      -0.489523       -13.3206
  51   2.0000      -0.483574       -13.1587
  52   2.0000      -0.471566       -12.8320
  53   2.0000      -0.462809       -12.5937
  54   2.0000      -0.456740       -12.4285
  55   2.0000      -0.454259       -12.3610
  56   2.0000      -0.445342       -12.1184
  57   2.0000      -0.438485       -11.9318
  58   2.0000      -0.427909       -11.6440
  59   2.0000      -0.424978       -11.5642
  60   2.0000      -0.421484       -11.4692
  61   2.0000      -0.417113       -11.3502
  62   2.0000      -0.405560       -11.0359
  63   2.0000      -0.343843        -9.3564
  64   2.0000      -0.330518        -8.9938
  65   2.0000      -0.328342        -8.9346
  66   2.0000      -0.294307        -8.0085
  67   0.0000       0.031633         0.8608
  68   0.0000       0.056752         1.5443
  69   0.0000       0.107184         2.9166
  70   0.0000       0.120279         3.2729
  71   0.0000       0.125013         3.4018

MULLIKEN ATOMIC CHARGES
-----------------------
   0 S :    0.114291
   1 C :   -0.100811
   2 C :   -0.089363
   3 C :   -0.006890
   4 C :   -0.162524
   5 H :    0.047690
   6 C :    0.044096
   7 H :    0.020222
   8 H :    0.042244
   9 C :   -0.089702
  10 H :    0.047091
  11 H :    0.027061
  12 C :   -0.037198
  13 H :    0.032301
  14 H :    0.044605
  15 H :    0.028824
  16 S :    0.109552
  17 C :   -0.049583
  18 C :   -0.050954
  19 C :   -0.071461
  20 C :   -0.174472
  21 H :    0.030683
  22 C :    0.189260
  23 H :   -0.011730
  24 H :   -0.015054
  25 C :   -0.060574
  26 H :    0.047994
  27 H :    0.013272
  28 C :   -0.040796
  29 H :    0.027878
  30 H :    0.012682
  31 H :    0.036493
  32 H :    0.018279
  33 H :    0.026595
Sum of atomic charges:    0.0000000

LOEWDIN ATOMIC CHARGES
----------------------
   0 S :    0.372466
   1 C :   -0.176678
   2 C :   -0.057757
   3 C :   -0.069124
   4 C :   -0.179106
   5 H :    0.042273
   6 C :   -0.038821
   7 H :    0.028956
   8 H :    0.034150
   9 C :   -0.041612
  10 H :    0.035615
  11 H :    0.018323
  12 C :   -0.062928
  13 H :    0.031482
  14 H :    0.025973
  15 H :    0.021850
  16 S :    0.402682
  17 C :   -0.173176
  18 C :   -0.073552
  19 C :   -0.038459
  20 C :   -0.203247
  21 H :    0.038043
  22 C :   -0.019557
  23 H :    0.017288
  24 H :    0.023833
  25 C :   -0.037270
  26 H :    0.030246
  27 H :    0.015291
  28 C :   -0.069771
  29 H :    0.022527
  30 H :    0.023551
  31 H :    0.033976
  32 H :    0.007728
  33 H :    0.014805

  Mayer bond orders larger than 0.100000
B(  0-S ,  1-C ) :   1.1243 B(  0-S ,  4-C ) :   1.1135 B(  1-C ,  2-C ) :   1.6325
B(  1-C , 32-H ) :   0.9779 B(  2-C ,  3-C ) :   1.2191 B(  2-C ,  6-C ) :   1.0116
B(  3-C ,  4-C ) :   1.6098 B(  3-C ,  5-H ) :   0.9745 B(  4-C , 20-C ) :   1.0603
B(  6-C ,  7-H ) :   0.9457 B(  6-C ,  8-H ) :   0.9366 B(  6-C ,  9-C ) :   1.0633
B(  9-C , 10-H ) :   0.9545 B(  9-C , 11-H ) :   0.9569 B(  9-C , 12-C ) :   1.0815
B( 12-C , 13-H ) :   0.9740 B( 12-C , 14-H ) :   0.9747 B( 12-C , 15-H ) :   0.9746
B( 16-S , 17-C ) :   1.1568 B( 16-S , 20-C ) :   1.1179 B( 17-C , 18-C ) :   1.6196
B( 17-C , 33-H ) :   0.9719 B( 18-C , 19-C ) :   1.2414 B( 18-C , 21-H ) :   0.9845
B( 19-C , 20-C ) :   1.6036 B( 19-C , 22-C ) :   1.0416 B( 22-C , 23-H ) :   0.9249
B( 22-C , 24-H ) :   0.9092 B( 22-C , 25-C ) :   1.0617 B( 25-C , 26-H ) :   0.9546
B( 25-C , 27-H ) :   0.9581 B( 25-C , 28-C ) :   1.0925 B( 28-C , 29-H ) :   0.9721
B( 28-C , 30-H ) :   0.9727 B( 28-C , 31-H ) :   0.9723

Dispersion correction           -0.014913414
FINAL SINGLE POINT ENERGY     -1339.860098747544

DIPOLE MOMENT
-------------
                                X             Y             Z
Electronic contribution:     30.87810       5.12330       0.76650
Nuclear contribution   :    -31.53481      -5.28694      -0.94330
                        -----------------------------------------
Total Dipole Moment    :     -0.65671      -0.16364      -0.17680
                        -----------------------------------------
Magnitude (a.u.)       :      0.69951
Magnitude (Debye)      :      1.77800

Rotational constants in cm-1:     0.021097     0.008375     0.006863
Rotational constants in MHz :   632.465610   251.062631   205.747046

                             ****ORCA TERMINATED NORMALLY****
TOTAL RUN TIME: 0 days 0 hours 0 minutes 33 seconds 285 msec
