                         Program Version 4.2.1 -  RELEASE  -
|  1> ! wB97X-D3 SP def2-SVP
|  2> %pal
|  3> nprocs 16
|  4> end
|  5>
|  6> * xyz 0 1
|  7> S 	 15.8549 	 4.70498 	 86.1127
|  8> C 	 16.626 	 6.17147 	 86.7027
|  9> C 	 15.7111 	 7.02229 	 87.2672
| 10> C 	 14.4167 	 6.62422 	 86.9739
| 11> C 	 14.2357 	 5.41467 	 86.3431
| 12> H 	 13.6215 	 7.17462 	 87.2868
| 13> C 	 16.0451 	 8.02963 	 88.3173
| 14> H 	 17.1286 	 8.16125 	 88.3345
| 15> H 	 15.7315 	 7.6729 	 89.2775
| 16> C 	 15.5652 	 9.46895 	 88.1922
| 17> H 	 14.4966 	 9.47613 	 87.9424
| 18> H 	 15.5315 	 9.98947 	 89.1724
| 19> C 	 16.4588 	 10.3941 	 87.2562
| 20> H 	 16.2846 	 10.292 	 86.221
| 21> H 	 16.3125 	 11.3909 	 87.5983
| 22> H 	 17.4973 	 10.3026 	 87.3453
| 23> S 	 12.5599 	 3.13589 	 86.7956
| 24> C 	 10.8992 	 3.37982 	 86.4107
| 25> C 	 10.5805 	 4.64119 	 85.9305
| 26> C 	 11.7752 	 5.39628 	 85.7435
| 27> C 	 12.9436 	 4.77636 	 86.1575
| 28> H 	 9.56365 	 4.89616 	 85.6054
| 29> C 	 11.6609 	 6.71143 	 84.9764
| 30> H 	 11.5034 	 6.41376 	 83.9677
| 31> H 	 12.5715 	 7.26617 	 85.0553
| 32> C 	 10.5085 	 7.66019 	 85.4115
| 33> H 	 9.47865 	 7.34274 	 85.1048
| 34> H 	 10.6434 	 8.64533 	 84.9892
| 35> C 	 10.5551 	 7.86278 	 86.9392
| 36> H 	 11.6146 	 7.91661 	 87.3567
| 37> H 	 10.1626 	 6.9808 	 87.4658
| 38> H 	 9.90726 	 8.72783 	 87.284
| 39> H 	 17.5822 	 6.1852 	 87.1364
| 40> H 	 10.1106 	 2.71629 	 86.7146
| 41> *
| 42>
| 43>                          ****END OF INPUT****

CARTESIAN COORDINATES (ANGSTROEM)
---------------------------------
  S     15.854900    4.704980   86.112700
  C     16.626000    6.171470   86.702700
  C     15.711100    7.022290   87.267200
  C     14.416700    6.624220   86.973900
  C     14.235700    5.414670   86.343100
  H     13.621500    7.174620   87.286800
  C     16.045100    8.029630   88.317300
  H     17.128600    8.161250   88.334500
  H     15.731500    7.672900   89.277500
  C     15.565200    9.468950   88.192200
  H     14.496600    9.476130   87.942400
  H     15.531500    9.989470   89.172400
  C     16.458800   10.394100   87.256200
  H     16.284600   10.292000   86.221000
  H     16.312500   11.390900   87.598300
  H     17.497300   10.302600   87.345300
  S     12.559900    3.135890   86.795600
  C     10.899200    3.379820   86.410700
  C     10.580500    4.641190   85.930500
  C     11.775200    5.396280   85.743500
  C     12.943600    4.776360   86.157500
  H      9.563650    4.896160   85.605400
  C     11.660900    6.711430   84.976400
  H     11.503400    6.413760   83.967700
  H     12.571500    7.266170   85.055300
  C     10.508500    7.660190   85.411500
  H      9.478650    7.342740   85.104800
  H     10.643400    8.645330   84.989200
  C     10.555100    7.862780   86.939200
  H     11.614600    7.916610   87.356700
  H     10.162600    6.980800   87.465800
  H      9.907260    8.727830   87.284000
  H     17.582200    6.185200   87.136400
  H     10.110600    2.716290   86.714600

 Total Charge           Charge          ....    0
 Multiplicity           Mult            ....    1
 Number of Electrons    NEL             ....  134
 Basis Dimension        Dim             ....  322

ORBITAL ENERGIES
----------------

  NO   OCC          E(Eh)            E(eV)
   0   2.0000     -88.970608     -2421.0133
   1   2.0000     -88.966270     -2420.8953
   2   2.0000     -10.333114      -281.1783
   3   2.0000     -10.330661      -281.1116
   4   2.0000     -10.319297      -280.8023
   5   2.0000     -10.305633      -280.4305
   6   2.0000     -10.305095      -280.4159
   7   2.0000     -10.296534      -280.1829
   8   2.0000     -10.293753      -280.1073
   9   2.0000     -10.293680      -280.1053
  10   2.0000     -10.293159      -280.0911
  11   2.0000     -10.289858      -280.0013
  12   2.0000     -10.288179      -279.9556
  13   2.0000     -10.286311      -279.9048
  14   2.0000     -10.281155      -279.7645
  15   2.0000     -10.270241      -279.4675
  16   2.0000      -8.085027      -220.0048
  17   2.0000      -8.080231      -219.8743
  18   2.0000      -6.043546      -164.4533
  19   2.0000      -6.039671      -164.3478
  20   2.0000      -6.038914      -164.3272
  21   2.0000      -6.035706      -164.2399
  22   2.0000      -6.034909      -164.2182
  23   2.0000      -6.030793      -164.1062
  24   2.0000      -1.007092       -27.4044
  25   2.0000      -0.987428       -26.8693
  26   2.0000      -0.911680       -24.8081
  27   2.0000      -0.909609       -24.7517
  28   2.0000      -0.871939       -23.7267
  29   2.0000      -0.850030       -23.1305
  30   2.0000      -0.844767       -22.9873
  31   2.0000      -0.816370       -22.2146
  32   2.0000      -0.788610       -21.4592
  33   2.0000      -0.776129       -21.1196
  34   2.0000      -0.716303       -19.4916
  35   2.0000      -0.700404       -19.0590
  36   2.0000      -0.696159       -18.9434
  37   2.0000      -0.659274       -17.9397
  38   2.0000      -0.641305       -17.4508
  39   2.0000      -0.629158       -17.1203
  40   2.0000      -0.595812       -16.2129
  41   2.0000      -0.570294       -15.5185
  42   2.0000      -0.560120       -15.2417
  43   2.0000      -0.557468       -15.1695
  44   2.0000      -0.540698       -14.7131
  45   2.0000      -0.538595       -14.6559
  46   2.0000      -0.516241       -14.0476
  47   2.0000      -0.509336       -13.8597
  48   2.0000      -0.499255       -13.5854
  49   2.0000      -0.495561       -13.4849
  50   2.0000      -0.488903       -13.3037
  51   2.0000      -0.482701       -13.1350
  52   2.0000      -0.474112       -12.9012
  53   2.0000      -0.470790       -12.8109
  54   2.0000      -0.455884       -12.4052
  55   2.0000      -0.449460       -12.2304
  56   2.0000      -0.446750       -12.1567
  57   2.0000      -0.432821       -11.7776
  58   2.0000      -0.432293       -11.7633
  59   2.0000      -0.430268       -11.7082
  60   2.0000      -0.424946       -11.5634
  61   2.0000      -0.415188       -11.2978
  62   2.0000      -0.414021       -11.2661
  63   2.0000      -0.351598        -9.5675
  64   2.0000      -0.334745        -9.1089
  65   2.0000      -0.330450        -8.9920
  66   2.0000      -0.290114        -7.8944
  67   0.0000       0.021979         0.5981
  68   0.0000       0.066649         1.8136
  69   0.0000       0.109889         2.9902
  70   0.0000       0.114895         3.1265
  71   0.0000       0.128359         3.4928

MULLIKEN ATOMIC CHARGES
-----------------------
   0 S :    0.091436
   1 C :   -0.075588
   2 C :   -0.102435
   3 C :    0.096901
   4 C :   -0.141468
   5 H :   -0.092897
   6 C :    0.082303
   7 H :    0.010399
   8 H :    0.038963
   9 C :   -0.104989
  10 H :    0.024882
  11 H :    0.028213
  12 C :   -0.013376
  13 H :    0.035928
  14 H :    0.020612
  15 H :    0.010360
  16 S :    0.112255
  17 C :   -0.079688
  18 C :   -0.038862
  19 C :   -0.086292
  20 C :   -0.119578
  21 H :    0.032364
  22 C :    0.101787
  23 H :    0.039644
  24 H :    0.022546
  25 C :   -0.079480
  26 H :    0.033578
  27 H :    0.034949
  28 C :   -0.097339
  29 H :    0.041077
  30 H :    0.034295
  31 H :    0.046008
  32 H :    0.037579
  33 H :    0.055915
Sum of atomic charges:    0.0000000

LOEWDIN ATOMIC CHARGES
----------------------
   0 S :    0.387535
   1 C :   -0.192959
   2 C :   -0.062080
   3 C :   -0.050864
   4 C :   -0.175346
   5 H :    0.005493
   6 C :   -0.029888
   7 H :    0.030366
   8 H :    0.034714
   9 C :   -0.040873
  10 H :    0.021323
  11 H :    0.028890
  12 C :   -0.059321
  13 H :    0.022563
  14 H :    0.025384
  15 H :    0.018818
  16 S :    0.399041
  17 C :   -0.181282
  18 C :   -0.075204
  19 C :   -0.048136
  20 C :   -0.192152
  21 H :    0.037915
  22 C :   -0.022239
  23 H :    0.033452
  24 H :    0.026731
  25 C :   -0.042860
  26 H :    0.024264
  27 H :    0.025704
  28 C :   -0.080315
  29 H :    0.028618
  30 H :    0.024911
  31 H :    0.031279
  32 H :    0.018970
  33 H :    0.027548

  Mayer bond orders larger than 0.100000
B(  0-S ,  1-C ) :   1.1370 B(  0-S ,  4-C ) :   1.1361 B(  1-C ,  2-C ) :   1.6174
B(  1-C , 32-H ) :   0.9531 B(  2-C ,  3-C ) :   1.2849 B(  2-C ,  6-C ) :   1.0306
B(  3-C ,  4-C ) :   1.5411 B(  3-C ,  5-H ) :   1.0077 B(  4-C , 20-C ) :   1.0694
B(  6-C ,  7-H ) :   0.9390 B(  6-C ,  8-H ) :   0.9368 B(  6-C ,  9-C ) :   1.0721
B(  9-C , 10-H ) :   0.9575 B(  9-C , 11-H ) :   0.9580 B(  9-C , 12-C ) :   1.0651
B( 12-C , 13-H ) :   0.9806 B( 12-C , 14-H ) :   0.9769 B( 12-C , 15-H ) :   0.9731
B( 16-S , 17-C ) :   1.1729 B( 16-S , 20-C ) :   1.1061 B( 17-C , 18-C ) :   1.6127
B( 17-C , 33-H ) :   0.9601 B( 18-C , 19-C ) :   1.2391 B( 18-C , 21-H ) :   0.9865
B( 19-C , 20-C ) :   1.6092 B( 19-C , 22-C ) :   1.0300 B( 22-C , 23-H ) :   0.9371
B( 22-C , 24-H ) :   0.9346 B( 22-C , 25-C ) :   1.0722 B( 25-C , 26-H ) :   0.9495
B( 25-C , 27-H ) :   0.9603 B( 25-C , 28-C ) :   1.0711 B( 28-C , 29-H ) :   0.9743
B( 28-C , 30-H ) :   0.9656 B( 28-C , 31-H ) :   0.9719

Dispersion correction           -0.015050705
FINAL SINGLE POINT ENERGY     -1339.859743664013

DIPOLE MOMENT
-------------
                                X             Y             Z
Electronic contribution:      4.66270     -29.98644      -4.50490
Nuclear contribution   :     -5.10312      30.57387       4.86056
                        -----------------------------------------
Total Dipole Moment    :     -0.44042       0.58743       0.35567
                        -----------------------------------------
Magnitude (a.u.)       :      0.81581
Magnitude (Debye)      :      2.07361

Rotational constants in cm-1:     0.018396     0.009506     0.006912
Rotational constants in MHz :   551.493762   284.974837   207.203879

                             ****ORCA TERMINATED NORMALLY****
TOTAL RUN TIME: 0 days 0 hours 0 minutes 36 seconds 396 msec
