                         Program Version 4.2.1 -  RELEASE  -
|  1> ! wB97X-D3 SP def2-SVP
|  2> %pal
|  3> nprocs 16
|  4> end
|  5>
|  6> * xyz 0 1
|  7> S 	 -32.5803 	 40.4207 	 96.9455
|  8> C 	 -32.9837 	 38.9665 	 96.0263
|  9> C 	 -34.2194 	 38.3715 	 96.3781
| 10> C 	 -34.8882 	 39.2316 	 97.291
| 11> C 	 -34.1514 	 40.3382 	 97.7379
| 12> H 	 -35.8976 	 39.1307 	 97.5263
| 13> C 	 -34.9347 	 37.2237 	 95.6172
| 14> H 	 -34.1927 	 36.8392 	 94.9014
| 15> H 	 -35.6144 	 37.4988 	 94.7951
| 16> C 	 -35.4127 	 36.1743 	 96.5821
| 17> H 	 -34.5783 	 35.692 	 97.0523
| 18> H 	 -35.9253 	 36.6663 	 97.4558
| 19> C 	 -36.2168 	 35.0697 	 95.9394
| 20> H 	 -36.5982 	 34.4016 	 96.6836
| 21> H 	 -37.158 	 35.3966 	 95.4843
| 22> H 	 -35.6156 	 34.5531 	 95.1834
| 23> S 	 -34.6055 	 43.011 	 98.324
| 24> C 	 -35.1781 	 43.5023 	 99.8721
| 25> C 	 -35.2369 	 42.3895 	 100.697
| 26> C 	 -34.9499 	 41.1444 	 100.05
| 27> C 	 -34.4849 	 41.2951 	 98.7366
| 28> H 	 -35.4778 	 42.415 	 101.707
| 29> C 	 -34.9062 	 39.7856 	 100.718
| 30> H 	 -35.1754 	 39.0158 	 100.029
| 31> H 	 -35.6377 	 39.779 	 101.529
| 32> C 	 -33.4991 	 39.5563 	 101.217
| 33> H 	 -33.389 	 40.0676 	 102.21
| 34> H 	 -32.8288 	 40.0852 	 100.5
| 35> C 	 -33.1182 	 38.0819 	 101.483
| 36> H 	 -33.1606 	 37.3994 	 100.602
| 37> H 	 -33.676 	 37.6186 	 102.313
| 38> H 	 -32.0844 	 38.0325 	 101.806
| 39> H 	 -32.4504 	 38.7011 	 95.1748
| 40> H 	 -35.3575 	 44.4873 	 100.088
| 41> *
| 42>
| 43>                          ****END OF INPUT****

CARTESIAN COORDINATES (ANGSTROEM)
---------------------------------
  S    -32.580300   40.420700   96.945500
  C    -32.983700   38.966500   96.026300
  C    -34.219400   38.371500   96.378100
  C    -34.888200   39.231600   97.291000
  C    -34.151400   40.338200   97.737900
  H    -35.897600   39.130700   97.526300
  C    -34.934700   37.223700   95.617200
  H    -34.192700   36.839200   94.901400
  H    -35.614400   37.498800   94.795100
  C    -35.412700   36.174300   96.582100
  H    -34.578300   35.692000   97.052300
  H    -35.925300   36.666300   97.455800
  C    -36.216800   35.069700   95.939400
  H    -36.598200   34.401600   96.683600
  H    -37.158000   35.396600   95.484300
  H    -35.615600   34.553100   95.183400
  S    -34.605500   43.011000   98.324000
  C    -35.178100   43.502300   99.872100
  C    -35.236900   42.389500  100.697000
  C    -34.949900   41.144400  100.050000
  C    -34.484900   41.295100   98.736600
  H    -35.477800   42.415000  101.707000
  C    -34.906200   39.785600  100.718000
  H    -35.175400   39.015800  100.029000
  H    -35.637700   39.779000  101.529000
  C    -33.499100   39.556300  101.217000
  H    -33.389000   40.067600  102.210000
  H    -32.828800   40.085200  100.500000
  C    -33.118200   38.081900  101.483000
  H    -33.160600   37.399400  100.602000
  H    -33.676000   37.618600  102.313000
  H    -32.084400   38.032500  101.806000
  H    -32.450400   38.701100   95.174800
  H    -35.357500   44.487300  100.088000

 Total Charge           Charge          ....    0
 Multiplicity           Mult            ....    1
 Number of Electrons    NEL             ....  134
 Basis Dimension        Dim             ....  322

ORBITAL ENERGIES
----------------

  NO   OCC          E(Eh)            E(eV)
   0   2.0000     -88.969844     -2420.9925
   1   2.0000     -88.961008     -2420.7521
   2   2.0000     -10.329195      -281.0717
   3   2.0000     -10.321672      -280.8670
   4   2.0000     -10.315774      -280.7065
   5   2.0000     -10.315059      -280.6870
   6   2.0000     -10.307932      -280.4931
   7   2.0000     -10.302137      -280.3354
   8   2.0000     -10.297837      -280.2184
   9   2.0000     -10.293063      -280.0885
  10   2.0000     -10.291322      -280.0411
  11   2.0000     -10.287201      -279.9290
  12   2.0000     -10.285666      -279.8872
  13   2.0000     -10.282857      -279.8108
  14   2.0000     -10.277343      -279.6607
  15   2.0000     -10.276904      -279.6488
  16   2.0000      -8.084003      -219.9769
  17   2.0000      -8.076178      -219.7640
  18   2.0000      -6.042344      -164.4205
  19   2.0000      -6.038643      -164.3198
  20   2.0000      -6.034932      -164.2188
  21   2.0000      -6.034553      -164.2085
  22   2.0000      -6.030415      -164.0959
  23   2.0000      -6.027257      -164.0100
  24   2.0000      -1.004838       -27.3430
  25   2.0000      -0.980729       -26.6870
  26   2.0000      -0.916003       -24.9257
  27   2.0000      -0.909813       -24.7573
  28   2.0000      -0.871644       -23.7186
  29   2.0000      -0.850779       -23.1509
  30   2.0000      -0.842213       -22.9178
  31   2.0000      -0.812964       -22.1219
  32   2.0000      -0.785264       -21.3681
  33   2.0000      -0.772293       -21.0152
  34   2.0000      -0.712085       -19.3768
  35   2.0000      -0.697330       -18.9753
  36   2.0000      -0.691723       -18.8228
  37   2.0000      -0.666226       -18.1289
  38   2.0000      -0.649917       -17.6851
  39   2.0000      -0.625933       -17.0325
  40   2.0000      -0.601897       -16.3784
  41   2.0000      -0.568908       -15.4808
  42   2.0000      -0.562991       -15.3198
  43   2.0000      -0.558504       -15.1977
  44   2.0000      -0.533862       -14.5271
  45   2.0000      -0.525941       -14.3116
  46   2.0000      -0.516512       -14.0550
  47   2.0000      -0.511190       -13.9102
  48   2.0000      -0.505257       -13.7487
  49   2.0000      -0.497421       -13.5355
  50   2.0000      -0.494644       -13.4599
  51   2.0000      -0.486187       -13.2298
  52   2.0000      -0.466629       -12.6976
  53   2.0000      -0.465289       -12.6612
  54   2.0000      -0.455412       -12.3924
  55   2.0000      -0.450561       -12.2604
  56   2.0000      -0.444409       -12.0930
  57   2.0000      -0.441327       -12.0091
  58   2.0000      -0.429006       -11.6739
  59   2.0000      -0.425031       -11.5657
  60   2.0000      -0.418806       -11.3963
  61   2.0000      -0.412147       -11.2151
  62   2.0000      -0.407885       -11.0991
  63   2.0000      -0.339013        -9.2250
  64   2.0000      -0.335332        -9.1248
  65   2.0000      -0.326780        -8.8921
  66   2.0000      -0.291677        -7.9369
  67   0.0000       0.024501         0.6667
  68   0.0000       0.064750         1.7619
  69   0.0000       0.113178         3.0797
  70   0.0000       0.117190         3.1889
  71   0.0000       0.127675         3.4742

MULLIKEN ATOMIC CHARGES
-----------------------
   0 S :    0.117211
   1 C :   -0.093476
   2 C :   -0.085908
   3 C :    0.058785
   4 C :   -0.171961
   5 H :    0.001248
   6 C :    0.056650
   7 H :    0.002480
   8 H :    0.040611
   9 C :   -0.087339
  10 H :    0.026392
  11 H :    0.033191
  12 C :   -0.019652
  13 H :    0.026049
  14 H :    0.023558
  15 H :    0.035202
  16 S :    0.099454
  17 C :   -0.050072
  18 C :    0.003897
  19 C :   -0.075828
  20 C :   -0.164605
  21 H :   -0.010260
  22 C :    0.125176
  23 H :    0.007715
  24 H :    0.015351
  25 C :   -0.098799
  26 H :    0.028704
  27 H :    0.046266
  28 C :   -0.047257
  29 H :    0.039821
  30 H :    0.029915
  31 H :    0.027383
  32 H :    0.027805
  33 H :    0.032296
Sum of atomic charges:   -0.0000000

LOEWDIN ATOMIC CHARGES
----------------------
   0 S :    0.404161
   1 C :   -0.177822
   2 C :   -0.056204
   3 C :   -0.048764
   4 C :   -0.195272
   5 H :    0.021690
   6 C :   -0.040053
   7 H :    0.030652
   8 H :    0.036873
   9 C :   -0.046855
  10 H :    0.027026
  11 H :    0.027857
  12 C :   -0.064662
  13 H :    0.025644
  14 H :    0.024087
  15 H :    0.027852
  16 S :    0.412614
  17 C :   -0.170833
  18 C :   -0.066106
  19 C :   -0.044691
  20 C :   -0.213749
  21 H :    0.018949
  22 C :   -0.030379
  23 H :    0.023969
  24 H :    0.027136
  25 C :   -0.042665
  26 H :    0.029009
  27 H :    0.029769
  28 C :   -0.073001
  29 H :    0.027519
  30 H :    0.025716
  31 H :    0.026312
  32 H :    0.010713
  33 H :    0.013507

  Mayer bond orders larger than 0.100000
B(  0-S ,  1-C ) :   1.1556 B(  0-S ,  4-C ) :   1.1459 B(  1-C ,  2-C ) :   1.5901
B(  1-C ,  4-C ) :   0.1094 B(  1-C , 32-H ) :   0.9724 B(  2-C ,  3-C ) :   1.2572
B(  2-C ,  6-C ) :   1.0208 B(  3-C ,  4-C ) :   1.5683 B(  3-C ,  5-H ) :   0.9950
B(  4-C , 20-C ) :   1.0520 B(  6-C ,  7-H ) :   0.9297 B(  6-C ,  8-H ) :   0.9483
B(  6-C ,  9-C ) :   1.0448 B(  9-C , 10-H ) :   0.9481 B(  9-C , 11-H ) :   0.9622
B(  9-C , 12-C ) :   1.0897 B( 12-C , 13-H ) :   0.9700 B( 12-C , 14-H ) :   0.9731
B( 12-C , 15-H ) :   0.9715 B( 16-S , 17-C ) :   1.1834 B( 16-S , 20-C ) :   1.1429
B( 17-C , 18-C ) :   1.5355 B( 17-C , 20-C ) :   0.1096 B( 17-C , 33-H ) :   0.9866
B( 18-C , 19-C ) :   1.2826 B( 18-C , 21-H ) :   1.0002 B( 19-C , 20-C ) :   1.5485
B( 19-C , 22-C ) :   1.0649 B( 22-C , 23-H ) :   0.9290 B( 22-C , 24-H ) :   0.9216
B( 22-C , 25-C ) :   1.0568 B( 25-C , 26-H ) :   0.9497 B( 25-C , 27-H ) :   0.9626
B( 25-C , 28-C ) :   1.0832 B( 28-C , 29-H ) :   0.9756 B( 28-C , 30-H ) :   0.9724
B( 28-C , 31-H ) :   0.9719

Dispersion correction           -0.014567995
FINAL SINGLE POINT ENERGY     -1339.874314961765

DIPOLE MOMENT
-------------
                                X             Y             Z
Electronic contribution:      6.02900      27.90320      -5.96738
Nuclear contribution   :     -6.33177     -28.37944       6.08331
                        -----------------------------------------
Total Dipole Moment    :     -0.30277      -0.47624       0.11593
                        -----------------------------------------
Magnitude (a.u.)       :      0.57612
Magnitude (Debye)      :      1.46438

Rotational constants in cm-1:     0.018872     0.008501     0.007234
Rotational constants in MHz :   565.766420   254.864266   216.856436

                             ****ORCA TERMINATED NORMALLY****
TOTAL RUN TIME: 0 days 0 hours 0 minutes 31 seconds 281 msec
