                         Program Version 4.2.1 -  RELEASE  -
|  1> ! wB97X-D3 SP def2-SVP
|  2> %pal
|  3> nprocs 16
|  4> end
|  5>
|  6> * xyz 0 1
|  7> S 	 -41.3083 	 55.4685 	 108.651
|  8> C 	 -42.3368 	 56.3015 	 107.578
|  9> C 	 -41.638 	 57.0564 	 106.774
| 10> C 	 -40.201 	 56.7711 	 106.868
| 11> C 	 -39.8277 	 55.8498 	 107.8
| 12> H 	 -39.4404 	 57.2086 	 106.228
| 13> C 	 -42.1624 	 57.9272 	 105.649
| 14> H 	 -41.3416 	 58.5322 	 105.33
| 15> H 	 -42.8377 	 58.6946 	 106.158
| 16> C 	 -42.9397 	 57.1042 	 104.543
| 17> H 	 -42.2989 	 56.2579 	 104.263
| 18> H 	 -43.8688 	 56.7445 	 104.823
| 19> C 	 -43.1108 	 57.8834 	 103.302
| 20> H 	 -44.1607 	 58.1253 	 103.249
| 21> H 	 -42.5442 	 58.7877 	 103.204
| 22> H 	 -42.8447 	 57.2903 	 102.396
| 23> S 	 -37.7163 	 55.512 	 109.535
| 24> C 	 -36.203 	 54.8194 	 108.892
| 25> C 	 -36.2483 	 54.5539 	 107.551
| 26> C 	 -37.6045 	 54.7498 	 107.099
| 27> C 	 -38.4936 	 55.2916 	 108.024
| 28> H 	 -35.3474 	 54.2343 	 106.959
| 29> C 	 -37.8978 	 54.6368 	 105.585
| 30> H 	 -38.8407 	 55.1293 	 105.295
| 31> H 	 -38.1599 	 53.5394 	 105.541
| 32> C 	 -36.8443 	 54.9944 	 104.584
| 33> H 	 -36.0139 	 54.2919 	 104.708
| 34> H 	 -36.4865 	 55.9998 	 104.703
| 35> C 	 -37.3277 	 54.93 	 103.136
| 36> H 	 -36.5677 	 54.7385 	 102.332
| 37> H 	 -37.8916 	 55.8374 	 102.938
| 38> H 	 -37.9655 	 54.0447 	 102.929
| 39> H 	 -43.4528 	 56.1794 	 107.61
| 40> H 	 -35.33 	 54.9052 	 109.422
| 41> *
| 42>
| 43>                          ****END OF INPUT****

CARTESIAN COORDINATES (ANGSTROEM)
---------------------------------
  S    -41.308300   55.468500  108.651000
  C    -42.336800   56.301500  107.578000
  C    -41.638000   57.056400  106.774000
  C    -40.201000   56.771100  106.868000
  C    -39.827700   55.849800  107.800000
  H    -39.440400   57.208600  106.228000
  C    -42.162400   57.927200  105.649000
  H    -41.341600   58.532200  105.330000
  H    -42.837700   58.694600  106.158000
  C    -42.939700   57.104200  104.543000
  H    -42.298900   56.257900  104.263000
  H    -43.868800   56.744500  104.823000
  C    -43.110800   57.883400  103.302000
  H    -44.160700   58.125300  103.249000
  H    -42.544200   58.787700  103.204000
  H    -42.844700   57.290300  102.396000
  S    -37.716300   55.512000  109.535000
  C    -36.203000   54.819400  108.892000
  C    -36.248300   54.553900  107.551000
  C    -37.604500   54.749800  107.099000
  C    -38.493600   55.291600  108.024000
  H    -35.347400   54.234300  106.959000
  C    -37.897800   54.636800  105.585000
  H    -38.840700   55.129300  105.295000
  H    -38.159900   53.539400  105.541000
  C    -36.844300   54.994400  104.584000
  H    -36.013900   54.291900  104.708000
  H    -36.486500   55.999800  104.703000
  C    -37.327700   54.930000  103.136000
  H    -36.567700   54.738500  102.332000
  H    -37.891600   55.837400  102.938000
  H    -37.965500   54.044700  102.929000
  H    -43.452800   56.179400  107.610000
  H    -35.330000   54.905200  109.422000

 Total Charge           Charge          ....    0
 Multiplicity           Mult            ....    1
 Number of Electrons    NEL             ....  134
 Basis Dimension        Dim             ....  322

ORBITAL ENERGIES
----------------

  NO   OCC          E(Eh)            E(eV)
   0   2.0000     -88.965452     -2420.8730
   1   2.0000     -88.955102     -2420.5914
   2   2.0000     -10.326833      -281.0074
   3   2.0000     -10.326532      -280.9992
   4   2.0000     -10.314326      -280.6671
   5   2.0000     -10.307499      -280.4813
   6   2.0000     -10.307275      -280.4752
   7   2.0000     -10.302362      -280.3415
   8   2.0000     -10.296887      -280.1925
   9   2.0000     -10.292137      -280.0633
  10   2.0000     -10.291933      -280.0577
  11   2.0000     -10.290822      -280.0275
  12   2.0000     -10.286004      -279.8964
  13   2.0000     -10.283636      -279.8320
  14   2.0000     -10.283144      -279.8186
  15   2.0000     -10.271245      -279.4948
  16   2.0000      -8.080516      -219.8820
  17   2.0000      -8.071435      -219.6349
  18   2.0000      -6.039030      -164.3304
  19   2.0000      -6.035043      -164.2219
  20   2.0000      -6.031177      -164.1167
  21   2.0000      -6.030089      -164.0871
  22   2.0000      -6.025641      -163.9660
  23   2.0000      -6.021993      -163.8667
  24   2.0000      -1.012377       -27.5482
  25   2.0000      -0.991183       -26.9715
  26   2.0000      -0.913301       -24.8522
  27   2.0000      -0.911100       -24.7923
  28   2.0000      -0.879254       -23.9257
  29   2.0000      -0.850225       -23.1358
  30   2.0000      -0.848375       -23.0855
  31   2.0000      -0.820670       -22.3316
  32   2.0000      -0.777049       -21.1446
  33   2.0000      -0.769223       -20.9316
  34   2.0000      -0.707234       -19.2448
  35   2.0000      -0.703894       -19.1539
  36   2.0000      -0.698689       -19.0123
  37   2.0000      -0.658865       -17.9286
  38   2.0000      -0.642429       -17.4814
  39   2.0000      -0.614942       -16.7334
  40   2.0000      -0.597465       -16.2579
  41   2.0000      -0.574580       -15.6351
  42   2.0000      -0.573157       -15.5964
  43   2.0000      -0.568850       -15.4792
  44   2.0000      -0.528710       -14.3869
  45   2.0000      -0.524288       -14.2666
  46   2.0000      -0.520806       -14.1718
  47   2.0000      -0.514589       -14.0027
  48   2.0000      -0.507664       -13.8142
  49   2.0000      -0.502411       -13.6713
  50   2.0000      -0.492638       -13.4054
  51   2.0000      -0.478773       -13.0281
  52   2.0000      -0.471598       -12.8328
  53   2.0000      -0.468705       -12.7541
  54   2.0000      -0.457786       -12.4570
  55   2.0000      -0.455763       -12.4019
  56   2.0000      -0.452680       -12.3181
  57   2.0000      -0.431322       -11.7369
  58   2.0000      -0.428188       -11.6516
  59   2.0000      -0.418774       -11.3954
  60   2.0000      -0.414873       -11.2893
  61   2.0000      -0.413128       -11.2418
  62   2.0000      -0.406706       -11.0670
  63   2.0000      -0.353077        -9.6077
  64   2.0000      -0.329957        -8.9786
  65   2.0000      -0.321047        -8.7361
  66   2.0000      -0.297974        -8.1083
  67   0.0000       0.038850         1.0572
  68   0.0000       0.067470         1.8359
  69   0.0000       0.110907         3.0179
  70   0.0000       0.128393         3.4938
  71   0.0000       0.130978         3.5641

MULLIKEN ATOMIC CHARGES
-----------------------
   0 S :    0.095178
   1 C :   -0.157761
   2 C :   -0.064916
   3 C :    0.011522
   4 C :   -0.142393
   5 H :    0.010366
   6 C :    0.053735
   7 H :    0.013445
   8 H :    0.038727
   9 C :   -0.034132
  10 H :    0.036075
  11 H :    0.015174
  12 C :   -0.042871
  13 H :    0.024848
  14 H :    0.024734
  15 H :    0.032613
  16 S :    0.103471
  17 C :   -0.054169
  18 C :   -0.056493
  19 C :   -0.041401
  20 C :   -0.140987
  21 H :    0.053506
  22 C :    0.017572
  23 H :    0.022579
  24 H :    0.040875
  25 C :   -0.038344
  26 H :    0.026263
  27 H :    0.030489
  28 C :   -0.078936
  29 H :    0.040141
  30 H :    0.037707
  31 H :    0.026279
  32 H :    0.069111
  33 H :    0.027993
Sum of atomic charges:   -0.0000000

LOEWDIN ATOMIC CHARGES
----------------------
   0 S :    0.405441
   1 C :   -0.203186
   2 C :   -0.080301
   3 C :   -0.062411
   4 C :   -0.196766
   5 H :    0.026673
   6 C :   -0.029825
   7 H :    0.024095
   8 H :    0.038080
   9 C :   -0.033344
  10 H :    0.029992
  11 H :    0.015937
  12 C :   -0.066954
  13 H :    0.025092
  14 H :    0.020878
  15 H :    0.031319
  16 S :    0.409541
  17 C :   -0.156178
  18 C :   -0.070457
  19 C :   -0.052089
  20 C :   -0.216335
  21 H :    0.048327
  22 C :   -0.042514
  23 H :    0.026712
  24 H :    0.042173
  25 C :   -0.044890
  26 H :    0.021719
  27 H :    0.024099
  28 C :   -0.071800
  29 H :    0.033164
  30 H :    0.024733
  31 H :    0.026361
  32 H :    0.043720
  33 H :    0.008996

  Mayer bond orders larger than 0.100000
B(  0-S ,  1-C ) :   1.1389 B(  0-S ,  4-C ) :   1.1362 B(  1-C ,  2-C ) :   1.6360
B(  1-C , 32-H ) :   0.9672 B(  2-C ,  3-C ) :   1.2122 B(  2-C ,  6-C ) :   1.0263
B(  3-C ,  4-C ) :   1.6065 B(  3-C ,  5-H ) :   0.9958 B(  4-C , 20-C ) :   1.0186
B(  6-C ,  7-H ) :   0.9454 B(  6-C ,  8-H ) :   0.9345 B(  6-C ,  9-C ) :   1.0555
B(  9-C , 10-H ) :   0.9659 B(  9-C , 11-H ) :   0.9590 B(  9-C , 12-C ) :   1.0785
B( 12-C , 13-H ) :   0.9784 B( 12-C , 14-H ) :   0.9766 B( 12-C , 15-H ) :   0.9781
B( 16-S , 17-C ) :   1.1578 B( 16-S , 20-C ) :   1.1423 B( 17-C , 18-C ) :   1.6220
B( 17-C , 33-H ) :   0.9724 B( 18-C , 19-C ) :   1.2307 B( 18-C , 21-H ) :   0.9801
B( 19-C , 20-C ) :   1.6156 B( 19-C , 22-C ) :   1.0246 B( 22-C , 23-H ) :   0.9482
B( 22-C , 24-H ) :   0.9179 B( 22-C , 25-C ) :   1.0768 B( 25-C , 26-H ) :   0.9392
B( 25-C , 27-H ) :   0.9598 B( 25-C , 28-C ) :   1.0803 B( 28-C , 29-H ) :   0.9745
B( 28-C , 30-H ) :   0.9769 B( 28-C , 31-H ) :   0.9737

Dispersion correction           -0.013851532
FINAL SINGLE POINT ENERGY     -1339.853285617441

DIPOLE MOMENT
-------------
                                X             Y             Z
Electronic contribution:      4.01149      -5.14113      32.70878
Nuclear contribution   :     -3.90280       5.35042     -33.57178
                        -----------------------------------------
Total Dipole Moment    :      0.10869       0.20929      -0.86300
                        -----------------------------------------
Magnitude (a.u.)       :      0.89464
Magnitude (Debye)      :      2.27400

Rotational constants in cm-1:     0.017199     0.009145     0.006339
Rotational constants in MHz :   515.621375   274.166619   190.040670

                             ****ORCA TERMINATED NORMALLY****
TOTAL RUN TIME: 0 days 0 hours 0 minutes 30 seconds 724 msec
