                         Program Version 4.2.1 -  RELEASE  -
|  1> ! wB97X-D3 SP def2-SVP
|  2> %pal
|  3> nprocs 16
|  4> end
|  5>
|  6> * xyz 0 1
|  7> S 	 38.4205 	 27.3739 	 46.658
|  8> C 	 39.5073 	 28.6189 	 47.242
|  9> C 	 40.5103 	 28.1478 	 48.0658
| 10> C 	 40.4607 	 26.7166 	 48.0689
| 11> C 	 39.5638 	 26.2101 	 47.1858
| 12> H 	 41.2313 	 26.1147 	 48.5867
| 13> C 	 41.6177 	 28.9751 	 48.6575
| 14> H 	 41.5257 	 29.9829 	 48.2588
| 15> H 	 42.5356 	 28.6174 	 48.1043
| 16> C 	 41.7843 	 29.0352 	 50.137
| 17> H 	 40.8589 	 29.5799 	 50.3692
| 18> H 	 41.7234 	 28.0055 	 50.5763
| 19> C 	 43.0996 	 29.6188 	 50.6578
| 20> H 	 43.9468 	 29.0131 	 50.6238
| 21> H 	 43.4057 	 30.6011 	 50.1096
| 22> H 	 42.9977 	 30.0445 	 51.7246
| 23> S 	 40.2393 	 24.2987 	 45.3907
| 24> C 	 39.7632 	 22.6233 	 45.6452
| 25> C 	 39.2295 	 22.4508 	 46.9382
| 26> C 	 38.9847 	 23.6912 	 47.5915
| 27> C 	 39.477 	 24.7799 	 46.8882
| 28> H 	 38.8538 	 21.484 	 47.0845
| 29> C 	 38.2898 	 23.7205 	 48.9866
| 30> H 	 38.2582 	 24.6708 	 49.5401
| 31> H 	 38.964 	 23.1405 	 49.5844
| 32> C 	 36.7964 	 23.1705 	 48.9188
| 33> H 	 36.351 	 22.9195 	 49.8877
| 34> H 	 36.7072 	 22.2256 	 48.4051
| 35> C 	 35.8586 	 24.1906 	 48.2536
| 36> H 	 34.7823 	 23.8314 	 48.2033
| 37> H 	 36.1219 	 24.3018 	 47.1895
| 38> H 	 35.9327 	 25.244 	 48.7398
| 39> H 	 39.3762 	 29.6719 	 47.0508
| 40> H 	 39.7162 	 21.8071 	 44.909
| 41> *
| 42>
| 43>                          ****END OF INPUT****

CARTESIAN COORDINATES (ANGSTROEM)
---------------------------------
  S     38.420500   27.373900   46.658000
  C     39.507300   28.618900   47.242000
  C     40.510300   28.147800   48.065800
  C     40.460700   26.716600   48.068900
  C     39.563800   26.210100   47.185800
  H     41.231300   26.114700   48.586700
  C     41.617700   28.975100   48.657500
  H     41.525700   29.982900   48.258800
  H     42.535600   28.617400   48.104300
  C     41.784300   29.035200   50.137000
  H     40.858900   29.579900   50.369200
  H     41.723400   28.005500   50.576300
  C     43.099600   29.618800   50.657800
  H     43.946800   29.013100   50.623800
  H     43.405700   30.601100   50.109600
  H     42.997700   30.044500   51.724600
  S     40.239300   24.298700   45.390700
  C     39.763200   22.623300   45.645200
  C     39.229500   22.450800   46.938200
  C     38.984700   23.691200   47.591500
  C     39.477000   24.779900   46.888200
  H     38.853800   21.484000   47.084500
  C     38.289800   23.720500   48.986600
  H     38.258200   24.670800   49.540100
  H     38.964000   23.140500   49.584400
  C     36.796400   23.170500   48.918800
  H     36.351000   22.919500   49.887700
  H     36.707200   22.225600   48.405100
  C     35.858600   24.190600   48.253600
  H     34.782300   23.831400   48.203300
  H     36.121900   24.301800   47.189500
  H     35.932700   25.244000   48.739800
  H     39.376200   29.671900   47.050800
  H     39.716200   21.807100   44.909000

 Total Charge           Charge          ....    0
 Multiplicity           Mult            ....    1
 Number of Electrons    NEL             ....  134
 Basis Dimension        Dim             ....  322

ORBITAL ENERGIES
----------------

  NO   OCC          E(Eh)            E(eV)
   0   2.0000     -88.966906     -2420.9126
   1   2.0000     -88.963841     -2420.8292
   2   2.0000     -10.322513      -280.8898
   3   2.0000     -10.321582      -280.8645
   4   2.0000     -10.320349      -280.8310
   5   2.0000     -10.311051      -280.5780
   6   2.0000     -10.308278      -280.5025
   7   2.0000     -10.299270      -280.2574
   8   2.0000     -10.297054      -280.1971
   9   2.0000     -10.293296      -280.0948
  10   2.0000     -10.293157      -280.0910
  11   2.0000     -10.292154      -280.0638
  12   2.0000     -10.291515      -280.0464
  13   2.0000     -10.291158      -280.0367
  14   2.0000     -10.288538      -279.9653
  15   2.0000     -10.284144      -279.8458
  16   2.0000      -8.082318      -219.9311
  17   2.0000      -8.078449      -219.8258
  18   2.0000      -6.040759      -164.3774
  19   2.0000      -6.037033      -164.2760
  20   2.0000      -6.036910      -164.2727
  21   2.0000      -6.032905      -164.1637
  22   2.0000      -6.032801      -164.1609
  23   2.0000      -6.029338      -164.0666
  24   2.0000      -1.009685       -27.4749
  25   2.0000      -0.983911       -26.7736
  26   2.0000      -0.917928       -24.9781
  27   2.0000      -0.896519       -24.3955
  28   2.0000      -0.867909       -23.6170
  29   2.0000      -0.850623       -23.1466
  30   2.0000      -0.842294       -22.9200
  31   2.0000      -0.812427       -22.1073
  32   2.0000      -0.783190       -21.3117
  33   2.0000      -0.767846       -20.8941
  34   2.0000      -0.706201       -19.2167
  35   2.0000      -0.696237       -18.9456
  36   2.0000      -0.690453       -18.7882
  37   2.0000      -0.656643       -17.8682
  38   2.0000      -0.639135       -17.3917
  39   2.0000      -0.624268       -16.9872
  40   2.0000      -0.592962       -16.1353
  41   2.0000      -0.568673       -15.4744
  42   2.0000      -0.565028       -15.3752
  43   2.0000      -0.547424       -14.8962
  44   2.0000      -0.533619       -14.5205
  45   2.0000      -0.523299       -14.2397
  46   2.0000      -0.517094       -14.0708
  47   2.0000      -0.513565       -13.9748
  48   2.0000      -0.500710       -13.6250
  49   2.0000      -0.496027       -13.4976
  50   2.0000      -0.480504       -13.0752
  51   2.0000      -0.471573       -12.8322
  52   2.0000      -0.466922       -12.7056
  53   2.0000      -0.460759       -12.5379
  54   2.0000      -0.455876       -12.4050
  55   2.0000      -0.452840       -12.3224
  56   2.0000      -0.439228       -11.9520
  57   2.0000      -0.432963       -11.7815
  58   2.0000      -0.430923       -11.7260
  59   2.0000      -0.425251       -11.5717
  60   2.0000      -0.424127       -11.5411
  61   2.0000      -0.415617       -11.3095
  62   2.0000      -0.409952       -11.1554
  63   2.0000      -0.336439        -9.1550
  64   2.0000      -0.327613        -8.9148
  65   2.0000      -0.317844        -8.6490
  66   2.0000      -0.310673        -8.4539
  67   0.0000       0.039640         1.0787
  68   0.0000       0.060485         1.6459
  69   0.0000       0.106318         2.8931
  70   0.0000       0.121792         3.3141
  71   0.0000       0.127753         3.4763

MULLIKEN ATOMIC CHARGES
-----------------------
   0 S :    0.133919
   1 C :   -0.124714
   2 C :   -0.080256
   3 C :    0.040310
   4 C :   -0.165280
   5 H :    0.023557
   6 C :    0.046561
   7 H :    0.008598
   8 H :    0.036770
   9 C :   -0.056631
  10 H :    0.035060
  11 H :    0.038635
  12 C :   -0.072421
  13 H :    0.034450
  14 H :    0.030870
  15 H :    0.046810
  16 S :    0.114628
  17 C :   -0.121540
  18 C :   -0.028365
  19 C :   -0.005346
  20 C :   -0.196654
  21 H :    0.009112
  22 C :    0.079470
  23 H :    0.031346
  24 H :    0.028413
  25 C :   -0.063936
  26 H :    0.027295
  27 H :    0.021827
  28 C :   -0.107375
  29 H :    0.043675
  30 H :    0.039104
  31 H :    0.048911
  32 H :    0.035815
  33 H :    0.067379
Sum of atomic charges:   -0.0000000

LOEWDIN ATOMIC CHARGES
----------------------
   0 S :    0.417703
   1 C :   -0.191416
   2 C :   -0.063759
   3 C :   -0.055324
   4 C :   -0.214361
   5 H :    0.036237
   6 C :   -0.040387
   7 H :    0.027398
   8 H :    0.035349
   9 C :   -0.049499
  10 H :    0.032916
  11 H :    0.030302
  12 C :   -0.073037
  13 H :    0.016617
  14 H :    0.032032
  15 H :    0.039311
  16 S :    0.407363
  17 C :   -0.185479
  18 C :   -0.069406
  19 C :   -0.052342
  20 C :   -0.204632
  21 H :    0.023522
  22 C :   -0.024962
  23 H :    0.032491
  24 H :    0.029352
  25 C :   -0.043831
  26 H :    0.023388
  27 H :    0.019625
  28 C :   -0.080974
  29 H :    0.031343
  30 H :    0.023854
  31 H :    0.033700
  32 H :    0.021855
  33 H :    0.035053

  Mayer bond orders larger than 0.100000
B(  0-S ,  1-C ) :   1.1318 B(  0-S ,  4-C ) :   1.1517 B(  1-C ,  2-C ) :   1.6281
B(  1-C , 32-H ) :   0.9655 B(  2-C ,  3-C ) :   1.2223 B(  2-C ,  6-C ) :   1.0275
B(  3-C ,  4-C ) :   1.6073 B(  3-C ,  5-H ) :   0.9910 B(  4-C , 20-C ) :   1.0050
B(  6-C ,  7-H ) :   0.9348 B(  6-C ,  8-H ) :   0.9387 B(  6-C ,  9-C ) :   1.0466
B(  9-C , 10-H ) :   0.9527 B(  9-C , 11-H ) :   0.9590 B(  9-C , 12-C ) :   1.0728
B( 12-C , 13-H ) :   0.9769 B( 12-C , 14-H ) :   0.9729 B( 12-C , 15-H ) :   0.9737
B( 16-S , 17-C ) :   1.1611 B( 16-S , 20-C ) :   1.1508 B( 17-C , 18-C ) :   1.6207
B( 17-C , 20-C ) :   0.1052 B( 17-C , 33-H ) :   0.9636 B( 18-C , 19-C ) :   1.2260
B( 18-C , 21-H ) :   0.9901 B( 19-C , 20-C ) :   1.6134 B( 19-C , 22-C ) :   1.0197
B( 22-C , 23-H ) :   0.9484 B( 22-C , 24-H ) :   0.9400 B( 22-C , 25-C ) :   1.0532
B( 25-C , 26-H ) :   0.9591 B( 25-C , 27-H ) :   0.9596 B( 25-C , 28-C ) :   1.0679
B( 28-C , 29-H ) :   0.9728 B( 28-C , 30-H ) :   0.9762 B( 28-C , 31-H ) :   0.9732

Dispersion correction           -0.014581017
FINAL SINGLE POINT ENERGY     -1339.861389939359

DIPOLE MOMENT
-------------
                                X             Y             Z
Electronic contribution:     -1.04496      -5.23615     -20.20984
Nuclear contribution   :      1.16661       5.20408      20.64019
                        -----------------------------------------
Total Dipole Moment    :      0.12165      -0.03208       0.43035
                        -----------------------------------------
Magnitude (a.u.)       :      0.44836
Magnitude (Debye)      :      1.13965

Rotational constants in cm-1:     0.020175     0.007459     0.007002
Rotational constants in MHz :   604.821621   223.607061   209.925987

                             ****ORCA TERMINATED NORMALLY****
TOTAL RUN TIME: 0 days 0 hours 0 minutes 34 seconds 435 msec
