                         Program Version 4.2.1 -  RELEASE  -
|  1> ! wB97X-D3 SP def2-SVP
|  2> %pal
|  3> nprocs 16
|  4> end
|  5>
|  6> * xyz 0 1
|  7> S 	 -36.0478 	 73.1204 	 168.262
|  8> C 	 -35.4837 	 72.4825 	 166.745
|  9> C 	 -36.1516 	 73.1009 	 165.737
| 10> C 	 -37.175 	 73.9985 	 166.193
| 11> C 	 -37.2246 	 74.1583 	 167.562
| 12> H 	 -37.841 	 74.4472 	 165.529
| 13> C 	 -35.8881 	 72.8981 	 164.275
| 14> H 	 -36.8702 	 72.9511 	 163.777
| 15> H 	 -35.5289 	 71.8805 	 164.392
| 16> C 	 -34.8036 	 73.7483 	 163.611
| 17> H 	 -34.876 	 74.8167 	 163.863
| 18> H 	 -33.7944 	 73.3675 	 163.844
| 19> C 	 -34.7991 	 73.5681 	 162.157
| 20> H 	 -34.5679 	 72.5196 	 161.983
| 21> H 	 -35.7864 	 73.8875 	 161.821
| 22> H 	 -34.0276 	 74.1783 	 161.721
| 23> S 	 -38.5975 	 74.0718 	 170.008
| 24> C 	 -39.5128 	 75.5294 	 170.46
| 25> C 	 -39.5282 	 76.5229 	 169.447
| 26> C 	 -38.8431 	 76.0533 	 168.282
| 27> C 	 -38.1856 	 74.8432 	 168.434
| 28> H 	 -40.18 	 77.3501 	 169.615
| 29> C 	 -38.8851 	 76.8741 	 167.038
| 30> H 	 -38.0148 	 76.6087 	 166.403
| 31> H 	 -38.6657 	 77.8775 	 167.345
| 32> C 	 -40.2363 	 76.8785 	 166.235
| 33> H 	 -40.2384 	 77.7173 	 165.552
| 34> H 	 -41.0785 	 77.0481 	 166.877
| 35> C 	 -40.3055 	 75.661 	 165.366
| 36> H 	 -40.4237 	 74.7525 	 165.999
| 37> H 	 -39.5256 	 75.5759 	 164.627
| 38> H 	 -41.2214 	 75.6741 	 164.766
| 39> H 	 -34.7528 	 71.6734 	 166.517
| 40> H 	 -40.0878 	 75.6943 	 171.344
| 41> *
| 42>
| 43>                          ****END OF INPUT****

CARTESIAN COORDINATES (ANGSTROEM)
---------------------------------
  S    -36.047800   73.120400  168.262000
  C    -35.483700   72.482500  166.745000
  C    -36.151600   73.100900  165.737000
  C    -37.175000   73.998500  166.193000
  C    -37.224600   74.158300  167.562000
  H    -37.841000   74.447200  165.529000
  C    -35.888100   72.898100  164.275000
  H    -36.870200   72.951100  163.777000
  H    -35.528900   71.880500  164.392000
  C    -34.803600   73.748300  163.611000
  H    -34.876000   74.816700  163.863000
  H    -33.794400   73.367500  163.844000
  C    -34.799100   73.568100  162.157000
  H    -34.567900   72.519600  161.983000
  H    -35.786400   73.887500  161.821000
  H    -34.027600   74.178300  161.721000
  S    -38.597500   74.071800  170.008000
  C    -39.512800   75.529400  170.460000
  C    -39.528200   76.522900  169.447000
  C    -38.843100   76.053300  168.282000
  C    -38.185600   74.843200  168.434000
  H    -40.180000   77.350100  169.615000
  C    -38.885100   76.874100  167.038000
  H    -38.014800   76.608700  166.403000
  H    -38.665700   77.877500  167.345000
  C    -40.236300   76.878500  166.235000
  H    -40.238400   77.717300  165.552000
  H    -41.078500   77.048100  166.877000
  C    -40.305500   75.661000  165.366000
  H    -40.423700   74.752500  165.999000
  H    -39.525600   75.575900  164.627000
  H    -41.221400   75.674100  164.766000
  H    -34.752800   71.673400  166.517000
  H    -40.087800   75.694300  171.344000

 Total Charge           Charge          ....    0
 Multiplicity           Mult            ....    1
 Number of Electrons    NEL             ....  134
 Basis Dimension        Dim             ....  322

ORBITAL ENERGIES
----------------

  NO   OCC          E(Eh)            E(eV)
   0   2.0000     -88.970827     -2421.0193
   1   2.0000     -88.962686     -2420.7978
   2   2.0000     -10.332446      -281.1601
   3   2.0000     -10.329178      -281.0712
   4   2.0000     -10.323289      -280.9110
   5   2.0000     -10.311115      -280.5797
   6   2.0000     -10.304719      -280.4057
   7   2.0000     -10.297775      -280.2167
   8   2.0000     -10.292253      -280.0664
   9   2.0000     -10.289394      -279.9886
  10   2.0000     -10.288812      -279.9728
  11   2.0000     -10.287747      -279.9438
  12   2.0000     -10.284510      -279.8557
  13   2.0000     -10.282478      -279.8005
  14   2.0000     -10.277525      -279.6657
  15   2.0000     -10.271395      -279.4989
  16   2.0000      -8.083915      -219.9745
  17   2.0000      -8.078166      -219.8181
  18   2.0000      -6.042528      -164.4256
  19   2.0000      -6.038744      -164.3226
  20   2.0000      -6.036792      -164.2695
  21   2.0000      -6.034562      -164.2088
  22   2.0000      -6.032407      -164.1501
  23   2.0000      -6.028895      -164.0546
  24   2.0000      -1.008309       -27.4375
  25   2.0000      -0.981154       -26.6986
  26   2.0000      -0.922436       -25.1008
  27   2.0000      -0.910615       -24.7791
  28   2.0000      -0.875713       -23.8294
  29   2.0000      -0.855237       -23.2722
  30   2.0000      -0.848263       -23.0824
  31   2.0000      -0.818073       -22.2609
  32   2.0000      -0.781694       -21.2710
  33   2.0000      -0.770683       -20.9714
  34   2.0000      -0.710424       -19.3316
  35   2.0000      -0.697958       -18.9924
  36   2.0000      -0.691514       -18.8171
  37   2.0000      -0.662781       -18.0352
  38   2.0000      -0.636250       -17.3132
  39   2.0000      -0.624432       -16.9917
  40   2.0000      -0.593208       -16.1420
  41   2.0000      -0.582451       -15.8493
  42   2.0000      -0.570763       -15.5312
  43   2.0000      -0.554838       -15.0979
  44   2.0000      -0.545219       -14.8362
  45   2.0000      -0.531887       -14.4734
  46   2.0000      -0.525459       -14.2985
  47   2.0000      -0.512414       -13.9435
  48   2.0000      -0.505814       -13.7639
  49   2.0000      -0.503074       -13.6893
  50   2.0000      -0.488618       -13.2960
  51   2.0000      -0.482820       -13.1382
  52   2.0000      -0.470132       -12.7929
  53   2.0000      -0.465272       -12.6607
  54   2.0000      -0.458858       -12.4862
  55   2.0000      -0.451132       -12.2759
  56   2.0000      -0.440869       -11.9966
  57   2.0000      -0.435000       -11.8370
  58   2.0000      -0.429149       -11.6777
  59   2.0000      -0.425942       -11.5905
  60   2.0000      -0.418264       -11.3815
  61   2.0000      -0.417154       -11.3513
  62   2.0000      -0.410607       -11.1732
  63   2.0000      -0.353646        -9.6232
  64   2.0000      -0.332384        -9.0446
  65   2.0000      -0.325604        -8.8601
  66   2.0000      -0.286167        -7.7870
  67   0.0000       0.023582         0.6417
  68   0.0000       0.076213         2.0739
  69   0.0000       0.101935         2.7738
  70   0.0000       0.121983         3.3193
  71   0.0000       0.125881         3.4254

MULLIKEN ATOMIC CHARGES
-----------------------
   0 S :    0.096274
   1 C :   -0.127962
   2 C :   -0.114745
   3 C :    0.059159
   4 C :   -0.109426
   5 H :   -0.065605
   6 C :    0.054221
   7 H :    0.029198
   8 H :    0.014213
   9 C :   -0.056512
  10 H :    0.032060
  11 H :    0.018513
  12 C :   -0.012988
  13 H :    0.025853
  14 H :    0.020382
  15 H :    0.031054
  16 S :    0.108882
  17 C :   -0.090797
  18 C :   -0.031143
  19 C :   -0.045514
  20 C :   -0.119469
  21 H :    0.019525
  22 C :    0.045070
  23 H :    0.023020
  24 H :    0.016239
  25 C :   -0.025085
  26 H :    0.020531
  27 H :    0.024349
  28 C :   -0.060792
  29 H :    0.049054
  30 H :    0.043193
  31 H :    0.023430
  32 H :    0.056389
  33 H :    0.049428
Sum of atomic charges:   -0.0000000

LOEWDIN ATOMIC CHARGES
----------------------
   0 S :    0.420686
   1 C :   -0.214586
   2 C :   -0.066115
   3 C :   -0.069119
   4 C :   -0.192106
   5 H :    0.012473
   6 C :   -0.035131
   7 H :    0.032195
   8 H :    0.033754
   9 C :   -0.042874
  10 H :    0.023406
  11 H :    0.027000
  12 C :   -0.056740
  13 H :    0.025373
  14 H :    0.019732
  15 H :    0.024786
  16 S :    0.376982
  17 C :   -0.167571
  18 C :   -0.065552
  19 C :   -0.053890
  20 C :   -0.184888
  21 H :    0.030712
  22 C :   -0.033427
  23 H :    0.032671
  24 H :    0.027615
  25 C :   -0.030168
  26 H :    0.023858
  27 H :    0.022304
  28 C :   -0.068460
  29 H :    0.033239
  30 H :    0.021273
  31 H :    0.026382
  32 H :    0.041690
  33 H :    0.024494

  Mayer bond orders larger than 0.100000
B(  0-S ,  1-C ) :   1.1247 B(  0-S ,  4-C ) :   1.1589 B(  1-C ,  2-C ) :   1.6218
B(  1-C , 32-H ) :   0.9589 B(  2-C ,  3-C ) :   1.2598 B(  2-C ,  6-C ) :   1.0108
B(  3-C ,  4-C ) :   1.5347 B(  3-C ,  5-H ) :   1.0019 B(  4-C , 20-C ) :   1.0595
B(  6-C ,  7-H ) :   0.9433 B(  6-C ,  8-H ) :   0.9295 B(  6-C ,  9-C ) :   1.0713
B(  9-C , 10-H ) :   0.9579 B(  9-C , 11-H ) :   0.9511 B(  9-C , 12-C ) :   1.0869
B( 12-C , 13-H ) :   0.9743 B( 12-C , 14-H ) :   0.9742 B( 12-C , 15-H ) :   0.9720
B( 16-S , 17-C ) :   1.1489 B( 16-S , 20-C ) :   1.1100 B( 17-C , 18-C ) :   1.6252
B( 17-C , 33-H ) :   0.9668 B( 18-C , 19-C ) :   1.2224 B( 18-C , 21-H ) :   0.9917
B( 19-C , 20-C ) :   1.6008 B( 19-C , 22-C ) :   1.0559 B( 22-C , 23-H ) :   0.9325
B( 22-C , 24-H ) :   0.9274 B( 22-C , 25-C ) :   1.0627 B( 25-C , 26-H ) :   0.9520
B( 25-C , 27-H ) :   0.9562 B( 25-C , 28-C ) :   1.0938 B( 28-C , 29-H ) :   0.9721
B( 28-C , 30-H ) :   0.9625 B( 28-C , 31-H ) :   0.9647

Dispersion correction           -0.014410026
FINAL SINGLE POINT ENERGY     -1339.868944988987

DIPOLE MOMENT
-------------
                                X             Y             Z
Electronic contribution:      1.01604      -7.02802      29.65406
Nuclear contribution   :     -1.30174       7.38055     -30.24560
                        -----------------------------------------
Total Dipole Moment    :     -0.28570       0.35253      -0.59154
                        -----------------------------------------
Magnitude (a.u.)       :      0.74554
Magnitude (Debye)      :      1.89501

Rotational constants in cm-1:     0.020596     0.008699     0.006484
Rotational constants in MHz :   617.455006   260.776730   194.370806

                             ****ORCA TERMINATED NORMALLY****
TOTAL RUN TIME: 0 days 0 hours 0 minutes 35 seconds 12 msec
