                         Program Version 4.2.1 -  RELEASE  -
|  1> ! wB97X-D3 SP def2-SVP
|  2> %pal
|  3> nprocs 16
|  4> end
|  5>
|  6> * xyz 0 1
|  7> S 	 -37.9782 	 54.3103 	 111.608
|  8> C 	 -39.4156 	 53.5927 	 112.315
|  9> C 	 -39.6868 	 52.3856 	 111.74
| 10> C 	 -39.02 	 52.3188 	 110.462
| 11> C 	 -38.051 	 53.2683 	 110.245
| 12> H 	 -39.049 	 51.4861 	 109.84
| 13> C 	 -40.6464 	 51.3275 	 112.241
| 14> H 	 -41.5076 	 51.8396 	 112.781
| 15> H 	 -40.1958 	 50.876 	 113.091
| 16> C 	 -41.182 	 50.3358 	 111.204
| 17> H 	 -41.9072 	 50.8871 	 110.626
| 18> H 	 -40.3506 	 49.9922 	 110.659
| 19> C 	 -41.6844 	 48.9781 	 111.898
| 20> H 	 -42.1508 	 48.2172 	 111.277
| 21> H 	 -40.823 	 48.5111 	 112.361
| 22> H 	 -42.3703 	 49.113 	 112.835
| 23> S 	 -35.2722 	 52.775 	 109.912
| 24> C 	 -34.6193 	 52.9027 	 108.305
| 25> C 	 -35.6057 	 53.1217 	 107.356
| 26> C 	 -36.9481 	 53.1298 	 107.935
| 27> C 	 -36.9212 	 53.1526 	 109.334
| 28> H 	 -35.4648 	 53.1266 	 106.323
| 29> C 	 -38.1951 	 53.3478 	 107.07
| 30> H 	 -38.0022 	 54.0913 	 106.314
| 31> H 	 -38.8184 	 53.9703 	 107.74
| 32> C 	 -38.9475 	 52.1567 	 106.459
| 33> H 	 -39.9156 	 52.4779 	 106.19
| 34> H 	 -39.1893 	 51.5296 	 107.344
| 35> C 	 -38.1618 	 51.3821 	 105.362
| 36> H 	 -37.8138 	 52.0464 	 104.548
| 37> H 	 -38.7758 	 50.5924 	 104.866
| 38> H 	 -37.3368 	 50.8322 	 105.722
| 39> H 	 -39.8903 	 54.0476 	 113.169
| 40> H 	 -33.6649 	 52.575 	 107.98
| 41> *
| 42>
| 43>                          ****END OF INPUT****

CARTESIAN COORDINATES (ANGSTROEM)
---------------------------------
  S    -37.978200   54.310300  111.608000
  C    -39.415600   53.592700  112.315000
  C    -39.686800   52.385600  111.740000
  C    -39.020000   52.318800  110.462000
  C    -38.051000   53.268300  110.245000
  H    -39.049000   51.486100  109.840000
  C    -40.646400   51.327500  112.241000
  H    -41.507600   51.839600  112.781000
  H    -40.195800   50.876000  113.091000
  C    -41.182000   50.335800  111.204000
  H    -41.907200   50.887100  110.626000
  H    -40.350600   49.992200  110.659000
  C    -41.684400   48.978100  111.898000
  H    -42.150800   48.217200  111.277000
  H    -40.823000   48.511100  112.361000
  H    -42.370300   49.113000  112.835000
  S    -35.272200   52.775000  109.912000
  C    -34.619300   52.902700  108.305000
  C    -35.605700   53.121700  107.356000
  C    -36.948100   53.129800  107.935000
  C    -36.921200   53.152600  109.334000
  H    -35.464800   53.126600  106.323000
  C    -38.195100   53.347800  107.070000
  H    -38.002200   54.091300  106.314000
  H    -38.818400   53.970300  107.740000
  C    -38.947500   52.156700  106.459000
  H    -39.915600   52.477900  106.190000
  H    -39.189300   51.529600  107.344000
  C    -38.161800   51.382100  105.362000
  H    -37.813800   52.046400  104.548000
  H    -38.775800   50.592400  104.866000
  H    -37.336800   50.832200  105.722000
  H    -39.890300   54.047600  113.169000
  H    -33.664900   52.575000  107.980000

 Total Charge           Charge          ....    0
 Multiplicity           Mult            ....    1
 Number of Electrons    NEL             ....  134
 Basis Dimension        Dim             ....  322

ORBITAL ENERGIES
----------------

  NO   OCC          E(Eh)            E(eV)
   0   2.0000     -88.966836     -2420.9107
   1   2.0000     -88.962616     -2420.7958
   2   2.0000     -10.329216      -281.0722
   3   2.0000     -10.325247      -280.9643
   4   2.0000     -10.314046      -280.6595
   5   2.0000     -10.313673      -280.6493
   6   2.0000     -10.304711      -280.4054
   7   2.0000     -10.303391      -280.3695
   8   2.0000     -10.296835      -280.1911
   9   2.0000     -10.294408      -280.1251
  10   2.0000     -10.292772      -280.0806
  11   2.0000     -10.289997      -280.0051
  12   2.0000     -10.289772      -279.9989
  13   2.0000     -10.288821      -279.9731
  14   2.0000     -10.287988      -279.9504
  15   2.0000     -10.281924      -279.7854
  16   2.0000      -8.080906      -219.8926
  17   2.0000      -8.078238      -219.8200
  18   2.0000      -6.039588      -164.3455
  19   2.0000      -6.036677      -164.2663
  20   2.0000      -6.035563      -164.2360
  21   2.0000      -6.032646      -164.1566
  22   2.0000      -6.031466      -164.1245
  23   2.0000      -6.028973      -164.0567
  24   2.0000      -1.008982       -27.4558
  25   2.0000      -0.981167       -26.6989
  26   2.0000      -0.913265       -24.8512
  27   2.0000      -0.902695       -24.5636
  28   2.0000      -0.870513       -23.6879
  29   2.0000      -0.845782       -23.0149
  30   2.0000      -0.840595       -22.8738
  31   2.0000      -0.815122       -22.1806
  32   2.0000      -0.784787       -21.3551
  33   2.0000      -0.774713       -21.0810
  34   2.0000      -0.719229       -19.5712
  35   2.0000      -0.705532       -19.1985
  36   2.0000      -0.690207       -18.7815
  37   2.0000      -0.659329       -17.9412
  38   2.0000      -0.648541       -17.6477
  39   2.0000      -0.623920       -16.9777
  40   2.0000      -0.589580       -16.0433
  41   2.0000      -0.572294       -15.5729
  42   2.0000      -0.566611       -15.4183
  43   2.0000      -0.545977       -14.8568
  44   2.0000      -0.544488       -14.8163
  45   2.0000      -0.525112       -14.2890
  46   2.0000      -0.515256       -14.0208
  47   2.0000      -0.508025       -13.8241
  48   2.0000      -0.500057       -13.6072
  49   2.0000      -0.493373       -13.4254
  50   2.0000      -0.489830       -13.3290
  51   2.0000      -0.483292       -13.1510
  52   2.0000      -0.474080       -12.9004
  53   2.0000      -0.465095       -12.6559
  54   2.0000      -0.456411       -12.4196
  55   2.0000      -0.449883       -12.2419
  56   2.0000      -0.442739       -12.0476
  57   2.0000      -0.442621       -12.0443
  58   2.0000      -0.432735       -11.7753
  59   2.0000      -0.426975       -11.6186
  60   2.0000      -0.420887       -11.4529
  61   2.0000      -0.417973       -11.3736
  62   2.0000      -0.413370       -11.2484
  63   2.0000      -0.344754        -9.3812
  64   2.0000      -0.330581        -8.9956
  65   2.0000      -0.325046        -8.8449
  66   2.0000      -0.293240        -7.9795
  67   0.0000       0.033287         0.9058
  68   0.0000       0.057962         1.5772
  69   0.0000       0.113031         3.0757
  70   0.0000       0.118867         3.2345
  71   0.0000       0.130649         3.5551

MULLIKEN ATOMIC CHARGES
-----------------------
   0 S :    0.101973
   1 C :   -0.133196
   2 C :   -0.066001
   3 C :    0.039560
   4 C :   -0.152428
   5 H :   -0.014817
   6 C :    0.038987
   7 H :    0.030584
   8 H :    0.024904
   9 C :   -0.038688
  10 H :    0.046841
  11 H :    0.039811
  12 C :   -0.094416
  13 H :    0.045369
  14 H :    0.029256
  15 H :    0.037112
  16 S :    0.113159
  17 C :   -0.070422
  18 C :   -0.003088
  19 C :   -0.054297
  20 C :   -0.147717
  21 H :   -0.003894
  22 C :    0.014684
  23 H :    0.016828
  24 H :    0.029190
  25 C :   -0.006377
  26 H :    0.017965
  27 H :    0.015530
  28 C :   -0.054755
  29 H :    0.033820
  30 H :    0.035457
  31 H :    0.033010
  32 H :    0.047164
  33 H :    0.048891
Sum of atomic charges:   -0.0000000

LOEWDIN ATOMIC CHARGES
----------------------
   0 S :    0.417097
   1 C :   -0.186835
   2 C :   -0.057886
   3 C :   -0.055819
   4 C :   -0.207200
   5 H :    0.014328
   6 C :   -0.036649
   7 H :    0.039724
   8 H :    0.028886
   9 C :   -0.028830
  10 H :    0.028288
  11 H :    0.021029
  12 C :   -0.074599
  13 H :    0.025180
  14 H :    0.024006
  15 H :    0.031833
  16 S :    0.394871
  17 C :   -0.187668
  18 C :   -0.059831
  19 C :   -0.052720
  20 C :   -0.192226
  21 H :    0.018993
  22 C :   -0.041047
  23 H :    0.025380
  24 H :    0.037227
  25 C :   -0.036139
  26 H :    0.020999
  27 H :    0.026559
  28 C :   -0.068602
  29 H :    0.027466
  30 H :    0.032540
  31 H :    0.021170
  32 H :    0.024925
  33 H :    0.025550

  Mayer bond orders larger than 0.100000
B(  0-S ,  1-C ) :   1.1469 B(  0-S ,  4-C ) :   1.1551 B(  1-C ,  2-C ) :   1.5959
B(  1-C , 32-H ) :   0.9785 B(  2-C ,  3-C ) :   1.2624 B(  2-C ,  6-C ) :   1.0048
B(  3-C ,  4-C ) :   1.5575 B(  3-C ,  5-H ) :   0.9917 B(  4-C , 20-C ) :   1.0353
B(  6-C ,  7-H ) :   0.9376 B(  6-C ,  8-H ) :   0.9333 B(  6-C ,  9-C ) :   1.0658
B(  9-C , 10-H ) :   0.9630 B(  9-C , 11-H ) :   0.9505 B(  9-C , 12-C ) :   1.0593
B( 12-C , 13-H ) :   0.9788 B( 12-C , 14-H ) :   0.9772 B( 12-C , 15-H ) :   0.9783
B( 16-S , 17-C ) :   1.1431 B( 16-S , 20-C ) :   1.1293 B( 17-C , 18-C ) :   1.6122
B( 17-C , 33-H ) :   0.9676 B( 18-C , 19-C ) :   1.2416 B( 18-C , 21-H ) :   0.9935
B( 19-C , 20-C ) :   1.6079 B( 19-C , 22-C ) :   1.0340 B( 22-C , 23-H ) :   0.9441
B( 22-C , 24-H ) :   0.9293 B( 22-C , 25-C ) :   1.0711 B( 25-C , 26-H ) :   0.9511
B( 25-C , 27-H ) :   0.9507 B( 25-C , 28-C ) :   1.0650 B( 28-C , 29-H ) :   0.9766
B( 28-C , 30-H ) :   0.9736 B( 28-C , 31-H ) :   0.9759

Dispersion correction           -0.014327370
FINAL SINGLE POINT ENERGY     -1339.857263338099

DIPOLE MOMENT
-------------
                                X             Y             Z
Electronic contribution:     20.05436      17.44044      10.84959
Nuclear contribution   :    -20.50181     -18.00164     -11.01934
                        -----------------------------------------
Total Dipole Moment    :     -0.44746      -0.56120      -0.16975
                        -----------------------------------------
Magnitude (a.u.)       :      0.73755
Magnitude (Debye)      :      1.87469

Rotational constants in cm-1:     0.016718     0.009014     0.006882
Rotational constants in MHz :   501.196525   270.235575   206.325118

                             ****ORCA TERMINATED NORMALLY****
TOTAL RUN TIME: 0 days 0 hours 0 minutes 31 seconds 88 msec
