                         Program Version 4.2.1 -  RELEASE  -
|  1> ! wB97X-D3 SP def2-SVP
|  2> %pal
|  3> nprocs 16
|  4> end
|  5>
|  6> * xyz 0 1
|  7> S 	 -94.5631 	 51.2968 	 122.101
|  8> C 	 -95.5924 	 49.9204 	 121.726
|  9> C 	 -94.9701 	 49.1349 	 120.79
| 10> C 	 -93.5897 	 49.497 	 120.54
| 11> C 	 -93.2176 	 50.6653 	 121.157
| 12> H 	 -92.8514 	 49.112 	 119.899
| 13> C 	 -95.5761 	 47.8486 	 120.287
| 14> H 	 -95.6285 	 47.9171 	 119.192
| 15> H 	 -96.6205 	 47.729 	 120.621
| 16> C 	 -94.7727 	 46.5939 	 120.512
| 17> H 	 -95.0911 	 45.7751 	 119.872
| 18> H 	 -93.8053 	 46.8592 	 120.205
| 19> C 	 -94.7481 	 45.9675 	 121.928
| 20> H 	 -95.7628 	 45.8783 	 122.243
| 21> H 	 -94.3798 	 44.9402 	 121.9
| 22> H 	 -94.2304 	 46.5591 	 122.711
| 23> S 	 -91.8311 	 53.12 	 120.949
| 24> C 	 -90.0286 	 53.0349 	 120.872
| 25> C 	 -89.6363 	 51.7172 	 121.024
| 26> C 	 -90.6954 	 50.8058 	 121.137
| 27> C 	 -91.9402 	 51.3761 	 121.149
| 28> H 	 -88.6092 	 51.4975 	 120.984
| 29> C 	 -90.441 	 49.2772 	 121.326
| 30> H 	 -90.4382 	 48.8418 	 120.345
| 31> H 	 -91.2912 	 48.7496 	 121.836
| 32> C 	 -89.0695 	 48.8612 	 122.046
| 33> H 	 -89.0339 	 49.4202 	 122.959
| 34> H 	 -88.2211 	 49.2668 	 121.525
| 35> C 	 -88.908 	 47.3501 	 122.352
| 36> H 	 -89.5295 	 46.936 	 123.124
| 37> H 	 -87.9145 	 47.0421 	 122.594
| 38> H 	 -89.0135 	 46.8865 	 121.34
| 39> H 	 -96.6009 	 49.6274 	 122.044
| 40> H 	 -89.3986 	 53.9033 	 120.655
| 41> *
| 42>
| 43>                          ****END OF INPUT****

CARTESIAN COORDINATES (ANGSTROEM)
---------------------------------
  S    -94.563100   51.296800  122.101000
  C    -95.592400   49.920400  121.726000
  C    -94.970100   49.134900  120.790000
  C    -93.589700   49.497000  120.540000
  C    -93.217600   50.665300  121.157000
  H    -92.851400   49.112000  119.899000
  C    -95.576100   47.848600  120.287000
  H    -95.628500   47.917100  119.192000
  H    -96.620500   47.729000  120.621000
  C    -94.772700   46.593900  120.512000
  H    -95.091100   45.775100  119.872000
  H    -93.805300   46.859200  120.205000
  C    -94.748100   45.967500  121.928000
  H    -95.762800   45.878300  122.243000
  H    -94.379800   44.940200  121.900000
  H    -94.230400   46.559100  122.711000
  S    -91.831100   53.120000  120.949000
  C    -90.028600   53.034900  120.872000
  C    -89.636300   51.717200  121.024000
  C    -90.695400   50.805800  121.137000
  C    -91.940200   51.376100  121.149000
  H    -88.609200   51.497500  120.984000
  C    -90.441000   49.277200  121.326000
  H    -90.438200   48.841800  120.345000
  H    -91.291200   48.749600  121.836000
  C    -89.069500   48.861200  122.046000
  H    -89.033900   49.420200  122.959000
  H    -88.221100   49.266800  121.525000
  C    -88.908000   47.350100  122.352000
  H    -89.529500   46.936000  123.124000
  H    -87.914500   47.042100  122.594000
  H    -89.013500   46.886500  121.340000
  H    -96.600900   49.627400  122.044000
  H    -89.398600   53.903300  120.655000

 Total Charge           Charge          ....    0
 Multiplicity           Mult            ....    1
 Number of Electrons    NEL             ....  134
 Basis Dimension        Dim             ....  322

ORBITAL ENERGIES
----------------

  NO   OCC          E(Eh)            E(eV)
   0   2.0000     -88.968088     -2420.9448
   1   2.0000     -88.963981     -2420.8330
   2   2.0000     -10.331853      -281.1440
   3   2.0000     -10.328810      -281.0612
   4   2.0000     -10.326924      -281.0099
   5   2.0000     -10.315485      -280.6986
   6   2.0000     -10.304751      -280.4065
   7   2.0000     -10.302525      -280.3460
   8   2.0000     -10.300204      -280.2828
   9   2.0000     -10.294287      -280.1218
  10   2.0000     -10.293822      -280.1091
  11   2.0000     -10.291139      -280.0361
  12   2.0000     -10.289845      -280.0009
  13   2.0000     -10.281466      -279.7729
  14   2.0000     -10.280678      -279.7515
  15   2.0000     -10.274848      -279.5928
  16   2.0000      -8.081868      -219.9188
  17   2.0000      -8.078456      -219.8260
  18   2.0000      -6.040488      -164.3700
  19   2.0000      -6.037126      -164.2786
  20   2.0000      -6.036556      -164.2630
  21   2.0000      -6.032987      -164.1659
  22   2.0000      -6.032511      -164.1530
  23   2.0000      -6.029052      -164.0588
  24   2.0000      -1.007109       -27.4048
  25   2.0000      -0.984201       -26.7815
  26   2.0000      -0.914476       -24.8842
  27   2.0000      -0.897374       -24.4188
  28   2.0000      -0.873054       -23.7570
  29   2.0000      -0.851340       -23.1661
  30   2.0000      -0.841126       -22.8882
  31   2.0000      -0.820542       -22.3281
  32   2.0000      -0.784361       -21.3436
  33   2.0000      -0.774878       -21.0855
  34   2.0000      -0.713325       -19.4106
  35   2.0000      -0.707189       -19.2436
  36   2.0000      -0.692139       -18.8341
  37   2.0000      -0.659642       -17.9498
  38   2.0000      -0.645056       -17.5529
  39   2.0000      -0.621169       -16.9029
  40   2.0000      -0.597974       -16.2717
  41   2.0000      -0.571965       -15.5640
  42   2.0000      -0.563356       -15.3297
  43   2.0000      -0.549976       -14.9656
  44   2.0000      -0.542191       -14.7538
  45   2.0000      -0.524408       -14.2699
  46   2.0000      -0.518725       -14.1152
  47   2.0000      -0.515274       -14.0213
  48   2.0000      -0.505150       -13.7458
  49   2.0000      -0.498146       -13.5553
  50   2.0000      -0.484971       -13.1967
  51   2.0000      -0.483110       -13.1461
  52   2.0000      -0.474427       -12.9098
  53   2.0000      -0.468078       -12.7370
  54   2.0000      -0.459760       -12.5107
  55   2.0000      -0.454102       -12.3567
  56   2.0000      -0.443558       -12.0698
  57   2.0000      -0.435698       -11.8560
  58   2.0000      -0.431267       -11.7354
  59   2.0000      -0.423620       -11.5273
  60   2.0000      -0.420883       -11.4528
  61   2.0000      -0.417342       -11.3564
  62   2.0000      -0.409788       -11.1509
  63   2.0000      -0.356000        -9.6872
  64   2.0000      -0.335130        -9.1194
  65   2.0000      -0.328682        -8.9439
  66   2.0000      -0.292453        -7.9580
  67   0.0000       0.026507         0.7213
  68   0.0000       0.072477         1.9722
  69   0.0000       0.107772         2.9326
  70   0.0000       0.123993         3.3740
  71   0.0000       0.129928         3.5355

MULLIKEN ATOMIC CHARGES
-----------------------
   0 S :    0.098775
   1 C :   -0.106955
   2 C :   -0.076267
   3 C :    0.016542
   4 C :   -0.155037
   5 H :   -0.000396
   6 C :    0.071403
   7 H :    0.031504
   8 H :    0.012254
   9 C :   -0.061199
  10 H :    0.024741
  11 H :    0.007937
  12 C :   -0.044716
  13 H :    0.010509
  14 H :    0.033539
  15 H :    0.044512
  16 S :    0.098302
  17 C :   -0.107711
  18 C :   -0.015433
  19 C :   -0.029124
  20 C :   -0.121306
  21 H :    0.003928
  22 C :    0.021897
  23 H :    0.031248
  24 H :    0.053437
  25 C :   -0.076384
  26 H :    0.025125
  27 H :    0.025583
  28 C :   -0.031505
  29 H :    0.045350
  30 H :    0.020938
  31 H :    0.027825
  32 H :    0.050100
  33 H :    0.070583
Sum of atomic charges:    0.0000000

LOEWDIN ATOMIC CHARGES
----------------------
   0 S :    0.390931
   1 C :   -0.198209
   2 C :   -0.062208
   3 C :   -0.065009
   4 C :   -0.172686
   5 H :    0.025262
   6 C :   -0.033431
   7 H :    0.037877
   8 H :    0.025794
   9 C :   -0.038809
  10 H :    0.026972
  11 H :    0.013534
  12 C :   -0.066254
  13 H :    0.018014
  14 H :    0.027771
  15 H :    0.028741
  16 S :    0.380400
  17 C :   -0.163635
  18 C :   -0.064845
  19 C :   -0.058180
  20 C :   -0.198040
  21 H :    0.026057
  22 C :   -0.031845
  23 H :    0.023703
  24 H :    0.037944
  25 C :   -0.040563
  26 H :    0.020047
  27 H :    0.018958
  28 C :   -0.064875
  29 H :    0.026423
  30 H :    0.024251
  31 H :    0.031853
  32 H :    0.038451
  33 H :    0.035605

  Mayer bond orders larger than 0.100000
B(  0-S ,  1-C ) :   1.1171 B(  0-S ,  4-C ) :   1.1385 B(  1-C ,  2-C ) :   1.6463
B(  1-C , 32-H ) :   0.9635 B(  2-C ,  3-C ) :   1.1760 B(  2-C ,  6-C ) :   1.0410
B(  3-C ,  4-C ) :   1.6111 B(  3-C ,  5-H ) :   0.9987 B(  4-C , 20-C ) :   1.0378
B(  6-C ,  7-H ) :   0.9248 B(  6-C ,  8-H ) :   0.9436 B(  6-C ,  9-C ) :   1.0829
B(  9-C , 10-H ) :   0.9520 B(  9-C , 11-H ) :   0.9502 B(  9-C , 12-C ) :   1.0744
B( 12-C , 13-H ) :   0.9727 B( 12-C , 14-H ) :   0.9753 B( 12-C , 15-H ) :   0.9770
B( 16-S , 17-C ) :   1.1430 B( 16-S , 20-C ) :   1.1304 B( 17-C , 18-C ) :   1.5957
B( 17-C , 20-C ) :   0.1022 B( 17-C , 33-H ) :   0.9670 B( 18-C , 19-C ) :   1.2529
B( 18-C , 21-H ) :   0.9996 B( 19-C , 20-C ) :   1.6114 B( 19-C , 22-C ) :   1.0208
B( 22-C , 23-H ) :   0.9282 B( 22-C , 24-H ) :   0.9439 B( 22-C , 25-C ) :   1.0545
B( 25-C , 26-H ) :   0.9605 B( 25-C , 27-H ) :   0.9499 B( 25-C , 28-C ) :   1.0830
B( 28-C , 29-H ) :   0.9773 B( 28-C , 30-H ) :   0.9723 B( 28-C , 31-H ) :   0.9739

Dispersion correction           -0.014111617
FINAL SINGLE POINT ENERGY     -1339.877232875741

DIPOLE MOMENT
-------------
                                X             Y             Z
Electronic contribution:     -6.90583      31.31362      -0.90594
Nuclear contribution   :      7.30689     -32.00261       0.67527
                        -----------------------------------------
Total Dipole Moment    :      0.40106      -0.68899      -0.23068
                        -----------------------------------------
Magnitude (a.u.)       :      0.82992
Magnitude (Debye)      :      2.10949

Rotational constants in cm-1:     0.016217     0.009914     0.006649
Rotational constants in MHz :   486.166599   297.221716   199.334650

                             ****ORCA TERMINATED NORMALLY****
TOTAL RUN TIME: 0 days 0 hours 0 minutes 34 seconds 146 msec
