                         Program Version 4.2.1 -  RELEASE  -
|  1> ! wB97X-D3 SP def2-SVP
|  2> %pal
|  3> nprocs 16
|  4> end
|  5>
|  6> * xyz 0 1
|  7> S 	 -14.9262 	 39.0012 	 57.1875
|  8> C 	 -13.6894 	 38.4349 	 56.0044
|  9> C 	 -14.2743 	 37.3201 	 55.4738
| 10> C 	 -15.6008 	 36.9472 	 55.9195
| 11> C 	 -16.1173 	 37.7499 	 56.8874
| 12> H 	 -16.2909 	 36.1226 	 55.6125
| 13> C 	 -13.6143 	 36.4264 	 54.4392
| 14> H 	 -13.763 	 35.3184 	 54.7318
| 15> H 	 -12.5343 	 36.6559 	 54.4069
| 16> C 	 -14.1988 	 36.5501 	 53.0153
| 17> H 	 -13.8003 	 35.7057 	 52.4025
| 18> H 	 -15.3329 	 36.2867 	 53.027
| 19> C 	 -14.1183 	 37.9098 	 52.2615
| 20> H 	 -14.5616 	 37.8082 	 51.2849
| 21> H 	 -14.6461 	 38.7026 	 52.8435
| 22> H 	 -13.1449 	 38.401 	 52.1836
| 23> S 	 -17.7054 	 39.3016 	 58.4445
| 24> C 	 -19.2021 	 38.7041 	 59.1281
| 25> C 	 -19.3151 	 37.3348 	 58.9529
| 26> C 	 -18.237 	 36.781 	 58.1318
| 27> C 	 -17.2541 	 37.7128 	 57.826
| 28> H 	 -20.2732 	 36.8756 	 59.222
| 29> C 	 -18.2815 	 35.3696 	 57.5042
| 30> H 	 -18.3176 	 34.7663 	 58.4194
| 31> H 	 -17.2779 	 35.0508 	 57.1434
| 32> C 	 -19.3819 	 35.1641 	 56.4939
| 33> H 	 -19.2927 	 35.8154 	 55.6483
| 34> H 	 -20.3291 	 35.5015 	 56.8907
| 35> C 	 -19.5734 	 33.6934 	 55.9619
| 36> H 	 -20.0977 	 33.1059 	 56.6914
| 37> H 	 -18.689 	 33.1564 	 55.6481
| 38> H 	 -20.3009 	 33.693 	 55.0777
| 39> H 	 -12.6756 	 38.7611 	 55.8926
| 40> H 	 -20.0163 	 39.3275 	 59.4822
| 41> *
| 42>
| 43>                          ****END OF INPUT****

CARTESIAN COORDINATES (ANGSTROEM)
---------------------------------
  S    -14.926200   39.001200   57.187500
  C    -13.689400   38.434900   56.004400
  C    -14.274300   37.320100   55.473800
  C    -15.600800   36.947200   55.919500
  C    -16.117300   37.749900   56.887400
  H    -16.290900   36.122600   55.612500
  C    -13.614300   36.426400   54.439200
  H    -13.763000   35.318400   54.731800
  H    -12.534300   36.655900   54.406900
  C    -14.198800   36.550100   53.015300
  H    -13.800300   35.705700   52.402500
  H    -15.332900   36.286700   53.027000
  C    -14.118300   37.909800   52.261500
  H    -14.561600   37.808200   51.284900
  H    -14.646100   38.702600   52.843500
  H    -13.144900   38.401000   52.183600
  S    -17.705400   39.301600   58.444500
  C    -19.202100   38.704100   59.128100
  C    -19.315100   37.334800   58.952900
  C    -18.237000   36.781000   58.131800
  C    -17.254100   37.712800   57.826000
  H    -20.273200   36.875600   59.222000
  C    -18.281500   35.369600   57.504200
  H    -18.317600   34.766300   58.419400
  H    -17.277900   35.050800   57.143400
  C    -19.381900   35.164100   56.493900
  H    -19.292700   35.815400   55.648300
  H    -20.329100   35.501500   56.890700
  C    -19.573400   33.693400   55.961900
  H    -20.097700   33.105900   56.691400
  H    -18.689000   33.156400   55.648100
  H    -20.300900   33.693000   55.077700
  H    -12.675600   38.761100   55.892600
  H    -20.016300   39.327500   59.482200

 Total Charge           Charge          ....    0
 Multiplicity           Mult            ....    1
 Number of Electrons    NEL             ....  134
 Basis Dimension        Dim             ....  322

ORBITAL ENERGIES
----------------

  NO   OCC          E(Eh)            E(eV)
   0   2.0000     -88.965616     -2420.8775
   1   2.0000     -88.956097     -2420.6185
   2   2.0000     -10.335436      -281.2415
   3   2.0000     -10.334724      -281.2221
   4   2.0000     -10.324458      -280.9428
   5   2.0000     -10.319821      -280.8166
   6   2.0000     -10.316342      -280.7219
   7   2.0000     -10.305393      -280.4240
   8   2.0000     -10.304564      -280.4014
   9   2.0000     -10.300810      -280.2993
  10   2.0000     -10.299463      -280.2626
  11   2.0000     -10.297630      -280.2128
  12   2.0000     -10.297142      -280.1995
  13   2.0000     -10.292365      -280.0695
  14   2.0000     -10.287593      -279.9396
  15   2.0000     -10.277812      -279.6735
  16   2.0000      -8.080408      -219.8791
  17   2.0000      -8.070770      -219.6168
  18   2.0000      -6.039026      -164.3303
  19   2.0000      -6.034841      -164.2164
  20   2.0000      -6.031062      -164.1135
  21   2.0000      -6.029569      -164.0729
  22   2.0000      -6.025224      -163.9547
  23   2.0000      -6.021200      -163.8452
  24   2.0000      -1.008134       -27.4327
  25   2.0000      -0.983328       -26.7577
  26   2.0000      -0.910306       -24.7707
  27   2.0000      -0.904530       -24.6135
  28   2.0000      -0.869245       -23.6533
  29   2.0000      -0.849762       -23.1232
  30   2.0000      -0.832231       -22.6462
  31   2.0000      -0.822822       -22.3901
  32   2.0000      -0.782839       -21.3021
  33   2.0000      -0.774457       -21.0740
  34   2.0000      -0.714696       -19.4479
  35   2.0000      -0.703501       -19.1432
  36   2.0000      -0.692392       -18.8410
  37   2.0000      -0.659931       -17.9576
  38   2.0000      -0.643696       -17.5159
  39   2.0000      -0.617072       -16.7914
  40   2.0000      -0.595657       -16.2086
  41   2.0000      -0.564511       -15.3611
  42   2.0000      -0.557318       -15.1654
  43   2.0000      -0.545281       -14.8379
  44   2.0000      -0.533953       -14.5296
  45   2.0000      -0.529538       -14.4095
  46   2.0000      -0.521394       -14.1879
  47   2.0000      -0.517787       -14.0897
  48   2.0000      -0.508816       -13.8456
  49   2.0000      -0.504042       -13.7157
  50   2.0000      -0.489490       -13.3197
  51   2.0000      -0.485768       -13.2184
  52   2.0000      -0.474228       -12.9044
  53   2.0000      -0.464738       -12.6462
  54   2.0000      -0.453695       -12.3457
  55   2.0000      -0.451197       -12.2777
  56   2.0000      -0.446518       -12.1504
  57   2.0000      -0.438031       -11.9194
  58   2.0000      -0.431521       -11.7423
  59   2.0000      -0.426140       -11.5959
  60   2.0000      -0.413542       -11.2530
  61   2.0000      -0.406841       -11.0707
  62   2.0000      -0.391381       -10.6500
  63   2.0000      -0.365077        -9.9343
  64   2.0000      -0.333634        -9.0787
  65   2.0000      -0.321527        -8.7492
  66   2.0000      -0.292746        -7.9660
  67   0.0000       0.020404         0.5552
  68   0.0000       0.077637         2.1126
  69   0.0000       0.096961         2.6384
  70   0.0000       0.110378         3.0035
  71   0.0000       0.130086         3.5398

MULLIKEN ATOMIC CHARGES
-----------------------
   0 S :    0.042235
   1 C :   -0.090963
   2 C :   -0.080021
   3 C :   -0.034374
   4 C :   -0.074392
   5 H :    0.028969
   6 C :    0.041150
   7 H :    0.045322
   8 H :    0.024656
   9 C :   -0.117649
  10 H :    0.035810
  11 H :    0.034673
  12 C :   -0.053457
  13 H :    0.040355
  14 H :    0.041561
  15 H :    0.024678
  16 S :    0.089014
  17 C :   -0.091903
  18 C :   -0.036045
  19 C :   -0.098757
  20 C :   -0.081558
  21 H :    0.032447
  22 C :    0.055457
  23 H :    0.029996
  24 H :    0.018077
  25 C :   -0.032404
  26 H :    0.024967
  27 H :    0.016118
  28 C :   -0.064438
  29 H :    0.030509
  30 H :    0.038131
  31 H :    0.038515
  32 H :    0.054121
  33 H :    0.069200
Sum of atomic charges:   -0.0000000

LOEWDIN ATOMIC CHARGES
----------------------
   0 S :    0.365100
   1 C :   -0.179135
   2 C :   -0.064727
   3 C :   -0.089155
   4 C :   -0.169870
   5 H :    0.038754
   6 C :   -0.040007
   7 H :    0.042414
   8 H :    0.027755
   9 C :   -0.052809
  10 H :    0.024958
  11 H :    0.030563
  12 C :   -0.075495
  13 H :    0.027151
  14 H :    0.032636
  15 H :    0.021930
  16 S :    0.398976
  17 C :   -0.177037
  18 C :   -0.076498
  19 C :   -0.049296
  20 C :   -0.193960
  21 H :    0.035797
  22 C :   -0.037726
  23 H :    0.036519
  24 H :    0.030237
  25 C :   -0.039493
  26 H :    0.024336
  27 H :    0.025038
  28 C :   -0.066993
  29 H :    0.021616
  30 H :    0.022513
  31 H :    0.035788
  32 H :    0.035130
  33 H :    0.034987

  Mayer bond orders larger than 0.100000
B(  0-S ,  1-C ) :   1.0952 B(  0-S ,  4-C ) :   1.1357 B(  1-C ,  2-C ) :   1.6284
B(  1-C , 32-H ) :   0.9807 B(  2-C ,  3-C ) :   1.1856 B(  2-C ,  6-C ) :   1.0340
B(  3-C ,  4-C ) :   1.6338 B(  3-C ,  5-H ) :   0.9806 B(  4-C , 20-C ) :   1.0194
B(  6-C ,  7-H ) :   0.9410 B(  6-C ,  8-H ) :   0.9443 B(  6-C ,  9-C ) :   1.0672
B(  9-C , 10-H ) :   0.9574 B(  9-C , 11-H ) :   0.9539 B(  9-C , 12-C ) :   1.0654
B( 12-C , 13-H ) :   0.9742 B( 12-C , 14-H ) :   0.9723 B( 12-C , 15-H ) :   0.9763
B( 16-S , 17-C ) :   1.1600 B( 16-S , 20-C ) :   1.1199 B( 17-C , 18-C ) :   1.6269
B( 17-C , 33-H ) :   0.9658 B( 18-C , 19-C ) :   1.2156 B( 18-C , 21-H ) :   0.9858
B( 19-C , 20-C ) :   1.6387 B( 19-C , 22-C ) :   1.0257 B( 22-C , 23-H ) :   0.9308
B( 22-C , 24-H ) :   0.9396 B( 22-C , 25-C ) :   1.0524 B( 25-C , 26-H ) :   0.9552
B( 25-C , 27-H ) :   0.9524 B( 25-C , 28-C ) :   1.0734 B( 28-C , 29-H ) :   0.9781
B( 28-C , 30-H ) :   0.9789 B( 28-C , 31-H ) :   0.9759

Dispersion correction           -0.014081473
FINAL SINGLE POINT ENERGY     -1339.865103716875

DIPOLE MOMENT
-------------
                                X             Y             Z
Electronic contribution:      2.67625      20.25324      20.73173
Nuclear contribution   :     -3.08557     -20.86917     -21.07485
                        -----------------------------------------
Total Dipole Moment    :     -0.40931      -0.61593      -0.34312
                        -----------------------------------------
Magnitude (a.u.)       :      0.81525
Magnitude (Debye)      :      2.07221

Rotational constants in cm-1:     0.017312     0.009218     0.006529
Rotational constants in MHz :   519.009624   276.356555   195.737482

                             ****ORCA TERMINATED NORMALLY****
TOTAL RUN TIME: 0 days 0 hours 0 minutes 34 seconds 168 msec
