                         Program Version 4.2.1 -  RELEASE  -
|  1> ! wB97X-D3 SP def2-SVP
|  2> %pal
|  3> nprocs 16
|  4> end
|  5>
|  6> * xyz 0 1
|  7> S 	 -47.8595 	 60.6151 	 129.505
|  8> C 	 -47.0948 	 59.5018 	 128.524
|  9> C 	 -45.8737 	 59.1225 	 129.07
| 10> C 	 -45.5379 	 59.8263 	 130.29
| 11> C 	 -46.521 	 60.656 	 130.686
| 12> H 	 -44.6779 	 59.7399 	 130.806
| 13> C 	 -45.0432 	 58.043 	 128.511
| 14> H 	 -44.0592 	 58.4247 	 128.531
| 15> H 	 -45.1786 	 57.9058 	 127.443
| 16> C 	 -45.0371 	 56.6253 	 129.165
| 17> H 	 -44.5425 	 55.9336 	 128.439
| 18> H 	 -44.4457 	 56.5115 	 130.096
| 19> C 	 -46.3818 	 55.816 	 129.327
| 20> H 	 -47.0476 	 55.7666 	 128.456
| 21> H 	 -46.1718 	 54.7577 	 129.48
| 22> H 	 -47.0126 	 56.4155 	 130.053
| 23> S 	 -45.3002 	 62.813 	 131.828
| 24> C 	 -45.3899 	 63.1132 	 133.584
| 25> C 	 -46.3765 	 62.296 	 134.121
| 26> C 	 -47.0107 	 61.3757 	 133.16
| 27> C 	 -46.4792 	 61.5276 	 131.868
| 28> H 	 -46.6011 	 62.327 	 135.203
| 29> C 	 -48.2059 	 60.4916 	 133.627
| 30> H 	 -48.6868 	 60.9871 	 134.456
| 31> H 	 -47.7301 	 59.622 	 134.125
| 32> C 	 -49.2207 	 60.1532 	 132.631
| 33> H 	 -48.7546 	 59.558 	 131.875
| 34> H 	 -49.3769 	 61.0683 	 132.079
| 35> C 	 -50.5884 	 59.6487 	 133.089
| 36> H 	 -51.2658 	 60.4347 	 133.53
| 37> H 	 -50.5368 	 58.9312 	 133.92
| 38> H 	 -51.1579 	 59.1749 	 132.348
| 39> H 	 -47.4221 	 59.0257 	 127.616
| 40> H 	 -44.8836 	 63.839 	 134.156
| 41> *
| 42>
| 43>                          ****END OF INPUT****

CARTESIAN COORDINATES (ANGSTROEM)
---------------------------------
  S    -47.859500   60.615100  129.505000
  C    -47.094800   59.501800  128.524000
  C    -45.873700   59.122500  129.070000
  C    -45.537900   59.826300  130.290000
  C    -46.521000   60.656000  130.686000
  H    -44.677900   59.739900  130.806000
  C    -45.043200   58.043000  128.511000
  H    -44.059200   58.424700  128.531000
  H    -45.178600   57.905800  127.443000
  C    -45.037100   56.625300  129.165000
  H    -44.542500   55.933600  128.439000
  H    -44.445700   56.511500  130.096000
  C    -46.381800   55.816000  129.327000
  H    -47.047600   55.766600  128.456000
  H    -46.171800   54.757700  129.480000
  H    -47.012600   56.415500  130.053000
  S    -45.300200   62.813000  131.828000
  C    -45.389900   63.113200  133.584000
  C    -46.376500   62.296000  134.121000
  C    -47.010700   61.375700  133.160000
  C    -46.479200   61.527600  131.868000
  H    -46.601100   62.327000  135.203000
  C    -48.205900   60.491600  133.627000
  H    -48.686800   60.987100  134.456000
  H    -47.730100   59.622000  134.125000
  C    -49.220700   60.153200  132.631000
  H    -48.754600   59.558000  131.875000
  H    -49.376900   61.068300  132.079000
  C    -50.588400   59.648700  133.089000
  H    -51.265800   60.434700  133.530000
  H    -50.536800   58.931200  133.920000
  H    -51.157900   59.174900  132.348000
  H    -47.422100   59.025700  127.616000
  H    -44.883600   63.839000  134.156000

 Total Charge           Charge          ....    0
 Multiplicity           Mult            ....    1
 Number of Electrons    NEL             ....  134
 Basis Dimension        Dim             ....  322

ORBITAL ENERGIES
----------------

  NO   OCC          E(Eh)            E(eV)
   0   2.0000     -88.965302     -2420.8689
   1   2.0000     -88.965197     -2420.8661
   2   2.0000     -10.330302      -281.1018
   3   2.0000     -10.329387      -281.0769
   4   2.0000     -10.320617      -280.8383
   5   2.0000     -10.313465      -280.6436
   6   2.0000     -10.309552      -280.5372
   7   2.0000     -10.301655      -280.3223
   8   2.0000     -10.296297      -280.1765
   9   2.0000     -10.294981      -280.1407
  10   2.0000     -10.290226      -280.0113
  11   2.0000     -10.287334      -279.9326
  12   2.0000     -10.286799      -279.9180
  13   2.0000     -10.283160      -279.8190
  14   2.0000     -10.276753      -279.6447
  15   2.0000     -10.272818      -279.5376
  16   2.0000      -8.080500      -219.8816
  17   2.0000      -8.079344      -219.8501
  18   2.0000      -6.039013      -164.3299
  19   2.0000      -6.038043      -164.3035
  20   2.0000      -6.034737      -164.2135
  21   2.0000      -6.033778      -164.1875
  22   2.0000      -6.031403      -164.1228
  23   2.0000      -6.030075      -164.0867
  24   2.0000      -1.008596       -27.4453
  25   2.0000      -0.982119       -26.7248
  26   2.0000      -0.912519       -24.8309
  27   2.0000      -0.905065       -24.6281
  28   2.0000      -0.875222       -23.8160
  29   2.0000      -0.847594       -23.0642
  30   2.0000      -0.842249       -22.9188
  31   2.0000      -0.819712       -22.3055
  32   2.0000      -0.783629       -21.3236
  33   2.0000      -0.773073       -21.0364
  34   2.0000      -0.714449       -19.4412
  35   2.0000      -0.694881       -18.9087
  36   2.0000      -0.692931       -18.8556
  37   2.0000      -0.659967       -17.9586
  38   2.0000      -0.651541       -17.7293
  39   2.0000      -0.619152       -16.8480
  40   2.0000      -0.592451       -16.1214
  41   2.0000      -0.570166       -15.5150
  42   2.0000      -0.564844       -15.3702
  43   2.0000      -0.548947       -14.9376
  44   2.0000      -0.541947       -14.7471
  45   2.0000      -0.522481       -14.2174
  46   2.0000      -0.519300       -14.1309
  47   2.0000      -0.511790       -13.9265
  48   2.0000      -0.507384       -13.8066
  49   2.0000      -0.500130       -13.6092
  50   2.0000      -0.490668       -13.3518
  51   2.0000      -0.485728       -13.2173
  52   2.0000      -0.477089       -12.9823
  53   2.0000      -0.464731       -12.6460
  54   2.0000      -0.459765       -12.5108
  55   2.0000      -0.448007       -12.1909
  56   2.0000      -0.445653       -12.1268
  57   2.0000      -0.437851       -11.9145
  58   2.0000      -0.431238       -11.7346
  59   2.0000      -0.419134       -11.4052
  60   2.0000      -0.417343       -11.3565
  61   2.0000      -0.402927       -10.9642
  62   2.0000      -0.398653       -10.8479
  63   2.0000      -0.346334        -9.4242
  64   2.0000      -0.331407        -9.0181
  65   2.0000      -0.319440        -8.6924
  66   2.0000      -0.302462        -8.2304
  67   0.0000       0.041666         1.1338
  68   0.0000       0.059750         1.6259
  69   0.0000       0.111831         3.0431
  70   0.0000       0.118187         3.2160
  71   0.0000       0.129946         3.5360

MULLIKEN ATOMIC CHARGES
-----------------------
   0 S :    0.113673
   1 C :   -0.077275
   2 C :   -0.130801
   3 C :    0.104406
   4 C :   -0.163909
   5 H :   -0.032314
   6 C :    0.106615
   7 H :    0.012932
   8 H :    0.011802
   9 C :   -0.097721
  10 H :    0.026562
  11 H :    0.040672
  12 C :   -0.082284
  13 H :    0.017998
  14 H :    0.043245
  15 H :    0.050073
  16 S :    0.105852
  17 C :   -0.076541
  18 C :   -0.050903
  19 C :   -0.041573
  20 C :   -0.181944
  21 H :    0.034198
  22 C :    0.102859
  23 H :    0.009488
  24 H :    0.033000
  25 C :   -0.072356
  26 H :    0.035843
  27 H :    0.021520
  28 C :   -0.026024
  29 H :    0.032611
  30 H :    0.019665
  31 H :    0.024949
  32 H :    0.040290
  33 H :    0.045389
Sum of atomic charges:    0.0000000

LOEWDIN ATOMIC CHARGES
----------------------
   0 S :    0.435441
   1 C :   -0.216377
   2 C :   -0.070793
   3 C :   -0.034226
   4 C :   -0.187970
   5 H :    0.015794
   6 C :   -0.039050
   7 H :    0.030832
   8 H :    0.031919
   9 C :   -0.045591
  10 H :    0.028422
  11 H :    0.026166
  12 C :   -0.079442
  13 H :    0.020900
  14 H :    0.029668
  15 H :    0.031800
  16 S :    0.400533
  17 C :   -0.173522
  18 C :   -0.072604
  19 C :   -0.044143
  20 C :   -0.210238
  21 H :    0.035475
  22 C :   -0.029591
  23 H :    0.026944
  24 H :    0.035989
  25 C :   -0.056269
  26 H :    0.015606
  27 H :    0.022789
  28 C :   -0.062806
  29 H :    0.031828
  30 H :    0.023823
  31 H :    0.021945
  32 H :    0.032028
  33 H :    0.024719

  Mayer bond orders larger than 0.100000
B(  0-S ,  1-C ) :   1.1541 B(  0-S ,  4-C ) :   1.1367 B(  1-C ,  2-C ) :   1.6000
B(  1-C , 32-H ) :   0.9684 B(  2-C ,  3-C ) :   1.2140 B(  2-C ,  6-C ) :   1.0512
B(  3-C ,  4-C ) :   1.6015 B(  3-C ,  5-H ) :   1.0208 B(  4-C , 20-C ) :   0.9990
B(  6-C ,  7-H ) :   0.9248 B(  6-C ,  8-H ) :   0.9366 B(  6-C ,  9-C ) :   1.0658
B(  9-C , 10-H ) :   0.9580 B(  9-C , 11-H ) :   0.9597 B(  9-C , 12-C ) :   1.0639
B( 12-C , 13-H ) :   0.9752 B( 12-C , 14-H ) :   0.9755 B( 12-C , 15-H ) :   0.9753
B( 16-S , 17-C ) :   1.1416 B( 16-S , 20-C ) :   1.1413 B( 17-C , 18-C ) :   1.6248
B( 17-C , 33-H ) :   0.9734 B( 18-C , 19-C ) :   1.2414 B( 18-C , 21-H ) :   0.9792
B( 19-C , 20-C ) :   1.5986 B( 19-C , 22-C ) :   1.0186 B( 22-C , 23-H ) :   0.9437
B( 22-C , 24-H ) :   0.9123 B( 22-C , 25-C ) :   1.0774 B( 25-C , 26-H ) :   0.9426
B( 25-C , 27-H ) :   0.9525 B( 25-C , 28-C ) :   1.0842 B( 28-C , 29-H ) :   0.9718
B( 28-C , 30-H ) :   0.9759 B( 28-C , 31-H ) :   0.9730

Dispersion correction           -0.014760568
FINAL SINGLE POINT ENERGY     -1339.857182729489

DIPOLE MOMENT
-------------
                                X             Y             Z
Electronic contribution:      7.61896      22.61030      -2.32870
Nuclear contribution   :     -7.54093     -23.07023       2.52217
                        -----------------------------------------
Total Dipole Moment    :      0.07803      -0.45993       0.19348
                        -----------------------------------------
Magnitude (a.u.)       :      0.50503
Magnitude (Debye)      :      1.28368

Rotational constants in cm-1:     0.017853     0.009116     0.007423
Rotational constants in MHz :   535.222164   273.305176   222.537887

                             ****ORCA TERMINATED NORMALLY****
TOTAL RUN TIME: 0 days 0 hours 0 minutes 35 seconds 375 msec
