                         Program Version 4.2.1 -  RELEASE  -
|  1> ! wB97X-D3 SP def2-SVP
|  2> %pal
|  3> nprocs 16
|  4> end
|  5>
|  6> * xyz 0 1
|  7> S 	 -2.86676 	 -16.0489 	 89.7255
|  8> C 	 -4.25916 	 -16.5388 	 90.6557
|  9> C 	 -5.31651 	 -16.9508 	 89.8541
| 10> C 	 -4.91064 	 -17.0674 	 88.4884
| 11> C 	 -3.59712 	 -16.6406 	 88.2166
| 12> H 	 -5.49575 	 -17.4018 	 87.6905
| 13> C 	 -6.65524 	 -17.4181 	 90.3203
| 14> H 	 -6.60355 	 -17.587 	 91.4218
| 15> H 	 -6.83363 	 -18.5135 	 89.9674
| 16> C 	 -7.84787 	 -16.5036 	 90.0579
| 17> H 	 -7.70254 	 -15.4627 	 90.5064
| 18> H 	 -8.01491 	 -16.2599 	 88.9931
| 19> C 	 -9.08922 	 -17.2534 	 90.3566
| 20> H 	 -9.13309 	 -17.5542 	 91.4124
| 21> H 	 -9.90037 	 -16.6255 	 90.1866
| 22> H 	 -9.11144 	 -18.1805 	 89.7478
| 23> S 	 -2.14166 	 -14.9145 	 86.4778
| 24> C 	 -1.63581 	 -15.5029 	 84.9243
| 25> C 	 -2.0198 	 -16.8333 	 84.7725
| 26> C 	 -2.85922 	 -17.3197 	 85.8018
| 27> C 	 -2.93789 	 -16.4481 	 86.9064
| 28> H 	 -1.87402 	 -17.4043 	 83.8642
| 29> C 	 -3.43431 	 -18.7398 	 85.8243
| 30> H 	 -3.60356 	 -18.9918 	 86.9139
| 31> H 	 -2.70167 	 -19.3613 	 85.4666
| 32> C 	 -4.78554 	 -18.9347 	 85.1185
| 33> H 	 -5.47297 	 -18.3064 	 85.5323
| 34> H 	 -5.26889 	 -19.9264 	 85.2106
| 35> C 	 -4.64649 	 -18.6923 	 83.6197
| 36> H 	 -5.67532 	 -18.7301 	 83.0922
| 37> H 	 -3.95318 	 -19.4392 	 83.1795
| 38> H 	 -4.13474 	 -17.7584 	 83.3128
| 39> H 	 -4.31623 	 -16.4534 	 91.7601
| 40> H 	 -0.952758 	 -14.9643 	 84.2118
| 41> *
| 42>
| 43>                          ****END OF INPUT****

CARTESIAN COORDINATES (ANGSTROEM)
---------------------------------
  S     -2.866760  -16.048900   89.725500
  C     -4.259160  -16.538800   90.655700
  C     -5.316510  -16.950800   89.854100
  C     -4.910640  -17.067400   88.488400
  C     -3.597120  -16.640600   88.216600
  H     -5.495750  -17.401800   87.690500
  C     -6.655240  -17.418100   90.320300
  H     -6.603550  -17.587000   91.421800
  H     -6.833630  -18.513500   89.967400
  C     -7.847870  -16.503600   90.057900
  H     -7.702540  -15.462700   90.506400
  H     -8.014910  -16.259900   88.993100
  C     -9.089220  -17.253400   90.356600
  H     -9.133090  -17.554200   91.412400
  H     -9.900370  -16.625500   90.186600
  H     -9.111440  -18.180500   89.747800
  S     -2.141660  -14.914500   86.477800
  C     -1.635810  -15.502900   84.924300
  C     -2.019800  -16.833300   84.772500
  C     -2.859220  -17.319700   85.801800
  C     -2.937890  -16.448100   86.906400
  H     -1.874020  -17.404300   83.864200
  C     -3.434310  -18.739800   85.824300
  H     -3.603560  -18.991800   86.913900
  H     -2.701670  -19.361300   85.466600
  C     -4.785540  -18.934700   85.118500
  H     -5.472970  -18.306400   85.532300
  H     -5.268890  -19.926400   85.210600
  C     -4.646490  -18.692300   83.619700
  H     -5.675320  -18.730100   83.092200
  H     -3.953180  -19.439200   83.179500
  H     -4.134740  -17.758400   83.312800
  H     -4.316230  -16.453400   91.760100
  H     -0.952758  -14.964300   84.211800

 Total Charge           Charge          ....    0
 Multiplicity           Mult            ....    1
 Number of Electrons    NEL             ....  134
 Basis Dimension        Dim             ....  322

ORBITAL ENERGIES
----------------

  NO   OCC          E(Eh)            E(eV)
   0   2.0000     -88.968832     -2420.9650
   1   2.0000     -88.968689     -2420.9611
   2   2.0000     -10.337258      -281.2911
   3   2.0000     -10.333566      -281.1906
   4   2.0000     -10.324256      -280.9373
   5   2.0000     -10.320315      -280.8300
   6   2.0000     -10.303801      -280.3807
   7   2.0000     -10.303013      -280.3592
   8   2.0000     -10.301553      -280.3195
   9   2.0000     -10.295350      -280.1507
  10   2.0000     -10.294666      -280.1321
  11   2.0000     -10.290410      -280.0163
  12   2.0000     -10.288452      -279.9630
  13   2.0000     -10.283845      -279.8377
  14   2.0000     -10.282367      -279.7974
  15   2.0000     -10.274213      -279.5756
  16   2.0000      -8.083011      -219.9499
  17   2.0000      -8.082949      -219.9482
  18   2.0000      -6.041527      -164.3983
  19   2.0000      -6.041495      -164.3974
  20   2.0000      -6.037484      -164.2883
  21   2.0000      -6.037467      -164.2878
  22   2.0000      -6.033915      -164.1912
  23   2.0000      -6.033743      -164.1865
  24   2.0000      -1.002009       -27.2660
  25   2.0000      -0.982924       -26.7467
  26   2.0000      -0.918480       -24.9931
  27   2.0000      -0.910821       -24.7847
  28   2.0000      -0.870035       -23.6749
  29   2.0000      -0.853521       -23.2255
  30   2.0000      -0.845859       -23.0170
  31   2.0000      -0.813072       -22.1248
  32   2.0000      -0.780943       -21.2505
  33   2.0000      -0.767625       -20.8881
  34   2.0000      -0.709429       -19.3045
  35   2.0000      -0.697956       -18.9923
  36   2.0000      -0.691810       -18.8251
  37   2.0000      -0.661573       -18.0023
  38   2.0000      -0.643765       -17.5177
  39   2.0000      -0.621153       -16.9024
  40   2.0000      -0.593238       -16.1428
  41   2.0000      -0.573313       -15.6007
  42   2.0000      -0.561315       -15.2742
  43   2.0000      -0.552168       -15.0252
  44   2.0000      -0.543994       -14.8028
  45   2.0000      -0.532311       -14.4849
  46   2.0000      -0.515705       -14.0331
  47   2.0000      -0.508936       -13.8489
  48   2.0000      -0.506100       -13.7717
  49   2.0000      -0.499958       -13.6045
  50   2.0000      -0.485621       -13.2144
  51   2.0000      -0.481805       -13.1106
  52   2.0000      -0.472135       -12.8474
  53   2.0000      -0.465168       -12.6579
  54   2.0000      -0.453378       -12.3371
  55   2.0000      -0.449204       -12.2235
  56   2.0000      -0.448220       -12.1967
  57   2.0000      -0.443836       -12.0774
  58   2.0000      -0.433269       -11.7898
  59   2.0000      -0.422745       -11.5035
  60   2.0000      -0.418050       -11.3757
  61   2.0000      -0.415166       -11.2972
  62   2.0000      -0.407570       -11.0905
  63   2.0000      -0.349801        -9.5186
  64   2.0000      -0.333566        -9.0768
  65   2.0000      -0.331295        -9.0150
  66   2.0000      -0.288813        -7.8590
  67   0.0000       0.024235         0.6595
  68   0.0000       0.066750         1.8164
  69   0.0000       0.114829         3.1246
  70   0.0000       0.119482         3.2513
  71   0.0000       0.124602         3.3906

MULLIKEN ATOMIC CHARGES
-----------------------
   0 S :    0.108295
   1 C :   -0.128175
   2 C :   -0.048999
   3 C :    0.062818
   4 C :   -0.158752
   5 H :   -0.025060
   6 C :   -0.009564
   7 H :    0.020966
   8 H :    0.044326
   9 C :   -0.089511
  10 H :    0.045779
  11 H :    0.028105
  12 C :   -0.007293
  13 H :    0.020554
  14 H :    0.021536
  15 H :    0.035007
  16 S :    0.112270
  17 C :   -0.115640
  18 C :   -0.021609
  19 C :   -0.065706
  20 C :   -0.141741
  21 H :    0.020805
  22 C :    0.060882
  23 H :    0.040930
  24 H :    0.007440
  25 C :    0.003633
  26 H :    0.003049
  27 H :    0.033980
  28 C :   -0.114744
  29 H :    0.047721
  30 H :    0.025563
  31 H :    0.038907
  32 H :    0.061799
  33 H :    0.082429
Sum of atomic charges:   -0.0000000

LOEWDIN ATOMIC CHARGES
----------------------
   0 S :    0.400179
   1 C :   -0.197826
   2 C :   -0.070186
   3 C :   -0.048242
   4 C :   -0.183974
   5 H :    0.018527
   6 C :   -0.044293
   7 H :    0.032415
   8 H :    0.041648
   9 C :   -0.051763
  10 H :    0.035095
  11 H :    0.026075
  12 C :   -0.058294
  13 H :    0.022023
  14 H :    0.017791
  15 H :    0.031286
  16 S :    0.405610
  17 C :   -0.200469
  18 C :   -0.076582
  19 C :   -0.055644
  20 C :   -0.193572
  21 H :    0.029561
  22 C :   -0.022803
  23 H :    0.039622
  24 H :    0.016520
  25 C :   -0.035557
  26 H :    0.006950
  27 H :    0.031985
  28 C :   -0.078974
  29 H :    0.034739
  30 H :    0.023513
  31 H :    0.024143
  32 H :    0.035759
  33 H :    0.044738

  Mayer bond orders larger than 0.100000
B(  0-S ,  1-C ) :   1.1475 B(  0-S ,  4-C ) :   1.1459 B(  1-C ,  2-C ) :   1.5976
B(  1-C , 32-H ) :   0.9604 B(  2-C ,  3-C ) :   1.2508 B(  2-C ,  6-C ) :   1.0262
B(  3-C ,  4-C ) :   1.5449 B(  3-C ,  5-H ) :   1.0033 B(  4-C , 20-C ) :   1.0553
B(  6-C ,  7-H ) :   0.9400 B(  6-C ,  8-H ) :   0.9457 B(  6-C ,  9-C ) :   1.0536
B(  9-C , 10-H ) :   0.9485 B(  9-C , 11-H ) :   0.9570 B(  9-C , 12-C ) :   1.0796
B( 12-C , 13-H ) :   0.9712 B( 12-C , 14-H ) :   0.9709 B( 12-C , 15-H ) :   0.9715
B( 16-S , 17-C ) :   1.1659 B( 16-S , 20-C ) :   1.1450 B( 17-C , 18-C ) :   1.5713
B( 17-C , 20-C ) :   0.1058 B( 17-C , 33-H ) :   0.9607 B( 18-C , 19-C ) :   1.2853
B( 18-C , 21-H ) :   0.9807 B( 19-C , 20-C ) :   1.5638 B( 19-C , 22-C ) :   1.0328
B( 22-C , 23-H ) :   0.9319 B( 22-C , 24-H ) :   0.9443 B( 22-C , 25-C ) :   1.0668
B( 25-C , 26-H ) :   0.9488 B( 25-C , 27-H ) :   0.9521 B( 25-C , 28-C ) :   1.0762
B( 28-C , 29-H ) :   0.9714 B( 28-C , 30-H ) :   0.9748 B( 28-C , 31-H ) :   0.9726

Dispersion correction           -0.014177501
FINAL SINGLE POINT ENERGY     -1339.874517742087

DIPOLE MOMENT
-------------
                                X             Y             Z
Electronic contribution:     24.59665      15.22317       4.66570
Nuclear contribution   :    -25.10260     -15.58187      -4.76273
                        -----------------------------------------
Total Dipole Moment    :     -0.50596      -0.35870      -0.09703
                        -----------------------------------------
Magnitude (a.u.)       :      0.62775
Magnitude (Debye)      :      1.59562

Rotational constants in cm-1:     0.018474     0.008467     0.006450
Rotational constants in MHz :   553.822342   253.836618   193.371742

                             ****ORCA TERMINATED NORMALLY****
TOTAL RUN TIME: 0 days 0 hours 0 minutes 33 seconds 501 msec
