                         Program Version 4.2.1 -  RELEASE  -
|  1> ! wB97X-D3 SP def2-SVP
|  2> %pal
|  3> nprocs 16
|  4> end
|  5>
|  6> * xyz 0 1
|  7> S 	 -53.771 	 59.3856 	 133.671
|  8> C 	 -52.9845 	 59.6675 	 132.143
|  9> C 	 -52.5604 	 60.9742 	 131.941
| 10> C 	 -53.1333 	 61.8163 	 132.989
| 11> C 	 -53.6831 	 61.084 	 133.972
| 12> H 	 -53.1326 	 62.9071 	 133.063
| 13> C 	 -51.8045 	 61.5791 	 130.768
| 14> H 	 -52.4397 	 62.4288 	 130.731
| 15> H 	 -51.9212 	 61.021 	 129.805
| 16> C 	 -50.3233 	 61.7101 	 130.968
| 17> H 	 -50.0329 	 62.3644 	 131.793
| 18> H 	 -49.9718 	 60.7357 	 131.35
| 19> C 	 -49.6548 	 61.999 	 129.615
| 20> H 	 -48.6069 	 61.8866 	 129.719
| 21> H 	 -50.0255 	 61.3623 	 128.773
| 22> H 	 -49.8655 	 63.1078 	 129.369
| 23> S 	 -55.9506 	 60.8424 	 135.522
| 24> C 	 -56.0688 	 61.5442 	 137.12
| 25> C 	 -54.9631 	 62.2784 	 137.365
| 26> C 	 -53.9604 	 62.3011 	 136.307
| 27> C 	 -54.3637 	 61.4965 	 135.207
| 28> H 	 -54.9021 	 62.7299 	 138.394
| 29> C 	 -52.7879 	 63.1914 	 136.34
| 30> H 	 -53.0806 	 64.0321 	 136.945
| 31> H 	 -52.6068 	 63.6781 	 135.424
| 32> C 	 -51.4492 	 62.611 	 136.942
| 33> H 	 -51.7418 	 61.587 	 137.347
| 34> H 	 -51.1371 	 63.2959 	 137.776
| 35> C 	 -50.4389 	 62.538 	 135.846
| 36> H 	 -50.3452 	 63.513 	 135.46
| 37> H 	 -50.7456 	 61.7589 	 135.082
| 38> H 	 -49.4483 	 62.2828 	 136.197
| 39> H 	 -52.8902 	 58.9143 	 131.385
| 40> H 	 -56.881 	 61.3795 	 137.768
| 41> *
| 42>
| 43>                          ****END OF INPUT****

CARTESIAN COORDINATES (ANGSTROEM)
---------------------------------
  S    -53.771000   59.385600  133.671000
  C    -52.984500   59.667500  132.143000
  C    -52.560400   60.974200  131.941000
  C    -53.133300   61.816300  132.989000
  C    -53.683100   61.084000  133.972000
  H    -53.132600   62.907100  133.063000
  C    -51.804500   61.579100  130.768000
  H    -52.439700   62.428800  130.731000
  H    -51.921200   61.021000  129.805000
  C    -50.323300   61.710100  130.968000
  H    -50.032900   62.364400  131.793000
  H    -49.971800   60.735700  131.350000
  C    -49.654800   61.999000  129.615000
  H    -48.606900   61.886600  129.719000
  H    -50.025500   61.362300  128.773000
  H    -49.865500   63.107800  129.369000
  S    -55.950600   60.842400  135.522000
  C    -56.068800   61.544200  137.120000
  C    -54.963100   62.278400  137.365000
  C    -53.960400   62.301100  136.307000
  C    -54.363700   61.496500  135.207000
  H    -54.902100   62.729900  138.394000
  C    -52.787900   63.191400  136.340000
  H    -53.080600   64.032100  136.945000
  H    -52.606800   63.678100  135.424000
  C    -51.449200   62.611000  136.942000
  H    -51.741800   61.587000  137.347000
  H    -51.137100   63.295900  137.776000
  C    -50.438900   62.538000  135.846000
  H    -50.345200   63.513000  135.460000
  H    -50.745600   61.758900  135.082000
  H    -49.448300   62.282800  136.197000
  H    -52.890200   58.914300  131.385000
  H    -56.881000   61.379500  137.768000

 Total Charge           Charge          ....    0
 Multiplicity           Mult            ....    1
 Number of Electrons    NEL             ....  134
 Basis Dimension        Dim             ....  322

ORBITAL ENERGIES
----------------

  NO   OCC          E(Eh)            E(eV)
   0   2.0000     -88.965027     -2420.8615
   1   2.0000     -88.959997     -2420.7246
   2   2.0000     -10.327216      -281.0178
   3   2.0000     -10.323952      -280.9290
   4   2.0000     -10.310588      -280.5654
   5   2.0000     -10.310243      -280.5560
   6   2.0000     -10.305340      -280.4226
   7   2.0000     -10.304299      -280.3942
   8   2.0000     -10.295768      -280.1621
   9   2.0000     -10.295042      -280.1423
  10   2.0000     -10.290924      -280.0303
  11   2.0000     -10.289747      -279.9982
  12   2.0000     -10.288426      -279.9623
  13   2.0000     -10.286751      -279.9167
  14   2.0000     -10.280129      -279.7365
  15   2.0000     -10.271710      -279.5074
  16   2.0000      -8.080614      -219.8847
  17   2.0000      -8.075066      -219.7337
  18   2.0000      -6.039036      -164.3305
  19   2.0000      -6.035162      -164.2251
  20   2.0000      -6.033566      -164.1817
  21   2.0000      -6.031225      -164.1180
  22   2.0000      -6.029396      -164.0682
  23   2.0000      -6.025923      -163.9737
  24   2.0000      -1.009539       -27.4709
  25   2.0000      -0.983647       -26.7664
  26   2.0000      -0.918308       -24.9884
  27   2.0000      -0.910200       -24.7678
  28   2.0000      -0.869540       -23.6614
  29   2.0000      -0.853550       -23.2263
  30   2.0000      -0.846540       -23.0355
  31   2.0000      -0.817903       -22.2563
  32   2.0000      -0.780848       -21.2479
  33   2.0000      -0.768562       -20.9136
  34   2.0000      -0.705954       -19.2100
  35   2.0000      -0.699091       -19.0232
  36   2.0000      -0.690042       -18.7770
  37   2.0000      -0.656507       -17.8645
  38   2.0000      -0.643869       -17.5206
  39   2.0000      -0.623840       -16.9755
  40   2.0000      -0.601626       -16.3711
  41   2.0000      -0.565533       -15.3889
  42   2.0000      -0.562473       -15.3057
  43   2.0000      -0.559062       -15.2129
  44   2.0000      -0.531166       -14.4538
  45   2.0000      -0.527407       -14.3515
  46   2.0000      -0.517757       -14.0889
  47   2.0000      -0.508630       -13.8405
  48   2.0000      -0.501105       -13.6358
  49   2.0000      -0.495924       -13.4948
  50   2.0000      -0.492304       -13.3963
  51   2.0000      -0.487719       -13.2715
  52   2.0000      -0.469637       -12.7795
  53   2.0000      -0.465545       -12.6681
  54   2.0000      -0.458665       -12.4809
  55   2.0000      -0.449257       -12.2249
  56   2.0000      -0.443997       -12.0818
  57   2.0000      -0.436289       -11.8720
  58   2.0000      -0.431267       -11.7354
  59   2.0000      -0.428960       -11.6726
  60   2.0000      -0.419131       -11.4051
  61   2.0000      -0.409868       -11.1531
  62   2.0000      -0.405667       -11.0388
  63   2.0000      -0.347084        -9.4446
  64   2.0000      -0.329591        -8.9686
  65   2.0000      -0.324431        -8.8282
  66   2.0000      -0.293807        -7.9949
  67   0.0000       0.033120         0.9012
  68   0.0000       0.076285         2.0758
  69   0.0000       0.112424         3.0592
  70   0.0000       0.117025         3.1844
  71   0.0000       0.126818         3.4509

MULLIKEN ATOMIC CHARGES
-----------------------
   0 S :    0.119342
   1 C :   -0.114469
   2 C :   -0.104278
   3 C :    0.010163
   4 C :   -0.133857
   5 H :    0.023214
   6 C :    0.071457
   7 H :    0.024182
   8 H :    0.020165
   9 C :   -0.060036
  10 H :    0.031677
  11 H :    0.024412
  12 C :   -0.058334
  13 H :    0.032232
  14 H :    0.045060
  15 H :    0.041882
  16 S :    0.091725
  17 C :   -0.080977
  18 C :   -0.045573
  19 C :   -0.029534
  20 C :   -0.168353
  21 H :    0.037878
  22 C :    0.077737
  23 H :    0.009646
  24 H :   -0.002054
  25 C :   -0.087955
  26 H :    0.048100
  27 H :    0.036156
  28 C :   -0.037996
  29 H :    0.017094
  30 H :    0.059146
  31 H :    0.022593
  32 H :    0.036263
  33 H :    0.043291
Sum of atomic charges:   -0.0000000

LOEWDIN ATOMIC CHARGES
----------------------
   0 S :    0.416338
   1 C :   -0.197682
   2 C :   -0.054530
   3 C :   -0.066026
   4 C :   -0.196725
   5 H :    0.035629
   6 C :   -0.035356
   7 H :    0.029003
   8 H :    0.034092
   9 C :   -0.044408
  10 H :    0.026704
  11 H :    0.026891
  12 C :   -0.066977
  13 H :    0.019458
  14 H :    0.030276
  15 H :    0.035356
  16 S :    0.399748
  17 C :   -0.181105
  18 C :   -0.078958
  19 C :   -0.057923
  20 C :   -0.204104
  21 H :    0.041152
  22 C :   -0.037095
  23 H :    0.033289
  24 H :    0.020381
  25 C :   -0.039447
  26 H :    0.031121
  27 H :    0.026924
  28 C :   -0.066399
  29 H :    0.016495
  30 H :    0.039261
  31 H :    0.020520
  32 H :    0.020756
  33 H :    0.023340

  Mayer bond orders larger than 0.100000
B(  0-S ,  1-C ) :   1.1293 B(  0-S ,  4-C ) :   1.1454 B(  1-C ,  2-C ) :   1.6412
B(  1-C , 32-H ) :   0.9691 B(  2-C ,  3-C ) :   1.1917 B(  2-C ,  6-C ) :   0.9981
B(  3-C ,  4-C ) :   1.6414 B(  3-C ,  5-H ) :   0.9851 B(  4-C , 20-C ) :   1.0150
B(  6-C ,  7-H ) :   0.9385 B(  6-C ,  8-H ) :   0.9462 B(  6-C ,  9-C ) :   1.0548
B(  9-C , 10-H ) :   0.9515 B(  9-C , 11-H ) :   0.9526 B(  9-C , 12-C ) :   1.0804
B( 12-C , 13-H ) :   0.9752 B( 12-C , 14-H ) :   0.9730 B( 12-C , 15-H ) :   0.9741
B( 16-S , 17-C ) :   1.1393 B( 16-S , 20-C ) :   1.1541 B( 17-C , 18-C ) :   1.6282
B( 17-C , 33-H ) :   0.9756 B( 18-C , 19-C ) :   1.2259 B( 18-C , 21-H ) :   0.9794
B( 19-C , 20-C ) :   1.5674 B( 19-C , 22-C ) :   1.0681 B( 22-C , 23-H ) :   0.9245
B( 22-C , 24-H ) :   0.9398 B( 22-C , 25-C ) :   1.0197 B( 25-C , 26-H ) :   0.9653
B( 25-C , 27-H ) :   0.9568 B( 25-C , 28-C ) :   1.0867 B( 28-C , 29-H ) :   0.9745
B( 28-C , 30-H ) :   0.9715 B( 28-C , 31-H ) :   0.9700

Dispersion correction           -0.014714092
FINAL SINGLE POINT ENERGY     -1339.865460092322

DIPOLE MOMENT
-------------
                                X             Y             Z
Electronic contribution:    -25.70405     -12.98428       8.67067
Nuclear contribution   :     26.12588      13.42516      -8.72528
                        -----------------------------------------
Total Dipole Moment    :      0.42183       0.44088      -0.05461
                        -----------------------------------------
Magnitude (a.u.)       :      0.61262
Magnitude (Debye)      :      1.55715

Rotational constants in cm-1:     0.021290     0.008579     0.006701
Rotational constants in MHz :   638.249252   257.188349   200.892619

                             ****ORCA TERMINATED NORMALLY****
TOTAL RUN TIME: 0 days 0 hours 0 minutes 35 seconds 372 msec
