                         Program Version 4.2.1 -  RELEASE  -
|  1> ! wB97X-D3 SP def2-SVP
|  2> %pal
|  3> nprocs 16
|  4> end
|  5>
|  6> * xyz 0 1
|  7> S 	 -34.7956 	 69.7909 	 171.689
|  8> C 	 -33.9773 	 70.406 	 173.091
|  9> C 	 -34.7174 	 71.4616 	 173.637
| 10> C 	 -35.9892 	 71.6827 	 173.006
| 11> C 	 -36.2365 	 70.8044 	 171.985
| 12> H 	 -36.7409 	 72.4289 	 173.203
| 13> C 	 -34.3028 	 72.2875 	 174.863
| 14> H 	 -35.1293 	 72.8777 	 175.285
| 15> H 	 -33.5791 	 73.069 	 174.565
| 16> C 	 -33.5093 	 71.5705 	 175.994
| 17> H 	 -33.9127 	 70.5867 	 176.287
| 18> H 	 -32.4783 	 71.263 	 175.706
| 19> C 	 -33.4657 	 72.4853 	 177.232
| 20> H 	 -32.6227 	 73.2224 	 177.282
| 21> H 	 -34.4102 	 72.9788 	 177.325
| 22> H 	 -33.3842 	 71.8692 	 178.117
| 23> S 	 -38.2568 	 72.0859 	 170.692
| 24> C 	 -39.5008 	 71.1577 	 169.924
| 25> C 	 -39.5016 	 69.8406 	 170.389
| 26> C 	 -38.354 	 69.541 	 171.163
| 27> C 	 -37.5303 	 70.6574 	 171.35
| 28> H 	 -40.3593 	 69.2731 	 170.138
| 29> C 	 -38.0892 	 68.1555 	 171.788
| 30> H 	 -37.5051 	 68.2972 	 172.695
| 31> H 	 -37.3803 	 67.541 	 171.158
| 32> C 	 -39.3071 	 67.2513 	 172.152
| 33> H 	 -38.8708 	 66.3843 	 172.644
| 34> H 	 -39.8118 	 66.9591 	 171.271
| 35> C 	 -40.3069 	 67.8203 	 173.122
| 36> H 	 -41.0598 	 68.4701 	 172.664
| 37> H 	 -39.8162 	 68.3199 	 173.908
| 38> H 	 -40.8205 	 66.8989 	 173.536
| 39> H 	 -33.1261 	 69.8928 	 173.57
| 40> H 	 -40.3432 	 71.5676 	 169.352
| 41> *
| 42>
| 43>                          ****END OF INPUT****

CARTESIAN COORDINATES (ANGSTROEM)
---------------------------------
  S    -34.795600   69.790900  171.689000
  C    -33.977300   70.406000  173.091000
  C    -34.717400   71.461600  173.637000
  C    -35.989200   71.682700  173.006000
  C    -36.236500   70.804400  171.985000
  H    -36.740900   72.428900  173.203000
  C    -34.302800   72.287500  174.863000
  H    -35.129300   72.877700  175.285000
  H    -33.579100   73.069000  174.565000
  C    -33.509300   71.570500  175.994000
  H    -33.912700   70.586700  176.287000
  H    -32.478300   71.263000  175.706000
  C    -33.465700   72.485300  177.232000
  H    -32.622700   73.222400  177.282000
  H    -34.410200   72.978800  177.325000
  H    -33.384200   71.869200  178.117000
  S    -38.256800   72.085900  170.692000
  C    -39.500800   71.157700  169.924000
  C    -39.501600   69.840600  170.389000
  C    -38.354000   69.541000  171.163000
  C    -37.530300   70.657400  171.350000
  H    -40.359300   69.273100  170.138000
  C    -38.089200   68.155500  171.788000
  H    -37.505100   68.297200  172.695000
  H    -37.380300   67.541000  171.158000
  C    -39.307100   67.251300  172.152000
  H    -38.870800   66.384300  172.644000
  H    -39.811800   66.959100  171.271000
  C    -40.306900   67.820300  173.122000
  H    -41.059800   68.470100  172.664000
  H    -39.816200   68.319900  173.908000
  H    -40.820500   66.898900  173.536000
  H    -33.126100   69.892800  173.570000
  H    -40.343200   71.567600  169.352000

 Total Charge           Charge          ....    0
 Multiplicity           Mult            ....    1
 Number of Electrons    NEL             ....  134
 Basis Dimension        Dim             ....  322

ORBITAL ENERGIES
----------------

  NO   OCC          E(Eh)            E(eV)
   0   2.0000     -88.967660     -2420.9331
   1   2.0000     -88.965866     -2420.8843
   2   2.0000     -10.328904      -281.0638
   3   2.0000     -10.324672      -280.9486
   4   2.0000     -10.317709      -280.7591
   5   2.0000     -10.316567      -280.7281
   6   2.0000     -10.306874      -280.4643
   7   2.0000     -10.306759      -280.4612
   8   2.0000     -10.295999      -280.1684
   9   2.0000     -10.292958      -280.0856
  10   2.0000     -10.292940      -280.0851
  11   2.0000     -10.292903      -280.0841
  12   2.0000     -10.292255      -280.0665
  13   2.0000     -10.280885      -279.7571
  14   2.0000     -10.278768      -279.6995
  15   2.0000     -10.273227      -279.5487
  16   2.0000      -8.082858      -219.9457
  17   2.0000      -8.079969      -219.8671
  18   2.0000      -6.041233      -164.3903
  19   2.0000      -6.038642      -164.3198
  20   2.0000      -6.037281      -164.2828
  21   2.0000      -6.034454      -164.2058
  22   2.0000      -6.033769      -164.1872
  23   2.0000      -6.030695      -164.1036
  24   2.0000      -1.007551       -27.4169
  25   2.0000      -0.983409       -26.7599
  26   2.0000      -0.905681       -24.6448
  27   2.0000      -0.905293       -24.6343
  28   2.0000      -0.872275       -23.7358
  29   2.0000      -0.852296       -23.1921
  30   2.0000      -0.845672       -23.0119
  31   2.0000      -0.813786       -22.1443
  32   2.0000      -0.780255       -21.2318
  33   2.0000      -0.765972       -20.8432
  34   2.0000      -0.708539       -19.2803
  35   2.0000      -0.697988       -18.9932
  36   2.0000      -0.690996       -18.8029
  37   2.0000      -0.660716       -17.9790
  38   2.0000      -0.639930       -17.4134
  39   2.0000      -0.613323       -16.6894
  40   2.0000      -0.597650       -16.2629
  41   2.0000      -0.570016       -15.5109
  42   2.0000      -0.559145       -15.2151
  43   2.0000      -0.550021       -14.9668
  44   2.0000      -0.537633       -14.6297
  45   2.0000      -0.525129       -14.2895
  46   2.0000      -0.518447       -14.1077
  47   2.0000      -0.515105       -14.0167
  48   2.0000      -0.501113       -13.6360
  49   2.0000      -0.496639       -13.5142
  50   2.0000      -0.490165       -13.3381
  51   2.0000      -0.476204       -12.9582
  52   2.0000      -0.474086       -12.9005
  53   2.0000      -0.466345       -12.6899
  54   2.0000      -0.459736       -12.5101
  55   2.0000      -0.451655       -12.2901
  56   2.0000      -0.442732       -12.0473
  57   2.0000      -0.434449       -11.8220
  58   2.0000      -0.429611       -11.6903
  59   2.0000      -0.424484       -11.5508
  60   2.0000      -0.420916       -11.4537
  61   2.0000      -0.414229       -11.2717
  62   2.0000      -0.412201       -11.2166
  63   2.0000      -0.347934        -9.4678
  64   2.0000      -0.332320        -9.0429
  65   2.0000      -0.323164        -8.7937
  66   2.0000      -0.289867        -7.8877
  67   0.0000       0.024503         0.6668
  68   0.0000       0.069410         1.8887
  69   0.0000       0.108175         2.9436
  70   0.0000       0.114505         3.1158
  71   0.0000       0.138536         3.7698

MULLIKEN ATOMIC CHARGES
-----------------------
   0 S :    0.113025
   1 C :   -0.148147
   2 C :   -0.050532
   3 C :    0.013915
   4 C :   -0.133311
   5 H :    0.015315
   6 C :    0.047675
   7 H :    0.023031
   8 H :    0.044820
   9 C :   -0.111263
  10 H :    0.029799
  11 H :    0.030751
  12 C :   -0.042807
  13 H :    0.045852
  14 H :    0.022853
  15 H :    0.024925
  16 S :    0.117409
  17 C :   -0.102976
  18 C :   -0.050329
  19 C :    0.004062
  20 C :   -0.184245
  21 H :    0.009672
  22 C :    0.038900
  23 H :    0.026030
  24 H :    0.046206
  25 C :   -0.070868
  26 H :    0.029409
  27 H :    0.022181
  28 C :   -0.041786
  29 H :    0.036087
  30 H :    0.023931
  31 H :    0.036669
  32 H :    0.070532
  33 H :    0.063215
Sum of atomic charges:   -0.0000000

LOEWDIN ATOMIC CHARGES
----------------------
   0 S :    0.398298
   1 C :   -0.213292
   2 C :   -0.059482
   3 C :   -0.063908
   4 C :   -0.182592
   5 H :    0.029633
   6 C :   -0.038021
   7 H :    0.028358
   8 H :    0.041018
   9 C :   -0.047880
  10 H :    0.021495
  11 H :    0.024203
  12 C :   -0.065018
  13 H :    0.030667
  14 H :    0.020691
  15 H :    0.026209
  16 S :    0.429292
  17 C :   -0.194616
  18 C :   -0.069997
  19 C :   -0.053835
  20 C :   -0.206347
  21 H :    0.027203
  22 C :   -0.039103
  23 H :    0.027088
  24 H :    0.038598
  25 C :   -0.039912
  26 H :    0.029847
  27 H :    0.015853
  28 C :   -0.063249
  29 H :    0.023980
  30 H :    0.018524
  31 H :    0.035903
  32 H :    0.037376
  33 H :    0.033018

  Mayer bond orders larger than 0.100000
B(  0-S ,  1-C ) :   1.1340 B(  0-S ,  4-C ) :   1.1341 B(  1-C ,  2-C ) :   1.6002
B(  1-C , 32-H ) :   0.9644 B(  2-C ,  3-C ) :   1.2393 B(  2-C ,  6-C ) :   1.0231
B(  3-C ,  4-C ) :   1.5768 B(  3-C ,  5-H ) :   0.9942 B(  4-C , 20-C ) :   1.0402
B(  6-C ,  7-H ) :   0.9551 B(  6-C ,  8-H ) :   0.9307 B(  6-C ,  9-C ) :   1.0533
B(  9-C , 10-H ) :   0.9659 B(  9-C , 11-H ) :   0.9493 B(  9-C , 12-C ) :   1.0778
B( 12-C , 13-H ) :   0.9770 B( 12-C , 14-H ) :   0.9768 B( 12-C , 15-H ) :   0.9744
B( 16-S , 17-C ) :   1.1748 B( 16-S , 20-C ) :   1.1548 B( 17-C , 18-C ) :   1.5863
B( 17-C , 20-C ) :   0.1055 B( 17-C , 33-H ) :   0.9622 B( 18-C , 19-C ) :   1.2507
B( 18-C , 21-H ) :   0.9974 B( 19-C , 20-C ) :   1.5578 B( 19-C , 22-C ) :   1.0253
B( 22-C , 23-H ) :   0.9346 B( 22-C , 24-H ) :   0.9346 B( 22-C , 25-C ) :   1.0866
B( 25-C , 26-H ) :   0.9549 B( 25-C , 27-H ) :   0.9500 B( 25-C , 28-C ) :   1.0841
B( 28-C , 29-H ) :   0.9738 B( 28-C , 30-H ) :   0.9746 B( 28-C , 31-H ) :   0.9747

Dispersion correction           -0.013895236
FINAL SINGLE POINT ENERGY     -1339.877832011516

DIPOLE MOMENT
-------------
                                X             Y             Z
Electronic contribution:      0.39775       6.41926     -22.04891
Nuclear contribution   :     -0.61467      -6.57879      22.56259
                        -----------------------------------------
Total Dipole Moment    :     -0.21691      -0.15953       0.51368
                        -----------------------------------------
Magnitude (a.u.)       :      0.57998
Magnitude (Debye)      :      1.47418

Rotational constants in cm-1:     0.020771     0.007068     0.006464
Rotational constants in MHz :   622.693930   211.880779   193.791275

                             ****ORCA TERMINATED NORMALLY****
TOTAL RUN TIME: 0 days 0 hours 0 minutes 31 seconds 538 msec
