                         Program Version 4.2.1 -  RELEASE  -
|  1> ! wB97X-D3 SP def2-SVP
|  2> %pal
|  3> nprocs 16
|  4> end
|  5>
|  6> * xyz 0 1
|  7> S 	 -18.6631 	 -2.02697 	 79.2034
|  8> C 	 -17.4999 	 -2.84958 	 78.2407
|  9> C 	 -17.8383 	 -3.14382 	 76.9381
| 10> C 	 -19.175 	 -2.72194 	 76.7218
| 11> C 	 -19.8329 	 -2.08875 	 77.8279
| 12> H 	 -19.7022 	 -2.93314 	 75.8266
| 13> C 	 -17.0823 	 -3.97439 	 75.9751
| 14> H 	 -16.0215 	 -3.90177 	 76.4195
| 15> H 	 -17.0249 	 -3.40262 	 75.0747
| 16> C 	 -17.5799 	 -5.33717 	 75.7005
| 17> H 	 -18.4651 	 -5.19931 	 75.1572
| 18> H 	 -16.8657 	 -5.82522 	 75.0739
| 19> C 	 -17.7793 	 -6.06407 	 76.9794
| 20> H 	 -16.944 	 -5.90619 	 77.5782
| 21> H 	 -18.7172 	 -5.77506 	 77.4195
| 22> H 	 -17.82 	 -7.16215 	 76.8178
| 23> S 	 -21.4551 	 0.112549 	 78.4031
| 24> C 	 -23.1154 	 -0.169779 	 78.6486
| 25> C 	 -23.4737 	 -1.40078 	 78.2356
| 26> C 	 -22.3908 	 -2.30996 	 77.8753
| 27> C 	 -21.2008 	 -1.59676 	 77.9354
| 28> H 	 -24.4809 	 -1.68633 	 78.1989
| 29> C 	 -22.5959 	 -3.75538 	 77.484
| 30> H 	 -21.6188 	 -4.21134 	 77.2426
| 31> H 	 -23.2999 	 -3.73524 	 76.638
| 32> C 	 -23.2291 	 -4.47008 	 78.6579
| 33> H 	 -24.2891 	 -4.20001 	 78.8808
| 34> H 	 -22.688 	 -4.24256 	 79.543
| 35> C 	 -23.1959 	 -5.97622 	 78.4239
| 36> H 	 -22.1367 	 -6.30144 	 78.6137
| 37> H 	 -23.5046 	 -6.3774 	 77.5418
| 38> H 	 -23.5695 	 -6.51316 	 79.2472
| 39> H 	 -16.5603 	 -3.2751 	 78.6685
| 40> H 	 -23.823 	 0.486746 	 79.0267
| 41> *
| 42>
| 43>                          ****END OF INPUT****

CARTESIAN COORDINATES (ANGSTROEM)
---------------------------------
  S    -18.663100   -2.026970   79.203400
  C    -17.499900   -2.849580   78.240700
  C    -17.838300   -3.143820   76.938100
  C    -19.175000   -2.721940   76.721800
  C    -19.832900   -2.088750   77.827900
  H    -19.702200   -2.933140   75.826600
  C    -17.082300   -3.974390   75.975100
  H    -16.021500   -3.901770   76.419500
  H    -17.024900   -3.402620   75.074700
  C    -17.579900   -5.337170   75.700500
  H    -18.465100   -5.199310   75.157200
  H    -16.865700   -5.825220   75.073900
  C    -17.779300   -6.064070   76.979400
  H    -16.944000   -5.906190   77.578200
  H    -18.717200   -5.775060   77.419500
  H    -17.820000   -7.162150   76.817800
  S    -21.455100    0.112549   78.403100
  C    -23.115400   -0.169779   78.648600
  C    -23.473700   -1.400780   78.235600
  C    -22.390800   -2.309960   77.875300
  C    -21.200800   -1.596760   77.935400
  H    -24.480900   -1.686330   78.198900
  C    -22.595900   -3.755380   77.484000
  H    -21.618800   -4.211340   77.242600
  H    -23.299900   -3.735240   76.638000
  C    -23.229100   -4.470080   78.657900
  H    -24.289100   -4.200010   78.880800
  H    -22.688000   -4.242560   79.543000
  C    -23.195900   -5.976220   78.423900
  H    -22.136700   -6.301440   78.613700
  H    -23.504600   -6.377400   77.541800
  H    -23.569500   -6.513160   79.247200
  H    -16.560300   -3.275100   78.668500
  H    -23.823000    0.486746   79.026700

 Total Charge           Charge          ....    0
 Multiplicity           Mult            ....    1
 Number of Electrons    NEL             ....  134
 Basis Dimension        Dim             ....  322

ORBITAL ENERGIES
----------------

  NO   OCC          E(Eh)            E(eV)
   0   2.0000     -88.968103     -2420.9452
   1   2.0000     -88.960604     -2420.7411
   2   2.0000     -10.334203      -281.2080
   3   2.0000     -10.325119      -280.9608
   4   2.0000     -10.313153      -280.6352
   5   2.0000     -10.305761      -280.4340
   6   2.0000     -10.303554      -280.3740
   7   2.0000     -10.295692      -280.1600
   8   2.0000     -10.295213      -280.1470
   9   2.0000     -10.293633      -280.1040
  10   2.0000     -10.288392      -279.9614
  11   2.0000     -10.284385      -279.8523
  12   2.0000     -10.284315      -279.8504
  13   2.0000     -10.275521      -279.6111
  14   2.0000     -10.268310      -279.4149
  15   2.0000     -10.266906      -279.3767
  16   2.0000      -8.082266      -219.9296
  17   2.0000      -8.075950      -219.7578
  18   2.0000      -6.040693      -164.3756
  19   2.0000      -6.036827      -164.2704
  20   2.0000      -6.034481      -164.2066
  21   2.0000      -6.033179      -164.1712
  22   2.0000      -6.030501      -164.0983
  23   2.0000      -6.026515      -163.9898
  24   2.0000      -1.001698       -27.2576
  25   2.0000      -0.984000       -26.7760
  26   2.0000      -0.929194       -25.2847
  27   2.0000      -0.917708       -24.9721
  28   2.0000      -0.869653       -23.6645
  29   2.0000      -0.853954       -23.2373
  30   2.0000      -0.846872       -23.0446
  31   2.0000      -0.810969       -22.0676
  32   2.0000      -0.788274       -21.4500
  33   2.0000      -0.776410       -21.1272
  34   2.0000      -0.713996       -19.4288
  35   2.0000      -0.703022       -19.1302
  36   2.0000      -0.694844       -18.9077
  37   2.0000      -0.657945       -17.9036
  38   2.0000      -0.634238       -17.2585
  39   2.0000      -0.621529       -16.9127
  40   2.0000      -0.600509       -16.3407
  41   2.0000      -0.573635       -15.6094
  42   2.0000      -0.572634       -15.5822
  43   2.0000      -0.565430       -15.3861
  44   2.0000      -0.549902       -14.9636
  45   2.0000      -0.533999       -14.5308
  46   2.0000      -0.522732       -14.2243
  47   2.0000      -0.511771       -13.9260
  48   2.0000      -0.504856       -13.7378
  49   2.0000      -0.495000       -13.4696
  50   2.0000      -0.485595       -13.2137
  51   2.0000      -0.480060       -13.0631
  52   2.0000      -0.470060       -12.7910
  53   2.0000      -0.463383       -12.6093
  54   2.0000      -0.454949       -12.3798
  55   2.0000      -0.451039       -12.2734
  56   2.0000      -0.445400       -12.1199
  57   2.0000      -0.441863       -12.0237
  58   2.0000      -0.435352       -11.8465
  59   2.0000      -0.428016       -11.6469
  60   2.0000      -0.422283       -11.4909
  61   2.0000      -0.416970       -11.3463
  62   2.0000      -0.414047       -11.2668
  63   2.0000      -0.338518        -9.2115
  64   2.0000      -0.332950        -9.0600
  65   2.0000      -0.324553        -8.8315
  66   2.0000      -0.292492        -7.9591
  67   0.0000       0.033842         0.9209
  68   0.0000       0.065580         1.7845
  69   0.0000       0.113509         3.0887
  70   0.0000       0.118942         3.2366
  71   0.0000       0.129209         3.5160

MULLIKEN ATOMIC CHARGES
-----------------------
   0 S :    0.126834
   1 C :   -0.133433
   2 C :   -0.109224
   3 C :    0.039912
   4 C :   -0.179273
   5 H :   -0.002909
   6 C :    0.040017
   7 H :    0.024363
   8 H :    0.023290
   9 C :   -0.005553
  10 H :    0.010955
  11 H :    0.024816
  12 C :   -0.010004
  13 H :    0.008830
  14 H :    0.041747
  15 H :    0.027480
  16 S :    0.107020
  17 C :   -0.047363
  18 C :   -0.020392
  19 C :   -0.040645
  20 C :   -0.195494
  21 H :   -0.008831
  22 C :    0.119560
  23 H :    0.027161
  24 H :    0.039144
  25 C :   -0.105527
  26 H :    0.036198
  27 H :    0.028133
  28 C :    0.005123
  29 H :    0.015286
  30 H :    0.017844
  31 H :    0.010377
  32 H :    0.054572
  33 H :    0.029983
Sum of atomic charges:   -0.0000000

LOEWDIN ATOMIC CHARGES
----------------------
   0 S :    0.403218
   1 C :   -0.206378
   2 C :   -0.075976
   3 C :   -0.050353
   4 C :   -0.186685
   5 H :    0.021267
   6 C :   -0.035756
   7 H :    0.035627
   8 H :    0.029365
   9 C :   -0.034655
  10 H :    0.018401
  11 H :    0.026185
  12 C :   -0.052548
  13 H :    0.015673
  14 H :    0.027721
  15 H :    0.028942
  16 S :    0.398587
  17 C :   -0.184283
  18 C :   -0.067833
  19 C :   -0.042838
  20 C :   -0.200484
  21 H :    0.018019
  22 C :   -0.025764
  23 H :    0.034577
  24 H :    0.038171
  25 C :   -0.037200
  26 H :    0.025899
  27 H :    0.024712
  28 C :   -0.061735
  29 H :    0.032748
  30 H :    0.009739
  31 H :    0.021728
  32 H :    0.031319
  33 H :    0.020589

  Mayer bond orders larger than 0.100000
B(  0-S ,  1-C ) :   1.1639 B(  0-S ,  4-C ) :   1.1384 B(  1-C ,  2-C ) :   1.6004
B(  1-C , 32-H ) :   0.9474 B(  2-C ,  3-C ) :   1.2578 B(  2-C ,  6-C ) :   1.0220
B(  3-C ,  4-C ) :   1.5537 B(  3-C ,  5-H ) :   0.9970 B(  4-C , 20-C ) :   1.0559
B(  6-C ,  7-H ) :   0.9352 B(  6-C ,  8-H ) :   0.9286 B(  6-C ,  9-C ) :   1.0834
B(  9-C , 10-H ) :   0.9457 B(  9-C , 11-H ) :   0.9466 B(  9-C , 12-C ) :   1.0910
B( 12-C , 13-H ) :   0.9748 B( 12-C , 14-H ) :   0.9660 B( 12-C , 15-H ) :   0.9700
B( 16-S , 17-C ) :   1.1406 B( 16-S , 20-C ) :   1.1277 B( 17-C , 18-C ) :   1.6430
B( 17-C , 33-H ) :   0.9718 B( 18-C , 19-C ) :   1.2066 B( 18-C , 21-H ) :   0.9939
B( 19-C , 20-C ) :   1.6135 B( 19-C , 22-C ) :   1.0453 B( 22-C , 23-H ) :   0.9316
B( 22-C , 24-H ) :   0.9227 B( 22-C , 25-C ) :   1.0672 B( 25-C , 26-H ) :   0.9518
B( 25-C , 27-H ) :   0.9557 B( 25-C , 28-C ) :   1.0983 B( 28-C , 29-H ) :   0.9677
B( 28-C , 30-H ) :   0.9753 B( 28-C , 31-H ) :   0.9657

Dispersion correction           -0.014948367
FINAL SINGLE POINT ENERGY     -1339.862965531959

DIPOLE MOMENT
-------------
                                X             Y             Z
Electronic contribution:      1.23646      27.85409       7.72705
Nuclear contribution   :     -1.46303     -28.57797      -7.97957
                        -----------------------------------------
Total Dipole Moment    :     -0.22657      -0.72388      -0.25252
                        -----------------------------------------
Magnitude (a.u.)       :      0.79944
Magnitude (Debye)      :      2.03201

Rotational constants in cm-1:     0.017990     0.009734     0.007189
Rotational constants in MHz :   539.324174   291.825326   215.534871

                             ****ORCA TERMINATED NORMALLY****
TOTAL RUN TIME: 0 days 0 hours 0 minutes 35 seconds 422 msec
