                         Program Version 4.2.1 -  RELEASE  -
|  1> ! wB97X-D3 SP def2-SVP
|  2> %pal
|  3> nprocs 16
|  4> end
|  5>
|  6> * xyz 0 1
|  7> S 	 12.1595 	 -6.41798 	 64.7152
|  8> C 	 11.3698 	 -5.324 	 63.6466
|  9> C 	 11.3316 	 -4.04157 	 64.1891
| 10> C 	 11.879 	 -3.92853 	 65.5026
| 11> C 	 12.2623 	 -5.20209 	 65.997
| 12> H 	 11.9731 	 -3.0658 	 66.1122
| 13> C 	 10.8111 	 -2.77014 	 63.4923
| 14> H 	 10.0176 	 -2.42407 	 64.1308
| 15> H 	 10.2368 	 -3.19526 	 62.6414
| 16> C 	 11.8652 	 -1.66541 	 63.2198
| 17> H 	 12.1813 	 -1.09849 	 64.1097
| 18> H 	 12.7912 	 -2.12536 	 62.9027
| 19> C 	 11.3066 	 -0.740915 	 62.1402
| 20> H 	 12.2124 	 -0.243274 	 61.7937
| 21> H 	 10.8308 	 -1.31802 	 61.2962
| 22> H 	 10.5742 	 0.00552428 	 62.4657
| 23> S 	 14.6445 	 -5.8174 	 67.2002
| 24> C 	 14.6743 	 -6.02963 	 68.9671
| 25> C 	 13.4821 	 -5.62636 	 69.5166
| 26> C 	 12.5151 	 -5.17292 	 68.5521
| 27> C 	 12.9567 	 -5.36427 	 67.2618
| 28> H 	 13.3811 	 -5.62477 	 70.5688
| 29> C 	 11.0585 	 -4.73696 	 68.8841
| 30> H 	 10.5061 	 -4.38445 	 68.0241
| 31> H 	 11.0265 	 -3.81282 	 69.5045
| 32> C 	 10.1741 	 -5.71588 	 69.6732
| 33> H 	 9.17123 	 -5.36874 	 69.9471
| 34> H 	 10.6519 	 -5.85744 	 70.6422
| 35> C 	 9.92861 	 -7.09761 	 69.0137
| 36> H 	 10.0098 	 -7.82228 	 69.7269
| 37> H 	 10.5984 	 -7.40875 	 68.2685
| 38> H 	 9.01103 	 -7.11457 	 68.5906
| 39> H 	 10.8761 	 -5.65394 	 62.7048
| 40> H 	 15.5222 	 -6.44745 	 69.4765
| 41> *
| 42>
| 43>                          ****END OF INPUT****

CARTESIAN COORDINATES (ANGSTROEM)
---------------------------------
  S     12.159500   -6.417980   64.715200
  C     11.369800   -5.324000   63.646600
  C     11.331600   -4.041570   64.189100
  C     11.879000   -3.928530   65.502600
  C     12.262300   -5.202090   65.997000
  H     11.973100   -3.065800   66.112200
  C     10.811100   -2.770140   63.492300
  H     10.017600   -2.424070   64.130800
  H     10.236800   -3.195260   62.641400
  C     11.865200   -1.665410   63.219800
  H     12.181300   -1.098490   64.109700
  H     12.791200   -2.125360   62.902700
  C     11.306600   -0.740915   62.140200
  H     12.212400   -0.243274   61.793700
  H     10.830800   -1.318020   61.296200
  H     10.574200    0.005524   62.465700
  S     14.644500   -5.817400   67.200200
  C     14.674300   -6.029630   68.967100
  C     13.482100   -5.626360   69.516600
  C     12.515100   -5.172920   68.552100
  C     12.956700   -5.364270   67.261800
  H     13.381100   -5.624770   70.568800
  C     11.058500   -4.736960   68.884100
  H     10.506100   -4.384450   68.024100
  H     11.026500   -3.812820   69.504500
  C     10.174100   -5.715880   69.673200
  H      9.171230   -5.368740   69.947100
  H     10.651900   -5.857440   70.642200
  C      9.928610   -7.097610   69.013700
  H     10.009800   -7.822280   69.726900
  H     10.598400   -7.408750   68.268500
  H      9.011030   -7.114570   68.590600
  H     10.876100   -5.653940   62.704800
  H     15.522200   -6.447450   69.476500

 Total Charge           Charge          ....    0
 Multiplicity           Mult            ....    1
 Number of Electrons    NEL             ....  134
 Basis Dimension        Dim             ....  322

ORBITAL ENERGIES
----------------

  NO   OCC          E(Eh)            E(eV)
   0   2.0000     -88.969384     -2420.9800
   1   2.0000     -88.961696     -2420.7708
   2   2.0000     -10.330757      -281.1142
   3   2.0000     -10.324366      -280.9403
   4   2.0000     -10.317060      -280.7415
   5   2.0000     -10.317029      -280.7406
   6   2.0000     -10.306198      -280.4459
   7   2.0000     -10.300944      -280.3029
   8   2.0000     -10.294471      -280.1268
   9   2.0000     -10.293765      -280.1076
  10   2.0000     -10.292328      -280.0685
  11   2.0000     -10.291561      -280.0476
  12   2.0000     -10.290833      -280.0278
  13   2.0000     -10.282369      -279.7975
  14   2.0000     -10.281891      -279.7845
  15   2.0000     -10.247341      -278.8443
  16   2.0000      -8.083847      -219.9726
  17   2.0000      -8.076396      -219.7699
  18   2.0000      -6.042336      -164.4203
  19   2.0000      -6.038263      -164.3095
  20   2.0000      -6.034958      -164.2196
  21   2.0000      -6.034789      -164.2149
  22   2.0000      -6.030994      -164.1117
  23   2.0000      -6.027022      -164.0036
  24   2.0000      -1.003662       -27.3110
  25   2.0000      -0.980944       -26.6929
  26   2.0000      -0.907632       -24.6979
  27   2.0000      -0.899384       -24.4735
  28   2.0000      -0.870328       -23.6828
  29   2.0000      -0.851156       -23.1611
  30   2.0000      -0.843086       -22.9415
  31   2.0000      -0.812090       -22.0981
  32   2.0000      -0.784920       -21.3588
  33   2.0000      -0.768325       -20.9072
  34   2.0000      -0.708615       -19.2824
  35   2.0000      -0.697910       -18.9911
  36   2.0000      -0.693918       -18.8825
  37   2.0000      -0.658883       -17.9291
  38   2.0000      -0.643918       -17.5219
  39   2.0000      -0.613422       -16.6921
  40   2.0000      -0.596402       -16.2289
  41   2.0000      -0.566441       -15.4137
  42   2.0000      -0.556937       -15.1550
  43   2.0000      -0.547389       -14.8952
  44   2.0000      -0.539389       -14.6775
  45   2.0000      -0.530288       -14.4299
  46   2.0000      -0.516332       -14.0501
  47   2.0000      -0.513026       -13.9601
  48   2.0000      -0.503956       -13.7133
  49   2.0000      -0.496730       -13.5167
  50   2.0000      -0.488844       -13.3021
  51   2.0000      -0.476989       -12.9795
  52   2.0000      -0.470436       -12.8012
  53   2.0000      -0.468601       -12.7513
  54   2.0000      -0.460722       -12.5369
  55   2.0000      -0.447229       -12.1697
  56   2.0000      -0.442669       -12.0456
  57   2.0000      -0.440004       -11.9731
  58   2.0000      -0.427149       -11.6233
  59   2.0000      -0.419944       -11.4273
  60   2.0000      -0.414703       -11.2846
  61   2.0000      -0.412772       -11.2321
  62   2.0000      -0.409320       -11.1382
  63   2.0000      -0.342739        -9.3264
  64   2.0000      -0.329941        -8.9781
  65   2.0000      -0.326116        -8.8741
  66   2.0000      -0.295555        -8.0425
  67   0.0000       0.032344         0.8801
  68   0.0000       0.064626         1.7586
  69   0.0000       0.115182         3.1342
  70   0.0000       0.127309         3.4643
  71   0.0000       0.128777         3.5042

MULLIKEN ATOMIC CHARGES
-----------------------
   0 S :    0.123666
   1 C :   -0.142392
   2 C :   -0.101181
   3 C :    0.046541
   4 C :   -0.167965
   5 H :    0.012421
   6 C :    0.067747
   7 H :    0.026447
   8 H :    0.012413
   9 C :   -0.060667
  10 H :    0.037193
  11 H :    0.034001
  12 C :   -0.063518
  13 H :    0.034467
  14 H :    0.040068
  15 H :    0.042113
  16 S :    0.099143
  17 C :   -0.099152
  18 C :   -0.015011
  19 C :   -0.002820
  20 C :   -0.177846
  21 H :    0.008644
  22 C :    0.073811
  23 H :    0.018939
  24 H :    0.026264
  25 C :   -0.105196
  26 H :    0.026032
  27 H :    0.019202
  28 C :    0.041783
  29 H :    0.000017
  30 H :    0.014914
  31 H :    0.004778
  32 H :    0.068097
  33 H :    0.057047
Sum of atomic charges:   -0.0000000

LOEWDIN ATOMIC CHARGES
----------------------
   0 S :    0.417863
   1 C :   -0.220798
   2 C :   -0.066680
   3 C :   -0.047847
   4 C :   -0.194153
   5 H :    0.027976
   6 C :   -0.035514
   7 H :    0.028495
   8 H :    0.029803
   9 C :   -0.039183
  10 H :    0.029612
  11 H :    0.025418
  12 C :   -0.067758
  13 H :    0.028035
  14 H :    0.030762
  15 H :    0.026232
  16 S :    0.386753
  17 C :   -0.170951
  18 C :   -0.062255
  19 C :   -0.056133
  20 C :   -0.195210
  21 H :    0.026452
  22 C :   -0.034748
  23 H :    0.025886
  24 H :    0.035053
  25 C :   -0.039703
  26 H :    0.027234
  27 H :    0.017878
  28 C :   -0.050009
  29 H :    0.016717
  30 H :    0.022441
  31 H :    0.012752
  32 H :    0.038713
  33 H :    0.026867

  Mayer bond orders larger than 0.100000
B(  0-S ,  1-C ) :   1.1460 B(  0-S ,  4-C ) :   1.1637 B(  1-C ,  2-C ) :   1.5887
B(  1-C , 32-H ) :   0.9617 B(  2-C ,  3-C ) :   1.2553 B(  2-C ,  6-C ) :   1.0186
B(  3-C ,  4-C ) :   1.5324 B(  3-C ,  5-H ) :   0.9997 B(  4-C , 20-C ) :   1.0433
B(  6-C ,  7-H ) :   0.9356 B(  6-C ,  8-H ) :   0.9479 B(  6-C ,  9-C ) :   1.0470
B(  9-C , 10-H ) :   0.9472 B(  9-C , 11-H ) :   0.9638 B(  9-C , 12-C ) :   1.0801
B( 12-C , 13-H ) :   0.9757 B( 12-C , 14-H ) :   0.9774 B( 12-C , 15-H ) :   0.9764
B( 16-S , 17-C ) :   1.1306 B( 16-S , 20-C ) :   1.1481 B( 17-C , 18-C ) :   1.6309
B( 17-C , 33-H ) :   0.9724 B( 18-C , 19-C ) :   1.2091 B( 18-C , 21-H ) :   0.9979
B( 19-C , 20-C ) :   1.6152 B( 19-C , 22-C ) :   1.0394 B( 22-C , 23-H ) :   0.9373
B( 22-C , 24-H ) :   0.9332 B( 22-C , 25-C ) :   1.0755 B( 25-C , 26-H ) :   0.9590
B( 25-C , 27-H ) :   0.9630 B( 25-C , 28-C ) :   1.0625 B( 28-C , 29-H ) :   0.9715
B( 28-C , 30-H ) :   0.9762 B( 28-C , 31-H ) :   0.9771

Dispersion correction           -0.014394654
FINAL SINGLE POINT ENERGY     -1339.866350598053

DIPOLE MOMENT
-------------
                                X             Y             Z
Electronic contribution:     16.41830     -13.96254       0.52845
Nuclear contribution   :    -16.75630      14.39891      -0.43312
                        -----------------------------------------
Total Dipole Moment    :     -0.33801       0.43637       0.09533
                        -----------------------------------------
Magnitude (a.u.)       :      0.56014
Magnitude (Debye)      :      1.42376

Rotational constants in cm-1:     0.020256     0.007607     0.007059
Rotational constants in MHz :   607.262574   228.039637   211.634572

                             ****ORCA TERMINATED NORMALLY****
TOTAL RUN TIME: 0 days 0 hours 0 minutes 32 seconds 910 msec
