                         Program Version 4.2.1 -  RELEASE  -
|  1> ! wB97X-D3 SP def2-SVP
|  2> %pal
|  3> nprocs 16
|  4> end
|  5>
|  6> * xyz 0 1
|  7> S 	 55.8886 	 19.7787 	 49.6843
|  8> C 	 54.4764 	 20.8684 	 49.8246
|  9> C 	 53.2676 	 20.2334 	 49.6477
| 10> C 	 53.5406 	 18.8657 	 49.2396
| 11> C 	 54.8871 	 18.502 	 49.1633
| 12> H 	 52.8292 	 18.0894 	 49.1203
| 13> C 	 51.8296 	 20.7807 	 49.6714
| 14> H 	 51.9895 	 21.8462 	 49.5632
| 15> H 	 51.3933 	 20.641 	 50.5933
| 16> C 	 50.8294 	 20.4557 	 48.5339
| 17> H 	 50.5422 	 19.4012 	 48.3947
| 18> H 	 49.9132 	 20.9762 	 48.6953
| 19> C 	 51.3434 	 20.8678 	 47.1357
| 20> H 	 51.7249 	 21.9298 	 47.2133
| 21> H 	 52.0542 	 20.1752 	 46.6963
| 22> H 	 50.4616 	 20.8569 	 46.4625
| 23> S 	 56.3573 	 17.3998 	 46.9895
| 24> C 	 56.5316 	 15.7035 	 46.8687
| 25> C 	 56.0247 	 15.1035 	 47.9966
| 26> C 	 55.4144 	 15.9715 	 48.9535
| 27> C 	 55.5043 	 17.3447 	 48.528
| 28> H 	 55.9979 	 14.0772 	 48.1554
| 29> C 	 54.8789 	 15.506 	 50.3031
| 30> H 	 54.9085 	 16.3843 	 50.9684
| 31> H 	 55.5889 	 14.7914 	 50.6077
| 32> C 	 53.4439 	 14.9927 	 50.1509
| 33> H 	 53.4852 	 14.1063 	 49.5664
| 34> H 	 52.8843 	 15.8118 	 49.7052
| 35> C 	 52.815 	 14.6229 	 51.5094
| 36> H 	 53.3956 	 13.8541 	 52.052
| 37> H 	 51.8652 	 14.1188 	 51.4123
| 38> H 	 52.6824 	 15.497 	 52.1308
| 39> H 	 54.5038 	 21.8941 	 50.1479
| 40> H 	 57.0077 	 15.1203 	 46.1581
| 41> *
| 42>
| 43>                          ****END OF INPUT****

CARTESIAN COORDINATES (ANGSTROEM)
---------------------------------
  S     55.888600   19.778700   49.684300
  C     54.476400   20.868400   49.824600
  C     53.267600   20.233400   49.647700
  C     53.540600   18.865700   49.239600
  C     54.887100   18.502000   49.163300
  H     52.829200   18.089400   49.120300
  C     51.829600   20.780700   49.671400
  H     51.989500   21.846200   49.563200
  H     51.393300   20.641000   50.593300
  C     50.829400   20.455700   48.533900
  H     50.542200   19.401200   48.394700
  H     49.913200   20.976200   48.695300
  C     51.343400   20.867800   47.135700
  H     51.724900   21.929800   47.213300
  H     52.054200   20.175200   46.696300
  H     50.461600   20.856900   46.462500
  S     56.357300   17.399800   46.989500
  C     56.531600   15.703500   46.868700
  C     56.024700   15.103500   47.996600
  C     55.414400   15.971500   48.953500
  C     55.504300   17.344700   48.528000
  H     55.997900   14.077200   48.155400
  C     54.878900   15.506000   50.303100
  H     54.908500   16.384300   50.968400
  H     55.588900   14.791400   50.607700
  C     53.443900   14.992700   50.150900
  H     53.485200   14.106300   49.566400
  H     52.884300   15.811800   49.705200
  C     52.815000   14.622900   51.509400
  H     53.395600   13.854100   52.052000
  H     51.865200   14.118800   51.412300
  H     52.682400   15.497000   52.130800
  H     54.503800   21.894100   50.147900
  H     57.007700   15.120300   46.158100

 Total Charge           Charge          ....    0
 Multiplicity           Mult            ....    1
 Number of Electrons    NEL             ....  134
 Basis Dimension        Dim             ....  322

ORBITAL ENERGIES
----------------

  NO   OCC          E(Eh)            E(eV)
   0   2.0000     -88.967548     -2420.9301
   1   2.0000     -88.966486     -2420.9012
   2   2.0000     -10.327324      -281.0208
   3   2.0000     -10.326190      -280.9899
   4   2.0000     -10.316698      -280.7316
   5   2.0000     -10.310594      -280.5655
   6   2.0000     -10.307392      -280.4784
   7   2.0000     -10.301861      -280.3279
   8   2.0000     -10.293730      -280.1066
   9   2.0000     -10.293207      -280.0924
  10   2.0000     -10.289470      -279.9907
  11   2.0000     -10.286723      -279.9160
  12   2.0000     -10.284852      -279.8650
  13   2.0000     -10.284740      -279.8620
  14   2.0000     -10.280125      -279.7364
  15   2.0000     -10.275746      -279.6173
  16   2.0000      -8.082249      -219.9292
  17   2.0000      -8.081469      -219.9080
  18   2.0000      -6.040731      -164.3767
  19   2.0000      -6.040022      -164.3574
  20   2.0000      -6.036577      -164.2636
  21   2.0000      -6.035909      -164.2454
  22   2.0000      -6.033204      -164.1718
  23   2.0000      -6.032189      -164.1442
  24   2.0000      -1.004656       -27.3381
  25   2.0000      -0.983152       -26.7529
  26   2.0000      -0.912230       -24.8230
  27   2.0000      -0.911468       -24.8023
  28   2.0000      -0.869110       -23.6497
  29   2.0000      -0.848528       -23.0896
  30   2.0000      -0.841737       -22.9048
  31   2.0000      -0.812984       -22.1224
  32   2.0000      -0.788128       -21.4461
  33   2.0000      -0.773054       -21.0359
  34   2.0000      -0.708695       -19.2846
  35   2.0000      -0.699609       -19.0373
  36   2.0000      -0.694510       -18.8986
  37   2.0000      -0.658017       -17.9055
  38   2.0000      -0.642763       -17.4905
  39   2.0000      -0.618467       -16.8294
  40   2.0000      -0.594157       -16.1678
  41   2.0000      -0.576874       -15.6975
  42   2.0000      -0.568881       -15.4800
  43   2.0000      -0.562144       -15.2967
  44   2.0000      -0.543497       -14.7893
  45   2.0000      -0.519096       -14.1253
  46   2.0000      -0.515732       -14.0338
  47   2.0000      -0.512189       -13.9374
  48   2.0000      -0.510794       -13.8994
  49   2.0000      -0.498536       -13.5659
  50   2.0000      -0.490442       -13.3456
  51   2.0000      -0.477555       -12.9949
  52   2.0000      -0.471589       -12.8326
  53   2.0000      -0.462537       -12.5863
  54   2.0000      -0.453412       -12.3380
  55   2.0000      -0.446942       -12.1619
  56   2.0000      -0.443106       -12.0575
  57   2.0000      -0.435036       -11.8379
  58   2.0000      -0.431724       -11.7478
  59   2.0000      -0.428610       -11.6631
  60   2.0000      -0.427109       -11.6222
  61   2.0000      -0.417297       -11.3552
  62   2.0000      -0.415917       -11.3177
  63   2.0000      -0.335833        -9.1385
  64   2.0000      -0.333608        -9.0779
  65   2.0000      -0.324886        -8.8406
  66   2.0000      -0.298705        -8.1282
  67   0.0000       0.034846         0.9482
  68   0.0000       0.063003         1.7144
  69   0.0000       0.114482         3.1152
  70   0.0000       0.123122         3.3503
  71   0.0000       0.133355         3.6288

MULLIKEN ATOMIC CHARGES
-----------------------
   0 S :    0.119089
   1 C :   -0.124576
   2 C :   -0.091510
   3 C :    0.052967
   4 C :   -0.199915
   5 H :   -0.011341
   6 C :    0.118732
   7 H :    0.012027
   8 H :    0.027056
   9 C :   -0.077910
  10 H :    0.031389
  11 H :    0.026720
  12 C :   -0.084524
  13 H :    0.036422
  14 H :    0.051655
  15 H :    0.033022
  16 S :    0.132303
  17 C :   -0.049084
  18 C :   -0.011656
  19 C :   -0.076692
  20 C :   -0.152075
  21 H :   -0.014433
  22 C :    0.091480
  23 H :    0.031337
  24 H :    0.017074
  25 C :   -0.062604
  26 H :    0.022347
  27 H :    0.033062
  28 C :   -0.033749
  29 H :    0.024073
  30 H :    0.027082
  31 H :    0.033283
  32 H :    0.038049
  33 H :    0.030901
Sum of atomic charges:   -0.0000000

LOEWDIN ATOMIC CHARGES
----------------------
   0 S :    0.415064
   1 C :   -0.183855
   2 C :   -0.057340
   3 C :   -0.055637
   4 C :   -0.213831
   5 H :    0.018732
   6 C :   -0.023303
   7 H :    0.032334
   8 H :    0.023325
   9 C :   -0.040350
  10 H :    0.024234
  11 H :    0.024146
  12 C :   -0.068104
  13 H :    0.028123
  14 H :    0.026505
  15 H :    0.028050
  16 S :    0.431512
  17 C :   -0.190125
  18 C :   -0.070771
  19 C :   -0.044838
  20 C :   -0.219252
  21 H :    0.016373
  22 C :   -0.024728
  23 H :    0.033399
  24 H :    0.024342
  25 C :   -0.030352
  26 H :    0.020131
  27 H :    0.025061
  28 C :   -0.067681
  29 H :    0.026294
  30 H :    0.023472
  31 H :    0.023527
  32 H :    0.023795
  33 H :    0.021748

  Mayer bond orders larger than 0.100000
B(  0-S ,  1-C ) :   1.1369 B(  0-S ,  4-C ) :   1.1571 B(  1-C ,  2-C ) :   1.6397
B(  1-C , 32-H ) :   0.9610 B(  2-C ,  3-C ) :   1.2266 B(  2-C ,  6-C ) :   1.0034
B(  3-C ,  4-C ) :   1.5932 B(  3-C ,  5-H ) :   0.9943 B(  4-C , 20-C ) :   1.0205
B(  6-C ,  7-H ) :   0.9398 B(  6-C ,  8-H ) :   0.9341 B(  6-C ,  9-C ) :   1.0773
B(  9-C , 10-H ) :   0.9520 B(  9-C , 11-H ) :   0.9555 B(  9-C , 12-C ) :   1.0783
B( 12-C , 13-H ) :   0.9760 B( 12-C , 14-H ) :   0.9756 B( 12-C , 15-H ) :   0.9750
B( 16-S , 17-C ) :   1.1720 B( 16-S , 20-C ) :   1.1519 B( 17-C , 18-C ) :   1.5651
B( 17-C , 20-C ) :   0.1024 B( 17-C , 33-H ) :   0.9746 B( 18-C , 19-C ) :   1.3019
B( 18-C , 21-H ) :   0.9915 B( 19-C , 20-C ) :   1.5363 B( 19-C , 22-C ) :   1.0375
B( 22-C , 23-H ) :   0.9313 B( 22-C , 24-H ) :   0.9351 B( 22-C , 25-C ) :   1.0659
B( 25-C , 26-H ) :   0.9553 B( 25-C , 27-H ) :   0.9543 B( 25-C , 28-C ) :   1.0914
B( 28-C , 29-H ) :   0.9715 B( 28-C , 30-H ) :   0.9737 B( 28-C , 31-H ) :   0.9752

Dispersion correction           -0.014533972
FINAL SINGLE POINT ENERGY     -1339.872017007108

DIPOLE MOMENT
-------------
                                X             Y             Z
Electronic contribution:     24.02597       4.41463      -6.39071
Nuclear contribution   :    -24.63199      -4.66737       6.57564
                        -----------------------------------------
Total Dipole Moment    :     -0.60602      -0.25275       0.18494
                        -----------------------------------------
Magnitude (a.u.)       :      0.68216
Magnitude (Debye)      :      1.73390

Rotational constants in cm-1:     0.016298     0.009207     0.007628
Rotational constants in MHz :   488.598843   276.017266   228.695370

                             ****ORCA TERMINATED NORMALLY****
TOTAL RUN TIME: 0 days 0 hours 0 minutes 30 seconds 438 msec
