                         Program Version 4.2.1 -  RELEASE  -
|  1> ! wB97X-D3 SP def2-SVP
|  2> %pal
|  3> nprocs 16
|  4> end
|  5>
|  6> * xyz 0 1
|  7> S 	 -60.595 	 49.8365 	 127.495
|  8> C 	 -61.786 	 48.5968 	 127.12
|  9> C 	 -61.8011 	 48.2851 	 125.793
| 10> C 	 -60.7407 	 48.9113 	 125.065
| 11> C 	 -59.905 	 49.6536 	 125.826
| 12> H 	 -60.6823 	 48.884 	 124.003
| 13> C 	 -62.9161 	 47.3949 	 125.159
| 14> H 	 -63.9246 	 47.8516 	 125.316
| 15> H 	 -62.9405 	 46.495 	 125.649
| 16> C 	 -62.8881 	 47.2027 	 123.648
| 17> H 	 -63.0448 	 48.094 	 123.126
| 18> H 	 -62.008 	 46.7499 	 123.255
| 19> C 	 -63.9784 	 46.2357 	 123.215
| 20> H 	 -64.9884 	 46.7501 	 123.25
| 21> H 	 -63.8048 	 46.1012 	 122.1
| 22> H 	 -63.7373 	 45.3755 	 123.842
| 23> S 	 -59.3693 	 51.7862 	 124.274
| 24> C 	 -57.768 	 52.4569 	 124.167
| 25> C 	 -57.0367 	 51.8555 	 125.205
| 26> C 	 -57.5509 	 50.7126 	 125.797
| 27> C 	 -58.8511 	 50.5291 	 125.36
| 28> H 	 -56.1179 	 52.2692 	 125.557
| 29> C 	 -56.8184 	 50.0271 	 126.94
| 30> H 	 -57.6008 	 49.5083 	 127.492
| 31> H 	 -56.4475 	 50.7648 	 127.643
| 32> C 	 -55.714 	 49.0284 	 126.618
| 33> H 	 -55.412 	 48.4489 	 127.505
| 34> H 	 -54.8124 	 49.5792 	 126.339
| 35> C 	 -56.0696 	 48.077 	 125.529
| 36> H 	 -55.9447 	 48.5928 	 124.571
| 37> H 	 -57.1259 	 47.7529 	 125.553
| 38> H 	 -55.4659 	 47.1273 	 125.428
| 39> H 	 -62.674 	 48.1882 	 127.676
| 40> H 	 -57.4751 	 53.3994 	 123.705
| 41> *
| 42>
| 43>                          ****END OF INPUT****

CARTESIAN COORDINATES (ANGSTROEM)
---------------------------------
  S    -60.595000   49.836500  127.495000
  C    -61.786000   48.596800  127.120000
  C    -61.801100   48.285100  125.793000
  C    -60.740700   48.911300  125.065000
  C    -59.905000   49.653600  125.826000
  H    -60.682300   48.884000  124.003000
  C    -62.916100   47.394900  125.159000
  H    -63.924600   47.851600  125.316000
  H    -62.940500   46.495000  125.649000
  C    -62.888100   47.202700  123.648000
  H    -63.044800   48.094000  123.126000
  H    -62.008000   46.749900  123.255000
  C    -63.978400   46.235700  123.215000
  H    -64.988400   46.750100  123.250000
  H    -63.804800   46.101200  122.100000
  H    -63.737300   45.375500  123.842000
  S    -59.369300   51.786200  124.274000
  C    -57.768000   52.456900  124.167000
  C    -57.036700   51.855500  125.205000
  C    -57.550900   50.712600  125.797000
  C    -58.851100   50.529100  125.360000
  H    -56.117900   52.269200  125.557000
  C    -56.818400   50.027100  126.940000
  H    -57.600800   49.508300  127.492000
  H    -56.447500   50.764800  127.643000
  C    -55.714000   49.028400  126.618000
  H    -55.412000   48.448900  127.505000
  H    -54.812400   49.579200  126.339000
  C    -56.069600   48.077000  125.529000
  H    -55.944700   48.592800  124.571000
  H    -57.125900   47.752900  125.553000
  H    -55.465900   47.127300  125.428000
  H    -62.674000   48.188200  127.676000
  H    -57.475100   53.399400  123.705000

 Total Charge           Charge          ....    0
 Multiplicity           Mult            ....    1
 Number of Electrons    NEL             ....  134
 Basis Dimension        Dim             ....  322

ORBITAL ENERGIES
----------------

  NO   OCC          E(Eh)            E(eV)
   0   2.0000     -88.968070     -2420.9443
   1   2.0000     -88.968049     -2420.9437
   2   2.0000     -10.328648      -281.0568
   3   2.0000     -10.324263      -280.9375
   4   2.0000     -10.317895      -280.7642
   5   2.0000     -10.314682      -280.6768
   6   2.0000     -10.298450      -280.2351
   7   2.0000     -10.298045      -280.2241
   8   2.0000     -10.291978      -280.0589
   9   2.0000     -10.291139      -280.0361
  10   2.0000     -10.288989      -279.9776
  11   2.0000     -10.287973      -279.9500
  12   2.0000     -10.287386      -279.9340
  13   2.0000     -10.281509      -279.7741
  14   2.0000     -10.276605      -279.6406
  15   2.0000     -10.271561      -279.5034
  16   2.0000      -8.082804      -219.9443
  17   2.0000      -8.081253      -219.9021
  18   2.0000      -6.041183      -164.3889
  19   2.0000      -6.039964      -164.3558
  20   2.0000      -6.037329      -164.2841
  21   2.0000      -6.036221      -164.2539
  22   2.0000      -6.033654      -164.1841
  23   2.0000      -6.031615      -164.1286
  24   2.0000      -1.009979       -27.4829
  25   2.0000      -0.984466       -26.7887
  26   2.0000      -0.916900       -24.9501
  27   2.0000      -0.911841       -24.8124
  28   2.0000      -0.873522       -23.7697
  29   2.0000      -0.853154       -23.2155
  30   2.0000      -0.845060       -22.9952
  31   2.0000      -0.813784       -22.1442
  32   2.0000      -0.782478       -21.2923
  33   2.0000      -0.769957       -20.9516
  34   2.0000      -0.710776       -19.3412
  35   2.0000      -0.694014       -18.8851
  36   2.0000      -0.686344       -18.6764
  37   2.0000      -0.666330       -18.1318
  38   2.0000      -0.631681       -17.1889
  39   2.0000      -0.621017       -16.8987
  40   2.0000      -0.594174       -16.1683
  41   2.0000      -0.586819       -15.9682
  42   2.0000      -0.565183       -15.3794
  43   2.0000      -0.552051       -15.0221
  44   2.0000      -0.548521       -14.9260
  45   2.0000      -0.527896       -14.3648
  46   2.0000      -0.515979       -14.0405
  47   2.0000      -0.507341       -13.8054
  48   2.0000      -0.497145       -13.5280
  49   2.0000      -0.495333       -13.4787
  50   2.0000      -0.490606       -13.3501
  51   2.0000      -0.481167       -13.0932
  52   2.0000      -0.465606       -12.6698
  53   2.0000      -0.460266       -12.5245
  54   2.0000      -0.457217       -12.4415
  55   2.0000      -0.450122       -12.2484
  56   2.0000      -0.442109       -12.0304
  57   2.0000      -0.439525       -11.9601
  58   2.0000      -0.432762       -11.7761
  59   2.0000      -0.423989       -11.5373
  60   2.0000      -0.421560       -11.4712
  61   2.0000      -0.414641       -11.2830
  62   2.0000      -0.405806       -11.0425
  63   2.0000      -0.339407        -9.2357
  64   2.0000      -0.332411        -9.0454
  65   2.0000      -0.328955        -8.9513
  66   2.0000      -0.299263        -8.1434
  67   0.0000       0.029582         0.8050
  68   0.0000       0.057101         1.5538
  69   0.0000       0.098489         2.6800
  70   0.0000       0.117800         3.2055
  71   0.0000       0.131014         3.5651

MULLIKEN ATOMIC CHARGES
-----------------------
   0 S :    0.106366
   1 C :   -0.119275
   2 C :   -0.098506
   3 C :    0.017046
   4 C :   -0.109997
   5 H :    0.009042
   6 C :    0.072582
   7 H :    0.034573
   8 H :    0.011261
   9 C :   -0.080572
  10 H :    0.018571
  11 H :    0.023458
  12 C :   -0.076208
  13 H :    0.045663
  14 H :    0.041866
  15 H :    0.044012
  16 S :    0.125617
  17 C :   -0.088349
  18 C :   -0.047919
  19 C :   -0.023832
  20 C :   -0.193253
  21 H :    0.003112
  22 C :    0.075839
  23 H :    0.013952
  24 H :    0.031614
  25 C :   -0.045630
  26 H :    0.031679
  27 H :    0.021904
  28 C :   -0.075851
  29 H :    0.034220
  30 H :    0.033658
  31 H :    0.039754
  32 H :    0.057073
  33 H :    0.066531
Sum of atomic charges:   -0.0000000

LOEWDIN ATOMIC CHARGES
----------------------
   0 S :    0.376926
   1 C :   -0.203186
   2 C :   -0.065769
   3 C :   -0.056353
   4 C :   -0.176105
   5 H :    0.028413
   6 C :   -0.026750
   7 H :    0.039371
   8 H :    0.017031
   9 C :   -0.044721
  10 H :    0.014897
  11 H :    0.018405
  12 C :   -0.065177
  13 H :    0.030486
  14 H :    0.034038
  15 H :    0.028382
  16 S :    0.432844
  17 C :   -0.203446
  18 C :   -0.062222
  19 C :   -0.061438
  20 C :   -0.201242
  21 H :    0.021833
  22 C :   -0.027847
  23 H :    0.024611
  24 H :    0.034423
  25 C :   -0.045239
  26 H :    0.028151
  27 H :    0.021690
  28 C :   -0.076604
  29 H :    0.027525
  30 H :    0.027456
  31 H :    0.031098
  32 H :    0.044333
  33 H :    0.034185

  Mayer bond orders larger than 0.100000
B(  0-S ,  1-C ) :   1.1206 B(  0-S ,  4-C ) :   1.1080 B(  1-C ,  2-C ) :   1.6723
B(  1-C , 32-H ) :   0.9570 B(  2-C ,  3-C ) :   1.2332 B(  2-C ,  6-C ) :   0.9904
B(  3-C ,  4-C ) :   1.5849 B(  3-C ,  5-H ) :   1.0041 B(  4-C , 20-C ) :   1.0481
B(  6-C ,  7-H ) :   0.9403 B(  6-C ,  8-H ) :   0.9402 B(  6-C ,  9-C ) :   1.0900
B(  9-C , 10-H ) :   0.9477 B(  9-C , 11-H ) :   0.9523 B(  9-C , 12-C ) :   1.0797
B( 12-C , 13-H ) :   0.9749 B( 12-C , 14-H ) :   0.9738 B( 12-C , 15-H ) :   0.9777
B( 16-S , 17-C ) :   1.1582 B( 16-S , 20-C ) :   1.1820 B( 17-C , 18-C ) :   1.5589
B( 17-C , 20-C ) :   0.1136 B( 17-C , 33-H ) :   0.9683 B( 18-C , 19-C ) :   1.2928
B( 18-C , 21-H ) :   0.9842 B( 19-C , 20-C ) :   1.5290 B( 19-C , 22-C ) :   1.0353
B( 22-C , 23-H ) :   0.9217 B( 22-C , 24-H ) :   0.9423 B( 22-C , 25-C ) :   1.0773
B( 25-C , 26-H ) :   0.9549 B( 25-C , 27-H ) :   0.9544 B( 25-C , 28-C ) :   1.0809
B( 28-C , 29-H ) :   0.9658 B( 28-C , 30-H ) :   0.9759 B( 28-C , 31-H ) :   0.9740

Dispersion correction           -0.014197509
FINAL SINGLE POINT ENERGY     -1339.857077706812

DIPOLE MOMENT
-------------
                                X             Y             Z
Electronic contribution:     -0.08357      18.97491       6.37901
Nuclear contribution   :     -0.02060     -19.06826      -6.50586
                        -----------------------------------------
Total Dipole Moment    :     -0.10417      -0.09335      -0.12685
                        -----------------------------------------
Magnitude (a.u.)       :      0.18883
Magnitude (Debye)      :      0.47998

Rotational constants in cm-1:     0.020294     0.007629     0.007153
Rotational constants in MHz :   608.383844   228.718936   214.446417

                             ****ORCA TERMINATED NORMALLY****
TOTAL RUN TIME: 0 days 0 hours 0 minutes 33 seconds 780 msec
