                         Program Version 4.2.1 -  RELEASE  -
|  1> ! wB97X-D3 SP def2-SVP
|  2> %pal
|  3> nprocs 16
|  4> end
|  5>
|  6> * xyz 0 1
|  7> S 	 -41.747 	 37.3567 	 80.1239
|  8> C 	 -40.5501 	 38.4815 	 79.5586
|  9> C 	 -40.9775 	 39.2615 	 78.4486
| 10> C 	 -42.3437 	 38.9149 	 78.1833
| 11> C 	 -42.9248 	 37.9411 	 79.0116
| 12> H 	 -42.9655 	 39.2742 	 77.3314
| 13> C 	 -40.1933 	 40.1924 	 77.6527
| 14> H 	 -40.2404 	 41.2235 	 78.0689
| 15> H 	 -40.6084 	 40.2537 	 76.6765
| 16> C 	 -38.7163 	 39.7656 	 77.4479
| 17> H 	 -38.1825 	 40.5142 	 76.8955
| 18> H 	 -38.2662 	 39.6076 	 78.4456
| 19> C 	 -38.5767 	 38.5964 	 76.525
| 20> H 	 -37.5439 	 38.4795 	 76.2605
| 21> H 	 -38.9157 	 37.665 	 76.9908
| 22> H 	 -39.1399 	 38.7007 	 75.6543
| 23> S 	 -44.8768 	 37.1923 	 77.2899
| 24> C 	 -46.3734 	 36.5953 	 77.894
| 25> C 	 -46.2915 	 36.1402 	 79.1757
| 26> C 	 -45.0991 	 36.571 	 79.8017
| 27> C 	 -44.2996 	 37.3371 	 78.9034
| 28> H 	 -47.1595 	 35.6864 	 79.6475
| 29> C 	 -44.9052 	 36.3367 	 81.2712
| 30> H 	 -43.8484 	 36.0776 	 81.5315
| 31> H 	 -45.464 	 35.4826 	 81.5301
| 32> C 	 -45.0577 	 37.5176 	 82.271
| 33> H 	 -44.1568 	 38.0482 	 82.2723
| 34> H 	 -45.0814 	 37.1591 	 83.2962
| 35> C 	 -46.1336 	 38.5904 	 82.1427
| 36> H 	 -46.0326 	 39.0122 	 81.12
| 37> H 	 -46.1411 	 39.4376 	 82.9288
| 38> H 	 -47.0572 	 38.1466 	 82.1632
| 39> H 	 -39.5246 	 38.402 	 79.825
| 40> H 	 -47.2932 	 36.5286 	 77.3339
| 41> *
| 42>
| 43>                          ****END OF INPUT****

CARTESIAN COORDINATES (ANGSTROEM)
---------------------------------
  S    -41.747000   37.356700   80.123900
  C    -40.550100   38.481500   79.558600
  C    -40.977500   39.261500   78.448600
  C    -42.343700   38.914900   78.183300
  C    -42.924800   37.941100   79.011600
  H    -42.965500   39.274200   77.331400
  C    -40.193300   40.192400   77.652700
  H    -40.240400   41.223500   78.068900
  H    -40.608400   40.253700   76.676500
  C    -38.716300   39.765600   77.447900
  H    -38.182500   40.514200   76.895500
  H    -38.266200   39.607600   78.445600
  C    -38.576700   38.596400   76.525000
  H    -37.543900   38.479500   76.260500
  H    -38.915700   37.665000   76.990800
  H    -39.139900   38.700700   75.654300
  S    -44.876800   37.192300   77.289900
  C    -46.373400   36.595300   77.894000
  C    -46.291500   36.140200   79.175700
  C    -45.099100   36.571000   79.801700
  C    -44.299600   37.337100   78.903400
  H    -47.159500   35.686400   79.647500
  C    -44.905200   36.336700   81.271200
  H    -43.848400   36.077600   81.531500
  H    -45.464000   35.482600   81.530100
  C    -45.057700   37.517600   82.271000
  H    -44.156800   38.048200   82.272300
  H    -45.081400   37.159100   83.296200
  C    -46.133600   38.590400   82.142700
  H    -46.032600   39.012200   81.120000
  H    -46.141100   39.437600   82.928800
  H    -47.057200   38.146600   82.163200
  H    -39.524600   38.402000   79.825000
  H    -47.293200   36.528600   77.333900

 Total Charge           Charge          ....    0
 Multiplicity           Mult            ....    1
 Number of Electrons    NEL             ....  134
 Basis Dimension        Dim             ....  322

ORBITAL ENERGIES
----------------

  NO   OCC          E(Eh)            E(eV)
   0   2.0000     -88.970236     -2421.0032
   1   2.0000     -88.967842     -2420.9381
   2   2.0000     -10.332489      -281.1613
   3   2.0000     -10.331772      -281.1418
   4   2.0000     -10.313467      -280.6437
   5   2.0000     -10.310810      -280.5714
   6   2.0000     -10.306036      -280.4415
   7   2.0000     -10.305393      -280.4240
   8   2.0000     -10.297759      -280.2163
   9   2.0000     -10.291107      -280.0352
  10   2.0000     -10.290851      -280.0283
  11   2.0000     -10.289842      -280.0008
  12   2.0000     -10.285695      -279.8880
  13   2.0000     -10.275465      -279.6096
  14   2.0000     -10.269319      -279.4424
  15   2.0000     -10.266691      -279.3709
  16   2.0000      -8.084847      -219.9999
  17   2.0000      -8.083530      -219.9640
  18   2.0000      -6.043259      -164.4454
  19   2.0000      -6.041853      -164.4072
  20   2.0000      -6.039280      -164.3372
  21   2.0000      -6.038087      -164.3047
  22   2.0000      -6.035849      -164.2438
  23   2.0000      -6.034261      -164.2006
  24   2.0000      -1.010455       -27.4959
  25   2.0000      -0.989047       -26.9133
  26   2.0000      -0.922059       -25.0905
  27   2.0000      -0.906824       -24.6759
  28   2.0000      -0.868011       -23.6198
  29   2.0000      -0.857535       -23.3347
  30   2.0000      -0.845800       -23.0154
  31   2.0000      -0.812081       -22.0979
  32   2.0000      -0.787986       -21.4422
  33   2.0000      -0.774710       -21.0809
  34   2.0000      -0.709468       -19.3056
  35   2.0000      -0.705159       -19.1884
  36   2.0000      -0.683657       -18.6033
  37   2.0000      -0.665003       -18.0957
  38   2.0000      -0.635497       -17.2927
  39   2.0000      -0.608484       -16.5577
  40   2.0000      -0.593430       -16.1481
  41   2.0000      -0.584386       -15.9020
  42   2.0000      -0.558572       -15.1995
  43   2.0000      -0.553529       -15.0623
  44   2.0000      -0.544616       -14.8198
  45   2.0000      -0.535390       -14.5687
  46   2.0000      -0.516691       -14.0599
  47   2.0000      -0.515105       -14.0167
  48   2.0000      -0.500673       -13.6240
  49   2.0000      -0.495140       -13.4734
  50   2.0000      -0.488280       -13.2868
  51   2.0000      -0.478527       -13.0214
  52   2.0000      -0.473302       -12.8792
  53   2.0000      -0.471251       -12.8234
  54   2.0000      -0.464923       -12.6512
  55   2.0000      -0.450682       -12.2637
  56   2.0000      -0.446140       -12.1401
  57   2.0000      -0.435357       -11.8467
  58   2.0000      -0.432208       -11.7610
  59   2.0000      -0.422918       -11.5082
  60   2.0000      -0.420810       -11.4508
  61   2.0000      -0.415683       -11.3113
  62   2.0000      -0.406892       -11.0721
  63   2.0000      -0.351993        -9.5782
  64   2.0000      -0.331259        -9.0140
  65   2.0000      -0.330507        -8.9935
  66   2.0000      -0.282024        -7.6743
  67   0.0000       0.018917         0.5148
  68   0.0000       0.076613         2.0847
  69   0.0000       0.108311         2.9473
  70   0.0000       0.116789         3.1780
  71   0.0000       0.124847         3.3973

MULLIKEN ATOMIC CHARGES
-----------------------
   0 S :    0.112643
   1 C :   -0.112126
   2 C :   -0.088076
   3 C :   -0.022322
   4 C :   -0.132787
   5 H :    0.024951
   6 C :    0.085337
   7 H :    0.054877
   8 H :    0.008135
   9 C :   -0.098641
  10 H :    0.022940
  11 H :    0.035870
  12 C :   -0.013132
  13 H :    0.028446
  14 H :    0.030090
  15 H :    0.011988
  16 S :    0.112206
  17 C :   -0.085087
  18 C :   -0.038483
  19 C :   -0.069776
  20 C :   -0.122952
  21 H :    0.024725
  22 C :    0.086067
  23 H :    0.031573
  24 H :    0.012143
  25 C :   -0.058743
  26 H :    0.008198
  27 H :    0.018017
  28 C :   -0.046154
  29 H :    0.039997
  30 H :    0.047224
  31 H :    0.004374
  32 H :    0.039486
  33 H :    0.048992
Sum of atomic charges:   -0.0000000

LOEWDIN ATOMIC CHARGES
----------------------
   0 S :    0.438947
   1 C :   -0.204073
   2 C :   -0.056460
   3 C :   -0.077831
   4 C :   -0.209018
   5 H :    0.029527
   6 C :   -0.034128
   7 H :    0.043588
   8 H :    0.026533
   9 C :   -0.037306
  10 H :    0.024100
  11 H :    0.023599
  12 C :   -0.056934
  13 H :    0.025218
  14 H :    0.025468
  15 H :    0.017015
  16 S :    0.438451
  17 C :   -0.190719
  18 C :   -0.069281
  19 C :   -0.062812
  20 C :   -0.201340
  21 H :    0.035921
  22 C :   -0.033344
  23 H :    0.034874
  24 H :    0.023951
  25 C :   -0.041235
  26 H :    0.012945
  27 H :    0.024902
  28 C :   -0.069436
  29 H :    0.030702
  30 H :    0.038506
  31 H :    0.006017
  32 H :    0.016786
  33 H :    0.026867

  Mayer bond orders larger than 0.100000
B(  0-S ,  1-C ) :   1.1622 B(  0-S ,  4-C ) :   1.1645 B(  1-C ,  2-C ) :   1.5574
B(  1-C , 32-H ) :   0.9671 B(  2-C ,  3-C ) :   1.2780 B(  2-C ,  6-C ) :   1.0333
B(  3-C ,  4-C ) :   1.5429 B(  3-C ,  5-H ) :   0.9793 B(  4-C , 20-C ) :   1.0419
B(  6-C ,  7-H ) :   0.9234 B(  6-C ,  8-H ) :   0.9383 B(  6-C ,  9-C ) :   1.0842
B(  9-C , 10-H ) :   0.9540 B(  9-C , 11-H ) :   0.9539 B(  9-C , 12-C ) :   1.0817
B( 12-C , 13-H ) :   0.9745 B( 12-C , 14-H ) :   0.9727 B( 12-C , 15-H ) :   0.9696
B( 16-S , 17-C ) :   1.1599 B( 16-S , 20-C ) :   1.1673 B( 17-C , 18-C ) :   1.6053
B( 17-C , 33-H ) :   0.9676 B( 18-C , 19-C ) :   1.2553 B( 18-C , 21-H ) :   0.9908
B( 19-C , 20-C ) :   1.5310 B( 19-C , 22-C ) :   1.0597 B( 22-C , 23-H ) :   0.9309
B( 22-C , 24-H ) :   0.9328 B( 22-C , 25-C ) :   1.0526 B( 25-C , 26-H ) :   0.9559
B( 25-C , 27-H ) :   0.9527 B( 25-C , 28-C ) :   1.0841 B( 28-C , 29-H ) :   0.9679
B( 28-C , 30-H ) :   0.9735 B( 28-C , 31-H ) :   0.9772

Dispersion correction           -0.014708191
FINAL SINGLE POINT ENERGY     -1339.863701313971

DIPOLE MOMENT
-------------
                                X             Y             Z
Electronic contribution:     -7.18104      -7.86167      -4.75076
Nuclear contribution   :      7.27151       7.93407       4.63184
                        -----------------------------------------
Total Dipole Moment    :      0.09047       0.07240      -0.11892
                        -----------------------------------------
Magnitude (a.u.)       :      0.16604
Magnitude (Debye)      :      0.42203

Rotational constants in cm-1:     0.024244     0.007930     0.006688
Rotational constants in MHz :   726.826449   237.737401   200.510053

                             ****ORCA TERMINATED NORMALLY****
TOTAL RUN TIME: 0 days 0 hours 0 minutes 30 seconds 86 msec
