                         Program Version 4.2.1 -  RELEASE  -
|  1> ! wB97X-D3 SP def2-SVP
|  2> %pal
|  3> nprocs 16
|  4> end
|  5>
|  6> * xyz 0 1
|  7> S 	 62.6863 	 17.5988 	 72.3057
|  8> C 	 63.3252 	 16.2472 	 71.4446
|  9> C 	 64.5014 	 15.8297 	 72.0574
| 10> C 	 64.8481 	 16.5543 	 73.2338
| 11> C 	 63.9328 	 17.5434 	 73.5052
| 12> H 	 65.737 	 16.4018 	 73.7713
| 13> C 	 65.4336 	 14.7531 	 71.4672
| 14> H 	 64.8102 	 14.265 	 70.7694
| 15> H 	 65.73 	 13.9326 	 72.2102
| 16> C 	 66.6631 	 15.2266 	 70.7202
| 17> H 	 67.3303 	 15.7326 	 71.5602
| 18> H 	 67.2403 	 14.354 	 70.3254
| 19> C 	 66.3665 	 16.2453 	 69.595
| 20> H 	 65.53 	 15.829 	 68.9966
| 21> H 	 66.0742 	 17.2806 	 69.8811
| 22> H 	 67.2955 	 16.3271 	 69.0322
| 23> S 	 62.2752 	 18.9677 	 75.2344
| 24> C 	 62.9411 	 19.854 	 76.5079
| 25> C 	 64.3077 	 19.8584 	 76.5057
| 26> C 	 64.8508 	 19.1083 	 75.3681
| 27> C 	 63.8785 	 18.4625 	 74.6402
| 28> H 	 64.9323 	 20.4209 	 77.2011
| 29> C 	 66.3683 	 18.9167 	 75.17
| 30> H 	 66.8903 	 19.8193 	 75.3344
| 31> H 	 66.6294 	 18.5799 	 74.0997
| 32> C 	 66.9754 	 17.9815 	 76.1713
| 33> H 	 66.4398 	 17.0456 	 76.1784
| 34> H 	 66.9042 	 18.4671 	 77.1067
| 35> C 	 68.4689 	 17.6122 	 75.7889
| 36> H 	 69.1072 	 17.6436 	 76.6682
| 37> H 	 68.9271 	 18.3942 	 75.2154
| 38> H 	 68.5949 	 16.6198 	 75.3033
| 39> H 	 63.0777 	 16.0295 	 70.437
| 40> H 	 62.2915 	 20.2902 	 77.282
| 41> *
| 42>
| 43>                          ****END OF INPUT****

CARTESIAN COORDINATES (ANGSTROEM)
---------------------------------
  S     62.686300   17.598800   72.305700
  C     63.325200   16.247200   71.444600
  C     64.501400   15.829700   72.057400
  C     64.848100   16.554300   73.233800
  C     63.932800   17.543400   73.505200
  H     65.737000   16.401800   73.771300
  C     65.433600   14.753100   71.467200
  H     64.810200   14.265000   70.769400
  H     65.730000   13.932600   72.210200
  C     66.663100   15.226600   70.720200
  H     67.330300   15.732600   71.560200
  H     67.240300   14.354000   70.325400
  C     66.366500   16.245300   69.595000
  H     65.530000   15.829000   68.996600
  H     66.074200   17.280600   69.881100
  H     67.295500   16.327100   69.032200
  S     62.275200   18.967700   75.234400
  C     62.941100   19.854000   76.507900
  C     64.307700   19.858400   76.505700
  C     64.850800   19.108300   75.368100
  C     63.878500   18.462500   74.640200
  H     64.932300   20.420900   77.201100
  C     66.368300   18.916700   75.170000
  H     66.890300   19.819300   75.334400
  H     66.629400   18.579900   74.099700
  C     66.975400   17.981500   76.171300
  H     66.439800   17.045600   76.178400
  H     66.904200   18.467100   77.106700
  C     68.468900   17.612200   75.788900
  H     69.107200   17.643600   76.668200
  H     68.927100   18.394200   75.215400
  H     68.594900   16.619800   75.303300
  H     63.077700   16.029500   70.437000
  H     62.291500   20.290200   77.282000

 Total Charge           Charge          ....    0
 Multiplicity           Mult            ....    1
 Number of Electrons    NEL             ....  134
 Basis Dimension        Dim             ....  322

ORBITAL ENERGIES
----------------

  NO   OCC          E(Eh)            E(eV)
   0   2.0000     -88.966498     -2420.9015
   1   2.0000     -88.963008     -2420.8065
   2   2.0000     -10.331524      -281.1351
   3   2.0000     -10.328290      -281.0470
   4   2.0000     -10.317181      -280.7448
   5   2.0000     -10.310806      -280.5713
   6   2.0000     -10.307328      -280.4766
   7   2.0000     -10.302789      -280.3531
   8   2.0000     -10.299590      -280.2661
   9   2.0000     -10.298003      -280.2229
  10   2.0000     -10.293265      -280.0940
  11   2.0000     -10.291426      -280.0439
  12   2.0000     -10.290197      -280.0105
  13   2.0000     -10.283440      -279.8266
  14   2.0000     -10.283141      -279.8185
  15   2.0000     -10.281786      -279.7816
  16   2.0000      -8.082028      -219.9232
  17   2.0000      -8.078845      -219.8365
  18   2.0000      -6.040508      -164.3706
  19   2.0000      -6.037349      -164.2846
  20   2.0000      -6.036293      -164.2559
  21   2.0000      -6.033173      -164.1710
  22   2.0000      -6.032909      -164.1638
  23   2.0000      -6.029557      -164.0726
  24   2.0000      -1.012033       -27.5388
  25   2.0000      -0.989630       -26.9292
  26   2.0000      -0.914057       -24.8728
  27   2.0000      -0.910255       -24.7693
  28   2.0000      -0.870296       -23.6820
  29   2.0000      -0.850956       -23.1557
  30   2.0000      -0.842964       -22.9382
  31   2.0000      -0.814499       -22.1636
  32   2.0000      -0.784286       -21.3415
  33   2.0000      -0.775452       -21.1011
  34   2.0000      -0.707777       -19.2596
  35   2.0000      -0.696682       -18.9577
  36   2.0000      -0.689332       -18.7577
  37   2.0000      -0.662092       -18.0164
  38   2.0000      -0.641929       -17.4678
  39   2.0000      -0.625867       -17.0307
  40   2.0000      -0.600724       -16.3465
  41   2.0000      -0.574563       -15.6347
  42   2.0000      -0.563827       -15.3425
  43   2.0000      -0.546162       -14.8618
  44   2.0000      -0.545395       -14.8410
  45   2.0000      -0.520225       -14.1560
  46   2.0000      -0.518259       -14.1026
  47   2.0000      -0.513581       -13.9752
  48   2.0000      -0.503033       -13.6882
  49   2.0000      -0.500521       -13.6199
  50   2.0000      -0.494559       -13.4576
  51   2.0000      -0.483297       -13.1512
  52   2.0000      -0.471465       -12.8292
  53   2.0000      -0.467534       -12.7223
  54   2.0000      -0.455666       -12.3993
  55   2.0000      -0.455041       -12.3823
  56   2.0000      -0.441967       -12.0265
  57   2.0000      -0.436690       -11.8829
  58   2.0000      -0.435197       -11.8423
  59   2.0000      -0.426591       -11.6081
  60   2.0000      -0.420733       -11.4487
  61   2.0000      -0.413614       -11.2550
  62   2.0000      -0.405948       -11.0464
  63   2.0000      -0.361190        -9.8285
  64   2.0000      -0.333513        -9.0754
  65   2.0000      -0.329757        -8.9732
  66   2.0000      -0.289108        -7.8670
  67   0.0000       0.027822         0.7571
  68   0.0000       0.076705         2.0873
  69   0.0000       0.109024         2.9667
  70   0.0000       0.119254         3.2451
  71   0.0000       0.122819         3.3421

MULLIKEN ATOMIC CHARGES
-----------------------
   0 S :    0.107159
   1 C :   -0.099036
   2 C :   -0.111668
   3 C :    0.036889
   4 C :   -0.115002
   5 H :   -0.015600
   6 C :    0.058747
   7 H :   -0.000840
   8 H :    0.045173
   9 C :   -0.109180
  10 H :    0.034214
  11 H :    0.046604
  12 C :   -0.061711
  13 H :    0.028526
  14 H :    0.053373
  15 H :    0.039542
  16 S :    0.100847
  17 C :   -0.086786
  18 C :   -0.029530
  19 C :   -0.052480
  20 C :   -0.133416
  21 H :    0.023372
  22 C :    0.030393
  23 H :    0.010682
  24 H :    0.043188
  25 C :   -0.054447
  26 H :    0.031671
  27 H :    0.018754
  28 C :   -0.050434
  29 H :    0.025270
  30 H :    0.019821
  31 H :    0.049613
  32 H :    0.044581
  33 H :    0.071712
Sum of atomic charges:    0.0000000

LOEWDIN ATOMIC CHARGES
----------------------
   0 S :    0.425043
   1 C :   -0.207674
   2 C :   -0.054657
   3 C :   -0.063148
   4 C :   -0.184091
   5 H :    0.023059
   6 C :   -0.042518
   7 H :    0.017486
   8 H :    0.039894
   9 C :   -0.050247
  10 H :    0.028229
  11 H :    0.030608
  12 C :   -0.072358
  13 H :    0.024638
  14 H :    0.032498
  15 H :    0.028428
  16 S :    0.408920
  17 C :   -0.198595
  18 C :   -0.077394
  19 C :   -0.050032
  20 C :   -0.189503
  21 H :    0.032076
  22 C :   -0.035754
  23 H :    0.022675
  24 H :    0.035877
  25 C :   -0.033379
  26 H :    0.021640
  27 H :    0.018395
  28 C :   -0.069132
  29 H :    0.027209
  30 H :    0.020493
  31 H :    0.031691
  32 H :    0.023014
  33 H :    0.036605

  Mayer bond orders larger than 0.100000
B(  0-S ,  1-C ) :   1.1403 B(  0-S ,  4-C ) :   1.1735 B(  1-C ,  2-C ) :   1.5954
B(  1-C , 32-H ) :   0.9683 B(  2-C ,  3-C ) :   1.2563 B(  2-C ,  6-C ) :   1.0215
B(  3-C ,  4-C ) :   1.5371 B(  3-C ,  5-H ) :   1.0080 B(  4-C , 20-C ) :   1.0454
B(  6-C ,  7-H ) :   0.9344 B(  6-C ,  8-H ) :   0.9432 B(  6-C ,  9-C ) :   1.0756
B(  9-C , 10-H ) :   0.9521 B(  9-C , 11-H ) :   0.9558 B(  9-C , 12-C ) :   1.0632
B( 12-C , 13-H ) :   0.9756 B( 12-C , 14-H ) :   0.9726 B( 12-C , 15-H ) :   0.9743
B( 16-S , 17-C ) :   1.1713 B( 16-S , 20-C ) :   1.1212 B( 17-C , 18-C ) :   1.6050
B( 17-C , 33-H ) :   0.9634 B( 18-C , 19-C ) :   1.2199 B( 18-C , 21-H ) :   0.9905
B( 19-C , 20-C ) :   1.6246 B( 19-C , 22-C ) :   1.0549 B( 22-C , 23-H ) :   0.9225
B( 22-C , 24-H ) :   0.9425 B( 22-C , 25-C ) :   1.0661 B( 25-C , 26-H ) :   0.9609
B( 25-C , 27-H ) :   0.9562 B( 25-C , 28-C ) :   1.0659 B( 28-C , 29-H ) :   0.9745
B( 28-C , 30-H ) :   0.9746 B( 28-C , 31-H ) :   0.9794

Dispersion correction           -0.014785635
FINAL SINGLE POINT ENERGY     -1339.884616159327

DIPOLE MOMENT
-------------
                                X             Y             Z
Electronic contribution:    -28.47759       9.31252       5.23464
Nuclear contribution   :     29.18369      -9.35601      -5.15912
                        -----------------------------------------
Total Dipole Moment    :      0.70610      -0.04349       0.07552
                        -----------------------------------------
Magnitude (a.u.)       :      0.71146
Magnitude (Debye)      :      1.80839

Rotational constants in cm-1:     0.017998     0.009835     0.006796
Rotational constants in MHz :   539.558081   294.854518   203.729191

                             ****ORCA TERMINATED NORMALLY****
TOTAL RUN TIME: 0 days 0 hours 0 minutes 30 seconds 601 msec
