                         Program Version 4.2.1 -  RELEASE  -
|  1> ! wB97X-D3 SP def2-SVP
|  2> %pal
|  3> nprocs 16
|  4> end
|  5>
|  6> * xyz 0 1
|  7> S 	 25.6956 	 7.52123 	 63.614
|  8> C 	 27.1918 	 8.05547 	 62.8035
|  9> C 	 27.7476 	 9.178 	 63.3712
| 10> C 	 27.0537 	 9.52848 	 64.57
| 11> C 	 26.0115 	 8.64817 	 64.8684
| 12> H 	 27.2195 	 10.3782 	 65.1826
| 13> C 	 28.7721 	 10.0526 	 62.7246
| 14> H 	 29.0677 	 9.41491 	 61.8376
| 15> H 	 29.5579 	 10.1676 	 63.4427
| 16> C 	 28.2747 	 11.4163 	 62.2801
| 17> H 	 27.8921 	 12.0091 	 63.1933
| 18> H 	 28.914 	 12.0737 	 61.6436
| 19> C 	 26.9959 	 11.3746 	 61.4155
| 20> H 	 27.0725 	 10.4408 	 60.8489
| 21> H 	 26.1128 	 11.1892 	 62.0258
| 22> H 	 26.8342 	 12.296 	 60.808
| 23> S 	 23.3381 	 8.96495 	 65.542
| 24> C 	 23.0087 	 9.45457 	 67.1613
| 25> C 	 24.1284 	 9.50638 	 67.9986
| 26> C 	 25.337 	 9.18042 	 67.2847
| 27> C 	 25.0727 	 8.76489 	 65.9557
| 28> H 	 24.0359 	 9.73768 	 69.0393
| 29> C 	 26.7071 	 9.29085 	 67.8654
| 30> H 	 26.8174 	 10.2925 	 68.3084
| 31> H 	 27.4488 	 9.13426 	 67.1171
| 32> C 	 27.1165 	 8.33439 	 69.0152
| 33> H 	 27.0873 	 7.37412 	 68.6953
| 34> H 	 26.4148 	 8.35194 	 69.8629
| 35> C 	 28.5774 	 8.59971 	 69.3797
| 36> H 	 29.1428 	 8.48229 	 68.462
| 37> H 	 29.0149 	 7.78263 	 70.0152
| 38> H 	 28.7584 	 9.57961 	 69.7456
| 39> H 	 27.4592 	 7.77602 	 61.8495
| 40> H 	 22.0269 	 9.6222 	 67.4883
| 41> *
| 42>
| 43>                          ****END OF INPUT****

CARTESIAN COORDINATES (ANGSTROEM)
---------------------------------
  S     25.695600    7.521230   63.614000
  C     27.191800    8.055470   62.803500
  C     27.747600    9.178000   63.371200
  C     27.053700    9.528480   64.570000
  C     26.011500    8.648170   64.868400
  H     27.219500   10.378200   65.182600
  C     28.772100   10.052600   62.724600
  H     29.067700    9.414910   61.837600
  H     29.557900   10.167600   63.442700
  C     28.274700   11.416300   62.280100
  H     27.892100   12.009100   63.193300
  H     28.914000   12.073700   61.643600
  C     26.995900   11.374600   61.415500
  H     27.072500   10.440800   60.848900
  H     26.112800   11.189200   62.025800
  H     26.834200   12.296000   60.808000
  S     23.338100    8.964950   65.542000
  C     23.008700    9.454570   67.161300
  C     24.128400    9.506380   67.998600
  C     25.337000    9.180420   67.284700
  C     25.072700    8.764890   65.955700
  H     24.035900    9.737680   69.039300
  C     26.707100    9.290850   67.865400
  H     26.817400   10.292500   68.308400
  H     27.448800    9.134260   67.117100
  C     27.116500    8.334390   69.015200
  H     27.087300    7.374120   68.695300
  H     26.414800    8.351940   69.862900
  C     28.577400    8.599710   69.379700
  H     29.142800    8.482290   68.462000
  H     29.014900    7.782630   70.015200
  H     28.758400    9.579610   69.745600
  H     27.459200    7.776020   61.849500
  H     22.026900    9.622200   67.488300

 Total Charge           Charge          ....    0
 Multiplicity           Mult            ....    1
 Number of Electrons    NEL             ....  134
 Basis Dimension        Dim             ....  322

ORBITAL ENERGIES
----------------

  NO   OCC          E(Eh)            E(eV)
   0   2.0000     -88.968842     -2420.9653
   1   2.0000     -88.968056     -2420.9439
   2   2.0000     -10.327685      -281.0306
   3   2.0000     -10.327232      -281.0183
   4   2.0000     -10.317573      -280.7554
   5   2.0000     -10.308475      -280.5079
   6   2.0000     -10.308310      -280.5034
   7   2.0000     -10.300646      -280.2948
   8   2.0000     -10.297802      -280.2174
   9   2.0000     -10.297616      -280.2124
  10   2.0000     -10.295619      -280.1580
  11   2.0000     -10.291607      -280.0489
  12   2.0000     -10.288512      -279.9647
  13   2.0000     -10.277938      -279.6769
  14   2.0000     -10.277110      -279.6544
  15   2.0000     -10.274501      -279.5834
  16   2.0000      -8.083412      -219.9608
  17   2.0000      -8.083041      -219.9507
  18   2.0000      -6.041815      -164.4061
  19   2.0000      -6.041475      -164.3969
  20   2.0000      -6.038038      -164.3034
  21   2.0000      -6.037715      -164.2946
  22   2.0000      -6.034202      -164.1990
  23   2.0000      -6.033670      -164.1845
  24   2.0000      -1.007771       -27.4229
  25   2.0000      -0.982057       -26.7231
  26   2.0000      -0.918604       -24.9965
  27   2.0000      -0.913827       -24.8665
  28   2.0000      -0.868607       -23.6360
  29   2.0000      -0.856944       -23.3186
  30   2.0000      -0.844513       -22.9804
  31   2.0000      -0.812229       -22.1019
  32   2.0000      -0.786126       -21.3916
  33   2.0000      -0.772118       -21.0104
  34   2.0000      -0.711226       -19.3534
  35   2.0000      -0.702563       -19.1177
  36   2.0000      -0.690675       -18.7942
  37   2.0000      -0.661036       -17.9877
  38   2.0000      -0.641367       -17.4525
  39   2.0000      -0.621494       -16.9117
  40   2.0000      -0.601018       -16.3545
  41   2.0000      -0.575450       -15.6588
  42   2.0000      -0.564259       -15.3543
  43   2.0000      -0.555482       -15.1154
  44   2.0000      -0.553891       -15.0721
  45   2.0000      -0.523270       -14.2389
  46   2.0000      -0.519595       -14.1389
  47   2.0000      -0.511731       -13.9249
  48   2.0000      -0.501197       -13.6383
  49   2.0000      -0.492894       -13.4123
  50   2.0000      -0.490753       -13.3541
  51   2.0000      -0.481227       -13.0948
  52   2.0000      -0.467230       -12.7140
  53   2.0000      -0.458629       -12.4799
  54   2.0000      -0.456767       -12.4293
  55   2.0000      -0.454657       -12.3718
  56   2.0000      -0.450917       -12.2701
  57   2.0000      -0.443680       -12.0731
  58   2.0000      -0.435650       -11.8547
  59   2.0000      -0.431959       -11.7542
  60   2.0000      -0.421620       -11.4729
  61   2.0000      -0.415772       -11.3137
  62   2.0000      -0.406334       -11.0569
  63   2.0000      -0.348087        -9.4719
  64   2.0000      -0.333505        -9.0751
  65   2.0000      -0.331415        -9.0183
  66   2.0000      -0.286514        -7.7964
  67   0.0000       0.023916         0.6508
  68   0.0000       0.066867         1.8196
  69   0.0000       0.103328         2.8117
  70   0.0000       0.112035         3.0486
  71   0.0000       0.122101         3.3225

MULLIKEN ATOMIC CHARGES
-----------------------
   0 S :    0.103483
   1 C :   -0.070126
   2 C :   -0.131620
   3 C :    0.031913
   4 C :   -0.169326
   5 H :    0.009453
   6 C :    0.119309
   7 H :    0.028691
   8 H :    0.034137
   9 C :   -0.126308
  10 H :    0.042246
  11 H :    0.048886
  12 C :   -0.061274
  13 H :    0.013039
  14 H :    0.034633
  15 H :    0.049182
  16 S :    0.103096
  17 C :   -0.073378
  18 C :   -0.016438
  19 C :   -0.039720
  20 C :   -0.117043
  21 H :    0.014889
  22 C :    0.039009
  23 H :    0.030238
  24 H :    0.010070
  25 C :   -0.023204
  26 H :    0.002391
  27 H :    0.024316
  28 C :   -0.047373
  29 H :    0.019281
  30 H :    0.042273
  31 H :    0.025835
  32 H :    0.008693
  33 H :    0.040745
Sum of atomic charges:    0.0000000

LOEWDIN ATOMIC CHARGES
----------------------
   0 S :    0.407005
   1 C :   -0.180444
   2 C :   -0.057687
   3 C :   -0.061705
   4 C :   -0.197357
   5 H :    0.025490
   6 C :   -0.030830
   7 H :    0.038071
   8 H :    0.032303
   9 C :   -0.053767
  10 H :    0.032094
  11 H :    0.032472
  12 C :   -0.073142
  13 H :    0.020191
  14 H :    0.024525
  15 H :    0.030862
  16 S :    0.399768
  17 C :   -0.176128
  18 C :   -0.065852
  19 C :   -0.044229
  20 C :   -0.198542
  21 H :    0.029702
  22 C :   -0.032473
  23 H :    0.035109
  24 H :    0.024262
  25 C :   -0.028845
  26 H :    0.011104
  27 H :    0.020816
  28 C :   -0.061889
  29 H :    0.025366
  30 H :    0.034327
  31 H :    0.017252
  32 H :    0.005568
  33 H :    0.016605

  Mayer bond orders larger than 0.100000
B(  0-S ,  1-C ) :   1.1213 B(  0-S ,  4-C ) :   1.1628 B(  1-C ,  2-C ) :   1.6330
B(  1-C , 32-H ) :   0.9661 B(  2-C ,  3-C ) :   1.2253 B(  2-C ,  6-C ) :   1.0196
B(  3-C ,  4-C ) :   1.5551 B(  3-C ,  5-H ) :   0.9962 B(  4-C , 20-C ) :   1.0424
B(  6-C ,  7-H ) :   0.9358 B(  6-C ,  8-H ) :   0.9317 B(  6-C ,  9-C ) :   1.0719
B(  9-C , 10-H ) :   0.9554 B(  9-C , 11-H ) :   0.9654 B(  9-C , 12-C ) :   1.0595
B( 12-C , 13-H ) :   0.9748 B( 12-C , 14-H ) :   0.9706 B( 12-C , 15-H ) :   0.9776
B( 16-S , 17-C ) :   1.1736 B( 16-S , 20-C ) :   1.1231 B( 17-C , 18-C ) :   1.5911
B( 17-C , 33-H ) :   0.9721 B( 18-C , 19-C ) :   1.2336 B( 18-C , 21-H ) :   0.9969
B( 19-C , 20-C ) :   1.5850 B( 19-C , 22-C ) :   1.0599 B( 22-C , 23-H ) :   0.9310
B( 22-C , 24-H ) :   0.9318 B( 22-C , 25-C ) :   1.0628 B( 25-C , 26-H ) :   0.9485
B( 25-C , 27-H ) :   0.9553 B( 25-C , 28-C ) :   1.0844 B( 28-C , 29-H ) :   0.9706
B( 28-C , 30-H ) :   0.9727 B( 28-C , 31-H ) :   0.9775

Dispersion correction           -0.014544870
FINAL SINGLE POINT ENERGY     -1339.866694582546

DIPOLE MOMENT
-------------
                                X             Y             Z
Electronic contribution:    -19.66114     -10.78107      -4.52538
Nuclear contribution   :     19.93641      11.23438       4.76627
                        -----------------------------------------
Total Dipole Moment    :      0.27526       0.45332       0.24089
                        -----------------------------------------
Magnitude (a.u.)       :      0.58249
Magnitude (Debye)      :      1.48057

Rotational constants in cm-1:     0.017280     0.009222     0.007366
Rotational constants in MHz :   518.032391   276.463819   220.838083

                             ****ORCA TERMINATED NORMALLY****
TOTAL RUN TIME: 0 days 0 hours 0 minutes 30 seconds 635 msec
