                         Program Version 4.2.1 -  RELEASE  -
|  1> ! wB97X-D3 SP def2-SVP
|  2> %pal
|  3> nprocs 16
|  4> end
|  5>
|  6> * xyz 0 1
|  7> S 	 -17.549 	 36.9525 	 56.9427
|  8> C 	 -16.7419 	 36.9956 	 55.3583
|  9> C 	 -17.568 	 37.6044 	 54.4153
| 10> C 	 -18.8173 	 37.9818 	 54.9087
| 11> C 	 -19.0223 	 37.601 	 56.2469
| 12> H 	 -19.6585 	 38.5525 	 54.4117
| 13> C 	 -17.2301 	 38.0139 	 53.0243
| 14> H 	 -18.0954 	 38.0934 	 52.3641
| 15> H 	 -16.7607 	 37.1839 	 52.6044
| 16> C 	 -16.4426 	 39.3515 	 52.8426
| 17> H 	 -16.6847 	 39.592 	 51.7319
| 18> H 	 -16.9056 	 40.1939 	 53.446
| 19> C 	 -14.9228 	 39.1486 	 53.1893
| 20> H 	 -14.6773 	 39.1637 	 54.249
| 21> H 	 -14.6633 	 38.1762 	 52.8448
| 22> H 	 -14.3486 	 39.9401 	 52.7229
| 23> S 	 -20.2335 	 38.8593 	 58.3502
| 24> C 	 -21.9142 	 38.7462 	 58.4879
| 25> C 	 -22.496 	 37.9002 	 57.5961
| 26> C 	 -21.5691 	 37.3167 	 56.6856
| 27> C 	 -20.273 	 37.7593 	 56.9426
| 28> H 	 -23.5568 	 37.6965 	 57.5426
| 29> C 	 -22.0446 	 36.2253 	 55.6887
| 30> H 	 -21.9982 	 36.6659 	 54.776
| 31> H 	 -23.0023 	 35.9209 	 55.9331
| 32> C 	 -21.2191 	 34.924 	 55.9145
| 33> H 	 -21.4522 	 34.6452 	 56.9532
| 34> H 	 -20.2177 	 35.1339 	 55.9216
| 35> C 	 -21.6086 	 33.6823 	 55.058
| 36> H 	 -21.2513 	 33.8169 	 54.0132
| 37> H 	 -22.7108 	 33.5421 	 55.0014
| 38> H 	 -21.2219 	 32.7652 	 55.4183
| 39> H 	 -15.6789 	 36.8511 	 55.2594
| 40> H 	 -22.3984 	 39.1757 	 59.302
| 41> *
| 42>
| 43>                          ****END OF INPUT****

CARTESIAN COORDINATES (ANGSTROEM)
---------------------------------
  S    -17.549000   36.952500   56.942700
  C    -16.741900   36.995600   55.358300
  C    -17.568000   37.604400   54.415300
  C    -18.817300   37.981800   54.908700
  C    -19.022300   37.601000   56.246900
  H    -19.658500   38.552500   54.411700
  C    -17.230100   38.013900   53.024300
  H    -18.095400   38.093400   52.364100
  H    -16.760700   37.183900   52.604400
  C    -16.442600   39.351500   52.842600
  H    -16.684700   39.592000   51.731900
  H    -16.905600   40.193900   53.446000
  C    -14.922800   39.148600   53.189300
  H    -14.677300   39.163700   54.249000
  H    -14.663300   38.176200   52.844800
  H    -14.348600   39.940100   52.722900
  S    -20.233500   38.859300   58.350200
  C    -21.914200   38.746200   58.487900
  C    -22.496000   37.900200   57.596100
  C    -21.569100   37.316700   56.685600
  C    -20.273000   37.759300   56.942600
  H    -23.556800   37.696500   57.542600
  C    -22.044600   36.225300   55.688700
  H    -21.998200   36.665900   54.776000
  H    -23.002300   35.920900   55.933100
  C    -21.219100   34.924000   55.914500
  H    -21.452200   34.645200   56.953200
  H    -20.217700   35.133900   55.921600
  C    -21.608600   33.682300   55.058000
  H    -21.251300   33.816900   54.013200
  H    -22.710800   33.542100   55.001400
  H    -21.221900   32.765200   55.418300
  H    -15.678900   36.851100   55.259400
  H    -22.398400   39.175700   59.302000

 Total Charge           Charge          ....    0
 Multiplicity           Mult            ....    1
 Number of Electrons    NEL             ....  134
 Basis Dimension        Dim             ....  322

ORBITAL ENERGIES
----------------

  NO   OCC          E(Eh)            E(eV)
   0   2.0000     -88.968099     -2420.9451
   1   2.0000     -88.962575     -2420.7947
   2   2.0000     -10.327266      -281.0192
   3   2.0000     -10.324294      -280.9383
   4   2.0000     -10.316305      -280.7209
   5   2.0000     -10.306996      -280.4676
   6   2.0000     -10.304487      -280.3994
   7   2.0000     -10.302841      -280.3546
   8   2.0000     -10.298361      -280.2327
   9   2.0000     -10.293595      -280.1030
  10   2.0000     -10.288391      -279.9613
  11   2.0000     -10.283376      -279.8249
  12   2.0000     -10.282609      -279.8040
  13   2.0000     -10.278178      -279.6834
  14   2.0000     -10.277357      -279.6611
  15   2.0000     -10.277238      -279.6579
  16   2.0000      -8.082041      -219.9235
  17   2.0000      -8.078416      -219.8249
  18   2.0000      -6.040495      -164.3702
  19   2.0000      -6.036686      -164.2666
  20   2.0000      -6.036661      -164.2659
  21   2.0000      -6.032901      -164.1636
  22   2.0000      -6.032819      -164.1614
  23   2.0000      -6.029319      -164.0661
  24   2.0000      -1.006191       -27.3799
  25   2.0000      -0.984454       -26.7884
  26   2.0000      -0.908978       -24.7346
  27   2.0000      -0.906551       -24.6685
  28   2.0000      -0.865285       -23.5456
  29   2.0000      -0.849535       -23.1170
  30   2.0000      -0.845287       -23.0014
  31   2.0000      -0.807107       -21.9625
  32   2.0000      -0.786854       -21.4114
  33   2.0000      -0.776443       -21.1281
  34   2.0000      -0.710406       -19.3311
  35   2.0000      -0.699984       -19.0475
  36   2.0000      -0.694760       -18.9054
  37   2.0000      -0.663255       -18.0481
  38   2.0000      -0.639362       -17.3979
  39   2.0000      -0.615119       -16.7382
  40   2.0000      -0.598802       -16.2942
  41   2.0000      -0.573651       -15.6098
  42   2.0000      -0.566000       -15.4016
  43   2.0000      -0.542617       -14.7653
  44   2.0000      -0.528189       -14.3727
  45   2.0000      -0.523805       -14.2534
  46   2.0000      -0.518924       -14.1206
  47   2.0000      -0.510382       -13.8882
  48   2.0000      -0.500058       -13.6073
  49   2.0000      -0.498354       -13.5609
  50   2.0000      -0.491891       -13.3850
  51   2.0000      -0.486769       -13.2456
  52   2.0000      -0.474525       -12.9125
  53   2.0000      -0.466150       -12.6846
  54   2.0000      -0.454185       -12.3590
  55   2.0000      -0.450599       -12.2614
  56   2.0000      -0.445617       -12.1259
  57   2.0000      -0.441081       -12.0024
  58   2.0000      -0.428740       -11.6666
  59   2.0000      -0.425715       -11.5843
  60   2.0000      -0.420842       -11.4517
  61   2.0000      -0.412651       -11.2288
  62   2.0000      -0.409036       -11.1304
  63   2.0000      -0.336816        -9.1652
  64   2.0000      -0.333114        -9.0645
  65   2.0000      -0.331060        -9.0086
  66   2.0000      -0.293729        -7.9928
  67   0.0000       0.029077         0.7912
  68   0.0000       0.065392         1.7794
  69   0.0000       0.111800         3.0422
  70   0.0000       0.126065         3.4304
  71   0.0000       0.129767         3.5311

MULLIKEN ATOMIC CHARGES
-----------------------
   0 S :    0.110008
   1 C :   -0.128496
   2 C :   -0.061514
   3 C :    0.007101
   4 C :   -0.174825
   5 H :    0.041024
   6 C :    0.066821
   7 H :    0.012173
   8 H :    0.009844
   9 C :   -0.108436
  10 H :    0.044563
  11 H :    0.046803
  12 C :   -0.026446
  13 H :    0.040311
  14 H :    0.016837
  15 H :    0.039235
  16 S :    0.109006
  17 C :   -0.052479
  18 C :   -0.039942
  19 C :   -0.058096
  20 C :   -0.202788
  21 H :    0.014213
  22 C :    0.197667
  23 H :    0.009190
  24 H :   -0.009737
  25 C :   -0.086371
  26 H :    0.025125
  27 H :    0.024797
  28 C :   -0.036484
  29 H :    0.033371
  30 H :    0.024394
  31 H :    0.029158
  32 H :    0.049571
  33 H :    0.034403
Sum of atomic charges:   -0.0000000

LOEWDIN ATOMIC CHARGES
----------------------
   0 S :    0.397290
   1 C :   -0.195263
   2 C :   -0.063576
   3 C :   -0.067253
   4 C :   -0.202110
   5 H :    0.045151
   6 C :   -0.037883
   7 H :    0.030337
   8 H :    0.022025
   9 C :   -0.039517
  10 H :    0.033582
  11 H :    0.031039
  12 C :   -0.064070
  13 H :    0.027665
  14 H :    0.017711
  15 H :    0.027993
  16 S :    0.416452
  17 C :   -0.186577
  18 C :   -0.076936
  19 C :   -0.040373
  20 C :   -0.197839
  21 H :    0.030912
  22 C :   -0.003057
  23 H :    0.015671
  24 H :    0.019431
  25 C :   -0.027554
  26 H :    0.028240
  27 H :    0.009665
  28 C :   -0.065407
  29 H :    0.027183
  30 H :    0.025694
  31 H :    0.020852
  32 H :    0.025029
  33 H :    0.015492

  Mayer bond orders larger than 0.100000
B(  0-S ,  1-C ) :   1.1323 B(  0-S ,  4-C ) :   1.1594 B(  1-C ,  2-C ) :   1.5811
B(  1-C ,  4-C ) :   0.1095 B(  1-C , 32-H ) :   0.9706 B(  2-C ,  3-C ) :   1.2649
B(  2-C ,  6-C ) :   1.0259 B(  3-C ,  4-C ) :   1.5477 B(  3-C ,  5-H ) :   0.9873
B(  4-C , 20-C ) :   1.0438 B(  6-C ,  7-H ) :   0.9411 B(  6-C ,  8-H ) :   0.9337
B(  6-C ,  9-C ) :   1.0600 B(  9-C , 10-H ) :   0.9601 B(  9-C , 11-H ) :   0.9573
B(  9-C , 12-C ) :   1.0591 B( 12-C , 13-H ) :   0.9744 B( 12-C , 14-H ) :   0.9785
B( 12-C , 15-H ) :   0.9747 B( 16-S , 17-C ) :   1.1766 B( 16-S , 20-C ) :   1.1431
B( 17-C , 18-C ) :   1.5876 B( 17-C , 33-H ) :   0.9730 B( 18-C , 19-C ) :   1.2634
B( 18-C , 21-H ) :   0.9911 B( 19-C , 20-C ) :   1.5919 B( 19-C , 22-C ) :   1.0234
B( 22-C , 23-H ) :   0.9244 B( 22-C , 24-H ) :   0.9331 B( 22-C , 25-C ) :   1.0564
B( 25-C , 26-H ) :   0.9563 B( 25-C , 27-H ) :   0.9648 B( 25-C , 28-C ) :   1.0826
B( 28-C , 29-H ) :   0.9757 B( 28-C , 30-H ) :   0.9739 B( 28-C , 31-H ) :   0.9761

Dispersion correction           -0.014777819
FINAL SINGLE POINT ENERGY     -1339.862143930020

DIPOLE MOMENT
-------------
                                X             Y             Z
Electronic contribution:     -1.61694       7.24299      21.02302
Nuclear contribution   :      1.40571      -7.22915     -21.48124
                        -----------------------------------------
Total Dipole Moment    :     -0.21122       0.01383      -0.45822
                        -----------------------------------------
Magnitude (a.u.)       :      0.50475
Magnitude (Debye)      :      1.28298

Rotational constants in cm-1:     0.019219     0.008466     0.007066
Rotational constants in MHz :   576.167095   253.806576   211.841069

                             ****ORCA TERMINATED NORMALLY****
TOTAL RUN TIME: 0 days 0 hours 0 minutes 34 seconds 724 msec
