                         Program Version 4.2.1 -  RELEASE  -
|  1> ! wB97X-D3 SP def2-SVP
|  2> %pal
|  3> nprocs 16
|  4> end
|  5>
|  6> * xyz 0 1
|  7> S 	 12.3628 	 -4.77581 	 90.9168
|  8> C 	 12.2135 	 -3.27725 	 91.9354
|  9> C 	 11.0942 	 -3.40304 	 92.7488
| 10> C 	 10.233 	 -4.54867 	 92.3919
| 11> C 	 10.7368 	 -5.37536 	 91.4118
| 12> H 	 9.24267 	 -4.89035 	 92.8789
| 13> C 	 10.6996 	 -2.31934 	 93.6958
| 14> H 	 11.1011 	 -1.42516 	 93.2883
| 15> H 	 11.2759 	 -2.537 	 94.6174
| 16> C 	 9.23954 	 -2.04932 	 93.9982
| 17> H 	 9.41344 	 -1.10841 	 94.5102
| 18> H 	 8.69515 	 -2.01051 	 93.0685
| 19> C 	 8.57344 	 -3.01548 	 94.9791
| 20> H 	 8.55526 	 -4.03471 	 94.6069
| 21> H 	 9.15018 	 -3.08905 	 96.0114
| 22> H 	 7.53272 	 -2.71252 	 95.1598
| 23> S 	 11.4068 	 -8.03964 	 91.4885
| 24> C 	 10.317 	 -9.30979 	 91.0267
| 25> C 	 9.11635 	 -8.6966 	 90.6188
| 26> C 	 9.05363 	 -7.25165 	 90.6592
| 27> C 	 10.2965 	 -6.7239 	 91.0398
| 28> H 	 8.23895 	 -9.27166 	 90.3428
| 29> C 	 7.75135 	 -6.53502 	 90.493
| 30> H 	 7.84612 	 -5.47751 	 90.0245
| 31> H 	 7.56712 	 -6.38584 	 91.52
| 32> C 	 6.50235 	 -7.125 	 89.7796
| 33> H 	 6.334 	 -8.08393 	 90.3589
| 34> H 	 6.75052 	 -7.33852 	 88.743
| 35> C 	 5.21627 	 -6.33143 	 89.9422
| 36> H 	 4.32549 	 -6.80186 	 89.5528
| 37> H 	 5.22202 	 -5.30524 	 89.4823
| 38> H 	 4.89573 	 -6.19714 	 90.9349
| 39> H 	 12.7015 	 -2.33766 	 91.8993
| 40> H 	 10.308 	 -10.4351 	 90.9991
| 41> *
| 42>
| 43>                          ****END OF INPUT****

CARTESIAN COORDINATES (ANGSTROEM)
---------------------------------
  S     12.362800   -4.775810   90.916800
  C     12.213500   -3.277250   91.935400
  C     11.094200   -3.403040   92.748800
  C     10.233000   -4.548670   92.391900
  C     10.736800   -5.375360   91.411800
  H      9.242670   -4.890350   92.878900
  C     10.699600   -2.319340   93.695800
  H     11.101100   -1.425160   93.288300
  H     11.275900   -2.537000   94.617400
  C      9.239540   -2.049320   93.998200
  H      9.413440   -1.108410   94.510200
  H      8.695150   -2.010510   93.068500
  C      8.573440   -3.015480   94.979100
  H      8.555260   -4.034710   94.606900
  H      9.150180   -3.089050   96.011400
  H      7.532720   -2.712520   95.159800
  S     11.406800   -8.039640   91.488500
  C     10.317000   -9.309790   91.026700
  C      9.116350   -8.696600   90.618800
  C      9.053630   -7.251650   90.659200
  C     10.296500   -6.723900   91.039800
  H      8.238950   -9.271660   90.342800
  C      7.751350   -6.535020   90.493000
  H      7.846120   -5.477510   90.024500
  H      7.567120   -6.385840   91.520000
  C      6.502350   -7.125000   89.779600
  H      6.334000   -8.083930   90.358900
  H      6.750520   -7.338520   88.743000
  C      5.216270   -6.331430   89.942200
  H      4.325490   -6.801860   89.552800
  H      5.222020   -5.305240   89.482300
  H      4.895730   -6.197140   90.934900
  H     12.701500   -2.337660   91.899300
  H     10.308000  -10.435100   90.999100

 Total Charge           Charge          ....    0
 Multiplicity           Mult            ....    1
 Number of Electrons    NEL             ....  134
 Basis Dimension        Dim             ....  322

ORBITAL ENERGIES
----------------

  NO   OCC          E(Eh)            E(eV)
   0   2.0000     -88.968788     -2420.9638
   1   2.0000     -88.963881     -2420.8303
   2   2.0000     -10.336286      -281.2646
   3   2.0000     -10.331760      -281.1415
   4   2.0000     -10.324040      -280.9314
   5   2.0000     -10.316587      -280.7286
   6   2.0000     -10.310983      -280.5761
   7   2.0000     -10.307046      -280.4690
   8   2.0000     -10.305876      -280.4372
   9   2.0000     -10.299354      -280.2597
  10   2.0000     -10.298112      -280.2259
  11   2.0000     -10.293784      -280.1081
  12   2.0000     -10.289564      -279.9933
  13   2.0000     -10.287960      -279.9496
  14   2.0000     -10.287776      -279.9446
  15   2.0000     -10.281381      -279.7706
  16   2.0000      -8.082605      -219.9389
  17   2.0000      -8.076601      -219.7755
  18   2.0000      -6.041467      -164.3967
  19   2.0000      -6.037000      -164.2751
  20   2.0000      -6.035491      -164.2341
  21   2.0000      -6.033222      -164.1723
  22   2.0000      -6.031387      -164.1224
  23   2.0000      -6.027038      -164.0040
  24   2.0000      -0.998481       -27.1700
  25   2.0000      -0.973904       -26.5013
  26   2.0000      -0.917504       -24.9665
  27   2.0000      -0.911345       -24.7990
  28   2.0000      -0.869470       -23.6595
  29   2.0000      -0.855164       -23.2702
  30   2.0000      -0.833874       -22.6909
  31   2.0000      -0.814953       -22.1760
  32   2.0000      -0.785186       -21.3660
  33   2.0000      -0.775102       -21.0916
  34   2.0000      -0.714142       -19.4328
  35   2.0000      -0.701451       -19.0874
  36   2.0000      -0.694432       -18.8964
  37   2.0000      -0.651236       -17.7210
  38   2.0000      -0.638059       -17.3625
  39   2.0000      -0.611514       -16.6402
  40   2.0000      -0.592263       -16.1163
  41   2.0000      -0.576688       -15.6925
  42   2.0000      -0.572115       -15.5680
  43   2.0000      -0.548675       -14.9302
  44   2.0000      -0.529966       -14.4211
  45   2.0000      -0.526287       -14.3210
  46   2.0000      -0.519965       -14.1490
  47   2.0000      -0.511893       -13.9293
  48   2.0000      -0.509873       -13.8743
  49   2.0000      -0.507558       -13.8114
  50   2.0000      -0.492338       -13.3972
  51   2.0000      -0.480657       -13.0793
  52   2.0000      -0.473121       -12.8743
  53   2.0000      -0.463450       -12.6111
  54   2.0000      -0.456927       -12.4336
  55   2.0000      -0.453288       -12.3346
  56   2.0000      -0.438871       -11.9423
  57   2.0000      -0.434269       -11.8171
  58   2.0000      -0.432235       -11.7617
  59   2.0000      -0.425862       -11.5883
  60   2.0000      -0.420174       -11.4335
  61   2.0000      -0.410121       -11.1600
  62   2.0000      -0.404624       -11.0104
  63   2.0000      -0.345531        -9.4024
  64   2.0000      -0.327038        -8.8992
  65   2.0000      -0.322557        -8.7772
  66   2.0000      -0.293096        -7.9755
  67   0.0000       0.028487         0.7752
  68   0.0000       0.057632         1.5682
  69   0.0000       0.112347         3.0571
  70   0.0000       0.120121         3.2687
  71   0.0000       0.125740         3.4216

MULLIKEN ATOMIC CHARGES
-----------------------
   0 S :    0.087529
   1 C :   -0.100899
   2 C :   -0.101340
   3 C :    0.007912
   4 C :   -0.154345
   5 H :    0.046124
   6 C :    0.038927
   7 H :    0.013194
   8 H :    0.043350
   9 C :   -0.037992
  10 H :    0.033432
  11 H :    0.037758
  12 C :   -0.084662
  13 H :    0.025813
  14 H :    0.043310
  15 H :    0.043745
  16 S :    0.118835
  17 C :   -0.082974
  18 C :   -0.089457
  19 C :    0.002220
  20 C :   -0.160613
  21 H :    0.018037
  22 C :   -0.004157
  23 H :    0.047938
  24 H :    0.034868
  25 C :   -0.073622
  26 H :    0.035329
  27 H :    0.048074
  28 C :   -0.030985
  29 H :    0.028144
  30 H :    0.035819
  31 H :    0.013107
  32 H :    0.040134
  33 H :    0.077450
Sum of atomic charges:    0.0000000

LOEWDIN ATOMIC CHARGES
----------------------
   0 S :    0.353824
   1 C :   -0.179198
   2 C :   -0.056090
   3 C :   -0.075305
   4 C :   -0.179279
   5 H :    0.044269
   6 C :   -0.038841
   7 H :    0.027012
   8 H :    0.040286
   9 C :   -0.040837
  10 H :    0.033935
  11 H :    0.027489
  12 C :   -0.073590
  13 H :    0.016537
  14 H :    0.037908
  15 H :    0.028055
  16 S :    0.416707
  17 C :   -0.211773
  18 C :   -0.082331
  19 C :   -0.050841
  20 C :   -0.200342
  21 H :    0.024351
  22 C :   -0.044176
  23 H :    0.042269
  24 H :    0.030976
  25 C :   -0.040932
  26 H :    0.029929
  27 H :    0.027894
  28 C :   -0.068937
  29 H :    0.029988
  30 H :    0.030747
  31 H :    0.020001
  32 H :    0.026836
  33 H :    0.053461

  Mayer bond orders larger than 0.100000
B(  0-S ,  1-C ) :   1.1020 B(  0-S ,  4-C ) :   1.1225 B(  1-C ,  2-C ) :   1.6500
B(  1-C , 32-H ) :   0.9714 B(  2-C ,  3-C ) :   1.1960 B(  2-C ,  6-C ) :   1.0217
B(  3-C ,  4-C ) :   1.6235 B(  3-C ,  5-H ) :   0.9635 B(  4-C , 20-C ) :   1.0275
B(  6-C ,  7-H ) :   0.9457 B(  6-C ,  8-H ) :   0.9223 B(  6-C ,  9-C ) :   1.0776
B(  9-C , 10-H ) :   0.9518 B(  9-C , 11-H ) :   0.9537 B(  9-C , 12-C ) :   1.0768
B( 12-C , 13-H ) :   0.9777 B( 12-C , 14-H ) :   0.9694 B( 12-C , 15-H ) :   0.9717
B( 16-S , 17-C ) :   1.1541 B( 16-S , 20-C ) :   1.1406 B( 17-C , 18-C ) :   1.5934
B( 17-C , 20-C ) :   0.1014 B( 17-C , 33-H ) :   0.9581 B( 18-C , 19-C ) :   1.2681
B( 18-C , 21-H ) :   0.9780 B( 19-C , 20-C ) :   1.5806 B( 19-C , 22-C ) :   1.0263
B( 22-C , 23-H ) :   0.9355 B( 22-C , 24-H ) :   0.9279 B( 22-C , 25-C ) :   1.0666
B( 25-C , 26-H ) :   0.9409 B( 25-C , 27-H ) :   0.9603 B( 25-C , 28-C ) :   1.0907
B( 28-C , 29-H ) :   0.9704 B( 28-C , 30-H ) :   0.9722 B( 28-C , 31-H ) :   0.9703

Dispersion correction           -0.013658692
FINAL SINGLE POINT ENERGY     -1339.841626901714

DIPOLE MOMENT
-------------
                                X             Y             Z
Electronic contribution:     26.95351     -11.16689      -7.49711
Nuclear contribution   :    -27.84920      11.44557       7.86944
                        -----------------------------------------
Total Dipole Moment    :     -0.89569       0.27868       0.37233
                        -----------------------------------------
Magnitude (a.u.)       :      1.00923
Magnitude (Debye)      :      2.56527

Rotational constants in cm-1:     0.015192     0.009267     0.006649
Rotational constants in MHz :   455.434808   277.829367   199.342263

                             ****ORCA TERMINATED NORMALLY****
TOTAL RUN TIME: 0 days 0 hours 0 minutes 31 seconds 7 msec
