                         Program Version 4.2.1 -  RELEASE  -
|  1> ! wB97X-D3 SP def2-SVP
|  2> %pal
|  3> nprocs 16
|  4> end
|  5>
|  6> * xyz 0 1
|  7> S 	 7.4294 	 -12.4966 	 67.6189
|  8> C 	 8.90791 	 -11.5468 	 67.8413
|  9> C 	 8.58769 	 -10.2784 	 68.2093
| 10> C 	 7.18849 	 -10.0563 	 68.3996
| 11> C 	 6.45688 	 -11.214 	 68.2532
| 12> H 	 6.62625 	 -9.11596 	 68.5806
| 13> C 	 9.52621 	 -9.08075 	 68.3961
| 14> H 	 10.5359 	 -9.29171 	 68.0966
| 15> H 	 9.59878 	 -8.69849 	 69.4342
| 16> C 	 9.14363 	 -7.87986 	 67.5415
| 17> H 	 8.2223 	 -7.40206 	 67.9268
| 18> H 	 9.95178 	 -7.17521 	 67.6986
| 19> C 	 9.15112 	 -8.11665 	 66.0028
| 20> H 	 10.1721 	 -8.33427 	 65.6067
| 21> H 	 8.3932 	 -8.84335 	 65.7619
| 22> H 	 8.89602 	 -7.17883 	 65.4844
| 23> S 	 3.92768 	 -11.5276 	 67.1332
| 24> C 	 2.4944 	 -11.4682 	 68.2305
| 25> C 	 2.90551 	 -11.4648 	 69.5339
| 26> C 	 4.3307 	 -11.4385 	 69.7229
| 27> C 	 5.01576 	 -11.3322 	 68.5062
| 28> H 	 2.15351 	 -11.426 	 70.2968
| 29> C 	 4.98113 	 -11.4166 	 71.0348
| 30> H 	 4.40832 	 -10.8775 	 71.7969
| 31> H 	 5.84969 	 -10.8576 	 70.855
| 32> C 	 5.41063 	 -12.7321 	 71.6464
| 33> H 	 4.57811 	 -13.3888 	 71.6129
| 34> H 	 5.47569 	 -12.5903 	 72.7361
| 35> C 	 6.71967 	 -13.4301 	 71.0856
| 36> H 	 6.93748 	 -14.3669 	 71.521
| 37> H 	 7.65098 	 -12.8798 	 71.1397
| 38> H 	 6.64801 	 -13.5581 	 70.0035
| 39> H 	 9.95138 	 -11.8121 	 67.6955
| 40> H 	 1.38365 	 -11.295 	 67.9008
| 41> *
| 42>
| 43>                          ****END OF INPUT****

CARTESIAN COORDINATES (ANGSTROEM)
---------------------------------
  S      7.429400  -12.496600   67.618900
  C      8.907910  -11.546800   67.841300
  C      8.587690  -10.278400   68.209300
  C      7.188490  -10.056300   68.399600
  C      6.456880  -11.214000   68.253200
  H      6.626250   -9.115960   68.580600
  C      9.526210   -9.080750   68.396100
  H     10.535900   -9.291710   68.096600
  H      9.598780   -8.698490   69.434200
  C      9.143630   -7.879860   67.541500
  H      8.222300   -7.402060   67.926800
  H      9.951780   -7.175210   67.698600
  C      9.151120   -8.116650   66.002800
  H     10.172100   -8.334270   65.606700
  H      8.393200   -8.843350   65.761900
  H      8.896020   -7.178830   65.484400
  S      3.927680  -11.527600   67.133200
  C      2.494400  -11.468200   68.230500
  C      2.905510  -11.464800   69.533900
  C      4.330700  -11.438500   69.722900
  C      5.015760  -11.332200   68.506200
  H      2.153510  -11.426000   70.296800
  C      4.981130  -11.416600   71.034800
  H      4.408320  -10.877500   71.796900
  H      5.849690  -10.857600   70.855000
  C      5.410630  -12.732100   71.646400
  H      4.578110  -13.388800   71.612900
  H      5.475690  -12.590300   72.736100
  C      6.719670  -13.430100   71.085600
  H      6.937480  -14.366900   71.521000
  H      7.650980  -12.879800   71.139700
  H      6.648010  -13.558100   70.003500
  H      9.951380  -11.812100   67.695500
  H      1.383650  -11.295000   67.900800

 Total Charge           Charge          ....    0
 Multiplicity           Mult            ....    1
 Number of Electrons    NEL             ....  134
 Basis Dimension        Dim             ....  322

ORBITAL ENERGIES
----------------

  NO   OCC          E(Eh)            E(eV)
   0   2.0000     -88.969909     -2420.9943
   1   2.0000     -88.964901     -2420.8580
   2   2.0000     -10.329494      -281.0798
   3   2.0000     -10.328892      -281.0634
   4   2.0000     -10.328448      -281.0513
   5   2.0000     -10.316354      -280.7223
   6   2.0000     -10.303822      -280.3812
   7   2.0000     -10.301498      -280.3180
   8   2.0000     -10.296476      -280.1814
   9   2.0000     -10.293785      -280.1081
  10   2.0000     -10.292354      -280.0692
  11   2.0000     -10.287124      -279.9269
  12   2.0000     -10.281988      -279.7871
  13   2.0000     -10.279201      -279.7113
  14   2.0000     -10.278768      -279.6995
  15   2.0000     -10.266296      -279.3601
  16   2.0000      -8.084034      -219.9778
  17   2.0000      -8.078703      -219.8327
  18   2.0000      -6.042707      -164.4304
  19   2.0000      -6.038624      -164.3193
  20   2.0000      -6.037385      -164.2856
  21   2.0000      -6.034618      -164.2103
  22   2.0000      -6.033386      -164.1768
  23   2.0000      -6.029288      -164.0653
  24   2.0000      -1.007688       -27.4206
  25   2.0000      -0.982766       -26.7424
  26   2.0000      -0.912174       -24.8215
  27   2.0000      -0.907596       -24.6969
  28   2.0000      -0.869519       -23.6608
  29   2.0000      -0.844143       -22.9703
  30   2.0000      -0.839116       -22.8335
  31   2.0000      -0.815460       -22.1898
  32   2.0000      -0.785956       -21.3869
  33   2.0000      -0.774289       -21.0695
  34   2.0000      -0.711665       -19.3654
  35   2.0000      -0.696309       -18.9475
  36   2.0000      -0.690727       -18.7956
  37   2.0000      -0.655601       -17.8398
  38   2.0000      -0.638991       -17.3878
  39   2.0000      -0.622308       -16.9339
  40   2.0000      -0.592864       -16.1327
  41   2.0000      -0.569553       -15.4983
  42   2.0000      -0.551247       -15.0002
  43   2.0000      -0.549962       -14.9652
  44   2.0000      -0.542623       -14.7655
  45   2.0000      -0.528535       -14.3822
  46   2.0000      -0.512318       -13.9409
  47   2.0000      -0.508136       -13.8271
  48   2.0000      -0.501717       -13.6524
  49   2.0000      -0.497339       -13.5333
  50   2.0000      -0.490075       -13.3356
  51   2.0000      -0.479947       -13.0600
  52   2.0000      -0.471667       -12.8347
  53   2.0000      -0.460816       -12.5394
  54   2.0000      -0.458117       -12.4660
  55   2.0000      -0.447444       -12.1756
  56   2.0000      -0.442157       -12.0317
  57   2.0000      -0.433899       -11.8070
  58   2.0000      -0.430807       -11.7229
  59   2.0000      -0.423239       -11.5169
  60   2.0000      -0.421032       -11.4569
  61   2.0000      -0.413593       -11.2545
  62   2.0000      -0.407664       -11.0931
  63   2.0000      -0.339876        -9.2485
  64   2.0000      -0.331206        -9.0126
  65   2.0000      -0.327709        -8.9174
  66   2.0000      -0.303602        -8.2614
  67   0.0000       0.039404         1.0723
  68   0.0000       0.052025         1.4157
  69   0.0000       0.110274         3.0007
  70   0.0000       0.122488         3.3331
  71   0.0000       0.124672         3.3925

MULLIKEN ATOMIC CHARGES
-----------------------
   0 S :    0.120212
   1 C :   -0.115390
   2 C :   -0.081793
   3 C :    0.033786
   4 C :   -0.184548
   5 H :    0.036600
   6 C :    0.099536
   7 H :   -0.001039
   8 H :    0.043454
   9 C :   -0.123612
  10 H :    0.037508
  11 H :    0.024582
  12 C :   -0.054277
  13 H :    0.035080
  14 H :    0.049011
  15 H :    0.032576
  16 S :    0.094820
  17 C :   -0.132209
  18 C :   -0.020639
  19 C :   -0.015213
  20 C :   -0.178106
  21 H :    0.011766
  22 C :    0.100424
  23 H :    0.019830
  24 H :    0.002570
  25 C :   -0.039017
  26 H :    0.007018
  27 H :    0.019217
  28 C :   -0.027860
  29 H :    0.022849
  30 H :    0.023169
  31 H :    0.021512
  32 H :    0.042816
  33 H :    0.095368
Sum of atomic charges:    0.0000000

LOEWDIN ATOMIC CHARGES
----------------------
   0 S :    0.419336
   1 C :   -0.193824
   2 C :   -0.066212
   3 C :   -0.063435
   4 C :   -0.200018
   5 H :    0.042232
   6 C :   -0.030727
   7 H :    0.021429
   8 H :    0.037330
   9 C :   -0.044874
  10 H :    0.021774
  11 H :    0.024005
  12 C :   -0.067119
  13 H :    0.029362
  14 H :    0.024734
  15 H :    0.028774
  16 S :    0.373302
  17 C :   -0.184794
  18 C :   -0.070698
  19 C :   -0.048086
  20 C :   -0.197288
  21 H :    0.029493
  22 C :   -0.036921
  23 H :    0.034961
  24 H :    0.026871
  25 C :   -0.032431
  26 H :    0.017289
  27 H :    0.025047
  28 C :   -0.069285
  29 H :    0.020194
  30 H :    0.024819
  31 H :    0.013912
  32 H :    0.034872
  33 H :    0.055974

  Mayer bond orders larger than 0.100000
B(  0-S ,  1-C ) :   1.1145 B(  0-S ,  4-C ) :   1.1564 B(  1-C ,  2-C ) :   1.6533
B(  1-C , 32-H ) :   0.9658 B(  2-C ,  3-C ) :   1.1980 B(  2-C ,  6-C ) :   1.0233
B(  3-C ,  4-C ) :   1.6083 B(  3-C ,  5-H ) :   0.9865 B(  4-C , 20-C ) :   1.0112
B(  6-C ,  7-H ) :   0.9385 B(  6-C ,  8-H ) :   0.9408 B(  6-C ,  9-C ) :   1.0759
B(  9-C , 10-H ) :   0.9544 B(  9-C , 11-H ) :   0.9562 B(  9-C , 12-C ) :   1.0738
B( 12-C , 13-H ) :   0.9740 B( 12-C , 14-H ) :   0.9759 B( 12-C , 15-H ) :   0.9735
B( 16-S , 17-C ) :   1.1293 B( 16-S , 20-C ) :   1.1357 B( 17-C , 18-C ) :   1.6431
B( 17-C , 33-H ) :   0.9507 B( 18-C , 19-C ) :   1.2138 B( 18-C , 21-H ) :   0.9907
B( 19-C , 20-C ) :   1.5993 B( 19-C , 22-C ) :   1.0577 B( 22-C , 23-H ) :   0.9282
B( 22-C , 24-H ) :   0.9155 B( 22-C , 25-C ) :   1.0792 B( 25-C , 26-H ) :   0.9527
B( 25-C , 27-H ) :   0.9537 B( 25-C , 28-C ) :   1.0677 B( 28-C , 29-H ) :   0.9739
B( 28-C , 30-H ) :   0.9752 B( 28-C , 31-H ) :   0.9693

Dispersion correction           -0.015989032
FINAL SINGLE POINT ENERGY     -1339.874948700405

DIPOLE MOMENT
-------------
                                X             Y             Z
Electronic contribution:    -12.66493      -9.60263      -9.86515
Nuclear contribution   :     12.81425      10.11965      10.24979
                        -----------------------------------------
Total Dipole Moment    :      0.14932       0.51701       0.38465
                        -----------------------------------------
Magnitude (a.u.)       :      0.66148
Magnitude (Debye)      :      1.68134

Rotational constants in cm-1:     0.020083     0.009202     0.007922
Rotational constants in MHz :   602.087843   275.859979   237.481210

                             ****ORCA TERMINATED NORMALLY****
TOTAL RUN TIME: 0 days 0 hours 0 minutes 36 seconds 840 msec
