                         Program Version 4.2.1 -  RELEASE  -
|  1> ! wB97X-D3 SP def2-SVP
|  2> %pal
|  3> nprocs 16
|  4> end
|  5>
|  6> * xyz 0 1
|  7> S 	 -44.3843 	 39.4292 	 76.8175
|  8> C 	 -44.6548 	 40.2181 	 78.3156
|  9> C 	 -43.5195 	 40.7619 	 78.8618
| 10> C 	 -42.3753 	 40.3669 	 78.0556
| 11> C 	 -42.6917 	 39.5496 	 77.0065
| 12> H 	 -41.3677 	 40.7751 	 78.2023
| 13> C 	 -43.4074 	 41.6791 	 80.1314
| 14> H 	 -42.4009 	 42.2142 	 80.1281
| 15> H 	 -43.4502 	 41.0539 	 81.0235
| 16> C 	 -44.4738 	 42.8651 	 80.2304
| 17> H 	 -44.5083 	 43.47 	 79.2969
| 18> H 	 -45.4936 	 42.4825 	 80.2847
| 19> C 	 -44.1608 	 43.8 	 81.4253
| 20> H 	 -44.7248 	 44.7338 	 81.3967
| 21> H 	 -44.4266 	 43.3496 	 82.4172
| 22> H 	 -43.0983 	 44.0902 	 81.3874
| 23> S 	 -41.8714 	 39.2634 	 74.3297
| 24> C 	 -40.5248 	 38.3618 	 73.8477
| 25> C 	 -40.0384 	 37.6963 	 74.9584
| 26> C 	 -40.627 	 38.0089 	 76.2174
| 27> C 	 -41.736 	 38.9147 	 76.0592
| 28> H 	 -39.3513 	 36.9313 	 74.7244
| 29> C 	 -40.022 	 37.4574 	 77.4582
| 30> H 	 -39.5616 	 38.2754 	 77.9933
| 31> H 	 -39.1446 	 36.8463 	 77.0681
| 32> C 	 -41.0396 	 36.6787 	 78.3414
| 33> H 	 -41.7931 	 37.3411 	 78.876
| 34> H 	 -40.579 	 36.115 	 79.1856
| 35> C 	 -41.8356 	 35.6254 	 77.573
| 36> H 	 -42.468 	 36.1157 	 76.8427
| 37> H 	 -42.3902 	 34.9139 	 78.2455
| 38> H 	 -41.1302 	 35.0138 	 77.0294
| 39> H 	 -45.6212 	 40.4777 	 78.6579
| 40> H 	 -40.1835 	 38.2028 	 72.7758
| 41> *
| 42>
| 43>                          ****END OF INPUT****

CARTESIAN COORDINATES (ANGSTROEM)
---------------------------------
  S    -44.384300   39.429200   76.817500
  C    -44.654800   40.218100   78.315600
  C    -43.519500   40.761900   78.861800
  C    -42.375300   40.366900   78.055600
  C    -42.691700   39.549600   77.006500
  H    -41.367700   40.775100   78.202300
  C    -43.407400   41.679100   80.131400
  H    -42.400900   42.214200   80.128100
  H    -43.450200   41.053900   81.023500
  C    -44.473800   42.865100   80.230400
  H    -44.508300   43.470000   79.296900
  H    -45.493600   42.482500   80.284700
  C    -44.160800   43.800000   81.425300
  H    -44.724800   44.733800   81.396700
  H    -44.426600   43.349600   82.417200
  H    -43.098300   44.090200   81.387400
  S    -41.871400   39.263400   74.329700
  C    -40.524800   38.361800   73.847700
  C    -40.038400   37.696300   74.958400
  C    -40.627000   38.008900   76.217400
  C    -41.736000   38.914700   76.059200
  H    -39.351300   36.931300   74.724400
  C    -40.022000   37.457400   77.458200
  H    -39.561600   38.275400   77.993300
  H    -39.144600   36.846300   77.068100
  C    -41.039600   36.678700   78.341400
  H    -41.793100   37.341100   78.876000
  H    -40.579000   36.115000   79.185600
  C    -41.835600   35.625400   77.573000
  H    -42.468000   36.115700   76.842700
  H    -42.390200   34.913900   78.245500
  H    -41.130200   35.013800   77.029400
  H    -45.621200   40.477700   78.657900
  H    -40.183500   38.202800   72.775800

 Total Charge           Charge          ....    0
 Multiplicity           Mult            ....    1
 Number of Electrons    NEL             ....  134
 Basis Dimension        Dim             ....  322

ORBITAL ENERGIES
----------------

  NO   OCC          E(Eh)            E(eV)
   0   2.0000     -88.967226     -2420.9213
   1   2.0000     -88.963939     -2420.8319
   2   2.0000     -10.333935      -281.2007
   3   2.0000     -10.328441      -281.0512
   4   2.0000     -10.318013      -280.7674
   5   2.0000     -10.309060      -280.5238
   6   2.0000     -10.308619      -280.5118
   7   2.0000     -10.308145      -280.4989
   8   2.0000     -10.306289      -280.4484
   9   2.0000     -10.296821      -280.1907
  10   2.0000     -10.295259      -280.1482
  11   2.0000     -10.295184      -280.1462
  12   2.0000     -10.288004      -279.9508
  13   2.0000     -10.287105      -279.9264
  14   2.0000     -10.286449      -279.9085
  15   2.0000     -10.269175      -279.4385
  16   2.0000      -8.083394      -219.9603
  17   2.0000      -8.079244      -219.8474
  18   2.0000      -6.041797      -164.4057
  19   2.0000      -6.037794      -164.2967
  20   2.0000      -6.037604      -164.2915
  21   2.0000      -6.034077      -164.1956
  22   2.0000      -6.033366      -164.1762
  23   2.0000      -6.030428      -164.0963
  24   2.0000      -1.010870       -27.5072
  25   2.0000      -0.989986       -26.9389
  26   2.0000      -0.907129       -24.6842
  27   2.0000      -0.900285       -24.4980
  28   2.0000      -0.866330       -23.5740
  29   2.0000      -0.848977       -23.1018
  30   2.0000      -0.844461       -22.9790
  31   2.0000      -0.811996       -22.0955
  32   2.0000      -0.779677       -21.2161
  33   2.0000      -0.769948       -20.9513
  34   2.0000      -0.706029       -19.2120
  35   2.0000      -0.700283       -19.0557
  36   2.0000      -0.680495       -18.5172
  37   2.0000      -0.657392       -17.8885
  38   2.0000      -0.642490       -17.4830
  39   2.0000      -0.615936       -16.7605
  40   2.0000      -0.585676       -15.9371
  41   2.0000      -0.571141       -15.5415
  42   2.0000      -0.560115       -15.2415
  43   2.0000      -0.549005       -14.9392
  44   2.0000      -0.545838       -14.8530
  45   2.0000      -0.520060       -14.1516
  46   2.0000      -0.512286       -13.9400
  47   2.0000      -0.505365       -13.7517
  48   2.0000      -0.503347       -13.6968
  49   2.0000      -0.497705       -13.5432
  50   2.0000      -0.487022       -13.2525
  51   2.0000      -0.476845       -12.9756
  52   2.0000      -0.473637       -12.8883
  53   2.0000      -0.462082       -12.5739
  54   2.0000      -0.460300       -12.5254
  55   2.0000      -0.452028       -12.3003
  56   2.0000      -0.438403       -11.9296
  57   2.0000      -0.431857       -11.7514
  58   2.0000      -0.430001       -11.7009
  59   2.0000      -0.423857       -11.5337
  60   2.0000      -0.422685       -11.5018
  61   2.0000      -0.419600       -11.4179
  62   2.0000      -0.405598       -11.0369
  63   2.0000      -0.343089        -9.3359
  64   2.0000      -0.331082        -9.0092
  65   2.0000      -0.326841        -8.8938
  66   2.0000      -0.296480        -8.0676
  67   0.0000       0.033086         0.9003
  68   0.0000       0.067606         1.8397
  69   0.0000       0.115530         3.1437
  70   0.0000       0.126237         3.4351
  71   0.0000       0.134062         3.6480

MULLIKEN ATOMIC CHARGES
-----------------------
   0 S :    0.129099
   1 C :   -0.106385
   2 C :   -0.081428
   3 C :    0.019848
   4 C :   -0.152852
   5 H :    0.020018
   6 C :    0.041942
   7 H :    0.034925
   8 H :    0.051247
   9 C :   -0.103792
  10 H :    0.040351
  11 H :    0.031056
  12 C :   -0.066133
  13 H :    0.036121
  14 H :    0.041131
  15 H :    0.034746
  16 S :    0.107354
  17 C :   -0.118646
  18 C :   -0.055754
  19 C :   -0.042702
  20 C :   -0.168276
  21 H :    0.008376
  22 C :    0.093145
  23 H :    0.039262
  24 H :    0.028542
  25 C :   -0.107146
  26 H :    0.050943
  27 H :    0.029541
  28 C :   -0.048915
  29 H :    0.043525
  30 H :    0.040717
  31 H :    0.012959
  32 H :    0.030077
  33 H :    0.087103
Sum of atomic charges:    0.0000000

LOEWDIN ATOMIC CHARGES
----------------------
   0 S :    0.439743
   1 C :   -0.201240
   2 C :   -0.062872
   3 C :   -0.063200
   4 C :   -0.214898
   5 H :    0.034157
   6 C :   -0.029612
   7 H :    0.036086
   8 H :    0.033752
   9 C :   -0.046566
  10 H :    0.029239
  11 H :    0.019262
  12 C :   -0.072178
  13 H :    0.027357
  14 H :    0.029833
  15 H :    0.026348
  16 S :    0.429428
  17 C :   -0.217540
  18 C :   -0.084819
  19 C :   -0.052442
  20 C :   -0.203453
  21 H :    0.023649
  22 C :   -0.034715
  23 H :    0.035073
  24 H :    0.040012
  25 C :   -0.051139
  26 H :    0.032807
  27 H :    0.025279
  28 C :   -0.067906
  29 H :    0.023097
  30 H :    0.031604
  31 H :    0.018070
  32 H :    0.017809
  33 H :    0.049975

  Mayer bond orders larger than 0.100000
B(  0-S ,  1-C ) :   1.1518 B(  0-S ,  4-C ) :   1.1654 B(  1-C ,  2-C ) :   1.6180
B(  1-C , 32-H ) :   0.9723 B(  2-C ,  3-C ) :   1.2500 B(  2-C ,  6-C ) :   1.0003
B(  3-C ,  4-C ) :   1.5767 B(  3-C ,  5-H ) :   0.9953 B(  4-C , 20-C ) :   1.0214
B(  6-C ,  7-H ) :   0.9519 B(  6-C ,  8-H ) :   0.9450 B(  6-C ,  9-C ) :   1.0462
B(  9-C , 10-H ) :   0.9623 B(  9-C , 11-H ) :   0.9559 B(  9-C , 12-C ) :   1.0815
B( 12-C , 13-H ) :   0.9747 B( 12-C , 14-H ) :   0.9758 B( 12-C , 15-H ) :   0.9749
B( 16-S , 17-C ) :   1.1911 B( 16-S , 20-C ) :   1.1701 B( 17-C , 18-C ) :   1.5616
B( 17-C , 20-C ) :   0.1117 B( 17-C , 33-H ) :   0.9576 B( 18-C , 19-C ) :   1.2872
B( 18-C , 21-H ) :   0.9918 B( 19-C , 20-C ) :   1.5129 B( 19-C , 22-C ) :   1.0345
B( 22-C , 23-H ) :   0.9328 B( 22-C , 24-H ) :   0.9364 B( 22-C , 25-C ) :   1.0543
B( 25-C , 26-H ) :   0.9540 B( 25-C , 27-H ) :   0.9602 B( 25-C , 28-C ) :   1.0770
B( 28-C , 29-H ) :   0.9688 B( 28-C , 30-H ) :   0.9743 B( 28-C , 31-H ) :   0.9759

Dispersion correction           -0.014766139
FINAL SINGLE POINT ENERGY     -1339.881381458191

DIPOLE MOMENT
-------------
                                X             Y             Z
Electronic contribution:     -2.25519      -2.55818     -23.06236
Nuclear contribution   :      2.47764       2.71202      23.47694
                        -----------------------------------------
Total Dipole Moment    :      0.22246       0.15384       0.41458
                        -----------------------------------------
Magnitude (a.u.)       :      0.49500
Magnitude (Debye)      :      1.25819

Rotational constants in cm-1:     0.023399     0.007221     0.006548
Rotational constants in MHz :   701.476213   216.495104   196.293405

                             ****ORCA TERMINATED NORMALLY****
TOTAL RUN TIME: 0 days 0 hours 0 minutes 29 seconds 719 msec
