                         Program Version 4.2.1 -  RELEASE  -
|  1> ! wB97X-D3 SP def2-SVP
|  2> %pal
|  3> nprocs 16
|  4> end
|  5>
|  6> * xyz 0 1
|  7> S 	 37.4149 	 12.3226 	 79.3019
|  8> C 	 37.9986 	 13.2413 	 80.6415
|  9> C 	 38.7195 	 14.3331 	 80.238
| 10> C 	 38.638 	 14.5223 	 78.8182
| 11> C 	 38.0311 	 13.4676 	 78.1508
| 12> H 	 39.1967 	 15.2955 	 78.3641
| 13> C 	 39.5068 	 15.2253 	 81.1778
| 14> H 	 38.9631 	 15.6277 	 82.0009
| 15> H 	 39.62 	 16.1393 	 80.5966
| 16> C 	 40.8851 	 14.6821 	 81.6836
| 17> H 	 40.7813 	 14.3163 	 82.7213
| 18> H 	 41.0676 	 13.8566 	 80.9485
| 19> C 	 41.994 	 15.8263 	 81.6658
| 20> H 	 41.9684 	 16.4501 	 82.5106
| 21> H 	 42.9 	 15.2281 	 81.7969
| 22> H 	 42.2091 	 16.4331 	 80.7878
| 23> S 	 36.2592 	 13.3278 	 76.1138
| 24> C 	 36.7479 	 12.8532 	 74.4918
| 25> C 	 38.124 	 12.7498 	 74.5057
| 26> C 	 38.8026 	 13.1357 	 75.6991
| 27> C 	 37.8998 	 13.1858 	 76.7127
| 28> H 	 38.5593 	 12.3507 	 73.6376
| 29> C 	 40.3047 	 13.0467 	 75.716
| 30> H 	 40.4776 	 13.7073 	 76.5708
| 31> H 	 40.6984 	 13.5493 	 74.8424
| 32> C 	 41.0118 	 11.6747 	 75.9038
| 33> H 	 42.0122 	 11.8894 	 75.5564
| 34> H 	 40.5839 	 10.9511 	 75.1667
| 35> C 	 40.9991 	 11.1617 	 77.342
| 36> H 	 41.2489 	 10.1055 	 77.4891
| 37> H 	 39.9963 	 11.2907 	 77.8636
| 38> H 	 41.7666 	 11.5837 	 77.9774
| 39> H 	 37.9679 	 12.9517 	 81.7038
| 40> H 	 36.157 	 12.6018 	 73.6426
| 41> *
| 42>
| 43>                          ****END OF INPUT****

CARTESIAN COORDINATES (ANGSTROEM)
---------------------------------
  S     37.414900   12.322600   79.301900
  C     37.998600   13.241300   80.641500
  C     38.719500   14.333100   80.238000
  C     38.638000   14.522300   78.818200
  C     38.031100   13.467600   78.150800
  H     39.196700   15.295500   78.364100
  C     39.506800   15.225300   81.177800
  H     38.963100   15.627700   82.000900
  H     39.620000   16.139300   80.596600
  C     40.885100   14.682100   81.683600
  H     40.781300   14.316300   82.721300
  H     41.067600   13.856600   80.948500
  C     41.994000   15.826300   81.665800
  H     41.968400   16.450100   82.510600
  H     42.900000   15.228100   81.796900
  H     42.209100   16.433100   80.787800
  S     36.259200   13.327800   76.113800
  C     36.747900   12.853200   74.491800
  C     38.124000   12.749800   74.505700
  C     38.802600   13.135700   75.699100
  C     37.899800   13.185800   76.712700
  H     38.559300   12.350700   73.637600
  C     40.304700   13.046700   75.716000
  H     40.477600   13.707300   76.570800
  H     40.698400   13.549300   74.842400
  C     41.011800   11.674700   75.903800
  H     42.012200   11.889400   75.556400
  H     40.583900   10.951100   75.166700
  C     40.999100   11.161700   77.342000
  H     41.248900   10.105500   77.489100
  H     39.996300   11.290700   77.863600
  H     41.766600   11.583700   77.977400
  H     37.967900   12.951700   81.703800
  H     36.157000   12.601800   73.642600

 Total Charge           Charge          ....    0
 Multiplicity           Mult            ....    1
 Number of Electrons    NEL             ....  134
 Basis Dimension        Dim             ....  322

ORBITAL ENERGIES
----------------

  NO   OCC          E(Eh)            E(eV)
   0   2.0000     -88.967871     -2420.9389
   1   2.0000     -88.960319     -2420.7334
   2   2.0000     -10.330128      -281.0971
   3   2.0000     -10.326073      -280.9867
   4   2.0000     -10.312408      -280.6149
   5   2.0000     -10.310289      -280.5572
   6   2.0000     -10.300582      -280.2931
   7   2.0000     -10.299023      -280.2507
   8   2.0000     -10.296937      -280.1939
   9   2.0000     -10.293426      -280.0984
  10   2.0000     -10.292608      -280.0761
  11   2.0000     -10.290400      -280.0160
  12   2.0000     -10.286008      -279.8965
  13   2.0000     -10.284418      -279.8533
  14   2.0000     -10.279860      -279.7292
  15   2.0000     -10.277204      -279.6569
  16   2.0000      -8.082735      -219.9424
  17   2.0000      -8.075074      -219.7339
  18   2.0000      -6.041205      -164.3895
  19   2.0000      -6.037060      -164.2767
  20   2.0000      -6.033769      -164.1872
  21   2.0000      -6.033673      -164.1846
  22   2.0000      -6.029534      -164.0720
  23   2.0000      -6.025664      -163.9667
  24   2.0000      -1.010197       -27.4889
  25   2.0000      -0.987891       -26.8819
  26   2.0000      -0.906597       -24.6698
  27   2.0000      -0.905091       -24.6288
  28   2.0000      -0.866629       -23.5822
  29   2.0000      -0.849286       -23.1102
  30   2.0000      -0.844799       -22.9881
  31   2.0000      -0.814375       -22.1603
  32   2.0000      -0.783760       -21.3272
  33   2.0000      -0.775611       -21.1055
  34   2.0000      -0.708286       -19.2735
  35   2.0000      -0.705353       -19.1936
  36   2.0000      -0.696813       -18.9612
  37   2.0000      -0.663171       -18.0458
  38   2.0000      -0.639885       -17.4121
  39   2.0000      -0.622142       -16.9294
  40   2.0000      -0.591173       -16.0866
  41   2.0000      -0.570828       -15.5330
  42   2.0000      -0.557399       -15.1676
  43   2.0000      -0.554480       -15.0882
  44   2.0000      -0.533791       -14.5252
  45   2.0000      -0.519141       -14.1265
  46   2.0000      -0.516562       -14.0564
  47   2.0000      -0.510920       -13.9028
  48   2.0000      -0.505655       -13.7596
  49   2.0000      -0.498666       -13.5694
  50   2.0000      -0.494623       -13.4594
  51   2.0000      -0.477960       -13.0060
  52   2.0000      -0.472871       -12.8675
  53   2.0000      -0.469906       -12.7868
  54   2.0000      -0.457663       -12.4536
  55   2.0000      -0.447220       -12.1695
  56   2.0000      -0.437355       -11.9010
  57   2.0000      -0.434972       -11.8362
  58   2.0000      -0.429937       -11.6992
  59   2.0000      -0.424840       -11.5605
  60   2.0000      -0.424470       -11.5504
  61   2.0000      -0.409851       -11.1526
  62   2.0000      -0.406405       -11.0589
  63   2.0000      -0.339168        -9.2292
  64   2.0000      -0.332446        -9.0463
  65   2.0000      -0.324782        -8.8378
  66   2.0000      -0.302339        -8.2271
  67   0.0000       0.035525         0.9667
  68   0.0000       0.066203         1.8015
  69   0.0000       0.114534         3.1166
  70   0.0000       0.123077         3.3491
  71   0.0000       0.128181         3.4880

MULLIKEN ATOMIC CHARGES
-----------------------
   0 S :    0.125561
   1 C :   -0.107698
   2 C :   -0.151908
   3 C :    0.088650
   4 C :   -0.187582
   5 H :   -0.001938
   6 C :    0.077323
   7 H :    0.022283
   8 H :    0.008682
   9 C :   -0.084513
  10 H :    0.043733
  11 H :    0.052389
  12 C :   -0.059560
  13 H :    0.028409
  14 H :    0.026819
  15 H :    0.041751
  16 S :    0.100525
  17 C :   -0.071446
  18 C :   -0.042662
  19 C :   -0.012704
  20 C :   -0.154288
  21 H :   -0.002478
  22 C :    0.050515
  23 H :    0.015577
  24 H :    0.023856
  25 C :   -0.021302
  26 H :    0.026021
  27 H :    0.034483
  28 C :   -0.066027
  29 H :    0.026340
  30 H :    0.045850
  31 H :    0.026330
  32 H :    0.052717
  33 H :    0.046293
Sum of atomic charges:   -0.0000000

LOEWDIN ATOMIC CHARGES
----------------------
   0 S :    0.431737
   1 C :   -0.207286
   2 C :   -0.070496
   3 C :   -0.056484
   4 C :   -0.204503
   5 H :    0.023668
   6 C :   -0.041631
   7 H :    0.026567
   8 H :    0.028629
   9 C :   -0.033561
  10 H :    0.030432
  11 H :    0.031442
  12 C :   -0.069062
  13 H :    0.018639
  14 H :    0.030242
  15 H :    0.027019
  16 S :    0.398951
  17 C :   -0.181796
  18 C :   -0.063573
  19 C :   -0.059997
  20 C :   -0.195752
  21 H :    0.019374
  22 C :   -0.032968
  23 H :    0.031503
  24 H :    0.031531
  25 C :   -0.034780
  26 H :    0.025190
  27 H :    0.028935
  28 C :   -0.078882
  29 H :    0.027479
  30 H :    0.031847
  31 H :    0.024723
  32 H :    0.035017
  33 H :    0.027845

  Mayer bond orders larger than 0.100000
B(  0-S ,  1-C ) :   1.1464 B(  0-S ,  4-C ) :   1.1719 B(  1-C ,  2-C ) :   1.6074
B(  1-C , 32-H ) :   0.9662 B(  2-C ,  3-C ) :   1.2650 B(  2-C ,  6-C ) :   1.0312
B(  3-C ,  4-C ) :   1.5570 B(  3-C ,  5-H ) :   0.9955 B(  4-C , 20-C ) :   0.9843
B(  6-C ,  7-H ) :   0.9381 B(  6-C ,  8-H ) :   0.9439 B(  6-C ,  9-C ) :   1.0291
B(  9-C , 10-H ) :   0.9543 B(  9-C , 11-H ) :   0.9699 B(  9-C , 12-C ) :   1.0696
B( 12-C , 13-H ) :   0.9790 B( 12-C , 14-H ) :   0.9752 B( 12-C , 15-H ) :   0.9797
B( 16-S , 17-C ) :   1.1282 B( 16-S , 20-C ) :   1.1556 B( 17-C , 18-C ) :   1.6417
B( 17-C , 20-C ) :   0.1015 B( 17-C , 33-H ) :   0.9720 B( 18-C , 19-C ) :   1.1901
B( 18-C , 21-H ) :   0.9939 B( 19-C , 20-C ) :   1.6163 B( 19-C , 22-C ) :   1.0553
B( 22-C , 23-H ) :   0.9284 B( 22-C , 24-H ) :   0.9298 B( 22-C , 25-C ) :   1.0649
B( 25-C , 26-H ) :   0.9531 B( 25-C , 27-H ) :   0.9577 B( 25-C , 28-C ) :   1.0711
B( 28-C , 29-H ) :   0.9714 B( 28-C , 30-H ) :   0.9735 B( 28-C , 31-H ) :   0.9727

Dispersion correction           -0.015019882
FINAL SINGLE POINT ENERGY     -1339.862162683346

DIPOLE MOMENT
-------------
                                X             Y             Z
Electronic contribution:    -26.76389      -3.89627      -9.44155
Nuclear contribution   :     27.53112       4.01751       9.53152
                        -----------------------------------------
Total Dipole Moment    :      0.76723       0.12123       0.08997
                        -----------------------------------------
Magnitude (a.u.)       :      0.78194
Magnitude (Debye)      :      1.98753

Rotational constants in cm-1:     0.020481     0.008552     0.007155
Rotational constants in MHz :   613.990984   256.370161   214.510885

                             ****ORCA TERMINATED NORMALLY****
TOTAL RUN TIME: 0 days 0 hours 0 minutes 31 seconds 95 msec
