                         Program Version 4.2.1 -  RELEASE  -
|  1> ! wB97X-D3 SP def2-SVP
|  2> %pal
|  3> nprocs 16
|  4> end
|  5>
|  6> * xyz 0 1
|  7> S 	 -32.027 	 60.604 	 109.358
|  8> C 	 -32.3386 	 58.9021 	 109.011
|  9> C 	 -31.7572 	 58.0969 	 109.996
| 10> C 	 -31.0945 	 58.8195 	 111.032
| 11> C 	 -31.1613 	 60.1179 	 110.845
| 12> H 	 -30.5408 	 58.4635 	 111.821
| 13> C 	 -31.6011 	 56.5596 	 109.939
| 14> H 	 -31.9149 	 56.2426 	 109.018
| 15> H 	 -32.2125 	 56.0511 	 110.702
| 16> C 	 -30.1245 	 56.1454 	 109.938
| 17> H 	 -29.6372 	 56.6823 	 109.083
| 18> H 	 -29.6679 	 56.257 	 110.858
| 19> C 	 -30.0738 	 54.6537 	 109.639
| 20> H 	 -29.011 	 54.4905 	 109.516
| 21> H 	 -30.2445 	 54.1341 	 110.563
| 22> H 	 -30.5876 	 54.2178 	 108.761
| 23> S 	 -31.6195 	 62.0551 	 112.75
| 24> C 	 -30.1896 	 62.9562 	 113.244
| 25> C 	 -29.0473 	 62.7142 	 112.495
| 26> C 	 -29.1784 	 61.5338 	 111.724
| 27> C 	 -30.5211 	 61.0396 	 111.741
| 28> H 	 -28.132 	 63.1899 	 112.699
| 29> C 	 -28.0626 	 61.0718 	 110.881
| 30> H 	 -27.439 	 61.9454 	 110.745
| 31> H 	 -28.3948 	 60.9538 	 109.849
| 32> C 	 -27.2603 	 59.8257 	 111.43
| 33> H 	 -27.7707 	 58.8894 	 111.464
| 34> H 	 -27.1648 	 59.9308 	 112.503
| 35> C 	 -25.9501 	 59.5991 	 110.751
| 36> H 	 -25.2786 	 60.4486 	 110.795
| 37> H 	 -26.1303 	 59.4115 	 109.703
| 38> H 	 -25.4415 	 58.7663 	 111.154
| 39> H 	 -32.8506 	 58.5493 	 108.101
| 40> H 	 -30.1146 	 63.7572 	 113.928
| 41> *
| 42>
| 43>                          ****END OF INPUT****

CARTESIAN COORDINATES (ANGSTROEM)
---------------------------------
  S    -32.027000   60.604000  109.358000
  C    -32.338600   58.902100  109.011000
  C    -31.757200   58.096900  109.996000
  C    -31.094500   58.819500  111.032000
  C    -31.161300   60.117900  110.845000
  H    -30.540800   58.463500  111.821000
  C    -31.601100   56.559600  109.939000
  H    -31.914900   56.242600  109.018000
  H    -32.212500   56.051100  110.702000
  C    -30.124500   56.145400  109.938000
  H    -29.637200   56.682300  109.083000
  H    -29.667900   56.257000  110.858000
  C    -30.073800   54.653700  109.639000
  H    -29.011000   54.490500  109.516000
  H    -30.244500   54.134100  110.563000
  H    -30.587600   54.217800  108.761000
  S    -31.619500   62.055100  112.750000
  C    -30.189600   62.956200  113.244000
  C    -29.047300   62.714200  112.495000
  C    -29.178400   61.533800  111.724000
  C    -30.521100   61.039600  111.741000
  H    -28.132000   63.189900  112.699000
  C    -28.062600   61.071800  110.881000
  H    -27.439000   61.945400  110.745000
  H    -28.394800   60.953800  109.849000
  C    -27.260300   59.825700  111.430000
  H    -27.770700   58.889400  111.464000
  H    -27.164800   59.930800  112.503000
  C    -25.950100   59.599100  110.751000
  H    -25.278600   60.448600  110.795000
  H    -26.130300   59.411500  109.703000
  H    -25.441500   58.766300  111.154000
  H    -32.850600   58.549300  108.101000
  H    -30.114600   63.757200  113.928000

 Total Charge           Charge          ....    0
 Multiplicity           Mult            ....    1
 Number of Electrons    NEL             ....  134
 Basis Dimension        Dim             ....  322

ORBITAL ENERGIES
----------------

  NO   OCC          E(Eh)            E(eV)
   0   2.0000     -88.969362     -2420.9794
   1   2.0000     -88.961964     -2420.7781
   2   2.0000     -10.323706      -280.9223
   3   2.0000     -10.316772      -280.7336
   4   2.0000     -10.316283      -280.7203
   5   2.0000     -10.314778      -280.6794
   6   2.0000     -10.303227      -280.3651
   7   2.0000     -10.298983      -280.2496
   8   2.0000     -10.289887      -280.0021
   9   2.0000     -10.287360      -279.9333
  10   2.0000     -10.283826      -279.8371
  11   2.0000     -10.283613      -279.8313
  12   2.0000     -10.282727      -279.8072
  13   2.0000     -10.277398      -279.6622
  14   2.0000     -10.274719      -279.5893
  15   2.0000     -10.270239      -279.4674
  16   2.0000      -8.082815      -219.9446
  17   2.0000      -8.076084      -219.7614
  18   2.0000      -6.041203      -164.3895
  19   2.0000      -6.037678      -164.2936
  20   2.0000      -6.034682      -164.2121
  21   2.0000      -6.033599      -164.1826
  22   2.0000      -6.030849      -164.1077
  23   2.0000      -6.026614      -163.9925
  24   2.0000      -1.001706       -27.2578
  25   2.0000      -0.976796       -26.5800
  26   2.0000      -0.915061       -24.9001
  27   2.0000      -0.908892       -24.7322
  28   2.0000      -0.870748       -23.6943
  29   2.0000      -0.858883       -23.3714
  30   2.0000      -0.848270       -23.0826
  31   2.0000      -0.815665       -22.1954
  32   2.0000      -0.782013       -21.2797
  33   2.0000      -0.762823       -20.7575
  34   2.0000      -0.713522       -19.4159
  35   2.0000      -0.700916       -19.0729
  36   2.0000      -0.689767       -18.7695
  37   2.0000      -0.661233       -17.9931
  38   2.0000      -0.648187       -17.6381
  39   2.0000      -0.622717       -16.9450
  40   2.0000      -0.595058       -16.1923
  41   2.0000      -0.581443       -15.8219
  42   2.0000      -0.559077       -15.2133
  43   2.0000      -0.554236       -15.0815
  44   2.0000      -0.532913       -14.5013
  45   2.0000      -0.519875       -14.1465
  46   2.0000      -0.515139       -14.0177
  47   2.0000      -0.512464       -13.9449
  48   2.0000      -0.508012       -13.8237
  49   2.0000      -0.497894       -13.5484
  50   2.0000      -0.492630       -13.4051
  51   2.0000      -0.475915       -12.9503
  52   2.0000      -0.470373       -12.7995
  53   2.0000      -0.464721       -12.6457
  54   2.0000      -0.457899       -12.4601
  55   2.0000      -0.452380       -12.3099
  56   2.0000      -0.448140       -12.1945
  57   2.0000      -0.438204       -11.9241
  58   2.0000      -0.434105       -11.8126
  59   2.0000      -0.430430       -11.7126
  60   2.0000      -0.425388       -11.5754
  61   2.0000      -0.409586       -11.1454
  62   2.0000      -0.406720       -11.0674
  63   2.0000      -0.340159        -9.2562
  64   2.0000      -0.333102        -9.0642
  65   2.0000      -0.317154        -8.6302
  66   2.0000      -0.297959        -8.1079
  67   0.0000       0.037693         1.0257
  68   0.0000       0.055758         1.5172
  69   0.0000       0.103781         2.8240
  70   0.0000       0.118497         3.2245
  71   0.0000       0.133769         3.6400

MULLIKEN ATOMIC CHARGES
-----------------------
   0 S :    0.104071
   1 C :   -0.140714
   2 C :   -0.067186
   3 C :    0.056943
   4 C :   -0.125859
   5 H :   -0.018667
   6 C :    0.119488
   7 H :   -0.024396
   8 H :    0.037325
   9 C :   -0.096225
  10 H :    0.045210
  11 H :    0.019548
  12 C :   -0.040751
  13 H :    0.017105
  14 H :    0.022030
  15 H :    0.047419
  16 S :    0.117035
  17 C :   -0.056260
  18 C :   -0.031681
  19 C :   -0.035570
  20 C :   -0.209836
  21 H :    0.008184
  22 C :    0.087318
  23 H :    0.006770
  24 H :    0.028410
  25 C :   -0.050533
  26 H :    0.014879
  27 H :    0.013084
  28 C :   -0.010214
  29 H :    0.023727
  30 H :    0.024320
  31 H :    0.022657
  32 H :    0.058876
  33 H :    0.033494
Sum of atomic charges:    0.0000000

LOEWDIN ATOMIC CHARGES
----------------------
   0 S :    0.370476
   1 C :   -0.199634
   2 C :   -0.056371
   3 C :   -0.048795
   4 C :   -0.183443
   5 H :    0.022169
   6 C :   -0.024869
   7 H :    0.012127
   8 H :    0.032168
   9 C :   -0.029834
  10 H :    0.033449
  11 H :    0.012523
  12 C :   -0.067357
  13 H :    0.025814
  14 H :    0.023321
  15 H :    0.028820
  16 S :    0.390997
  17 C :   -0.169170
  18 C :   -0.067132
  19 C :   -0.043150
  20 C :   -0.190327
  21 H :    0.024549
  22 C :   -0.032419
  23 H :    0.031216
  24 H :    0.033867
  25 C :   -0.038017
  26 H :    0.022099
  27 H :    0.022243
  28 C :   -0.058663
  29 H :    0.022382
  30 H :    0.025727
  31 H :    0.022422
  32 H :    0.033600
  33 H :    0.019212

  Mayer bond orders larger than 0.100000
B(  0-S ,  1-C ) :   1.1154 B(  0-S ,  4-C ) :   1.1095 B(  1-C ,  2-C ) :   1.6465
B(  1-C , 32-H ) :   0.9657 B(  2-C ,  3-C ) :   1.1765 B(  2-C ,  6-C ) :   1.0264
B(  3-C ,  4-C ) :   1.6455 B(  3-C ,  5-H ) :   1.0068 B(  4-C , 20-C ) :   1.0468
B(  6-C ,  7-H ) :   0.9378 B(  6-C ,  8-H ) :   0.9367 B(  6-C ,  9-C ) :   1.0702
B(  9-C , 10-H ) :   0.9596 B(  9-C , 11-H ) :   0.9483 B(  9-C , 12-C ) :   1.0957
B( 12-C , 13-H ) :   0.9707 B( 12-C , 14-H ) :   0.9713 B( 12-C , 15-H ) :   0.9746
B( 16-S , 17-C ) :   1.1579 B( 16-S , 20-C ) :   1.1288 B( 17-C , 18-C ) :   1.6215
B( 17-C , 20-C ) :   0.1042 B( 17-C , 33-H ) :   0.9647 B( 18-C , 19-C ) :   1.2646
B( 18-C , 21-H ) :   0.9824 B( 19-C , 20-C ) :   1.5665 B( 19-C , 22-C ) :   1.0561
B( 22-C , 23-H ) :   0.9383 B( 22-C , 24-H ) :   0.9174 B( 22-C , 25-C ) :   1.0363
B( 25-C , 26-H ) :   0.9493 B( 25-C , 27-H ) :   0.9540 B( 25-C , 28-C ) :   1.0984
B( 28-C , 29-H ) :   0.9751 B( 28-C , 30-H ) :   0.9704 B( 28-C , 31-H ) :   0.9702

Dispersion correction           -0.014587643
FINAL SINGLE POINT ENERGY     -1339.847377782249

DIPOLE MOMENT
-------------
                                X             Y             Z
Electronic contribution:    -21.19299      22.98820       4.97281
Nuclear contribution   :     21.84239     -23.41775      -5.02314
                        -----------------------------------------
Total Dipole Moment    :      0.64939      -0.42956      -0.05033
                        -----------------------------------------
Magnitude (a.u.)       :      0.78023
Magnitude (Debye)      :      1.98319

Rotational constants in cm-1:     0.016915     0.009584     0.007056
Rotational constants in MHz :   507.092297   287.307712   211.539852

                             ****ORCA TERMINATED NORMALLY****
TOTAL RUN TIME: 0 days 0 hours 0 minutes 30 seconds 567 msec
