                         Program Version 4.2.1 -  RELEASE  -
|  1> ! wB97X-D3 SP def2-SVP
|  2> %pal
|  3> nprocs 16
|  4> end
|  5>
|  6> * xyz 0 1
|  7> S 	 -15.4864 	 -11.6068 	 89.2082
|  8> C 	 -15.0363 	 -12.4413 	 90.7763
|  9> C 	 -13.6918 	 -12.7402 	 90.8072
| 10> C 	 -13.0081 	 -12.2056 	 89.6613
| 11> C 	 -13.7852 	 -11.5738 	 88.6981
| 12> H 	 -11.9534 	 -12.2064 	 89.4538
| 13> C 	 -13.0183 	 -13.6828 	 91.8464
| 14> H 	 -11.9941 	 -13.6332 	 91.5446
| 15> H 	 -13.3661 	 -14.6831 	 91.5113
| 16> C 	 -13.1795 	 -13.3082 	 93.3757
| 17> H 	 -13.0189 	 -12.2354 	 93.5117
| 18> H 	 -14.2151 	 -13.6319 	 93.6521
| 19> C 	 -12.2068 	 -13.976 	 94.3464
| 20> H 	 -11.2024 	 -14.0339 	 93.8796
| 21> H 	 -12.116 	 -13.4081 	 95.2413
| 22> H 	 -12.5446 	 -14.9716 	 94.4946
| 23> S 	 -11.8103 	 -10.0531 	 87.4041
| 24> C 	 -12.142 	 -9.49287 	 85.8684
| 25> C 	 -13.3527 	 -9.82178 	 85.358
| 26> C 	 -14.141 	 -10.5813 	 86.2676
| 27> C 	 -13.384 	 -10.8986 	 87.4489
| 28> H 	 -13.5959 	 -9.51686 	 84.3768
| 29> C 	 -15.54 	 -11.0984 	 85.9051
| 30> H 	 -16.1936 	 -11.4057 	 86.6711
| 31> H 	 -15.2093 	 -12.0816 	 85.542
| 32> C 	 -16.3983 	 -10.3164 	 84.9134
| 33> H 	 -15.8314 	 -10.0232 	 84.0688
| 34> H 	 -16.765 	 -9.43629 	 85.397
| 35> C 	 -17.645 	 -11.0769 	 84.4494
| 36> H 	 -18.339 	 -10.3027 	 84.0307
| 37> H 	 -18.1198 	 -11.7467 	 85.1724
| 38> H 	 -17.5222 	 -11.6623 	 83.5875
| 39> H 	 -15.684 	 -12.8122 	 91.5359
| 40> H 	 -11.5643 	 -8.86835 	 85.2226
| 41> *
| 42>
| 43>                          ****END OF INPUT****

CARTESIAN COORDINATES (ANGSTROEM)
---------------------------------
  S    -15.486400  -11.606800   89.208200
  C    -15.036300  -12.441300   90.776300
  C    -13.691800  -12.740200   90.807200
  C    -13.008100  -12.205600   89.661300
  C    -13.785200  -11.573800   88.698100
  H    -11.953400  -12.206400   89.453800
  C    -13.018300  -13.682800   91.846400
  H    -11.994100  -13.633200   91.544600
  H    -13.366100  -14.683100   91.511300
  C    -13.179500  -13.308200   93.375700
  H    -13.018900  -12.235400   93.511700
  H    -14.215100  -13.631900   93.652100
  C    -12.206800  -13.976000   94.346400
  H    -11.202400  -14.033900   93.879600
  H    -12.116000  -13.408100   95.241300
  H    -12.544600  -14.971600   94.494600
  S    -11.810300  -10.053100   87.404100
  C    -12.142000   -9.492870   85.868400
  C    -13.352700   -9.821780   85.358000
  C    -14.141000  -10.581300   86.267600
  C    -13.384000  -10.898600   87.448900
  H    -13.595900   -9.516860   84.376800
  C    -15.540000  -11.098400   85.905100
  H    -16.193600  -11.405700   86.671100
  H    -15.209300  -12.081600   85.542000
  C    -16.398300  -10.316400   84.913400
  H    -15.831400  -10.023200   84.068800
  H    -16.765000   -9.436290   85.397000
  C    -17.645000  -11.076900   84.449400
  H    -18.339000  -10.302700   84.030700
  H    -18.119800  -11.746700   85.172400
  H    -17.522200  -11.662300   83.587500
  H    -15.684000  -12.812200   91.535900
  H    -11.564300   -8.868350   85.222600

 Total Charge           Charge          ....    0
 Multiplicity           Mult            ....    1
 Number of Electrons    NEL             ....  134
 Basis Dimension        Dim             ....  322

ORBITAL ENERGIES
----------------

  NO   OCC          E(Eh)            E(eV)
   0   2.0000     -88.970839     -2421.0196
   1   2.0000     -88.962762     -2420.7998
   2   2.0000     -10.333441      -281.1872
   3   2.0000     -10.332613      -281.1647
   4   2.0000     -10.314391      -280.6688
   5   2.0000     -10.311732      -280.5965
   6   2.0000     -10.308124      -280.4983
   7   2.0000     -10.302577      -280.3474
   8   2.0000     -10.298473      -280.2357
   9   2.0000     -10.294820      -280.1363
  10   2.0000     -10.291057      -280.0339
  11   2.0000     -10.289620      -279.9948
  12   2.0000     -10.286275      -279.9038
  13   2.0000     -10.283834      -279.8373
  14   2.0000     -10.277314      -279.6599
  15   2.0000     -10.275062      -279.5986
  16   2.0000      -8.086091      -220.0337
  17   2.0000      -8.075406      -219.7430
  18   2.0000      -6.044498      -164.4792
  19   2.0000      -6.040544      -164.3716
  20   2.0000      -6.036921      -164.2730
  21   2.0000      -6.034258      -164.2005
  22   2.0000      -6.030272      -164.0920
  23   2.0000      -6.025868      -163.9722
  24   2.0000      -1.004031       -27.3211
  25   2.0000      -0.975921       -26.5562
  26   2.0000      -0.913613       -24.8607
  27   2.0000      -0.903043       -24.5730
  28   2.0000      -0.867567       -23.6077
  29   2.0000      -0.857309       -23.3286
  30   2.0000      -0.840245       -22.8642
  31   2.0000      -0.813923       -22.1480
  32   2.0000      -0.786758       -21.4088
  33   2.0000      -0.772557       -21.0223
  34   2.0000      -0.713411       -19.4129
  35   2.0000      -0.701960       -19.1013
  36   2.0000      -0.697392       -18.9770
  37   2.0000      -0.656063       -17.8524
  38   2.0000      -0.627473       -17.0744
  39   2.0000      -0.616522       -16.7764
  40   2.0000      -0.601968       -16.3804
  41   2.0000      -0.568367       -15.4660
  42   2.0000      -0.566754       -15.4222
  43   2.0000      -0.559861       -15.2346
  44   2.0000      -0.531448       -14.4614
  45   2.0000      -0.528369       -14.3777
  46   2.0000      -0.514908       -14.0114
  47   2.0000      -0.510326       -13.8867
  48   2.0000      -0.506650       -13.7867
  49   2.0000      -0.497132       -13.5276
  50   2.0000      -0.485411       -13.2087
  51   2.0000      -0.478197       -13.0124
  52   2.0000      -0.475474       -12.9383
  53   2.0000      -0.468549       -12.7499
  54   2.0000      -0.460551       -12.5322
  55   2.0000      -0.454659       -12.3719
  56   2.0000      -0.441666       -12.0184
  57   2.0000      -0.440972       -11.9995
  58   2.0000      -0.432447       -11.7675
  59   2.0000      -0.423599       -11.5267
  60   2.0000      -0.420994       -11.4558
  61   2.0000      -0.419110       -11.4046
  62   2.0000      -0.406134       -11.0515
  63   2.0000      -0.353546        -9.6205
  64   2.0000      -0.332851        -9.0573
  65   2.0000      -0.326992        -8.8979
  66   2.0000      -0.278982        -7.5915
  67   0.0000       0.022449         0.6109
  68   0.0000       0.083122         2.2619
  69   0.0000       0.104654         2.8478
  70   0.0000       0.114249         3.1089
  71   0.0000       0.136745         3.7210

MULLIKEN ATOMIC CHARGES
-----------------------
   0 S :    0.073764
   1 C :   -0.109340
   2 C :   -0.093743
   3 C :   -0.008074
   4 C :   -0.117553
   5 H :    0.001256
   6 C :    0.073980
   7 H :    0.005972
   8 H :    0.053166
   9 C :   -0.101549
  10 H :    0.043398
  11 H :    0.038363
  12 C :   -0.021644
  13 H :    0.027037
  14 H :    0.036650
  15 H :    0.026745
  16 S :    0.126074
  17 C :   -0.043269
  18 C :   -0.057103
  19 C :   -0.023825
  20 C :   -0.148526
  21 H :   -0.000802
  22 C :    0.039837
  23 H :    0.015033
  24 H :    0.043956
  25 C :   -0.037575
  26 H :    0.020031
  27 H :    0.034885
  28 C :   -0.054422
  29 H :    0.031464
  30 H :    0.039499
  31 H :    0.016059
  32 H :    0.034347
  33 H :    0.035912
Sum of atomic charges:   -0.0000000

LOEWDIN ATOMIC CHARGES
----------------------
   0 S :    0.366798
   1 C :   -0.176723
   2 C :   -0.058633
   3 C :   -0.081865
   4 C :   -0.172881
   5 H :    0.022757
   6 C :   -0.029031
   7 H :    0.022228
   8 H :    0.040006
   9 C :   -0.040600
  10 H :    0.029454
  11 H :    0.026810
  12 C :   -0.059925
  13 H :    0.027852
  14 H :    0.025080
  15 H :    0.020874
  16 S :    0.435490
  17 C :   -0.202531
  18 C :   -0.076820
  19 C :   -0.036648
  20 C :   -0.202827
  21 H :    0.024612
  22 C :   -0.042029
  23 H :    0.012810
  24 H :    0.045328
  25 C :   -0.031356
  26 H :    0.018095
  27 H :    0.026686
  28 C :   -0.065170
  29 H :    0.035386
  30 H :    0.027967
  31 H :    0.017123
  32 H :    0.022532
  33 H :    0.029150

  Mayer bond orders larger than 0.100000
B(  0-S ,  1-C ) :   1.1031 B(  0-S ,  4-C ) :   1.1246 B(  1-C ,  2-C ) :   1.6510
B(  1-C , 32-H ) :   0.9713 B(  2-C ,  3-C ) :   1.2219 B(  2-C ,  6-C ) :   1.0005
B(  3-C ,  4-C ) :   1.5940 B(  3-C ,  5-H ) :   0.9886 B(  4-C , 20-C ) :   1.0820
B(  6-C ,  7-H ) :   0.9412 B(  6-C ,  8-H ) :   0.9417 B(  6-C ,  9-C ) :   1.0494
B(  9-C , 10-H ) :   0.9644 B(  9-C , 11-H ) :   0.9569 B(  9-C , 12-C ) :   1.0876
B( 12-C , 13-H ) :   0.9742 B( 12-C , 14-H ) :   0.9768 B( 12-C , 15-H ) :   0.9762
B( 16-S , 17-C ) :   1.1759 B( 16-S , 20-C ) :   1.1328 B( 17-C , 18-C ) :   1.6177
B( 17-C , 33-H ) :   0.9562 B( 18-C , 19-C ) :   1.2598 B( 18-C , 21-H ) :   0.9946
B( 19-C , 20-C ) :   1.5411 B( 19-C , 22-C ) :   1.0114 B( 22-C , 23-H ) :   0.9350
B( 22-C , 24-H ) :   0.9328 B( 22-C , 25-C ) :   1.0665 B( 25-C , 26-H ) :   0.9494
B( 25-C , 27-H ) :   0.9611 B( 25-C , 28-C ) :   1.0838 B( 28-C , 29-H ) :   0.9727
B( 28-C , 30-H ) :   0.9761 B( 28-C , 31-H ) :   0.9746

Dispersion correction           -0.013029648
FINAL SINGLE POINT ENERGY     -1339.858471678999

DIPOLE MOMENT
-------------
                                X             Y             Z
Electronic contribution:      7.42084       9.36080      -5.57547
Nuclear contribution   :     -7.40635      -9.54686       5.39376
                        -----------------------------------------
Total Dipole Moment    :      0.01450      -0.18606      -0.18170
                        -----------------------------------------
Magnitude (a.u.)       :      0.26047
Magnitude (Debye)      :      0.66206

Rotational constants in cm-1:     0.023940     0.006583     0.005302
Rotational constants in MHz :   717.717836   197.355568   158.946483

                             ****ORCA TERMINATED NORMALLY****
TOTAL RUN TIME: 0 days 0 hours 0 minutes 31 seconds 297 msec
