                         Program Version 4.2.1 -  RELEASE  -
|  1> ! wB97X-D3 SP def2-SVP
|  2> %pal
|  3> nprocs 16
|  4> end
|  5>
|  6> * xyz 0 1
|  7> S 	 -0.250388 	 80.3633 	 48.2819
|  8> C 	 -0.679117 	 79.2471 	 49.5285
|  9> C 	 -0.567424 	 77.9049 	 49.16
| 10> C 	 -0.0300137 	 77.8032 	 47.8354
| 11> C 	 0.0905955 	 79.0451 	 47.1882
| 12> H 	 0.221857 	 76.8613 	 47.2915
| 13> C 	 -0.632374 	 76.6805 	 50.0031
| 14> H 	 -1.30301 	 75.978 	 49.5467
| 15> H 	 -1.00959 	 76.9716 	 50.9633
| 16> C 	 0.720473 	 76.1462 	 50.5073
| 17> H 	 0.608237 	 75.1805 	 51.1028
| 18> H 	 1.33331 	 75.8948 	 49.6564
| 19> C 	 1.52734 	 77.1586 	 51.4073
| 20> H 	 1.87267 	 77.9658 	 50.795
| 21> H 	 0.88042 	 77.6044 	 52.2142
| 22> H 	 2.46592 	 76.804 	 51.7981
| 23> S 	 -0.663681 	 79.6599 	 44.6149
| 24> C 	 0.605213 	 79.9075 	 43.3657
| 25> C 	 1.87754 	 79.4961 	 43.8389
| 26> C 	 1.83764 	 79.2367 	 45.2794
| 27> C 	 0.561819 	 79.2512 	 45.8216
| 28> H 	 2.74513 	 79.6655 	 43.2645
| 29> C 	 3.19247 	 78.9941 	 45.9971
| 30> H 	 3.04902 	 78.9293 	 47.1609
| 31> H 	 3.86375 	 79.8726 	 45.8645
| 32> C 	 3.97543 	 77.8173 	 45.569
| 33> H 	 4.84382 	 77.7907 	 46.1752
| 34> H 	 4.30834 	 77.9544 	 44.5537
| 35> C 	 3.30453 	 76.4659 	 45.8478
| 36> H 	 2.38437 	 76.4053 	 45.2872
| 37> H 	 2.9457 	 76.3361 	 46.8201
| 38> H 	 4.04054 	 75.6522 	 45.7334
| 39> H 	 -0.903204 	 79.6517 	 50.4937
| 40> H 	 0.462756 	 80.4031 	 42.4476
| 41> *
| 42>
| 43>                          ****END OF INPUT****

CARTESIAN COORDINATES (ANGSTROEM)
---------------------------------
  S     -0.250388   80.363300   48.281900
  C     -0.679117   79.247100   49.528500
  C     -0.567424   77.904900   49.160000
  C     -0.030014   77.803200   47.835400
  C      0.090595   79.045100   47.188200
  H      0.221857   76.861300   47.291500
  C     -0.632374   76.680500   50.003100
  H     -1.303010   75.978000   49.546700
  H     -1.009590   76.971600   50.963300
  C      0.720473   76.146200   50.507300
  H      0.608237   75.180500   51.102800
  H      1.333310   75.894800   49.656400
  C      1.527340   77.158600   51.407300
  H      1.872670   77.965800   50.795000
  H      0.880420   77.604400   52.214200
  H      2.465920   76.804000   51.798100
  S     -0.663681   79.659900   44.614900
  C      0.605213   79.907500   43.365700
  C      1.877540   79.496100   43.838900
  C      1.837640   79.236700   45.279400
  C      0.561819   79.251200   45.821600
  H      2.745130   79.665500   43.264500
  C      3.192470   78.994100   45.997100
  H      3.049020   78.929300   47.160900
  H      3.863750   79.872600   45.864500
  C      3.975430   77.817300   45.569000
  H      4.843820   77.790700   46.175200
  H      4.308340   77.954400   44.553700
  C      3.304530   76.465900   45.847800
  H      2.384370   76.405300   45.287200
  H      2.945700   76.336100   46.820100
  H      4.040540   75.652200   45.733400
  H     -0.903204   79.651700   50.493700
  H      0.462756   80.403100   42.447600

 Total Charge           Charge          ....    0
 Multiplicity           Mult            ....    1
 Number of Electrons    NEL             ....  134
 Basis Dimension        Dim             ....  322

ORBITAL ENERGIES
----------------

  NO   OCC          E(Eh)            E(eV)
   0   2.0000     -88.968834     -2420.9651
   1   2.0000     -88.964952     -2420.8594
   2   2.0000     -10.328398      -281.0500
   3   2.0000     -10.327269      -281.0193
   4   2.0000     -10.323897      -280.9275
   5   2.0000     -10.316203      -280.7182
   6   2.0000     -10.309879      -280.5461
   7   2.0000     -10.302548      -280.3466
   8   2.0000     -10.299427      -280.2617
   9   2.0000     -10.299305      -280.2583
  10   2.0000     -10.298220      -280.2288
  11   2.0000     -10.295964      -280.1674
  12   2.0000     -10.289248      -279.9847
  13   2.0000     -10.280675      -279.7514
  14   2.0000     -10.277409      -279.6625
  15   2.0000     -10.269200      -279.4391
  16   2.0000      -8.084003      -219.9769
  17   2.0000      -8.078774      -219.8346
  18   2.0000      -6.042348      -164.4207
  19   2.0000      -6.038418      -164.3137
  20   2.0000      -6.037447      -164.2873
  21   2.0000      -6.034939      -164.2190
  22   2.0000      -6.033402      -164.1772
  23   2.0000      -6.029403      -164.0684
  24   2.0000      -1.002072       -27.2678
  25   2.0000      -0.976613       -26.5750
  26   2.0000      -0.914225       -24.8773
  27   2.0000      -0.911481       -24.8027
  28   2.0000      -0.863940       -23.5090
  29   2.0000      -0.847041       -23.0492
  30   2.0000      -0.841784       -22.9061
  31   2.0000      -0.809129       -22.0175
  32   2.0000      -0.785198       -21.3663
  33   2.0000      -0.776352       -21.1256
  34   2.0000      -0.707642       -19.2559
  35   2.0000      -0.697834       -18.9890
  36   2.0000      -0.689763       -18.7694
  37   2.0000      -0.662264       -18.0211
  38   2.0000      -0.644986       -17.5510
  39   2.0000      -0.620442       -16.8831
  40   2.0000      -0.594403       -16.1745
  41   2.0000      -0.565448       -15.3866
  42   2.0000      -0.559500       -15.2248
  43   2.0000      -0.553916       -15.0728
  44   2.0000      -0.545820       -14.8525
  45   2.0000      -0.535205       -14.5637
  46   2.0000      -0.513883       -13.9835
  47   2.0000      -0.510326       -13.8867
  48   2.0000      -0.502258       -13.6671
  49   2.0000      -0.493286       -13.4230
  50   2.0000      -0.489828       -13.3289
  51   2.0000      -0.474841       -12.9211
  52   2.0000      -0.467254       -12.7146
  53   2.0000      -0.463765       -12.6197
  54   2.0000      -0.454614       -12.3707
  55   2.0000      -0.451037       -12.2733
  56   2.0000      -0.448302       -12.1989
  57   2.0000      -0.444391       -12.0925
  58   2.0000      -0.428932       -11.6718
  59   2.0000      -0.421478       -11.4690
  60   2.0000      -0.419581       -11.4174
  61   2.0000      -0.415641       -11.3102
  62   2.0000      -0.407076       -11.0771
  63   2.0000      -0.337110        -9.1732
  64   2.0000      -0.328418        -8.9367
  65   2.0000      -0.321045        -8.7361
  66   2.0000      -0.307850        -8.3770
  67   0.0000       0.038394         1.0447
  68   0.0000       0.054505         1.4832
  69   0.0000       0.108679         2.9573
  70   0.0000       0.115813         3.1514
  71   0.0000       0.123485         3.3602

MULLIKEN ATOMIC CHARGES
-----------------------
   0 S :    0.132247
   1 C :   -0.127110
   2 C :   -0.077168
   3 C :    0.018461
   4 C :   -0.181159
   5 H :    0.033083
   6 C :    0.102570
   7 H :    0.040116
   8 H :    0.002738
   9 C :   -0.090463
  10 H :    0.045789
  11 H :    0.023540
  12 C :   -0.067342
  13 H :    0.033624
  14 H :    0.036285
  15 H :    0.032462
  16 S :    0.101901
  17 C :   -0.092191
  18 C :   -0.013283
  19 C :   -0.011435
  20 C :   -0.183788
  21 H :    0.017091
  22 C :    0.005600
  23 H :    0.040714
  24 H :    0.038209
  25 C :   -0.040368
  26 H :    0.016357
  27 H :    0.024392
  28 C :   -0.026787
  29 H :    0.035057
  30 H :   -0.000175
  31 H :    0.036386
  32 H :    0.043597
  33 H :    0.051052
Sum of atomic charges:   -0.0000000

LOEWDIN ATOMIC CHARGES
----------------------
   0 S :    0.427273
   1 C :   -0.193920
   2 C :   -0.066837
   3 C :   -0.055031
   4 C :   -0.209803
   5 H :    0.039356
   6 C :   -0.033395
   7 H :    0.033574
   8 H :    0.027103
   9 C :   -0.036525
  10 H :    0.032061
  11 H :    0.014828
  12 C :   -0.069634
  13 H :    0.023853
  14 H :    0.028146
  15 H :    0.025898
  16 S :    0.381123
  17 C :   -0.158544
  18 C :   -0.062643
  19 C :   -0.051559
  20 C :   -0.204599
  21 H :    0.024363
  22 C :   -0.039127
  23 H :    0.038164
  24 H :    0.035098
  25 C :   -0.042167
  26 H :    0.023311
  27 H :    0.020435
  28 C :   -0.061963
  29 H :    0.025017
  30 H :    0.014529
  31 H :    0.030916
  32 H :    0.020331
  33 H :    0.020364

  Mayer bond orders larger than 0.100000
B(  0-S ,  1-C ) :   1.1661 B(  0-S ,  4-C ) :   1.1615 B(  1-C ,  2-C ) :   1.5739
B(  1-C , 32-H ) :   0.9716 B(  2-C ,  3-C ) :   1.2418 B(  2-C ,  6-C ) :   1.0450
B(  3-C ,  4-C ) :   1.5781 B(  3-C ,  5-H ) :   0.9844 B(  4-C , 20-C ) :   1.0167
B(  6-C ,  7-H ) :   0.9354 B(  6-C ,  8-H ) :   0.9368 B(  6-C ,  9-C ) :   1.0524
B(  9-C , 10-H ) :   0.9590 B(  9-C , 11-H ) :   0.9578 B(  9-C , 12-C ) :   1.0661
B( 12-C , 13-H ) :   0.9739 B( 12-C , 14-H ) :   0.9761 B( 12-C , 15-H ) :   0.9745
B( 16-S , 17-C ) :   1.1483 B( 16-S , 20-C ) :   1.1249 B( 17-C , 18-C ) :   1.6275
B( 17-C , 33-H ) :   0.9731 B( 18-C , 19-C ) :   1.2054 B( 18-C , 21-H ) :   0.9868
B( 19-C , 20-C ) :   1.6417 B( 19-C , 22-C ) :   1.0333 B( 22-C , 23-H ) :   0.9378
B( 22-C , 24-H ) :   0.9373 B( 22-C , 25-C ) :   1.0949 B( 25-C , 26-H ) :   0.9463
B( 25-C , 27-H ) :   0.9501 B( 25-C , 28-C ) :   1.0761 B( 28-C , 29-H ) :   0.9728
B( 28-C , 30-H ) :   0.9688 B( 28-C , 31-H ) :   0.9727

Dispersion correction           -0.015776845
FINAL SINGLE POINT ENERGY     -1339.869925251485

DIPOLE MOMENT
-------------
                                X             Y             Z
Electronic contribution:    -17.25219      18.15638     -12.66976
Nuclear contribution   :     17.81399     -18.36299      12.90877
                        -----------------------------------------
Total Dipole Moment    :      0.56180      -0.20661       0.23901
                        -----------------------------------------
Magnitude (a.u.)       :      0.64454
Magnitude (Debye)      :      1.63830

Rotational constants in cm-1:     0.019420     0.009544     0.007397
Rotational constants in MHz :   582.204734   286.131512   221.753193

                             ****ORCA TERMINATED NORMALLY****
TOTAL RUN TIME: 0 days 0 hours 0 minutes 35 seconds 336 msec
