                         Program Version 4.2.1 -  RELEASE  -
|  1> ! wB97X-D3 SP def2-SVP
|  2> %pal
|  3> nprocs 16
|  4> end
|  5>
|  6> * xyz 0 1
|  7> S 	 -67.1675 	 42.1067 	 121.304
|  8> C 	 -67.9634 	 42.1169 	 119.775
|  9> C 	 -69.0564 	 41.2707 	 119.735
| 10> C 	 -69.2265 	 40.5652 	 120.996
| 11> C 	 -68.2557 	 40.8495 	 121.959
| 12> H 	 -69.9355 	 39.832 	 121.149
| 13> C 	 -69.9142 	 40.9927 	 118.523
| 14> H 	 -70.0071 	 39.9024 	 118.43
| 15> H 	 -69.3018 	 41.2202 	 117.655
| 16> C 	 -71.2626 	 41.7558 	 118.585
| 17> H 	 -71.5761 	 41.6787 	 119.618
| 18> H 	 -71.1665 	 42.7595 	 118.327
| 19> C 	 -72.381 	 41.1802 	 117.72
| 20> H 	 -73.1962 	 41.9013 	 117.788
| 21> H 	 -72.1 	 40.9415 	 116.709
| 22> H 	 -72.7911 	 40.2638 	 118.143
| 23> S 	 -66.3464 	 39.7121 	 123.692
| 24> C 	 -66.9726 	 39.1862 	 125.208
| 25> C 	 -68.3474 	 39.2245 	 125.396
| 26> C 	 -69.0602 	 39.7875 	 124.23
| 27> C 	 -68.0619 	 40.1719 	 123.258
| 28> H 	 -68.82 	 38.846 	 126.228
| 29> C 	 -70.5535 	 40.0593 	 124.217
| 30> H 	 -70.7404 	 40.4616 	 123.248
| 31> H 	 -70.8969 	 40.7132 	 125.002
| 32> C 	 -71.5029 	 38.8403 	 124.352
| 33> H 	 -71.2547 	 38.4311 	 125.263
| 34> H 	 -71.2544 	 38.1163 	 123.561
| 35> C 	 -73.0227 	 39.1109 	 124.359
| 36> H 	 -73.6551 	 38.2973 	 124.474
| 37> H 	 -73.2661 	 39.6296 	 123.437
| 38> H 	 -73.2771 	 39.723 	 125.223
| 39> H 	 -67.3558 	 42.3949 	 118.88
| 40> H 	 -66.4181 	 38.7603 	 125.954
| 41> *
| 42>
| 43>                          ****END OF INPUT****

CARTESIAN COORDINATES (ANGSTROEM)
---------------------------------
  S    -67.167500   42.106700  121.304000
  C    -67.963400   42.116900  119.775000
  C    -69.056400   41.270700  119.735000
  C    -69.226500   40.565200  120.996000
  C    -68.255700   40.849500  121.959000
  H    -69.935500   39.832000  121.149000
  C    -69.914200   40.992700  118.523000
  H    -70.007100   39.902400  118.430000
  H    -69.301800   41.220200  117.655000
  C    -71.262600   41.755800  118.585000
  H    -71.576100   41.678700  119.618000
  H    -71.166500   42.759500  118.327000
  C    -72.381000   41.180200  117.720000
  H    -73.196200   41.901300  117.788000
  H    -72.100000   40.941500  116.709000
  H    -72.791100   40.263800  118.143000
  S    -66.346400   39.712100  123.692000
  C    -66.972600   39.186200  125.208000
  C    -68.347400   39.224500  125.396000
  C    -69.060200   39.787500  124.230000
  C    -68.061900   40.171900  123.258000
  H    -68.820000   38.846000  126.228000
  C    -70.553500   40.059300  124.217000
  H    -70.740400   40.461600  123.248000
  H    -70.896900   40.713200  125.002000
  C    -71.502900   38.840300  124.352000
  H    -71.254700   38.431100  125.263000
  H    -71.254400   38.116300  123.561000
  C    -73.022700   39.110900  124.359000
  H    -73.655100   38.297300  124.474000
  H    -73.266100   39.629600  123.437000
  H    -73.277100   39.723000  125.223000
  H    -67.355800   42.394900  118.880000
  H    -66.418100   38.760300  125.954000

 Total Charge           Charge          ....    0
 Multiplicity           Mult            ....    1
 Number of Electrons    NEL             ....  134
 Basis Dimension        Dim             ....  322

ORBITAL ENERGIES
----------------

  NO   OCC          E(Eh)            E(eV)
   0   2.0000     -88.974482     -2421.1188
   1   2.0000     -88.961409     -2420.7630
   2   2.0000     -10.341240      -281.3995
   3   2.0000     -10.333610      -281.1918
   4   2.0000     -10.319311      -280.8027
   5   2.0000     -10.312985      -280.6306
   6   2.0000     -10.311199      -280.5820
   7   2.0000     -10.302140      -280.3355
   8   2.0000     -10.293983      -280.1135
   9   2.0000     -10.292765      -280.0804
  10   2.0000     -10.291901      -280.0569
  11   2.0000     -10.291298      -280.0404
  12   2.0000     -10.284235      -279.8483
  13   2.0000     -10.281577      -279.7759
  14   2.0000     -10.277093      -279.6539
  15   2.0000     -10.275442      -279.6090
  16   2.0000      -8.088233      -220.0920
  17   2.0000      -8.076269      -219.7664
  18   2.0000      -6.046648      -164.5377
  19   2.0000      -6.043159      -164.4427
  20   2.0000      -6.038858      -164.3257
  21   2.0000      -6.034886      -164.2176
  22   2.0000      -6.030683      -164.1032
  23   2.0000      -6.026984      -164.0026
  24   2.0000      -0.995768       -27.0962
  25   2.0000      -0.975956       -26.5571
  26   2.0000      -0.912288       -24.8246
  27   2.0000      -0.909410       -24.7463
  28   2.0000      -0.865839       -23.5607
  29   2.0000      -0.855042       -23.2669
  30   2.0000      -0.846497       -23.0344
  31   2.0000      -0.814338       -22.1593
  32   2.0000      -0.788888       -21.4667
  33   2.0000      -0.768796       -20.9200
  34   2.0000      -0.709745       -19.3132
  35   2.0000      -0.702505       -19.1161
  36   2.0000      -0.694578       -18.9004
  37   2.0000      -0.661769       -18.0076
  38   2.0000      -0.641173       -17.4472
  39   2.0000      -0.621224       -16.9044
  40   2.0000      -0.599659       -16.3175
  41   2.0000      -0.580148       -15.7866
  42   2.0000      -0.564466       -15.3599
  43   2.0000      -0.556851       -15.1527
  44   2.0000      -0.531773       -14.4703
  45   2.0000      -0.528238       -14.3741
  46   2.0000      -0.523941       -14.2572
  47   2.0000      -0.507093       -13.7987
  48   2.0000      -0.501790       -13.6544
  49   2.0000      -0.498117       -13.5544
  50   2.0000      -0.494156       -13.4467
  51   2.0000      -0.477026       -12.9805
  52   2.0000      -0.469888       -12.7863
  53   2.0000      -0.463640       -12.6163
  54   2.0000      -0.461919       -12.5694
  55   2.0000      -0.452557       -12.3147
  56   2.0000      -0.447667       -12.1816
  57   2.0000      -0.442957       -12.0535
  58   2.0000      -0.435335       -11.8461
  59   2.0000      -0.429380       -11.6840
  60   2.0000      -0.422844       -11.5062
  61   2.0000      -0.417772       -11.3682
  62   2.0000      -0.414652       -11.2832
  63   2.0000      -0.346288        -9.4230
  64   2.0000      -0.334671        -9.1069
  65   2.0000      -0.325715        -8.8632
  66   2.0000      -0.286920        -7.8075
  67   0.0000       0.019717         0.5365
  68   0.0000       0.072038         1.9602
  69   0.0000       0.099580         2.7097
  70   0.0000       0.115665         3.1474
  71   0.0000       0.122571         3.3353

MULLIKEN ATOMIC CHARGES
-----------------------
   0 S :    0.091050
   1 C :   -0.133842
   2 C :   -0.127134
   3 C :    0.058462
   4 C :   -0.149592
   5 H :   -0.019830
   6 C :    0.071467
   7 H :    0.026105
   8 H :    0.012025
   9 C :   -0.039198
  10 H :    0.026039
  11 H :    0.023205
  12 C :   -0.038224
  13 H :    0.031467
  14 H :    0.031257
  15 H :    0.022084
  16 S :    0.124066
  17 C :   -0.035009
  18 C :   -0.011221
  19 C :   -0.033650
  20 C :   -0.161425
  21 H :   -0.010994
  22 C :    0.098690
  23 H :    0.001125
  24 H :    0.034408
  25 C :   -0.089625
  26 H :    0.005662
  27 H :    0.030579
  28 C :   -0.010879
  29 H :    0.024197
  30 H :    0.029438
  31 H :    0.021805
  32 H :    0.077931
  33 H :    0.019560
Sum of atomic charges:   -0.0000000

LOEWDIN ATOMIC CHARGES
----------------------
   0 S :    0.390359
   1 C :   -0.222002
   2 C :   -0.059184
   3 C :   -0.058714
   4 C :   -0.181942
   5 H :    0.014056
   6 C :   -0.033106
   7 H :    0.031761
   8 H :    0.027612
   9 C :   -0.029665
  10 H :    0.026215
  11 H :    0.019127
  12 C :   -0.062083
  13 H :    0.028583
  14 H :    0.021270
  15 H :    0.022502
  16 S :    0.395143
  17 C :   -0.174257
  18 C :   -0.056423
  19 C :   -0.033360
  20 C :   -0.175913
  21 H :    0.015842
  22 C :   -0.026710
  23 H :    0.022863
  24 H :    0.033897
  25 C :   -0.032542
  26 H :    0.007345
  27 H :    0.024080
  28 C :   -0.056431
  29 H :    0.020066
  30 H :    0.025709
  31 H :    0.026295
  32 H :    0.039601
  33 H :    0.010006

  Mayer bond orders larger than 0.100000
B(  0-S ,  1-C ) :   1.1374 B(  0-S ,  4-C ) :   1.1432 B(  1-C ,  2-C ) :   1.6255
B(  1-C , 32-H ) :   0.9511 B(  2-C ,  3-C ) :   1.2432 B(  2-C ,  6-C ) :   1.0306
B(  3-C ,  4-C ) :   1.5601 B(  3-C ,  5-H ) :   0.9985 B(  4-C , 20-C ) :   1.0674
B(  6-C ,  7-H ) :   0.9471 B(  6-C ,  8-H ) :   0.9350 B(  6-C ,  9-C ) :   1.0444
B(  9-C , 10-H ) :   0.9620 B(  9-C , 11-H ) :   0.9571 B(  9-C , 12-C ) :   1.0839
B( 12-C , 13-H ) :   0.9741 B( 12-C , 14-H ) :   0.9757 B( 12-C , 15-H ) :   0.9762
B( 16-S , 17-C ) :   1.1421 B( 16-S , 20-C ) :   1.1293 B( 17-C , 18-C ) :   1.6434
B( 17-C , 33-H ) :   0.9699 B( 18-C , 19-C ) :   1.2049 B( 18-C , 21-H ) :   0.9950
B( 19-C , 20-C ) :   1.5860 B( 19-C , 22-C ) :   1.0547 B( 22-C , 23-H ) :   0.9229
B( 22-C , 24-H ) :   0.9371 B( 22-C , 25-C ) :   1.0535 B( 25-C , 26-H ) :   0.9582
B( 25-C , 27-H ) :   0.9565 B( 25-C , 28-C ) :   1.0888 B( 28-C , 29-H ) :   0.9737
B( 28-C , 30-H ) :   0.9766 B( 28-C , 31-H ) :   0.9707

Dispersion correction           -0.013403461
FINAL SINGLE POINT ENERGY     -1339.858744240426

DIPOLE MOMENT
-------------
                                X             Y             Z
Electronic contribution:     31.92522       4.31543       8.43508
Nuclear contribution   :    -32.53822      -4.72654      -8.44302
                        -----------------------------------------
Total Dipole Moment    :     -0.61300      -0.41112      -0.00794
                        -----------------------------------------
Magnitude (a.u.)       :      0.73814
Magnitude (Debye)      :      1.87620

Rotational constants in cm-1:     0.015633     0.009130     0.006059
Rotational constants in MHz :   468.673537   273.720010   181.636180

                             ****ORCA TERMINATED NORMALLY****
TOTAL RUN TIME: 0 days 0 hours 0 minutes 33 seconds 255 msec
