                         Program Version 4.2.1 -  RELEASE  -
|  1> ! wB97X-D3 SP def2-SVP
|  2> %pal
|  3> nprocs 16
|  4> end
|  5>
|  6> * xyz 0 1
|  7> S 	 -73.3079 	 43.6632 	 127.167
|  8> C 	 -71.6981 	 43.234 	 126.635
|  9> C 	 -71.0835 	 44.3322 	 125.991
| 10> C 	 -72.0556 	 45.3564 	 125.748
| 11> C 	 -73.3018 	 45.0961 	 126.242
| 12> H 	 -71.7593 	 46.2525 	 125.21
| 13> C 	 -69.5909 	 44.3251 	 125.54
| 14> H 	 -69.0343 	 43.4158 	 125.786
| 15> H 	 -69.2385 	 45.1624 	 126.094
| 16> C 	 -69.1697 	 44.6504 	 124.081
| 17> H 	 -70.0731 	 44.4199 	 123.478
| 18> H 	 -69.0557 	 45.7278 	 123.815
| 19> C 	 -68.0122 	 43.7906 	 123.541
| 20> H 	 -68.4502 	 42.7394 	 123.558
| 21> H 	 -67.4428 	 44.1477 	 122.698
| 22> H 	 -67.3108 	 43.8359 	 124.29
| 23> S 	 -75.7064 	 45.4563 	 124.936
| 24> C 	 -76.552 	 47.0472 	 125.094
| 25> C 	 -75.9485 	 47.8386 	 126.065
| 26> C 	 -74.7595 	 47.2363 	 126.588
| 27> C 	 -74.4991 	 45.9292 	 126.095
| 28> H 	 -76.1174 	 48.872 	 126.179
| 29> C 	 -73.8977 	 47.9676 	 127.631
| 30> H 	 -74.0579 	 49.0037 	 127.219
| 31> H 	 -72.8036 	 47.7561 	 127.615
| 32> C 	 -74.4027 	 47.9756 	 129.095
| 33> H 	 -75.3368 	 48.454 	 129.123
| 34> H 	 -73.7914 	 48.767 	 129.561
| 35> C 	 -74.4859 	 46.6471 	 129.904
| 36> H 	 -74.7524 	 46.8572 	 130.981
| 37> H 	 -73.4811 	 46.2481 	 129.839
| 38> H 	 -75.1915 	 45.9833 	 129.43
| 39> H 	 -71.2513 	 42.375 	 126.99
| 40> H 	 -77.3149 	 47.4786 	 124.368
| 41> *
| 42>
| 43>                          ****END OF INPUT****

CARTESIAN COORDINATES (ANGSTROEM)
---------------------------------
  S    -73.307900   43.663200  127.167000
  C    -71.698100   43.234000  126.635000
  C    -71.083500   44.332200  125.991000
  C    -72.055600   45.356400  125.748000
  C    -73.301800   45.096100  126.242000
  H    -71.759300   46.252500  125.210000
  C    -69.590900   44.325100  125.540000
  H    -69.034300   43.415800  125.786000
  H    -69.238500   45.162400  126.094000
  C    -69.169700   44.650400  124.081000
  H    -70.073100   44.419900  123.478000
  H    -69.055700   45.727800  123.815000
  C    -68.012200   43.790600  123.541000
  H    -68.450200   42.739400  123.558000
  H    -67.442800   44.147700  122.698000
  H    -67.310800   43.835900  124.290000
  S    -75.706400   45.456300  124.936000
  C    -76.552000   47.047200  125.094000
  C    -75.948500   47.838600  126.065000
  C    -74.759500   47.236300  126.588000
  C    -74.499100   45.929200  126.095000
  H    -76.117400   48.872000  126.179000
  C    -73.897700   47.967600  127.631000
  H    -74.057900   49.003700  127.219000
  H    -72.803600   47.756100  127.615000
  C    -74.402700   47.975600  129.095000
  H    -75.336800   48.454000  129.123000
  H    -73.791400   48.767000  129.561000
  C    -74.485900   46.647100  129.904000
  H    -74.752400   46.857200  130.981000
  H    -73.481100   46.248100  129.839000
  H    -75.191500   45.983300  129.430000
  H    -71.251300   42.375000  126.990000
  H    -77.314900   47.478600  124.368000

 Total Charge           Charge          ....    0
 Multiplicity           Mult            ....    1
 Number of Electrons    NEL             ....  134
 Basis Dimension        Dim             ....  322

ORBITAL ENERGIES
----------------

  NO   OCC          E(Eh)            E(eV)
   0   2.0000     -88.968484     -2420.9555
   1   2.0000     -88.964661     -2420.8515
   2   2.0000     -10.330404      -281.1046
   3   2.0000     -10.327393      -281.0226
   4   2.0000     -10.326079      -280.9869
   5   2.0000     -10.311050      -280.5779
   6   2.0000     -10.309783      -280.5435
   7   2.0000     -10.307092      -280.4702
   8   2.0000     -10.298535      -280.2374
   9   2.0000     -10.297879      -280.2195
  10   2.0000     -10.295580      -280.1570
  11   2.0000     -10.294487      -280.1272
  12   2.0000     -10.289667      -279.9961
  13   2.0000     -10.281406      -279.7713
  14   2.0000     -10.279104      -279.7086
  15   2.0000     -10.277355      -279.6610
  16   2.0000      -8.082295      -219.9304
  17   2.0000      -8.080312      -219.8765
  18   2.0000      -6.040842      -164.3797
  19   2.0000      -6.038601      -164.3187
  20   2.0000      -6.036889      -164.2721
  21   2.0000      -6.034666      -164.2116
  22   2.0000      -6.033086      -164.1686
  23   2.0000      -6.031275      -164.1193
  24   2.0000      -1.006764       -27.3954
  25   2.0000      -0.979919       -26.6650
  26   2.0000      -0.908926       -24.7331
  27   2.0000      -0.899434       -24.4749
  28   2.0000      -0.869211       -23.6524
  29   2.0000      -0.849545       -23.1173
  30   2.0000      -0.843373       -22.9493
  31   2.0000      -0.813780       -22.1441
  32   2.0000      -0.784793       -21.3553
  33   2.0000      -0.769304       -20.9338
  34   2.0000      -0.706566       -19.2266
  35   2.0000      -0.696039       -18.9402
  36   2.0000      -0.686435       -18.6789
  37   2.0000      -0.661593       -18.0029
  38   2.0000      -0.646725       -17.5983
  39   2.0000      -0.623935       -16.9781
  40   2.0000      -0.590364       -16.0646
  41   2.0000      -0.570940       -15.5361
  42   2.0000      -0.565098       -15.3771
  43   2.0000      -0.541076       -14.7234
  44   2.0000      -0.539791       -14.6885
  45   2.0000      -0.522906       -14.2290
  46   2.0000      -0.513767       -13.9803
  47   2.0000      -0.512159       -13.9366
  48   2.0000      -0.499643       -13.5960
  49   2.0000      -0.496752       -13.5173
  50   2.0000      -0.487027       -13.2527
  51   2.0000      -0.479446       -13.0464
  52   2.0000      -0.469745       -12.7824
  53   2.0000      -0.466786       -12.7019
  54   2.0000      -0.457484       -12.4488
  55   2.0000      -0.456449       -12.4206
  56   2.0000      -0.445197       -12.1144
  57   2.0000      -0.436433       -11.8759
  58   2.0000      -0.431861       -11.7515
  59   2.0000      -0.429427       -11.6853
  60   2.0000      -0.414745       -11.2858
  61   2.0000      -0.407989       -11.1019
  62   2.0000      -0.399188       -10.8625
  63   2.0000      -0.341858        -9.3024
  64   2.0000      -0.329757        -8.9731
  65   2.0000      -0.322386        -8.7726
  66   2.0000      -0.301805        -8.2125
  67   0.0000       0.038865         1.0576
  68   0.0000       0.053057         1.4438
  69   0.0000       0.111147         3.0245
  70   0.0000       0.114281         3.1097
  71   0.0000       0.124419         3.3856

MULLIKEN ATOMIC CHARGES
-----------------------
   0 S :    0.116177
   1 C :   -0.107798
   2 C :   -0.104185
   3 C :    0.050184
   4 C :   -0.164416
   5 H :    0.010756
   6 C :    0.090254
   7 H :    0.023085
   8 H :    0.033172
   9 C :   -0.120017
  10 H :    0.031429
  11 H :    0.029147
  12 C :   -0.032542
  13 H :    0.051587
  14 H :    0.039880
  15 H :    0.008075
  16 S :    0.112374
  17 C :   -0.123769
  18 C :   -0.006058
  19 C :   -0.049166
  20 C :   -0.151369
  21 H :    0.014274
  22 C :    0.017819
  23 H :    0.024573
  24 H :    0.041995
  25 C :   -0.054036
  26 H :    0.000324
  27 H :    0.022239
  28 C :   -0.037925
  29 H :    0.047959
  30 H :    0.031510
  31 H :    0.044704
  32 H :    0.021949
  33 H :    0.087816
Sum of atomic charges:    0.0000000

LOEWDIN ATOMIC CHARGES
----------------------
   0 S :    0.429655
   1 C :   -0.187762
   2 C :   -0.053946
   3 C :   -0.062769
   4 C :   -0.214531
   5 H :    0.032656
   6 C :   -0.030926
   7 H :    0.032313
   8 H :    0.035450
   9 C :   -0.055495
  10 H :    0.023474
  11 H :    0.022644
  12 C :   -0.064382
  13 H :    0.040248
  14 H :    0.030790
  15 H :    0.010979
  16 S :    0.399321
  17 C :   -0.178806
  18 C :   -0.071134
  19 C :   -0.053775
  20 C :   -0.215292
  21 H :    0.026511
  22 C :   -0.037772
  23 H :    0.037747
  24 H :    0.032493
  25 C :   -0.043956
  26 H :    0.011671
  27 H :    0.026216
  28 C :   -0.062588
  29 H :    0.035837
  30 H :    0.023841
  31 H :    0.025561
  32 H :    0.008070
  33 H :    0.047657

  Mayer bond orders larger than 0.100000
B(  0-S ,  1-C ) :   1.1562 B(  0-S ,  4-C ) :   1.1774 B(  1-C ,  2-C ) :   1.5721
B(  1-C , 32-H ) :   0.9834 B(  2-C ,  3-C ) :   1.2597 B(  2-C ,  6-C ) :   1.0219
B(  3-C ,  4-C ) :   1.5640 B(  3-C ,  5-H ) :   1.0007 B(  4-C , 20-C ) :   1.0014
B(  6-C ,  7-H ) :   0.9549 B(  6-C ,  8-H ) :   0.9257 B(  6-C ,  9-C ) :   1.0360
B(  9-C , 10-H ) :   0.9691 B(  9-C , 11-H ) :   0.9549 B(  9-C , 12-C ) :   1.0745
B( 12-C , 13-H ) :   0.9756 B( 12-C , 14-H ) :   0.9723 B( 12-C , 15-H ) :   0.9758
B( 16-S , 17-C ) :   1.1560 B( 16-S , 20-C ) :   1.1458 B( 17-C , 18-C ) :   1.6048
B( 17-C , 20-C ) :   0.1003 B( 17-C , 33-H ) :   0.9561 B( 18-C , 19-C ) :   1.2647
B( 18-C , 21-H ) :   0.9813 B( 19-C , 20-C ) :   1.5806 B( 19-C , 22-C ) :   1.0296
B( 22-C , 23-H ) :   0.9294 B( 22-C , 24-H ) :   0.9435 B( 22-C , 25-C ) :   1.0801
B( 25-C , 26-H ) :   0.9507 B( 25-C , 27-H ) :   0.9517 B( 25-C , 28-C ) :   1.0631
B( 28-C , 29-H ) :   0.9727 B( 28-C , 30-H ) :   0.9774 B( 28-C , 31-H ) :   0.9758

Dispersion correction           -0.014456180
FINAL SINGLE POINT ENERGY     -1339.848557748551

DIPOLE MOMENT
-------------
                                X             Y             Z
Electronic contribution:    -19.25528      -7.37621      -3.53988
Nuclear contribution   :     19.79409       7.92872       3.51167
                        -----------------------------------------
Total Dipole Moment    :      0.53880       0.55251      -0.02821
                        -----------------------------------------
Magnitude (a.u.)       :      0.77225
Magnitude (Debye)      :      1.96290

Rotational constants in cm-1:     0.020182     0.007521     0.006881
Rotational constants in MHz :   605.042328   225.484215   206.298893

                             ****ORCA TERMINATED NORMALLY****
TOTAL RUN TIME: 0 days 0 hours 0 minutes 32 seconds 995 msec
