                         Program Version 4.2.1 -  RELEASE  -
|  1> ! wB97X-D3 SP def2-SVP
|  2> %pal
|  3> nprocs 16
|  4> end
|  5>
|  6> * xyz 0 1
|  7> S 	 52.285 	 0.37924 	 79.8649
|  8> C 	 51.3308 	 -0.450701 	 81.117
|  9> C 	 51.9991 	 -0.621168 	 82.276
| 10> C 	 53.2673 	 -0.0336629 	 82.1084
| 11> C 	 53.6176 	 0.672927 	 80.9985
| 12> H 	 53.9643 	 0.00281673 	 82.9645
| 13> C 	 51.429 	 -1.21441 	 83.5378
| 14> H 	 51.6129 	 -2.26805 	 83.3471
| 15> H 	 50.3223 	 -0.992706 	 83.528
| 16> C 	 52.0708 	 -0.830607 	 84.9153
| 17> H 	 53.1472 	 -1.03043 	 84.9635
| 18> H 	 51.9677 	 0.234396 	 85.1712
| 19> C 	 51.3235 	 -1.70111 	 85.9815
| 20> H 	 51.1968 	 -2.69485 	 85.6723
| 21> H 	 51.808 	 -1.72671 	 87.0002
| 22> H 	 50.3129 	 -1.33051 	 86.0929
| 23> S 	 54.6915 	 3.20349 	 81.0064
| 24> C 	 56.4108 	 3.39335 	 80.7574
| 25> C 	 57.0795 	 2.18639 	 80.6611
| 26> C 	 56.1856 	 1.0466 	 80.6496
| 27> C 	 54.8232 	 1.46247 	 80.8397
| 28> H 	 58.1914 	 2.21328 	 80.4923
| 29> C 	 56.6614 	 -0.374527 	 80.3668
| 30> H 	 55.9072 	 -1.06544 	 80.8569
| 31> H 	 57.5223 	 -0.518262 	 80.9584
| 32> C 	 57.0989 	 -0.704962 	 78.9087
| 33> H 	 57.9396 	 -0.0329181 	 78.6068
| 34> H 	 56.3072 	 -0.425778 	 78.262
| 35> C 	 57.4494 	 -2.19249 	 78.8181
| 36> H 	 56.5919 	 -2.81187 	 78.8292
| 37> H 	 58.1127 	 -2.56032 	 79.6082
| 38> H 	 57.9092 	 -2.30911 	 77.7974
| 39> H 	 50.3964 	 -0.960545 	 80.863
| 40> H 	 56.8175 	 4.42219 	 80.7557
| 41> *
| 42>
| 43>                          ****END OF INPUT****

CARTESIAN COORDINATES (ANGSTROEM)
---------------------------------
  S     52.285000    0.379240   79.864900
  C     51.330800   -0.450701   81.117000
  C     51.999100   -0.621168   82.276000
  C     53.267300   -0.033663   82.108400
  C     53.617600    0.672927   80.998500
  H     53.964300    0.002817   82.964500
  C     51.429000   -1.214410   83.537800
  H     51.612900   -2.268050   83.347100
  H     50.322300   -0.992706   83.528000
  C     52.070800   -0.830607   84.915300
  H     53.147200   -1.030430   84.963500
  H     51.967700    0.234396   85.171200
  C     51.323500   -1.701110   85.981500
  H     51.196800   -2.694850   85.672300
  H     51.808000   -1.726710   87.000200
  H     50.312900   -1.330510   86.092900
  S     54.691500    3.203490   81.006400
  C     56.410800    3.393350   80.757400
  C     57.079500    2.186390   80.661100
  C     56.185600    1.046600   80.649600
  C     54.823200    1.462470   80.839700
  H     58.191400    2.213280   80.492300
  C     56.661400   -0.374527   80.366800
  H     55.907200   -1.065440   80.856900
  H     57.522300   -0.518262   80.958400
  C     57.098900   -0.704962   78.908700
  H     57.939600   -0.032918   78.606800
  H     56.307200   -0.425778   78.262000
  C     57.449400   -2.192490   78.818100
  H     56.591900   -2.811870   78.829200
  H     58.112700   -2.560320   79.608200
  H     57.909200   -2.309110   77.797400
  H     50.396400   -0.960545   80.863000
  H     56.817500    4.422190   80.755700

 Total Charge           Charge          ....    0
 Multiplicity           Mult            ....    1
 Number of Electrons    NEL             ....  134
 Basis Dimension        Dim             ....  322

ORBITAL ENERGIES
----------------

  NO   OCC          E(Eh)            E(eV)
   0   2.0000     -88.964550     -2420.8485
   1   2.0000     -88.959940     -2420.7230
   2   2.0000     -10.329247      -281.0731
   3   2.0000     -10.324705      -280.9495
   4   2.0000     -10.320306      -280.8298
   5   2.0000     -10.311886      -280.6007
   6   2.0000     -10.311455      -280.5890
   7   2.0000     -10.302794      -280.3533
   8   2.0000     -10.300958      -280.3033
   9   2.0000     -10.297828      -280.2182
  10   2.0000     -10.294335      -280.1231
  11   2.0000     -10.290036      -280.0061
  12   2.0000     -10.287428      -279.9351
  13   2.0000     -10.287133      -279.9271
  14   2.0000     -10.279997      -279.7329
  15   2.0000     -10.278432      -279.6903
  16   2.0000      -8.079430      -219.8525
  17   2.0000      -8.074015      -219.7051
  18   2.0000      -6.037778      -164.2963
  19   2.0000      -6.033912      -164.1911
  20   2.0000      -6.032633      -164.1563
  21   2.0000      -6.030357      -164.0944
  22   2.0000      -6.028646      -164.0478
  23   2.0000      -6.024651      -163.9391
  24   2.0000      -1.002320       -27.2745
  25   2.0000      -0.981114       -26.6975
  26   2.0000      -0.909354       -24.7448
  27   2.0000      -0.904629       -24.6162
  28   2.0000      -0.870116       -23.6771
  29   2.0000      -0.847971       -23.0745
  30   2.0000      -0.841833       -22.9074
  31   2.0000      -0.810511       -22.0551
  32   2.0000      -0.779737       -21.2177
  33   2.0000      -0.767550       -20.8861
  34   2.0000      -0.714361       -19.4388
  35   2.0000      -0.702765       -19.1232
  36   2.0000      -0.690727       -18.7956
  37   2.0000      -0.652502       -17.7555
  38   2.0000      -0.636062       -17.3081
  39   2.0000      -0.617705       -16.8086
  40   2.0000      -0.591952       -16.1078
  41   2.0000      -0.569758       -15.5039
  42   2.0000      -0.565474       -15.3873
  43   2.0000      -0.558692       -15.2028
  44   2.0000      -0.525653       -14.3037
  45   2.0000      -0.519995       -14.1498
  46   2.0000      -0.514424       -13.9982
  47   2.0000      -0.503896       -13.7117
  48   2.0000      -0.500815       -13.6279
  49   2.0000      -0.495755       -13.4902
  50   2.0000      -0.489397       -13.3172
  51   2.0000      -0.476696       -12.9716
  52   2.0000      -0.470642       -12.8068
  53   2.0000      -0.466241       -12.6871
  54   2.0000      -0.455027       -12.3819
  55   2.0000      -0.448128       -12.1942
  56   2.0000      -0.443047       -12.0559
  57   2.0000      -0.438084       -11.9209
  58   2.0000      -0.435306       -11.8453
  59   2.0000      -0.428558       -11.6617
  60   2.0000      -0.419209       -11.4073
  61   2.0000      -0.418199       -11.3798
  62   2.0000      -0.411889       -11.2081
  63   2.0000      -0.335074        -9.1178
  64   2.0000      -0.326526        -8.8852
  65   2.0000      -0.323557        -8.8044
  66   2.0000      -0.302621        -8.2347
  67   0.0000       0.040333         1.0975
  68   0.0000       0.058128         1.5817
  69   0.0000       0.118520         3.2251
  70   0.0000       0.125354         3.4111
  71   0.0000       0.132590         3.6080

MULLIKEN ATOMIC CHARGES
-----------------------
   0 S :    0.092993
   1 C :   -0.158890
   2 C :   -0.048068
   3 C :    0.021387
   4 C :   -0.158540
   5 H :    0.005711
   6 C :    0.034849
   7 H :    0.046823
   8 H :    0.050037
   9 C :   -0.086402
  10 H :    0.042157
  11 H :    0.046527
  12 C :   -0.039703
  13 H :    0.013846
  14 H :    0.044070
  15 H :    0.025972
  16 S :    0.114439
  17 C :   -0.117847
  18 C :   -0.044827
  19 C :   -0.032012
  20 C :   -0.188558
  21 H :    0.043299
  22 C :    0.061754
  23 H :    0.035294
  24 H :    0.006268
  25 C :   -0.058139
  26 H :    0.032477
  27 H :    0.027470
  28 C :   -0.037627
  29 H :    0.029262
  30 H :    0.033870
  31 H :    0.039617
  32 H :    0.050042
  33 H :    0.072449
Sum of atomic charges:   -0.0000000

LOEWDIN ATOMIC CHARGES
----------------------
   0 S :    0.373728
   1 C :   -0.180809
   2 C :   -0.077022
   3 C :   -0.063389
   4 C :   -0.203622
   5 H :    0.026657
   6 C :   -0.031881
   7 H :    0.039247
   8 H :    0.042751
   9 C :   -0.038132
  10 H :    0.024599
  11 H :    0.029024
  12 C :   -0.064275
  13 H :    0.015183
  14 H :    0.032522
  15 H :    0.024553
  16 S :    0.412166
  17 C :   -0.188186
  18 C :   -0.082783
  19 C :   -0.044863
  20 C :   -0.206443
  21 H :    0.042700
  22 C :   -0.038648
  23 H :    0.038493
  24 H :    0.022477
  25 C :   -0.033543
  26 H :    0.028093
  27 H :    0.021029
  28 C :   -0.063210
  29 H :    0.021594
  30 H :    0.026193
  31 H :    0.034407
  32 H :    0.028064
  33 H :    0.033322

  Mayer bond orders larger than 0.100000
B(  0-S ,  1-C ) :   1.1441 B(  0-S ,  4-C ) :   1.1116 B(  1-C ,  2-C ) :   1.6225
B(  1-C , 32-H ) :   0.9618 B(  2-C ,  3-C ) :   1.2615 B(  2-C ,  6-C ) :   0.9847
B(  3-C ,  4-C ) :   1.6003 B(  3-C ,  5-H ) :   0.9802 B(  4-C , 20-C ) :   1.0507
B(  6-C ,  7-H ) :   0.9285 B(  6-C ,  8-H ) :   0.9527 B(  6-C ,  9-C ) :   1.0709
B(  9-C , 10-H ) :   0.9508 B(  9-C , 11-H ) :   0.9614 B(  9-C , 12-C ) :   1.0733
B( 12-C , 13-H ) :   0.9755 B( 12-C , 14-H ) :   0.9751 B( 12-C , 15-H ) :   0.9753
B( 16-S , 17-C ) :   1.1679 B( 16-S , 20-C ) :   1.1549 B( 17-C , 18-C ) :   1.6000
B( 17-C , 20-C ) :   0.1020 B( 17-C , 33-H ) :   0.9640 B( 18-C , 19-C ) :   1.2397
B( 18-C , 21-H ) :   0.9813 B( 19-C , 20-C ) :   1.5712 B( 19-C , 22-C ) :   1.0513
B( 22-C , 23-H ) :   0.9343 B( 22-C , 24-H ) :   0.9245 B( 22-C , 25-C ) :   1.0544
B( 25-C , 26-H ) :   0.9552 B( 25-C , 27-H ) :   0.9558 B( 25-C , 28-C ) :   1.0786
B( 28-C , 29-H ) :   0.9758 B( 28-C , 30-H ) :   0.9749 B( 28-C , 31-H ) :   0.9731

Dispersion correction           -0.013529719
FINAL SINGLE POINT ENERGY     -1339.874887660727

DIPOLE MOMENT
-------------
                                X             Y             Z
Electronic contribution:     -5.13845      19.96164     -11.12405
Nuclear contribution   :      5.39058     -20.39779      11.52599
                        -----------------------------------------
Total Dipole Moment    :      0.25213      -0.43614       0.40194
                        -----------------------------------------
Magnitude (a.u.)       :      0.64447
Magnitude (Debye)      :      1.63812

Rotational constants in cm-1:     0.016929     0.007589     0.006863
Rotational constants in MHz :   507.511142   227.510962   205.740967

                             ****ORCA TERMINATED NORMALLY****
TOTAL RUN TIME: 0 days 0 hours 0 minutes 28 seconds 348 msec
