                         Program Version 4.2.1 -  RELEASE  -
|  1> ! wB97X-D3 SP def2-SVP
|  2> %pal
|  3> nprocs 16
|  4> end
|  5>
|  6> * xyz 0 1
|  7> S 	 70.929 	 27.5558 	 73.3829
|  8> C 	 70.4929 	 27.8347 	 71.7412
|  9> C 	 71.0877 	 26.8907 	 70.9145
| 10> C 	 71.9656 	 26.0251 	 71.6313
| 11> C 	 71.9697 	 26.2184 	 72.9578
| 12> H 	 72.4074 	 25.1465 	 71.1517
| 13> C 	 70.7342 	 26.6889 	 69.4447
| 14> H 	 71.5818 	 26.6897 	 68.8512
| 15> H 	 70.1286 	 27.5849 	 69.1953
| 16> C 	 69.9854 	 25.3728 	 69.1388
| 17> H 	 70.1838 	 25.1454 	 68.0646
| 18> H 	 70.4783 	 24.6595 	 69.6839
| 19> C 	 68.4613 	 25.4044 	 69.6048
| 20> H 	 68.1159 	 24.3645 	 69.2602
| 21> H 	 68.2103 	 25.6273 	 70.675
| 22> H 	 67.8246 	 25.9671 	 68.9426
| 23> S 	 74.1604 	 26.4766 	 74.6485
| 24> C 	 74.904 	 25.0503 	 75.3609
| 25> C 	 74.2531 	 23.8809 	 74.8752
| 26> C 	 73.1053 	 24.1346 	 74.0442
| 27> C 	 72.8702 	 25.5327 	 73.8667
| 28> H 	 74.6492 	 22.9408 	 75.2324
| 29> C 	 72.2921 	 23.0256 	 73.445
| 30> H 	 71.5193 	 23.5638 	 72.8812
| 31> H 	 71.7249 	 22.4683 	 74.175
| 32> C 	 73.046 	 22.0138 	 72.5939
| 33> H 	 73.7987 	 21.5121 	 73.138
| 34> H 	 73.5296 	 22.6903 	 71.8088
| 35> C 	 72.1505 	 20.9844 	 71.9492
| 36> H 	 71.7492 	 20.2876 	 72.7195
| 37> H 	 72.6007 	 20.3544 	 71.2199
| 38> H 	 71.3301 	 21.4035 	 71.4311
| 39> H 	 69.8133 	 28.5429 	 71.3259
| 40> H 	 75.7869 	 25.1672 	 75.9731
| 41> *
| 42>
| 43>                          ****END OF INPUT****

CARTESIAN COORDINATES (ANGSTROEM)
---------------------------------
  S     70.929000   27.555800   73.382900
  C     70.492900   27.834700   71.741200
  C     71.087700   26.890700   70.914500
  C     71.965600   26.025100   71.631300
  C     71.969700   26.218400   72.957800
  H     72.407400   25.146500   71.151700
  C     70.734200   26.688900   69.444700
  H     71.581800   26.689700   68.851200
  H     70.128600   27.584900   69.195300
  C     69.985400   25.372800   69.138800
  H     70.183800   25.145400   68.064600
  H     70.478300   24.659500   69.683900
  C     68.461300   25.404400   69.604800
  H     68.115900   24.364500   69.260200
  H     68.210300   25.627300   70.675000
  H     67.824600   25.967100   68.942600
  S     74.160400   26.476600   74.648500
  C     74.904000   25.050300   75.360900
  C     74.253100   23.880900   74.875200
  C     73.105300   24.134600   74.044200
  C     72.870200   25.532700   73.866700
  H     74.649200   22.940800   75.232400
  C     72.292100   23.025600   73.445000
  H     71.519300   23.563800   72.881200
  H     71.724900   22.468300   74.175000
  C     73.046000   22.013800   72.593900
  H     73.798700   21.512100   73.138000
  H     73.529600   22.690300   71.808800
  C     72.150500   20.984400   71.949200
  H     71.749200   20.287600   72.719500
  H     72.600700   20.354400   71.219900
  H     71.330100   21.403500   71.431100
  H     69.813300   28.542900   71.325900
  H     75.786900   25.167200   75.973100

 Total Charge           Charge          ....    0
 Multiplicity           Mult            ....    1
 Number of Electrons    NEL             ....  134
 Basis Dimension        Dim             ....  322

ORBITAL ENERGIES
----------------

  NO   OCC          E(Eh)            E(eV)
   0   2.0000     -88.967743     -2420.9354
   1   2.0000     -88.964887     -2420.8577
   2   2.0000     -10.331986      -281.1476
   3   2.0000     -10.325225      -280.9637
   4   2.0000     -10.323516      -280.9171
   5   2.0000     -10.312070      -280.6057
   6   2.0000     -10.310017      -280.5498
   7   2.0000     -10.300273      -280.2847
   8   2.0000     -10.296987      -280.1952
   9   2.0000     -10.291093      -280.0349
  10   2.0000     -10.289910      -280.0027
  11   2.0000     -10.289626      -279.9950
  12   2.0000     -10.288660      -279.9687
  13   2.0000     -10.287865      -279.9470
  14   2.0000     -10.286401      -279.9072
  15   2.0000     -10.274859      -279.5931
  16   2.0000      -8.082880      -219.9463
  17   2.0000      -8.079004      -219.8409
  18   2.0000      -6.041356      -164.3936
  19   2.0000      -6.037461      -164.2877
  20   2.0000      -6.037317      -164.2837
  21   2.0000      -6.033646      -164.1839
  22   2.0000      -6.033443      -164.1783
  23   2.0000      -6.030007      -164.0848
  24   2.0000      -1.008969       -27.4555
  25   2.0000      -0.978829       -26.6353
  26   2.0000      -0.914342       -24.8805
  27   2.0000      -0.908900       -24.7324
  28   2.0000      -0.870383       -23.6843
  29   2.0000      -0.851611       -23.1735
  30   2.0000      -0.843620       -22.9561
  31   2.0000      -0.812089       -22.0981
  32   2.0000      -0.783789       -21.3280
  33   2.0000      -0.773612       -21.0511
  34   2.0000      -0.712093       -19.3770
  35   2.0000      -0.702840       -19.1253
  36   2.0000      -0.696338       -18.9483
  37   2.0000      -0.656114       -17.8538
  38   2.0000      -0.640276       -17.4228
  39   2.0000      -0.624331       -16.9889
  40   2.0000      -0.597788       -16.2666
  41   2.0000      -0.573803       -15.6140
  42   2.0000      -0.572374       -15.5751
  43   2.0000      -0.547397       -14.8954
  44   2.0000      -0.536491       -14.5987
  45   2.0000      -0.530069       -14.4239
  46   2.0000      -0.515990       -14.0408
  47   2.0000      -0.513343       -13.9688
  48   2.0000      -0.505780       -13.7630
  49   2.0000      -0.497688       -13.5428
  50   2.0000      -0.487629       -13.2691
  51   2.0000      -0.482173       -13.1206
  52   2.0000      -0.473646       -12.8886
  53   2.0000      -0.467627       -12.7248
  54   2.0000      -0.458690       -12.4816
  55   2.0000      -0.449745       -12.2382
  56   2.0000      -0.448098       -12.1934
  57   2.0000      -0.432348       -11.7648
  58   2.0000      -0.431996       -11.7552
  59   2.0000      -0.424407       -11.5487
  60   2.0000      -0.419678       -11.4200
  61   2.0000      -0.417128       -11.3506
  62   2.0000      -0.415834       -11.3154
  63   2.0000      -0.346550        -9.4301
  64   2.0000      -0.328612        -8.9420
  65   2.0000      -0.326068        -8.8728
  66   2.0000      -0.296016        -8.0550
  67   0.0000       0.031659         0.8615
  68   0.0000       0.065498         1.7823
  69   0.0000       0.113444         3.0870
  70   0.0000       0.120036         3.2664
  71   0.0000       0.124988         3.4011

MULLIKEN ATOMIC CHARGES
-----------------------
   0 S :    0.123691
   1 C :   -0.096957
   2 C :   -0.138265
   3 C :    0.041714
   4 C :   -0.174566
   5 H :    0.018037
   6 C :    0.104239
   7 H :    0.009578
   8 H :    0.012965
   9 C :   -0.046654
  10 H :    0.037985
  11 H :    0.004319
  12 C :   -0.085328
  13 H :    0.032287
  14 H :    0.070381
  15 H :    0.026054
  16 S :    0.100992
  17 C :   -0.114797
  18 C :   -0.030643
  19 C :   -0.024453
  20 C :   -0.137053
  21 H :    0.021678
  22 C :    0.071581
  23 H :    0.016246
  24 H :    0.023122
  25 C :   -0.083085
  26 H :    0.026399
  27 H :    0.033446
  28 C :   -0.016647
  29 H :    0.029289
  30 H :    0.025850
  31 H :    0.015711
  32 H :    0.034901
  33 H :    0.067984
Sum of atomic charges:    0.0000000

LOEWDIN ATOMIC CHARGES
----------------------
   0 S :    0.420676
   1 C :   -0.203079
   2 C :   -0.064810
   3 C :   -0.060616
   4 C :   -0.205516
   5 H :    0.033098
   6 C :   -0.027330
   7 H :    0.018989
   8 H :    0.029213
   9 C :   -0.029966
  10 H :    0.033083
  11 H :    0.008300
  12 C :   -0.076416
  13 H :    0.035504
  14 H :    0.037753
  15 H :    0.019948
  16 S :    0.398606
  17 C :   -0.182385
  18 C :   -0.069485
  19 C :   -0.050827
  20 C :   -0.192136
  21 H :    0.029699
  22 C :   -0.036654
  23 H :    0.030466
  24 H :    0.028159
  25 C :   -0.037509
  26 H :    0.017823
  27 H :    0.029775
  28 C :   -0.062610
  29 H :    0.030519
  30 H :    0.023702
  31 H :    0.019453
  32 H :    0.026062
  33 H :    0.028513

  Mayer bond orders larger than 0.100000
B(  0-S ,  1-C ) :   1.1408 B(  0-S ,  4-C ) :   1.1475 B(  1-C ,  2-C ) :   1.6131
B(  1-C , 32-H ) :   0.9665 B(  2-C ,  3-C ) :   1.2516 B(  2-C ,  6-C ) :   1.0322
B(  3-C ,  4-C ) :   1.5766 B(  3-C ,  5-H ) :   0.9874 B(  4-C , 20-C ) :   1.0265
B(  6-C ,  7-H ) :   0.9318 B(  6-C ,  8-H ) :   0.9420 B(  6-C ,  9-C ) :   1.0687
B(  9-C , 10-H ) :   0.9566 B(  9-C , 11-H ) :   0.9583 B(  9-C , 12-C ) :   1.0600
B( 12-C , 13-H ) :   0.9735 B( 12-C , 14-H ) :   0.9760 B( 12-C , 15-H ) :   0.9770
B( 16-S , 17-C ) :   1.1703 B( 16-S , 20-C ) :   1.1557 B( 17-C , 18-C ) :   1.5685
B( 17-C , 20-C ) :   0.1098 B( 17-C , 33-H ) :   0.9718 B( 18-C , 19-C ) :   1.2470
B( 18-C , 21-H ) :   0.9945 B( 19-C , 20-C ) :   1.5577 B( 19-C , 22-C ) :   1.0537
B( 22-C , 23-H ) :   0.9295 B( 22-C , 24-H ) :   0.9284 B( 22-C , 25-C ) :   1.0565
B( 25-C , 26-H ) :   0.9536 B( 25-C , 27-H ) :   0.9537 B( 25-C , 28-C ) :   1.0937
B( 28-C , 29-H ) :   0.9690 B( 28-C , 30-H ) :   0.9729 B( 28-C , 31-H ) :   0.9727

Dispersion correction           -0.014659456
FINAL SINGLE POINT ENERGY     -1339.870449255614

DIPOLE MOMENT
-------------
                                X             Y             Z
Electronic contribution:     10.96469      21.28246      20.09406
Nuclear contribution   :    -11.02646     -21.87008     -20.62281
                        -----------------------------------------
Total Dipole Moment    :     -0.06177      -0.58763      -0.52876
                        -----------------------------------------
Magnitude (a.u.)       :      0.79291
Magnitude (Debye)      :      2.01541

Rotational constants in cm-1:     0.016771     0.010060     0.006860
Rotational constants in MHz :   502.790889   301.587636   205.670245

                             ****ORCA TERMINATED NORMALLY****
TOTAL RUN TIME: 0 days 0 hours 0 minutes 30 seconds 644 msec
