                         Program Version 4.2.1 -  RELEASE  -
|  1> ! wB97X-D3 SP def2-SVP
|  2> %pal
|  3> nprocs 16
|  4> end
|  5>
|  6> * xyz 0 1
|  7> S 	 7.20862 	 -10.5222 	 92.8362
|  8> C 	 9.01288 	 -10.4721 	 92.5984
|  9> C 	 9.15748 	 -10.4423 	 91.2023
| 10> C 	 8.01656 	 -10.719 	 90.3882
| 11> C 	 6.8471 	 -10.694 	 91.1275
| 12> H 	 8.121 	 -10.8944 	 89.3405
| 13> C 	 10.4918 	 -10.4406 	 90.532
| 14> H 	 10.4393 	 -11.0932 	 89.5652
| 15> H 	 11.1401 	 -11.0722 	 91.1956
| 16> C 	 11.0845 	 -9.02034 	 90.2181
| 17> H 	 12.0108 	 -9.03124 	 89.6123
| 18> H 	 10.4557 	 -8.51744 	 89.5062
| 19> C 	 11.2989 	 -8.25681 	 91.5434
| 20> H 	 11.3036 	 -7.24341 	 91.1311
| 21> H 	 10.3459 	 -8.18569 	 92.153
| 22> H 	 12.1362 	 -8.49765 	 92.1299
| 23> S 	 4.57615 	 -12.1601 	 91.2896
| 24> C 	 3.32103 	 -11.9471 	 90.0524
| 25> C 	 3.52844 	 -10.7768 	 89.3356
| 26> C 	 4.78618 	 -10.1992 	 89.6961
| 27> C 	 5.5207 	 -10.925 	 90.5748
| 28> H 	 2.91593 	 -10.6158 	 88.4199
| 29> C 	 5.34011 	 -9.00573 	 88.8746
| 30> H 	 4.8866 	 -8.8719 	 87.9091
| 31> H 	 6.36688 	 -9.18755 	 88.5941
| 32> C 	 5.23763 	 -7.62816 	 89.6229
| 33> H 	 4.19251 	 -7.4322 	 89.652
| 34> H 	 5.73837 	 -6.8044 	 89.038
| 35> C 	 5.81431 	 -7.55498 	 91.0147
| 36> H 	 5.149 	 -7.9368 	 91.8194
| 37> H 	 5.99193 	 -6.51904 	 91.3739
| 38> H 	 6.72257 	 -8.08212 	 91.0879
| 39> H 	 9.84687 	 -10.3782 	 93.1955
| 40> H 	 2.49637 	 -12.6641 	 90.0713
| 41> *
| 42>
| 43>                          ****END OF INPUT****

CARTESIAN COORDINATES (ANGSTROEM)
---------------------------------
  S      7.208620  -10.522200   92.836200
  C      9.012880  -10.472100   92.598400
  C      9.157480  -10.442300   91.202300
  C      8.016560  -10.719000   90.388200
  C      6.847100  -10.694000   91.127500
  H      8.121000  -10.894400   89.340500
  C     10.491800  -10.440600   90.532000
  H     10.439300  -11.093200   89.565200
  H     11.140100  -11.072200   91.195600
  C     11.084500   -9.020340   90.218100
  H     12.010800   -9.031240   89.612300
  H     10.455700   -8.517440   89.506200
  C     11.298900   -8.256810   91.543400
  H     11.303600   -7.243410   91.131100
  H     10.345900   -8.185690   92.153000
  H     12.136200   -8.497650   92.129900
  S      4.576150  -12.160100   91.289600
  C      3.321030  -11.947100   90.052400
  C      3.528440  -10.776800   89.335600
  C      4.786180  -10.199200   89.696100
  C      5.520700  -10.925000   90.574800
  H      2.915930  -10.615800   88.419900
  C      5.340110   -9.005730   88.874600
  H      4.886600   -8.871900   87.909100
  H      6.366880   -9.187550   88.594100
  C      5.237630   -7.628160   89.622900
  H      4.192510   -7.432200   89.652000
  H      5.738370   -6.804400   89.038000
  C      5.814310   -7.554980   91.014700
  H      5.149000   -7.936800   91.819400
  H      5.991930   -6.519040   91.373900
  H      6.722570   -8.082120   91.087900
  H      9.846870  -10.378200   93.195500
  H      2.496370  -12.664100   90.071300

 Total Charge           Charge          ....    0
 Multiplicity           Mult            ....    1
 Number of Electrons    NEL             ....  134
 Basis Dimension        Dim             ....  322

ORBITAL ENERGIES
----------------

  NO   OCC          E(Eh)            E(eV)
   0   2.0000     -88.971085     -2421.0263
   1   2.0000     -88.963403     -2420.8173
   2   2.0000     -10.334191      -281.2076
   3   2.0000     -10.324261      -280.9374
   4   2.0000     -10.323178      -280.9079
   5   2.0000     -10.317956      -280.7658
   6   2.0000     -10.305667      -280.4315
   7   2.0000     -10.302789      -280.3531
   8   2.0000     -10.299064      -280.2518
   9   2.0000     -10.297242      -280.2022
  10   2.0000     -10.292244      -280.0662
  11   2.0000     -10.291892      -280.0566
  12   2.0000     -10.289623      -279.9949
  13   2.0000     -10.281934      -279.7857
  14   2.0000     -10.277036      -279.6524
  15   2.0000     -10.264127      -279.3011
  16   2.0000      -8.083824      -219.9720
  17   2.0000      -8.079068      -219.8426
  18   2.0000      -6.042681      -164.4297
  19   2.0000      -6.038484      -164.3155
  20   2.0000      -6.037445      -164.2872
  21   2.0000      -6.034395      -164.2042
  22   2.0000      -6.033433      -164.1781
  23   2.0000      -6.029899      -164.0819
  24   2.0000      -1.011432       -27.5225
  25   2.0000      -0.983016       -26.7492
  26   2.0000      -0.907645       -24.6983
  27   2.0000      -0.900572       -24.5058
  28   2.0000      -0.869040       -23.6478
  29   2.0000      -0.847835       -23.0708
  30   2.0000      -0.843028       -22.9400
  31   2.0000      -0.816279       -22.2121
  32   2.0000      -0.780383       -21.2353
  33   2.0000      -0.770971       -20.9792
  34   2.0000      -0.710193       -19.3253
  35   2.0000      -0.701688       -19.0939
  36   2.0000      -0.689672       -18.7669
  37   2.0000      -0.665137       -18.0993
  38   2.0000      -0.636211       -17.3122
  39   2.0000      -0.619650       -16.8615
  40   2.0000      -0.596111       -16.2210
  41   2.0000      -0.568584       -15.4720
  42   2.0000      -0.551534       -15.0080
  43   2.0000      -0.544425       -14.8146
  44   2.0000      -0.539508       -14.6808
  45   2.0000      -0.536840       -14.6082
  46   2.0000      -0.525125       -14.2894
  47   2.0000      -0.512468       -13.9450
  48   2.0000      -0.507006       -13.7963
  49   2.0000      -0.500399       -13.6165
  50   2.0000      -0.489868       -13.3300
  51   2.0000      -0.482936       -13.1413
  52   2.0000      -0.468497       -12.7485
  53   2.0000      -0.460885       -12.5413
  54   2.0000      -0.454234       -12.3603
  55   2.0000      -0.446336       -12.1454
  56   2.0000      -0.440802       -11.9948
  57   2.0000      -0.433722       -11.8022
  58   2.0000      -0.426419       -11.6034
  59   2.0000      -0.415044       -11.2939
  60   2.0000      -0.409801       -11.1512
  61   2.0000      -0.406003       -11.0479
  62   2.0000      -0.405221       -11.0266
  63   2.0000      -0.344962        -9.3869
  64   2.0000      -0.332275        -9.0417
  65   2.0000      -0.328243        -8.9319
  66   2.0000      -0.298265        -8.1162
  67   0.0000       0.027258         0.7417
  68   0.0000       0.059898         1.6299
  69   0.0000       0.104710         2.8493
  70   0.0000       0.115740         3.1494
  71   0.0000       0.126229         3.4349

MULLIKEN ATOMIC CHARGES
-----------------------
   0 S :    0.107264
   1 C :   -0.064100
   2 C :   -0.103991
   3 C :    0.034922
   4 C :   -0.126090
   5 H :    0.015928
   6 C :   -0.026152
   7 H :    0.034752
   8 H :    0.033325
   9 C :   -0.042422
  10 H :    0.031730
  11 H :    0.017605
  12 C :   -0.066221
  13 H :    0.027325
  14 H :    0.048860
  15 H :    0.042543
  16 S :    0.100087
  17 C :   -0.117485
  18 C :   -0.026573
  19 C :   -0.031964
  20 C :   -0.157072
  21 H :    0.051437
  22 C :    0.078319
  23 H :    0.012963
  24 H :    0.013024
  25 C :   -0.073186
  26 H :    0.018795
  27 H :    0.035376
  28 C :   -0.047117
  29 H :    0.031309
  30 H :    0.027517
  31 H :    0.032416
  32 H :    0.019674
  33 H :    0.067205
Sum of atomic charges:    0.0000000

LOEWDIN ATOMIC CHARGES
----------------------
   0 S :    0.388324
   1 C :   -0.175933
   2 C :   -0.062052
   3 C :   -0.061383
   4 C :   -0.183096
   5 H :    0.029573
   6 C :   -0.048532
   7 H :    0.034067
   8 H :    0.030859
   9 C :   -0.039508
  10 H :    0.028462
  11 H :    0.020819
  12 C :   -0.073040
  13 H :    0.032801
  14 H :    0.035433
  15 H :    0.018477
  16 S :    0.410145
  17 C :   -0.167040
  18 C :   -0.075642
  19 C :   -0.053936
  20 C :   -0.208990
  21 H :    0.045396
  22 C :   -0.027429
  23 H :    0.026695
  24 H :    0.023433
  25 C :   -0.039619
  26 H :    0.017519
  27 H :    0.029542
  28 C :   -0.073979
  29 H :    0.027456
  30 H :    0.029388
  31 H :    0.016246
  32 H :    0.017758
  33 H :    0.027787

  Mayer bond orders larger than 0.100000
B(  0-S ,  1-C ) :   1.0992 B(  0-S ,  4-C ) :   1.1511 B(  1-C ,  2-C ) :   1.6001
B(  1-C ,  4-C ) :   0.1007 B(  1-C , 32-H ) :   0.9780 B(  2-C ,  3-C ) :   1.2505
B(  2-C ,  6-C ) :   1.0219 B(  3-C ,  4-C ) :   1.5571 B(  3-C ,  5-H ) :   0.9929
B(  4-C , 20-C ) :   1.0262 B(  6-C ,  7-H ) :   0.9507 B(  6-C ,  8-H ) :   0.9532
B(  6-C ,  9-C ) :   1.0475 B(  9-C , 10-H ) :   0.9556 B(  9-C , 11-H ) :   0.9590
B(  9-C , 12-C ) :   1.0683 B( 12-C , 13-H ) :   0.9700 B( 12-C , 14-H ) :   0.9677
B( 12-C , 15-H ) :   0.9794 B( 16-S , 17-C ) :   1.1654 B( 16-S , 20-C ) :   1.1402
B( 17-C , 18-C ) :   1.6021 B( 17-C , 20-C ) :   0.1037 B( 17-C , 33-H ) :   0.9700
B( 18-C , 19-C ) :   1.2286 B( 18-C , 21-H ) :   0.9824 B( 19-C , 20-C ) :   1.6253
B( 19-C , 22-C ) :   1.0235 B( 22-C , 23-H ) :   0.9417 B( 22-C , 24-H ) :   0.9427
B( 22-C , 25-C ) :   1.0681 B( 25-C , 26-H ) :   0.9561 B( 25-C , 27-H ) :   0.9574
B( 25-C , 28-C ) :   1.0874 B( 28-C , 29-H ) :   0.9699 B( 28-C , 30-H ) :   0.9713
B( 28-C , 31-H ) :   0.9718

Dispersion correction           -0.016183575
FINAL SINGLE POINT ENERGY     -1339.849489690068

DIPOLE MOMENT
-------------
                                X             Y             Z
Electronic contribution:    -15.82913     -18.88725       8.82950
Nuclear contribution   :     16.07251      19.08237      -9.43834
                        -----------------------------------------
Total Dipole Moment    :      0.24338       0.19512      -0.60884
                        -----------------------------------------
Magnitude (a.u.)       :      0.68410
Magnitude (Debye)      :      1.73885

Rotational constants in cm-1:     0.023107     0.009020     0.007777
Rotational constants in MHz :   692.732779   270.426824   233.161201

                             ****ORCA TERMINATED NORMALLY****
TOTAL RUN TIME: 0 days 0 hours 0 minutes 35 seconds 215 msec
