                         Program Version 4.2.1 -  RELEASE  -
|  1> ! wB97X-D3 SP def2-SVP
|  2> %pal
|  3> nprocs 16
|  4> end
|  5>
|  6> * xyz 0 1
|  7> S 	 41.1068 	 13.2651 	 82.2777
|  8> C 	 42.4979 	 14.3869 	 82.0508
|  9> C 	 43.1183 	 14.119 	 80.8359
| 10> C 	 42.468 	 13.1321 	 80.0092
| 11> C 	 41.4784 	 12.4904 	 80.7657
| 12> H 	 42.7507 	 12.8264 	 79.0244
| 13> C 	 44.3244 	 14.858 	 80.3583
| 14> H 	 44.9448 	 14.0737 	 79.8803
| 15> H 	 44.7716 	 15.1536 	 81.2675
| 16> C 	 44.0488 	 16.035 	 79.3654
| 17> H 	 43.2188 	 16.426 	 79.9112
| 18> H 	 44.884 	 16.7762 	 79.4515
| 19> C 	 43.8793 	 15.7144 	 77.8708
| 20> H 	 44.8554 	 15.3826 	 77.5686
| 21> H 	 43.0632 	 14.9569 	 77.6565
| 22> H 	 43.7567 	 16.6909 	 77.4055
| 23> S 	 41.012 	 9.92334 	 81.6282
| 24> C 	 40.1577 	 8.88431 	 80.5691
| 25> C 	 39.9362 	 9.44881 	 79.2891
| 26> C 	 40.3713 	 10.8261 	 79.1892
| 27> C 	 40.8646 	 11.223 	 80.4358
| 28> H 	 39.5525 	 8.79767 	 78.5106
| 29> C 	 40.284 	 11.6078 	 77.9433
| 30> H 	 40.4781 	 12.6426 	 78.0809
| 31> H 	 39.2304 	 11.5765 	 77.5397
| 32> C 	 41.1749 	 11.0378 	 76.8052
| 33> H 	 40.9054 	 10.023 	 76.599
| 34> H 	 42.2296 	 11.0893 	 77.12
| 35> C 	 40.8363 	 11.6833 	 75.4919
| 36> H 	 41.3608 	 11.1116 	 74.7415
| 37> H 	 41.2639 	 12.6809 	 75.5196
| 38> H 	 39.776 	 11.6278 	 75.1213
| 39> H 	 42.8102 	 15.0916 	 82.8006
| 40> H 	 39.891 	 7.85341 	 80.7783
| 41> *
| 42>
| 43>                          ****END OF INPUT****

CARTESIAN COORDINATES (ANGSTROEM)
---------------------------------
  S     41.106800   13.265100   82.277700
  C     42.497900   14.386900   82.050800
  C     43.118300   14.119000   80.835900
  C     42.468000   13.132100   80.009200
  C     41.478400   12.490400   80.765700
  H     42.750700   12.826400   79.024400
  C     44.324400   14.858000   80.358300
  H     44.944800   14.073700   79.880300
  H     44.771600   15.153600   81.267500
  C     44.048800   16.035000   79.365400
  H     43.218800   16.426000   79.911200
  H     44.884000   16.776200   79.451500
  C     43.879300   15.714400   77.870800
  H     44.855400   15.382600   77.568600
  H     43.063200   14.956900   77.656500
  H     43.756700   16.690900   77.405500
  S     41.012000    9.923340   81.628200
  C     40.157700    8.884310   80.569100
  C     39.936200    9.448810   79.289100
  C     40.371300   10.826100   79.189200
  C     40.864600   11.223000   80.435800
  H     39.552500    8.797670   78.510600
  C     40.284000   11.607800   77.943300
  H     40.478100   12.642600   78.080900
  H     39.230400   11.576500   77.539700
  C     41.174900   11.037800   76.805200
  H     40.905400   10.023000   76.599000
  H     42.229600   11.089300   77.120000
  C     40.836300   11.683300   75.491900
  H     41.360800   11.111600   74.741500
  H     41.263900   12.680900   75.519600
  H     39.776000   11.627800   75.121300
  H     42.810200   15.091600   82.800600
  H     39.891000    7.853410   80.778300

 Total Charge           Charge          ....    0
 Multiplicity           Mult            ....    1
 Number of Electrons    NEL             ....  134
 Basis Dimension        Dim             ....  322

ORBITAL ENERGIES
----------------

  NO   OCC          E(Eh)            E(eV)
   0   2.0000     -88.968674     -2420.9607
   1   2.0000     -88.965742     -2420.8809
   2   2.0000     -10.328603      -281.0556
   3   2.0000     -10.323547      -280.9180
   4   2.0000     -10.315724      -280.7051
   5   2.0000     -10.314077      -280.6603
   6   2.0000     -10.303867      -280.3825
   7   2.0000     -10.300270      -280.2846
   8   2.0000     -10.296113      -280.1715
   9   2.0000     -10.294584      -280.1299
  10   2.0000     -10.290671      -280.0234
  11   2.0000     -10.288236      -279.9571
  12   2.0000     -10.287481      -279.9366
  13   2.0000     -10.286921      -279.9214
  14   2.0000     -10.284988      -279.8687
  15   2.0000     -10.280109      -279.7360
  16   2.0000      -8.083514      -219.9636
  17   2.0000      -8.079845      -219.8638
  18   2.0000      -6.041943      -164.4096
  19   2.0000      -6.038355      -164.3120
  20   2.0000      -6.038057      -164.3039
  21   2.0000      -6.034465      -164.2061
  22   2.0000      -6.034308      -164.2019
  23   2.0000      -6.030632      -164.1018
  24   2.0000      -1.003782       -27.3143
  25   2.0000      -0.977872       -26.6093
  26   2.0000      -0.917981       -24.9795
  27   2.0000      -0.910742       -24.7825
  28   2.0000      -0.865816       -23.5600
  29   2.0000      -0.858455       -23.3597
  30   2.0000      -0.843789       -22.9607
  31   2.0000      -0.811373       -22.0786
  32   2.0000      -0.786447       -21.4003
  33   2.0000      -0.769017       -20.9260
  34   2.0000      -0.702527       -19.1167
  35   2.0000      -0.699471       -19.0336
  36   2.0000      -0.695018       -18.9124
  37   2.0000      -0.658377       -17.9154
  38   2.0000      -0.638091       -17.3633
  39   2.0000      -0.617267       -16.7967
  40   2.0000      -0.598330       -16.2814
  41   2.0000      -0.574716       -15.6388
  42   2.0000      -0.567797       -15.4505
  43   2.0000      -0.550265       -14.9735
  44   2.0000      -0.539762       -14.6877
  45   2.0000      -0.527208       -14.3460
  46   2.0000      -0.517270       -14.0756
  47   2.0000      -0.515878       -14.0378
  48   2.0000      -0.509056       -13.8521
  49   2.0000      -0.495416       -13.4810
  50   2.0000      -0.488331       -13.2882
  51   2.0000      -0.481160       -13.0930
  52   2.0000      -0.469278       -12.7697
  53   2.0000      -0.463094       -12.6014
  54   2.0000      -0.460999       -12.5444
  55   2.0000      -0.455009       -12.3814
  56   2.0000      -0.447414       -12.1747
  57   2.0000      -0.439083       -11.9480
  58   2.0000      -0.428570       -11.6620
  59   2.0000      -0.424007       -11.5378
  60   2.0000      -0.422576       -11.4989
  61   2.0000      -0.419523       -11.4158
  62   2.0000      -0.410812       -11.1788
  63   2.0000      -0.341561        -9.2944
  64   2.0000      -0.331469        -9.0197
  65   2.0000      -0.325021        -8.8443
  66   2.0000      -0.285143        -7.7591
  67   0.0000       0.026953         0.7334
  68   0.0000       0.071011         1.9323
  69   0.0000       0.109696         2.9850
  70   0.0000       0.115219         3.1353
  71   0.0000       0.118885         3.2350

MULLIKEN ATOMIC CHARGES
-----------------------
   0 S :    0.102763
   1 C :   -0.128579
   2 C :   -0.118690
   3 C :    0.049187
   4 C :   -0.167728
   5 H :   -0.002191
   6 C :    0.074788
   7 H :    0.022146
   8 H :    0.008954
   9 C :   -0.078145
  10 H :    0.020176
  11 H :    0.032735
  12 C :   -0.031649
  13 H :    0.026046
  14 H :    0.054373
  15 H :    0.041723
  16 S :    0.133710
  17 C :   -0.097839
  18 C :   -0.054079
  19 C :    0.010851
  20 C :   -0.153655
  21 H :    0.019820
  22 C :    0.057059
  23 H :    0.014341
  24 H :    0.031269
  25 C :   -0.095511
  26 H :    0.020296
  27 H :    0.041724
  28 C :   -0.039355
  29 H :    0.024518
  30 H :    0.031394
  31 H :    0.046914
  32 H :    0.047254
  33 H :    0.055378
Sum of atomic charges:    0.0000000

LOEWDIN ATOMIC CHARGES
----------------------
   0 S :    0.389494
   1 C :   -0.195952
   2 C :   -0.055879
   3 C :   -0.064547
   4 C :   -0.185250
   5 H :    0.024726
   6 C :   -0.034045
   7 H :    0.028388
   8 H :    0.024979
   9 C :   -0.040848
  10 H :    0.018736
  11 H :    0.028800
  12 C :   -0.064133
  13 H :    0.024186
  14 H :    0.032294
  15 H :    0.032856
  16 S :    0.420215
  17 C :   -0.202114
  18 C :   -0.068154
  19 C :   -0.050029
  20 C :   -0.200281
  21 H :    0.029130
  22 C :   -0.035544
  23 H :    0.022410
  24 H :    0.039929
  25 C :   -0.036524
  26 H :    0.020506
  27 H :    0.026973
  28 C :   -0.067364
  29 H :    0.024964
  30 H :    0.023484
  31 H :    0.035020
  32 H :    0.025253
  33 H :    0.028320

  Mayer bond orders larger than 0.100000
B(  0-S ,  1-C ) :   1.1006 B(  0-S ,  4-C ) :   1.1719 B(  1-C ,  2-C ) :   1.6156
B(  1-C , 32-H ) :   0.9733 B(  2-C ,  3-C ) :   1.2227 B(  2-C ,  6-C ) :   1.0365
B(  3-C ,  4-C ) :   1.5486 B(  3-C ,  5-H ) :   0.9911 B(  4-C , 20-C ) :   1.0459
B(  6-C ,  7-H ) :   0.9380 B(  6-C ,  8-H ) :   0.9349 B(  6-C ,  9-C ) :   1.0418
B(  9-C , 10-H ) :   0.9579 B(  9-C , 11-H ) :   0.9586 B(  9-C , 12-C ) :   1.0716
B( 12-C , 13-H ) :   0.9722 B( 12-C , 14-H ) :   0.9725 B( 12-C , 15-H ) :   0.9709
B( 16-S , 17-C ) :   1.1590 B( 16-S , 20-C ) :   1.1451 B( 17-C , 18-C ) :   1.6095
B( 17-C , 33-H ) :   0.9666 B( 18-C , 19-C ) :   1.2206 B( 18-C , 21-H ) :   0.9879
B( 19-C , 20-C ) :   1.5771 B( 19-C , 22-C ) :   1.0696 B( 22-C , 23-H ) :   0.9262
B( 22-C , 24-H ) :   0.9290 B( 22-C , 25-C ) :   1.0601 B( 25-C , 26-H ) :   0.9548
B( 25-C , 27-H ) :   0.9530 B( 25-C , 28-C ) :   1.0885 B( 28-C , 29-H ) :   0.9720
B( 28-C , 30-H ) :   0.9723 B( 28-C , 31-H ) :   0.9704

Dispersion correction           -0.014589701
FINAL SINGLE POINT ENERGY     -1339.868487210259

DIPOLE MOMENT
-------------
                                X             Y             Z
Electronic contribution:     -9.11662     -12.06833      27.57775
Nuclear contribution   :      9.43213      12.10829     -28.25099
                        -----------------------------------------
Total Dipole Moment    :      0.31551       0.03996      -0.67324
                        -----------------------------------------
Magnitude (a.u.)       :      0.74458
Magnitude (Debye)      :      1.89256

Rotational constants in cm-1:     0.016224     0.010429     0.006821
Rotational constants in MHz :   486.388421   312.656075   204.489261

                             ****ORCA TERMINATED NORMALLY****
TOTAL RUN TIME: 0 days 0 hours 0 minutes 29 seconds 285 msec
