                         Program Version 4.2.1 -  RELEASE  -
|  1> ! wB97X-D3 SP def2-SVP
|  2> %pal
|  3> nprocs 16
|  4> end
|  5>
|  6> * xyz 0 1
|  7> S 	 -79.9282 	 43.8063 	 125.844
|  8> C 	 -81.2149 	 44.4179 	 124.824
|  9> C 	 -81.3157 	 43.6525 	 123.618
| 10> C 	 -80.3949 	 42.5796 	 123.573
| 11> C 	 -79.5491 	 42.4669 	 124.695
| 12> H 	 -80.3472 	 41.7778 	 122.803
| 13> C 	 -82.1636 	 43.8895 	 122.437
| 14> H 	 -81.6335 	 43.5783 	 121.57
| 15> H 	 -82.1258 	 44.9581 	 122.365
| 16> C 	 -83.5844 	 43.272 	 122.494
| 17> H 	 -84.1305 	 43.3985 	 121.598
| 18> H 	 -83.4976 	 42.1636 	 122.616
| 19> C 	 -84.492 	 43.826 	 123.617
| 20> H 	 -83.9116 	 43.6864 	 124.581
| 21> H 	 -84.625 	 44.889 	 123.561
| 22> H 	 -85.4639 	 43.3081 	 123.719
| 23> S 	 -77.1165 	 41.9319 	 125.967
| 24> C 	 -76.4607 	 40.3355 	 125.808
| 25> C 	 -77.3571 	 39.4124 	 125.322
| 26> C 	 -78.5125 	 40.0586 	 124.803
| 27> C 	 -78.5368 	 41.4661 	 125.098
| 28> H 	 -77.0032 	 38.3642 	 125.31
| 29> C 	 -79.6201 	 39.3271 	 123.991
| 30> H 	 -79.5377 	 39.6568 	 122.983
| 31> H 	 -80.5549 	 39.6384 	 124.443
| 32> C 	 -79.5451 	 37.7792 	 124.036
| 33> H 	 -79.6282 	 37.3941 	 125.099
| 34> H 	 -78.5684 	 37.3541 	 123.623
| 35> C 	 -80.7274 	 37.1707 	 123.167
| 36> H 	 -80.9492 	 37.5433 	 122.144
| 37> H 	 -81.5854 	 37.5019 	 123.796
| 38> H 	 -80.7239 	 36.0905 	 123.123
| 39> H 	 -81.7847 	 45.2678 	 125.164
| 40> H 	 -75.5159 	 40.1274 	 126.214
| 41> *
| 42>
| 43>                          ****END OF INPUT****

CARTESIAN COORDINATES (ANGSTROEM)
---------------------------------
  S    -79.928200   43.806300  125.844000
  C    -81.214900   44.417900  124.824000
  C    -81.315700   43.652500  123.618000
  C    -80.394900   42.579600  123.573000
  C    -79.549100   42.466900  124.695000
  H    -80.347200   41.777800  122.803000
  C    -82.163600   43.889500  122.437000
  H    -81.633500   43.578300  121.570000
  H    -82.125800   44.958100  122.365000
  C    -83.584400   43.272000  122.494000
  H    -84.130500   43.398500  121.598000
  H    -83.497600   42.163600  122.616000
  C    -84.492000   43.826000  123.617000
  H    -83.911600   43.686400  124.581000
  H    -84.625000   44.889000  123.561000
  H    -85.463900   43.308100  123.719000
  S    -77.116500   41.931900  125.967000
  C    -76.460700   40.335500  125.808000
  C    -77.357100   39.412400  125.322000
  C    -78.512500   40.058600  124.803000
  C    -78.536800   41.466100  125.098000
  H    -77.003200   38.364200  125.310000
  C    -79.620100   39.327100  123.991000
  H    -79.537700   39.656800  122.983000
  H    -80.554900   39.638400  124.443000
  C    -79.545100   37.779200  124.036000
  H    -79.628200   37.394100  125.099000
  H    -78.568400   37.354100  123.623000
  C    -80.727400   37.170700  123.167000
  H    -80.949200   37.543300  122.144000
  H    -81.585400   37.501900  123.796000
  H    -80.723900   36.090500  123.123000
  H    -81.784700   45.267800  125.164000
  H    -75.515900   40.127400  126.214000

 Total Charge           Charge          ....    0
 Multiplicity           Mult            ....    1
 Number of Electrons    NEL             ....  134
 Basis Dimension        Dim             ....  322

ORBITAL ENERGIES
----------------

  NO   OCC          E(Eh)            E(eV)
   0   2.0000     -88.968695     -2420.9613
   1   2.0000     -88.965642     -2420.8782
   2   2.0000     -10.338152      -281.3154
   3   2.0000     -10.330989      -281.1205
   4   2.0000     -10.320448      -280.8337
   5   2.0000     -10.312304      -280.6121
   6   2.0000     -10.311477      -280.5895
   7   2.0000     -10.304795      -280.4077
   8   2.0000     -10.304520      -280.4002
   9   2.0000     -10.298817      -280.2450
  10   2.0000     -10.298158      -280.2271
  11   2.0000     -10.296280      -280.1760
  12   2.0000     -10.288899      -279.9752
  13   2.0000     -10.286533      -279.9108
  14   2.0000     -10.285975      -279.8956
  15   2.0000     -10.278746      -279.6989
  16   2.0000      -8.083988      -219.9765
  17   2.0000      -8.079567      -219.8562
  18   2.0000      -6.042331      -164.4202
  19   2.0000      -6.038422      -164.3138
  20   2.0000      -6.038067      -164.3042
  21   2.0000      -6.034911      -164.2183
  22   2.0000      -6.034098      -164.1962
  23   2.0000      -6.030496      -164.0981
  24   2.0000      -1.002582       -27.2816
  25   2.0000      -0.979661       -26.6579
  26   2.0000      -0.911297       -24.7976
  27   2.0000      -0.904098       -24.6018
  28   2.0000      -0.863791       -23.5050
  29   2.0000      -0.849926       -23.1277
  30   2.0000      -0.844534       -22.9809
  31   2.0000      -0.811733       -22.0884
  32   2.0000      -0.782137       -21.2830
  33   2.0000      -0.768215       -20.9042
  34   2.0000      -0.707170       -19.2431
  35   2.0000      -0.700856       -19.0713
  36   2.0000      -0.695348       -18.9214
  37   2.0000      -0.650109       -17.6904
  38   2.0000      -0.638830       -17.3834
  39   2.0000      -0.620840       -16.8939
  40   2.0000      -0.597002       -16.2452
  41   2.0000      -0.570580       -15.5263
  42   2.0000      -0.569214       -15.4891
  43   2.0000      -0.547456       -14.8970
  44   2.0000      -0.538863       -14.6632
  45   2.0000      -0.526773       -14.3342
  46   2.0000      -0.519083       -14.1250
  47   2.0000      -0.507475       -13.8091
  48   2.0000      -0.501324       -13.6417
  49   2.0000      -0.495526       -13.4839
  50   2.0000      -0.490180       -13.3385
  51   2.0000      -0.472574       -12.8594
  52   2.0000      -0.468825       -12.7574
  53   2.0000      -0.465925       -12.6785
  54   2.0000      -0.458897       -12.4872
  55   2.0000      -0.454785       -12.3753
  56   2.0000      -0.442017       -12.0279
  57   2.0000      -0.438973       -11.9451
  58   2.0000      -0.434048       -11.8110
  59   2.0000      -0.427995       -11.6463
  60   2.0000      -0.420954       -11.4548
  61   2.0000      -0.413791       -11.2598
  62   2.0000      -0.409243       -11.1361
  63   2.0000      -0.353464        -9.6182
  64   2.0000      -0.335887        -9.1400
  65   2.0000      -0.329244        -8.9592
  66   2.0000      -0.278559        -7.5800
  67   0.0000       0.020411         0.5554
  68   0.0000       0.069270         1.8849
  69   0.0000       0.106973         2.9109
  70   0.0000       0.122993         3.3468
  71   0.0000       0.134977         3.6729

MULLIKEN ATOMIC CHARGES
-----------------------
   0 S :    0.086892
   1 C :   -0.124746
   2 C :   -0.104190
   3 C :    0.001742
   4 C :   -0.148806
   5 H :    0.022112
   6 C :    0.093337
   7 H :    0.015122
   8 H :    0.020138
   9 C :   -0.041065
  10 H :    0.023112
  11 H :    0.029230
  12 C :   -0.082607
  13 H :    0.037537
  14 H :    0.024784
  15 H :    0.046418
  16 S :    0.118138
  17 C :   -0.080990
  18 C :   -0.046384
  19 C :   -0.058200
  20 C :   -0.129501
  21 H :    0.036868
  22 C :    0.066423
  23 H :    0.046941
  24 H :    0.042789
  25 C :   -0.130480
  26 H :    0.050521
  27 H :    0.042720
  28 C :   -0.059139
  29 H :    0.041195
  30 H :    0.028364
  31 H :    0.037991
  32 H :    0.055986
  33 H :    0.037748
Sum of atomic charges:    0.0000000

LOEWDIN ATOMIC CHARGES
----------------------
   0 S :    0.383768
   1 C :   -0.199580
   2 C :   -0.060803
   3 C :   -0.072379
   4 C :   -0.170492
   5 H :    0.036543
   6 C :   -0.031888
   7 H :    0.030182
   8 H :    0.031786
   9 C :   -0.034815
  10 H :    0.016750
  11 H :    0.028702
  12 C :   -0.073402
  13 H :    0.030469
  14 H :    0.018034
  15 H :    0.030358
  16 S :    0.426791
  17 C :   -0.179127
  18 C :   -0.077919
  19 C :   -0.049388
  20 C :   -0.219146
  21 H :    0.042989
  22 C :   -0.028692
  23 H :    0.028006
  24 H :    0.035233
  25 C :   -0.045791
  26 H :    0.032649
  27 H :    0.024298
  28 C :   -0.074394
  29 H :    0.028119
  30 H :    0.029312
  31 H :    0.023158
  32 H :    0.025273
  33 H :    0.015396

  Mayer bond orders larger than 0.100000
B(  0-S ,  1-C ) :   1.1524 B(  0-S ,  4-C ) :   1.1538 B(  1-C ,  2-C ) :   1.5452
B(  1-C ,  4-C ) :   0.1132 B(  1-C , 32-H ) :   0.9750 B(  2-C ,  3-C ) :   1.2760
B(  2-C ,  6-C ) :   1.0186 B(  3-C ,  4-C ) :   1.5497 B(  3-C ,  5-H ) :   0.9811
B(  4-C , 20-C ) :   1.0618 B(  6-C ,  7-H ) :   0.9387 B(  6-C ,  8-H ) :   0.9388
B(  6-C ,  9-C ) :   1.0605 B(  9-C , 10-H ) :   0.9580 B(  9-C , 11-H ) :   0.9552
B(  9-C , 12-C ) :   1.0753 B( 12-C , 13-H ) :   0.9721 B( 12-C , 14-H ) :   0.9764
B( 12-C , 15-H ) :   0.9737 B( 16-S , 17-C ) :   1.1775 B( 16-S , 20-C ) :   1.1575
B( 17-C , 18-C ) :   1.5800 B( 17-C , 20-C ) :   0.1045 B( 17-C , 33-H ) :   0.9686
B( 18-C , 19-C ) :   1.2677 B( 18-C , 21-H ) :   0.9888 B( 19-C , 20-C ) :   1.5481
B( 19-C , 22-C ) :   1.0130 B( 22-C , 23-H ) :   0.9311 B( 22-C , 24-H ) :   0.9358
B( 22-C , 25-C ) :   1.0826 B( 25-C , 26-H ) :   0.9569 B( 25-C , 27-H ) :   0.9502
B( 25-C , 28-C ) :   1.0598 B( 28-C , 29-H ) :   0.9785 B( 28-C , 30-H ) :   0.9770
B( 28-C , 31-H ) :   0.9765

Dispersion correction           -0.013936200
FINAL SINGLE POINT ENERGY     -1339.874908037905

DIPOLE MOMENT
-------------
                                X             Y             Z
Electronic contribution:     22.18286      13.41597      15.45294
Nuclear contribution   :    -22.43827     -13.85942     -15.86224
                        -----------------------------------------
Total Dipole Moment    :     -0.25540      -0.44345      -0.40930
                        -----------------------------------------
Magnitude (a.u.)       :      0.65529
Magnitude (Debye)      :      1.66561

Rotational constants in cm-1:     0.017088     0.008962     0.006220
Rotational constants in MHz :   512.298729   268.682137   186.461956

                             ****ORCA TERMINATED NORMALLY****
TOTAL RUN TIME: 0 days 0 hours 0 minutes 37 seconds 246 msec
