                         Program Version 4.2.1 -  RELEASE  -
|  1> ! wB97X-D3 SP def2-SVP
|  2> %pal
|  3> nprocs 16
|  4> end
|  5>
|  6> * xyz 0 1
|  7> S 	 -95.4367 	 49.0042 	 121.943
|  8> C 	 -93.9695 	 48.0967 	 122.451
|  9> C 	 -94.2936 	 47.0683 	 123.33
| 10> C 	 -95.6785 	 47.0871 	 123.569
| 11> C 	 -96.4635 	 47.9884 	 122.925
| 12> H 	 -96.2206 	 46.3901 	 124.116
| 13> C 	 -93.3614 	 45.9635 	 123.749
| 14> H 	 -93.6326 	 45.6296 	 124.752
| 15> H 	 -92.4162 	 46.3615 	 123.928
| 16> C 	 -93.0745 	 44.825 	 122.799
| 17> H 	 -92.7271 	 45.2712 	 121.868
| 18> H 	 -92.2344 	 44.2028 	 123.183
| 19> C 	 -94.1631 	 43.8127 	 122.491
| 20> H 	 -95.0331 	 44.3157 	 122.162
| 21> H 	 -93.9225 	 43.1017 	 121.673
| 22> H 	 -94.3679 	 43.1624 	 123.352
| 23> S 	 -98.3996 	 49.6253 	 123.941
| 24> C 	 -100.121 	 49.2685 	 123.755
| 25> C 	 -100.273 	 48.0232 	 123.108
| 26> C 	 -99.0096 	 47.3697 	 122.852
| 27> C 	 -97.9111 	 48.2001 	 123.119
| 28> H 	 -101.217 	 47.6054 	 122.784
| 29> C 	 -99.0452 	 45.9877 	 122.285
| 30> H 	 -100.037 	 45.5198 	 122.149
| 31> H 	 -98.4576 	 45.2694 	 122.851
| 32> C 	 -98.3103 	 45.8285 	 120.927
| 33> H 	 -97.2321 	 46.0719 	 120.98
| 34> H 	 -98.6576 	 46.4792 	 120.11
| 35> C 	 -98.4754 	 44.4556 	 120.322
| 36> H 	 -97.8813 	 44.3977 	 119.413
| 37> H 	 -99.535 	 44.4411 	 120.006
| 38> H 	 -98.1723 	 43.5932 	 120.932
| 39> H 	 -93.1067 	 48.1522 	 121.89
| 40> H 	 -100.912 	 49.888 	 124.105
| 41> *
| 42>
| 43>                          ****END OF INPUT****

CARTESIAN COORDINATES (ANGSTROEM)
---------------------------------
  S    -95.436700   49.004200  121.943000
  C    -93.969500   48.096700  122.451000
  C    -94.293600   47.068300  123.330000
  C    -95.678500   47.087100  123.569000
  C    -96.463500   47.988400  122.925000
  H    -96.220600   46.390100  124.116000
  C    -93.361400   45.963500  123.749000
  H    -93.632600   45.629600  124.752000
  H    -92.416200   46.361500  123.928000
  C    -93.074500   44.825000  122.799000
  H    -92.727100   45.271200  121.868000
  H    -92.234400   44.202800  123.183000
  C    -94.163100   43.812700  122.491000
  H    -95.033100   44.315700  122.162000
  H    -93.922500   43.101700  121.673000
  H    -94.367900   43.162400  123.352000
  S    -98.399600   49.625300  123.941000
  C    -100.121000   49.268500  123.755000
  C    -100.273000   48.023200  123.108000
  C    -99.009600   47.369700  122.852000
  C    -97.911100   48.200100  123.119000
  H    -101.217000   47.605400  122.784000
  C    -99.045200   45.987700  122.285000
  H    -100.037000   45.519800  122.149000
  H    -98.457600   45.269400  122.851000
  C    -98.310300   45.828500  120.927000
  H    -97.232100   46.071900  120.980000
  H    -98.657600   46.479200  120.110000
  C    -98.475400   44.455600  120.322000
  H    -97.881300   44.397700  119.413000
  H    -99.535000   44.441100  120.006000
  H    -98.172300   43.593200  120.932000
  H    -93.106700   48.152200  121.890000
  H    -100.912000   49.888000  124.105000

 Total Charge           Charge          ....    0
 Multiplicity           Mult            ....    1
 Number of Electrons    NEL             ....  134
 Basis Dimension        Dim             ....  322

ORBITAL ENERGIES
----------------

  NO   OCC          E(Eh)            E(eV)
   0   2.0000     -88.967938     -2420.9407
   1   2.0000     -88.965978     -2420.8873
   2   2.0000     -10.329083      -281.0686
   3   2.0000     -10.328613      -281.0559
   4   2.0000     -10.321424      -280.8602
   5   2.0000     -10.315436      -280.6973
   6   2.0000     -10.307264      -280.4749
   7   2.0000     -10.304051      -280.3875
   8   2.0000     -10.299307      -280.2584
   9   2.0000     -10.293827      -280.1093
  10   2.0000     -10.289406      -279.9890
  11   2.0000     -10.288864      -279.9742
  12   2.0000     -10.284227      -279.8480
  13   2.0000     -10.281242      -279.7668
  14   2.0000     -10.275770      -279.6179
  15   2.0000     -10.275392      -279.6076
  16   2.0000      -8.082721      -219.9420
  17   2.0000      -8.080093      -219.8705
  18   2.0000      -6.041246      -164.3907
  19   2.0000      -6.038630      -164.3195
  20   2.0000      -6.037054      -164.2766
  21   2.0000      -6.034572      -164.2090
  22   2.0000      -6.033623      -164.1832
  23   2.0000      -6.030961      -164.1108
  24   2.0000      -1.007052       -27.4033
  25   2.0000      -0.984119       -26.7792
  26   2.0000      -0.917502       -24.9665
  27   2.0000      -0.910224       -24.7685
  28   2.0000      -0.869171       -23.6514
  29   2.0000      -0.852626       -23.2011
  30   2.0000      -0.847649       -23.0657
  31   2.0000      -0.818310       -22.2674
  32   2.0000      -0.790061       -21.4987
  33   2.0000      -0.772806       -21.0291
  34   2.0000      -0.705743       -19.2042
  35   2.0000      -0.701763       -19.0959
  36   2.0000      -0.685013       -18.6401
  37   2.0000      -0.666549       -18.1377
  38   2.0000      -0.651003       -17.7147
  39   2.0000      -0.619696       -16.8628
  40   2.0000      -0.603228       -16.4147
  41   2.0000      -0.580355       -15.7923
  42   2.0000      -0.568050       -15.4574
  43   2.0000      -0.549434       -14.9509
  44   2.0000      -0.548259       -14.9189
  45   2.0000      -0.522022       -14.2049
  46   2.0000      -0.515965       -14.0401
  47   2.0000      -0.510962       -13.9040
  48   2.0000      -0.507746       -13.8165
  49   2.0000      -0.502284       -13.6678
  50   2.0000      -0.494242       -13.4490
  51   2.0000      -0.484600       -13.1866
  52   2.0000      -0.480701       -13.0805
  53   2.0000      -0.464147       -12.6301
  54   2.0000      -0.460321       -12.5260
  55   2.0000      -0.442078       -12.0296
  56   2.0000      -0.440121       -11.9763
  57   2.0000      -0.432772       -11.7763
  58   2.0000      -0.428578       -11.6622
  59   2.0000      -0.426064       -11.5938
  60   2.0000      -0.421596       -11.4722
  61   2.0000      -0.417913       -11.3720
  62   2.0000      -0.411180       -11.1888
  63   2.0000      -0.341145        -9.2830
  64   2.0000      -0.333621        -9.0783
  65   2.0000      -0.325888        -8.8679
  66   2.0000      -0.300252        -8.1703
  67   0.0000       0.033427         0.9096
  68   0.0000       0.055728         1.5164
  69   0.0000       0.114694         3.1210
  70   0.0000       0.118967         3.2372
  71   0.0000       0.128493         3.4965

MULLIKEN ATOMIC CHARGES
-----------------------
   0 S :    0.099024
   1 C :   -0.106808
   2 C :   -0.067771
   3 C :    0.065053
   4 C :   -0.180424
   5 H :   -0.025259
   6 C :    0.123404
   7 H :    0.015771
   8 H :    0.004159
   9 C :   -0.070862
  10 H :    0.018588
  11 H :    0.032658
  12 C :   -0.047213
  13 H :    0.023305
  14 H :    0.032970
  15 H :    0.029012
  16 S :    0.123757
  17 C :   -0.094358
  18 C :   -0.029860
  19 C :    0.003501
  20 C :   -0.157352
  21 H :    0.021524
  22 C :    0.074328
  23 H :    0.020611
  24 H :    0.023598
  25 C :   -0.129809
  26 H :    0.044861
  27 H :    0.025289
  28 C :   -0.053565
  29 H :    0.029724
  30 H :    0.030642
  31 H :    0.035192
  32 H :    0.030795
  33 H :    0.055513
Sum of atomic charges:   -0.0000000

LOEWDIN ATOMIC CHARGES
----------------------
   0 S :    0.389571
   1 C :   -0.163187
   2 C :   -0.057496
   3 C :   -0.058824
   4 C :   -0.197296
   5 H :    0.018756
   6 C :   -0.029728
   7 H :    0.031626
   8 H :    0.029255
   9 C :   -0.039504
  10 H :    0.022669
  11 H :    0.030498
  12 C :   -0.069613
  13 H :    0.016923
  14 H :    0.031599
  15 H :    0.025359
  16 S :    0.428545
  17 C :   -0.181776
  18 C :   -0.063202
  19 C :   -0.053512
  20 C :   -0.213748
  21 H :    0.030615
  22 C :   -0.035262
  23 H :    0.032756
  24 H :    0.034017
  25 C :   -0.047961
  26 H :    0.022773
  27 H :    0.023795
  28 C :   -0.069594
  29 H :    0.027575
  30 H :    0.027115
  31 H :    0.021834
  32 H :    0.010405
  33 H :    0.025017

  Mayer bond orders larger than 0.100000
B(  0-S ,  1-C ) :   1.1495 B(  0-S ,  4-C ) :   1.1391 B(  1-C ,  2-C ) :   1.5863
B(  1-C ,  4-C ) :   0.1038 B(  1-C , 32-H ) :   0.9761 B(  2-C ,  3-C ) :   1.2379
B(  2-C ,  6-C ) :   1.0312 B(  3-C ,  4-C ) :   1.5997 B(  3-C ,  5-H ) :   1.0050
B(  4-C , 20-C ) :   1.0027 B(  6-C ,  7-H ) :   0.9343 B(  6-C ,  8-H ) :   0.9204
B(  6-C ,  9-C ) :   1.0790 B(  9-C , 10-H ) :   0.9501 B(  9-C , 11-H ) :   0.9529
B(  9-C , 12-C ) :   1.0882 B( 12-C , 13-H ) :   0.9756 B( 12-C , 14-H ) :   0.9706
B( 12-C , 15-H ) :   0.9733 B( 16-S , 17-C ) :   1.1648 B( 16-S , 20-C ) :   1.1668
B( 17-C , 18-C ) :   1.5682 B( 17-C , 20-C ) :   0.1051 B( 17-C , 33-H ) :   0.9755
B( 18-C , 19-C ) :   1.2681 B( 18-C , 21-H ) :   0.9898 B( 19-C , 20-C ) :   1.5659
B( 19-C , 22-C ) :   1.0574 B( 22-C , 23-H ) :   0.9434 B( 22-C , 24-H ) :   0.9229
B( 22-C , 25-C ) :   1.0484 B( 25-C , 26-H ) :   0.9529 B( 25-C , 27-H ) :   0.9546
B( 25-C , 28-C ) :   1.0936 B( 28-C , 29-H ) :   0.9714 B( 28-C , 30-H ) :   0.9745
B( 28-C , 31-H ) :   0.9721

Dispersion correction           -0.015246067
FINAL SINGLE POINT ENERGY     -1339.873935362503

DIPOLE MOMENT
-------------
                                X             Y             Z
Electronic contribution:     -5.40556      28.91966       8.12693
Nuclear contribution   :      5.44524     -29.61903      -8.22622
                        -----------------------------------------
Total Dipole Moment    :      0.03968      -0.69937      -0.09930
                        -----------------------------------------
Magnitude (a.u.)       :      0.70749
Magnitude (Debye)      :      1.79830

Rotational constants in cm-1:     0.018206     0.009824     0.007384
Rotational constants in MHz :   545.812796   294.519568   221.378435

                             ****ORCA TERMINATED NORMALLY****
TOTAL RUN TIME: 0 days 0 hours 0 minutes 35 seconds 945 msec
