                         Program Version 4.2.1 -  RELEASE  -
|  1> ! wB97X-D3 SP def2-SVP
|  2> %pal
|  3> nprocs 16
|  4> end
|  5>
|  6> * xyz 0 1
|  7> S 	 -59.566 	 51.8216 	 135.64
|  8> C 	 -57.8458 	 51.7738 	 135.373
|  9> C 	 -57.1781 	 51.8882 	 136.6
| 10> C 	 -58.0721 	 52.0499 	 137.71
| 11> C 	 -59.4178 	 52.1644 	 137.291
| 12> H 	 -57.9788 	 52.0946 	 138.742
| 13> C 	 -55.6556 	 51.9472 	 136.712
| 14> H 	 -55.2358 	 50.9795 	 136.307
| 15> H 	 -55.5674 	 51.7827 	 137.789
| 16> C 	 -54.8764 	 53.1793 	 136.362
| 17> H 	 -55.1213 	 53.852 	 137.103
| 18> H 	 -53.8453 	 53.0075 	 136.533
| 19> C 	 -55.1 	 53.7345 	 134.925
| 20> H 	 -56.0913 	 54.1723 	 134.945
| 21> H 	 -54.4576 	 54.4538 	 134.501
| 22> H 	 -55.138 	 52.8686 	 134.221
| 23> S 	 -62.0844 	 51.3727 	 138.024
| 24> C 	 -62.8956 	 52.3117 	 139.233
| 25> C 	 -62.1319 	 53.3366 	 139.654
| 26> C 	 -60.8168 	 53.4637 	 139.005
| 27> C 	 -60.6188 	 52.4654 	 138.072
| 28> H 	 -62.5483 	 53.9443 	 140.383
| 29> C 	 -59.7872 	 54.4809 	 139.383
| 30> H 	 -60.341 	 55.4828 	 139.384
| 31> H 	 -59.01 	 54.5912 	 138.541
| 32> C 	 -59.1396 	 54.2016 	 140.679
| 33> H 	 -58.8052 	 53.2576 	 140.704
| 34> H 	 -59.9164 	 54.1248 	 141.501
| 35> C 	 -58.0789 	 55.1709 	 141.069
| 36> H 	 -58.3879 	 56.2071 	 141.087
| 37> H 	 -57.2916 	 55.2904 	 140.37
| 38> H 	 -57.7738 	 54.9222 	 142.046
| 39> H 	 -57.3491 	 51.5841 	 134.439
| 40> H 	 -63.8874 	 52.1984 	 139.486
| 41> *
| 42>
| 43>                          ****END OF INPUT****

CARTESIAN COORDINATES (ANGSTROEM)
---------------------------------
  S    -59.566000   51.821600  135.640000
  C    -57.845800   51.773800  135.373000
  C    -57.178100   51.888200  136.600000
  C    -58.072100   52.049900  137.710000
  C    -59.417800   52.164400  137.291000
  H    -57.978800   52.094600  138.742000
  C    -55.655600   51.947200  136.712000
  H    -55.235800   50.979500  136.307000
  H    -55.567400   51.782700  137.789000
  C    -54.876400   53.179300  136.362000
  H    -55.121300   53.852000  137.103000
  H    -53.845300   53.007500  136.533000
  C    -55.100000   53.734500  134.925000
  H    -56.091300   54.172300  134.945000
  H    -54.457600   54.453800  134.501000
  H    -55.138000   52.868600  134.221000
  S    -62.084400   51.372700  138.024000
  C    -62.895600   52.311700  139.233000
  C    -62.131900   53.336600  139.654000
  C    -60.816800   53.463700  139.005000
  C    -60.618800   52.465400  138.072000
  H    -62.548300   53.944300  140.383000
  C    -59.787200   54.480900  139.383000
  H    -60.341000   55.482800  139.384000
  H    -59.010000   54.591200  138.541000
  C    -59.139600   54.201600  140.679000
  H    -58.805200   53.257600  140.704000
  H    -59.916400   54.124800  141.501000
  C    -58.078900   55.170900  141.069000
  H    -58.387900   56.207100  141.087000
  H    -57.291600   55.290400  140.370000
  H    -57.773800   54.922200  142.046000
  H    -57.349100   51.584100  134.439000
  H    -63.887400   52.198400  139.486000

 Total Charge           Charge          ....    0
 Multiplicity           Mult            ....    1
 Number of Electrons    NEL             ....  134
 Basis Dimension        Dim             ....  322

ORBITAL ENERGIES
----------------

  NO   OCC          E(Eh)            E(eV)
   0   2.0000     -88.966391     -2420.8986
   1   2.0000     -88.960899     -2420.7491
   2   2.0000     -10.331615      -281.1375
   3   2.0000     -10.327890      -281.0362
   4   2.0000     -10.313588      -280.6470
   5   2.0000     -10.310311      -280.5578
   6   2.0000     -10.307116      -280.4709
   7   2.0000     -10.306764      -280.4613
   8   2.0000     -10.297014      -280.1960
   9   2.0000     -10.295747      -280.1615
  10   2.0000     -10.293235      -280.0932
  11   2.0000     -10.289547      -279.9928
  12   2.0000     -10.279490      -279.7191
  13   2.0000     -10.277877      -279.6753
  14   2.0000     -10.276525      -279.6385
  15   2.0000     -10.268940      -279.4321
  16   2.0000      -8.082148      -219.9264
  17   2.0000      -8.075196      -219.7373
  18   2.0000      -6.040445      -164.3689
  19   2.0000      -6.036280      -164.2555
  20   2.0000      -6.033899      -164.1907
  21   2.0000      -6.033295      -164.1743
  22   2.0000      -6.029815      -164.0796
  23   2.0000      -6.025724      -163.9683
  24   2.0000      -1.007065       -27.4036
  25   2.0000      -0.983409       -26.7599
  26   2.0000      -0.923164       -25.1206
  27   2.0000      -0.915252       -24.9053
  28   2.0000      -0.872327       -23.7372
  29   2.0000      -0.854512       -23.2525
  30   2.0000      -0.845380       -23.0040
  31   2.0000      -0.815934       -22.2027
  32   2.0000      -0.788726       -21.4623
  33   2.0000      -0.779465       -21.2103
  34   2.0000      -0.715733       -19.4761
  35   2.0000      -0.708144       -19.2696
  36   2.0000      -0.699645       -19.0383
  37   2.0000      -0.661744       -18.0070
  38   2.0000      -0.648580       -17.6488
  39   2.0000      -0.613343       -16.6899
  40   2.0000      -0.600328       -16.3358
  41   2.0000      -0.572127       -15.5684
  42   2.0000      -0.564837       -15.3700
  43   2.0000      -0.551264       -15.0006
  44   2.0000      -0.548920       -14.9369
  45   2.0000      -0.542849       -14.7717
  46   2.0000      -0.523330       -14.2405
  47   2.0000      -0.515275       -14.0213
  48   2.0000      -0.511204       -13.9106
  49   2.0000      -0.499573       -13.5941
  50   2.0000      -0.490083       -13.3358
  51   2.0000      -0.483680       -13.1616
  52   2.0000      -0.472814       -12.8659
  53   2.0000      -0.466551       -12.6955
  54   2.0000      -0.455397       -12.3920
  55   2.0000      -0.452932       -12.3249
  56   2.0000      -0.446873       -12.1600
  57   2.0000      -0.445843       -12.1320
  58   2.0000      -0.441368       -12.0102
  59   2.0000      -0.422334       -11.4923
  60   2.0000      -0.417894       -11.3715
  61   2.0000      -0.407584       -11.0909
  62   2.0000      -0.406694       -11.0667
  63   2.0000      -0.346123        -9.4185
  64   2.0000      -0.332229        -9.0404
  65   2.0000      -0.327333        -8.9072
  66   2.0000      -0.295969        -8.0537
  67   0.0000       0.029289         0.7970
  68   0.0000       0.071891         1.9562
  69   0.0000       0.115350         3.1388
  70   0.0000       0.120632         3.2826
  71   0.0000       0.125794         3.4230

MULLIKEN ATOMIC CHARGES
-----------------------
   0 S :    0.127325
   1 C :   -0.107370
   2 C :   -0.109376
   3 C :    0.069510
   4 C :   -0.194737
   5 H :   -0.024736
   6 C :    0.030248
   7 H :    0.038841
   8 H :    0.012308
   9 C :    0.022894
  10 H :    0.003973
  11 H :    0.019119
  12 C :   -0.058536
  13 H :    0.040450
  14 H :    0.031786
  15 H :    0.025275
  16 S :    0.082796
  17 C :   -0.051211
  18 C :   -0.008972
  19 C :   -0.024797
  20 C :   -0.137574
  21 H :   -0.009379
  22 C :    0.006647
  23 H :    0.035657
  24 H :    0.048456
  25 C :   -0.034461
  26 H :   -0.011289
  27 H :    0.020663
  28 C :    0.034184
  29 H :    0.009726
  30 H :    0.011523
  31 H :    0.023876
  32 H :    0.044987
  33 H :    0.032191
Sum of atomic charges:   -0.0000000

LOEWDIN ATOMIC CHARGES
----------------------
   0 S :    0.447363
   1 C :   -0.201741
   2 C :   -0.062753
   3 C :   -0.060609
   4 C :   -0.209585
   5 H :    0.019848
   6 C :   -0.038340
   7 H :    0.034734
   8 H :    0.032942
   9 C :   -0.031037
  10 H :    0.016202
  11 H :    0.023644
  12 C :   -0.064509
  13 H :    0.028381
  14 H :    0.019987
  15 H :    0.025992
  16 S :    0.363698
  17 C :   -0.166767
  18 C :   -0.064882
  19 C :   -0.046815
  20 C :   -0.180809
  21 H :    0.019501
  22 C :   -0.041923
  23 H :    0.037957
  24 H :    0.039381
  25 C :   -0.040086
  26 H :    0.006056
  27 H :    0.032761
  28 C :   -0.054594
  29 H :    0.025916
  30 H :    0.020835
  31 H :    0.024041
  32 H :    0.027070
  33 H :    0.018141

  Mayer bond orders larger than 0.100000
B(  0-S ,  1-C ) :   1.1589 B(  0-S ,  4-C ) :   1.1963 B(  1-C ,  2-C ) :   1.5682
B(  1-C ,  4-C ) :   0.1043 B(  1-C , 32-H ) :   0.9762 B(  2-C ,  3-C ) :   1.2508
B(  2-C ,  6-C ) :   1.0109 B(  3-C ,  4-C ) :   1.5214 B(  3-C ,  5-H ) :   1.0116
B(  4-C , 20-C ) :   1.0377 B(  6-C ,  7-H ) :   0.9375 B(  6-C ,  8-H ) :   0.9377
B(  6-C ,  9-C ) :   1.0808 B(  9-C , 10-H ) :   0.9518 B(  9-C , 11-H ) :   0.9469
B(  9-C , 12-C ) :   1.0692 B( 12-C , 13-H ) :   0.9729 B( 12-C , 14-H ) :   0.9770
B( 12-C , 15-H ) :   0.9766 B( 16-S , 17-C ) :   1.1360 B( 16-S , 20-C ) :   1.1028
B( 17-C , 18-C ) :   1.6602 B( 17-C , 33-H ) :   0.9723 B( 18-C , 19-C ) :   1.1785
B( 18-C , 21-H ) :   1.0015 B( 19-C , 20-C ) :   1.6386 B( 19-C , 22-C ) :   1.0580
B( 22-C , 23-H ) :   0.9248 B( 22-C , 24-H ) :   0.9297 B( 22-C , 25-C ) :   1.0716
B( 25-C , 26-H ) :   0.9420 B( 25-C , 27-H ) :   0.9416 B( 25-C , 28-C ) :   1.0930
B( 28-C , 29-H ) :   0.9664 B( 28-C , 30-H ) :   0.9677 B( 28-C , 31-H ) :   0.9695

Dispersion correction           -0.014790218
FINAL SINGLE POINT ENERGY     -1339.856967254743

DIPOLE MOMENT
-------------
                                X             Y             Z
Electronic contribution:    -24.23863     -14.99098      -8.17496
Nuclear contribution   :     24.67179      15.40344       8.59896
                        -----------------------------------------
Total Dipole Moment    :      0.43316       0.41246       0.42399
                        -----------------------------------------
Magnitude (a.u.)       :      0.73316
Magnitude (Debye)      :      1.86354

Rotational constants in cm-1:     0.019104     0.009201     0.006655
Rotational constants in MHz :   572.716475   275.833580   199.507936

                             ****ORCA TERMINATED NORMALLY****
TOTAL RUN TIME: 0 days 0 hours 0 minutes 35 seconds 607 msec
