                         Program Version 4.2.1 -  RELEASE  -
|  1> ! wB97X-D3 SP def2-SVP
|  2> %pal
|  3> nprocs 16
|  4> end
|  5>
|  6> * xyz 0 1
|  7> S 	 -94.01 	 54.096 	 122.478
|  8> C 	 -94.2654 	 53.1223 	 121.005
|  9> C 	 -95.2448 	 52.1282 	 121.248
| 10> C 	 -95.6052 	 52.062 	 122.61
| 11> C 	 -95.0211 	 52.9833 	 123.523
| 12> H 	 -96.2336 	 51.2862 	 123.02
| 13> C 	 -95.7709 	 51.0748 	 120.215
| 14> H 	 -95.0057 	 51.0815 	 119.345
| 15> H 	 -96.765 	 51.3773 	 119.851
| 16> C 	 -95.8175 	 49.6394 	 120.791
| 17> H 	 -94.9994 	 49.4743 	 121.5
| 18> H 	 -96.6921 	 49.4244 	 121.386
| 19> C 	 -95.8737 	 48.6327 	 119.634
| 20> H 	 -96.5466 	 48.9812 	 118.92
| 21> H 	 -94.8818 	 48.5274 	 119.193
| 22> H 	 -96.3017 	 47.6277 	 119.904
| 23> S 	 -95.3336 	 54.687 	 125.576
| 24> C 	 -96.0515 	 54.124 	 127.056
| 25> C 	 -96.0389 	 52.8067 	 127.172
| 26> C 	 -95.6051 	 52.1429 	 125.953
| 27> C 	 -95.255 	 53.0523 	 124.961
| 28> H 	 -96.3457 	 52.412 	 128.111
| 29> C 	 -95.5087 	 50.6183 	 125.94
| 30> H 	 -95.1259 	 50.3002 	 126.835
| 31> H 	 -94.7343 	 50.4096 	 125.2
| 32> C 	 -96.7858 	 49.8611 	 125.847
| 33> H 	 -97.1623 	 50.1019 	 124.882
| 34> H 	 -97.4978 	 50.2178 	 126.612
| 35> C 	 -96.5851 	 48.3555 	 125.96
| 36> H 	 -97.5995 	 47.9532 	 126.04
| 37> H 	 -96.0332 	 48.1814 	 126.885
| 38> H 	 -95.9902 	 47.8767 	 125.107
| 39> H 	 -93.8904 	 53.4122 	 120.049
| 40> H 	 -96.3818 	 54.7798 	 127.826
| 41> *
| 42>
| 43>                          ****END OF INPUT****

CARTESIAN COORDINATES (ANGSTROEM)
---------------------------------
  S    -94.010000   54.096000  122.478000
  C    -94.265400   53.122300  121.005000
  C    -95.244800   52.128200  121.248000
  C    -95.605200   52.062000  122.610000
  C    -95.021100   52.983300  123.523000
  H    -96.233600   51.286200  123.020000
  C    -95.770900   51.074800  120.215000
  H    -95.005700   51.081500  119.345000
  H    -96.765000   51.377300  119.851000
  C    -95.817500   49.639400  120.791000
  H    -94.999400   49.474300  121.500000
  H    -96.692100   49.424400  121.386000
  C    -95.873700   48.632700  119.634000
  H    -96.546600   48.981200  118.920000
  H    -94.881800   48.527400  119.193000
  H    -96.301700   47.627700  119.904000
  S    -95.333600   54.687000  125.576000
  C    -96.051500   54.124000  127.056000
  C    -96.038900   52.806700  127.172000
  C    -95.605100   52.142900  125.953000
  C    -95.255000   53.052300  124.961000
  H    -96.345700   52.412000  128.111000
  C    -95.508700   50.618300  125.940000
  H    -95.125900   50.300200  126.835000
  H    -94.734300   50.409600  125.200000
  C    -96.785800   49.861100  125.847000
  H    -97.162300   50.101900  124.882000
  H    -97.497800   50.217800  126.612000
  C    -96.585100   48.355500  125.960000
  H    -97.599500   47.953200  126.040000
  H    -96.033200   48.181400  126.885000
  H    -95.990200   47.876700  125.107000
  H    -93.890400   53.412200  120.049000
  H    -96.381800   54.779800  127.826000

 Total Charge           Charge          ....    0
 Multiplicity           Mult            ....    1
 Number of Electrons    NEL             ....  134
 Basis Dimension        Dim             ....  322

ORBITAL ENERGIES
----------------

  NO   OCC          E(Eh)            E(eV)
   0   2.0000     -88.968611     -2420.9590
   1   2.0000     -88.960487     -2420.7379
   2   2.0000     -10.342091      -281.4226
   3   2.0000     -10.332369      -281.1581
   4   2.0000     -10.321728      -280.8685
   5   2.0000     -10.309905      -280.5468
   6   2.0000     -10.309508      -280.5360
   7   2.0000     -10.308214      -280.5008
   8   2.0000     -10.307476      -280.4807
   9   2.0000     -10.295206      -280.1468
  10   2.0000     -10.288883      -279.9747
  11   2.0000     -10.288211      -279.9565
  12   2.0000     -10.286098      -279.8989
  13   2.0000     -10.282896      -279.8118
  14   2.0000     -10.281411      -279.7714
  15   2.0000     -10.278095      -279.6812
  16   2.0000      -8.081146      -219.8992
  17   2.0000      -8.076362      -219.7690
  18   2.0000      -6.039950      -164.3554
  19   2.0000      -6.035889      -164.2449
  20   2.0000      -6.034930      -164.2188
  21   2.0000      -6.031782      -164.1331
  22   2.0000      -6.030866      -164.1082
  23   2.0000      -6.026824      -163.9982
  24   2.0000      -1.005799       -27.3692
  25   2.0000      -0.975330       -26.5401
  26   2.0000      -0.921218       -25.0676
  27   2.0000      -0.907611       -24.6974
  28   2.0000      -0.874497       -23.7963
  29   2.0000      -0.851685       -23.1755
  30   2.0000      -0.841455       -22.8972
  31   2.0000      -0.816032       -22.2054
  32   2.0000      -0.780882       -21.2489
  33   2.0000      -0.769752       -20.9460
  34   2.0000      -0.713477       -19.4147
  35   2.0000      -0.699846       -19.0438
  36   2.0000      -0.694631       -18.9019
  37   2.0000      -0.665288       -18.1034
  38   2.0000      -0.637811       -17.3557
  39   2.0000      -0.618798       -16.8384
  40   2.0000      -0.600533       -16.3413
  41   2.0000      -0.577868       -15.7246
  42   2.0000      -0.572830       -15.5875
  43   2.0000      -0.561796       -15.2872
  44   2.0000      -0.533894       -14.5280
  45   2.0000      -0.525520       -14.3001
  46   2.0000      -0.514611       -14.0033
  47   2.0000      -0.511563       -13.9203
  48   2.0000      -0.502479       -13.6731
  49   2.0000      -0.500890       -13.6299
  50   2.0000      -0.490882       -13.3576
  51   2.0000      -0.485265       -13.2047
  52   2.0000      -0.469966       -12.7884
  53   2.0000      -0.468574       -12.7506
  54   2.0000      -0.459264       -12.4972
  55   2.0000      -0.447590       -12.1795
  56   2.0000      -0.444233       -12.0882
  57   2.0000      -0.438605       -11.9351
  58   2.0000      -0.432439       -11.7673
  59   2.0000      -0.423510       -11.5243
  60   2.0000      -0.420901       -11.4533
  61   2.0000      -0.417517       -11.3612
  62   2.0000      -0.412502       -11.2247
  63   2.0000      -0.360736        -9.8161
  64   2.0000      -0.333426        -9.0730
  65   2.0000      -0.326305        -8.8792
  66   2.0000      -0.283728        -7.7206
  67   0.0000       0.018818         0.5121
  68   0.0000       0.073786         2.0078
  69   0.0000       0.104059         2.8316
  70   0.0000       0.118569         3.2264
  71   0.0000       0.127646         3.4734

MULLIKEN ATOMIC CHARGES
-----------------------
   0 S :    0.091364
   1 C :   -0.116674
   2 C :   -0.077908
   3 C :    0.014253
   4 C :   -0.110471
   5 H :   -0.006295
   6 C :    0.034572
   7 H :    0.041420
   8 H :    0.051936
   9 C :   -0.098636
  10 H :    0.039166
  11 H :    0.028191
  12 C :   -0.038802
  13 H :    0.017024
  14 H :    0.040474
  15 H :    0.034595
  16 S :    0.086076
  17 C :   -0.070456
  18 C :   -0.017296
  19 C :   -0.061423
  20 C :   -0.138056
  21 H :    0.006763
  22 C :    0.103952
  23 H :   -0.018161
  24 H :    0.026798
  25 C :   -0.066065
  26 H :    0.011888
  27 H :    0.031856
  28 C :   -0.049822
  29 H :    0.042456
  30 H :    0.026710
  31 H :    0.049198
  32 H :    0.047509
  33 H :    0.043862
Sum of atomic charges:   -0.0000000

LOEWDIN ATOMIC CHARGES
----------------------
   0 S :    0.362229
   1 C :   -0.182818
   2 C :   -0.065899
   3 C :   -0.067074
   4 C :   -0.172312
   5 H :    0.024841
   6 C :   -0.028779
   7 H :    0.039025
   8 H :    0.035164
   9 C :   -0.047570
  10 H :    0.025508
  11 H :    0.021297
  12 C :   -0.061528
  13 H :    0.016280
  14 H :    0.026512
  15 H :    0.030965
  16 S :    0.398693
  17 C :   -0.170103
  18 C :   -0.070728
  19 C :   -0.046504
  20 C :   -0.191508
  21 H :    0.030374
  22 C :   -0.030506
  23 H :    0.016298
  24 H :    0.033045
  25 C :   -0.039412
  26 H :    0.014048
  27 H :    0.029292
  28 C :   -0.065513
  29 H :    0.030007
  30 H :    0.022412
  31 H :    0.035416
  32 H :    0.023935
  33 H :    0.024915

  Mayer bond orders larger than 0.100000
B(  0-S ,  1-C ) :   1.1392 B(  0-S ,  4-C ) :   1.1270 B(  1-C ,  2-C ) :   1.5829
B(  1-C ,  4-C ) :   0.1139 B(  1-C , 32-H ) :   0.9704 B(  2-C ,  3-C ) :   1.2804
B(  2-C ,  6-C ) :   1.0064 B(  3-C ,  4-C ) :   1.5446 B(  3-C ,  5-H ) :   0.9880
B(  4-C , 20-C ) :   1.0771 B(  6-C ,  7-H ) :   0.9571 B(  6-C ,  8-H ) :   0.9319
B(  6-C ,  9-C ) :   1.0586 B(  9-C , 10-H ) :   0.9650 B(  9-C , 11-H ) :   0.9470
B(  9-C , 12-C ) :   1.0807 B( 12-C , 13-H ) :   0.9711 B( 12-C , 14-H ) :   0.9771
B( 12-C , 15-H ) :   0.9750 B( 16-S , 17-C ) :   1.1422 B( 16-S , 20-C ) :   1.1196
B( 17-C , 18-C ) :   1.6651 B( 17-C , 33-H ) :   0.9663 B( 18-C , 19-C ) :   1.1857
B( 18-C , 21-H ) :   0.9975 B( 19-C , 20-C ) :   1.6199 B( 19-C , 22-C ) :   1.0414
B( 22-C , 23-H ) :   0.9214 B( 22-C , 24-H ) :   0.9365 B( 22-C , 25-C ) :   1.0657
B( 25-C , 26-H ) :   0.9479 B( 25-C , 27-H ) :   0.9492 B( 25-C , 28-C ) :   1.0872
B( 28-C , 29-H ) :   0.9737 B( 28-C , 30-H ) :   0.9721 B( 28-C , 31-H ) :   0.9732

Dispersion correction           -0.013877282
FINAL SINGLE POINT ENERGY     -1339.863001408653

DIPOLE MOMENT
-------------
                                X             Y             Z
Electronic contribution:      9.23755      32.11321       6.78732
Nuclear contribution   :     -9.65304     -32.82798      -6.68601
                        -----------------------------------------
Total Dipole Moment    :     -0.41549      -0.71476       0.10131
                        -----------------------------------------
Magnitude (a.u.)       :      0.83294
Magnitude (Debye)      :      2.11716

Rotational constants in cm-1:     0.015886     0.009859     0.006319
Rotational constants in MHz :   476.260416   295.572714   189.435857

                             ****ORCA TERMINATED NORMALLY****
TOTAL RUN TIME: 0 days 0 hours 0 minutes 34 seconds 313 msec
