                         Program Version 4.2.1 -  RELEASE  -
|  1> ! wB97X-D3 SP def2-SVP
|  2> %pal
|  3> nprocs 16
|  4> end
|  5>
|  6> * xyz 0 1
|  7> S 	 -11.9855 	 -7.85132 	 80.5702
|  8> C 	 -12.7737 	 -9.32883 	 81.0575
|  9> C 	 -13.2444 	 -9.27242 	 82.3576
| 10> C 	 -12.9593 	 -7.99075 	 82.9679
| 11> C 	 -12.1386 	 -7.19721 	 82.2186
| 12> H 	 -13.0627 	 -7.73239 	 84.0663
| 13> C 	 -14.1605 	 -10.3675 	 83.0088
| 14> H 	 -13.8148 	 -11.3284 	 82.5286
| 15> H 	 -15.2004 	 -10.2882 	 82.6612
| 16> C 	 -14.0415 	 -10.5167 	 84.5024
| 17> H 	 -13.0001 	 -10.7119 	 84.5901
| 18> H 	 -14.3156 	 -9.683 	 85.1422
| 19> C 	 -14.862 	 -11.744 	 85.0832
| 20> H 	 -15.1453 	 -11.5191 	 86.0796
| 21> H 	 -15.7935 	 -11.9542 	 84.5624
| 22> H 	 -14.2271 	 -12.6434 	 85.0476
| 23> S 	 -12.3773 	 -4.38435 	 82.1928
| 24> C 	 -11.4529 	 -3.46553 	 83.2149
| 25> C 	 -10.5192 	 -4.2088 	 83.898
| 26> C 	 -10.6235 	 -5.62325 	 83.6256
| 27> C 	 -11.5059 	 -5.87911 	 82.5931
| 28> H 	 -9.86584 	 -3.67218 	 84.4831
| 29> C 	 -9.84449 	 -6.64912 	 84.4046
| 30> H 	 -10.6741 	 -7.15217 	 84.9581
| 31> H 	 -9.35778 	 -6.09333 	 85.1978
| 32> C 	 -8.85992 	 -7.49993 	 83.6218
| 33> H 	 -9.38537 	 -8.21081 	 83.0095
| 34> H 	 -8.48551 	 -8.31992 	 84.302
| 35> C 	 -7.76906 	 -6.6312 	 82.9592
| 36> H 	 -7.09868 	 -6.18165 	 83.7166
| 37> H 	 -8.26868 	 -5.7884 	 82.3955
| 38> H 	 -7.0872 	 -7.19769 	 82.2126
| 39> H 	 -13.0104 	 -10.2138 	 80.4291
| 40> H 	 -11.5354 	 -2.38824 	 83.2833
| 41> *
| 42>
| 43>                          ****END OF INPUT****

CARTESIAN COORDINATES (ANGSTROEM)
---------------------------------
  S    -11.985500   -7.851320   80.570200
  C    -12.773700   -9.328830   81.057500
  C    -13.244400   -9.272420   82.357600
  C    -12.959300   -7.990750   82.967900
  C    -12.138600   -7.197210   82.218600
  H    -13.062700   -7.732390   84.066300
  C    -14.160500  -10.367500   83.008800
  H    -13.814800  -11.328400   82.528600
  H    -15.200400  -10.288200   82.661200
  C    -14.041500  -10.516700   84.502400
  H    -13.000100  -10.711900   84.590100
  H    -14.315600   -9.683000   85.142200
  C    -14.862000  -11.744000   85.083200
  H    -15.145300  -11.519100   86.079600
  H    -15.793500  -11.954200   84.562400
  H    -14.227100  -12.643400   85.047600
  S    -12.377300   -4.384350   82.192800
  C    -11.452900   -3.465530   83.214900
  C    -10.519200   -4.208800   83.898000
  C    -10.623500   -5.623250   83.625600
  C    -11.505900   -5.879110   82.593100
  H     -9.865840   -3.672180   84.483100
  C     -9.844490   -6.649120   84.404600
  H    -10.674100   -7.152170   84.958100
  H     -9.357780   -6.093330   85.197800
  C     -8.859920   -7.499930   83.621800
  H     -9.385370   -8.210810   83.009500
  H     -8.485510   -8.319920   84.302000
  C     -7.769060   -6.631200   82.959200
  H     -7.098680   -6.181650   83.716600
  H     -8.268680   -5.788400   82.395500
  H     -7.087200   -7.197690   82.212600
  H    -13.010400  -10.213800   80.429100
  H    -11.535400   -2.388240   83.283300

 Total Charge           Charge          ....    0
 Multiplicity           Mult            ....    1
 Number of Electrons    NEL             ....  134
 Basis Dimension        Dim             ....  322

ORBITAL ENERGIES
----------------

  NO   OCC          E(Eh)            E(eV)
   0   2.0000     -88.965052     -2420.8621
   1   2.0000     -88.961261     -2420.7590
   2   2.0000     -10.332140      -281.1518
   3   2.0000     -10.324510      -280.9442
   4   2.0000     -10.316172      -280.7173
   5   2.0000     -10.311381      -280.5869
   6   2.0000     -10.304986      -280.4129
   7   2.0000     -10.304585      -280.4020
   8   2.0000     -10.300026      -280.2780
   9   2.0000     -10.298900      -280.2473
  10   2.0000     -10.291493      -280.0457
  11   2.0000     -10.288848      -279.9738
  12   2.0000     -10.287602      -279.9399
  13   2.0000     -10.285912      -279.8939
  14   2.0000     -10.285376      -279.8793
  15   2.0000     -10.279507      -279.7196
  16   2.0000      -8.079338      -219.8500
  17   2.0000      -8.077759      -219.8070
  18   2.0000      -6.037892      -164.2994
  19   2.0000      -6.036048      -164.2492
  20   2.0000      -6.033935      -164.1917
  21   2.0000      -6.031863      -164.1353
  22   2.0000      -6.030051      -164.0860
  23   2.0000      -6.028789      -164.0517
  24   2.0000      -1.006916       -27.3996
  25   2.0000      -0.985409       -26.8143
  26   2.0000      -0.911970       -24.8160
  27   2.0000      -0.906848       -24.6766
  28   2.0000      -0.864380       -23.5210
  29   2.0000      -0.846195       -23.0261
  30   2.0000      -0.840941       -22.8832
  31   2.0000      -0.813614       -22.1396
  32   2.0000      -0.781710       -21.2714
  33   2.0000      -0.771960       -21.0061
  34   2.0000      -0.712640       -19.3919
  35   2.0000      -0.699985       -19.0476
  36   2.0000      -0.681996       -18.5581
  37   2.0000      -0.660436       -17.9714
  38   2.0000      -0.637266       -17.3409
  39   2.0000      -0.613460       -16.6931
  40   2.0000      -0.587369       -15.9831
  41   2.0000      -0.572759       -15.5856
  42   2.0000      -0.567416       -15.4402
  43   2.0000      -0.556029       -15.1303
  44   2.0000      -0.538841       -14.6626
  45   2.0000      -0.520184       -14.1549
  46   2.0000      -0.510998       -13.9050
  47   2.0000      -0.501317       -13.6415
  48   2.0000      -0.498390       -13.5619
  49   2.0000      -0.496434       -13.5087
  50   2.0000      -0.485504       -13.2112
  51   2.0000      -0.476474       -12.9655
  52   2.0000      -0.472281       -12.8514
  53   2.0000      -0.467200       -12.7132
  54   2.0000      -0.461321       -12.5532
  55   2.0000      -0.445997       -12.1362
  56   2.0000      -0.440015       -11.9734
  57   2.0000      -0.437167       -11.8959
  58   2.0000      -0.431382       -11.7385
  59   2.0000      -0.427729       -11.6391
  60   2.0000      -0.424351       -11.5472
  61   2.0000      -0.411796       -11.2055
  62   2.0000      -0.402122       -10.9423
  63   2.0000      -0.337633        -9.1875
  64   2.0000      -0.328259        -8.9324
  65   2.0000      -0.326166        -8.8754
  66   2.0000      -0.307090        -8.3564
  67   0.0000       0.043975         1.1966
  68   0.0000       0.058439         1.5902
  69   0.0000       0.117296         3.1918
  70   0.0000       0.123626         3.3640
  71   0.0000       0.127819         3.4781

MULLIKEN ATOMIC CHARGES
-----------------------
   0 S :    0.108761
   1 C :   -0.118658
   2 C :   -0.116148
   3 C :    0.037002
   4 C :   -0.197301
   5 H :    0.043638
   6 C :    0.050135
   7 H :    0.023579
   8 H :    0.045491
   9 C :   -0.099344
  10 H :    0.028702
  11 H :    0.040726
  12 C :   -0.037059
  13 H :    0.022999
  14 H :    0.029525
  15 H :    0.038381
  16 S :    0.117235
  17 C :   -0.088552
  18 C :   -0.011251
  19 C :   -0.092239
  20 C :   -0.135044
  21 H :   -0.017706
  22 C :    0.092825
  23 H :    0.034516
  24 H :    0.005483
  25 C :   -0.027263
  26 H :    0.025128
  27 H :    0.021982
  28 C :   -0.089755
  29 H :    0.036870
  30 H :    0.060199
  31 H :    0.052334
  32 H :    0.056576
  33 H :    0.058232
Sum of atomic charges:   -0.0000000

LOEWDIN ATOMIC CHARGES
----------------------
   0 S :    0.393607
   1 C :   -0.204434
   2 C :   -0.070462
   3 C :   -0.070639
   4 C :   -0.185160
   5 H :    0.042667
   6 C :   -0.033264
   7 H :    0.034815
   8 H :    0.029404
   9 C :   -0.044464
  10 H :    0.024561
  11 H :    0.022819
  12 C :   -0.059583
  13 H :    0.020638
  14 H :    0.024214
  15 H :    0.028528
  16 S :    0.437456
  17 C :   -0.201788
  18 C :   -0.077595
  19 C :   -0.045651
  20 C :   -0.213352
  21 H :    0.016288
  22 C :   -0.035222
  23 H :    0.041188
  24 H :    0.026567
  25 C :   -0.050501
  26 H :    0.024898
  27 H :    0.031649
  28 C :   -0.075024
  29 H :    0.026666
  30 H :    0.035831
  31 H :    0.036853
  32 H :    0.037225
  33 H :    0.031268

  Mayer bond orders larger than 0.100000
B(  0-S ,  1-C ) :   1.1370 B(  0-S ,  4-C ) :   1.1374 B(  1-C ,  2-C ) :   1.6492
B(  1-C , 32-H ) :   0.9605 B(  2-C ,  3-C ) :   1.2190 B(  2-C ,  6-C ) :   1.0036
B(  3-C ,  4-C ) :   1.6334 B(  3-C ,  5-H ) :   0.9718 B(  4-C , 20-C ) :   0.9810
B(  6-C ,  7-H ) :   0.9464 B(  6-C ,  8-H ) :   0.9422 B(  6-C ,  9-C ) :   1.0588
B(  9-C , 10-H ) :   0.9643 B(  9-C , 11-H ) :   0.9596 B(  9-C , 12-C ) :   1.0721
B( 12-C , 13-H ) :   0.9791 B( 12-C , 14-H ) :   0.9781 B( 12-C , 15-H ) :   0.9788
B( 16-S , 17-C ) :   1.2054 B( 16-S , 20-C ) :   1.1451 B( 17-C , 18-C ) :   1.5851
B( 17-C , 33-H ) :   0.9628 B( 18-C , 19-C ) :   1.2314 B( 18-C , 21-H ) :   1.0099
B( 19-C , 20-C ) :   1.5957 B( 19-C , 22-C ) :   1.0272 B( 22-C , 23-H ) :   0.9197
B( 22-C , 24-H ) :   0.9343 B( 22-C , 25-C ) :   1.0741 B( 25-C , 26-H ) :   0.9527
B( 25-C , 27-H ) :   0.9482 B( 25-C , 28-C ) :   1.0479 B( 28-C , 29-H ) :   0.9749
B( 28-C , 30-H ) :   0.9743 B( 28-C , 31-H ) :   0.9751

Dispersion correction           -0.014906268
FINAL SINGLE POINT ENERGY     -1339.868827641443

DIPOLE MOMENT
-------------
                                X             Y             Z
Electronic contribution:     -3.99079      18.65676     -16.36853
Nuclear contribution   :      3.97995     -18.92215      16.99769
                        -----------------------------------------
Total Dipole Moment    :     -0.01085      -0.26540       0.62916
                        -----------------------------------------
Magnitude (a.u.)       :      0.68293
Magnitude (Debye)      :      1.73588

Rotational constants in cm-1:     0.018971     0.007893     0.007429
Rotational constants in MHz :   568.750337   236.638265   222.720243

                             ****ORCA TERMINATED NORMALLY****
TOTAL RUN TIME: 0 days 0 hours 0 minutes 33 seconds 245 msec
