                         Program Version 4.2.1 -  RELEASE  -
|  1> ! wB97X-D3 SP def2-SVP
|  2> %pal
|  3> nprocs 16
|  4> end
|  5>
|  6> * xyz 0 1
|  7> S 	 -42.4014 	 25.2928 	 78.9873
|  8> C 	 -42.0021 	 26.1685 	 80.4381
|  9> C 	 -40.8371 	 25.744 	 81.0243
| 10> C 	 -40.2589 	 24.6422 	 80.2716
| 11> C 	 -40.9899 	 24.2945 	 79.1394
| 12> H 	 -39.3184 	 24.0793 	 80.3737
| 13> C 	 -40.2355 	 26.3665 	 82.2211
| 14> H 	 -41.0158 	 26.1708 	 82.9489
| 15> H 	 -40.3052 	 27.4552 	 82.0395
| 16> C 	 -38.9219 	 25.8915 	 82.7753
| 17> H 	 -38.9133 	 26.52 	 83.6494
| 18> H 	 -39.0829 	 24.8359 	 82.9373
| 19> C 	 -37.6165 	 26.2241 	 82.0194
| 20> H 	 -36.6593 	 25.8581 	 82.5049
| 21> H 	 -37.637 	 25.7737 	 81.0899
| 22> H 	 -37.6443 	 27.2925 	 82.1006
| 23> S 	 -41.9619 	 22.1543 	 77.9014
| 24> C 	 -40.9761 	 21.1898 	 76.8835
| 25> C 	 -39.7717 	 21.7594 	 76.6548
| 26> C 	 -39.54 	 22.8559 	 77.5424
| 27> C 	 -40.7338 	 23.3075 	 78.0848
| 28> H 	 -39.1709 	 21.284 	 75.8844
| 29> C 	 -38.2283 	 23.6324 	 77.5638
| 30> H 	 -37.4332 	 22.941 	 77.6021
| 31> H 	 -38.268 	 24.2343 	 78.4598
| 32> C 	 -37.9829 	 24.6551 	 76.4233
| 33> H 	 -38.1215 	 24.264 	 75.3721
| 34> H 	 -36.9272 	 24.9698 	 76.463
| 35> C 	 -38.9199 	 25.8432 	 76.5312
| 36> H 	 -38.6224 	 26.4198 	 77.4265
| 37> H 	 -40.0432 	 25.7367 	 76.5123
| 38> H 	 -38.8305 	 26.441 	 75.6601
| 39> H 	 -42.5171 	 27.0427 	 80.7537
| 40> H 	 -41.3299 	 20.2881 	 76.5035
| 41> *
| 42>
| 43>                          ****END OF INPUT****

CARTESIAN COORDINATES (ANGSTROEM)
---------------------------------
  S    -42.401400   25.292800   78.987300
  C    -42.002100   26.168500   80.438100
  C    -40.837100   25.744000   81.024300
  C    -40.258900   24.642200   80.271600
  C    -40.989900   24.294500   79.139400
  H    -39.318400   24.079300   80.373700
  C    -40.235500   26.366500   82.221100
  H    -41.015800   26.170800   82.948900
  H    -40.305200   27.455200   82.039500
  C    -38.921900   25.891500   82.775300
  H    -38.913300   26.520000   83.649400
  H    -39.082900   24.835900   82.937300
  C    -37.616500   26.224100   82.019400
  H    -36.659300   25.858100   82.504900
  H    -37.637000   25.773700   81.089900
  H    -37.644300   27.292500   82.100600
  S    -41.961900   22.154300   77.901400
  C    -40.976100   21.189800   76.883500
  C    -39.771700   21.759400   76.654800
  C    -39.540000   22.855900   77.542400
  C    -40.733800   23.307500   78.084800
  H    -39.170900   21.284000   75.884400
  C    -38.228300   23.632400   77.563800
  H    -37.433200   22.941000   77.602100
  H    -38.268000   24.234300   78.459800
  C    -37.982900   24.655100   76.423300
  H    -38.121500   24.264000   75.372100
  H    -36.927200   24.969800   76.463000
  C    -38.919900   25.843200   76.531200
  H    -38.622400   26.419800   77.426500
  H    -40.043200   25.736700   76.512300
  H    -38.830500   26.441000   75.660100
  H    -42.517100   27.042700   80.753700
  H    -41.329900   20.288100   76.503500

 Total Charge           Charge          ....    0
 Multiplicity           Mult            ....    1
 Number of Electrons    NEL             ....  134
 Basis Dimension        Dim             ....  322

ORBITAL ENERGIES
----------------

  NO   OCC          E(Eh)            E(eV)
   0   2.0000     -88.962924     -2420.8042
   1   2.0000     -88.959958     -2420.7235
   2   2.0000     -10.326801      -281.0065
   3   2.0000     -10.320262      -280.8286
   4   2.0000     -10.305640      -280.4307
   5   2.0000     -10.303868      -280.3825
   6   2.0000     -10.302862      -280.3551
   7   2.0000     -10.299852      -280.2732
   8   2.0000     -10.295641      -280.1586
   9   2.0000     -10.291005      -280.0325
  10   2.0000     -10.290287      -280.0130
  11   2.0000     -10.289053      -279.9794
  12   2.0000     -10.286532      -279.9108
  13   2.0000     -10.284976      -279.8684
  14   2.0000     -10.278328      -279.6875
  15   2.0000     -10.269844      -279.4567
  16   2.0000      -8.077970      -219.8127
  17   2.0000      -8.076956      -219.7851
  18   2.0000      -6.036379      -164.2582
  19   2.0000      -6.035223      -164.2268
  20   2.0000      -6.032404      -164.1500
  21   2.0000      -6.031073      -164.1138
  22   2.0000      -6.028869      -164.0539
  23   2.0000      -6.027897      -164.0274
  24   2.0000      -1.016149       -27.6508
  25   2.0000      -0.988615       -26.9016
  26   2.0000      -0.921916       -25.0866
  27   2.0000      -0.907659       -24.6987
  28   2.0000      -0.875158       -23.8143
  29   2.0000      -0.848921       -23.1003
  30   2.0000      -0.845308       -23.0020
  31   2.0000      -0.819356       -22.2958
  32   2.0000      -0.788633       -21.4598
  33   2.0000      -0.776103       -21.1188
  34   2.0000      -0.712043       -19.3757
  35   2.0000      -0.694498       -18.8982
  36   2.0000      -0.689669       -18.7669
  37   2.0000      -0.659154       -17.9365
  38   2.0000      -0.640143       -17.4192
  39   2.0000      -0.622824       -16.9479
  40   2.0000      -0.598753       -16.2929
  41   2.0000      -0.579276       -15.7629
  42   2.0000      -0.559677       -15.2296
  43   2.0000      -0.553908       -15.0726
  44   2.0000      -0.540999       -14.7213
  45   2.0000      -0.536346       -14.5947
  46   2.0000      -0.519297       -14.1308
  47   2.0000      -0.511178       -13.9099
  48   2.0000      -0.505550       -13.7567
  49   2.0000      -0.497182       -13.5290
  50   2.0000      -0.494062       -13.4441
  51   2.0000      -0.488026       -13.2799
  52   2.0000      -0.469668       -12.7803
  53   2.0000      -0.463537       -12.6135
  54   2.0000      -0.457044       -12.4368
  55   2.0000      -0.449936       -12.2434
  56   2.0000      -0.442418       -12.0388
  57   2.0000      -0.438788       -11.9400
  58   2.0000      -0.428454       -11.6588
  59   2.0000      -0.426334       -11.6011
  60   2.0000      -0.422296       -11.4913
  61   2.0000      -0.408571       -11.1178
  62   2.0000      -0.406573       -11.0634
  63   2.0000      -0.349867        -9.5204
  64   2.0000      -0.327067        -8.8999
  65   2.0000      -0.326014        -8.8713
  66   2.0000      -0.289437        -7.8760
  67   0.0000       0.037225         1.0130
  68   0.0000       0.073013         1.9868
  69   0.0000       0.110960         3.0194
  70   0.0000       0.123620         3.3639
  71   0.0000       0.132552         3.6069

MULLIKEN ATOMIC CHARGES
-----------------------
   0 S :    0.108054
   1 C :   -0.118927
   2 C :   -0.082117
   3 C :    0.012371
   4 C :   -0.175805
   5 H :    0.023327
   6 C :    0.023952
   7 H :    0.041937
   8 H :    0.029037
   9 C :   -0.048040
  10 H :    0.026462
  11 H :    0.031736
  12 C :   -0.020162
  13 H :    0.043545
  14 H :    0.019813
  15 H :    0.028949
  16 S :    0.108928
  17 C :   -0.074669
  18 C :   -0.019926
  19 C :   -0.085139
  20 C :   -0.109366
  21 H :    0.023136
  22 C :    0.119578
  23 H :    0.012704
  24 H :   -0.003359
  25 C :   -0.072780
  26 H :    0.029110
  27 H :    0.034509
  28 C :   -0.068599
  29 H :    0.035761
  30 H :    0.048467
  31 H :    0.016255
  32 H :    0.030539
  33 H :    0.030720
Sum of atomic charges:    0.0000000

LOEWDIN ATOMIC CHARGES
----------------------
   0 S :    0.412218
   1 C :   -0.205824
   2 C :   -0.058138
   3 C :   -0.082030
   4 C :   -0.193596
   5 H :    0.032906
   6 C :   -0.042338
   7 H :    0.043425
   8 H :    0.034410
   9 C :   -0.039579
  10 H :    0.030508
  11 H :    0.023375
  12 C :   -0.057187
  13 H :    0.036172
  14 H :    0.010465
  15 H :    0.026856
  16 S :    0.442287
  17 C :   -0.180666
  18 C :   -0.068637
  19 C :   -0.053254
  20 C :   -0.222926
  21 H :    0.036290
  22 C :   -0.026613
  23 H :    0.022642
  24 H :    0.025564
  25 C :   -0.039231
  26 H :    0.025630
  27 H :    0.028290
  28 C :   -0.076675
  29 H :    0.026862
  30 H :    0.034775
  31 H :    0.019744
  32 H :    0.020236
  33 H :    0.014039

  Mayer bond orders larger than 0.100000
B(  0-S ,  1-C ) :   1.1275 B(  0-S ,  4-C ) :   1.1679 B(  1-C ,  2-C ) :   1.6307
B(  1-C , 32-H ) :   0.9768 B(  2-C ,  3-C ) :   1.2123 B(  2-C ,  6-C ) :   0.9971
B(  3-C ,  4-C ) :   1.6015 B(  3-C ,  5-H ) :   0.9780 B(  4-C , 20-C ) :   0.9829
B(  6-C ,  7-H ) :   0.9307 B(  6-C ,  8-H ) :   0.9324 B(  6-C ,  9-C ) :   1.0922
B(  9-C , 10-H ) :   0.9532 B(  9-C , 11-H ) :   0.9447 B(  9-C , 12-C ) :   1.0704
B( 12-C , 13-H ) :   0.9734 B( 12-C , 14-H ) :   0.9806 B( 12-C , 15-H ) :   0.9756
B( 16-S , 17-C ) :   1.1744 B( 16-S , 20-C ) :   1.1645 B( 17-C , 18-C ) :   1.6068
B( 17-C , 33-H ) :   0.9766 B( 18-C , 19-C ) :   1.2122 B( 18-C , 21-H ) :   0.9959
B( 19-C , 20-C ) :   1.5894 B( 19-C , 22-C ) :   1.0601 B( 22-C , 23-H ) :   0.9274
B( 22-C , 24-H ) :   0.9295 B( 22-C , 25-C ) :   1.0686 B( 25-C , 26-H ) :   0.9587
B( 25-C , 27-H ) :   0.9518 B( 25-C , 28-C ) :   1.0799 B( 28-C , 29-H ) :   0.9739
B( 28-C , 30-H ) :   0.9698 B( 28-C , 31-H ) :   0.9700

Dispersion correction           -0.015612241
FINAL SINGLE POINT ENERGY     -1339.860845535958

DIPOLE MOMENT
-------------
                                X             Y             Z
Electronic contribution:    -22.34669     -12.84236      -6.49816
Nuclear contribution   :     22.92460      12.96680       6.62465
                        -----------------------------------------
Total Dipole Moment    :      0.57792       0.12444       0.12648
                        -----------------------------------------
Magnitude (a.u.)       :      0.60454
Magnitude (Debye)      :      1.53662

Rotational constants in cm-1:     0.019085     0.009741     0.008044
Rotational constants in MHz :   572.150772   292.022767   241.149612

                             ****ORCA TERMINATED NORMALLY****
TOTAL RUN TIME: 0 days 0 hours 0 minutes 32 seconds 639 msec
