                         Program Version 4.2.1 -  RELEASE  -
|  1> ! wB97X-D3 SP def2-SVP
|  2> %pal
|  3> nprocs 16
|  4> end
|  5>
|  6> * xyz 0 1
|  7> S 	 -12.8555 	 59.0917 	 59.3
|  8> C 	 -11.7204 	 57.8366 	 59.9773
|  9> C 	 -10.4464 	 58.3381 	 60.0531
| 10> C 	 -10.339 	 59.7593 	 59.6631
| 11> C 	 -11.6146 	 60.3072 	 59.5839
| 12> H 	 -9.5487 	 60.5119 	 59.624
| 13> C 	 -9.22135 	 57.561 	 60.4944
| 14> H 	 -8.4042 	 57.9618 	 59.8802
| 15> H 	 -9.3413 	 56.4976 	 60.2418
| 16> C 	 -8.80396 	 57.6691 	 61.976
| 17> H 	 -7.7718 	 57.2684 	 62.0875
| 18> H 	 -8.90549 	 58.7397 	 62.1199
| 19> C 	 -9.82802 	 57.0486 	 62.9321
| 20> H 	 -10.2747 	 57.6687 	 63.6909
| 21> H 	 -10.6397 	 56.5745 	 62.4004
| 22> H 	 -9.33049 	 56.3222 	 63.5387
| 23> S 	 -12.6317 	 62.2852 	 61.1653
| 24> C 	 -12.6811 	 63.9914 	 60.7015
| 25> C 	 -12.1846 	 64.095 	 59.4067
| 26> C 	 -11.7839 	 62.8641 	 58.8264
| 27> C 	 -11.9852 	 61.7547 	 59.6684
| 28> H 	 -11.9626 	 65.0302 	 59.1147
| 29> C 	 -10.9243 	 62.8494 	 57.5525
| 30> H 	 -11.327 	 62.0776 	 56.8184
| 31> H 	 -9.88135 	 62.5968 	 57.8083
| 32> C 	 -10.8858 	 64.1742 	 56.6795
| 33> H 	 -11.873 	 64.5256 	 56.6944
| 34> H 	 -10.7193 	 63.8761 	 55.6242
| 35> C 	 -10.0403 	 65.4074 	 57.1761
| 36> H 	 -10.2925 	 66.3478 	 56.5672
| 37> H 	 -8.94704 	 65.2056 	 57.1452
| 38> H 	 -10.1446 	 65.638 	 58.2352
| 39> H 	 -12.0207 	 56.8298 	 60.1647
| 40> H 	 -13.0651 	 64.7786 	 61.4125
| 41> *
| 42>
| 43>                          ****END OF INPUT****

CARTESIAN COORDINATES (ANGSTROEM)
---------------------------------
  S    -12.855500   59.091700   59.300000
  C    -11.720400   57.836600   59.977300
  C    -10.446400   58.338100   60.053100
  C    -10.339000   59.759300   59.663100
  C    -11.614600   60.307200   59.583900
  H     -9.548700   60.511900   59.624000
  C     -9.221350   57.561000   60.494400
  H     -8.404200   57.961800   59.880200
  H     -9.341300   56.497600   60.241800
  C     -8.803960   57.669100   61.976000
  H     -7.771800   57.268400   62.087500
  H     -8.905490   58.739700   62.119900
  C     -9.828020   57.048600   62.932100
  H    -10.274700   57.668700   63.690900
  H    -10.639700   56.574500   62.400400
  H     -9.330490   56.322200   63.538700
  S    -12.631700   62.285200   61.165300
  C    -12.681100   63.991400   60.701500
  C    -12.184600   64.095000   59.406700
  C    -11.783900   62.864100   58.826400
  C    -11.985200   61.754700   59.668400
  H    -11.962600   65.030200   59.114700
  C    -10.924300   62.849400   57.552500
  H    -11.327000   62.077600   56.818400
  H     -9.881350   62.596800   57.808300
  C    -10.885800   64.174200   56.679500
  H    -11.873000   64.525600   56.694400
  H    -10.719300   63.876100   55.624200
  C    -10.040300   65.407400   57.176100
  H    -10.292500   66.347800   56.567200
  H     -8.947040   65.205600   57.145200
  H    -10.144600   65.638000   58.235200
  H    -12.020700   56.829800   60.164700
  H    -13.065100   64.778600   61.412500

 Total Charge           Charge          ....    0
 Multiplicity           Mult            ....    1
 Number of Electrons    NEL             ....  134
 Basis Dimension        Dim             ....  322

ORBITAL ENERGIES
----------------

  NO   OCC          E(Eh)            E(eV)
   0   2.0000     -88.964338     -2420.8427
   1   2.0000     -88.962382     -2420.7895
   2   2.0000     -10.335775      -281.2507
   3   2.0000     -10.328608      -281.0557
   4   2.0000     -10.325294      -280.9655
   5   2.0000     -10.317507      -280.7536
   6   2.0000     -10.310733      -280.5693
   7   2.0000     -10.307517      -280.4818
   8   2.0000     -10.304019      -280.3866
   9   2.0000     -10.302416      -280.3430
  10   2.0000     -10.292263      -280.0667
  11   2.0000     -10.291280      -280.0400
  12   2.0000     -10.291090      -280.0348
  13   2.0000     -10.288031      -279.9516
  14   2.0000     -10.287753      -279.9440
  15   2.0000     -10.268882      -279.4305
  16   2.0000      -8.079417      -219.8521
  17   2.0000      -8.076386      -219.7696
  18   2.0000      -6.037777      -164.2963
  19   2.0000      -6.035052      -164.2221
  20   2.0000      -6.033618      -164.1831
  21   2.0000      -6.031310      -164.1203
  22   2.0000      -6.030549      -164.0996
  23   2.0000      -6.026693      -163.9946
  24   2.0000      -1.003143       -27.2969
  25   2.0000      -0.979103       -26.6428
  26   2.0000      -0.910071       -24.7643
  27   2.0000      -0.898168       -24.4404
  28   2.0000      -0.865920       -23.5629
  29   2.0000      -0.841614       -22.9015
  30   2.0000      -0.840734       -22.8775
  31   2.0000      -0.816911       -22.2293
  32   2.0000      -0.783478       -21.3195
  33   2.0000      -0.773057       -21.0360
  34   2.0000      -0.705913       -19.2089
  35   2.0000      -0.696472       -18.9520
  36   2.0000      -0.691707       -18.8223
  37   2.0000      -0.660903       -17.9841
  38   2.0000      -0.644355       -17.5338
  39   2.0000      -0.613501       -16.6942
  40   2.0000      -0.596723       -16.2377
  41   2.0000      -0.572559       -15.5801
  42   2.0000      -0.549885       -14.9631
  43   2.0000      -0.544070       -14.8049
  44   2.0000      -0.540979       -14.7208
  45   2.0000      -0.525088       -14.2884
  46   2.0000      -0.522270       -14.2117
  47   2.0000      -0.511238       -13.9115
  48   2.0000      -0.509609       -13.8672
  49   2.0000      -0.496054       -13.4983
  50   2.0000      -0.490683       -13.3522
  51   2.0000      -0.478887       -13.0312
  52   2.0000      -0.469307       -12.7705
  53   2.0000      -0.464262       -12.6332
  54   2.0000      -0.458831       -12.4854
  55   2.0000      -0.450282       -12.2528
  56   2.0000      -0.438024       -11.9193
  57   2.0000      -0.433245       -11.7892
  58   2.0000      -0.428948       -11.6723
  59   2.0000      -0.417867       -11.3707
  60   2.0000      -0.417473       -11.3600
  61   2.0000      -0.416093       -11.3225
  62   2.0000      -0.409741       -11.1496
  63   2.0000      -0.339005        -9.2248
  64   2.0000      -0.324416        -8.8278
  65   2.0000      -0.321590        -8.7509
  66   2.0000      -0.306997        -8.3538
  67   0.0000       0.032383         0.8812
  68   0.0000       0.051992         1.4148
  69   0.0000       0.097628         2.6566
  70   0.0000       0.122543         3.3346
  71   0.0000       0.133596         3.6353

MULLIKEN ATOMIC CHARGES
-----------------------
   0 S :    0.098462
   1 C :   -0.113440
   2 C :   -0.085519
   3 C :    0.066839
   4 C :   -0.188211
   5 H :    0.026404
   6 C :    0.031635
   7 H :    0.028982
   8 H :    0.026649
   9 C :   -0.054847
  10 H :    0.049677
  11 H :    0.027698
  12 C :   -0.029424
  13 H :    0.029777
  14 H :    0.017401
  15 H :    0.018693
  16 S :    0.113796
  17 C :   -0.135857
  18 C :    0.006151
  19 C :   -0.007140
  20 C :   -0.173790
  21 H :   -0.024635
  22 C :    0.024558
  23 H :    0.050760
  24 H :    0.043217
  25 C :   -0.069781
  26 H :    0.017667
  27 H :    0.040092
  28 C :   -0.089910
  29 H :    0.055951
  30 H :    0.033472
  31 H :    0.031379
  32 H :    0.045222
  33 H :    0.088072
Sum of atomic charges:    0.0000000

LOEWDIN ATOMIC CHARGES
----------------------
   0 S :    0.360945
   1 C :   -0.170492
   2 C :   -0.056171
   3 C :   -0.058573
   4 C :   -0.180692
   5 H :    0.037007
   6 C :   -0.035093
   7 H :    0.033528
   8 H :    0.025462
   9 C :   -0.040464
  10 H :    0.031540
  11 H :    0.026931
  12 C :   -0.067819
  13 H :    0.027796
  14 H :    0.021339
  15 H :    0.024435
  16 S :    0.428742
  17 C :   -0.186847
  18 C :   -0.067218
  19 C :   -0.061632
  20 C :   -0.220839
  21 H :    0.010118
  22 C :   -0.034699
  23 H :    0.044093
  24 H :    0.030092
  25 C :   -0.044805
  26 H :    0.016304
  27 H :    0.031985
  28 C :   -0.079210
  29 H :    0.039185
  30 H :    0.025872
  31 H :    0.022059
  32 H :    0.022557
  33 H :    0.044566

  Mayer bond orders larger than 0.100000
B(  0-S ,  1-C ) :   1.0932 B(  0-S ,  4-C ) :   1.1473 B(  1-C ,  2-C ) :   1.6693
B(  1-C , 32-H ) :   0.9737 B(  2-C ,  3-C ) :   1.1528 B(  2-C ,  6-C ) :   1.0300
B(  3-C ,  4-C ) :   1.6394 B(  3-C ,  5-H ) :   0.9865 B(  4-C , 20-C ) :   0.9996
B(  6-C ,  7-H ) :   0.9379 B(  6-C ,  8-H ) :   0.9443 B(  6-C ,  9-C ) :   1.0731
B(  9-C , 10-H ) :   0.9617 B(  9-C , 11-H ) :   0.9580 B(  9-C , 12-C ) :   1.0563
B( 12-C , 13-H ) :   0.9761 B( 12-C , 14-H ) :   0.9799 B( 12-C , 15-H ) :   0.9737
B( 16-S , 17-C ) :   1.1802 B( 16-S , 20-C ) :   1.1820 B( 17-C , 18-C ) :   1.5588
B( 17-C , 20-C ) :   0.1091 B( 17-C , 33-H ) :   0.9611 B( 18-C , 19-C ) :   1.2771
B( 18-C , 21-H ) :   1.0036 B( 19-C , 20-C ) :   1.5575 B( 19-C , 22-C ) :   1.0312
B( 22-C , 23-H ) :   0.9346 B( 22-C , 24-H ) :   0.9437 B( 22-C , 25-C ) :   1.0750
B( 25-C , 26-H ) :   0.9548 B( 25-C , 27-H ) :   0.9605 B( 25-C , 28-C ) :   1.0582
B( 28-C , 29-H ) :   0.9751 B( 28-C , 30-H ) :   0.9730 B( 28-C , 31-H ) :   0.9736

Dispersion correction           -0.014220846
FINAL SINGLE POINT ENERGY     -1339.842843839980

DIPOLE MOMENT
-------------
                                X             Y             Z
Electronic contribution:    -17.57976      -1.84403       2.68536
Nuclear contribution   :     18.16523       2.03063      -2.67722
                        -----------------------------------------
Total Dipole Moment    :      0.58546       0.18660       0.00814
                        -----------------------------------------
Magnitude (a.u.)       :      0.61453
Magnitude (Debye)      :      1.56202

Rotational constants in cm-1:     0.022544     0.007038     0.006635
Rotational constants in MHz :   675.859626   210.985502   198.923852

                             ****ORCA TERMINATED NORMALLY****
TOTAL RUN TIME: 0 days 0 hours 0 minutes 32 seconds 609 msec
