                         Program Version 4.2.1 -  RELEASE  -
|  1> ! wB97X-D3 SP def2-SVP
|  2> %pal
|  3> nprocs 16
|  4> end
|  5>
|  6> * xyz 0 1
|  7> S 	 -47.2357 	 63.2577 	 130.868
|  8> C 	 -45.5916 	 63.6714 	 130.294
|  9> C 	 -45.3446 	 63.1469 	 129.046
| 10> C 	 -46.4676 	 62.3506 	 128.651
| 11> C 	 -47.5537 	 62.28 	 129.511
| 12> H 	 -46.5115 	 61.8462 	 127.628
| 13> C 	 -44.1466 	 63.29 	 128.093
| 14> H 	 -43.4543 	 62.5038 	 128.312
| 15> H 	 -43.6811 	 64.3044 	 128.266
| 16> C 	 -44.4241 	 63.3451 	 126.596
| 17> H 	 -44.8902 	 62.4583 	 126.245
| 18> H 	 -45.1937 	 64.1549 	 126.383
| 19> C 	 -43.1205 	 63.5906 	 125.855
| 20> H 	 -43.4208 	 63.9342 	 124.884
| 21> H 	 -42.5584 	 64.4204 	 126.22
| 22> H 	 -42.5849 	 62.6114 	 125.903
| 23> S 	 -50.1405 	 62.719 	 128.669
| 24> C 	 -51.1411 	 61.2735 	 128.338
| 25> C 	 -50.5351 	 60.0835 	 128.765
| 26> C 	 -49.1821 	 60.3521 	 129.243
| 27> C 	 -48.8549 	 61.6687 	 129.263
| 28> H 	 -50.9634 	 59.1351 	 128.602
| 29> C 	 -48.3119 	 59.2338 	 129.787
| 30> H 	 -49.0675 	 58.5282 	 130.227
| 31> H 	 -47.6641 	 59.3994 	 130.645
| 32> C 	 -47.4747 	 58.577 	 128.668
| 33> H 	 -46.7343 	 59.1559 	 128.172
| 34> H 	 -48.1472 	 58.2767 	 127.874
| 35> C 	 -46.7681 	 57.2581 	 129.135
| 36> H 	 -46.2854 	 56.7908 	 128.3
| 37> H 	 -47.4602 	 56.5414 	 129.52
| 38> H 	 -45.9845 	 57.4232 	 129.852
| 39> H 	 -44.8888 	 64.3371 	 130.783
| 40> H 	 -52.1002 	 61.3705 	 127.852
| 41> *
| 42>
| 43>                          ****END OF INPUT****

CARTESIAN COORDINATES (ANGSTROEM)
---------------------------------
  S    -47.235700   63.257700  130.868000
  C    -45.591600   63.671400  130.294000
  C    -45.344600   63.146900  129.046000
  C    -46.467600   62.350600  128.651000
  C    -47.553700   62.280000  129.511000
  H    -46.511500   61.846200  127.628000
  C    -44.146600   63.290000  128.093000
  H    -43.454300   62.503800  128.312000
  H    -43.681100   64.304400  128.266000
  C    -44.424100   63.345100  126.596000
  H    -44.890200   62.458300  126.245000
  H    -45.193700   64.154900  126.383000
  C    -43.120500   63.590600  125.855000
  H    -43.420800   63.934200  124.884000
  H    -42.558400   64.420400  126.220000
  H    -42.584900   62.611400  125.903000
  S    -50.140500   62.719000  128.669000
  C    -51.141100   61.273500  128.338000
  C    -50.535100   60.083500  128.765000
  C    -49.182100   60.352100  129.243000
  C    -48.854900   61.668700  129.263000
  H    -50.963400   59.135100  128.602000
  C    -48.311900   59.233800  129.787000
  H    -49.067500   58.528200  130.227000
  H    -47.664100   59.399400  130.645000
  C    -47.474700   58.577000  128.668000
  H    -46.734300   59.155900  128.172000
  H    -48.147200   58.276700  127.874000
  C    -46.768100   57.258100  129.135000
  H    -46.285400   56.790800  128.300000
  H    -47.460200   56.541400  129.520000
  H    -45.984500   57.423200  129.852000
  H    -44.888800   64.337100  130.783000
  H    -52.100200   61.370500  127.852000

 Total Charge           Charge          ....    0
 Multiplicity           Mult            ....    1
 Number of Electrons    NEL             ....  134
 Basis Dimension        Dim             ....  322

ORBITAL ENERGIES
----------------

  NO   OCC          E(Eh)            E(eV)
   0   2.0000     -88.964916     -2420.8584
   1   2.0000     -88.964667     -2420.8517
   2   2.0000     -10.325006      -280.9577
   3   2.0000     -10.323393      -280.9138
   4   2.0000     -10.322200      -280.8813
   5   2.0000     -10.315498      -280.6990
   6   2.0000     -10.303742      -280.3791
   7   2.0000     -10.300803      -280.2991
   8   2.0000     -10.299426      -280.2616
   9   2.0000     -10.296811      -280.1905
  10   2.0000     -10.294024      -280.1146
  11   2.0000     -10.293652      -280.1045
  12   2.0000     -10.287542      -279.9383
  13   2.0000     -10.282720      -279.8070
  14   2.0000     -10.279183      -279.7108
  15   2.0000     -10.270081      -279.4631
  16   2.0000      -8.079703      -219.8599
  17   2.0000      -8.078903      -219.8381
  18   2.0000      -6.038223      -164.3084
  19   2.0000      -6.037477      -164.2881
  20   2.0000      -6.034108      -164.1964
  21   2.0000      -6.033585      -164.1822
  22   2.0000      -6.030534      -164.0992
  23   2.0000      -6.029517      -164.0715
  24   2.0000      -1.004481       -27.3333
  25   2.0000      -0.979409       -26.6511
  26   2.0000      -0.916950       -24.9515
  27   2.0000      -0.902700       -24.5637
  28   2.0000      -0.870797       -23.6956
  29   2.0000      -0.846965       -23.0471
  30   2.0000      -0.843148       -22.9432
  31   2.0000      -0.807938       -21.9851
  32   2.0000      -0.782987       -21.3062
  33   2.0000      -0.772826       -21.0297
  34   2.0000      -0.707662       -19.2565
  35   2.0000      -0.700627       -19.0650
  36   2.0000      -0.689074       -18.7507
  37   2.0000      -0.667848       -18.1731
  38   2.0000      -0.636953       -17.3324
  39   2.0000      -0.613652       -16.6983
  40   2.0000      -0.599059       -16.3012
  41   2.0000      -0.580494       -15.7960
  42   2.0000      -0.567997       -15.4560
  43   2.0000      -0.557139       -15.1605
  44   2.0000      -0.530735       -14.4420
  45   2.0000      -0.519959       -14.1488
  46   2.0000      -0.515366       -14.0238
  47   2.0000      -0.508079       -13.8255
  48   2.0000      -0.506032       -13.7698
  49   2.0000      -0.494343       -13.4518
  50   2.0000      -0.488375       -13.2893
  51   2.0000      -0.475393       -12.9361
  52   2.0000      -0.470711       -12.8087
  53   2.0000      -0.466872       -12.7042
  54   2.0000      -0.457841       -12.4585
  55   2.0000      -0.448665       -12.2088
  56   2.0000      -0.444113       -12.0849
  57   2.0000      -0.438743       -11.9388
  58   2.0000      -0.430944       -11.7266
  59   2.0000      -0.424689       -11.5564
  60   2.0000      -0.421082       -11.4582
  61   2.0000      -0.416343       -11.3293
  62   2.0000      -0.409196       -11.1348
  63   2.0000      -0.335823        -9.1382
  64   2.0000      -0.331202        -9.0125
  65   2.0000      -0.323397        -8.8001
  66   2.0000      -0.306472        -8.3395
  67   0.0000       0.045390         1.2351
  68   0.0000       0.056014         1.5242
  69   0.0000       0.112592         3.0638
  70   0.0000       0.121944         3.3183
  71   0.0000       0.129894         3.5346

MULLIKEN ATOMIC CHARGES
-----------------------
   0 S :    0.110529
   1 C :   -0.137066
   2 C :   -0.058111
   3 C :   -0.000927
   4 C :   -0.166827
   5 H :    0.033036
   6 C :    0.053865
   7 H :    0.040342
   8 H :    0.030235
   9 C :   -0.125610
  10 H :    0.025883
  11 H :    0.040030
  12 C :   -0.011099
  13 H :    0.027286
  14 H :    0.023880
  15 H :    0.047307
  16 S :    0.105304
  17 C :   -0.104517
  18 C :    0.005046
  19 C :   -0.019810
  20 C :   -0.157832
  21 H :    0.010766
  22 C :    0.052387
  23 H :    0.026510
  24 H :    0.033928
  25 C :   -0.066793
  26 H :    0.025201
  27 H :    0.016438
  28 C :   -0.032063
  29 H :    0.021435
  30 H :    0.021760
  31 H :    0.027618
  32 H :    0.040504
  33 H :    0.061367
Sum of atomic charges:   -0.0000000

LOEWDIN ATOMIC CHARGES
----------------------
   0 S :    0.414583
   1 C :   -0.188807
   2 C :   -0.067115
   3 C :   -0.072285
   4 C :   -0.219097
   5 H :    0.036553
   6 C :   -0.031380
   7 H :    0.030070
   8 H :    0.037013
   9 C :   -0.044770
  10 H :    0.013577
  11 H :    0.030557
  12 C :   -0.058197
  13 H :    0.027179
  14 H :    0.020918
  15 H :    0.035735
  16 S :    0.383207
  17 C :   -0.162480
  18 C :   -0.061106
  19 C :   -0.049226
  20 C :   -0.200374
  21 H :    0.025864
  22 C :   -0.031869
  23 H :    0.037179
  24 H :    0.031053
  25 C :   -0.032990
  26 H :    0.019629
  27 H :    0.021276
  28 C :   -0.061763
  29 H :    0.023204
  30 H :    0.019302
  31 H :    0.021049
  32 H :    0.027410
  33 H :    0.026100

  Mayer bond orders larger than 0.100000
B(  0-S ,  1-C ) :   1.1388 B(  0-S ,  4-C ) :   1.1596 B(  1-C ,  2-C ) :   1.6205
B(  1-C , 32-H ) :   0.9695 B(  2-C ,  3-C ) :   1.2574 B(  2-C ,  6-C ) :   0.9972
B(  3-C ,  4-C ) :   1.5897 B(  3-C ,  5-H ) :   0.9744 B(  4-C , 20-C ) :   0.9990
B(  6-C ,  7-H ) :   0.9379 B(  6-C ,  8-H ) :   0.9487 B(  6-C ,  9-C ) :   1.0718
B(  9-C , 10-H ) :   0.9454 B(  9-C , 11-H ) :   0.9593 B(  9-C , 12-C ) :   1.0840
B( 12-C , 13-H ) :   0.9706 B( 12-C , 14-H ) :   0.9736 B( 12-C , 15-H ) :   0.9742
B( 16-S , 17-C ) :   1.1505 B( 16-S , 20-C ) :   1.1199 B( 17-C , 18-C ) :   1.6229
B( 17-C , 33-H ) :   0.9688 B( 18-C , 19-C ) :   1.2079 B( 18-C , 21-H ) :   0.9935
B( 19-C , 20-C ) :   1.6725 B( 19-C , 22-C ) :   1.0280 B( 22-C , 23-H ) :   0.9410
B( 22-C , 24-H ) :   0.9457 B( 22-C , 25-C ) :   1.0520 B( 25-C , 26-H ) :   0.9569
B( 25-C , 27-H ) :   0.9567 B( 25-C , 28-C ) :   1.0868 B( 28-C , 29-H ) :   0.9735
B( 28-C , 30-H ) :   0.9763 B( 28-C , 31-H ) :   0.9757

Dispersion correction           -0.014001246
FINAL SINGLE POINT ENERGY     -1339.875804988498

DIPOLE MOMENT
-------------
                                X             Y             Z
Electronic contribution:    -20.30850      13.97686      13.23619
Nuclear contribution   :     20.65444     -14.32774     -13.73380
                        -----------------------------------------
Total Dipole Moment    :      0.34594      -0.35089      -0.49761
                        -----------------------------------------
Magnitude (a.u.)       :      0.70030
Magnitude (Debye)      :      1.78002

Rotational constants in cm-1:     0.016083     0.008640     0.007309
Rotational constants in MHz :   482.145778   259.006254   219.128945

                             ****ORCA TERMINATED NORMALLY****
TOTAL RUN TIME: 0 days 0 hours 0 minutes 34 seconds 780 msec
