                         Program Version 4.2.1 -  RELEASE  -
|  1> ! wB97X-D3 SP def2-SVP
|  2> %pal
|  3> nprocs 16
|  4> end
|  5>
|  6> * xyz 0 1
|  7> S 	 -62.4951 	 49.6629 	 123.223
|  8> C 	 -63.2368 	 48.1134 	 123.677
|  9> C 	 -62.5095 	 47.0567 	 123.193
| 10> C 	 -61.27 	 47.4641 	 122.5
| 11> C 	 -61.2165 	 48.8104 	 122.316
| 12> H 	 -60.4914 	 46.8175 	 121.949
| 13> C 	 -62.823 	 45.6157 	 123.334
| 14> H 	 -62.8507 	 45.2548 	 122.366
| 15> H 	 -63.8239 	 45.4426 	 123.702
| 16> C 	 -61.8684 	 44.8125 	 124.299
| 17> H 	 -60.9079 	 45.1183 	 123.9
| 18> H 	 -62.0354 	 45.2124 	 125.32
| 19> C 	 -61.9996 	 43.2845 	 124.179
| 20> H 	 -61.7423 	 42.987 	 123.227
| 21> H 	 -61.3324 	 42.8235 	 124.902
| 22> H 	 -63.0202 	 42.986 	 124.395
| 23> S 	 -60.8891 	 50.8649 	 120.583
| 24> C 	 -59.3266 	 51.1338 	 119.912
| 25> C 	 -58.3595 	 50.3253 	 120.429
| 26> C 	 -58.9046 	 49.3093 	 121.298
| 27> C 	 -60.2276 	 49.5427 	 121.519
| 28> H 	 -57.3231 	 50.3999 	 120.087
| 29> C 	 -58.0766 	 48.2865 	 122.025
| 30> H 	 -58.7268 	 47.7373 	 122.656
| 31> H 	 -57.5437 	 48.9574 	 122.611
| 32> C 	 -57.1069 	 47.4199 	 121.205
| 33> H 	 -56.5188 	 46.8119 	 121.903
| 34> H 	 -56.4839 	 48.2342 	 120.807
| 35> C 	 -57.8552 	 46.5943 	 120.172
| 36> H 	 -58.7454 	 47.0945 	 119.793
| 37> H 	 -58.1579 	 45.7183 	 120.714
| 38> H 	 -57.3775 	 46.227 	 119.301
| 39> H 	 -64.2 	 48.0178 	 124.173
| 40> H 	 -59.0619 	 51.9224 	 119.243
| 41> *
| 42>
| 43>                          ****END OF INPUT****

CARTESIAN COORDINATES (ANGSTROEM)
---------------------------------
  S    -62.495100   49.662900  123.223000
  C    -63.236800   48.113400  123.677000
  C    -62.509500   47.056700  123.193000
  C    -61.270000   47.464100  122.500000
  C    -61.216500   48.810400  122.316000
  H    -60.491400   46.817500  121.949000
  C    -62.823000   45.615700  123.334000
  H    -62.850700   45.254800  122.366000
  H    -63.823900   45.442600  123.702000
  C    -61.868400   44.812500  124.299000
  H    -60.907900   45.118300  123.900000
  H    -62.035400   45.212400  125.320000
  C    -61.999600   43.284500  124.179000
  H    -61.742300   42.987000  123.227000
  H    -61.332400   42.823500  124.902000
  H    -63.020200   42.986000  124.395000
  S    -60.889100   50.864900  120.583000
  C    -59.326600   51.133800  119.912000
  C    -58.359500   50.325300  120.429000
  C    -58.904600   49.309300  121.298000
  C    -60.227600   49.542700  121.519000
  H    -57.323100   50.399900  120.087000
  C    -58.076600   48.286500  122.025000
  H    -58.726800   47.737300  122.656000
  H    -57.543700   48.957400  122.611000
  C    -57.106900   47.419900  121.205000
  H    -56.518800   46.811900  121.903000
  H    -56.483900   48.234200  120.807000
  C    -57.855200   46.594300  120.172000
  H    -58.745400   47.094500  119.793000
  H    -58.157900   45.718300  120.714000
  H    -57.377500   46.227000  119.301000
  H    -64.200000   48.017800  124.173000
  H    -59.061900   51.922400  119.243000

 Total Charge           Charge          ....    0
 Multiplicity           Mult            ....    1
 Number of Electrons    NEL             ....  134
 Basis Dimension        Dim             ....  322

ORBITAL ENERGIES
----------------

  NO   OCC          E(Eh)            E(eV)
   0   2.0000     -88.965156     -2420.8650
   1   2.0000     -88.963129     -2420.8098
   2   2.0000     -10.329862      -281.0898
   3   2.0000     -10.321353      -280.8583
   4   2.0000     -10.313754      -280.6515
   5   2.0000     -10.311604      -280.5930
   6   2.0000     -10.303012      -280.3592
   7   2.0000     -10.301675      -280.3228
   8   2.0000     -10.299450      -280.2623
   9   2.0000     -10.293595      -280.1030
  10   2.0000     -10.292359      -280.0693
  11   2.0000     -10.289503      -279.9916
  12   2.0000     -10.281371      -279.7703
  13   2.0000     -10.281106      -279.7631
  14   2.0000     -10.274198      -279.5751
  15   2.0000     -10.273405      -279.5536
  16   2.0000      -8.080584      -219.8839
  17   2.0000      -8.077031      -219.7872
  18   2.0000      -6.039032      -164.3304
  19   2.0000      -6.035812      -164.2428
  20   2.0000      -6.035116      -164.2239
  21   2.0000      -6.031777      -164.1330
  22   2.0000      -6.031238      -164.1183
  23   2.0000      -6.027447      -164.0152
  24   2.0000      -1.009370       -27.4663
  25   2.0000      -0.981388       -26.7049
  26   2.0000      -0.919404       -25.0183
  27   2.0000      -0.910189       -24.7675
  28   2.0000      -0.870476       -23.6868
  29   2.0000      -0.855339       -23.2750
  30   2.0000      -0.843628       -22.9563
  31   2.0000      -0.817988       -22.2586
  32   2.0000      -0.789485       -21.4830
  33   2.0000      -0.774753       -21.0821
  34   2.0000      -0.712540       -19.3892
  35   2.0000      -0.701891       -19.0994
  36   2.0000      -0.696026       -18.9398
  37   2.0000      -0.660442       -17.9715
  38   2.0000      -0.638462       -17.3734
  39   2.0000      -0.616924       -16.7874
  40   2.0000      -0.596522       -16.2322
  41   2.0000      -0.568138       -15.4598
  42   2.0000      -0.563504       -15.3337
  43   2.0000      -0.557689       -15.1755
  44   2.0000      -0.553564       -15.0632
  45   2.0000      -0.525774       -14.3070
  46   2.0000      -0.521070       -14.1790
  47   2.0000      -0.506986       -13.7958
  48   2.0000      -0.501840       -13.6558
  49   2.0000      -0.498058       -13.5528
  50   2.0000      -0.492278       -13.3956
  51   2.0000      -0.487139       -13.2557
  52   2.0000      -0.471181       -12.8215
  53   2.0000      -0.462914       -12.5965
  54   2.0000      -0.460753       -12.5377
  55   2.0000      -0.454031       -12.3548
  56   2.0000      -0.450021       -12.2457
  57   2.0000      -0.443724       -12.0743
  58   2.0000      -0.438513       -11.9325
  59   2.0000      -0.425672       -11.5831
  60   2.0000      -0.422111       -11.4862
  61   2.0000      -0.412812       -11.2332
  62   2.0000      -0.412693       -11.2299
  63   2.0000      -0.355159        -9.6644
  64   2.0000      -0.331752        -9.0274
  65   2.0000      -0.325272        -8.8511
  66   2.0000      -0.291151        -7.9226
  67   0.0000       0.033808         0.9200
  68   0.0000       0.076919         2.0931
  69   0.0000       0.110052         2.9947
  70   0.0000       0.117563         3.1991
  71   0.0000       0.127854         3.4791

MULLIKEN ATOMIC CHARGES
-----------------------
   0 S :    0.087168
   1 C :   -0.119637
   2 C :   -0.083942
   3 C :   -0.032438
   4 C :   -0.124791
   5 H :    0.050197
   6 C :    0.088933
   7 H :    0.009735
   8 H :    0.000417
   9 C :   -0.101123
  10 H :    0.018366
  11 H :    0.041178
  12 C :    0.013298
  13 H :    0.012043
  14 H :    0.036441
  15 H :    0.025805
  16 S :    0.114674
  17 C :   -0.066663
  18 C :   -0.048215
  19 C :   -0.086208
  20 C :   -0.147137
  21 H :    0.024781
  22 C :    0.100697
  23 H :    0.000752
  24 H :    0.022219
  25 C :   -0.054182
  26 H :    0.039183
  27 H :    0.024197
  28 C :   -0.033062
  29 H :    0.043585
  30 H :    0.020935
  31 H :    0.028055
  32 H :    0.051029
  33 H :    0.043711
Sum of atomic charges:    0.0000000

LOEWDIN ATOMIC CHARGES
----------------------
   0 S :    0.362840
   1 C :   -0.192478
   2 C :   -0.054687
   3 C :   -0.082859
   4 C :   -0.172820
   5 H :    0.046526
   6 C :   -0.032564
   7 H :    0.021235
   8 H :    0.023242
   9 C :   -0.031065
  10 H :    0.017688
  11 H :    0.028722
  12 C :   -0.052396
  13 H :    0.014427
  14 H :    0.029950
  15 H :    0.024273
  16 S :    0.413031
  17 C :   -0.184540
  18 C :   -0.074574
  19 C :   -0.052290
  20 C :   -0.198933
  21 H :    0.033201
  22 C :   -0.023364
  23 H :    0.019086
  24 H :    0.031805
  25 C :   -0.033799
  26 H :    0.028974
  27 H :    0.022223
  28 C :   -0.066848
  29 H :    0.030071
  30 H :    0.025908
  31 H :    0.022584
  32 H :    0.032083
  33 H :    0.025350

  Mayer bond orders larger than 0.100000
B(  0-S ,  1-C ) :   1.0919 B(  0-S ,  4-C ) :   1.1249 B(  1-C ,  2-C ) :   1.6747
B(  1-C , 32-H ) :   0.9658 B(  2-C ,  3-C ) :   1.1658 B(  2-C ,  6-C ) :   1.0416
B(  3-C ,  4-C ) :   1.6523 B(  3-C ,  5-H ) :   0.9646 B(  4-C , 20-C ) :   1.0244
B(  6-C ,  7-H ) :   0.9326 B(  6-C ,  8-H ) :   0.9352 B(  6-C ,  9-C ) :   1.0454
B(  9-C , 10-H ) :   0.9617 B(  9-C , 11-H ) :   0.9588 B(  9-C , 12-C ) :   1.0804
B( 12-C , 13-H ) :   0.9738 B( 12-C , 14-H ) :   0.9735 B( 12-C , 15-H ) :   0.9754
B( 16-S , 17-C ) :   1.1476 B( 16-S , 20-C ) :   1.1297 B( 17-C , 18-C ) :   1.6503
B( 17-C , 33-H ) :   0.9652 B( 18-C , 19-C ) :   1.1998 B( 18-C , 21-H ) :   0.9839
B( 19-C , 20-C ) :   1.6371 B( 19-C , 22-C ) :   1.0196 B( 22-C , 23-H ) :   0.9327
B( 22-C , 24-H ) :   0.9263 B( 22-C , 25-C ) :   1.0644 B( 25-C , 26-H ) :   0.9586
B( 25-C , 27-H ) :   0.9578 B( 25-C , 28-C ) :   1.0642 B( 28-C , 29-H ) :   0.9755
B( 28-C , 30-H ) :   0.9702 B( 28-C , 31-H ) :   0.9748

Dispersion correction           -0.014561417
FINAL SINGLE POINT ENERGY     -1339.873777651262

DIPOLE MOMENT
-------------
                                X             Y             Z
Electronic contribution:    -10.54656      28.70407      -3.23910
Nuclear contribution   :     10.94982     -29.30919       3.15722
                        -----------------------------------------
Total Dipole Moment    :      0.40327      -0.60512      -0.08188
                        -----------------------------------------
Magnitude (a.u.)       :      0.73178
Magnitude (Debye)      :      1.86004

Rotational constants in cm-1:     0.018244     0.009407     0.006616
Rotational constants in MHz :   546.952359   282.004797   198.349819

                             ****ORCA TERMINATED NORMALLY****
TOTAL RUN TIME: 0 days 0 hours 0 minutes 32 seconds 805 msec
