                         Program Version 4.2.1 -  RELEASE  -
|  1> ! wB97X-D3 SP def2-SVP
|  2> %pal
|  3> nprocs 16
|  4> end
|  5>
|  6> * xyz 0 1
|  7> S 	 14.6549 	 13.8082 	 86.2694
|  8> C 	 15.853 	 14.5358 	 85.231
|  9> C 	 15.2401 	 15.1621 	 84.1465
| 10> C 	 13.8136 	 15.2044 	 84.3413
| 11> C 	 13.3214 	 14.6125 	 85.4592
| 12> H 	 13.1545 	 15.6783 	 83.7363
| 13> C 	 15.8944 	 15.7639 	 82.9534
| 14> H 	 15.4994 	 15.4351 	 81.9705
| 15> H 	 16.8854 	 15.4632 	 82.991
| 16> C 	 16.0564 	 17.2696 	 83.0462
| 17> H 	 16.4452 	 17.509 	 84.0028
| 18> H 	 16.8563 	 17.4169 	 82.3512
| 19> C 	 14.8075 	 18.1319 	 82.7404
| 20> H 	 14.0872 	 18.0757 	 83.5723
| 21> H 	 15.0788 	 19.1967 	 82.654
| 22> H 	 14.4089 	 17.9801 	 81.707
| 23> S 	 11.1519 	 15.9757 	 85.6517
| 24> C 	 9.69505 	 15.3735 	 86.4574
| 25> C 	 9.82959 	 13.9769 	 86.6724
| 26> C 	 11.1416 	 13.4986 	 86.3925
| 27> C 	 11.9588 	 14.489 	 85.9093
| 28> H 	 8.93267 	 13.4192 	 86.9174
| 29> C 	 11.4288 	 12.0723 	 86.5462
| 30> H 	 11.4575 	 11.827 	 87.63
| 31> H 	 12.3233 	 11.7137 	 86.1137
| 32> C 	 10.3962 	 11.0504 	 85.9711
| 33> H 	 9.54116 	 10.7946 	 86.5417
| 34> H 	 10.8574 	 10.0817 	 85.9242
| 35> C 	 9.82051 	 11.393 	 84.5897
| 36> H 	 9.62663 	 10.5385 	 84.0581
| 37> H 	 10.559 	 11.9704 	 84.017
| 38> H 	 8.84831 	 11.8111 	 84.6809
| 39> H 	 16.9132 	 14.467 	 85.1937
| 40> H 	 8.80688 	 15.9508 	 86.4526
| 41> *
| 42>
| 43>                          ****END OF INPUT****

CARTESIAN COORDINATES (ANGSTROEM)
---------------------------------
  S     14.654900   13.808200   86.269400
  C     15.853000   14.535800   85.231000
  C     15.240100   15.162100   84.146500
  C     13.813600   15.204400   84.341300
  C     13.321400   14.612500   85.459200
  H     13.154500   15.678300   83.736300
  C     15.894400   15.763900   82.953400
  H     15.499400   15.435100   81.970500
  H     16.885400   15.463200   82.991000
  C     16.056400   17.269600   83.046200
  H     16.445200   17.509000   84.002800
  H     16.856300   17.416900   82.351200
  C     14.807500   18.131900   82.740400
  H     14.087200   18.075700   83.572300
  H     15.078800   19.196700   82.654000
  H     14.408900   17.980100   81.707000
  S     11.151900   15.975700   85.651700
  C      9.695050   15.373500   86.457400
  C      9.829590   13.976900   86.672400
  C     11.141600   13.498600   86.392500
  C     11.958800   14.489000   85.909300
  H      8.932670   13.419200   86.917400
  C     11.428800   12.072300   86.546200
  H     11.457500   11.827000   87.630000
  H     12.323300   11.713700   86.113700
  C     10.396200   11.050400   85.971100
  H      9.541160   10.794600   86.541700
  H     10.857400   10.081700   85.924200
  C      9.820510   11.393000   84.589700
  H      9.626630   10.538500   84.058100
  H     10.559000   11.970400   84.017000
  H      8.848310   11.811100   84.680900
  H     16.913200   14.467000   85.193700
  H      8.806880   15.950800   86.452600

 Total Charge           Charge          ....    0
 Multiplicity           Mult            ....    1
 Number of Electrons    NEL             ....  134
 Basis Dimension        Dim             ....  322

ORBITAL ENERGIES
----------------

  NO   OCC          E(Eh)            E(eV)
   0   2.0000     -88.964261     -2420.8406
   1   2.0000     -88.964202     -2420.8390
   2   2.0000     -10.326347      -280.9942
   3   2.0000     -10.324089      -280.9328
   4   2.0000     -10.318384      -280.7775
   5   2.0000     -10.310763      -280.5701
   6   2.0000     -10.302360      -280.3415
   7   2.0000     -10.299591      -280.2661
   8   2.0000     -10.297852      -280.2188
   9   2.0000     -10.288082      -279.9529
  10   2.0000     -10.284444      -279.8540
  11   2.0000     -10.281883      -279.7843
  12   2.0000     -10.280626      -279.7501
  13   2.0000     -10.280045      -279.7342
  14   2.0000     -10.279154      -279.7100
  15   2.0000     -10.262706      -279.2624
  16   2.0000      -8.079489      -219.8541
  17   2.0000      -8.078619      -219.8304
  18   2.0000      -6.037977      -164.3017
  19   2.0000      -6.037348      -164.2846
  20   2.0000      -6.033937      -164.1918
  21   2.0000      -6.033149      -164.1703
  22   2.0000      -6.030219      -164.0906
  23   2.0000      -6.029209      -164.0631
  24   2.0000      -1.013021       -27.5657
  25   2.0000      -0.985427       -26.8148
  26   2.0000      -0.918221       -24.9861
  27   2.0000      -0.912349       -24.8263
  28   2.0000      -0.872962       -23.7545
  29   2.0000      -0.853865       -23.2349
  30   2.0000      -0.840939       -22.8831
  31   2.0000      -0.816342       -22.2138
  32   2.0000      -0.789922       -21.4949
  33   2.0000      -0.777827       -21.1658
  34   2.0000      -0.710152       -19.3242
  35   2.0000      -0.702004       -19.1025
  36   2.0000      -0.694899       -18.9092
  37   2.0000      -0.672835       -18.3088
  38   2.0000      -0.640309       -17.4237
  39   2.0000      -0.621862       -16.9217
  40   2.0000      -0.604273       -16.4431
  41   2.0000      -0.578702       -15.7473
  42   2.0000      -0.562450       -15.3050
  43   2.0000      -0.546388       -14.8680
  44   2.0000      -0.542560       -14.7638
  45   2.0000      -0.535121       -14.5614
  46   2.0000      -0.528415       -14.3789
  47   2.0000      -0.511894       -13.9293
  48   2.0000      -0.501455       -13.6453
  49   2.0000      -0.500530       -13.6201
  50   2.0000      -0.492139       -13.3918
  51   2.0000      -0.481738       -13.1088
  52   2.0000      -0.476813       -12.9747
  53   2.0000      -0.467034       -12.7086
  54   2.0000      -0.461992       -12.5714
  55   2.0000      -0.441844       -12.0232
  56   2.0000      -0.438832       -11.9412
  57   2.0000      -0.431566       -11.7435
  58   2.0000      -0.429397       -11.6845
  59   2.0000      -0.423820       -11.5327
  60   2.0000      -0.421052       -11.4574
  61   2.0000      -0.416710       -11.3393
  62   2.0000      -0.414276       -11.2730
  63   2.0000      -0.354436        -9.6447
  64   2.0000      -0.328350        -8.9348
  65   2.0000      -0.325118        -8.8469
  66   2.0000      -0.286634        -7.7997
  67   0.0000       0.028784         0.7833
  68   0.0000       0.073320         1.9951
  69   0.0000       0.094830         2.5805
  70   0.0000       0.129495         3.5237
  71   0.0000       0.130443         3.5495

MULLIKEN ATOMIC CHARGES
-----------------------
   0 S :    0.112017
   1 C :   -0.086957
   2 C :   -0.119748
   3 C :    0.048044
   4 C :   -0.125027
   5 H :   -0.036090
   6 C :    0.106196
   7 H :    0.039418
   8 H :   -0.015700
   9 C :   -0.043652
  10 H :    0.014560
  11 H :    0.016766
  12 C :   -0.065746
  13 H :    0.051250
  14 H :    0.029161
  15 H :    0.033363
  16 S :    0.090101
  17 C :   -0.087634
  18 C :   -0.041837
  19 C :   -0.013058
  20 C :   -0.142006
  21 H :    0.028609
  22 C :    0.090145
  23 H :    0.044056
  24 H :    0.016134
  25 C :   -0.107868
  26 H :    0.008265
  27 H :    0.018442
  28 C :   -0.002385
  29 H :    0.003040
  30 H :    0.039659
  31 H :    0.019836
  32 H :    0.027401
  33 H :    0.051245
Sum of atomic charges:    0.0000000

LOEWDIN ATOMIC CHARGES
----------------------
   0 S :    0.404989
   1 C :   -0.201015
   2 C :   -0.054663
   3 C :   -0.065089
   4 C :   -0.190170
   5 H :    0.004578
   6 C :   -0.030299
   7 H :    0.037086
   8 H :    0.021671
   9 C :   -0.030856
  10 H :    0.021115
  11 H :    0.020898
  12 C :   -0.076485
  13 H :    0.029875
  14 H :    0.028868
  15 H :    0.029289
  16 S :    0.427796
  17 C :   -0.177531
  18 C :   -0.054637
  19 C :   -0.066673
  20 C :   -0.197950
  21 H :    0.034248
  22 C :   -0.032157
  23 H :    0.044311
  24 H :    0.022756
  25 C :   -0.040630
  26 H :    0.014517
  27 H :    0.023969
  28 C :   -0.059189
  29 H :    0.015231
  30 H :    0.031124
  31 H :    0.021780
  32 H :    0.024401
  33 H :    0.018840

  Mayer bond orders larger than 0.100000
B(  0-S ,  1-C ) :   1.1342 B(  0-S ,  4-C ) :   1.1240 B(  1-C ,  2-C ) :   1.6219
B(  1-C , 32-H ) :   0.9633 B(  2-C ,  3-C ) :   1.2238 B(  2-C ,  6-C ) :   1.0453
B(  3-C ,  4-C ) :   1.5813 B(  3-C ,  5-H ) :   1.0042 B(  4-C , 20-C ) :   1.0300
B(  6-C ,  7-H ) :   0.9391 B(  6-C ,  8-H ) :   0.9176 B(  6-C ,  9-C ) :   1.0759
B(  9-C , 10-H ) :   0.9486 B(  9-C , 11-H ) :   0.9585 B(  9-C , 12-C ) :   1.0846
B( 12-C , 13-H ) :   0.9703 B( 12-C , 14-H ) :   0.9707 B( 12-C , 15-H ) :   0.9736
B( 16-S , 17-C ) :   1.1564 B( 16-S , 20-C ) :   1.1581 B( 17-C , 18-C ) :   1.5863
B( 17-C , 20-C ) :   0.1034 B( 17-C , 33-H ) :   0.9747 B( 18-C , 19-C ) :   1.2261
B( 18-C , 21-H ) :   0.9912 B( 19-C , 20-C ) :   1.5709 B( 19-C , 22-C ) :   1.0702
B( 22-C , 23-H ) :   0.9234 B( 22-C , 24-H ) :   0.9376 B( 22-C , 25-C ) :   1.0644
B( 25-C , 26-H ) :   0.9523 B( 25-C , 27-H ) :   0.9605 B( 25-C , 28-C ) :   1.0850
B( 28-C , 29-H ) :   0.9696 B( 28-C , 30-H ) :   0.9761 B( 28-C , 31-H ) :   0.9729

Dispersion correction           -0.014777675
FINAL SINGLE POINT ENERGY     -1339.850884426787

DIPOLE MOMENT
-------------
                                X             Y             Z
Electronic contribution:      0.49809       2.61751      12.37571
Nuclear contribution   :     -0.60045      -2.78993     -12.81994
                        -----------------------------------------
Total Dipole Moment    :     -0.10236      -0.17242      -0.44423
                        -----------------------------------------
Magnitude (a.u.)       :      0.48739
Magnitude (Debye)      :      1.23884

Rotational constants in cm-1:     0.022947     0.008167     0.007025
Rotational constants in MHz :   687.920933   244.846348   210.596412

                             ****ORCA TERMINATED NORMALLY****
TOTAL RUN TIME: 0 days 0 hours 0 minutes 34 seconds 126 msec
