                         Program Version 4.2.1 -  RELEASE  -
|  1> ! wB97X-D3 SP def2-SVP
|  2> %pal
|  3> nprocs 16
|  4> end
|  5>
|  6> * xyz 0 1
|  7> S 	 15.0337 	 35.1615 	 59.1079
|  8> C 	 16.7586 	 35.2886 	 58.7378
|  9> C 	 17.5496 	 35.4493 	 59.9086
| 10> C 	 16.7125 	 35.2887 	 61.1222
| 11> C 	 15.4095 	 35.2803 	 60.8239
| 12> H 	 17.048 	 35.309 	 62.2021
| 13> C 	 19.0148 	 35.6598 	 59.8686
| 14> H 	 19.3478 	 35.9754 	 58.9353
| 15> H 	 19.5642 	 34.6901 	 59.8744
| 16> C 	 19.5728 	 36.7248 	 60.8002
| 17> H 	 19.5774 	 36.3979 	 61.8054
| 18> H 	 20.6629 	 36.8313 	 60.5485
| 19> C 	 18.939 	 38.1968 	 60.7927
| 20> H 	 17.9106 	 38.273 	 61.121
| 21> H 	 19.5623 	 38.8717 	 61.4884
| 22> H 	 18.9349 	 38.662 	 59.7933
| 23> S 	 13.3491 	 33.6806 	 61.7471
| 24> C 	 12.5856 	 34.1394 	 63.216
| 25> C 	 12.9886 	 35.3445 	 63.6851
| 26> C 	 14.0415 	 35.9305 	 62.9697
| 27> C 	 14.4015 	 35.1229 	 61.8993
| 28> H 	 12.5118 	 35.8086 	 64.5576
| 29> C 	 14.5529 	 37.3437 	 63.4188
| 30> H 	 15.6255 	 37.2911 	 63.2759
| 31> H 	 14.6085 	 37.4758 	 64.5277
| 32> C 	 14.0422 	 38.5728 	 62.5877
| 33> H 	 14.5708 	 39.3544 	 62.9925
| 34> H 	 12.9404 	 38.718 	 62.7364
| 35> C 	 14.487 	 38.4475 	 61.1406
| 36> H 	 14.2971 	 39.3894 	 60.7423
| 37> H 	 14.0188 	 37.6339 	 60.5651
| 38> H 	 15.5277 	 38.2053 	 61.0967
| 39> H 	 17.273 	 35.3356 	 57.7692
| 40> H 	 11.7385 	 33.5552 	 63.636
| 41> *
| 42>
| 43>                          ****END OF INPUT****

CARTESIAN COORDINATES (ANGSTROEM)
---------------------------------
  S     15.033700   35.161500   59.107900
  C     16.758600   35.288600   58.737800
  C     17.549600   35.449300   59.908600
  C     16.712500   35.288700   61.122200
  C     15.409500   35.280300   60.823900
  H     17.048000   35.309000   62.202100
  C     19.014800   35.659800   59.868600
  H     19.347800   35.975400   58.935300
  H     19.564200   34.690100   59.874400
  C     19.572800   36.724800   60.800200
  H     19.577400   36.397900   61.805400
  H     20.662900   36.831300   60.548500
  C     18.939000   38.196800   60.792700
  H     17.910600   38.273000   61.121000
  H     19.562300   38.871700   61.488400
  H     18.934900   38.662000   59.793300
  S     13.349100   33.680600   61.747100
  C     12.585600   34.139400   63.216000
  C     12.988600   35.344500   63.685100
  C     14.041500   35.930500   62.969700
  C     14.401500   35.122900   61.899300
  H     12.511800   35.808600   64.557600
  C     14.552900   37.343700   63.418800
  H     15.625500   37.291100   63.275900
  H     14.608500   37.475800   64.527700
  C     14.042200   38.572800   62.587700
  H     14.570800   39.354400   62.992500
  H     12.940400   38.718000   62.736400
  C     14.487000   38.447500   61.140600
  H     14.297100   39.389400   60.742300
  H     14.018800   37.633900   60.565100
  H     15.527700   38.205300   61.096700
  H     17.273000   35.335600   57.769200
  H     11.738500   33.555200   63.636000

 Total Charge           Charge          ....    0
 Multiplicity           Mult            ....    1
 Number of Electrons    NEL             ....  134
 Basis Dimension        Dim             ....  322

ORBITAL ENERGIES
----------------

  NO   OCC          E(Eh)            E(eV)
   0   2.0000     -88.970672     -2421.0151
   1   2.0000     -88.964146     -2420.8375
   2   2.0000     -10.328277      -281.0467
   3   2.0000     -10.325426      -280.9691
   4   2.0000     -10.318815      -280.7892
   5   2.0000     -10.311522      -280.5908
   6   2.0000     -10.307915      -280.4926
   7   2.0000     -10.303862      -280.3823
   8   2.0000     -10.297830      -280.2182
   9   2.0000     -10.297058      -280.1972
  10   2.0000     -10.293252      -280.0936
  11   2.0000     -10.289889      -280.0021
  12   2.0000     -10.288626      -279.9677
  13   2.0000     -10.284840      -279.8647
  14   2.0000     -10.283778      -279.8358
  15   2.0000     -10.262572      -279.2588
  16   2.0000      -8.084324      -219.9857
  17   2.0000      -8.079084      -219.8430
  18   2.0000      -6.043043      -164.4396
  19   2.0000      -6.039145      -164.3335
  20   2.0000      -6.037439      -164.2871
  21   2.0000      -6.034750      -164.2139
  22   2.0000      -6.033693      -164.1851
  23   2.0000      -6.029871      -164.0811
  24   2.0000      -1.004235       -27.3266
  25   2.0000      -0.981059       -26.6960
  26   2.0000      -0.911118       -24.7928
  27   2.0000      -0.905264       -24.6335
  28   2.0000      -0.863352       -23.4930
  29   2.0000      -0.852038       -23.1851
  30   2.0000      -0.838897       -22.8275
  31   2.0000      -0.811827       -22.0909
  32   2.0000      -0.784487       -21.3470
  33   2.0000      -0.772684       -21.0258
  34   2.0000      -0.706685       -19.2299
  35   2.0000      -0.699438       -19.0327
  36   2.0000      -0.687403       -18.7052
  37   2.0000      -0.654261       -17.8034
  38   2.0000      -0.639133       -17.3917
  39   2.0000      -0.616704       -16.7814
  40   2.0000      -0.597789       -16.2667
  41   2.0000      -0.559078       -15.2133
  42   2.0000      -0.553038       -15.0489
  43   2.0000      -0.549143       -14.9429
  44   2.0000      -0.543065       -14.7776
  45   2.0000      -0.532064       -14.4782
  46   2.0000      -0.510420       -13.8892
  47   2.0000      -0.504189       -13.7197
  48   2.0000      -0.497855       -13.5473
  49   2.0000      -0.492934       -13.4134
  50   2.0000      -0.488925       -13.3043
  51   2.0000      -0.478057       -13.0086
  52   2.0000      -0.467756       -12.7283
  53   2.0000      -0.459234       -12.4964
  54   2.0000      -0.453435       -12.3386
  55   2.0000      -0.448315       -12.1993
  56   2.0000      -0.445062       -12.1108
  57   2.0000      -0.441732       -12.0201
  58   2.0000      -0.432160       -11.7597
  59   2.0000      -0.424269       -11.5450
  60   2.0000      -0.422665       -11.5013
  61   2.0000      -0.413771       -11.2593
  62   2.0000      -0.412058       -11.2127
  63   2.0000      -0.345290        -9.3958
  64   2.0000      -0.334919        -9.1136
  65   2.0000      -0.323350        -8.7988
  66   2.0000      -0.294805        -8.0220
  67   0.0000       0.036824         1.0020
  68   0.0000       0.066566         1.8114
  69   0.0000       0.106119         2.8876
  70   0.0000       0.120626         3.2824
  71   0.0000       0.126131         3.4322

MULLIKEN ATOMIC CHARGES
-----------------------
   0 S :    0.117314
   1 C :   -0.117737
   2 C :   -0.112863
   3 C :    0.009632
   4 C :   -0.149650
   5 H :    0.049584
   6 C :    0.113207
   7 H :   -0.014922
   8 H :    0.044731
   9 C :   -0.088965
  10 H :    0.023325
  11 H :    0.034953
  12 C :   -0.083588
  13 H :    0.038387
  14 H :    0.043813
  15 H :    0.036013
  16 S :    0.108906
  17 C :   -0.095692
  18 C :   -0.038081
  19 C :   -0.015648
  20 C :   -0.205630
  21 H :    0.018454
  22 C :    0.041199
  23 H :   -0.003017
  24 H :    0.029938
  25 C :   -0.019672
  26 H :    0.009394
  27 H :    0.042205
  28 C :   -0.010094
  29 H :    0.019637
  30 H :    0.041078
  31 H :    0.016263
  32 H :    0.052254
  33 H :    0.065271
Sum of atomic charges:   -0.0000000

LOEWDIN ATOMIC CHARGES
----------------------
   0 S :    0.389581
   1 C :   -0.201813
   2 C :   -0.053625
   3 C :   -0.064998
   4 C :   -0.193111
   5 H :    0.046048
   6 C :   -0.044581
   7 H :    0.021898
   8 H :    0.045428
   9 C :   -0.039060
  10 H :    0.013723
  11 H :    0.032780
  12 C :   -0.072003
  13 H :    0.019585
  14 H :    0.036962
  15 H :    0.025942
  16 S :    0.399890
  17 C :   -0.197251
  18 C :   -0.078741
  19 C :   -0.056233
  20 C :   -0.182914
  21 H :    0.034580
  22 C :   -0.037764
  23 H :    0.024051
  24 H :    0.033992
  25 C :   -0.024330
  26 H :    0.014595
  27 H :    0.029264
  28 C :   -0.055544
  29 H :    0.018467
  30 H :    0.025766
  31 H :    0.021352
  32 H :    0.033284
  33 H :    0.034780

  Mayer bond orders larger than 0.100000
B(  0-S ,  1-C ) :   1.1100 B(  0-S ,  4-C ) :   1.1229 B(  1-C ,  2-C ) :   1.6508
B(  1-C , 32-H ) :   0.9623 B(  2-C ,  3-C ) :   1.1707 B(  2-C ,  6-C ) :   1.0484
B(  3-C ,  4-C ) :   1.6525 B(  3-C ,  5-H ) :   0.9780 B(  4-C , 20-C ) :   1.0100
B(  6-C ,  7-H ) :   0.9249 B(  6-C ,  8-H ) :   0.9254 B(  6-C ,  9-C ) :   1.0667
B(  9-C , 10-H ) :   0.9583 B(  9-C , 11-H ) :   0.9561 B(  9-C , 12-C ) :   1.0640
B( 12-C , 13-H ) :   0.9753 B( 12-C , 14-H ) :   0.9721 B( 12-C , 15-H ) :   0.9768
B( 16-S , 17-C ) :   1.1522 B( 16-S , 20-C ) :   1.1481 B( 17-C , 18-C ) :   1.6148
B( 17-C , 33-H ) :   0.9603 B( 18-C , 19-C ) :   1.2510 B( 18-C , 21-H ) :   0.9891
B( 19-C , 20-C ) :   1.6114 B( 19-C , 22-C ) :   1.0172 B( 22-C , 23-H ) :   0.9279
B( 22-C , 24-H ) :   0.9413 B( 22-C , 25-C ) :   1.0690 B( 25-C , 26-H ) :   0.9482
B( 25-C , 27-H ) :   0.9567 B( 25-C , 28-C ) :   1.0865 B( 28-C , 29-H ) :   0.9679
B( 28-C , 30-H ) :   0.9634 B( 28-C , 31-H ) :   0.9696

Dispersion correction           -0.016682105
FINAL SINGLE POINT ENERGY     -1339.861841221062

DIPOLE MOMENT
-------------
                                X             Y             Z
Electronic contribution:    -16.53545     -21.43494      -5.01320
Nuclear contribution   :     16.99451      21.85881       5.28820
                        -----------------------------------------
Total Dipole Moment    :      0.45906       0.42387       0.27500
                        -----------------------------------------
Magnitude (a.u.)       :      0.68266
Magnitude (Debye)      :      1.73519

Rotational constants in cm-1:     0.019792     0.010046     0.008122
Rotational constants in MHz :   593.347437   301.163303   243.498618

                             ****ORCA TERMINATED NORMALLY****
TOTAL RUN TIME: 0 days 0 hours 0 minutes 38 seconds 563 msec
