                         Program Version 4.2.1 -  RELEASE  -
|  1> ! wB97X-D3 SP def2-SVP
|  2> %pal
|  3> nprocs 16
|  4> end
|  5>
|  6> * xyz 0 1
|  7> S 	 13.1624 	 -12.8816 	 77.317
|  8> C 	 13.9883 	 -11.9722 	 78.6435
|  9> C 	 15.3626 	 -12.0361 	 78.4164
| 10> C 	 15.7295 	 -12.6207 	 77.1937
| 11> C 	 14.6988 	 -13.2155 	 76.5153
| 12> H 	 16.6473 	 -12.6367 	 76.6777
| 13> C 	 16.3339 	 -11.2434 	 79.3129
| 14> H 	 16.1093 	 -11.6029 	 80.3059
| 15> H 	 16.0232 	 -10.2197 	 79.3381
| 16> C 	 17.8509 	 -11.2376 	 79.0572
| 17> H 	 18.3664 	 -12.2387 	 79.0855
| 18> H 	 18.007 	 -11.0159 	 77.9533
| 19> C 	 18.6855 	 -10.3079 	 79.9005
| 20> H 	 18.2951 	 -9.26392 	 79.7689
| 21> H 	 18.3984 	 -10.5948 	 80.9607
| 22> H 	 19.7023 	 -10.3615 	 79.624
| 23> S 	 14.7696 	 -15.7715 	 75.4345
| 24> C 	 15.5145 	 -15.9746 	 73.8463
| 25> C 	 15.7843 	 -14.7442 	 73.244
| 26> C 	 15.4529 	 -13.6296 	 74.1116
| 27> C 	 14.9108 	 -14.0166 	 75.3373
| 28> H 	 16.2558 	 -14.6573 	 72.2437
| 29> C 	 15.5594 	 -12.2095 	 73.6496
| 30> H 	 16.1721 	 -12.2245 	 72.7472
| 31> H 	 16.0329 	 -11.5068 	 74.3809
| 32> C 	 14.2939 	 -11.6259 	 73.2652
| 33> H 	 13.6593 	 -11.5198 	 74.1372
| 34> H 	 13.8188 	 -12.338 	 72.6018
| 35> C 	 14.4496 	 -10.4233 	 72.3691
| 36> H 	 15.0515 	 -9.66007 	 72.7902
| 37> H 	 13.4968 	 -9.89544 	 72.2701
| 38> H 	 14.7208 	 -10.7916 	 71.3273
| 39> H 	 13.5894 	 -11.7092 	 79.559
| 40> H 	 15.8696 	 -16.8066 	 73.2861
| 41> *
| 42>
| 43>                          ****END OF INPUT****

CARTESIAN COORDINATES (ANGSTROEM)
---------------------------------
  S     13.162400  -12.881600   77.317000
  C     13.988300  -11.972200   78.643500
  C     15.362600  -12.036100   78.416400
  C     15.729500  -12.620700   77.193700
  C     14.698800  -13.215500   76.515300
  H     16.647300  -12.636700   76.677700
  C     16.333900  -11.243400   79.312900
  H     16.109300  -11.602900   80.305900
  H     16.023200  -10.219700   79.338100
  C     17.850900  -11.237600   79.057200
  H     18.366400  -12.238700   79.085500
  H     18.007000  -11.015900   77.953300
  C     18.685500  -10.307900   79.900500
  H     18.295100   -9.263920   79.768900
  H     18.398400  -10.594800   80.960700
  H     19.702300  -10.361500   79.624000
  S     14.769600  -15.771500   75.434500
  C     15.514500  -15.974600   73.846300
  C     15.784300  -14.744200   73.244000
  C     15.452900  -13.629600   74.111600
  C     14.910800  -14.016600   75.337300
  H     16.255800  -14.657300   72.243700
  C     15.559400  -12.209500   73.649600
  H     16.172100  -12.224500   72.747200
  H     16.032900  -11.506800   74.380900
  C     14.293900  -11.625900   73.265200
  H     13.659300  -11.519800   74.137200
  H     13.818800  -12.338000   72.601800
  C     14.449600  -10.423300   72.369100
  H     15.051500   -9.660070   72.790200
  H     13.496800   -9.895440   72.270100
  H     14.720800  -10.791600   71.327300
  H     13.589400  -11.709200   79.559000
  H     15.869600  -16.806600   73.286100

 Total Charge           Charge          ....    0
 Multiplicity           Mult            ....    1
 Number of Electrons    NEL             ....  134
 Basis Dimension        Dim             ....  322

ORBITAL ENERGIES
----------------

  NO   OCC          E(Eh)            E(eV)
   0   2.0000     -88.970707     -2421.0160
   1   2.0000     -88.969640     -2420.9870
   2   2.0000     -10.328850      -281.0623
   3   2.0000     -10.326390      -280.9954
   4   2.0000     -10.319904      -280.8189
   5   2.0000     -10.314717      -280.6777
   6   2.0000     -10.305907      -280.4380
   7   2.0000     -10.304380      -280.3964
   8   2.0000     -10.300076      -280.2793
   9   2.0000     -10.293452      -280.0991
  10   2.0000     -10.293199      -280.0922
  11   2.0000     -10.287930      -279.9488
  12   2.0000     -10.285379      -279.8794
  13   2.0000     -10.283340      -279.8239
  14   2.0000     -10.275943      -279.6226
  15   2.0000     -10.269849      -279.4568
  16   2.0000      -8.084509      -219.9907
  17   2.0000      -8.082774      -219.9435
  18   2.0000      -6.043200      -164.4438
  19   2.0000      -6.041368      -164.3940
  20   2.0000      -6.039084      -164.3318
  21   2.0000      -6.037394      -164.2858
  22   2.0000      -6.035169      -164.2253
  23   2.0000      -6.033645      -164.1838
  24   2.0000      -1.004603       -27.3366
  25   2.0000      -0.980001       -26.6672
  26   2.0000      -0.924167       -25.1479
  27   2.0000      -0.910627       -24.7794
  28   2.0000      -0.874148       -23.7868
  29   2.0000      -0.850901       -23.1542
  30   2.0000      -0.846871       -23.0445
  31   2.0000      -0.819337       -22.2953
  32   2.0000      -0.783436       -21.3184
  33   2.0000      -0.771358       -20.9897
  34   2.0000      -0.714921       -19.4540
  35   2.0000      -0.691512       -18.8170
  36   2.0000      -0.687692       -18.7131
  37   2.0000      -0.660854       -17.9828
  38   2.0000      -0.648061       -17.6346
  39   2.0000      -0.617931       -16.8147
  40   2.0000      -0.597681       -16.2637
  41   2.0000      -0.578697       -15.7472
  42   2.0000      -0.572253       -15.5718
  43   2.0000      -0.562803       -15.3147
  44   2.0000      -0.539096       -14.6696
  45   2.0000      -0.521522       -14.1913
  46   2.0000      -0.516897       -14.0655
  47   2.0000      -0.510539       -13.8925
  48   2.0000      -0.507920       -13.8212
  49   2.0000      -0.501404       -13.6439
  50   2.0000      -0.495174       -13.4744
  51   2.0000      -0.477609       -12.9964
  52   2.0000      -0.475287       -12.9332
  53   2.0000      -0.466473       -12.6934
  54   2.0000      -0.454067       -12.3558
  55   2.0000      -0.450134       -12.2488
  56   2.0000      -0.449635       -12.2352
  57   2.0000      -0.433807       -11.8045
  58   2.0000      -0.429273       -11.6811
  59   2.0000      -0.422323       -11.4920
  60   2.0000      -0.418133       -11.3780
  61   2.0000      -0.411171       -11.1885
  62   2.0000      -0.405686       -11.0393
  63   2.0000      -0.340436        -9.2637
  64   2.0000      -0.331504        -9.0207
  65   2.0000      -0.327724        -8.9178
  66   2.0000      -0.300108        -8.1664
  67   0.0000       0.030613         0.8330
  68   0.0000       0.052544         1.4298
  69   0.0000       0.116930         3.1818
  70   0.0000       0.119543         3.2529
  71   0.0000       0.127982         3.4826

MULLIKEN ATOMIC CHARGES
-----------------------
   0 S :    0.106712
   1 C :   -0.101002
   2 C :   -0.054214
   3 C :    0.044203
   4 C :   -0.170419
   5 H :    0.002048
   6 C :    0.067384
   7 H :    0.019677
   8 H :    0.031745
   9 C :   -0.128675
  10 H :    0.033837
  11 H :    0.026178
  12 C :   -0.027878
  13 H :    0.031520
  14 H :    0.038191
  15 H :    0.042128
  16 S :    0.126400
  17 C :   -0.066613
  18 C :   -0.066872
  19 C :   -0.043636
  20 C :   -0.163699
  21 H :    0.036277
  22 C :    0.084774
  23 H :   -0.001347
  24 H :    0.027507
  25 C :   -0.059072
  26 H :    0.027817
  27 H :    0.012901
  28 C :   -0.040488
  29 H :    0.020737
  30 H :    0.026661
  31 H :    0.044570
  32 H :    0.027916
  33 H :    0.044733
Sum of atomic charges:    0.0000000

LOEWDIN ATOMIC CHARGES
----------------------
   0 S :    0.383467
   1 C :   -0.175508
   2 C :   -0.050746
   3 C :   -0.057887
   4 C :   -0.190218
   5 H :    0.027818
   6 C :   -0.033122
   7 H :    0.029309
   8 H :    0.031944
   9 C :   -0.058568
  10 H :    0.026900
  11 H :    0.022917
  12 C :   -0.061697
  13 H :    0.027318
  14 H :    0.033796
  15 H :    0.024652
  16 S :    0.407306
  17 C :   -0.182897
  18 C :   -0.074714
  19 C :   -0.048647
  20 C :   -0.202649
  21 H :    0.037879
  22 C :   -0.038716
  23 H :    0.026248
  24 H :    0.032678
  25 C :   -0.046102
  26 H :    0.021535
  27 H :    0.024568
  28 C :   -0.063654
  29 H :    0.016754
  30 H :    0.029087
  31 H :    0.035427
  32 H :    0.014857
  33 H :    0.030668

  Mayer bond orders larger than 0.100000
B(  0-S ,  1-C ) :   1.1248 B(  0-S ,  4-C ) :   1.1392 B(  1-C ,  2-C ) :   1.6075
B(  1-C ,  4-C ) :   0.1087 B(  1-C , 32-H ) :   0.9805 B(  2-C ,  3-C ) :   1.2405
B(  2-C ,  6-C ) :   0.9983 B(  3-C ,  4-C ) :   1.5792 B(  3-C ,  5-H ) :   0.9982
B(  4-C , 20-C ) :   1.0411 B(  6-C ,  7-H ) :   0.9316 B(  6-C ,  8-H ) :   0.9475
B(  6-C ,  9-C ) :   1.0692 B(  9-C , 10-H ) :   0.9537 B(  9-C , 11-H ) :   0.9441
B(  9-C , 12-C ) :   1.0872 B( 12-C , 13-H ) :   0.9735 B( 12-C , 14-H ) :   0.9739
B( 12-C , 15-H ) :   0.9704 B( 16-S , 17-C ) :   1.1517 B( 16-S , 20-C ) :   1.1238
B( 17-C , 18-C ) :   1.6233 B( 17-C , 33-H ) :   0.9646 B( 18-C , 19-C ) :   1.2463
B( 18-C , 21-H ) :   0.9769 B( 19-C , 20-C ) :   1.5896 B( 19-C , 22-C ) :   1.0590
B( 22-C , 23-H ) :   0.9238 B( 22-C , 24-H ) :   0.9172 B( 22-C , 25-C ) :   1.0864
B( 25-C , 26-H ) :   0.9489 B( 25-C , 27-H ) :   0.9475 B( 25-C , 28-C ) :   1.0887
B( 28-C , 29-H ) :   0.9720 B( 28-C , 30-H ) :   0.9696 B( 28-C , 31-H ) :   0.9741

Dispersion correction           -0.014157345
FINAL SINGLE POINT ENERGY     -1339.857602600441

DIPOLE MOMENT
-------------
                                X             Y             Z
Electronic contribution:    -14.62046     -21.67595       1.30463
Nuclear contribution   :     15.15833      22.07334      -1.41664
                        -----------------------------------------
Total Dipole Moment    :      0.53786       0.39739      -0.11201
                        -----------------------------------------
Magnitude (a.u.)       :      0.67806
Magnitude (Debye)      :      1.72348

Rotational constants in cm-1:     0.016719     0.008119     0.007404
Rotational constants in MHz :   501.222318   243.386569   221.956484

                             ****ORCA TERMINATED NORMALLY****
TOTAL RUN TIME: 0 days 0 hours 0 minutes 28 seconds 315 msec
