                         Program Version 4.2.1 -  RELEASE  -
|  1> ! wB97X-D3 SP def2-SVP
|  2> %pal
|  3> nprocs 16
|  4> end
|  5>
|  6> * xyz 0 1
|  7> S 	 0.937702 	 -10.709 	 81.068
|  8> C 	 -0.027111 	 -11.1105 	 82.4927
|  9> C 	 -1.10304 	 -10.2868 	 82.4844
| 10> C 	 -0.996704 	 -9.2025 	 81.5582
| 11> C 	 0.181082 	 -9.19687 	 80.819
| 12> H 	 -1.7117 	 -8.43666 	 81.3093
| 13> C 	 -2.10199 	 -10.4025 	 83.61
| 14> H 	 -2.27596 	 -11.4885 	 83.6782
| 15> H 	 -3.05106 	 -10.0413 	 83.2872
| 16> C 	 -1.75806 	 -9.81845 	 85.0327
| 17> H 	 -0.964253 	 -10.3702 	 85.456
| 18> H 	 -1.44449 	 -8.75767 	 84.8899
| 19> C 	 -3.01169 	 -9.76774 	 85.9021
| 20> H 	 -2.80233 	 -9.2013 	 86.8117
| 21> H 	 -3.7877 	 -9.28647 	 85.3396
| 22> H 	 -3.30161 	 -10.8242 	 86.2184
| 23> S 	 -0.228082 	 -8.74043 	 78.108
| 24> C 	 0.210212 	 -7.17469 	 77.39
| 25> C 	 0.98598 	 -6.50536 	 78.3183
| 26> C 	 1.11357 	 -7.12941 	 79.5988
| 27> C 	 0.451266 	 -8.38401 	 79.6703
| 28> H 	 1.45043 	 -5.58918 	 77.987
| 29> C 	 2.04701 	 -6.65163 	 80.6606
| 30> H 	 1.48762 	 -6.62911 	 81.5824
| 31> H 	 2.35937 	 -5.67254 	 80.41
| 32> C 	 3.25128 	 -7.58445 	 80.9933
| 33> H 	 3.91524 	 -7.70195 	 80.0885
| 34> H 	 2.96004 	 -8.56573 	 81.3218
| 35> C 	 4.2649 	 -7.03515 	 81.9902
| 36> H 	 4.78221 	 -6.16813 	 81.6661
| 37> H 	 4.90358 	 -7.86504 	 82.3013
| 38> H 	 3.66284 	 -6.81186 	 82.7976
| 39> H 	 0.103487 	 -11.9812 	 83.1228
| 40> H 	 0.0400288 	 -6.92799 	 76.3805
| 41> *
| 42>
| 43>                          ****END OF INPUT****

CARTESIAN COORDINATES (ANGSTROEM)
---------------------------------
  S      0.937702  -10.709000   81.068000
  C     -0.027111  -11.110500   82.492700
  C     -1.103040  -10.286800   82.484400
  C     -0.996704   -9.202500   81.558200
  C      0.181082   -9.196870   80.819000
  H     -1.711700   -8.436660   81.309300
  C     -2.101990  -10.402500   83.610000
  H     -2.275960  -11.488500   83.678200
  H     -3.051060  -10.041300   83.287200
  C     -1.758060   -9.818450   85.032700
  H     -0.964253  -10.370200   85.456000
  H     -1.444490   -8.757670   84.889900
  C     -3.011690   -9.767740   85.902100
  H     -2.802330   -9.201300   86.811700
  H     -3.787700   -9.286470   85.339600
  H     -3.301610  -10.824200   86.218400
  S     -0.228082   -8.740430   78.108000
  C      0.210212   -7.174690   77.390000
  C      0.985980   -6.505360   78.318300
  C      1.113570   -7.129410   79.598800
  C      0.451266   -8.384010   79.670300
  H      1.450430   -5.589180   77.987000
  C      2.047010   -6.651630   80.660600
  H      1.487620   -6.629110   81.582400
  H      2.359370   -5.672540   80.410000
  C      3.251280   -7.584450   80.993300
  H      3.915240   -7.701950   80.088500
  H      2.960040   -8.565730   81.321800
  C      4.264900   -7.035150   81.990200
  H      4.782210   -6.168130   81.666100
  H      4.903580   -7.865040   82.301300
  H      3.662840   -6.811860   82.797600
  H      0.103487  -11.981200   83.122800
  H      0.040029   -6.927990   76.380500

 Total Charge           Charge          ....    0
 Multiplicity           Mult            ....    1
 Number of Electrons    NEL             ....  134
 Basis Dimension        Dim             ....  322

ORBITAL ENERGIES
----------------

  NO   OCC          E(Eh)            E(eV)
   0   2.0000     -88.963482     -2420.8194
   1   2.0000     -88.963255     -2420.8132
   2   2.0000     -10.325984      -280.9843
   3   2.0000     -10.325004      -280.9576
   4   2.0000     -10.318782      -280.7883
   5   2.0000     -10.315124      -280.6888
   6   2.0000     -10.303980      -280.3855
   7   2.0000     -10.299980      -280.2767
   8   2.0000     -10.296204      -280.1740
   9   2.0000     -10.295116      -280.1443
  10   2.0000     -10.289889      -280.0021
  11   2.0000     -10.289259      -279.9850
  12   2.0000     -10.284059      -279.8435
  13   2.0000     -10.283265      -279.8219
  14   2.0000     -10.279230      -279.7121
  15   2.0000     -10.262512      -279.2571
  16   2.0000      -8.078354      -219.8232
  17   2.0000      -8.077868      -219.8100
  18   2.0000      -6.036784      -164.2692
  19   2.0000      -6.036416      -164.2592
  20   2.0000      -6.032774      -164.1601
  21   2.0000      -6.032185      -164.1441
  22   2.0000      -6.029155      -164.0617
  23   2.0000      -6.028846      -164.0532
  24   2.0000      -1.011824       -27.5331
  25   2.0000      -0.985037       -26.8042
  26   2.0000      -0.912104       -24.8196
  27   2.0000      -0.905631       -24.6435
  28   2.0000      -0.875788       -23.8314
  29   2.0000      -0.850630       -23.1468
  30   2.0000      -0.846536       -23.0354
  31   2.0000      -0.819102       -22.2889
  32   2.0000      -0.780915       -21.2498
  33   2.0000      -0.768582       -20.9142
  34   2.0000      -0.710358       -19.3298
  35   2.0000      -0.702090       -19.1048
  36   2.0000      -0.688503       -18.7351
  37   2.0000      -0.661358       -17.9965
  38   2.0000      -0.647742       -17.6260
  39   2.0000      -0.613242       -16.6872
  40   2.0000      -0.593907       -16.1610
  41   2.0000      -0.576625       -15.6908
  42   2.0000      -0.569078       -15.4854
  43   2.0000      -0.563738       -15.3401
  44   2.0000      -0.528916       -14.3925
  45   2.0000      -0.524035       -14.2597
  46   2.0000      -0.522715       -14.2238
  47   2.0000      -0.518401       -14.1064
  48   2.0000      -0.510236       -13.8842
  49   2.0000      -0.509011       -13.8509
  50   2.0000      -0.491604       -13.3772
  51   2.0000      -0.482148       -13.1199
  52   2.0000      -0.471083       -12.8188
  53   2.0000      -0.462444       -12.5837
  54   2.0000      -0.457362       -12.4455
  55   2.0000      -0.448762       -12.2114
  56   2.0000      -0.444782       -12.1031
  57   2.0000      -0.437565       -11.9067
  58   2.0000      -0.434000       -11.8097
  59   2.0000      -0.421626       -11.4730
  60   2.0000      -0.418700       -11.3934
  61   2.0000      -0.411533       -11.1984
  62   2.0000      -0.400824       -10.9070
  63   2.0000      -0.336140        -9.1468
  64   2.0000      -0.325954        -8.8696
  65   2.0000      -0.321207        -8.7405
  66   2.0000      -0.308186        -8.3862
  67   0.0000       0.038586         1.0500
  68   0.0000       0.043301         1.1783
  69   0.0000       0.111030         3.0213
  70   0.0000       0.122855         3.3430
  71   0.0000       0.139336         3.7915

MULLIKEN ATOMIC CHARGES
-----------------------
   0 S :    0.105799
   1 C :   -0.119250
   2 C :   -0.069977
   3 C :    0.043940
   4 C :   -0.175941
   5 H :    0.012875
   6 C :    0.045487
   7 H :    0.019732
   8 H :    0.001622
   9 C :   -0.042667
  10 H :    0.020819
  11 H :    0.033794
  12 C :   -0.053702
  13 H :    0.038819
  14 H :    0.032339
  15 H :    0.038230
  16 S :    0.109585
  17 C :   -0.094227
  18 C :   -0.027124
  19 C :   -0.030654
  20 C :   -0.165886
  21 H :    0.016853
  22 C :    0.128883
  23 H :    0.022390
  24 H :   -0.000571
  25 C :   -0.106469
  26 H :    0.026792
  27 H :    0.022155
  28 C :   -0.001086
  29 H :    0.028982
  30 H :    0.036499
  31 H :   -0.001034
  32 H :    0.053383
  33 H :    0.049610
Sum of atomic charges:    0.0000000

LOEWDIN ATOMIC CHARGES
----------------------
   0 S :    0.421930
   1 C :   -0.180728
   2 C :   -0.071686
   3 C :   -0.052322
   4 C :   -0.214595
   5 H :    0.031780
   6 C :   -0.034732
   7 H :    0.030957
   8 H :    0.020436
   9 C :   -0.032187
  10 H :    0.015648
  11 H :    0.029143
  12 C :   -0.063569
  13 H :    0.027399
  14 H :    0.022264
  15 H :    0.030804
  16 S :    0.406253
  17 C :   -0.171204
  18 C :   -0.071685
  19 C :   -0.049259
  20 C :   -0.214610
  21 H :    0.030547
  22 C :   -0.029235
  23 H :    0.033217
  24 H :    0.022319
  25 C :   -0.037222
  26 H :    0.024384
  27 H :    0.012742
  28 C :   -0.055973
  29 H :    0.019005
  30 H :    0.033229
  31 H :    0.011302
  32 H :    0.032311
  33 H :    0.023339

  Mayer bond orders larger than 0.100000
B(  0-S ,  1-C ) :   1.1431 B(  0-S ,  4-C ) :   1.1600 B(  1-C ,  2-C ) :   1.5816
B(  1-C ,  4-C ) :   0.1030 B(  1-C , 32-H ) :   0.9783 B(  2-C ,  3-C ) :   1.2312
B(  2-C ,  6-C ) :   1.0377 B(  3-C ,  4-C ) :   1.5662 B(  3-C ,  5-H ) :   1.0070
B(  4-C , 20-C ) :   1.0225 B(  6-C ,  7-H ) :   0.9356 B(  6-C ,  8-H ) :   0.9409
B(  6-C ,  9-C ) :   1.0529 B(  9-C , 10-H ) :   0.9554 B(  9-C , 11-H ) :   0.9570
B(  9-C , 12-C ) :   1.0832 B( 12-C , 13-H ) :   0.9739 B( 12-C , 14-H ) :   0.9752
B( 12-C , 15-H ) :   0.9756 B( 16-S , 17-C ) :   1.1637 B( 16-S , 20-C ) :   1.1572
B( 17-C , 18-C ) :   1.5738 B( 17-C , 20-C ) :   0.1105 B( 17-C , 33-H ) :   0.9761
B( 18-C , 19-C ) :   1.2724 B( 18-C , 21-H ) :   0.9909 B( 19-C , 20-C ) :   1.5381
B( 19-C , 22-C ) :   1.0713 B( 22-C , 23-H ) :   0.9098 B( 22-C , 24-H ) :   0.9319
B( 22-C , 25-C ) :   1.0648 B( 25-C , 26-H ) :   0.9600 B( 25-C , 27-H ) :   0.9496
B( 25-C , 28-C ) :   1.0867 B( 28-C , 29-H ) :   0.9775 B( 28-C , 30-H ) :   0.9711
B( 28-C , 31-H ) :   0.9715

Dispersion correction           -0.014015870
FINAL SINGLE POINT ENERGY     -1339.863912306913

DIPOLE MOMENT
-------------
                                X             Y             Z
Electronic contribution:     -1.28029      -6.70742     -23.70470
Nuclear contribution   :      1.12606       6.95020      24.09848
                        -----------------------------------------
Total Dipole Moment    :     -0.15423       0.24278       0.39379
                        -----------------------------------------
Magnitude (a.u.)       :      0.48764
Magnitude (Debye)      :      1.23949

Rotational constants in cm-1:     0.019006     0.007906     0.006818
Rotational constants in MHz :   569.778254   237.029733   204.394127

                             ****ORCA TERMINATED NORMALLY****
TOTAL RUN TIME: 0 days 0 hours 0 minutes 34 seconds 577 msec
