                         Program Version 4.2.1 -  RELEASE  -
|  1> ! wB97X-D3 SP def2-SVP
|  2> %pal
|  3> nprocs 16
|  4> end
|  5>
|  6> * xyz 0 1
|  7> S 	 14.197 	 11.6683 	 85.1015
|  8> C 	 14.4344 	 12.2864 	 83.4369
|  9> C 	 13.495 	 11.7658 	 82.5493
| 10> C 	 12.6742 	 10.7901 	 83.2233
| 11> C 	 13.0119 	 10.5447 	 84.5082
| 12> H 	 11.8933 	 10.1443 	 82.7963
| 13> C 	 13.4225 	 11.9612 	 81.0206
| 14> H 	 13.028 	 11.0082 	 80.5564
| 15> H 	 14.4007 	 12.118 	 80.6303
| 16> C 	 12.4142 	 13.0159 	 80.3562
| 17> H 	 12.7725 	 13.973 	 80.722
| 18> H 	 12.5198 	 13.1185 	 79.2608
| 19> C 	 11.0166 	 12.8149 	 80.9317
| 20> H 	 11.0455 	 13.1963 	 82.0288
| 21> H 	 10.2605 	 13.4072 	 80.4241
| 22> H 	 10.6386 	 11.8394 	 80.9122
| 23> S 	 11.5712 	 10.6814 	 86.8622
| 24> C 	 10.5831 	 9.30506 	 87.3819
| 25> C 	 10.5895 	 8.334 	 86.4339
| 26> C 	 11.551 	 8.55381 	 85.4106
| 27> C 	 12.1875 	 9.78726 	 85.4382
| 28> H 	 10.0787 	 7.40086 	 86.6801
| 29> C 	 11.929 	 7.44852 	 84.4577
| 30> H 	 12.9586 	 7.3822 	 84.2784
| 31> H 	 11.7282 	 7.81898 	 83.4302
| 32> C 	 11.322 	 6.04479 	 84.7091
| 33> H 	 10.2406 	 6.11421 	 84.7567
| 34> H 	 11.6891 	 5.78028 	 85.6475
| 35> C 	 11.908 	 5.11098 	 83.6663
| 36> H 	 13.0091 	 5.0917 	 83.6124
| 37> H 	 11.5354 	 5.44502 	 82.6341
| 38> H 	 11.6519 	 4.09669 	 83.7811
| 39> H 	 15.1066 	 13.081 	 83.1236
| 40> H 	 9.99826 	 9.22917 	 88.2754
| 41> *
| 42>
| 43>                          ****END OF INPUT****

CARTESIAN COORDINATES (ANGSTROEM)
---------------------------------
  S     14.197000   11.668300   85.101500
  C     14.434400   12.286400   83.436900
  C     13.495000   11.765800   82.549300
  C     12.674200   10.790100   83.223300
  C     13.011900   10.544700   84.508200
  H     11.893300   10.144300   82.796300
  C     13.422500   11.961200   81.020600
  H     13.028000   11.008200   80.556400
  H     14.400700   12.118000   80.630300
  C     12.414200   13.015900   80.356200
  H     12.772500   13.973000   80.722000
  H     12.519800   13.118500   79.260800
  C     11.016600   12.814900   80.931700
  H     11.045500   13.196300   82.028800
  H     10.260500   13.407200   80.424100
  H     10.638600   11.839400   80.912200
  S     11.571200   10.681400   86.862200
  C     10.583100    9.305060   87.381900
  C     10.589500    8.334000   86.433900
  C     11.551000    8.553810   85.410600
  C     12.187500    9.787260   85.438200
  H     10.078700    7.400860   86.680100
  C     11.929000    7.448520   84.457700
  H     12.958600    7.382200   84.278400
  H     11.728200    7.818980   83.430200
  C     11.322000    6.044790   84.709100
  H     10.240600    6.114210   84.756700
  H     11.689100    5.780280   85.647500
  C     11.908000    5.110980   83.666300
  H     13.009100    5.091700   83.612400
  H     11.535400    5.445020   82.634100
  H     11.651900    4.096690   83.781100
  H     15.106600   13.081000   83.123600
  H      9.998260    9.229170   88.275400

 Total Charge           Charge          ....    0
 Multiplicity           Mult            ....    1
 Number of Electrons    NEL             ....  134
 Basis Dimension        Dim             ....  322

ORBITAL ENERGIES
----------------

  NO   OCC          E(Eh)            E(eV)
   0   2.0000     -88.969718     -2420.9891
   1   2.0000     -88.960634     -2420.7419
   2   2.0000     -10.326641      -281.0022
   3   2.0000     -10.326385      -280.9952
   4   2.0000     -10.322629      -280.8930
   5   2.0000     -10.314988      -280.6851
   6   2.0000     -10.310985      -280.5762
   7   2.0000     -10.302077      -280.3338
   8   2.0000     -10.301208      -280.3101
   9   2.0000     -10.294794      -280.1356
  10   2.0000     -10.293278      -280.0943
  11   2.0000     -10.290412      -280.0163
  12   2.0000     -10.285035      -279.8700
  13   2.0000     -10.284719      -279.8614
  14   2.0000     -10.282225      -279.7936
  15   2.0000     -10.278342      -279.6879
  16   2.0000      -8.084007      -219.9770
  17   2.0000      -8.074608      -219.7212
  18   2.0000      -6.042589      -164.4272
  19   2.0000      -6.038736      -164.3224
  20   2.0000      -6.034533      -164.2080
  21   2.0000      -6.033221      -164.1723
  22   2.0000      -6.029213      -164.0632
  23   2.0000      -6.025292      -163.9565
  24   2.0000      -1.006765       -27.3955
  25   2.0000      -0.981457       -26.7068
  26   2.0000      -0.912208       -24.8224
  27   2.0000      -0.904860       -24.6225
  28   2.0000      -0.871301       -23.7093
  29   2.0000      -0.851015       -23.1573
  30   2.0000      -0.841939       -22.9103
  31   2.0000      -0.817322       -22.2405
  32   2.0000      -0.780666       -21.2430
  33   2.0000      -0.769740       -20.9457
  34   2.0000      -0.715408       -19.4673
  35   2.0000      -0.704312       -19.1653
  36   2.0000      -0.702263       -19.1095
  37   2.0000      -0.651779       -17.7358
  38   2.0000      -0.640754       -17.4358
  39   2.0000      -0.614734       -16.7278
  40   2.0000      -0.601390       -16.3646
  41   2.0000      -0.569882       -15.5073
  42   2.0000      -0.568965       -15.4823
  43   2.0000      -0.548695       -14.9307
  44   2.0000      -0.544279       -14.8106
  45   2.0000      -0.527002       -14.3404
  46   2.0000      -0.513742       -13.9796
  47   2.0000      -0.504821       -13.7369
  48   2.0000      -0.503122       -13.6906
  49   2.0000      -0.496425       -13.5084
  50   2.0000      -0.482075       -13.1179
  51   2.0000      -0.479639       -13.0516
  52   2.0000      -0.476351       -12.9622
  53   2.0000      -0.465645       -12.6709
  54   2.0000      -0.459480       -12.5031
  55   2.0000      -0.450173       -12.2498
  56   2.0000      -0.441159       -12.0046
  57   2.0000      -0.438163       -11.9230
  58   2.0000      -0.434264       -11.8169
  59   2.0000      -0.429287       -11.6815
  60   2.0000      -0.425187       -11.5699
  61   2.0000      -0.412427       -11.2227
  62   2.0000      -0.410117       -11.1599
  63   2.0000      -0.350786        -9.5454
  64   2.0000      -0.330816        -9.0020
  65   2.0000      -0.326809        -8.8929
  66   2.0000      -0.290683        -7.9099
  67   0.0000       0.026278         0.7151
  68   0.0000       0.068615         1.8671
  69   0.0000       0.102684         2.7942
  70   0.0000       0.116018         3.1570
  71   0.0000       0.136866         3.7243

MULLIKEN ATOMIC CHARGES
-----------------------
   0 S :    0.103995
   1 C :   -0.113397
   2 C :   -0.066677
   3 C :    0.010813
   4 C :   -0.140044
   5 H :    0.025863
   6 C :    0.024542
   7 H :    0.036657
   8 H :    0.025089
   9 C :   -0.060825
  10 H :    0.018769
  11 H :    0.041696
  12 C :   -0.067713
  13 H :    0.060072
  14 H :    0.031152
  15 H :    0.020926
  16 S :    0.077935
  17 C :   -0.079161
  18 C :   -0.046938
  19 C :   -0.037230
  20 C :   -0.116545
  21 H :    0.028372
  22 C :    0.032798
  23 H :    0.006973
  24 H :    0.003926
  25 C :   -0.031824
  26 H :    0.042625
  27 H :    0.019116
  28 C :   -0.038497
  29 H :    0.034676
  30 H :    0.031843
  31 H :    0.021536
  32 H :    0.050310
  33 H :    0.049167
Sum of atomic charges:   -0.0000000

LOEWDIN ATOMIC CHARGES
----------------------
   0 S :    0.395276
   1 C :   -0.180115
   2 C :   -0.061319
   3 C :   -0.056284
   4 C :   -0.201701
   5 H :    0.035305
   6 C :   -0.030451
   7 H :    0.035221
   8 H :    0.024157
   9 C :   -0.040869
  10 H :    0.020051
  11 H :    0.027421
  12 C :   -0.070561
  13 H :    0.044839
  14 H :    0.025384
  15 H :    0.012031
  16 S :    0.371861
  17 C :   -0.168386
  18 C :   -0.081522
  19 C :   -0.058536
  20 C :   -0.183747
  21 H :    0.036084
  22 C :   -0.037415
  23 H :    0.026184
  24 H :    0.030314
  25 C :   -0.032251
  26 H :    0.025761
  27 H :    0.017599
  28 C :   -0.062147
  29 H :    0.029648
  30 H :    0.032116
  31 H :    0.016898
  32 H :    0.030605
  33 H :    0.028549

  Mayer bond orders larger than 0.100000
B(  0-S ,  1-C ) :   1.1284 B(  0-S ,  4-C ) :   1.1278 B(  1-C ,  2-C ) :   1.6351
B(  1-C , 32-H ) :   0.9653 B(  2-C ,  3-C ) :   1.2150 B(  2-C ,  6-C ) :   1.0074
B(  3-C ,  4-C ) :   1.6184 B(  3-C ,  5-H ) :   0.9815 B(  4-C , 20-C ) :   1.0304
B(  6-C ,  7-H ) :   0.9541 B(  6-C ,  8-H ) :   0.9510 B(  6-C ,  9-C ) :   1.0547
B(  9-C , 10-H ) :   0.9568 B(  9-C , 11-H ) :   0.9614 B(  9-C , 12-C ) :   1.0712
B( 12-C , 13-H ) :   0.9691 B( 12-C , 14-H ) :   0.9728 B( 12-C , 15-H ) :   0.9806
B( 16-S , 17-C ) :   1.1494 B( 16-S , 20-C ) :   1.1112 B( 17-C , 18-C ) :   1.6282
B( 17-C , 33-H ) :   0.9636 B( 18-C , 19-C ) :   1.2432 B( 18-C , 21-H ) :   0.9777
B( 19-C , 20-C ) :   1.6248 B( 19-C , 22-C ) :   1.0241 B( 22-C , 23-H ) :   0.9349
B( 22-C , 24-H ) :   0.9152 B( 22-C , 25-C ) :   1.0708 B( 25-C , 26-H ) :   0.9481
B( 25-C , 27-H ) :   0.9491 B( 25-C , 28-C ) :   1.0863 B( 28-C , 29-H ) :   0.9727
B( 28-C , 30-H ) :   0.9738 B( 28-C , 31-H ) :   0.9718

Dispersion correction           -0.013816414
FINAL SINGLE POINT ENERGY     -1339.859604565448

DIPOLE MOMENT
-------------
                                X             Y             Z
Electronic contribution:      6.97720      11.48471      22.15292
Nuclear contribution   :     -7.16778     -11.81636     -22.71533
                        -----------------------------------------
Total Dipole Moment    :     -0.19058      -0.33166      -0.56242
                        -----------------------------------------
Magnitude (a.u.)       :      0.68017
Magnitude (Debye)      :      1.72885

Rotational constants in cm-1:     0.017123     0.008357     0.006831
Rotational constants in MHz :   513.341843   250.531928   204.795505

                             ****ORCA TERMINATED NORMALLY****
TOTAL RUN TIME: 0 days 0 hours 0 minutes 34 seconds 844 msec
