                         Program Version 4.2.1 -  RELEASE  -
|  1> ! wB97X-D3 SP def2-SVP
|  2> %pal
|  3> nprocs 16
|  4> end
|  5>
|  6> * xyz 0 1
|  7> S 	 2.34529 	 16.6296 	 52.9886
|  8> C 	 2.77949 	 16.5651 	 51.3038
|  9> C 	 1.78859 	 17.2242 	 50.5461
| 10> C 	 0.746205 	 17.7496 	 51.3202
| 11> C 	 0.878909 	 17.5786 	 52.6622
| 12> H 	 -0.137738 	 18.3704 	 50.9846
| 13> C 	 1.91814 	 17.6831 	 49.0637
| 14> H 	 2.84801 	 18.1695 	 48.8814
| 15> H 	 1.23601 	 18.5312 	 48.8806
| 16> C 	 1.72866 	 16.5202 	 48.0811
| 17> H 	 2.53242 	 15.8005 	 48.2917
| 18> H 	 0.749421 	 16.0516 	 48.2287
| 19> C 	 1.96838 	 16.8488 	 46.5938
| 20> H 	 2.60451 	 17.7852 	 46.4965
| 21> H 	 2.42268 	 16.0099 	 46.0118
| 22> H 	 1.02151 	 17.1444 	 46.0456
| 23> S 	 -1.2673 	 16.4323 	 53.9425
| 24> C 	 -2.45099 	 17.5809 	 54.6354
| 25> C 	 -1.92154 	 18.834 	 54.7869
| 26> C 	 -0.557639 	 19.0124 	 54.2878
| 27> C 	 -0.16475 	 17.8207 	 53.643
| 28> H 	 -2.43199 	 19.641 	 55.3611
| 29> C 	 0.171042 	 20.3673 	 54.3282
| 30> H 	 0.0365269 	 20.8718 	 53.3742
| 31> H 	 1.22422 	 20.1751 	 54.2323
| 32> C 	 -0.148615 	 21.3648 	 55.4841
| 33> H 	 -1.1976 	 21.5997 	 55.3505
| 34> H 	 0.424464 	 22.1337 	 55.1804
| 35> C 	 0.180627 	 20.9494 	 56.8972
| 36> H 	 -0.0637688 	 21.6694 	 57.6695
| 37> H 	 1.29373 	 20.7882 	 57.0371
| 38> H 	 -0.362779 	 20.036 	 57.0519
| 39> H 	 3.66503 	 16.4456 	 50.7123
| 40> H 	 -3.37138 	 17.4451 	 55.1268
| 41> *
| 42>
| 43>                          ****END OF INPUT****

CARTESIAN COORDINATES (ANGSTROEM)
---------------------------------
  S      2.345290   16.629600   52.988600
  C      2.779490   16.565100   51.303800
  C      1.788590   17.224200   50.546100
  C      0.746205   17.749600   51.320200
  C      0.878909   17.578600   52.662200
  H     -0.137738   18.370400   50.984600
  C      1.918140   17.683100   49.063700
  H      2.848010   18.169500   48.881400
  H      1.236010   18.531200   48.880600
  C      1.728660   16.520200   48.081100
  H      2.532420   15.800500   48.291700
  H      0.749421   16.051600   48.228700
  C      1.968380   16.848800   46.593800
  H      2.604510   17.785200   46.496500
  H      2.422680   16.009900   46.011800
  H      1.021510   17.144400   46.045600
  S     -1.267300   16.432300   53.942500
  C     -2.450990   17.580900   54.635400
  C     -1.921540   18.834000   54.786900
  C     -0.557639   19.012400   54.287800
  C     -0.164750   17.820700   53.643000
  H     -2.431990   19.641000   55.361100
  C      0.171042   20.367300   54.328200
  H      0.036527   20.871800   53.374200
  H      1.224220   20.175100   54.232300
  C     -0.148615   21.364800   55.484100
  H     -1.197600   21.599700   55.350500
  H      0.424464   22.133700   55.180400
  C      0.180627   20.949400   56.897200
  H     -0.063769   21.669400   57.669500
  H      1.293730   20.788200   57.037100
  H     -0.362779   20.036000   57.051900
  H      3.665030   16.445600   50.712300
  H     -3.371380   17.445100   55.126800

 Total Charge           Charge          ....    0
 Multiplicity           Mult            ....    1
 Number of Electrons    NEL             ....  134
 Basis Dimension        Dim             ....  322

ORBITAL ENERGIES
----------------

  NO   OCC          E(Eh)            E(eV)
   0   2.0000     -88.970356     -2421.0065
   1   2.0000     -88.967854     -2420.9384
   2   2.0000     -10.330852      -281.1168
   3   2.0000     -10.325281      -280.9652
   4   2.0000     -10.316317      -280.7212
   5   2.0000     -10.315710      -280.7047
   6   2.0000     -10.312750      -280.6242
   7   2.0000     -10.300591      -280.2933
   8   2.0000     -10.297609      -280.2122
   9   2.0000     -10.294832      -280.1366
  10   2.0000     -10.293292      -280.0947
  11   2.0000     -10.292616      -280.0763
  12   2.0000     -10.288427      -279.9623
  13   2.0000     -10.287601      -279.9399
  14   2.0000     -10.282347      -279.7969
  15   2.0000     -10.279364      -279.7157
  16   2.0000      -8.084128      -219.9803
  17   2.0000      -8.081104      -219.8980
  18   2.0000      -6.042763      -164.4319
  19   2.0000      -6.039883      -164.3536
  20   2.0000      -6.038591      -164.3184
  21   2.0000      -6.036025      -164.2486
  22   2.0000      -6.034961      -164.2196
  23   2.0000      -6.031433      -164.1236
  24   2.0000      -1.002343       -27.2751
  25   2.0000      -0.976183       -26.5633
  26   2.0000      -0.910823       -24.7847
  27   2.0000      -0.905805       -24.6482
  28   2.0000      -0.868544       -23.6343
  29   2.0000      -0.847168       -23.0526
  30   2.0000      -0.845456       -23.0060
  31   2.0000      -0.814170       -22.1547
  32   2.0000      -0.785375       -21.3711
  33   2.0000      -0.770982       -20.9795
  34   2.0000      -0.711956       -19.3733
  35   2.0000      -0.700407       -19.0590
  36   2.0000      -0.694299       -18.8928
  37   2.0000      -0.652908       -17.7665
  38   2.0000      -0.638450       -17.3731
  39   2.0000      -0.611483       -16.6393
  40   2.0000      -0.599723       -16.3193
  41   2.0000      -0.566976       -15.4282
  42   2.0000      -0.556368       -15.1395
  43   2.0000      -0.549625       -14.9560
  44   2.0000      -0.548241       -14.9184
  45   2.0000      -0.522598       -14.2206
  46   2.0000      -0.515748       -14.0342
  47   2.0000      -0.510181       -13.8827
  48   2.0000      -0.502101       -13.6629
  49   2.0000      -0.495965       -13.4959
  50   2.0000      -0.486193       -13.2300
  51   2.0000      -0.474988       -12.9251
  52   2.0000      -0.470757       -12.8100
  53   2.0000      -0.461967       -12.5708
  54   2.0000      -0.455723       -12.4009
  55   2.0000      -0.448501       -12.2043
  56   2.0000      -0.445060       -12.1107
  57   2.0000      -0.436975       -11.8907
  58   2.0000      -0.431473       -11.7410
  59   2.0000      -0.425283       -11.5725
  60   2.0000      -0.422326       -11.4921
  61   2.0000      -0.416572       -11.3355
  62   2.0000      -0.410309       -11.1651
  63   2.0000      -0.342660        -9.3243
  64   2.0000      -0.328522        -8.9395
  65   2.0000      -0.318094        -8.6558
  66   2.0000      -0.307101        -8.3566
  67   0.0000       0.039952         1.0872
  68   0.0000       0.042100         1.1456
  69   0.0000       0.103635         2.8200
  70   0.0000       0.118307         3.2193
  71   0.0000       0.131782         3.5860

MULLIKEN ATOMIC CHARGES
-----------------------
   0 S :    0.119564
   1 C :   -0.065468
   2 C :   -0.116951
   3 C :    0.024704
   4 C :   -0.188100
   5 H :    0.039366
   6 C :    0.048252
   7 H :    0.016914
   8 H :    0.023120
   9 C :   -0.071088
  10 H :    0.029552
  11 H :    0.042027
  12 C :   -0.093921
  13 H :    0.032327
  14 H :    0.050830
  15 H :    0.039343
  16 S :    0.118543
  17 C :   -0.048056
  18 C :   -0.081251
  19 C :   -0.026704
  20 C :   -0.185242
  21 H :    0.034932
  22 C :    0.056622
  23 H :    0.033482
  24 H :    0.015537
  25 C :   -0.023912
  26 H :    0.028697
  27 H :    0.003178
  28 C :   -0.041752
  29 H :    0.038154
  30 H :    0.037374
  31 H :    0.033334
  32 H :    0.040960
  33 H :    0.035635
Sum of atomic charges:   -0.0000000

LOEWDIN ATOMIC CHARGES
----------------------
   0 S :    0.408546
   1 C :   -0.206714
   2 C :   -0.063719
   3 C :   -0.064798
   4 C :   -0.204062
   5 H :    0.045939
   6 C :   -0.030698
   7 H :    0.022989
   8 H :    0.029338
   9 C :   -0.046007
  10 H :    0.026461
  11 H :    0.028476
  12 C :   -0.082929
  13 H :    0.028555
  14 H :    0.031228
  15 H :    0.028513
  16 S :    0.376578
  17 C :   -0.172562
  18 C :   -0.078391
  19 C :   -0.044731
  20 C :   -0.188688
  21 H :    0.034299
  22 C :   -0.031007
  23 H :    0.038657
  24 H :    0.028941
  25 C :   -0.030437
  26 H :    0.023285
  27 H :    0.012878
  28 C :   -0.064690
  29 H :    0.027302
  30 H :    0.034649
  31 H :    0.024534
  32 H :    0.033337
  33 H :    0.024927

  Mayer bond orders larger than 0.100000
B(  0-S ,  1-C ) :   1.1495 B(  0-S ,  4-C ) :   1.1363 B(  1-C ,  2-C ) :   1.5951
B(  1-C ,  4-C ) :   0.1081 B(  1-C , 32-H ) :   0.9581 B(  2-C ,  3-C ) :   1.2687
B(  2-C ,  6-C ) :   1.0070 B(  3-C ,  4-C ) :   1.5928 B(  3-C ,  5-H ) :   0.9806
B(  4-C , 20-C ) :   1.0157 B(  6-C ,  7-H ) :   0.9403 B(  6-C ,  8-H ) :   0.9526
B(  6-C ,  9-C ) :   1.0608 B(  9-C , 10-H ) :   0.9624 B(  9-C , 11-H ) :   0.9599
B(  9-C , 12-C ) :   1.0634 B( 12-C , 13-H ) :   0.9741 B( 12-C , 14-H ) :   0.9785
B( 12-C , 15-H ) :   0.9760 B( 16-S , 17-C ) :   1.1190 B( 16-S , 20-C ) :   1.1237
B( 17-C , 18-C ) :   1.6764 B( 17-C , 33-H ) :   0.9627 B( 18-C , 19-C ) :   1.2086
B( 18-C , 21-H ) :   0.9678 B( 19-C , 20-C ) :   1.6222 B( 19-C , 22-C ) :   1.0333
B( 22-C , 23-H ) :   0.9290 B( 22-C , 24-H ) :   0.9263 B( 22-C , 25-C ) :   1.0709
B( 25-C , 26-H ) :   0.9495 B( 25-C , 27-H ) :   0.9468 B( 25-C , 28-C ) :   1.0817
B( 28-C , 29-H ) :   0.9735 B( 28-C , 30-H ) :   0.9719 B( 28-C , 31-H ) :   0.9752

Dispersion correction           -0.013685411
FINAL SINGLE POINT ENERGY     -1339.847140726050

DIPOLE MOMENT
-------------
                                X             Y             Z
Electronic contribution:     -2.97362     -15.11193      11.65796
Nuclear contribution   :      2.93777      15.87445     -11.89017
                        -----------------------------------------
Total Dipole Moment    :     -0.03586       0.76252      -0.23221
                        -----------------------------------------
Magnitude (a.u.)       :      0.79790
Magnitude (Debye)      :      2.02809

Rotational constants in cm-1:     0.022893     0.006490     0.006126
Rotational constants in MHz :   686.324871   194.577928   183.665161

                             ****ORCA TERMINATED NORMALLY****
TOTAL RUN TIME: 0 days 0 hours 0 minutes 33 seconds 4 msec
