                         Program Version 4.2.1 -  RELEASE  -
|  1> ! wB97X-D3 SP def2-SVP
|  2> %pal
|  3> nprocs 16
|  4> end
|  5>
|  6> * xyz 0 1
|  7> S 	 -89.3602 	 43.2208 	 119.656
|  8> C 	 -89.3404 	 41.5795 	 120.295
|  9> C 	 -89.6799 	 40.6546 	 119.348
| 10> C 	 -89.8352 	 41.28 	 118.041
| 11> C 	 -89.8097 	 42.6527 	 118.079
| 12> H 	 -90.1589 	 40.8153 	 117.115
| 13> C 	 -89.6615 	 39.1617 	 119.491
| 14> H 	 -89.7505 	 38.916 	 120.575
| 15> H 	 -88.685 	 38.7764 	 119.085
| 16> C 	 -90.8102 	 38.3167 	 118.877
| 17> H 	 -91.7693 	 38.5469 	 119.412
| 18> H 	 -90.8291 	 38.5731 	 117.83
| 19> C 	 -90.5179 	 36.7922 	 119.054
| 20> H 	 -91.0925 	 36.1607 	 118.308
| 21> H 	 -89.5168 	 36.5536 	 118.738
| 22> H 	 -90.6786 	 36.4201 	 120.084
| 23> S 	 -91.7489 	 43.7416 	 116.56
| 24> C 	 -91.3136 	 44.8137 	 115.242
| 25> C 	 -89.9535 	 44.9959 	 115.134
| 26> C 	 -89.2421 	 44.2114 	 116.108
| 27> C 	 -90.0995 	 43.5646 	 117.002
| 28> H 	 -89.556 	 45.5177 	 114.226
| 29> C 	 -87.7054 	 44.0833 	 116.105
| 30> H 	 -87.4644 	 42.9452 	 116.014
| 31> H 	 -87.4455 	 44.3117 	 117.095
| 32> C 	 -86.8303 	 45.0134 	 115.219
| 33> H 	 -87.0941 	 46.0828 	 115.466
| 34> H 	 -87.1844 	 44.7817 	 114.242
| 35> C 	 -85.3356 	 44.7052 	 115.217
| 36> H 	 -85.1071 	 43.7493 	 115.537
| 37> H 	 -84.7336 	 45.3593 	 115.891
| 38> H 	 -84.8994 	 44.8152 	 114.182
| 39> H 	 -88.9009 	 41.352 	 121.303
| 40> H 	 -92.031 	 45.2866 	 114.604
| 41> *
| 42>
| 43>                          ****END OF INPUT****

CARTESIAN COORDINATES (ANGSTROEM)
---------------------------------
  S    -89.360200   43.220800  119.656000
  C    -89.340400   41.579500  120.295000
  C    -89.679900   40.654600  119.348000
  C    -89.835200   41.280000  118.041000
  C    -89.809700   42.652700  118.079000
  H    -90.158900   40.815300  117.115000
  C    -89.661500   39.161700  119.491000
  H    -89.750500   38.916000  120.575000
  H    -88.685000   38.776400  119.085000
  C    -90.810200   38.316700  118.877000
  H    -91.769300   38.546900  119.412000
  H    -90.829100   38.573100  117.830000
  C    -90.517900   36.792200  119.054000
  H    -91.092500   36.160700  118.308000
  H    -89.516800   36.553600  118.738000
  H    -90.678600   36.420100  120.084000
  S    -91.748900   43.741600  116.560000
  C    -91.313600   44.813700  115.242000
  C    -89.953500   44.995900  115.134000
  C    -89.242100   44.211400  116.108000
  C    -90.099500   43.564600  117.002000
  H    -89.556000   45.517700  114.226000
  C    -87.705400   44.083300  116.105000
  H    -87.464400   42.945200  116.014000
  H    -87.445500   44.311700  117.095000
  C    -86.830300   45.013400  115.219000
  H    -87.094100   46.082800  115.466000
  H    -87.184400   44.781700  114.242000
  C    -85.335600   44.705200  115.217000
  H    -85.107100   43.749300  115.537000
  H    -84.733600   45.359300  115.891000
  H    -84.899400   44.815200  114.182000
  H    -88.900900   41.352000  121.303000
  H    -92.031000   45.286600  114.604000

 Total Charge           Charge          ....    0
 Multiplicity           Mult            ....    1
 Number of Electrons    NEL             ....  134
 Basis Dimension        Dim             ....  322

ORBITAL ENERGIES
----------------

  NO   OCC          E(Eh)            E(eV)
   0   2.0000     -88.966071     -2420.8899
   1   2.0000     -88.962578     -2420.7948
   2   2.0000     -10.324245      -280.9370
   3   2.0000     -10.319344      -280.8036
   4   2.0000     -10.316903      -280.7372
   5   2.0000     -10.315111      -280.6884
   6   2.0000     -10.307677      -280.4862
   7   2.0000     -10.302499      -280.3453
   8   2.0000     -10.296977      -280.1950
   9   2.0000     -10.296735      -280.1884
  10   2.0000     -10.293533      -280.1013
  11   2.0000     -10.293387      -280.0973
  12   2.0000     -10.293127      -280.0902
  13   2.0000     -10.291021      -280.0329
  14   2.0000     -10.285787      -279.8905
  15   2.0000     -10.279806      -279.7278
  16   2.0000      -8.081255      -219.9021
  17   2.0000      -8.077557      -219.8015
  18   2.0000      -6.039603      -164.3460
  19   2.0000      -6.036057      -164.2495
  20   2.0000      -6.035694      -164.2396
  21   2.0000      -6.032161      -164.1434
  22   2.0000      -6.032030      -164.1399
  23   2.0000      -6.028312      -164.0387
  24   2.0000      -1.008447       -27.4412
  25   2.0000      -0.983831       -26.7714
  26   2.0000      -0.908438       -24.7199
  27   2.0000      -0.904204       -24.6047
  28   2.0000      -0.871435       -23.7130
  29   2.0000      -0.849784       -23.1238
  30   2.0000      -0.843709       -22.9585
  31   2.0000      -0.814137       -22.1538
  32   2.0000      -0.780112       -21.2279
  33   2.0000      -0.768647       -20.9159
  34   2.0000      -0.707751       -19.2589
  35   2.0000      -0.702202       -19.1079
  36   2.0000      -0.688409       -18.7326
  37   2.0000      -0.650898       -17.7118
  38   2.0000      -0.639643       -17.4056
  39   2.0000      -0.616940       -16.7878
  40   2.0000      -0.593698       -16.1554
  41   2.0000      -0.571643       -15.5552
  42   2.0000      -0.565713       -15.3938
  43   2.0000      -0.561717       -15.2851
  44   2.0000      -0.525484       -14.2992
  45   2.0000      -0.516085       -14.0434
  46   2.0000      -0.513594       -13.9756
  47   2.0000      -0.505239       -13.7482
  48   2.0000      -0.503016       -13.6878
  49   2.0000      -0.499664       -13.5965
  50   2.0000      -0.486246       -13.2314
  51   2.0000      -0.480784       -13.0828
  52   2.0000      -0.471081       -12.8188
  53   2.0000      -0.465510       -12.6672
  54   2.0000      -0.458318       -12.4715
  55   2.0000      -0.452512       -12.3135
  56   2.0000      -0.447046       -12.1647
  57   2.0000      -0.433956       -11.8086
  58   2.0000      -0.430535       -11.7155
  59   2.0000      -0.426549       -11.6070
  60   2.0000      -0.421167       -11.4605
  61   2.0000      -0.414402       -11.2764
  62   2.0000      -0.410791       -11.1782
  63   2.0000      -0.336234        -9.1494
  64   2.0000      -0.329242        -8.9591
  65   2.0000      -0.322243        -8.7687
  66   2.0000      -0.307318        -8.3625
  67   0.0000       0.044120         1.2006
  68   0.0000       0.060254         1.6396
  69   0.0000       0.114193         3.1073
  70   0.0000       0.122639         3.3372
  71   0.0000       0.126356         3.4383

MULLIKEN ATOMIC CHARGES
-----------------------
   0 S :    0.109859
   1 C :   -0.147019
   2 C :   -0.042929
   3 C :    0.038555
   4 C :   -0.187395
   5 H :    0.015574
   6 C :    0.007847
   7 H :    0.024161
   8 H :    0.049173
   9 C :   -0.084135
  10 H :    0.048593
  11 H :    0.030517
  12 C :   -0.063358
  13 H :    0.038990
  14 H :    0.016957
  15 H :    0.046217
  16 S :    0.127413
  17 C :   -0.089541
  18 C :   -0.062166
  19 C :   -0.037756
  20 C :   -0.180626
  21 H :    0.044577
  22 C :    0.058574
  23 H :    0.049200
  24 H :    0.009927
  25 C :   -0.072517
  26 H :    0.047634
  27 H :    0.023544
  28 C :   -0.024503
  29 H :    0.011678
  30 H :    0.036558
  31 H :    0.039917
  32 H :    0.068435
  33 H :    0.048046
Sum of atomic charges:   -0.0000000

LOEWDIN ATOMIC CHARGES
----------------------
   0 S :    0.403137
   1 C :   -0.198592
   2 C :   -0.068559
   3 C :   -0.062521
   4 C :   -0.201527
   5 H :    0.030256
   6 C :   -0.041731
   7 H :    0.031410
   8 H :    0.037970
   9 C :   -0.039122
  10 H :    0.032962
  11 H :    0.018360
  12 C :   -0.071749
  13 H :    0.034056
  14 H :    0.019066
  15 H :    0.028761
  16 S :    0.428972
  17 C :   -0.180290
  18 C :   -0.084315
  19 C :   -0.047655
  20 C :   -0.227442
  21 H :    0.043251
  22 C :   -0.039918
  23 H :    0.044529
  24 H :    0.020365
  25 C :   -0.044128
  26 H :    0.034605
  27 H :    0.017740
  28 C :   -0.062944
  29 H :    0.014802
  30 H :    0.031134
  31 H :    0.036076
  32 H :    0.039232
  33 H :    0.023811

  Mayer bond orders larger than 0.100000
B(  0-S ,  1-C ) :   1.1296 B(  0-S ,  4-C ) :   1.1481 B(  1-C ,  2-C ) :   1.6400
B(  1-C , 32-H ) :   0.9613 B(  2-C ,  3-C ) :   1.1979 B(  2-C ,  6-C ) :   1.0296
B(  3-C ,  4-C ) :   1.6274 B(  3-C ,  5-H ) :   0.9870 B(  4-C , 20-C ) :   1.0120
B(  6-C ,  7-H ) :   0.9469 B(  6-C ,  8-H ) :   0.9393 B(  6-C ,  9-C ) :   1.0591
B(  9-C , 10-H ) :   0.9582 B(  9-C , 11-H ) :   0.9561 B(  9-C , 12-C ) :   1.0796
B( 12-C , 13-H ) :   0.9747 B( 12-C , 14-H ) :   0.9724 B( 12-C , 15-H ) :   0.9773
B( 16-S , 17-C ) :   1.1683 B( 16-S , 20-C ) :   1.1570 B( 17-C , 18-C ) :   1.6070
B( 17-C , 20-C ) :   0.1000 B( 17-C , 33-H ) :   0.9651 B( 18-C , 19-C ) :   1.2532
B( 18-C , 21-H ) :   0.9776 B( 19-C , 20-C ) :   1.5942 B( 19-C , 22-C ) :   1.0235
B( 22-C , 23-H ) :   0.9279 B( 22-C , 24-H ) :   0.9241 B( 22-C , 25-C ) :   1.0748
B( 25-C , 26-H ) :   0.9548 B( 25-C , 27-H ) :   0.9540 B( 25-C , 28-C ) :   1.0733
B( 28-C , 29-H ) :   0.9743 B( 28-C , 30-H ) :   0.9745 B( 28-C , 31-H ) :   0.9774

Dispersion correction           -0.013478767
FINAL SINGLE POINT ENERGY     -1339.877167716060

DIPOLE MOMENT
-------------
                                X             Y             Z
Electronic contribution:    -14.21898      15.30540       5.48066
Nuclear contribution   :     14.56816     -15.68067      -5.81912
                        -----------------------------------------
Total Dipole Moment    :      0.34918      -0.37527      -0.33846
                        -----------------------------------------
Magnitude (a.u.)       :      0.61425
Magnitude (Debye)      :      1.56131

Rotational constants in cm-1:     0.018520     0.007169     0.006401
Rotational constants in MHz :   555.215011   214.921465   191.896489

                             ****ORCA TERMINATED NORMALLY****
TOTAL RUN TIME: 0 days 0 hours 0 minutes 31 seconds 494 msec
