                         Program Version 4.2.1 -  RELEASE  -
|  1> ! wB97X-D3 SP def2-SVP
|  2> %pal
|  3> nprocs 16
|  4> end
|  5>
|  6> * xyz 0 1
|  7> S 	 22.1489 	 1.28833 	 86.7879
|  8> C 	 23.6819 	 1.87443 	 87.3793
|  9> C 	 24.5403 	 2.25879 	 86.3169
| 10> C 	 23.8407 	 2.32187 	 85.1169
| 11> C 	 22.5679 	 1.81639 	 85.1215
| 12> H 	 24.2185 	 2.59477 	 84.1131
| 13> C 	 25.9236 	 2.79653 	 86.4311
| 14> H 	 26.119 	 2.6822 	 87.4825
| 15> H 	 25.9476 	 3.88484 	 86.3068
| 16> C 	 27.0055 	 2.06303 	 85.5738
| 17> H 	 26.8858 	 0.948444 	 85.7645
| 18> H 	 26.8212 	 2.12373 	 84.5006
| 19> C 	 28.4752 	 2.46208 	 85.873
| 20> H 	 29.2639 	 1.85649 	 85.4393
| 21> H 	 28.6008 	 3.50219 	 85.5433
| 22> H 	 28.6845 	 2.50433 	 86.931
| 23> S 	 20.546 	 0.357488 	 83.7397
| 24> C 	 19.6119 	 1.1907 	 82.5299
| 25> C 	 20.172 	 2.39774 	 82.2344
| 26> C 	 21.1561 	 2.7848 	 83.1277
| 27> C 	 21.5819 	 1.78259 	 84.0193
| 28> H 	 19.7702 	 3.03114 	 81.3974
| 29> C 	 21.7914 	 4.17583 	 83.1366
| 30> H 	 22.2804 	 4.42504 	 84.1049
| 31> H 	 20.9224 	 4.90681 	 82.9074
| 32> C 	 22.8607 	 4.38699 	 82.0024
| 33> H 	 22.2846 	 4.31625 	 81.0628
| 34> H 	 23.628 	 3.58755 	 81.9573
| 35> C 	 23.5611 	 5.68879 	 82.1568
| 36> H 	 24.2121 	 5.62454 	 83.0102
| 37> H 	 22.8322 	 6.45722 	 82.3787
| 38> H 	 24.1573 	 6.02009 	 81.3026
| 39> H 	 24.0277 	 1.77821 	 88.3762
| 40> H 	 18.8094 	 0.734035 	 81.9081
| 41> *
| 42>
| 43>                          ****END OF INPUT****

CARTESIAN COORDINATES (ANGSTROEM)
---------------------------------
  S     22.148900    1.288330   86.787900
  C     23.681900    1.874430   87.379300
  C     24.540300    2.258790   86.316900
  C     23.840700    2.321870   85.116900
  C     22.567900    1.816390   85.121500
  H     24.218500    2.594770   84.113100
  C     25.923600    2.796530   86.431100
  H     26.119000    2.682200   87.482500
  H     25.947600    3.884840   86.306800
  C     27.005500    2.063030   85.573800
  H     26.885800    0.948444   85.764500
  H     26.821200    2.123730   84.500600
  C     28.475200    2.462080   85.873000
  H     29.263900    1.856490   85.439300
  H     28.600800    3.502190   85.543300
  H     28.684500    2.504330   86.931000
  S     20.546000    0.357488   83.739700
  C     19.611900    1.190700   82.529900
  C     20.172000    2.397740   82.234400
  C     21.156100    2.784800   83.127700
  C     21.581900    1.782590   84.019300
  H     19.770200    3.031140   81.397400
  C     21.791400    4.175830   83.136600
  H     22.280400    4.425040   84.104900
  H     20.922400    4.906810   82.907400
  C     22.860700    4.386990   82.002400
  H     22.284600    4.316250   81.062800
  H     23.628000    3.587550   81.957300
  C     23.561100    5.688790   82.156800
  H     24.212100    5.624540   83.010200
  H     22.832200    6.457220   82.378700
  H     24.157300    6.020090   81.302600
  H     24.027700    1.778210   88.376200
  H     18.809400    0.734035   81.908100

 Total Charge           Charge          ....    0
 Multiplicity           Mult            ....    1
 Number of Electrons    NEL             ....  134
 Basis Dimension        Dim             ....  322

ORBITAL ENERGIES
----------------

  NO   OCC          E(Eh)            E(eV)
   0   2.0000     -88.968935     -2420.9678
   1   2.0000     -88.966320     -2420.8966
   2   2.0000     -10.333626      -281.1923
   3   2.0000     -10.331609      -281.1374
   4   2.0000     -10.320081      -280.8237
   5   2.0000     -10.318722      -280.7867
   6   2.0000     -10.302601      -280.3480
   7   2.0000     -10.301695      -280.3234
   8   2.0000     -10.301071      -280.3064
   9   2.0000     -10.297369      -280.2057
  10   2.0000     -10.294352      -280.1236
  11   2.0000     -10.293993      -280.1138
  12   2.0000     -10.292759      -280.0802
  13   2.0000     -10.288434      -279.9625
  14   2.0000     -10.280759      -279.7537
  15   2.0000     -10.273372      -279.5527
  16   2.0000      -8.082878      -219.9463
  17   2.0000      -8.080608      -219.8845
  18   2.0000      -6.041383      -164.3944
  19   2.0000      -6.039109      -164.3325
  20   2.0000      -6.037479      -164.2881
  21   2.0000      -6.035100      -164.2234
  22   2.0000      -6.033701      -164.1853
  23   2.0000      -6.031480      -164.1249
  24   2.0000      -1.004957       -27.3463
  25   2.0000      -0.986864       -26.8539
  26   2.0000      -0.908479       -24.7210
  27   2.0000      -0.908243       -24.7145
  28   2.0000      -0.867297       -23.6004
  29   2.0000      -0.855178       -23.2706
  30   2.0000      -0.849562       -23.1178
  31   2.0000      -0.817808       -22.2537
  32   2.0000      -0.780273       -21.2323
  33   2.0000      -0.766257       -20.8509
  34   2.0000      -0.710209       -19.3258
  35   2.0000      -0.698409       -19.0047
  36   2.0000      -0.692408       -18.8414
  37   2.0000      -0.655339       -17.8327
  38   2.0000      -0.646473       -17.5914
  39   2.0000      -0.620086       -16.8734
  40   2.0000      -0.595377       -16.2010
  41   2.0000      -0.570147       -15.5145
  42   2.0000      -0.566252       -15.4085
  43   2.0000      -0.554683       -15.0937
  44   2.0000      -0.528194       -14.3729
  45   2.0000      -0.524082       -14.2610
  46   2.0000      -0.512331       -13.9412
  47   2.0000      -0.506737       -13.7890
  48   2.0000      -0.505235       -13.7481
  49   2.0000      -0.503234       -13.6937
  50   2.0000      -0.496708       -13.5161
  51   2.0000      -0.475703       -12.9445
  52   2.0000      -0.471009       -12.8168
  53   2.0000      -0.468100       -12.7377
  54   2.0000      -0.459414       -12.5013
  55   2.0000      -0.452921       -12.3246
  56   2.0000      -0.444046       -12.0831
  57   2.0000      -0.436724       -11.8839
  58   2.0000      -0.431306       -11.7364
  59   2.0000      -0.429013       -11.6740
  60   2.0000      -0.424439       -11.5496
  61   2.0000      -0.416263       -11.3271
  62   2.0000      -0.410185       -11.1617
  63   2.0000      -0.349335        -9.5059
  64   2.0000      -0.334594        -9.1048
  65   2.0000      -0.332550        -9.0491
  66   2.0000      -0.288597        -7.8531
  67   0.0000       0.024606         0.6696
  68   0.0000       0.065341         1.7780
  69   0.0000       0.111916         3.0454
  70   0.0000       0.117027         3.1845
  71   0.0000       0.129221         3.5163

MULLIKEN ATOMIC CHARGES
-----------------------
   0 S :    0.115521
   1 C :   -0.101135
   2 C :   -0.093758
   3 C :    0.003432
   4 C :   -0.132788
   5 H :    0.018384
   6 C :    0.090400
   7 H :   -0.000873
   8 H :    0.040669
   9 C :   -0.109861
  10 H :    0.038708
  11 H :    0.036770
  12 C :   -0.035903
  13 H :    0.042601
  14 H :    0.025749
  15 H :    0.022361
  16 S :    0.098201
  17 C :   -0.103926
  18 C :   -0.049277
  19 C :   -0.014358
  20 C :   -0.158649
  21 H :    0.038759
  22 C :   -0.005239
  23 H :    0.043191
  24 H :    0.041478
  25 C :   -0.089710
  26 H :    0.023083
  27 H :    0.033685
  28 C :   -0.008190
  29 H :    0.019586
  30 H :    0.020005
  31 H :    0.038454
  32 H :    0.038991
  33 H :    0.073639
Sum of atomic charges:   -0.0000000

LOEWDIN ATOMIC CHARGES
----------------------
   0 S :    0.396394
   1 C :   -0.188726
   2 C :   -0.066489
   3 C :   -0.065021
   4 C :   -0.177615
   5 H :    0.036957
   6 C :   -0.032971
   7 H :    0.027145
   8 H :    0.034037
   9 C :   -0.043758
  10 H :    0.031880
  11 H :    0.022074
  12 C :   -0.068126
  13 H :    0.028669
  14 H :    0.026175
  15 H :    0.022387
  16 S :    0.395409
  17 C :   -0.188974
  18 C :   -0.084601
  19 C :   -0.058632
  20 C :   -0.194208
  21 H :    0.042604
  22 C :   -0.033732
  23 H :    0.031258
  24 H :    0.039052
  25 C :   -0.045365
  26 H :    0.021881
  27 H :    0.020897
  28 C :   -0.064656
  29 H :    0.022314
  30 H :    0.023570
  31 H :    0.028591
  32 H :    0.020581
  33 H :    0.040999

  Mayer bond orders larger than 0.100000
B(  0-S ,  1-C ) :   1.1584 B(  0-S ,  4-C ) :   1.1324 B(  1-C ,  2-C ) :   1.5757
B(  1-C ,  4-C ) :   0.1067 B(  1-C , 32-H ) :   0.9660 B(  2-C ,  3-C ) :   1.2426
B(  2-C ,  6-C ) :   1.0420 B(  3-C ,  4-C ) :   1.5851 B(  3-C ,  5-H ) :   0.9878
B(  4-C , 20-C ) :   1.0499 B(  6-C ,  7-H ) :   0.9305 B(  6-C ,  8-H ) :   0.9396
B(  6-C ,  9-C ) :   1.0406 B(  9-C , 10-H ) :   0.9571 B(  9-C , 11-H ) :   0.9601
B(  9-C , 12-C ) :   1.0791 B( 12-C , 13-H ) :   0.9766 B( 12-C , 14-H ) :   0.9735
B( 12-C , 15-H ) :   0.9762 B( 16-S , 17-C ) :   1.1692 B( 16-S , 20-C ) :   1.1299
B( 17-C , 18-C ) :   1.5905 B( 17-C , 20-C ) :   0.1035 B( 17-C , 33-H ) :   0.9592
B( 18-C , 19-C ) :   1.2773 B( 18-C , 21-H ) :   0.9780 B( 19-C , 20-C ) :   1.5626
B( 19-C , 22-C ) :   1.0412 B( 22-C , 23-H ) :   0.9412 B( 22-C , 24-H ) :   0.9314
B( 22-C , 25-C ) :   1.0526 B( 25-C , 26-H ) :   0.9515 B( 25-C , 27-H ) :   0.9557
B( 25-C , 28-C ) :   1.0887 B( 28-C , 29-H ) :   0.9712 B( 28-C , 30-H ) :   0.9677
B( 28-C , 31-H ) :   0.9716

Dispersion correction           -0.014209059
FINAL SINGLE POINT ENERGY     -1339.886506068316

DIPOLE MOMENT
-------------
                                X             Y             Z
Electronic contribution:    -25.10364     -18.33742       7.12432
Nuclear contribution   :     25.53243      18.80962      -7.40639
                        -----------------------------------------
Total Dipole Moment    :      0.42880       0.47220      -0.28207
                        -----------------------------------------
Magnitude (a.u.)       :      0.69742
Magnitude (Debye)      :      1.77271

Rotational constants in cm-1:     0.017397     0.008857     0.006590
Rotational constants in MHz :   521.537484   265.519489   197.549389

                             ****ORCA TERMINATED NORMALLY****
TOTAL RUN TIME: 0 days 0 hours 0 minutes 35 seconds 699 msec
