                         Program Version 4.2.1 -  RELEASE  -
|  1> ! wB97X-D3 SP def2-SVP
|  2> %pal
|  3> nprocs 16
|  4> end
|  5>
|  6> * xyz 0 1
|  7> S 	 1.643 	 12.3868 	 82.7059
|  8> C 	 0.134035 	 11.515 	 82.8015
|  9> C 	 -0.047848 	 11.0992 	 84.095
| 10> C 	 0.990211 	 11.3457 	 84.9656
| 11> C 	 1.96016 	 12.1322 	 84.365
| 12> H 	 1.04227 	 11.0523 	 86.0456
| 13> C 	 -1.13894 	 10.2569 	 84.5345
| 14> H 	 -0.767961 	 9.25171 	 84.7126
| 15> H 	 -1.82119 	 10.1232 	 83.5797
| 16> C 	 -1.92958 	 10.6558 	 85.761
| 17> H 	 -1.37302 	 11.2555 	 86.4957
| 18> H 	 -2.76791 	 11.2837 	 85.5258
| 19> C 	 -2.55789 	 9.46073 	 86.4343
| 20> H 	 -1.60985 	 8.8544 	 86.7265
| 21> H 	 -2.99524 	 9.58707 	 87.4189
| 22> H 	 -3.09335 	 8.73253 	 85.8493
| 23> S 	 4.37455 	 12.1971 	 85.6839
| 24> C 	 5.09932 	 13.731 	 86.0783
| 25> C 	 4.17701 	 14.7634 	 85.8129
| 26> C 	 2.96192 	 14.3379 	 85.2514
| 27> C 	 2.87838 	 12.948 	 85.0775
| 28> H 	 4.43771 	 15.8093 	 85.9509
| 29> C 	 1.90592 	 15.2656 	 84.777
| 30> H 	 1.21049 	 15.2666 	 85.6436
| 31> H 	 1.34399 	 14.7876 	 83.9156
| 32> C 	 2.39706 	 16.6383 	 84.4557
| 33> H 	 3.20333 	 16.7106 	 83.7157
| 34> H 	 2.78409 	 17.0873 	 85.2997
| 35> C 	 1.2995 	 17.6482 	 84.1134
| 36> H 	 0.452286 	 17.5787 	 84.6542
| 37> H 	 0.963176 	 17.5392 	 83.1201
| 38> H 	 1.7704 	 18.6476 	 84.2304
| 39> H 	 -0.564999 	 11.2032 	 82.061
| 40> H 	 6.19098 	 13.8018 	 86.3542
| 41> *
| 42>
| 43>                          ****END OF INPUT****

CARTESIAN COORDINATES (ANGSTROEM)
---------------------------------
  S      1.643000   12.386800   82.705900
  C      0.134035   11.515000   82.801500
  C     -0.047848   11.099200   84.095000
  C      0.990211   11.345700   84.965600
  C      1.960160   12.132200   84.365000
  H      1.042270   11.052300   86.045600
  C     -1.138940   10.256900   84.534500
  H     -0.767961    9.251710   84.712600
  H     -1.821190   10.123200   83.579700
  C     -1.929580   10.655800   85.761000
  H     -1.373020   11.255500   86.495700
  H     -2.767910   11.283700   85.525800
  C     -2.557890    9.460730   86.434300
  H     -1.609850    8.854400   86.726500
  H     -2.995240    9.587070   87.418900
  H     -3.093350    8.732530   85.849300
  S      4.374550   12.197100   85.683900
  C      5.099320   13.731000   86.078300
  C      4.177010   14.763400   85.812900
  C      2.961920   14.337900   85.251400
  C      2.878380   12.948000   85.077500
  H      4.437710   15.809300   85.950900
  C      1.905920   15.265600   84.777000
  H      1.210490   15.266600   85.643600
  H      1.343990   14.787600   83.915600
  C      2.397060   16.638300   84.455700
  H      3.203330   16.710600   83.715700
  H      2.784090   17.087300   85.299700
  C      1.299500   17.648200   84.113400
  H      0.452286   17.578700   84.654200
  H      0.963176   17.539200   83.120100
  H      1.770400   18.647600   84.230400
  H     -0.564999   11.203200   82.061000
  H      6.190980   13.801800   86.354200

 Total Charge           Charge          ....    0
 Multiplicity           Mult            ....    1
 Number of Electrons    NEL             ....  134
 Basis Dimension        Dim             ....  322

ORBITAL ENERGIES
----------------

  NO   OCC          E(Eh)            E(eV)
   0   2.0000     -88.971038     -2421.0250
   1   2.0000     -88.961571     -2420.7674
   2   2.0000     -10.323354      -280.9127
   3   2.0000     -10.322506      -280.8897
   4   2.0000     -10.320011      -280.8218
   5   2.0000     -10.310215      -280.5552
   6   2.0000     -10.298601      -280.2392
   7   2.0000     -10.293038      -280.0878
   8   2.0000     -10.292241      -280.0661
   9   2.0000     -10.290952      -280.0310
  10   2.0000     -10.288997      -279.9778
  11   2.0000     -10.288320      -279.9594
  12   2.0000     -10.285595      -279.8853
  13   2.0000     -10.281411      -279.7714
  14   2.0000     -10.276096      -279.6268
  15   2.0000     -10.263958      -279.2965
  16   2.0000      -8.085841      -220.0269
  17   2.0000      -8.076004      -219.7593
  18   2.0000      -6.044252      -164.4725
  19   2.0000      -6.040174      -164.3615
  20   2.0000      -6.036832      -164.2705
  21   2.0000      -6.034381      -164.2039
  22   2.0000      -6.030371      -164.0947
  23   2.0000      -6.027121      -164.0063
  24   2.0000      -1.016031       -27.6476
  25   2.0000      -0.985903       -26.8278
  26   2.0000      -0.922954       -25.1149
  27   2.0000      -0.916243       -24.9322
  28   2.0000      -0.875259       -23.8170
  29   2.0000      -0.855958       -23.2918
  30   2.0000      -0.853586       -23.2272
  31   2.0000      -0.812388       -22.1062
  32   2.0000      -0.782503       -21.2930
  33   2.0000      -0.769134       -20.9292
  34   2.0000      -0.715009       -19.4564
  35   2.0000      -0.706890       -19.2355
  36   2.0000      -0.698718       -19.0131
  37   2.0000      -0.655515       -17.8375
  38   2.0000      -0.636825       -17.3289
  39   2.0000      -0.621215       -16.9041
  40   2.0000      -0.597818       -16.2675
  41   2.0000      -0.575623       -15.6635
  42   2.0000      -0.570590       -15.5266
  43   2.0000      -0.556902       -15.1541
  44   2.0000      -0.538310       -14.6482
  45   2.0000      -0.530868       -14.4457
  46   2.0000      -0.525128       -14.2894
  47   2.0000      -0.511882       -13.9290
  48   2.0000      -0.505485       -13.7549
  49   2.0000      -0.498149       -13.5553
  50   2.0000      -0.496005       -13.4970
  51   2.0000      -0.482085       -13.1182
  52   2.0000      -0.472449       -12.8560
  53   2.0000      -0.469665       -12.7802
  54   2.0000      -0.452793       -12.3211
  55   2.0000      -0.449889       -12.2421
  56   2.0000      -0.443925       -12.0798
  57   2.0000      -0.443473       -12.0675
  58   2.0000      -0.433975       -11.8091
  59   2.0000      -0.427223       -11.6253
  60   2.0000      -0.416144       -11.3239
  61   2.0000      -0.411426       -11.1955
  62   2.0000      -0.402245       -10.9456
  63   2.0000      -0.339133        -9.2283
  64   2.0000      -0.331027        -9.0077
  65   2.0000      -0.325734        -8.8637
  66   2.0000      -0.292779        -7.9669
  67   0.0000       0.035752         0.9728
  68   0.0000       0.054199         1.4748
  69   0.0000       0.117835         3.2064
  70   0.0000       0.125876         3.4253
  71   0.0000       0.131813         3.5868

MULLIKEN ATOMIC CHARGES
-----------------------
   0 S :    0.129082
   1 C :   -0.097484
   2 C :   -0.074699
   3 C :    0.019829
   4 C :   -0.152183
   5 H :    0.038212
   6 C :    0.029866
   7 H :    0.033597
   8 H :    0.023851
   9 C :   -0.039827
  10 H :    0.033459
  11 H :    0.024991
  12 C :   -0.086148
  13 H :    0.014871
  14 H :    0.037778
  15 H :    0.038306
  16 S :    0.098406
  17 C :   -0.124227
  18 C :   -0.041036
  19 C :   -0.034280
  20 C :   -0.182306
  21 H :    0.018971
  22 C :    0.079082
  23 H :    0.039848
  24 H :    0.041739
  25 C :   -0.090043
  26 H :    0.034058
  27 H :    0.010745
  28 C :    0.015793
  29 H :   -0.001099
  30 H :    0.014260
  31 H :    0.029897
  32 H :    0.029226
  33 H :    0.087467
Sum of atomic charges:    0.0000000

LOEWDIN ATOMIC CHARGES
----------------------
   0 S :    0.449205
   1 C :   -0.202174
   2 C :   -0.076473
   3 C :   -0.057404
   4 C :   -0.211747
   5 H :    0.043578
   6 C :   -0.037147
   7 H :    0.031934
   8 H :    0.038299
   9 C :   -0.045396
  10 H :    0.028380
  11 H :    0.023028
  12 C :   -0.073223
  13 H :    0.029050
  14 H :    0.026366
  15 H :    0.023149
  16 S :    0.401028
  17 C :   -0.198151
  18 C :   -0.079398
  19 C :   -0.055754
  20 C :   -0.204325
  21 H :    0.030981
  22 C :   -0.040380
  23 H :    0.043556
  24 H :    0.028927
  25 C :   -0.040733
  26 H :    0.028927
  27 H :    0.013404
  28 C :   -0.047223
  29 H :    0.008291
  30 H :    0.018420
  31 H :    0.032716
  32 H :    0.026704
  33 H :    0.043582

  Mayer bond orders larger than 0.100000
B(  0-S ,  1-C ) :   1.1275 B(  0-S ,  4-C ) :   1.1815 B(  1-C ,  2-C ) :   1.5861
B(  1-C , 32-H ) :   0.9694 B(  2-C ,  3-C ) :   1.2810 B(  2-C ,  6-C ) :   1.0410
B(  3-C ,  4-C ) :   1.5239 B(  3-C ,  5-H ) :   0.9856 B(  4-C , 20-C ) :   1.0213
B(  6-C ,  7-H ) :   0.9482 B(  6-C ,  8-H ) :   0.9292 B(  6-C ,  9-C ) :   1.0388
B(  9-C , 10-H ) :   0.9613 B(  9-C , 11-H ) :   0.9485 B(  9-C , 12-C ) :   1.0730
B( 12-C , 13-H ) :   0.9723 B( 12-C , 14-H ) :   0.9726 B( 12-C , 15-H ) :   0.9767
B( 16-S , 17-C ) :   1.1867 B( 16-S , 20-C ) :   1.1421 B( 17-C , 18-C ) :   1.5394
B( 17-C , 20-C ) :   0.1130 B( 17-C , 33-H ) :   0.9614 B( 18-C , 19-C ) :   1.2902
B( 18-C , 21-H ) :   0.9874 B( 19-C , 20-C ) :   1.5586 B( 19-C , 22-C ) :   1.0325
B( 22-C , 23-H ) :   0.9122 B( 22-C , 24-H ) :   0.9293 B( 22-C , 25-C ) :   1.0903
B( 25-C , 26-H ) :   0.9572 B( 25-C , 27-H ) :   0.9390 B( 25-C , 28-C ) :   1.0870
B( 28-C , 29-H ) :   0.9700 B( 28-C , 30-H ) :   0.9712 B( 28-C , 31-H ) :   0.9775

Dispersion correction           -0.013823020
FINAL SINGLE POINT ENERGY     -1339.849294610796

DIPOLE MOMENT
-------------
                                X             Y             Z
Electronic contribution:     20.08088      -7.01270      -5.69999
Nuclear contribution   :    -20.45721       7.23511       5.83920
                        -----------------------------------------
Total Dipole Moment    :     -0.37633       0.22241       0.13922
                        -----------------------------------------
Magnitude (a.u.)       :      0.45877
Magnitude (Debye)      :      1.16610

Rotational constants in cm-1:     0.018218     0.008076     0.006985
Rotational constants in MHz :   546.163867   242.104454   209.419818

                             ****ORCA TERMINATED NORMALLY****
TOTAL RUN TIME: 0 days 0 hours 0 minutes 32 seconds 803 msec
