                         Program Version 4.2.1 -  RELEASE  -
|  1> ! wB97X-D3 SP def2-SVP
|  2> %pal
|  3> nprocs 16
|  4> end
|  5>
|  6> * xyz 0 1
|  7> S 	 5.42998 	 -10.6992 	 64.2509
|  8> C 	 5.22224 	 -8.95756 	 63.9807
|  9> C 	 6.24651 	 -8.27964 	 64.6515
| 10> C 	 7.01631 	 -9.1908 	 65.4214
| 11> C 	 6.55339 	 -10.4809 	 65.4987
| 12> H 	 7.87146 	 -8.91434 	 65.977
| 13> C 	 6.6742 	 -6.90691 	 64.3999
| 14> H 	 7.61837 	 -6.6943 	 64.8716
| 15> H 	 6.00648 	 -6.14117 	 64.8167
| 16> C 	 6.90485 	 -6.69135 	 62.9533
| 17> H 	 6.11996 	 -7.14095 	 62.3064
| 18> H 	 6.75655 	 -5.60974 	 62.7514
| 19> C 	 8.277 	 -7.22211 	 62.5141
| 20> H 	 8.41453 	 -6.85495 	 61.4781
| 21> H 	 9.12192 	 -6.82952 	 63.0861
| 22> H 	 8.28993 	 -8.32404 	 62.3572
| 23> S 	 6.43666 	 -13.2696 	 65.8988
| 24> C 	 7.168 	 -13.8929 	 67.3908
| 25> C 	 7.81457 	 -12.8754 	 68.0856
| 26> C 	 7.8542 	 -11.6296 	 67.4417
| 27> C 	 7.03712 	 -11.6273 	 66.3018
| 28> H 	 8.22934 	 -13.2566 	 68.9971
| 29> C 	 8.71496 	 -10.546 	 68.0055
| 30> H 	 9.16566 	 -9.91359 	 67.2542
| 31> H 	 9.65017 	 -10.821 	 68.5461
| 32> C 	 8.00199 	 -9.56954 	 68.9995
| 33> H 	 7.21939 	 -9.16055 	 68.3424
| 34> H 	 8.72164 	 -8.72074 	 69.2641
| 35> C 	 7.36433 	 -10.1945 	 70.2207
| 36> H 	 6.53864 	 -10.8388 	 70.0306
| 37> H 	 6.96875 	 -9.49002 	 70.8545
| 38> H 	 8.16791 	 -10.8428 	 70.7353
| 39> H 	 4.50161 	 -8.53182 	 63.3431
| 40> H 	 7.00954 	 -14.8889 	 67.8201
| 41> *
| 42>
| 43>                          ****END OF INPUT****

CARTESIAN COORDINATES (ANGSTROEM)
---------------------------------
  S      5.429980  -10.699200   64.250900
  C      5.222240   -8.957560   63.980700
  C      6.246510   -8.279640   64.651500
  C      7.016310   -9.190800   65.421400
  C      6.553390  -10.480900   65.498700
  H      7.871460   -8.914340   65.977000
  C      6.674200   -6.906910   64.399900
  H      7.618370   -6.694300   64.871600
  H      6.006480   -6.141170   64.816700
  C      6.904850   -6.691350   62.953300
  H      6.119960   -7.140950   62.306400
  H      6.756550   -5.609740   62.751400
  C      8.277000   -7.222110   62.514100
  H      8.414530   -6.854950   61.478100
  H      9.121920   -6.829520   63.086100
  H      8.289930   -8.324040   62.357200
  S      6.436660  -13.269600   65.898800
  C      7.168000  -13.892900   67.390800
  C      7.814570  -12.875400   68.085600
  C      7.854200  -11.629600   67.441700
  C      7.037120  -11.627300   66.301800
  H      8.229340  -13.256600   68.997100
  C      8.714960  -10.546000   68.005500
  H      9.165660   -9.913590   67.254200
  H      9.650170  -10.821000   68.546100
  C      8.001990   -9.569540   68.999500
  H      7.219390   -9.160550   68.342400
  H      8.721640   -8.720740   69.264100
  C      7.364330  -10.194500   70.220700
  H      6.538640  -10.838800   70.030600
  H      6.968750   -9.490020   70.854500
  H      8.167910  -10.842800   70.735300
  H      4.501610   -8.531820   63.343100
  H      7.009540  -14.888900   67.820100

 Total Charge           Charge          ....    0
 Multiplicity           Mult            ....    1
 Number of Electrons    NEL             ....  134
 Basis Dimension        Dim             ....  322

ORBITAL ENERGIES
----------------

  NO   OCC          E(Eh)            E(eV)
   0   2.0000     -88.970305     -2421.0051
   1   2.0000     -88.963245     -2420.8130
   2   2.0000     -10.339414      -281.3498
   3   2.0000     -10.327902      -281.0365
   4   2.0000     -10.320920      -280.8465
   5   2.0000     -10.312470      -280.6166
   6   2.0000     -10.308786      -280.5163
   7   2.0000     -10.298152      -280.2270
   8   2.0000     -10.295292      -280.1491
   9   2.0000     -10.293035      -280.0877
  10   2.0000     -10.291112      -280.0354
  11   2.0000     -10.285326      -279.8780
  12   2.0000     -10.285228      -279.8753
  13   2.0000     -10.282849      -279.8105
  14   2.0000     -10.280241      -279.7396
  15   2.0000     -10.272198      -279.5207
  16   2.0000      -8.083819      -219.9719
  17   2.0000      -8.078794      -219.8352
  18   2.0000      -6.042454      -164.4235
  19   2.0000      -6.038580      -164.3181
  20   2.0000      -6.037253      -164.2820
  21   2.0000      -6.034447      -164.2057
  22   2.0000      -6.033319      -164.1749
  23   2.0000      -6.029430      -164.0691
  24   2.0000      -1.010343       -27.4928
  25   2.0000      -0.985230       -26.8095
  26   2.0000      -0.926446       -25.2099
  27   2.0000      -0.908691       -24.7267
  28   2.0000      -0.865307       -23.5462
  29   2.0000      -0.852195       -23.1894
  30   2.0000      -0.842249       -22.9188
  31   2.0000      -0.814827       -22.1726
  32   2.0000      -0.789658       -21.4877
  33   2.0000      -0.778552       -21.1855
  34   2.0000      -0.711346       -19.3567
  35   2.0000      -0.701062       -19.0769
  36   2.0000      -0.683993       -18.6124
  37   2.0000      -0.663231       -18.0474
  38   2.0000      -0.640560       -17.4305
  39   2.0000      -0.620551       -16.8860
  40   2.0000      -0.602132       -16.3848
  41   2.0000      -0.581925       -15.8350
  42   2.0000      -0.560537       -15.2530
  43   2.0000      -0.556004       -15.1296
  44   2.0000      -0.543777       -14.7969
  45   2.0000      -0.537613       -14.6292
  46   2.0000      -0.516951       -14.0669
  47   2.0000      -0.506379       -13.7793
  48   2.0000      -0.503505       -13.7011
  49   2.0000      -0.501861       -13.6563
  50   2.0000      -0.487573       -13.2675
  51   2.0000      -0.483134       -13.1467
  52   2.0000      -0.472444       -12.8558
  53   2.0000      -0.467296       -12.7158
  54   2.0000      -0.458467       -12.4755
  55   2.0000      -0.446494       -12.1497
  56   2.0000      -0.440496       -11.9865
  57   2.0000      -0.437741       -11.9116
  58   2.0000      -0.429427       -11.6853
  59   2.0000      -0.427903       -11.6438
  60   2.0000      -0.417875       -11.3709
  61   2.0000      -0.414160       -11.2699
  62   2.0000      -0.403888       -10.9903
  63   2.0000      -0.355999        -9.6872
  64   2.0000      -0.337445        -9.1824
  65   2.0000      -0.324167        -8.8210
  66   2.0000      -0.278630        -7.5819
  67   0.0000       0.011196         0.3046
  68   0.0000       0.078180         2.1274
  69   0.0000       0.091780         2.4974
  70   0.0000       0.119416         3.2495
  71   0.0000       0.131572         3.5803

MULLIKEN ATOMIC CHARGES
-----------------------
   0 S :    0.086804
   1 C :   -0.112665
   2 C :   -0.071578
   3 C :    0.003906
   4 C :   -0.091497
   5 H :   -0.025179
   6 C :    0.106374
   7 H :    0.005774
   8 H :    0.034248
   9 C :   -0.105527
  10 H :    0.028640
  11 H :    0.022640
  12 C :   -0.060415
  13 H :    0.027140
  14 H :    0.037112
  15 H :    0.054274
  16 S :    0.098318
  17 C :   -0.108447
  18 C :   -0.038277
  19 C :    0.002585
  20 C :   -0.108503
  21 H :    0.014438
  22 C :    0.014833
  23 H :    0.024771
  24 H :    0.029911
  25 C :   -0.107581
  26 H :    0.028488
  27 H :    0.041032
  28 C :   -0.013254
  29 H :    0.032719
  30 H :    0.020228
  31 H :    0.027638
  32 H :    0.035105
  33 H :    0.065947
Sum of atomic charges:    0.0000000

LOEWDIN ATOMIC CHARGES
----------------------
   0 S :    0.415685
   1 C :   -0.183491
   2 C :   -0.055023
   3 C :   -0.072039
   4 C :   -0.199336
   5 H :    0.017871
   6 C :   -0.039282
   7 H :    0.028163
   8 H :    0.036042
   9 C :   -0.044630
  10 H :    0.025349
  11 H :    0.023341
  12 C :   -0.070271
  13 H :    0.029856
  14 H :    0.024408
  15 H :    0.035280
  16 S :    0.376208
  17 C :   -0.182645
  18 C :   -0.063999
  19 C :   -0.056476
  20 C :   -0.170448
  21 H :    0.032281
  22 C :   -0.039788
  23 H :    0.027072
  24 H :    0.035234
  25 C :   -0.043474
  26 H :    0.022065
  27 H :    0.030522
  28 C :   -0.064101
  29 H :    0.025163
  30 H :    0.017210
  31 H :    0.030735
  32 H :    0.017414
  33 H :    0.035105

  Mayer bond orders larger than 0.100000
B(  0-S ,  1-C ) :   1.1428 B(  0-S ,  4-C ) :   1.1687 B(  1-C ,  2-C ) :   1.5558
B(  1-C ,  4-C ) :   0.1024 B(  1-C , 32-H ) :   0.9805 B(  2-C ,  3-C ) :   1.2804
B(  2-C ,  6-C ) :   1.0361 B(  3-C ,  4-C ) :   1.5189 B(  3-C ,  5-H ) :   0.9972
B(  4-C , 20-C ) :   1.0762 B(  6-C ,  7-H ) :   0.9414 B(  6-C ,  8-H ) :   0.9218
B(  6-C ,  9-C ) :   1.0772 B(  9-C , 10-H ) :   0.9546 B(  9-C , 11-H ) :   0.9531
B(  9-C , 12-C ) :   1.0792 B( 12-C , 13-H ) :   0.9711 B( 12-C , 14-H ) :   0.9739
B( 12-C , 15-H ) :   0.9735 B( 16-S , 17-C ) :   1.1321 B( 16-S , 20-C ) :   1.1364
B( 17-C , 18-C ) :   1.6369 B( 17-C , 20-C ) :   0.1035 B( 17-C , 33-H ) :   0.9623
B( 18-C , 19-C ) :   1.2244 B( 18-C , 21-H ) :   0.9935 B( 19-C , 20-C ) :   1.5772
B( 19-C , 22-C ) :   1.0306 B( 22-C , 23-H ) :   0.9377 B( 22-C , 24-H ) :   0.9396
B( 22-C , 25-C ) :   1.0693 B( 25-C , 26-H ) :   0.9490 B( 25-C , 27-H ) :   0.9562
B( 25-C , 28-C ) :   1.0884 B( 28-C , 29-H ) :   0.9670 B( 28-C , 30-H ) :   0.9698
B( 28-C , 31-H ) :   0.9725

Dispersion correction           -0.014920686
FINAL SINGLE POINT ENERGY     -1339.856874044876

DIPOLE MOMENT
-------------
                                X             Y             Z
Electronic contribution:    -11.05813     -21.43978      -6.46955
Nuclear contribution   :     11.38603      21.92384       6.74055
                        -----------------------------------------
Total Dipole Moment    :      0.32790       0.48406       0.27099
                        -----------------------------------------
Magnitude (a.u.)       :      0.64442
Magnitude (Debye)      :      1.63798

Rotational constants in cm-1:     0.020773     0.008872     0.006985
Rotational constants in MHz :   622.769386   265.981280   209.391753

                             ****ORCA TERMINATED NORMALLY****
TOTAL RUN TIME: 0 days 0 hours 0 minutes 31 seconds 162 msec
