                         Program Version 4.2.1 -  RELEASE  -
|  1> ! wB97X-D3 SP def2-SVP
|  2> %pal
|  3> nprocs 16
|  4> end
|  5>
|  6> * xyz 0 1
|  7> S 	 -94.7354 	 38.9825 	 124.914
|  8> C 	 -93.5576 	 37.8248 	 125.458
|  9> C 	 -93.3121 	 36.8569 	 124.49
| 10> C 	 -94.0519 	 37.1434 	 123.263
| 11> C 	 -94.6998 	 38.3931 	 123.249
| 12> H 	 -94.0337 	 36.5275 	 122.372
| 13> C 	 -92.3295 	 35.7248 	 124.605
| 14> H 	 -92.9541 	 34.8219 	 124.844
| 15> H 	 -91.7324 	 36.0526 	 125.459
| 16> C 	 -91.3393 	 35.5319 	 123.414
| 17> H 	 -90.6585 	 34.6466 	 123.628
| 18> H 	 -91.8416 	 35.4474 	 122.418
| 19> C 	 -90.4407 	 36.7397 	 123.295
| 20> H 	 -91.0113 	 37.6207 	 123.169
| 21> H 	 -89.8404 	 36.9946 	 124.172
| 22> H 	 -89.7658 	 36.6857 	 122.442
| 23> S 	 -97.1423 	 39.2472 	 122.185
| 24> C 	 -97.2199 	 39.4354 	 120.437
| 25> C 	 -96.004 	 39.4009 	 119.812
| 26> C 	 -94.9307 	 39.1219 	 120.755
| 27> C 	 -95.3727 	 38.9945 	 122.092
| 28> H 	 -95.9422 	 39.584 	 118.762
| 29> C 	 -93.5212 	 39.0265 	 120.243
| 30> H 	 -93.617 	 38.5368 	 119.294
| 31> H 	 -92.9641 	 38.4428 	 120.978
| 32> C 	 -92.8427 	 40.3944 	 120.078
| 33> H 	 -93.57 	 40.8443 	 119.456
| 34> H 	 -91.935 	 40.3809 	 119.408
| 35> C 	 -92.7423 	 41.1891 	 121.416
| 36> H 	 -92.2102 	 42.11 	 121.214
| 37> H 	 -92.4018 	 40.6538 	 122.305
| 38> H 	 -93.7722 	 41.3876 	 121.851
| 39> H 	 -93.1617 	 37.814 	 126.432
| 40> H 	 -98.0951 	 39.6069 	 119.844
| 41> *
| 42>
| 43>                          ****END OF INPUT****

CARTESIAN COORDINATES (ANGSTROEM)
---------------------------------
  S    -94.735400   38.982500  124.914000
  C    -93.557600   37.824800  125.458000
  C    -93.312100   36.856900  124.490000
  C    -94.051900   37.143400  123.263000
  C    -94.699800   38.393100  123.249000
  H    -94.033700   36.527500  122.372000
  C    -92.329500   35.724800  124.605000
  H    -92.954100   34.821900  124.844000
  H    -91.732400   36.052600  125.459000
  C    -91.339300   35.531900  123.414000
  H    -90.658500   34.646600  123.628000
  H    -91.841600   35.447400  122.418000
  C    -90.440700   36.739700  123.295000
  H    -91.011300   37.620700  123.169000
  H    -89.840400   36.994600  124.172000
  H    -89.765800   36.685700  122.442000
  S    -97.142300   39.247200  122.185000
  C    -97.219900   39.435400  120.437000
  C    -96.004000   39.400900  119.812000
  C    -94.930700   39.121900  120.755000
  C    -95.372700   38.994500  122.092000
  H    -95.942200   39.584000  118.762000
  C    -93.521200   39.026500  120.243000
  H    -93.617000   38.536800  119.294000
  H    -92.964100   38.442800  120.978000
  C    -92.842700   40.394400  120.078000
  H    -93.570000   40.844300  119.456000
  H    -91.935000   40.380900  119.408000
  C    -92.742300   41.189100  121.416000
  H    -92.210200   42.110000  121.214000
  H    -92.401800   40.653800  122.305000
  H    -93.772200   41.387600  121.851000
  H    -93.161700   37.814000  126.432000
  H    -98.095100   39.606900  119.844000

 Total Charge           Charge          ....    0
 Multiplicity           Mult            ....    1
 Number of Electrons    NEL             ....  134
 Basis Dimension        Dim             ....  322

ORBITAL ENERGIES
----------------

  NO   OCC          E(Eh)            E(eV)
   0   2.0000     -88.968074     -2420.9444
   1   2.0000     -88.966167     -2420.8925
   2   2.0000     -10.336299      -281.2650
   3   2.0000     -10.334713      -281.2218
   4   2.0000     -10.319478      -280.8073
   5   2.0000     -10.313487      -280.6443
   6   2.0000     -10.311078      -280.5787
   7   2.0000     -10.305075      -280.4153
   8   2.0000     -10.298850      -280.2459
   9   2.0000     -10.298727      -280.2426
  10   2.0000     -10.298290      -280.2307
  11   2.0000     -10.295636      -280.1585
  12   2.0000     -10.287139      -279.9273
  13   2.0000     -10.287017      -279.9240
  14   2.0000     -10.276845      -279.6472
  15   2.0000     -10.269520      -279.4478
  16   2.0000      -8.082124      -219.9258
  17   2.0000      -8.080782      -219.8893
  18   2.0000      -6.040793      -164.3783
  19   2.0000      -6.039414      -164.3408
  20   2.0000      -6.036808      -164.2699
  21   2.0000      -6.035283      -164.2284
  22   2.0000      -6.032671      -164.1573
  23   2.0000      -6.031447      -164.1240
  24   2.0000      -1.000561       -27.2267
  25   2.0000      -0.980691       -26.6860
  26   2.0000      -0.912934       -24.8422
  27   2.0000      -0.909683       -24.7537
  28   2.0000      -0.870897       -23.6983
  29   2.0000      -0.844947       -22.9922
  30   2.0000      -0.840802       -22.8794
  31   2.0000      -0.814811       -22.1721
  32   2.0000      -0.781483       -21.2652
  33   2.0000      -0.770974       -20.9793
  34   2.0000      -0.711995       -19.3744
  35   2.0000      -0.697592       -18.9825
  36   2.0000      -0.693491       -18.8709
  37   2.0000      -0.659282       -17.9400
  38   2.0000      -0.640187       -17.4204
  39   2.0000      -0.620188       -16.8762
  40   2.0000      -0.590212       -16.0605
  41   2.0000      -0.569693       -15.5021
  42   2.0000      -0.557494       -15.1702
  43   2.0000      -0.554379       -15.0854
  44   2.0000      -0.543963       -14.8020
  45   2.0000      -0.536110       -14.5883
  46   2.0000      -0.515690       -14.0326
  47   2.0000      -0.509423       -13.8621
  48   2.0000      -0.505904       -13.7664
  49   2.0000      -0.500287       -13.6135
  50   2.0000      -0.487060       -13.2536
  51   2.0000      -0.478418       -13.0184
  52   2.0000      -0.466826       -12.7030
  53   2.0000      -0.459276       -12.4975
  54   2.0000      -0.455311       -12.3897
  55   2.0000      -0.445031       -12.1099
  56   2.0000      -0.440121       -11.9763
  57   2.0000      -0.439430       -11.9575
  58   2.0000      -0.434389       -11.8203
  59   2.0000      -0.428768       -11.6674
  60   2.0000      -0.424970       -11.5640
  61   2.0000      -0.413864       -11.2618
  62   2.0000      -0.403271       -10.9736
  63   2.0000      -0.348193        -9.4748
  64   2.0000      -0.330489        -8.9931
  65   2.0000      -0.324831        -8.8391
  66   2.0000      -0.293019        -7.9735
  67   0.0000       0.027086         0.7370
  68   0.0000       0.061421         1.6714
  69   0.0000       0.109356         2.9757
  70   0.0000       0.115182         3.1343
  71   0.0000       0.125409         3.4126

MULLIKEN ATOMIC CHARGES
-----------------------
   0 S :    0.103924
   1 C :   -0.099286
   2 C :   -0.136112
   3 C :    0.042907
   4 C :   -0.172357
   5 H :    0.018750
   6 C :    0.073908
   7 H :    0.060644
   8 H :    0.017548
   9 C :   -0.083562
  10 H :    0.048122
  11 H :    0.044034
  12 C :   -0.058199
  13 H :    0.028460
  14 H :    0.022095
  15 H :    0.032936
  16 S :    0.101841
  17 C :   -0.072031
  18 C :   -0.030802
  19 C :   -0.091266
  20 C :   -0.132966
  21 H :    0.018056
  22 C :    0.087966
  23 H :    0.020463
  24 H :    0.020745
  25 C :   -0.045801
  26 H :    0.002910
  27 H :    0.041098
  28 C :   -0.068825
  29 H :    0.043289
  30 H :    0.035841
  31 H :    0.043912
  32 H :    0.033886
  33 H :    0.047870
Sum of atomic charges:    0.0000000

LOEWDIN ATOMIC CHARGES
----------------------
   0 S :    0.397565
   1 C :   -0.195787
   2 C :   -0.065456
   3 C :   -0.058278
   4 C :   -0.194347
   5 H :    0.028537
   6 C :   -0.036880
   7 H :    0.042537
   8 H :    0.032226
   9 C :   -0.044015
  10 H :    0.034811
  11 H :    0.029053
  12 C :   -0.070037
  13 H :    0.019798
  14 H :    0.024062
  15 H :    0.026344
  16 S :    0.385254
  17 C :   -0.169003
  18 C :   -0.072378
  19 C :   -0.041335
  20 C :   -0.196872
  21 H :    0.030847
  22 C :   -0.030921
  23 H :    0.028825
  24 H :    0.024941
  25 C :   -0.040564
  26 H :    0.016482
  27 H :    0.030303
  28 C :   -0.074716
  29 H :    0.026596
  30 H :    0.026842
  31 H :    0.037865
  32 H :    0.019946
  33 H :    0.027755

  Mayer bond orders larger than 0.100000
B(  0-S ,  1-C ) :   1.1359 B(  0-S ,  4-C ) :   1.1448 B(  1-C ,  2-C ) :   1.6099
B(  1-C , 32-H ) :   0.9730 B(  2-C ,  3-C ) :   1.2274 B(  2-C ,  6-C ) :   1.0145
B(  3-C ,  4-C ) :   1.5677 B(  3-C ,  5-H ) :   0.9897 B(  4-C , 20-C ) :   1.0431
B(  6-C ,  7-H ) :   0.9331 B(  6-C ,  8-H ) :   0.9433 B(  6-C ,  9-C ) :   1.0667
B(  9-C , 10-H ) :   0.9561 B(  9-C , 11-H ) :   0.9545 B(  9-C , 12-C ) :   1.0723
B( 12-C , 13-H ) :   0.9725 B( 12-C , 14-H ) :   0.9709 B( 12-C , 15-H ) :   0.9732
B( 16-S , 17-C ) :   1.1501 B( 16-S , 20-C ) :   1.1133 B( 17-C , 18-C ) :   1.6463
B( 17-C , 33-H ) :   0.9627 B( 18-C , 19-C ) :   1.2101 B( 18-C , 21-H ) :   0.9897
B( 19-C , 20-C ) :   1.6071 B( 19-C , 22-C ) :   1.0459 B( 22-C , 23-H ) :   0.9295
B( 22-C , 24-H ) :   0.9322 B( 22-C , 25-C ) :   1.0684 B( 25-C , 26-H ) :   0.9510
B( 25-C , 27-H ) :   0.9589 B( 25-C , 28-C ) :   1.0619 B( 28-C , 29-H ) :   0.9746
B( 28-C , 30-H ) :   0.9779 B( 28-C , 31-H ) :   0.9662

Dispersion correction           -0.016152407
FINAL SINGLE POINT ENERGY     -1339.872087165471

DIPOLE MOMENT
-------------
                                X             Y             Z
Electronic contribution:    -24.70945       4.01348       8.23114
Nuclear contribution   :     25.11103      -4.29829      -8.70287
                        -----------------------------------------
Total Dipole Moment    :      0.40158      -0.28481      -0.47174
                        -----------------------------------------
Magnitude (a.u.)       :      0.68185
Magnitude (Debye)      :      1.73313

Rotational constants in cm-1:     0.018942     0.009833     0.007982
Rotational constants in MHz :   567.867524   294.781856   239.286777

                             ****ORCA TERMINATED NORMALLY****
TOTAL RUN TIME: 0 days 0 hours 0 minutes 37 seconds 48 msec
