                         Program Version 4.2.1 -  RELEASE  -
|  1> ! wB97X-D3 SP def2-SVP
|  2> %pal
|  3> nprocs 16
|  4> end
|  5>
|  6> * xyz 0 1
|  7> S 	 -8.03206 	 50.2155 	 40.1762
|  8> C 	 -9.75188 	 49.8045 	 40.575
|  9> C 	 -9.84394 	 48.8579 	 41.6037
| 10> C 	 -8.57299 	 48.3933 	 42.0203
| 11> C 	 -7.51564 	 49.045 	 41.3641
| 12> H 	 -8.34098 	 47.6333 	 42.7069
| 13> C 	 -11.2277 	 48.4067 	 42.1372
| 14> H 	 -11.4175 	 47.5722 	 41.4778
| 15> H 	 -12.0212 	 49.0587 	 41.8393
| 16> C 	 -11.2888 	 48.35 	 43.6669
| 17> H 	 -12.3126 	 48.6043 	 43.9386
| 18> H 	 -11.0103 	 47.4676 	 44.1437
| 19> C 	 -10.4391 	 49.4157 	 44.4463
| 20> H 	 -10.4974 	 50.384 	 44.0103
| 21> H 	 -10.8439 	 49.5673 	 45.454
| 22> H 	 -9.35774 	 49.1783 	 44.3461
| 23> S 	 -5.3152 	 48.5745 	 39.9861
| 24> C 	 -3.86194 	 47.7711 	 40.723
| 25> C 	 -4.01473 	 47.6067 	 42.071
| 26> C 	 -5.26048 	 48.0927 	 42.5276
| 27> C 	 -6.1067 	 48.5649 	 41.496
| 28> H 	 -3.19597 	 47.133 	 42.6847
| 29> C 	 -5.71126 	 48.085 	 44.0114
| 30> H 	 -6.32909 	 47.1593 	 44.264
| 31> H 	 -6.39986 	 48.9204 	 44.1263
| 32> C 	 -4.5703 	 48.2729 	 45.0634
| 33> H 	 -3.91072 	 49.1291 	 44.9695
| 34> H 	 -3.85267 	 47.4276 	 45.124
| 35> C 	 -5.18611 	 48.3326 	 46.4573
| 36> H 	 -5.34444 	 47.3638 	 46.8141
| 37> H 	 -6.03675 	 49.0185 	 46.4725
| 38> H 	 -4.43016 	 48.7405 	 47.2022
| 39> H 	 -10.4887 	 50.4005 	 40.1751
| 40> H 	 -2.95328 	 47.4131 	 40.1493
| 41> *
| 42>
| 43>                          ****END OF INPUT****

CARTESIAN COORDINATES (ANGSTROEM)
---------------------------------
  S     -8.032060   50.215500   40.176200
  C     -9.751880   49.804500   40.575000
  C     -9.843940   48.857900   41.603700
  C     -8.572990   48.393300   42.020300
  C     -7.515640   49.045000   41.364100
  H     -8.340980   47.633300   42.706900
  C    -11.227700   48.406700   42.137200
  H    -11.417500   47.572200   41.477800
  H    -12.021200   49.058700   41.839300
  C    -11.288800   48.350000   43.666900
  H    -12.312600   48.604300   43.938600
  H    -11.010300   47.467600   44.143700
  C    -10.439100   49.415700   44.446300
  H    -10.497400   50.384000   44.010300
  H    -10.843900   49.567300   45.454000
  H     -9.357740   49.178300   44.346100
  S     -5.315200   48.574500   39.986100
  C     -3.861940   47.771100   40.723000
  C     -4.014730   47.606700   42.071000
  C     -5.260480   48.092700   42.527600
  C     -6.106700   48.564900   41.496000
  H     -3.195970   47.133000   42.684700
  C     -5.711260   48.085000   44.011400
  H     -6.329090   47.159300   44.264000
  H     -6.399860   48.920400   44.126300
  C     -4.570300   48.272900   45.063400
  H     -3.910720   49.129100   44.969500
  H     -3.852670   47.427600   45.124000
  C     -5.186110   48.332600   46.457300
  H     -5.344440   47.363800   46.814100
  H     -6.036750   49.018500   46.472500
  H     -4.430160   48.740500   47.202200
  H    -10.488700   50.400500   40.175100
  H     -2.953280   47.413100   40.149300

 Total Charge           Charge          ....    0
 Multiplicity           Mult            ....    1
 Number of Electrons    NEL             ....  134
 Basis Dimension        Dim             ....  322

ORBITAL ENERGIES
----------------

  NO   OCC          E(Eh)            E(eV)
   0   2.0000     -88.970344     -2421.0061
   1   2.0000     -88.963605     -2420.8228
   2   2.0000     -10.336433      -281.2687
   3   2.0000     -10.328068      -281.0410
   4   2.0000     -10.321147      -280.8527
   5   2.0000     -10.313586      -280.6469
   6   2.0000     -10.308991      -280.5219
   7   2.0000     -10.305801      -280.4351
   8   2.0000     -10.302028      -280.3324
   9   2.0000     -10.297982      -280.2223
  10   2.0000     -10.295686      -280.1599
  11   2.0000     -10.294407      -280.1250
  12   2.0000     -10.288667      -279.9689
  13   2.0000     -10.286357      -279.9060
  14   2.0000     -10.277055      -279.6529
  15   2.0000     -10.275915      -279.6219
  16   2.0000      -8.084124      -219.9802
  17   2.0000      -8.078334      -219.8226
  18   2.0000      -6.042650      -164.4289
  19   2.0000      -6.038843      -164.3253
  20   2.0000      -6.036843      -164.2709
  21   2.0000      -6.034851      -164.2166
  22   2.0000      -6.032854      -164.1623
  23   2.0000      -6.029045      -164.0587
  24   2.0000      -1.003733       -27.3130
  25   2.0000      -0.978085       -26.6150
  26   2.0000      -0.911631       -24.8067
  27   2.0000      -0.903080       -24.5741
  28   2.0000      -0.867943       -23.6179
  29   2.0000      -0.849062       -23.1042
  30   2.0000      -0.842345       -22.9214
  31   2.0000      -0.817350       -22.2412
  32   2.0000      -0.784248       -21.3405
  33   2.0000      -0.763294       -20.7703
  34   2.0000      -0.706289       -19.2191
  35   2.0000      -0.698350       -19.0031
  36   2.0000      -0.696129       -18.9426
  37   2.0000      -0.654765       -17.8171
  38   2.0000      -0.643144       -17.5008
  39   2.0000      -0.623459       -16.9652
  40   2.0000      -0.590963       -16.0809
  41   2.0000      -0.567538       -15.4435
  42   2.0000      -0.566950       -15.4275
  43   2.0000      -0.558548       -15.1989
  44   2.0000      -0.541845       -14.7444
  45   2.0000      -0.523578       -14.2473
  46   2.0000      -0.516289       -14.0489
  47   2.0000      -0.510850       -13.9009
  48   2.0000      -0.501100       -13.6356
  49   2.0000      -0.494632       -13.4596
  50   2.0000      -0.480309       -13.0699
  51   2.0000      -0.476098       -12.9553
  52   2.0000      -0.467243       -12.7143
  53   2.0000      -0.464020       -12.6266
  54   2.0000      -0.457351       -12.4452
  55   2.0000      -0.452345       -12.3089
  56   2.0000      -0.450482       -12.2582
  57   2.0000      -0.439962       -11.9720
  58   2.0000      -0.431445       -11.7402
  59   2.0000      -0.424140       -11.5414
  60   2.0000      -0.422489       -11.4965
  61   2.0000      -0.413505       -11.2521
  62   2.0000      -0.407102       -11.0778
  63   2.0000      -0.353959        -9.6317
  64   2.0000      -0.335424        -9.1273
  65   2.0000      -0.326808        -8.8929
  66   2.0000      -0.282924        -7.6988
  67   0.0000       0.023326         0.6347
  68   0.0000       0.074791         2.0352
  69   0.0000       0.095804         2.6070
  70   0.0000       0.122213         3.3256
  71   0.0000       0.134052         3.6477

MULLIKEN ATOMIC CHARGES
-----------------------
   0 S :    0.099945
   1 C :   -0.111668
   2 C :   -0.096160
   3 C :    0.013475
   4 C :   -0.119197
   5 H :   -0.000054
   6 C :    0.128997
   7 H :    0.046729
   8 H :    0.007938
   9 C :   -0.069618
  10 H :    0.027948
  11 H :    0.026650
  12 C :   -0.061691
  13 H :    0.017728
  14 H :    0.041837
  15 H :    0.038871
  16 S :    0.086434
  17 C :   -0.123369
  18 C :   -0.044241
  19 C :   -0.033601
  20 C :   -0.140356
  21 H :    0.045485
  22 C :    0.015746
  23 H :    0.054907
  24 H :    0.036270
  25 C :   -0.088144
  26 H :    0.034848
  27 H :    0.025303
  28 C :   -0.048952
  29 H :    0.023935
  30 H :    0.035322
  31 H :    0.030487
  32 H :    0.023433
  33 H :    0.074762
Sum of atomic charges:    0.0000000

LOEWDIN ATOMIC CHARGES
----------------------
   0 S :    0.380249
   1 C :   -0.172194
   2 C :   -0.046959
   3 C :   -0.062405
   4 C :   -0.188428
   5 H :    0.024423
   6 C :   -0.028396
   7 H :    0.040283
   8 H :    0.030121
   9 C :   -0.036913
  10 H :    0.028060
  11 H :    0.015240
  12 C :   -0.066380
  13 H :    0.019426
  14 H :    0.030207
  15 H :    0.027964
  16 S :    0.399681
  17 C :   -0.182817
  18 C :   -0.077055
  19 C :   -0.070638
  20 C :   -0.200990
  21 H :    0.047049
  22 C :   -0.035926
  23 H :    0.037835
  24 H :    0.029813
  25 C :   -0.046660
  26 H :    0.024608
  27 H :    0.023279
  28 C :   -0.062840
  29 H :    0.015384
  30 H :    0.024084
  31 H :    0.032603
  32 H :    0.006764
  33 H :    0.041526

  Mayer bond orders larger than 0.100000
B(  0-S ,  1-C ) :   1.1157 B(  0-S ,  4-C ) :   1.1653 B(  1-C ,  2-C ) :   1.6016
B(  1-C ,  4-C ) :   0.1007 B(  1-C , 32-H ) :   0.9806 B(  2-C ,  3-C ) :   1.2361
B(  2-C ,  6-C ) :   1.0096 B(  3-C ,  4-C ) :   1.5473 B(  3-C ,  5-H ) :   1.0004
B(  4-C , 20-C ) :   1.0306 B(  6-C ,  7-H ) :   0.9421 B(  6-C ,  8-H ) :   0.9395
B(  6-C ,  9-C ) :   1.0421 B(  9-C , 10-H ) :   0.9647 B(  9-C , 11-H ) :   0.9603
B(  9-C , 12-C ) :   1.0894 B( 12-C , 13-H ) :   0.9710 B( 12-C , 14-H ) :   0.9734
B( 12-C , 15-H ) :   0.9651 B( 16-S , 17-C ) :   1.1392 B( 16-S , 20-C ) :   1.1544
B( 17-C , 18-C ) :   1.6179 B( 17-C , 33-H ) :   0.9586 B( 18-C , 19-C ) :   1.2553
B( 18-C , 21-H ) :   0.9799 B( 19-C , 20-C ) :   1.5801 B( 19-C , 22-C ) :   1.0215
B( 22-C , 23-H ) :   0.9364 B( 22-C , 24-H ) :   0.9433 B( 22-C , 25-C ) :   1.0598
B( 25-C , 26-H ) :   0.9631 B( 25-C , 27-H ) :   0.9504 B( 25-C , 28-C ) :   1.0874
B( 28-C , 29-H ) :   0.9784 B( 28-C , 30-H ) :   0.9749 B( 28-C , 31-H ) :   0.9729

Dispersion correction           -0.014481305
FINAL SINGLE POINT ENERGY     -1339.853142027084

DIPOLE MOMENT
-------------
                                X             Y             Z
Electronic contribution:      7.93211       4.37988     -29.10732
Nuclear contribution   :     -8.19768      -4.62887      29.68237
                        -----------------------------------------
Total Dipole Moment    :     -0.26557      -0.24899       0.57505
                        -----------------------------------------
Magnitude (a.u.)       :      0.68059
Magnitude (Debye)      :      1.72993

Rotational constants in cm-1:     0.016046     0.010211     0.006733
Rotational constants in MHz :   481.039475   306.113504   201.846501

                             ****ORCA TERMINATED NORMALLY****
TOTAL RUN TIME: 0 days 0 hours 0 minutes 34 seconds 108 msec
