                         Program Version 4.2.1 -  RELEASE  -
|  1> ! wB97X-D3 SP def2-SVP
|  2> %pal
|  3> nprocs 16
|  4> end
|  5>
|  6> * xyz 0 1
|  7> S 	 29.8645 	 6.49063 	 63.2564
|  8> C 	 30.8749 	 7.72247 	 64.0224
|  9> C 	 30.267 	 8.21748 	 65.1642
| 10> C 	 29.0814 	 7.51796 	 65.4636
| 11> C 	 28.6963 	 6.51182 	 64.5538
| 12> H 	 28.3528 	 7.64993 	 66.2979
| 13> C 	 30.9421 	 9.20274 	 65.9943
| 14> H 	 31.8836 	 9.5383 	 65.4559
| 15> H 	 31.4611 	 8.74013 	 66.8001
| 16> C 	 30.0686 	 10.3818 	 66.468
| 17> H 	 29.1776 	 10.0275 	 67.0667
| 18> H 	 30.6411 	 11.0414 	 67.093
| 19> C 	 29.5788 	 11.22 	 65.2599
| 20> H 	 30.4932 	 11.6521 	 64.8016
| 21> H 	 28.8837 	 10.6102 	 64.5679
| 22> H 	 28.9394 	 11.9895 	 65.6794
| 23> S 	 26.6541 	 5.51603 	 62.982
| 24> C 	 25.5691 	 4.26454 	 63.6659
| 25> C 	 25.9506 	 3.99853 	 64.9274
| 26> C 	 26.9933 	 4.82381 	 65.4758
| 27> C 	 27.5129 	 5.70782 	 64.5134
| 28> H 	 25.3859 	 3.24721 	 65.4522
| 29> C 	 27.5678 	 4.59113 	 66.8718
| 30> H 	 28.0448 	 5.47208 	 67.2551
| 31> H 	 28.3362 	 3.89639 	 66.8301
| 32> C 	 26.4553 	 4.37167 	 67.8499
| 33> H 	 26.132 	 3.35851 	 67.6922
| 34> H 	 25.5993 	 4.9557 	 67.5236
| 35> C 	 26.7076 	 4.6582 	 69.3453
| 36> H 	 27.3534 	 3.95259 	 69.7805
| 37> H 	 25.7983 	 4.59132 	 69.9526
| 38> H 	 27.2039 	 5.65654 	 69.4452
| 39> H 	 31.8993 	 7.96033 	 63.712
| 40> H 	 24.803 	 3.79729 	 63.0996
| 41> *
| 42>
| 43>                          ****END OF INPUT****

CARTESIAN COORDINATES (ANGSTROEM)
---------------------------------
  S     29.864500    6.490630   63.256400
  C     30.874900    7.722470   64.022400
  C     30.267000    8.217480   65.164200
  C     29.081400    7.517960   65.463600
  C     28.696300    6.511820   64.553800
  H     28.352800    7.649930   66.297900
  C     30.942100    9.202740   65.994300
  H     31.883600    9.538300   65.455900
  H     31.461100    8.740130   66.800100
  C     30.068600   10.381800   66.468000
  H     29.177600   10.027500   67.066700
  H     30.641100   11.041400   67.093000
  C     29.578800   11.220000   65.259900
  H     30.493200   11.652100   64.801600
  H     28.883700   10.610200   64.567900
  H     28.939400   11.989500   65.679400
  S     26.654100    5.516030   62.982000
  C     25.569100    4.264540   63.665900
  C     25.950600    3.998530   64.927400
  C     26.993300    4.823810   65.475800
  C     27.512900    5.707820   64.513400
  H     25.385900    3.247210   65.452200
  C     27.567800    4.591130   66.871800
  H     28.044800    5.472080   67.255100
  H     28.336200    3.896390   66.830100
  C     26.455300    4.371670   67.849900
  H     26.132000    3.358510   67.692200
  H     25.599300    4.955700   67.523600
  C     26.707600    4.658200   69.345300
  H     27.353400    3.952590   69.780500
  H     25.798300    4.591320   69.952600
  H     27.203900    5.656540   69.445200
  H     31.899300    7.960330   63.712000
  H     24.803000    3.797290   63.099600

 Total Charge           Charge          ....    0
 Multiplicity           Mult            ....    1
 Number of Electrons    NEL             ....  134
 Basis Dimension        Dim             ....  322

ORBITAL ENERGIES
----------------

  NO   OCC          E(Eh)            E(eV)
   0   2.0000     -88.964850     -2420.8566
   1   2.0000     -88.962728     -2420.7989
   2   2.0000     -10.330557      -281.1087
   3   2.0000     -10.330148      -281.0976
   4   2.0000     -10.317319      -280.7485
   5   2.0000     -10.314969      -280.6846
   6   2.0000     -10.307774      -280.4888
   7   2.0000     -10.298707      -280.2421
   8   2.0000     -10.297770      -280.2166
   9   2.0000     -10.293182      -280.0917
  10   2.0000     -10.290625      -280.0222
  11   2.0000     -10.289163      -279.9824
  12   2.0000     -10.282749      -279.8078
  13   2.0000     -10.282130      -279.7910
  14   2.0000     -10.281022      -279.7608
  15   2.0000     -10.280030      -279.7338
  16   2.0000      -8.079272      -219.8482
  17   2.0000      -8.076934      -219.7846
  18   2.0000      -6.037732      -164.2950
  19   2.0000      -6.035580      -164.2365
  20   2.0000      -6.033649      -164.1839
  21   2.0000      -6.031509      -164.1257
  22   2.0000      -6.030269      -164.0920
  23   2.0000      -6.027567      -164.0184
  24   2.0000      -1.005504       -27.3612
  25   2.0000      -0.982786       -26.7430
  26   2.0000      -0.916922       -24.9507
  27   2.0000      -0.914101       -24.8740
  28   2.0000      -0.872740       -23.7485
  29   2.0000      -0.846721       -23.0405
  30   2.0000      -0.840429       -22.8692
  31   2.0000      -0.817909       -22.2564
  32   2.0000      -0.785349       -21.3704
  33   2.0000      -0.772464       -21.0198
  34   2.0000      -0.712215       -19.3803
  35   2.0000      -0.707364       -19.2483
  36   2.0000      -0.688446       -18.7336
  37   2.0000      -0.652561       -17.7571
  38   2.0000      -0.642333       -17.4788
  39   2.0000      -0.618868       -16.8403
  40   2.0000      -0.604575       -16.4513
  41   2.0000      -0.574133       -15.6230
  42   2.0000      -0.570008       -15.5107
  43   2.0000      -0.553571       -15.0634
  44   2.0000      -0.538790       -14.6612
  45   2.0000      -0.529661       -14.4128
  46   2.0000      -0.519973       -14.1492
  47   2.0000      -0.513922       -13.9845
  48   2.0000      -0.508887       -13.8475
  49   2.0000      -0.499399       -13.5893
  50   2.0000      -0.485238       -13.2040
  51   2.0000      -0.478749       -13.0274
  52   2.0000      -0.471226       -12.8227
  53   2.0000      -0.464094       -12.6286
  54   2.0000      -0.458842       -12.4857
  55   2.0000      -0.450405       -12.2562
  56   2.0000      -0.439182       -11.9507
  57   2.0000      -0.435527       -11.8513
  58   2.0000      -0.432670       -11.7735
  59   2.0000      -0.422098       -11.4859
  60   2.0000      -0.419282       -11.4092
  61   2.0000      -0.413497       -11.2518
  62   2.0000      -0.409186       -11.1345
  63   2.0000      -0.352290        -9.5863
  64   2.0000      -0.331104        -9.0098
  65   2.0000      -0.329846        -8.9756
  66   2.0000      -0.286991        -7.8094
  67   0.0000       0.025254         0.6872
  68   0.0000       0.067828         1.8457
  69   0.0000       0.114816         3.1243
  70   0.0000       0.125538         3.4161
  71   0.0000       0.131108         3.5676

MULLIKEN ATOMIC CHARGES
-----------------------
   0 S :    0.111101
   1 C :   -0.137409
   2 C :   -0.055937
   3 C :    0.013594
   4 C :   -0.178389
   5 H :    0.026496
   6 C :    0.069643
   7 H :    0.008579
   8 H :    0.028954
   9 C :   -0.092369
  10 H :    0.041388
  11 H :    0.025261
  12 C :   -0.077041
  13 H :    0.041615
  14 H :    0.063460
  15 H :    0.032599
  16 S :    0.083926
  17 C :   -0.083305
  18 C :   -0.021830
  19 C :   -0.075235
  20 C :   -0.141057
  21 H :    0.017981
  22 C :    0.174029
  23 H :   -0.015757
  24 H :    0.027077
  25 C :   -0.125915
  26 H :    0.021946
  27 H :    0.034643
  28 C :   -0.017951
  29 H :    0.018975
  30 H :    0.037790
  31 H :    0.034672
  32 H :    0.057715
  33 H :    0.050754
Sum of atomic charges:    0.0000000

LOEWDIN ATOMIC CHARGES
----------------------
   0 S :    0.404642
   1 C :   -0.193830
   2 C :   -0.068601
   3 C :   -0.070217
   4 C :   -0.194369
   5 H :    0.034845
   6 C :   -0.040356
   7 H :    0.035223
   8 H :    0.029680
   9 C :   -0.041515
  10 H :    0.027841
  11 H :    0.020842
  12 C :   -0.070750
  13 H :    0.028786
  14 H :    0.038466
  15 H :    0.022699
  16 S :    0.374932
  17 C :   -0.160341
  18 C :   -0.070330
  19 C :   -0.048381
  20 C :   -0.194166
  21 H :    0.031125
  22 C :   -0.021832
  23 H :    0.024523
  24 H :    0.025600
  25 C :   -0.044082
  26 H :    0.017851
  27 H :    0.027283
  28 C :   -0.061944
  29 H :    0.017260
  30 H :    0.031240
  31 H :    0.029182
  32 H :    0.032445
  33 H :    0.026248

  Mayer bond orders larger than 0.100000
B(  0-S ,  1-C ) :   1.1437 B(  0-S ,  4-C ) :   1.1576 B(  1-C ,  2-C ) :   1.5734
B(  1-C ,  4-C ) :   0.1082 B(  1-C , 32-H ) :   0.9657 B(  2-C ,  3-C ) :   1.2464
B(  2-C ,  6-C ) :   1.0370 B(  3-C ,  4-C ) :   1.5519 B(  3-C ,  5-H ) :   0.9833
B(  4-C , 20-C ) :   1.0797 B(  6-C ,  7-H ) :   0.9334 B(  6-C ,  8-H ) :   0.9307
B(  6-C ,  9-C ) :   1.0668 B(  9-C , 10-H ) :   0.9561 B(  9-C , 11-H ) :   0.9557
B(  9-C , 12-C ) :   1.0730 B( 12-C , 13-H ) :   0.9752 B( 12-C , 14-H ) :   0.9725
B( 12-C , 15-H ) :   0.9746 B( 16-S , 17-C ) :   1.1256 B( 16-S , 20-C ) :   1.1340
B( 17-C , 18-C ) :   1.6345 B( 17-C , 33-H ) :   0.9742 B( 18-C , 19-C ) :   1.2205
B( 18-C , 21-H ) :   0.9903 B( 19-C , 20-C ) :   1.5869 B( 19-C , 22-C ) :   1.0427
B( 22-C , 23-H ) :   0.9235 B( 22-C , 24-H ) :   0.9241 B( 22-C , 25-C ) :   1.0505
B( 25-C , 26-H ) :   0.9459 B( 25-C , 27-H ) :   0.9631 B( 25-C , 28-C ) :   1.0894
B( 28-C , 29-H ) :   0.9727 B( 28-C , 30-H ) :   0.9735 B( 28-C , 31-H ) :   0.9721

Dispersion correction           -0.013920354
FINAL SINGLE POINT ENERGY     -1339.875576533135

DIPOLE MOMENT
-------------
                                X             Y             Z
Electronic contribution:     -0.93078     -10.15160     -24.56139
Nuclear contribution   :      0.98522      10.09530      25.29636
                        -----------------------------------------
Total Dipole Moment    :      0.05444      -0.05630       0.73496
                        -----------------------------------------
Magnitude (a.u.)       :      0.73912
Magnitude (Debye)      :      1.87870

Rotational constants in cm-1:     0.017388     0.008794     0.006705
Rotational constants in MHz :   521.277704   263.638078   200.999010

                             ****ORCA TERMINATED NORMALLY****
TOTAL RUN TIME: 0 days 0 hours 0 minutes 29 seconds 971 msec
