                         Program Version 4.2.1 -  RELEASE  -
|  1> ! wB97X-D3 SP def2-SVP
|  2> %pal
|  3> nprocs 16
|  4> end
|  5>
|  6> * xyz 0 1
|  7> S 	 -33.014 	 34.0963 	 40.6052
|  8> C 	 -31.8171 	 34.1394 	 39.2935
|  9> C 	 -30.5561 	 34.5962 	 39.7379
| 10> C 	 -30.572 	 34.6959 	 41.14
| 11> C 	 -31.7728 	 34.4769 	 41.7654
| 12> H 	 -29.7452 	 34.9575 	 41.7181
| 13> C 	 -29.3244 	 34.8653 	 38.854
| 14> H 	 -28.6032 	 35.5379 	 39.3918
| 15> H 	 -29.6006 	 35.3679 	 37.8983
| 16> C 	 -28.4622 	 33.7228 	 38.445
| 17> H 	 -27.8233 	 34.1914 	 37.7051
| 18> H 	 -27.7542 	 33.3576 	 39.19
| 19> C 	 -29.2083 	 32.6104 	 37.6727
| 20> H 	 -29.8903 	 33.0226 	 36.8847
| 21> H 	 -28.4439 	 31.9235 	 37.3355
| 22> H 	 -29.9115 	 32.0656 	 38.3387
| 23> S 	 -32.0122 	 32.8202 	 43.9304
| 24> C 	 -32.26 	 33.5287 	 45.5369
| 25> C 	 -32.0207 	 34.8937 	 45.5056
| 26> C 	 -31.8295 	 35.4691 	 44.2202
| 27> C 	 -31.8759 	 34.446 	 43.2297
| 28> H 	 -31.9982 	 35.3838 	 46.4594
| 29> C 	 -31.6821 	 36.9672 	 44.0458
| 30> H 	 -32.6646 	 37.4747 	 44.0432
| 31> H 	 -31.3104 	 37.0359 	 43.0371
| 32> C 	 -30.7109 	 37.6022 	 45.0372
| 33> H 	 -31.0882 	 37.4211 	 46.0138
| 34> H 	 -30.737 	 38.6742 	 44.9618
| 35> C 	 -29.2527 	 37.1766 	 44.8186
| 36> H 	 -28.6697 	 37.5841 	 45.6874
| 37> H 	 -28.6585 	 37.344 	 43.8899
| 38> H 	 -29.3291 	 36.1371 	 44.8418
| 39> H 	 -32.0735 	 33.9999 	 38.2786
| 40> H 	 -32.5302 	 32.9853 	 46.4329
| 41> *
| 42>
| 43>                          ****END OF INPUT****

CARTESIAN COORDINATES (ANGSTROEM)
---------------------------------
  S    -33.014000   34.096300   40.605200
  C    -31.817100   34.139400   39.293500
  C    -30.556100   34.596200   39.737900
  C    -30.572000   34.695900   41.140000
  C    -31.772800   34.476900   41.765400
  H    -29.745200   34.957500   41.718100
  C    -29.324400   34.865300   38.854000
  H    -28.603200   35.537900   39.391800
  H    -29.600600   35.367900   37.898300
  C    -28.462200   33.722800   38.445000
  H    -27.823300   34.191400   37.705100
  H    -27.754200   33.357600   39.190000
  C    -29.208300   32.610400   37.672700
  H    -29.890300   33.022600   36.884700
  H    -28.443900   31.923500   37.335500
  H    -29.911500   32.065600   38.338700
  S    -32.012200   32.820200   43.930400
  C    -32.260000   33.528700   45.536900
  C    -32.020700   34.893700   45.505600
  C    -31.829500   35.469100   44.220200
  C    -31.875900   34.446000   43.229700
  H    -31.998200   35.383800   46.459400
  C    -31.682100   36.967200   44.045800
  H    -32.664600   37.474700   44.043200
  H    -31.310400   37.035900   43.037100
  C    -30.710900   37.602200   45.037200
  H    -31.088200   37.421100   46.013800
  H    -30.737000   38.674200   44.961800
  C    -29.252700   37.176600   44.818600
  H    -28.669700   37.584100   45.687400
  H    -28.658500   37.344000   43.889900
  H    -29.329100   36.137100   44.841800
  H    -32.073500   33.999900   38.278600
  H    -32.530200   32.985300   46.432900

 Total Charge           Charge          ....    0
 Multiplicity           Mult            ....    1
 Number of Electrons    NEL             ....  134
 Basis Dimension        Dim             ....  322

ORBITAL ENERGIES
----------------

  NO   OCC          E(Eh)            E(eV)
   0   2.0000     -88.969798     -2420.9913
   1   2.0000     -88.965022     -2420.8613
   2   2.0000     -10.330957      -281.1196
   3   2.0000     -10.324375      -280.9405
   4   2.0000     -10.317449      -280.7521
   5   2.0000     -10.317216      -280.7457
   6   2.0000     -10.307455      -280.4801
   7   2.0000     -10.303823      -280.3813
   8   2.0000     -10.299430      -280.2618
   9   2.0000     -10.290366      -280.0151
  10   2.0000     -10.289923      -280.0030
  11   2.0000     -10.285323      -279.8779
  12   2.0000     -10.284360      -279.8517
  13   2.0000     -10.283626      -279.8317
  14   2.0000     -10.280613      -279.7497
  15   2.0000     -10.276653      -279.6419
  16   2.0000      -8.083962      -219.9758
  17   2.0000      -8.078954      -219.8395
  18   2.0000      -6.042445      -164.4233
  19   2.0000      -6.038532      -164.3168
  20   2.0000      -6.037459      -164.2876
  21   2.0000      -6.034802      -164.2153
  22   2.0000      -6.033618      -164.1831
  23   2.0000      -6.029725      -164.0772
  24   2.0000      -1.001670       -27.2568
  25   2.0000      -0.978325       -26.6216
  26   2.0000      -0.915665       -24.9165
  27   2.0000      -0.912037       -24.8178
  28   2.0000      -0.864384       -23.5211
  29   2.0000      -0.849338       -23.1117
  30   2.0000      -0.844561       -22.9817
  31   2.0000      -0.808685       -22.0054
  32   2.0000      -0.785310       -21.3694
  33   2.0000      -0.774601       -21.0780
  34   2.0000      -0.710481       -19.3332
  35   2.0000      -0.697680       -18.9848
  36   2.0000      -0.694245       -18.8914
  37   2.0000      -0.652792       -17.7634
  38   2.0000      -0.644462       -17.5367
  39   2.0000      -0.619688       -16.8626
  40   2.0000      -0.595584       -16.2067
  41   2.0000      -0.566037       -15.4027
  42   2.0000      -0.556514       -15.1435
  43   2.0000      -0.552893       -15.0450
  44   2.0000      -0.542971       -14.7750
  45   2.0000      -0.537614       -14.6292
  46   2.0000      -0.521610       -14.1937
  47   2.0000      -0.515927       -14.0391
  48   2.0000      -0.500260       -13.6128
  49   2.0000      -0.493063       -13.4169
  50   2.0000      -0.483113       -13.1462
  51   2.0000      -0.476760       -12.9733
  52   2.0000      -0.470340       -12.7986
  53   2.0000      -0.466810       -12.7025
  54   2.0000      -0.457926       -12.4608
  55   2.0000      -0.449989       -12.2448
  56   2.0000      -0.443546       -12.0695
  57   2.0000      -0.441451       -12.0125
  58   2.0000      -0.434239       -11.8163
  59   2.0000      -0.427585       -11.6352
  60   2.0000      -0.418328       -11.3833
  61   2.0000      -0.410255       -11.1636
  62   2.0000      -0.407281       -11.0827
  63   2.0000      -0.339080        -9.2268
  64   2.0000      -0.328874        -8.9491
  65   2.0000      -0.322086        -8.7644
  66   2.0000      -0.300757        -8.1840
  67   0.0000       0.033341         0.9073
  68   0.0000       0.056805         1.5457
  69   0.0000       0.108927         2.9641
  70   0.0000       0.113984         3.1017
  71   0.0000       0.130730         3.5573

MULLIKEN ATOMIC CHARGES
-----------------------
   0 S :    0.127383
   1 C :   -0.128001
   2 C :   -0.044641
   3 C :    0.057762
   4 C :   -0.169220
   5 H :   -0.018314
   6 C :    0.036077
   7 H :    0.031183
   8 H :    0.034932
   9 C :   -0.066356
  10 H :    0.022076
  11 H :    0.032836
  12 C :   -0.071196
  13 H :    0.029464
  14 H :    0.041159
  15 H :    0.045594
  16 S :    0.109494
  17 C :   -0.096852
  18 C :   -0.047122
  19 C :   -0.037450
  20 C :   -0.194170
  21 H :    0.014767
  22 C :    0.103974
  23 H :    0.050606
  24 H :    0.011418
  25 C :   -0.054835
  26 H :    0.020961
  27 H :    0.021769
  28 C :   -0.062882
  29 H :    0.043031
  30 H :    0.042529
  31 H :    0.023289
  32 H :    0.034419
  33 H :    0.056318
Sum of atomic charges:    0.0000000

LOEWDIN ATOMIC CHARGES
----------------------
   0 S :    0.409376
   1 C :   -0.180719
   2 C :   -0.059843
   3 C :   -0.051202
   4 C :   -0.214434
   5 H :    0.020387
   6 C :   -0.036847
   7 H :    0.038043
   8 H :    0.035813
   9 C :   -0.046163
  10 H :    0.026109
  11 H :    0.023668
  12 C :   -0.070557
  13 H :    0.026684
  14 H :    0.027059
  15 H :    0.027285
  16 S :    0.391786
  17 C :   -0.178193
  18 C :   -0.074661
  19 C :   -0.055006
  20 C :   -0.190150
  21 H :    0.027784
  22 C :   -0.029790
  23 H :    0.040280
  24 H :    0.028149
  25 C :   -0.034445
  26 H :    0.019462
  27 H :    0.022481
  28 C :   -0.070700
  29 H :    0.034266
  30 H :    0.032542
  31 H :    0.016437
  32 H :    0.015643
  33 H :    0.029456

  Mayer bond orders larger than 0.100000
B(  0-S ,  1-C ) :   1.1576 B(  0-S ,  4-C ) :   1.1474 B(  1-C ,  2-C ) :   1.5670
B(  1-C , 32-H ) :   0.9740 B(  2-C ,  3-C ) :   1.2642 B(  2-C ,  6-C ) :   1.0188
B(  3-C ,  4-C ) :   1.5668 B(  3-C ,  5-H ) :   1.0014 B(  4-C , 20-C ) :   1.0249
B(  6-C ,  7-H ) :   0.9403 B(  6-C ,  8-H ) :   0.9425 B(  6-C ,  9-C ) :   1.0877
B(  9-C , 10-H ) :   0.9498 B(  9-C , 11-H ) :   0.9544 B(  9-C , 12-C ) :   1.0778
B( 12-C , 13-H ) :   0.9719 B( 12-C , 14-H ) :   0.9734 B( 12-C , 15-H ) :   0.9722
B( 16-S , 17-C ) :   1.1443 B( 16-S , 20-C ) :   1.1601 B( 17-C , 18-C ) :   1.6259
B( 17-C , 20-C ) :   0.1053 B( 17-C , 33-H ) :   0.9671 B( 18-C , 19-C ) :   1.2220
B( 18-C , 21-H ) :   0.9886 B( 19-C , 20-C ) :   1.5777 B( 19-C , 22-C ) :   1.0327
B( 22-C , 23-H ) :   0.9341 B( 22-C , 24-H ) :   0.9259 B( 22-C , 25-C ) :   1.0762
B( 25-C , 26-H ) :   0.9538 B( 25-C , 27-H ) :   0.9526 B( 25-C , 28-C ) :   1.0617
B( 28-C , 29-H ) :   0.9721 B( 28-C , 30-H ) :   0.9754 B( 28-C , 31-H ) :   0.9771

Dispersion correction           -0.014664928
FINAL SINGLE POINT ENERGY     -1339.868341894179

DIPOLE MOMENT
-------------
                                X             Y             Z
Electronic contribution:    -18.95443     -10.87505       5.61405
Nuclear contribution   :     19.40842      11.27214      -5.60852
                        -----------------------------------------
Total Dipole Moment    :      0.45399       0.39709       0.00554
                        -----------------------------------------
Magnitude (a.u.)       :      0.60317
Magnitude (Debye)      :      1.53315

Rotational constants in cm-1:     0.020502     0.008000     0.006860
Rotational constants in MHz :   614.643048   239.843518   205.653950

                             ****ORCA TERMINATED NORMALLY****
TOTAL RUN TIME: 0 days 0 hours 0 minutes 33 seconds 924 msec
