                         Program Version 4.2.1 -  RELEASE  -
|  1> ! wB97X-D3 SP def2-SVP
|  2> %pal
|  3> nprocs 16
|  4> end
|  5>
|  6> * xyz 0 1
|  7> S 	 -17.8064 	 54.8696 	 66.1729
|  8> C 	 -17.5719 	 53.1331 	 65.9689
|  9> C 	 -18.5005 	 52.51 	 65.2511
| 10> C 	 -19.4557 	 53.487 	 64.8565
| 11> C 	 -19.2142 	 54.7989 	 65.1701
| 12> H 	 -20.3491 	 53.3445 	 64.3281
| 13> C 	 -18.6387 	 51.0562 	 64.8876
| 14> H 	 -19.6808 	 51.0364 	 64.7201
| 15> H 	 -18.2841 	 50.2778 	 65.5927
| 16> C 	 -17.9014 	 50.5752 	 63.6163
| 17> H 	 -16.917 	 51.116 	 63.4882
| 18> H 	 -17.4105 	 49.5281 	 63.6536
| 19> C 	 -18.9023 	 50.6978 	 62.4229
| 20> H 	 -18.3797 	 50.7053 	 61.4088
| 21> H 	 -19.6385 	 49.8806 	 62.4103
| 22> H 	 -19.4662 	 51.5932 	 62.4601
| 23> S 	 -20.7233 	 56.2581 	 63.5109
| 24> C 	 -21.7927 	 57.5332 	 64.0729
| 25> C 	 -21.9976 	 57.4051 	 65.4494
| 26> C 	 -21.0327 	 56.5906 	 66.0768
| 27> C 	 -20.2262 	 55.8666 	 65.1316
| 28> H 	 -22.5835 	 58.1006 	 66.0114
| 29> C 	 -21.0765 	 56.3866 	 67.5913
| 30> H 	 -21.4839 	 57.253 	 68.1184
| 31> H 	 -20.098 	 56.0787 	 67.9241
| 32> C 	 -22.073 	 55.2117 	 67.911
| 33> H 	 -21.6941 	 54.3562 	 67.4229
| 34> H 	 -23.002 	 55.2487 	 67.3664
| 35> C 	 -22.5138 	 55.1782 	 69.3502
| 36> H 	 -23.3577 	 54.4916 	 69.4102
| 37> H 	 -22.8497 	 56.2059 	 69.6578
| 38> H 	 -21.7383 	 54.8036 	 70.0045
| 39> H 	 -16.6624 	 52.7403 	 66.462
| 40> H 	 -22.3899 	 58.1322 	 63.4148
| 41> *
| 42>
| 43>                          ****END OF INPUT****

CARTESIAN COORDINATES (ANGSTROEM)
---------------------------------
  S    -17.806400   54.869600   66.172900
  C    -17.571900   53.133100   65.968900
  C    -18.500500   52.510000   65.251100
  C    -19.455700   53.487000   64.856500
  C    -19.214200   54.798900   65.170100
  H    -20.349100   53.344500   64.328100
  C    -18.638700   51.056200   64.887600
  H    -19.680800   51.036400   64.720100
  H    -18.284100   50.277800   65.592700
  C    -17.901400   50.575200   63.616300
  H    -16.917000   51.116000   63.488200
  H    -17.410500   49.528100   63.653600
  C    -18.902300   50.697800   62.422900
  H    -18.379700   50.705300   61.408800
  H    -19.638500   49.880600   62.410300
  H    -19.466200   51.593200   62.460100
  S    -20.723300   56.258100   63.510900
  C    -21.792700   57.533200   64.072900
  C    -21.997600   57.405100   65.449400
  C    -21.032700   56.590600   66.076800
  C    -20.226200   55.866600   65.131600
  H    -22.583500   58.100600   66.011400
  C    -21.076500   56.386600   67.591300
  H    -21.483900   57.253000   68.118400
  H    -20.098000   56.078700   67.924100
  C    -22.073000   55.211700   67.911000
  H    -21.694100   54.356200   67.422900
  H    -23.002000   55.248700   67.366400
  C    -22.513800   55.178200   69.350200
  H    -23.357700   54.491600   69.410200
  H    -22.849700   56.205900   69.657800
  H    -21.738300   54.803600   70.004500
  H    -16.662400   52.740300   66.462000
  H    -22.389900   58.132200   63.414800

 Total Charge           Charge          ....    0
 Multiplicity           Mult            ....    1
 Number of Electrons    NEL             ....  134
 Basis Dimension        Dim             ....  322

ORBITAL ENERGIES
----------------

  NO   OCC          E(Eh)            E(eV)
   0   2.0000     -88.965526     -2420.8750
   1   2.0000     -88.964694     -2420.8524
   2   2.0000     -10.330899      -281.1181
   3   2.0000     -10.326728      -281.0046
   4   2.0000     -10.317891      -280.7641
   5   2.0000     -10.315208      -280.6911
   6   2.0000     -10.307508      -280.4816
   7   2.0000     -10.301458      -280.3169
   8   2.0000     -10.300392      -280.2879
   9   2.0000     -10.295033      -280.1421
  10   2.0000     -10.292493      -280.0730
  11   2.0000     -10.291474      -280.0452
  12   2.0000     -10.289971      -280.0044
  13   2.0000     -10.282603      -279.8039
  14   2.0000     -10.277925      -279.6766
  15   2.0000     -10.274520      -279.5839
  16   2.0000      -8.080184      -219.8730
  17   2.0000      -8.079903      -219.8653
  18   2.0000      -6.038541      -164.3171
  19   2.0000      -6.038293      -164.3103
  20   2.0000      -6.034605      -164.2099
  21   2.0000      -6.034384      -164.2039
  22   2.0000      -6.031218      -164.1178
  23   2.0000      -6.030705      -164.1038
  24   2.0000      -1.011841       -27.5336
  25   2.0000      -0.986891       -26.8547
  26   2.0000      -0.914423       -24.8827
  27   2.0000      -0.907172       -24.6854
  28   2.0000      -0.871409       -23.7122
  29   2.0000      -0.852105       -23.1870
  30   2.0000      -0.845055       -22.9951
  31   2.0000      -0.812023       -22.0963
  32   2.0000      -0.783730       -21.3264
  33   2.0000      -0.769041       -20.9267
  34   2.0000      -0.709467       -19.3056
  35   2.0000      -0.701639       -19.0926
  36   2.0000      -0.692223       -18.8363
  37   2.0000      -0.667749       -18.1704
  38   2.0000      -0.650306       -17.6957
  39   2.0000      -0.616861       -16.7856
  40   2.0000      -0.595592       -16.2069
  41   2.0000      -0.570344       -15.5199
  42   2.0000      -0.563783       -15.3413
  43   2.0000      -0.550358       -14.9760
  44   2.0000      -0.534077       -14.5330
  45   2.0000      -0.523969       -14.2579
  46   2.0000      -0.515520       -14.0280
  47   2.0000      -0.511311       -13.9135
  48   2.0000      -0.507893       -13.8205
  49   2.0000      -0.498622       -13.5682
  50   2.0000      -0.490595       -13.3498
  51   2.0000      -0.479266       -13.0415
  52   2.0000      -0.469346       -12.7716
  53   2.0000      -0.465180       -12.6582
  54   2.0000      -0.463315       -12.6074
  55   2.0000      -0.455414       -12.3925
  56   2.0000      -0.450695       -12.2640
  57   2.0000      -0.438032       -11.9195
  58   2.0000      -0.433868       -11.8062
  59   2.0000      -0.421270       -11.4634
  60   2.0000      -0.418344       -11.3837
  61   2.0000      -0.406410       -11.0590
  62   2.0000      -0.403661       -10.9842
  63   2.0000      -0.344800        -9.3825
  64   2.0000      -0.335466        -9.1285
  65   2.0000      -0.329078        -8.9547
  66   2.0000      -0.292667        -7.9639
  67   0.0000       0.033478         0.9110
  68   0.0000       0.061632         1.6771
  69   0.0000       0.106881         2.9084
  70   0.0000       0.121505         3.3063
  71   0.0000       0.127607         3.4724

MULLIKEN ATOMIC CHARGES
-----------------------
   0 S :    0.097145
   1 C :   -0.178308
   2 C :    0.011933
   3 C :    0.017935
   4 C :   -0.124948
   5 H :   -0.011995
   6 C :    0.087050
   7 H :    0.020809
   8 H :    0.039284
   9 C :   -0.108621
  10 H :    0.038381
  11 H :    0.039141
  12 C :   -0.067341
  13 H :    0.040583
  14 H :    0.039479
  15 H :    0.026169
  16 S :    0.099806
  17 C :   -0.084028
  18 C :   -0.026126
  19 C :   -0.055478
  20 C :   -0.189834
  21 H :    0.018379
  22 C :    0.100240
  23 H :    0.014599
  24 H :    0.023094
  25 C :   -0.075854
  26 H :    0.008215
  27 H :    0.010275
  28 C :   -0.022251
  29 H :    0.031269
  30 H :    0.034976
  31 H :    0.034367
  32 H :    0.057008
  33 H :    0.054647
Sum of atomic charges:   -0.0000000

LOEWDIN ATOMIC CHARGES
----------------------
   0 S :    0.404733
   1 C :   -0.174673
   2 C :   -0.068000
   3 C :   -0.056574
   4 C :   -0.212726
   5 H :    0.016423
   6 C :   -0.028201
   7 H :    0.027599
   8 H :    0.041642
   9 C :   -0.052424
  10 H :    0.029121
  11 H :    0.030945
  12 C :   -0.070319
  13 H :    0.032520
  14 H :    0.027136
  15 H :    0.016624
  16 S :    0.419834
  17 C :   -0.181031
  18 C :   -0.068938
  19 C :   -0.052183
  20 C :   -0.206558
  21 H :    0.028352
  22 C :   -0.021274
  23 H :    0.026349
  24 H :    0.024045
  25 C :   -0.044839
  26 H :    0.019497
  27 H :    0.022437
  28 C :   -0.062202
  29 H :    0.027571
  30 H :    0.030465
  31 H :    0.022241
  32 H :    0.028755
  33 H :    0.023651

  Mayer bond orders larger than 0.100000
B(  0-S ,  1-C ) :   1.1525 B(  0-S ,  4-C ) :   1.1379 B(  1-C ,  2-C ) :   1.6111
B(  1-C , 32-H ) :   0.9658 B(  2-C ,  3-C ) :   1.2227 B(  2-C ,  6-C ) :   1.0192
B(  3-C ,  4-C ) :   1.6060 B(  3-C ,  5-H ) :   0.9872 B(  4-C , 20-C ) :   0.9986
B(  6-C ,  7-H ) :   0.9415 B(  6-C ,  8-H ) :   0.9422 B(  6-C ,  9-C ) :   1.0394
B(  9-C , 10-H ) :   0.9607 B(  9-C , 11-H ) :   0.9631 B(  9-C , 12-C ) :   1.0586
B( 12-C , 13-H ) :   0.9742 B( 12-C , 14-H ) :   0.9768 B( 12-C , 15-H ) :   0.9794
B( 16-S , 17-C ) :   1.1714 B( 16-S , 20-C ) :   1.1690 B( 17-C , 18-C ) :   1.5701
B( 17-C , 20-C ) :   0.1147 B( 17-C , 33-H ) :   0.9711 B( 18-C , 19-C ) :   1.2916
B( 18-C , 21-H ) :   0.9807 B( 19-C , 20-C ) :   1.5374 B( 19-C , 22-C ) :   1.0617
B( 22-C , 23-H ) :   0.9356 B( 22-C , 24-H ) :   0.9321 B( 22-C , 25-C ) :   1.0519
B( 25-C , 26-H ) :   0.9511 B( 25-C , 27-H ) :   0.9585 B( 25-C , 28-C ) :   1.0743
B( 28-C , 29-H ) :   0.9743 B( 28-C , 30-H ) :   0.9707 B( 28-C , 31-H ) :   0.9750

Dispersion correction           -0.014416576
FINAL SINGLE POINT ENERGY     -1339.850902512065

DIPOLE MOMENT
-------------
                                X             Y             Z
Electronic contribution:      7.40884      16.15921      -6.27628
Nuclear contribution   :     -7.69613     -16.59191       6.48868
                        -----------------------------------------
Total Dipole Moment    :     -0.28729      -0.43270       0.21240
                        -----------------------------------------
Magnitude (a.u.)       :      0.56114
Magnitude (Debye)      :      1.42631

Rotational constants in cm-1:     0.018604     0.008390     0.007149
Rotational constants in MHz :   557.728636   251.515390   214.312148

                             ****ORCA TERMINATED NORMALLY****
TOTAL RUN TIME: 0 days 0 hours 0 minutes 32 seconds 867 msec
