                         Program Version 4.2.1 -  RELEASE  -
|  1> ! wB97X-D3 SP def2-SVP
|  2> %pal
|  3> nprocs 16
|  4> end
|  5>
|  6> * xyz 0 1
|  7> S 	 -31.1082 	 31.4883 	 42.542
|  8> C 	 -30.7035 	 32.1688 	 41.0713
|  9> C 	 -30.0959 	 33.3475 	 41.2606
| 10> C 	 -30.0622 	 33.7906 	 42.6582
| 11> C 	 -30.608 	 32.9297 	 43.5013
| 12> H 	 -29.5706 	 34.6981 	 42.9527
| 13> C 	 -29.1663 	 34.1316 	 40.3202
| 14> H 	 -29.3639 	 35.2155 	 40.4085
| 15> H 	 -29.3119 	 33.7816 	 39.2773
| 16> C 	 -27.6387 	 33.8297 	 40.6501
| 17> H 	 -27.1525 	 34.7742 	 40.5777
| 18> H 	 -27.5759 	 33.4875 	 41.6157
| 19> C 	 -27.0001 	 32.9166 	 39.7011
| 20> H 	 -27.0504 	 33.331 	 38.7548
| 21> H 	 -25.9477 	 32.7464 	 39.8826
| 22> H 	 -27.4151 	 31.8636 	 39.7656
| 23> S 	 -30.188 	 31.4473 	 45.7971
| 24> C 	 -30.1363 	 32.2735 	 47.3511
| 25> C 	 -30.6572 	 33.5617 	 47.2918
| 26> C 	 -31.0221 	 33.8713 	 45.9548
| 27> C 	 -30.6997 	 32.9357 	 44.9585
| 28> H 	 -30.8276 	 34.2335 	 48.0938
| 29> C 	 -31.7276 	 35.1788 	 45.6226
| 30> H 	 -32.7734 	 35.0886 	 46.0417
| 31> H 	 -31.8532 	 35.2806 	 44.5649
| 32> C 	 -31.3032 	 36.4864 	 46.1443
| 33> H 	 -31.2981 	 36.4632 	 47.2512
| 34> H 	 -31.9814 	 37.329 	 45.9549
| 35> C 	 -29.9251 	 37.0484 	 45.6221
| 36> H 	 -29.9873 	 37.817 	 44.8709
| 37> H 	 -29.3969 	 36.2832 	 45.12
| 38> H 	 -29.3275 	 37.5393 	 46.3811
| 39> H 	 -30.7061 	 31.7015 	 40.0953
| 40> H 	 -29.7677 	 31.794 	 48.2851
| 41> *
| 42>
| 43>                          ****END OF INPUT****

CARTESIAN COORDINATES (ANGSTROEM)
---------------------------------
  S    -31.108200   31.488300   42.542000
  C    -30.703500   32.168800   41.071300
  C    -30.095900   33.347500   41.260600
  C    -30.062200   33.790600   42.658200
  C    -30.608000   32.929700   43.501300
  H    -29.570600   34.698100   42.952700
  C    -29.166300   34.131600   40.320200
  H    -29.363900   35.215500   40.408500
  H    -29.311900   33.781600   39.277300
  C    -27.638700   33.829700   40.650100
  H    -27.152500   34.774200   40.577700
  H    -27.575900   33.487500   41.615700
  C    -27.000100   32.916600   39.701100
  H    -27.050400   33.331000   38.754800
  H    -25.947700   32.746400   39.882600
  H    -27.415100   31.863600   39.765600
  S    -30.188000   31.447300   45.797100
  C    -30.136300   32.273500   47.351100
  C    -30.657200   33.561700   47.291800
  C    -31.022100   33.871300   45.954800
  C    -30.699700   32.935700   44.958500
  H    -30.827600   34.233500   48.093800
  C    -31.727600   35.178800   45.622600
  H    -32.773400   35.088600   46.041700
  H    -31.853200   35.280600   44.564900
  C    -31.303200   36.486400   46.144300
  H    -31.298100   36.463200   47.251200
  H    -31.981400   37.329000   45.954900
  C    -29.925100   37.048400   45.622100
  H    -29.987300   37.817000   44.870900
  H    -29.396900   36.283200   45.120000
  H    -29.327500   37.539300   46.381100
  H    -30.706100   31.701500   40.095300
  H    -29.767700   31.794000   48.285100

 Total Charge           Charge          ....    0
 Multiplicity           Mult            ....    1
 Number of Electrons    NEL             ....  134
 Basis Dimension        Dim             ....  322

ORBITAL ENERGIES
----------------

  NO   OCC          E(Eh)            E(eV)
   0   2.0000     -88.966688     -2420.9066
   1   2.0000     -88.958609     -2420.6868
   2   2.0000     -10.333483      -281.1884
   3   2.0000     -10.332265      -281.1552
   4   2.0000     -10.328347      -281.0486
   5   2.0000     -10.309689      -280.5409
   6   2.0000     -10.307050      -280.4691
   7   2.0000     -10.297317      -280.2043
   8   2.0000     -10.296278      -280.1760
   9   2.0000     -10.295609      -280.1578
  10   2.0000     -10.289999      -280.0051
  11   2.0000     -10.288888      -279.9749
  12   2.0000     -10.288696      -279.9696
  13   2.0000     -10.273136      -279.5462
  14   2.0000     -10.270999      -279.4881
  15   2.0000     -10.270006      -279.4611
  16   2.0000      -8.080959      -219.8941
  17   2.0000      -8.074753      -219.7252
  18   2.0000      -6.039583      -164.3454
  19   2.0000      -6.035520      -164.2349
  20   2.0000      -6.033488      -164.1796
  21   2.0000      -6.031618      -164.1287
  22   2.0000      -6.029155      -164.0617
  23   2.0000      -6.025065      -163.9503
  24   2.0000      -1.011559       -27.5259
  25   2.0000      -0.988164       -26.8893
  26   2.0000      -0.912822       -24.8392
  27   2.0000      -0.910934       -24.7878
  28   2.0000      -0.879423       -23.9303
  29   2.0000      -0.852233       -23.1904
  30   2.0000      -0.844845       -22.9894
  31   2.0000      -0.821231       -22.3468
  32   2.0000      -0.785075       -21.3630
  33   2.0000      -0.770840       -20.9756
  34   2.0000      -0.712518       -19.3886
  35   2.0000      -0.697711       -18.9857
  36   2.0000      -0.695323       -18.9207
  37   2.0000      -0.663758       -18.0618
  38   2.0000      -0.645603       -17.5678
  39   2.0000      -0.626268       -17.0416
  40   2.0000      -0.598239       -16.2789
  41   2.0000      -0.578568       -15.7436
  42   2.0000      -0.557530       -15.1712
  43   2.0000      -0.555045       -15.1036
  44   2.0000      -0.543982       -14.8025
  45   2.0000      -0.538192       -14.6450
  46   2.0000      -0.516821       -14.0634
  47   2.0000      -0.515089       -14.0163
  48   2.0000      -0.507425       -13.8077
  49   2.0000      -0.501109       -13.6359
  50   2.0000      -0.492317       -13.3966
  51   2.0000      -0.484595       -13.1865
  52   2.0000      -0.476039       -12.9537
  53   2.0000      -0.465075       -12.6553
  54   2.0000      -0.459498       -12.5036
  55   2.0000      -0.451460       -12.2849
  56   2.0000      -0.445182       -12.1140
  57   2.0000      -0.439481       -11.9589
  58   2.0000      -0.434563       -11.8251
  59   2.0000      -0.422102       -11.4860
  60   2.0000      -0.417539       -11.3618
  61   2.0000      -0.406015       -11.0482
  62   2.0000      -0.401769       -10.9327
  63   2.0000      -0.362976        -9.8771
  64   2.0000      -0.333184        -9.0664
  65   2.0000      -0.320753        -8.7281
  66   2.0000      -0.292243        -7.9523
  67   0.0000       0.028470         0.7747
  68   0.0000       0.069593         1.8937
  69   0.0000       0.110796         3.0149
  70   0.0000       0.120260         3.2724
  71   0.0000       0.126534         3.4432

MULLIKEN ATOMIC CHARGES
-----------------------
   0 S :    0.083920
   1 C :   -0.085220
   2 C :   -0.116614
   3 C :    0.016466
   4 C :   -0.102364
   5 H :    0.006871
   6 C :    0.019187
   7 H :    0.036325
   8 H :    0.020045
   9 C :   -0.014123
  10 H :    0.015404
  11 H :    0.017204
  12 C :   -0.036883
  13 H :    0.016146
  14 H :    0.025929
  15 H :    0.033449
  16 S :    0.095176
  17 C :   -0.096834
  18 C :    0.000208
  19 C :   -0.039552
  20 C :   -0.141265
  21 H :    0.009924
  22 C :    0.058096
  23 H :    0.044226
  24 H :    0.019280
  25 C :   -0.088480
  26 H :    0.019061
  27 H :    0.033375
  28 C :   -0.038791
  29 H :    0.016883
  30 H :    0.019449
  31 H :    0.029861
  32 H :    0.047740
  33 H :    0.075901
Sum of atomic charges:   -0.0000000

LOEWDIN ATOMIC CHARGES
----------------------
   0 S :    0.395385
   1 C :   -0.215809
   2 C :   -0.072660
   3 C :   -0.059713
   4 C :   -0.170966
   5 H :    0.029019
   6 C :   -0.027666
   7 H :    0.030809
   8 H :    0.026752
   9 C :   -0.029996
  10 H :    0.022346
  11 H :    0.013337
  12 C :   -0.062006
  13 H :    0.014415
  14 H :    0.027049
  15 H :    0.031933
  16 S :    0.390914
  17 C :   -0.173060
  18 C :   -0.068214
  19 C :   -0.049887
  20 C :   -0.190000
  21 H :    0.029269
  22 C :   -0.040610
  23 H :    0.048109
  24 H :    0.026382
  25 C :   -0.048256
  26 H :    0.020185
  27 H :    0.031563
  28 C :   -0.069153
  29 H :    0.021972
  30 H :    0.016577
  31 H :    0.027559
  32 H :    0.036636
  33 H :    0.037783

  Mayer bond orders larger than 0.100000
B(  0-S ,  1-C ) :   1.1273 B(  0-S ,  4-C ) :   1.1143 B(  1-C ,  2-C ) :   1.6652
B(  1-C , 32-H ) :   0.9619 B(  2-C ,  3-C ) :   1.1910 B(  2-C ,  6-C ) :   1.0417
B(  3-C ,  4-C ) :   1.6301 B(  3-C ,  5-H ) :   1.0050 B(  4-C , 20-C ) :   1.0367
B(  6-C ,  7-H ) :   0.9442 B(  6-C ,  8-H ) :   0.9500 B(  6-C ,  9-C ) :   1.0354
B(  9-C , 10-H ) :   0.9506 B(  9-C , 11-H ) :   0.9585 B(  9-C , 12-C ) :   1.1104
B( 12-C , 13-H ) :   0.9715 B( 12-C , 14-H ) :   0.9670 B( 12-C , 15-H ) :   0.9697
B( 16-S , 17-C ) :   1.1707 B( 16-S , 20-C ) :   1.1180 B( 17-C , 18-C ) :   1.5724
B( 17-C , 20-C ) :   0.1033 B( 17-C , 33-H ) :   0.9619 B( 18-C , 19-C ) :   1.2544
B( 18-C , 21-H ) :   0.9996 B( 19-C , 20-C ) :   1.5833 B( 19-C , 22-C ) :   1.0413
B( 22-C , 23-H ) :   0.9218 B( 22-C , 24-H ) :   0.9430 B( 22-C , 25-C ) :   1.0938
B( 25-C , 26-H ) :   0.9544 B( 25-C , 27-H ) :   0.9546 B( 25-C , 28-C ) :   1.0502
B( 28-C , 29-H ) :   0.9779 B( 28-C , 30-H ) :   0.9827 B( 28-C , 31-H ) :   0.9752

Dispersion correction           -0.014380402
FINAL SINGLE POINT ENERGY     -1339.854615422279

DIPOLE MOMENT
-------------
                                X             Y             Z
Electronic contribution:    -10.67398     -21.60511       8.16262
Nuclear contribution   :     10.99889      22.24020      -8.13648
                        -----------------------------------------
Total Dipole Moment    :      0.32491       0.63509       0.02614
                        -----------------------------------------
Magnitude (a.u.)       :      0.71385
Magnitude (Debye)      :      1.81447

Rotational constants in cm-1:     0.018699     0.008722     0.007086
Rotational constants in MHz :   560.577125   261.485055   212.445116

                             ****ORCA TERMINATED NORMALLY****
TOTAL RUN TIME: 0 days 0 hours 0 minutes 34 seconds 978 msec
