                         Program Version 4.2.1 -  RELEASE  -
|  1> ! wB97X-D3 SP def2-SVP
|  2> %pal
|  3> nprocs 16
|  4> end
|  5>
|  6> * xyz 0 1
|  7> S 	 7.84521 	 23.0875 	 41.2929
|  8> C 	 6.47197 	 24.05 	 41.8491
|  9> C 	 6.72886 	 25.3672 	 41.9262
| 10> C 	 7.9846 	 25.683 	 41.3749
| 11> C 	 8.71846 	 24.5709 	 41.0003
| 12> H 	 8.40886 	 26.6233 	 41.1854
| 13> C 	 5.65861 	 26.3601 	 42.442
| 14> H 	 6.04496 	 27.087 	 43.1188
| 15> H 	 4.93034 	 25.7205 	 43.0414
| 16> C 	 4.86479 	 27.0003 	 41.2791
| 17> H 	 5.5779 	 27.4172 	 40.4777
| 18> H 	 4.33639 	 26.238 	 40.7727
| 19> C 	 3.681 	 27.9641 	 41.6448
| 20> H 	 2.9651 	 27.485 	 42.3089
| 21> H 	 4.05585 	 28.8252 	 42.1805
| 22> H 	 3.24274 	 28.4096 	 40.7608
| 23> S 	 11.3728 	 25.0024 	 41.1877
| 24> C 	 12.2689 	 24.9239 	 39.6712
| 25> C 	 11.557 	 24.407 	 38.6076
| 26> C 	 10.19 	 24.1406 	 38.9692
| 27> C 	 9.93623 	 24.5402 	 40.2686
| 28> H 	 12.1551 	 24.3442 	 37.6222
| 29> C 	 9.1168 	 23.911 	 37.9252
| 30> H 	 8.19485 	 23.8061 	 38.3149
| 31> H 	 9.26843 	 23.1 	 37.2544
| 32> C 	 8.84146 	 25.1181 	 37.0078
| 33> H 	 9.68484 	 25.3305 	 36.3295
| 34> H 	 8.84733 	 26.0487 	 37.5978
| 35> C 	 7.51281 	 25.1956 	 36.1634
| 36> H 	 6.6418 	 25.0392 	 36.8272
| 37> H 	 7.41537 	 24.4556 	 35.3422
| 38> H 	 7.42776 	 26.2338 	 35.7698
| 39> H 	 5.53203 	 23.6109 	 42.1826
| 40> H 	 13.3274 	 25.0907 	 39.74
| 41> *
| 42>
| 43>                          ****END OF INPUT****

CARTESIAN COORDINATES (ANGSTROEM)
---------------------------------
  S      7.845210   23.087500   41.292900
  C      6.471970   24.050000   41.849100
  C      6.728860   25.367200   41.926200
  C      7.984600   25.683000   41.374900
  C      8.718460   24.570900   41.000300
  H      8.408860   26.623300   41.185400
  C      5.658610   26.360100   42.442000
  H      6.044960   27.087000   43.118800
  H      4.930340   25.720500   43.041400
  C      4.864790   27.000300   41.279100
  H      5.577900   27.417200   40.477700
  H      4.336390   26.238000   40.772700
  C      3.681000   27.964100   41.644800
  H      2.965100   27.485000   42.308900
  H      4.055850   28.825200   42.180500
  H      3.242740   28.409600   40.760800
  S     11.372800   25.002400   41.187700
  C     12.268900   24.923900   39.671200
  C     11.557000   24.407000   38.607600
  C     10.190000   24.140600   38.969200
  C      9.936230   24.540200   40.268600
  H     12.155100   24.344200   37.622200
  C      9.116800   23.911000   37.925200
  H      8.194850   23.806100   38.314900
  H      9.268430   23.100000   37.254400
  C      8.841460   25.118100   37.007800
  H      9.684840   25.330500   36.329500
  H      8.847330   26.048700   37.597800
  C      7.512810   25.195600   36.163400
  H      6.641800   25.039200   36.827200
  H      7.415370   24.455600   35.342200
  H      7.427760   26.233800   35.769800
  H      5.532030   23.610900   42.182600
  H     13.327400   25.090700   39.740000

 Total Charge           Charge          ....    0
 Multiplicity           Mult            ....    1
 Number of Electrons    NEL             ....  134
 Basis Dimension        Dim             ....  322

ORBITAL ENERGIES
----------------

  NO   OCC          E(Eh)            E(eV)
   0   2.0000     -88.965543     -2420.8755
   1   2.0000     -88.964571     -2420.8491
   2   2.0000     -10.323471      -280.9159
   3   2.0000     -10.322109      -280.8789
   4   2.0000     -10.316057      -280.7142
   5   2.0000     -10.310363      -280.5592
   6   2.0000     -10.308666      -280.5131
   7   2.0000     -10.304049      -280.3874
   8   2.0000     -10.300263      -280.2844
   9   2.0000     -10.298167      -280.2274
  10   2.0000     -10.291211      -280.0381
  11   2.0000     -10.289896      -280.0023
  12   2.0000     -10.286234      -279.9027
  13   2.0000     -10.285625      -279.8861
  14   2.0000     -10.279792      -279.7274
  15   2.0000     -10.279302      -279.7140
  16   2.0000      -8.080060      -219.8696
  17   2.0000      -8.079358      -219.8505
  18   2.0000      -6.038468      -164.3151
  19   2.0000      -6.037653      -164.2929
  20   2.0000      -6.034694      -164.2124
  21   2.0000      -6.034098      -164.1962
  22   2.0000      -6.030837      -164.1074
  23   2.0000      -6.030096      -164.0873
  24   2.0000      -1.009673       -27.4746
  25   2.0000      -0.984030       -26.7768
  26   2.0000      -0.906772       -24.6745
  27   2.0000      -0.905263       -24.6335
  28   2.0000      -0.870293       -23.6819
  29   2.0000      -0.848989       -23.1022
  30   2.0000      -0.843884       -22.9632
  31   2.0000      -0.813832       -22.1455
  32   2.0000      -0.787310       -21.4238
  33   2.0000      -0.772568       -21.0226
  34   2.0000      -0.706148       -19.2153
  35   2.0000      -0.696812       -18.9612
  36   2.0000      -0.692102       -18.8331
  37   2.0000      -0.660310       -17.9679
  38   2.0000      -0.644295       -17.5321
  39   2.0000      -0.619221       -16.8498
  40   2.0000      -0.601832       -16.3767
  41   2.0000      -0.568038       -15.4571
  42   2.0000      -0.561578       -15.2813
  43   2.0000      -0.550810       -14.9883
  44   2.0000      -0.523597       -14.2478
  45   2.0000      -0.517411       -14.0795
  46   2.0000      -0.514967       -14.0130
  47   2.0000      -0.511286       -13.9128
  48   2.0000      -0.504557       -13.7297
  49   2.0000      -0.499575       -13.5941
  50   2.0000      -0.490081       -13.3358
  51   2.0000      -0.475385       -12.9359
  52   2.0000      -0.471044       -12.8177
  53   2.0000      -0.467316       -12.7163
  54   2.0000      -0.458085       -12.4651
  55   2.0000      -0.448315       -12.1993
  56   2.0000      -0.443946       -12.0804
  57   2.0000      -0.438108       -11.9215
  58   2.0000      -0.433448       -11.7947
  59   2.0000      -0.425957       -11.5909
  60   2.0000      -0.421569       -11.4715
  61   2.0000      -0.415541       -11.3074
  62   2.0000      -0.411505       -11.1976
  63   2.0000      -0.338865        -9.2210
  64   2.0000      -0.334241        -9.0952
  65   2.0000      -0.330251        -8.9866
  66   2.0000      -0.300050        -8.1648
  67   0.0000       0.035035         0.9533
  68   0.0000       0.065759         1.7894
  69   0.0000       0.104912         2.8548
  70   0.0000       0.118537         3.2256
  71   0.0000       0.124187         3.3793

MULLIKEN ATOMIC CHARGES
-----------------------
   0 S :    0.122305
   1 C :   -0.137116
   2 C :   -0.048930
   3 C :    0.057604
   4 C :   -0.177860
   5 H :   -0.011554
   6 C :    0.074513
   7 H :    0.028253
   8 H :    0.022382
   9 C :   -0.099268
  10 H :    0.040523
  11 H :    0.016848
  12 C :   -0.029291
  13 H :    0.034605
  14 H :    0.019275
  15 H :    0.036964
  16 S :    0.106402
  17 C :   -0.102377
  18 C :   -0.061740
  19 C :    0.010770
  20 C :   -0.197329
  21 H :    0.059477
  22 C :    0.181006
  23 H :   -0.020584
  24 H :    0.017995
  25 C :   -0.130399
  26 H :    0.020603
  27 H :    0.023888
  28 C :   -0.074864
  29 H :    0.035922
  30 H :    0.041024
  31 H :    0.044252
  32 H :    0.044074
  33 H :    0.052627
Sum of atomic charges:   -0.0000000

LOEWDIN ATOMIC CHARGES
----------------------
   0 S :    0.403967
   1 C :   -0.185662
   2 C :   -0.065414
   3 C :   -0.051081
   4 C :   -0.199650
   5 H :    0.023796
   6 C :   -0.023639
   7 H :    0.023717
   8 H :    0.034833
   9 C :   -0.046828
  10 H :    0.031178
  11 H :    0.017750
  12 C :   -0.064947
  13 H :    0.025708
  14 H :    0.019734
  15 H :    0.029029
  16 S :    0.392106
  17 C :   -0.175975
  18 C :   -0.077131
  19 C :   -0.048291
  20 C :   -0.192767
  21 H :    0.053362
  22 C :   -0.021398
  23 H :    0.010756
  24 H :    0.029622
  25 C :   -0.043819
  26 H :    0.017535
  27 H :    0.024415
  28 C :   -0.070974
  29 H :    0.025423
  30 H :    0.024113
  31 H :    0.034322
  32 H :    0.026177
  33 H :    0.020031

  Mayer bond orders larger than 0.100000
B(  0-S ,  1-C ) :   1.1342 B(  0-S ,  4-C ) :   1.1432 B(  1-C ,  2-C ) :   1.6450
B(  1-C , 32-H ) :   0.9604 B(  2-C ,  3-C ) :   1.2153 B(  2-C ,  6-C ) :   1.0167
B(  3-C ,  4-C ) :   1.5941 B(  3-C ,  5-H ) :   1.0047 B(  4-C , 20-C ) :   1.0335
B(  6-C ,  7-H ) :   0.9451 B(  6-C ,  8-H ) :   0.9413 B(  6-C ,  9-C ) :   1.0548
B(  9-C , 10-H ) :   0.9597 B(  9-C , 11-H ) :   0.9559 B(  9-C , 12-C ) :   1.0741
B( 12-C , 13-H ) :   0.9751 B( 12-C , 14-H ) :   0.9763 B( 12-C , 15-H ) :   0.9738
B( 16-S , 17-C ) :   1.1425 B( 16-S , 20-C ) :   1.1484 B( 17-C , 18-C ) :   1.6476
B( 17-C , 20-C ) :   0.1020 B( 17-C , 33-H ) :   0.9689 B( 18-C , 19-C ) :   1.1842
B( 18-C , 21-H ) :   0.9768 B( 19-C , 20-C ) :   1.6110 B( 19-C , 22-C ) :   1.0748
B( 22-C , 23-H ) :   0.9202 B( 22-C , 24-H ) :   0.9278 B( 22-C , 25-C ) :   1.0449
B( 25-C , 26-H ) :   0.9537 B( 25-C , 27-H ) :   0.9559 B( 25-C , 28-C ) :   1.0803
B( 28-C , 29-H ) :   0.9744 B( 28-C , 30-H ) :   0.9775 B( 28-C , 31-H ) :   0.9745

Dispersion correction           -0.014356666
FINAL SINGLE POINT ENERGY     -1339.868335785439

DIPOLE MOMENT
-------------
                                X             Y             Z
Electronic contribution:     21.82980     -14.15033      13.20782
Nuclear contribution   :    -22.14013      14.50135     -13.50559
                        -----------------------------------------
Total Dipole Moment    :     -0.31033       0.35101      -0.29777
                        -----------------------------------------
Magnitude (a.u.)       :      0.55514
Magnitude (Debye)      :      1.41106

Rotational constants in cm-1:     0.017981     0.008438     0.007066
Rotational constants in MHz :   539.047463   252.973490   211.835025

                             ****ORCA TERMINATED NORMALLY****
TOTAL RUN TIME: 0 days 0 hours 0 minutes 34 seconds 778 msec
