                         Program Version 4.2.1 -  RELEASE  -
|  1> ! wB97X-D3 SP def2-SVP
|  2> %pal
|  3> nprocs 16
|  4> end
|  5>
|  6> * xyz 0 1
|  7> S 	 -37.0777 	 71.4532 	 108.618
|  8> C 	 -37.3105 	 69.9573 	 107.617
|  9> C 	 -36.7397 	 68.8151 	 108.1
| 10> C 	 -35.758 	 69.1835 	 109.038
| 11> C 	 -35.7938 	 70.5041 	 109.458
| 12> H 	 -35.0443 	 68.5627 	 109.451
| 13> C 	 -36.8282 	 67.4932 	 107.438
| 14> H 	 -37.0344 	 66.6499 	 108.193
| 15> H 	 -35.8593 	 67.1321 	 107.113
| 16> C 	 -37.8174 	 67.283 	 106.189
| 17> H 	 -38.8438 	 67.2495 	 106.57
| 18> H 	 -37.6108 	 68.1261 	 105.5
| 19> C 	 -37.7334 	 65.972 	 105.436
| 20> H 	 -38.0539 	 65.1641 	 106.104
| 21> H 	 -38.49 	 65.8917 	 104.641
| 22> H 	 -36.7532 	 65.7072 	 105.11
| 23> S 	 -35.5448 	 71.1454 	 111.999
| 24> C 	 -34.1456 	 72.0074 	 112.565
| 25> C 	 -33.2423 	 72.2775 	 111.483
| 26> C 	 -33.7678 	 71.9179 	 110.249
| 27> C 	 -34.9115 	 71.158 	 110.39
| 28> H 	 -32.3616 	 72.7801 	 111.64
| 29> C 	 -33.0226 	 72.2704 	 108.997
| 30> H 	 -33.4616 	 71.6214 	 108.222
| 31> H 	 -32.0131 	 71.9301 	 109.16
| 32> C 	 -32.9335 	 73.8301 	 108.711
| 33> H 	 -32.3842 	 74.0797 	 107.825
| 34> H 	 -32.3496 	 74.3365 	 109.47
| 35> C 	 -34.2622 	 74.5602 	 108.442
| 36> H 	 -34.6773 	 74.0983 	 107.509
| 37> H 	 -34.0671 	 75.6169 	 108.23
| 38> H 	 -35.0685 	 74.5889 	 109.222
| 39> H 	 -37.9078 	 69.9829 	 106.701
| 40> H 	 -33.6453 	 71.7984 	 113.522
| 41> *
| 42>
| 43>                          ****END OF INPUT****

CARTESIAN COORDINATES (ANGSTROEM)
---------------------------------
  S    -37.077700   71.453200  108.618000
  C    -37.310500   69.957300  107.617000
  C    -36.739700   68.815100  108.100000
  C    -35.758000   69.183500  109.038000
  C    -35.793800   70.504100  109.458000
  H    -35.044300   68.562700  109.451000
  C    -36.828200   67.493200  107.438000
  H    -37.034400   66.649900  108.193000
  H    -35.859300   67.132100  107.113000
  C    -37.817400   67.283000  106.189000
  H    -38.843800   67.249500  106.570000
  H    -37.610800   68.126100  105.500000
  C    -37.733400   65.972000  105.436000
  H    -38.053900   65.164100  106.104000
  H    -38.490000   65.891700  104.641000
  H    -36.753200   65.707200  105.110000
  S    -35.544800   71.145400  111.999000
  C    -34.145600   72.007400  112.565000
  C    -33.242300   72.277500  111.483000
  C    -33.767800   71.917900  110.249000
  C    -34.911500   71.158000  110.390000
  H    -32.361600   72.780100  111.640000
  C    -33.022600   72.270400  108.997000
  H    -33.461600   71.621400  108.222000
  H    -32.013100   71.930100  109.160000
  C    -32.933500   73.830100  108.711000
  H    -32.384200   74.079700  107.825000
  H    -32.349600   74.336500  109.470000
  C    -34.262200   74.560200  108.442000
  H    -34.677300   74.098300  107.509000
  H    -34.067100   75.616900  108.230000
  H    -35.068500   74.588900  109.222000
  H    -37.907800   69.982900  106.701000
  H    -33.645300   71.798400  113.522000

 Total Charge           Charge          ....    0
 Multiplicity           Mult            ....    1
 Number of Electrons    NEL             ....  134
 Basis Dimension        Dim             ....  322

ORBITAL ENERGIES
----------------

  NO   OCC          E(Eh)            E(eV)
   0   2.0000     -88.965226     -2420.8669
   1   2.0000     -88.965017     -2420.8612
   2   2.0000     -10.327281      -281.0196
   3   2.0000     -10.319272      -280.8017
   4   2.0000     -10.317021      -280.7404
   5   2.0000     -10.312299      -280.6119
   6   2.0000     -10.303447      -280.3711
   7   2.0000     -10.301260      -280.3115
   8   2.0000     -10.297019      -280.1961
   9   2.0000     -10.296215      -280.1743
  10   2.0000     -10.293016      -280.0872
  11   2.0000     -10.291899      -280.0568
  12   2.0000     -10.289199      -279.9833
  13   2.0000     -10.286227      -279.9025
  14   2.0000     -10.281107      -279.7631
  15   2.0000     -10.278375      -279.6888
  16   2.0000      -8.080250      -219.8748
  17   2.0000      -8.078363      -219.8234
  18   2.0000      -6.038623      -164.3193
  19   2.0000      -6.036811      -164.2700
  20   2.0000      -6.034533      -164.2080
  21   2.0000      -6.033478      -164.1793
  22   2.0000      -6.031271      -164.1192
  23   2.0000      -6.028883      -164.0543
  24   2.0000      -1.006861       -27.3981
  25   2.0000      -0.981702       -26.7135
  26   2.0000      -0.908349       -24.7174
  27   2.0000      -0.903440       -24.5838
  28   2.0000      -0.869849       -23.6698
  29   2.0000      -0.852123       -23.1874
  30   2.0000      -0.848278       -23.0828
  31   2.0000      -0.811776       -22.0896
  32   2.0000      -0.783769       -21.3274
  33   2.0000      -0.768373       -20.9085
  34   2.0000      -0.711475       -19.3602
  35   2.0000      -0.701249       -19.0819
  36   2.0000      -0.689357       -18.7584
  37   2.0000      -0.667454       -18.1623
  38   2.0000      -0.641775       -17.4636
  39   2.0000      -0.615243       -16.7416
  40   2.0000      -0.585079       -15.9208
  41   2.0000      -0.571745       -15.5580
  42   2.0000      -0.566004       -15.4018
  43   2.0000      -0.548341       -14.9211
  44   2.0000      -0.543959       -14.8019
  45   2.0000      -0.523849       -14.2547
  46   2.0000      -0.519145       -14.1267
  47   2.0000      -0.515107       -14.0168
  48   2.0000      -0.502066       -13.6619
  49   2.0000      -0.491728       -13.3806
  50   2.0000      -0.486075       -13.2268
  51   2.0000      -0.479512       -13.0482
  52   2.0000      -0.466809       -12.7025
  53   2.0000      -0.457682       -12.4542
  54   2.0000      -0.450209       -12.2508
  55   2.0000      -0.448198       -12.1961
  56   2.0000      -0.443720       -12.0742
  57   2.0000      -0.438504       -11.9323
  58   2.0000      -0.430840       -11.7238
  59   2.0000      -0.428555       -11.6616
  60   2.0000      -0.425897       -11.5893
  61   2.0000      -0.414734       -11.2855
  62   2.0000      -0.412793       -11.2327
  63   2.0000      -0.337703        -9.1894
  64   2.0000      -0.329141        -8.9564
  65   2.0000      -0.315044        -8.5728
  66   2.0000      -0.302654        -8.2356
  67   0.0000       0.031851         0.8667
  68   0.0000       0.051749         1.4082
  69   0.0000       0.097414         2.6508
  70   0.0000       0.120934         3.2908
  71   0.0000       0.125703         3.4206

MULLIKEN ATOMIC CHARGES
-----------------------
   0 S :    0.108488
   1 C :   -0.152502
   2 C :    0.009953
   3 C :    0.065879
   4 C :   -0.165031
   5 H :   -0.018218
   6 C :    0.007300
   7 H :    0.034640
   8 H :    0.022208
   9 C :   -0.102297
  10 H :    0.042833
  11 H :    0.044764
  12 C :   -0.032591
  13 H :    0.020612
  14 H :    0.039402
  15 H :    0.026327
  16 S :    0.122657
  17 C :   -0.089498
  18 C :   -0.055477
  19 C :    0.005602
  20 C :   -0.228518
  21 H :   -0.008314
  22 C :    0.094130
  23 H :    0.032114
  24 H :    0.024536
  25 C :   -0.056866
  26 H :    0.024815
  27 H :    0.022538
  28 C :   -0.084341
  29 H :    0.036201
  30 H :    0.030963
  31 H :    0.047770
  32 H :    0.053849
  33 H :    0.076070
Sum of atomic charges:    0.0000000

LOEWDIN ATOMIC CHARGES
----------------------
   0 S :    0.350880
   1 C :   -0.162253
   2 C :   -0.068448
   3 C :   -0.037011
   4 C :   -0.185989
   5 H :    0.020762
   6 C :   -0.040504
   7 H :    0.040671
   8 H :    0.028623
   9 C :   -0.042311
  10 H :    0.029995
  11 H :    0.024960
  12 C :   -0.065029
  13 H :    0.026653
  14 H :    0.033366
  15 H :    0.017473
  16 S :    0.435870
  17 C :   -0.218045
  18 C :   -0.049469
  19 C :   -0.058592
  20 C :   -0.211621
  21 H :    0.015413
  22 C :   -0.026281
  23 H :    0.033846
  24 H :    0.032394
  25 C :   -0.038114
  26 H :    0.026123
  27 H :    0.020393
  28 C :   -0.074468
  29 H :    0.029089
  30 H :    0.025857
  31 H :    0.026796
  32 H :    0.023429
  33 H :    0.035541

  Mayer bond orders larger than 0.100000
B(  0-S ,  1-C ) :   1.1221 B(  0-S ,  4-C ) :   1.1018 B(  1-C ,  2-C ) :   1.6567
B(  1-C , 32-H ) :   0.9537 B(  2-C ,  3-C ) :   1.1810 B(  2-C ,  6-C ) :   1.0317
B(  3-C ,  4-C ) :   1.6474 B(  3-C ,  5-H ) :   1.0031 B(  4-C , 20-C ) :   1.0182
B(  6-C ,  7-H ) :   0.9264 B(  6-C ,  8-H ) :   0.9404 B(  6-C ,  9-C ) :   1.0616
B(  9-C , 10-H ) :   0.9580 B(  9-C , 11-H ) :   0.9494 B(  9-C , 12-C ) :   1.0940
B( 12-C , 13-H ) :   0.9717 B( 12-C , 14-H ) :   0.9706 B( 12-C , 15-H ) :   0.9748
B( 16-S , 17-C ) :   1.1682 B( 16-S , 20-C ) :   1.1890 B( 17-C , 18-C ) :   1.5741
B( 17-C , 20-C ) :   0.1194 B( 17-C , 33-H ) :   0.9514 B( 18-C , 19-C ) :   1.2676
B( 18-C , 21-H ) :   0.9956 B( 19-C , 20-C ) :   1.5526 B( 19-C , 22-C ) :   1.0404
B( 22-C , 23-H ) :   0.9377 B( 22-C , 24-H ) :   0.9327 B( 22-C , 25-C ) :   1.0590
B( 25-C , 26-H ) :   0.9564 B( 25-C , 27-H ) :   0.9567 B( 25-C , 28-C ) :   1.0695
B( 28-C , 29-H ) :   0.9759 B( 28-C , 30-H ) :   0.9728 B( 28-C , 31-H ) :   0.9773

Dispersion correction           -0.014368043
FINAL SINGLE POINT ENERGY     -1339.844699941561

DIPOLE MOMENT
-------------
                                X             Y             Z
Electronic contribution:     -3.82224       6.41566      19.20857
Nuclear contribution   :      4.27333      -6.88225     -19.69965
                        -----------------------------------------
Total Dipole Moment    :      0.45109      -0.46659      -0.49108
                        -----------------------------------------
Magnitude (a.u.)       :      0.81385
Magnitude (Debye)      :      2.06864

Rotational constants in cm-1:     0.024019     0.007010     0.006281
Rotational constants in MHz :   720.072591   210.142264   188.304353

                             ****ORCA TERMINATED NORMALLY****
TOTAL RUN TIME: 0 days 0 hours 0 minutes 29 seconds 230 msec
