                         Program Version 4.2.1 -  RELEASE  -
|  1> ! wB97X-D3 SP def2-SVP
|  2> %pal
|  3> nprocs 16
|  4> end
|  5>
|  6> * xyz 0 1
|  7> S 	 55.9077 	 11.6307 	 75.9793
|  8> C 	 56.713 	 13.1707 	 75.7514
|  9> C 	 58.0642 	 13.0375 	 76.1025
| 10> C 	 58.3704 	 11.7199 	 76.5416
| 11> C 	 57.3369 	 10.8196 	 76.5218
| 12> H 	 59.3002 	 11.3928 	 76.994
| 13> C 	 59.0099 	 14.2232 	 76.2724
| 14> H 	 58.5924 	 15.2276 	 75.9332
| 15> H 	 59.8049 	 14.1311 	 75.6197
| 16> C 	 59.5866 	 14.4074 	 77.717
| 17> H 	 58.8048 	 14.8237 	 78.3325
| 18> H 	 60.0012 	 13.4448 	 78.2088
| 19> C 	 60.6745 	 15.3885 	 77.6651
| 20> H 	 61.5881 	 15.1579 	 77.1205
| 21> H 	 60.3173 	 16.366 	 77.3477
| 22> H 	 60.938 	 15.4868 	 78.7322
| 23> S 	 57.4502 	 9.12591 	 78.7133
| 24> C 	 57.3218 	 7.39585 	 78.4125
| 25> C 	 56.9556 	 7.15004 	 77.1175
| 26> C 	 57.0252 	 8.31839 	 76.3051
| 27> C 	 57.3875 	 9.44212 	 76.9725
| 28> H 	 56.6556 	 6.09953 	 76.8914
| 29> C 	 56.44 	 8.35394 	 74.8088
| 30> H 	 57.33 	 8.68973 	 74.2564
| 31> H 	 55.6437 	 9.03918 	 74.5936
| 32> C 	 56.1466 	 7.04642 	 74.1435
| 33> H 	 55.2369 	 6.70823 	 74.4176
| 34> H 	 56.8261 	 6.21581 	 74.4974
| 35> C 	 56.1496 	 6.96114 	 72.5824
| 36> H 	 56.0906 	 6.03279 	 72.129
| 37> H 	 56.9891 	 7.49887 	 72.1671
| 38> H 	 55.3229 	 7.46117 	 72.0876
| 39> H 	 56.3239 	 14.1271 	 75.386
| 40> H 	 57.3937 	 6.55156 	 79.1163
| 41> *
| 42>
| 43>                          ****END OF INPUT****

CARTESIAN COORDINATES (ANGSTROEM)
---------------------------------
  S     55.907700   11.630700   75.979300
  C     56.713000   13.170700   75.751400
  C     58.064200   13.037500   76.102500
  C     58.370400   11.719900   76.541600
  C     57.336900   10.819600   76.521800
  H     59.300200   11.392800   76.994000
  C     59.009900   14.223200   76.272400
  H     58.592400   15.227600   75.933200
  H     59.804900   14.131100   75.619700
  C     59.586600   14.407400   77.717000
  H     58.804800   14.823700   78.332500
  H     60.001200   13.444800   78.208800
  C     60.674500   15.388500   77.665100
  H     61.588100   15.157900   77.120500
  H     60.317300   16.366000   77.347700
  H     60.938000   15.486800   78.732200
  S     57.450200    9.125910   78.713300
  C     57.321800    7.395850   78.412500
  C     56.955600    7.150040   77.117500
  C     57.025200    8.318390   76.305100
  C     57.387500    9.442120   76.972500
  H     56.655600    6.099530   76.891400
  C     56.440000    8.353940   74.808800
  H     57.330000    8.689730   74.256400
  H     55.643700    9.039180   74.593600
  C     56.146600    7.046420   74.143500
  H     55.236900    6.708230   74.417600
  H     56.826100    6.215810   74.497400
  C     56.149600    6.961140   72.582400
  H     56.090600    6.032790   72.129000
  H     56.989100    7.498870   72.167100
  H     55.322900    7.461170   72.087600
  H     56.323900   14.127100   75.386000
  H     57.393700    6.551560   79.116300

 Total Charge           Charge          ....    0
 Multiplicity           Mult            ....    1
 Number of Electrons    NEL             ....  134
 Basis Dimension        Dim             ....  322

ORBITAL ENERGIES
----------------

  NO   OCC          E(Eh)            E(eV)
   0   2.0000     -88.967096     -2420.9178
   1   2.0000     -88.966233     -2420.8943
   2   2.0000     -10.324274      -280.9378
   3   2.0000     -10.323800      -280.9249
   4   2.0000     -10.319210      -280.8000
   5   2.0000     -10.317131      -280.7434
   6   2.0000     -10.308461      -280.5075
   7   2.0000     -10.301450      -280.3167
   8   2.0000     -10.295856      -280.1645
   9   2.0000     -10.291824      -280.0548
  10   2.0000     -10.291710      -280.0517
  11   2.0000     -10.290500      -280.0187
  12   2.0000     -10.289761      -279.9986
  13   2.0000     -10.278941      -279.7042
  14   2.0000     -10.273793      -279.5641
  15   2.0000     -10.270091      -279.4634
  16   2.0000      -8.081276      -219.9027
  17   2.0000      -8.080659      -219.8859
  18   2.0000      -6.039906      -164.3542
  19   2.0000      -6.039229      -164.3358
  20   2.0000      -6.036070      -164.2498
  21   2.0000      -6.035024      -164.2214
  22   2.0000      -6.031704      -164.1310
  23   2.0000      -6.031551      -164.1269
  24   2.0000      -1.008750       -27.4495
  25   2.0000      -0.985375       -26.8134
  26   2.0000      -0.915064       -24.9001
  27   2.0000      -0.904710       -24.6184
  28   2.0000      -0.874508       -23.7966
  29   2.0000      -0.849727       -23.1223
  30   2.0000      -0.844115       -22.9695
  31   2.0000      -0.817245       -22.2384
  32   2.0000      -0.786056       -21.3897
  33   2.0000      -0.772538       -21.0218
  34   2.0000      -0.707406       -19.2495
  35   2.0000      -0.702061       -19.1041
  36   2.0000      -0.690998       -18.8030
  37   2.0000      -0.655791       -17.8450
  38   2.0000      -0.636824       -17.3289
  39   2.0000      -0.618467       -16.8294
  40   2.0000      -0.596009       -16.2182
  41   2.0000      -0.573171       -15.5968
  42   2.0000      -0.565839       -15.3973
  43   2.0000      -0.565246       -15.3811
  44   2.0000      -0.527655       -14.3582
  45   2.0000      -0.523507       -14.2453
  46   2.0000      -0.515583       -14.0297
  47   2.0000      -0.511084       -13.9073
  48   2.0000      -0.505175       -13.7465
  49   2.0000      -0.496514       -13.5108
  50   2.0000      -0.486963       -13.2509
  51   2.0000      -0.480830       -13.0841
  52   2.0000      -0.475852       -12.9486
  53   2.0000      -0.461864       -12.5679
  54   2.0000      -0.461004       -12.5446
  55   2.0000      -0.453235       -12.3332
  56   2.0000      -0.450215       -12.2510
  57   2.0000      -0.436028       -11.8649
  58   2.0000      -0.428281       -11.6541
  59   2.0000      -0.422497       -11.4967
  60   2.0000      -0.415285       -11.3005
  61   2.0000      -0.410607       -11.1732
  62   2.0000      -0.407560       -11.0903
  63   2.0000      -0.336079        -9.1452
  64   2.0000      -0.332356        -9.0439
  65   2.0000      -0.325505        -8.8575
  66   2.0000      -0.305992        -8.3265
  67   0.0000       0.034461         0.9377
  68   0.0000       0.062482         1.7002
  69   0.0000       0.105012         2.8575
  70   0.0000       0.127490         3.4692
  71   0.0000       0.133393         3.6298

MULLIKEN ATOMIC CHARGES
-----------------------
   0 S :    0.121866
   1 C :   -0.127092
   2 C :   -0.057250
   3 C :    0.021920
   4 C :   -0.172461
   5 H :    0.009051
   6 C :    0.072881
   7 H :    0.018721
   8 H :    0.005943
   9 C :   -0.102178
  10 H :    0.035312
  11 H :    0.049323
  12 C :   -0.041743
  13 H :    0.037295
  14 H :    0.021179
  15 H :    0.028285
  16 S :    0.114171
  17 C :   -0.092577
  18 C :   -0.072816
  19 C :   -0.024506
  20 C :   -0.152135
  21 H :    0.040013
  22 C :    0.088391
  23 H :    0.031197
  24 H :    0.042229
  25 C :   -0.065700
  26 H :   -0.001573
  27 H :    0.031691
  28 C :   -0.024347
  29 H :    0.017487
  30 H :    0.019425
  31 H :    0.014958
  32 H :    0.052489
  33 H :    0.060552
Sum of atomic charges:   -0.0000000

LOEWDIN ATOMIC CHARGES
----------------------
   0 S :    0.421928
   1 C :   -0.201508
   2 C :   -0.065129
   3 C :   -0.060183
   4 C :   -0.206633
   5 H :    0.030143
   6 C :   -0.032394
   7 H :    0.035081
   8 H :    0.017012
   9 C :   -0.041475
  10 H :    0.026632
  11 H :    0.034273
  12 C :   -0.067753
  13 H :    0.023918
  14 H :    0.021755
  15 H :    0.031525
  16 S :    0.397030
  17 C :   -0.182282
  18 C :   -0.082687
  19 C :   -0.047606
  20 C :   -0.198115
  21 H :    0.041826
  22 C :   -0.030156
  23 H :    0.039159
  24 H :    0.024425
  25 C :   -0.041530
  26 H :    0.005631
  27 H :    0.030407
  28 C :   -0.061100
  29 H :    0.018813
  30 H :    0.022696
  31 H :    0.024233
  32 H :    0.035046
  33 H :    0.037015

  Mayer bond orders larger than 0.100000
B(  0-S ,  1-C ) :   1.1502 B(  0-S ,  4-C ) :   1.1493 B(  1-C ,  2-C ) :   1.5896
B(  1-C , 32-H ) :   0.9669 B(  2-C ,  3-C ) :   1.2479 B(  2-C ,  6-C ) :   1.0242
B(  3-C ,  4-C ) :   1.5750 B(  3-C ,  5-H ) :   0.9958 B(  4-C , 20-C ) :   1.0365
B(  6-C ,  7-H ) :   0.9443 B(  6-C ,  8-H ) :   0.9351 B(  6-C ,  9-C ) :   1.0557
B(  9-C , 10-H ) :   0.9535 B(  9-C , 11-H ) :   0.9543 B(  9-C , 12-C ) :   1.0921
B( 12-C , 13-H ) :   0.9745 B( 12-C , 14-H ) :   0.9692 B( 12-C , 15-H ) :   0.9701
B( 16-S , 17-C ) :   1.1477 B( 16-S , 20-C ) :   1.1306 B( 17-C , 18-C ) :   1.6386
B( 17-C , 33-H ) :   0.9579 B( 18-C , 19-C ) :   1.2301 B( 18-C , 21-H ) :   0.9809
B( 19-C , 20-C ) :   1.6304 B( 19-C , 22-C ) :   1.0011 B( 22-C , 23-H ) :   0.9298
B( 22-C , 24-H ) :   0.9445 B( 22-C , 25-C ) :   1.0790 B( 25-C , 26-H ) :   0.9462
B( 25-C , 27-H ) :   0.9515 B( 25-C , 28-C ) :   1.0790 B( 28-C , 29-H ) :   0.9746
B( 28-C , 30-H ) :   0.9758 B( 28-C , 31-H ) :   0.9726

Dispersion correction           -0.013471027
FINAL SINGLE POINT ENERGY     -1339.848909300128

DIPOLE MOMENT
-------------
                                X             Y             Z
Electronic contribution:     -8.80202      -4.88076      11.73451
Nuclear contribution   :      8.92666       4.92849     -11.86047
                        -----------------------------------------
Total Dipole Moment    :      0.12464       0.04773      -0.12596
                        -----------------------------------------
Magnitude (a.u.)       :      0.18352
Magnitude (Debye)      :      0.46647

Rotational constants in cm-1:     0.021237     0.007286     0.006065
Rotational constants in MHz :   636.665338   218.434831   181.829310

                             ****ORCA TERMINATED NORMALLY****
TOTAL RUN TIME: 0 days 0 hours 0 minutes 26 seconds 789 msec
