                         Program Version 4.2.1 -  RELEASE  -
|  1> ! wB97X-D3 SP def2-SVP
|  2> %pal
|  3> nprocs 16
|  4> end
|  5>
|  6> * xyz 0 1
|  7> S 	 -10.8315 	 60.7701 	 58.487
|  8> C 	 -9.24825 	 60.9997 	 59.114
|  9> C 	 -8.93296 	 62.3106 	 59.2955
| 10> C 	 -9.7762 	 63.2095 	 58.5894
| 11> C 	 -10.9239 	 62.5295 	 58.1618
| 12> H 	 -9.61794 	 64.2821 	 58.4381
| 13> C 	 -7.56877 	 62.6657 	 59.8702
| 14> H 	 -7.12533 	 63.4961 	 59.3075
| 15> H 	 -6.86381 	 61.7822 	 59.7234
| 16> C 	 -7.52792 	 63.094 	 61.2896
| 17> H 	 -6.48992 	 63.4579 	 61.6132
| 18> H 	 -8.06157 	 63.968 	 61.4363
| 19> C 	 -8.01582 	 62.0346 	 62.2909
| 20> H 	 -8.17307 	 61.107 	 61.8362
| 21> H 	 -7.32384 	 61.8874 	 63.1087
| 22> H 	 -8.95773 	 62.3082 	 62.7286
| 23> S 	 -13.7378 	 62.4978 	 58.1606
| 24> C 	 -14.6239 	 63.7041 	 57.3578
| 25> C 	 -13.7605 	 64.6565 	 56.7953
| 26> C 	 -12.3657 	 64.4323 	 56.9586
| 27> C 	 -12.1205 	 63.1931 	 57.6278
| 28> H 	 -14.2002 	 65.4946 	 56.278
| 29> C 	 -11.2714 	 65.3859 	 56.3814
| 30> H 	 -10.7478 	 64.7524 	 55.6338
| 31> H 	 -10.6179 	 65.7651 	 57.1833
| 32> C 	 -11.8011 	 66.5422 	 55.5098
| 33> H 	 -12.643 	 66.3054 	 54.8651
| 34> H 	 -10.9785 	 66.9145 	 54.8842
| 35> C 	 -12.2732 	 67.8647 	 56.2581
| 36> H 	 -12.999 	 68.3375 	 55.6394
| 37> H 	 -11.4642 	 68.5114 	 56.2643
| 38> H 	 -12.6781 	 67.7619 	 57.2452
| 39> H 	 -8.63452 	 60.1773 	 59.494
| 40> H 	 -15.6306 	 63.7949 	 57.4397
| 41> *
| 42>
| 43>                          ****END OF INPUT****

CARTESIAN COORDINATES (ANGSTROEM)
---------------------------------
  S    -10.831500   60.770100   58.487000
  C     -9.248250   60.999700   59.114000
  C     -8.932960   62.310600   59.295500
  C     -9.776200   63.209500   58.589400
  C    -10.923900   62.529500   58.161800
  H     -9.617940   64.282100   58.438100
  C     -7.568770   62.665700   59.870200
  H     -7.125330   63.496100   59.307500
  H     -6.863810   61.782200   59.723400
  C     -7.527920   63.094000   61.289600
  H     -6.489920   63.457900   61.613200
  H     -8.061570   63.968000   61.436300
  C     -8.015820   62.034600   62.290900
  H     -8.173070   61.107000   61.836200
  H     -7.323840   61.887400   63.108700
  H     -8.957730   62.308200   62.728600
  S    -13.737800   62.497800   58.160600
  C    -14.623900   63.704100   57.357800
  C    -13.760500   64.656500   56.795300
  C    -12.365700   64.432300   56.958600
  C    -12.120500   63.193100   57.627800
  H    -14.200200   65.494600   56.278000
  C    -11.271400   65.385900   56.381400
  H    -10.747800   64.752400   55.633800
  H    -10.617900   65.765100   57.183300
  C    -11.801100   66.542200   55.509800
  H    -12.643000   66.305400   54.865100
  H    -10.978500   66.914500   54.884200
  C    -12.273200   67.864700   56.258100
  H    -12.999000   68.337500   55.639400
  H    -11.464200   68.511400   56.264300
  H    -12.678100   67.761900   57.245200
  H     -8.634520   60.177300   59.494000
  H    -15.630600   63.794900   57.439700

 Total Charge           Charge          ....    0
 Multiplicity           Mult            ....    1
 Number of Electrons    NEL             ....  134
 Basis Dimension        Dim             ....  322

ORBITAL ENERGIES
----------------

  NO   OCC          E(Eh)            E(eV)
   0   2.0000     -88.970332     -2421.0058
   1   2.0000     -88.964518     -2420.8476
   2   2.0000     -10.337371      -281.2942
   3   2.0000     -10.336919      -281.2819
   4   2.0000     -10.312605      -280.6203
   5   2.0000     -10.310843      -280.5723
   6   2.0000     -10.309624      -280.5391
   7   2.0000     -10.305969      -280.4397
   8   2.0000     -10.300488      -280.2905
   9   2.0000     -10.297998      -280.2228
  10   2.0000     -10.293461      -280.0993
  11   2.0000     -10.292888      -280.0837
  12   2.0000     -10.292587      -280.0755
  13   2.0000     -10.279462      -279.7184
  14   2.0000     -10.269621      -279.4506
  15   2.0000     -10.264188      -279.3028
  16   2.0000      -8.084889      -220.0010
  17   2.0000      -8.078868      -219.8372
  18   2.0000      -6.043404      -164.4494
  19   2.0000      -6.039584      -164.3454
  20   2.0000      -6.037314      -164.2837
  21   2.0000      -6.035494      -164.2342
  22   2.0000      -6.033293      -164.1742
  23   2.0000      -6.029865      -164.0810
  24   2.0000      -1.003339       -27.3022
  25   2.0000      -0.981169       -26.6990
  26   2.0000      -0.914066       -24.8730
  27   2.0000      -0.904924       -24.6242
  28   2.0000      -0.867902       -23.6168
  29   2.0000      -0.852515       -23.1981
  30   2.0000      -0.844071       -22.9683
  31   2.0000      -0.809262       -22.0211
  32   2.0000      -0.790051       -21.4984
  33   2.0000      -0.776959       -21.1421
  34   2.0000      -0.710993       -19.3471
  35   2.0000      -0.700213       -19.0538
  36   2.0000      -0.692716       -18.8498
  37   2.0000      -0.654336       -17.8054
  38   2.0000      -0.639354       -17.3977
  39   2.0000      -0.619666       -16.8620
  40   2.0000      -0.602167       -16.3858
  41   2.0000      -0.565322       -15.3832
  42   2.0000      -0.552334       -15.0298
  43   2.0000      -0.551185       -14.9985
  44   2.0000      -0.543286       -14.7836
  45   2.0000      -0.539848       -14.6900
  46   2.0000      -0.527202       -14.3459
  47   2.0000      -0.509115       -13.8537
  48   2.0000      -0.500279       -13.6133
  49   2.0000      -0.498014       -13.5517
  50   2.0000      -0.494458       -13.4549
  51   2.0000      -0.481394       -13.0994
  52   2.0000      -0.475956       -12.9514
  53   2.0000      -0.465748       -12.6736
  54   2.0000      -0.459352       -12.4996
  55   2.0000      -0.453133       -12.3304
  56   2.0000      -0.442979       -12.0541
  57   2.0000      -0.438316       -11.9272
  58   2.0000      -0.431597       -11.7443
  59   2.0000      -0.422304       -11.4915
  60   2.0000      -0.420082       -11.4310
  61   2.0000      -0.412308       -11.2195
  62   2.0000      -0.406074       -11.0498
  63   2.0000      -0.358239        -9.7482
  64   2.0000      -0.334544        -9.1034
  65   2.0000      -0.331861        -9.0304
  66   2.0000      -0.276986        -7.5372
  67   0.0000       0.019030         0.5178
  68   0.0000       0.069209         1.8833
  69   0.0000       0.105620         2.8741
  70   0.0000       0.116704         3.1757
  71   0.0000       0.135731         3.6934

MULLIKEN ATOMIC CHARGES
-----------------------
   0 S :    0.120554
   1 C :   -0.128301
   2 C :   -0.049337
   3 C :    0.001431
   4 C :   -0.123270
   5 H :    0.016059
   6 C :    0.017629
   7 H :    0.022275
   8 H :    0.037886
   9 C :   -0.059267
  10 H :    0.029364
  11 H :    0.004743
  12 C :   -0.009748
  13 H :   -0.000657
  14 H :    0.026953
  15 H :    0.026850
  16 S :    0.086346
  17 C :   -0.039106
  18 C :   -0.053446
  19 C :   -0.047628
  20 C :   -0.149633
  21 H :    0.012178
  22 C :    0.067199
  23 H :    0.057486
  24 H :    0.056798
  25 C :   -0.122290
  26 H :    0.038017
  27 H :    0.035436
  28 C :   -0.029079
  29 H :    0.019114
  30 H :    0.014136
  31 H :    0.037205
  32 H :    0.061432
  33 H :    0.022673
Sum of atomic charges:   -0.0000000

LOEWDIN ATOMIC CHARGES
----------------------
   0 S :    0.403234
   1 C :   -0.203210
   2 C :   -0.067166
   3 C :   -0.056775
   4 C :   -0.177616
   5 H :    0.035179
   6 C :   -0.034550
   7 H :    0.030761
   8 H :    0.035614
   9 C :   -0.045709
  10 H :    0.031335
  11 H :    0.012359
  12 C :   -0.060099
  13 H :    0.012648
  14 H :    0.026151
  15 H :    0.027330
  16 S :    0.395777
  17 C :   -0.187104
  18 C :   -0.076269
  19 C :   -0.056320
  20 C :   -0.172135
  21 H :    0.027797
  22 C :   -0.031347
  23 H :    0.047047
  24 H :    0.033056
  25 C :   -0.042219
  26 H :    0.023568
  27 H :    0.030162
  28 C :   -0.062643
  29 H :    0.023635
  30 H :    0.014968
  31 H :    0.022612
  32 H :    0.030471
  33 H :    0.009458

  Mayer bond orders larger than 0.100000
B(  0-S ,  1-C ) :   1.1322 B(  0-S ,  4-C ) :   1.1441 B(  1-C ,  2-C ) :   1.6181
B(  1-C , 32-H ) :   0.9596 B(  2-C ,  3-C ) :   1.2447 B(  2-C ,  6-C ) :   1.0135
B(  3-C ,  4-C ) :   1.5518 B(  3-C ,  5-H ) :   0.9871 B(  4-C , 20-C ) :   1.0885
B(  6-C ,  7-H ) :   0.9408 B(  6-C ,  8-H ) :   0.9540 B(  6-C ,  9-C ) :   1.0866
B(  9-C , 10-H ) :   0.9577 B(  9-C , 11-H ) :   0.9558 B(  9-C , 12-C ) :   1.0582
B( 12-C , 13-H ) :   0.9805 B( 12-C , 14-H ) :   0.9763 B( 12-C , 15-H ) :   0.9744
B( 16-S , 17-C ) :   1.1765 B( 16-S , 20-C ) :   1.1421 B( 17-C , 18-C ) :   1.5589
B( 17-C , 20-C ) :   0.1112 B( 17-C , 33-H ) :   0.9778 B( 18-C , 19-C ) :   1.2922
B( 18-C , 21-H ) :   0.9855 B( 19-C , 20-C ) :   1.5541 B( 19-C , 22-C ) :   1.0048
B( 22-C , 23-H ) :   0.9383 B( 22-C , 24-H ) :   0.9336 B( 22-C , 25-C ) :   1.0820
B( 25-C , 26-H ) :   0.9627 B( 25-C , 27-H ) :   0.9599 B( 25-C , 28-C ) :   1.0627
B( 28-C , 29-H ) :   0.9780 B( 28-C , 30-H ) :   0.9802 B( 28-C , 31-H ) :   0.9810

Dispersion correction           -0.013791727
FINAL SINGLE POINT ENERGY     -1339.856806360094

DIPOLE MOMENT
-------------
                                X             Y             Z
Electronic contribution:    -15.08254     -19.47481      -3.71794
Nuclear contribution   :     15.42728      20.11299       3.69808
                        -----------------------------------------
Total Dipole Moment    :      0.34474       0.63818      -0.01985
                        -----------------------------------------
Magnitude (a.u.)       :      0.72562
Magnitude (Debye)      :      1.84437

Rotational constants in cm-1:     0.019758     0.007810     0.006243
Rotational constants in MHz :   592.342625   234.124412   187.165678

                             ****ORCA TERMINATED NORMALLY****
TOTAL RUN TIME: 0 days 0 hours 0 minutes 32 seconds 580 msec
