                         Program Version 4.2.1 -  RELEASE  -
|  1> ! wB97X-D3 SP def2-SVP
|  2> %pal
|  3> nprocs 16
|  4> end
|  5>
|  6> * xyz 0 1
|  7> S 	 6.14834 	 -28.1919 	 77.0297
|  8> C 	 4.88593 	 -29.3754 	 77.2806
|  9> C 	 4.9629 	 -30.0538 	 78.4853
| 10> C 	 6.22379 	 -29.5833 	 79.0724
| 11> C 	 6.91462 	 -28.5553 	 78.4906
| 12> H 	 6.62211 	 -30.1339 	 79.8921
| 13> C 	 4.25168 	 -31.2937 	 78.9109
| 14> H 	 4.67043 	 -32.1656 	 78.506
| 15> H 	 3.35491 	 -31.1718 	 78.4258
| 16> C 	 3.94691 	 -31.4715 	 80.3803
| 17> H 	 3.17628 	 -32.2219 	 80.4838
| 18> H 	 4.67521 	 -32.0093 	 81.0136
| 19> C 	 3.38777 	 -30.289 	 81.1357
| 20> H 	 3.22254 	 -30.6023 	 82.1239
| 21> H 	 4.04404 	 -29.3972 	 81.1575
| 22> H 	 2.34508 	 -30.0175 	 80.8135
| 23> S 	 8.05823 	 -27.1567 	 80.635
| 24> C 	 9.62574 	 -26.3519 	 80.4094
| 25> C 	 10.1985 	 -26.8284 	 79.2347
| 26> C 	 9.34526 	 -27.6918 	 78.462
| 27> C 	 8.11006 	 -27.9532 	 79.0214
| 28> H 	 11.221 	 -26.6447 	 79.011
| 29> C 	 9.8498 	 -28.2405 	 77.1172
| 30> H 	 10.015 	 -27.4166 	 76.4296
| 31> H 	 9.06867 	 -28.8493 	 76.6354
| 32> C 	 11.1059 	 -29.0711 	 77.1034
| 33> H 	 11.0352 	 -29.8923 	 77.8241
| 34> H 	 12.0662 	 -28.6227 	 77.4105
| 35> C 	 11.4182 	 -29.7019 	 75.7446
| 36> H 	 12.4456 	 -29.6244 	 75.5831
| 37> H 	 10.9784 	 -29.1594 	 74.9336
| 38> H 	 11.0606 	 -30.698 	 75.6645
| 39> H 	 4.19756 	 -29.695 	 76.5278
| 40> H 	 10.2044 	 -25.8619 	 81.1563
| 41> *
| 42>
| 43>                          ****END OF INPUT****

CARTESIAN COORDINATES (ANGSTROEM)
---------------------------------
  S      6.148340  -28.191900   77.029700
  C      4.885930  -29.375400   77.280600
  C      4.962900  -30.053800   78.485300
  C      6.223790  -29.583300   79.072400
  C      6.914620  -28.555300   78.490600
  H      6.622110  -30.133900   79.892100
  C      4.251680  -31.293700   78.910900
  H      4.670430  -32.165600   78.506000
  H      3.354910  -31.171800   78.425800
  C      3.946910  -31.471500   80.380300
  H      3.176280  -32.221900   80.483800
  H      4.675210  -32.009300   81.013600
  C      3.387770  -30.289000   81.135700
  H      3.222540  -30.602300   82.123900
  H      4.044040  -29.397200   81.157500
  H      2.345080  -30.017500   80.813500
  S      8.058230  -27.156700   80.635000
  C      9.625740  -26.351900   80.409400
  C     10.198500  -26.828400   79.234700
  C      9.345260  -27.691800   78.462000
  C      8.110060  -27.953200   79.021400
  H     11.221000  -26.644700   79.011000
  C      9.849800  -28.240500   77.117200
  H     10.015000  -27.416600   76.429600
  H      9.068670  -28.849300   76.635400
  C     11.105900  -29.071100   77.103400
  H     11.035200  -29.892300   77.824100
  H     12.066200  -28.622700   77.410500
  C     11.418200  -29.701900   75.744600
  H     12.445600  -29.624400   75.583100
  H     10.978400  -29.159400   74.933600
  H     11.060600  -30.698000   75.664500
  H      4.197560  -29.695000   76.527800
  H     10.204400  -25.861900   81.156300

 Total Charge           Charge          ....    0
 Multiplicity           Mult            ....    1
 Number of Electrons    NEL             ....  134
 Basis Dimension        Dim             ....  322

ORBITAL ENERGIES
----------------

  NO   OCC          E(Eh)            E(eV)
   0   2.0000     -88.967223     -2420.9212
   1   2.0000     -88.962701     -2420.7982
   2   2.0000     -10.329919      -281.0914
   3   2.0000     -10.321951      -280.8746
   4   2.0000     -10.320095      -280.8241
   5   2.0000     -10.314065      -280.6600
   6   2.0000     -10.305115      -280.4164
   7   2.0000     -10.302230      -280.3379
   8   2.0000     -10.293428      -280.0984
   9   2.0000     -10.290279      -280.0127
  10   2.0000     -10.287134      -279.9272
  11   2.0000     -10.285226      -279.8752
  12   2.0000     -10.285098      -279.8718
  13   2.0000     -10.282109      -279.7904
  14   2.0000     -10.273912      -279.5674
  15   2.0000     -10.264550      -279.3126
  16   2.0000      -8.082700      -219.9414
  17   2.0000      -8.076266      -219.7664
  18   2.0000      -6.041265      -164.3912
  19   2.0000      -6.037019      -164.2756
  20   2.0000      -6.034961      -164.2196
  21   2.0000      -6.033418      -164.1776
  22   2.0000      -6.030941      -164.1103
  23   2.0000      -6.026860      -163.9992
  24   2.0000      -1.009055       -27.4578
  25   2.0000      -0.980810       -26.6892
  26   2.0000      -0.922695       -25.1078
  27   2.0000      -0.908664       -24.7260
  28   2.0000      -0.873799       -23.7773
  29   2.0000      -0.848622       -23.0922
  30   2.0000      -0.846715       -23.0403
  31   2.0000      -0.813552       -22.1379
  32   2.0000      -0.792855       -21.5747
  33   2.0000      -0.776631       -21.1332
  34   2.0000      -0.711296       -19.3553
  35   2.0000      -0.701040       -19.0763
  36   2.0000      -0.695057       -18.9134
  37   2.0000      -0.663909       -18.0659
  38   2.0000      -0.636548       -17.3214
  39   2.0000      -0.621607       -16.9148
  40   2.0000      -0.597652       -16.2629
  41   2.0000      -0.571884       -15.5618
  42   2.0000      -0.567614       -15.4456
  43   2.0000      -0.565886       -15.3985
  44   2.0000      -0.545463       -14.8428
  45   2.0000      -0.527463       -14.3530
  46   2.0000      -0.523028       -14.2323
  47   2.0000      -0.515744       -14.0341
  48   2.0000      -0.506938       -13.7945
  49   2.0000      -0.493953       -13.4411
  50   2.0000      -0.491016       -13.3612
  51   2.0000      -0.478319       -13.0157
  52   2.0000      -0.474866       -12.9217
  53   2.0000      -0.463291       -12.6068
  54   2.0000      -0.454570       -12.3695
  55   2.0000      -0.448095       -12.1933
  56   2.0000      -0.443616       -12.0714
  57   2.0000      -0.440053       -11.9744
  58   2.0000      -0.436311       -11.8726
  59   2.0000      -0.427534       -11.6338
  60   2.0000      -0.412001       -11.2111
  61   2.0000      -0.409999       -11.1566
  62   2.0000      -0.404018       -10.9939
  63   2.0000      -0.343334        -9.3426
  64   2.0000      -0.328278        -8.9329
  65   2.0000      -0.325635        -8.8610
  66   2.0000      -0.299034        -8.1371
  67   0.0000       0.030587         0.8323
  68   0.0000       0.070034         1.9057
  69   0.0000       0.102539         2.7902
  70   0.0000       0.122917         3.3448
  71   0.0000       0.131548         3.5796

MULLIKEN ATOMIC CHARGES
-----------------------
   0 S :    0.130339
   1 C :   -0.125671
   2 C :   -0.118732
   3 C :   -0.000112
   4 C :   -0.134994
   5 H :   -0.001969
   6 C :    0.193897
   7 H :    0.033500
   8 H :   -0.010522
   9 C :   -0.106519
  10 H :    0.012017
  11 H :    0.025261
  12 C :   -0.043274
  13 H :    0.014608
  14 H :    0.051951
  15 H :    0.029571
  16 S :    0.092778
  17 C :   -0.078309
  18 C :   -0.023357
  19 C :   -0.039515
  20 C :   -0.139463
  21 H :    0.012685
  22 C :    0.080242
  23 H :    0.030044
  24 H :    0.023900
  25 C :   -0.105943
  26 H :    0.024542
  27 H :    0.022860
  28 C :   -0.004081
  29 H :    0.014753
  30 H :    0.013485
  31 H :    0.031932
  32 H :    0.036811
  33 H :    0.057285
Sum of atomic charges:    0.0000000

LOEWDIN ATOMIC CHARGES
----------------------
   0 S :    0.437082
   1 C :   -0.188583
   2 C :   -0.058473
   3 C :   -0.057386
   4 C :   -0.227572
   5 H :    0.019895
   6 C :   -0.022980
   7 H :    0.034682
   8 H :    0.026259
   9 C :   -0.051626
  10 H :    0.028040
  11 H :    0.026196
  12 C :   -0.064648
  13 H :    0.020767
  14 H :    0.029434
  15 H :    0.029400
  16 S :    0.377757
  17 C :   -0.170661
  18 C :   -0.064286
  19 C :   -0.053593
  20 C :   -0.181040
  21 H :    0.025645
  22 C :   -0.035377
  23 H :    0.031343
  24 H :    0.028536
  25 C :   -0.047035
  26 H :    0.024754
  27 H :    0.021639
  28 C :   -0.054032
  29 H :    0.020358
  30 H :    0.022216
  31 H :    0.023525
  32 H :    0.021794
  33 H :    0.027970

  Mayer bond orders larger than 0.100000
B(  0-S ,  1-C ) :   1.1605 B(  0-S ,  4-C ) :   1.1249 B(  1-C ,  2-C ) :   1.6071
B(  1-C , 32-H ) :   0.9646 B(  2-C ,  3-C ) :   1.2324 B(  2-C ,  6-C ) :   1.0252
B(  3-C ,  4-C ) :   1.5717 B(  3-C ,  5-H ) :   0.9983 B(  4-C , 20-C ) :   1.0541
B(  6-C ,  7-H ) :   0.9337 B(  6-C ,  8-H ) :   0.9107 B(  6-C ,  9-C ) :   1.0723
B(  9-C , 10-H ) :   0.9470 B(  9-C , 11-H ) :   0.9505 B(  9-C , 12-C ) :   1.0955
B( 12-C , 13-H ) :   0.9679 B( 12-C , 14-H ) :   0.9700 B( 12-C , 15-H ) :   0.9732
B( 16-S , 17-C ) :   1.1491 B( 16-S , 20-C ) :   1.1124 B( 17-C , 18-C ) :   1.6091
B( 17-C , 33-H ) :   0.9673 B( 18-C , 19-C ) :   1.2370 B( 18-C , 21-H ) :   0.9920
B( 19-C , 20-C ) :   1.6026 B( 19-C , 22-C ) :   1.0417 B( 22-C , 23-H ) :   0.9283
B( 22-C , 24-H ) :   0.9352 B( 22-C , 25-C ) :   1.0672 B( 25-C , 26-H ) :   0.9562
B( 25-C , 27-H ) :   0.9622 B( 25-C , 28-C ) :   1.0776 B( 28-C , 29-H ) :   0.9771
B( 28-C , 30-H ) :   0.9728 B( 28-C , 31-H ) :   0.9766

Dispersion correction           -0.013908944
FINAL SINGLE POINT ENERGY     -1339.857637352068

DIPOLE MOMENT
-------------
                                X             Y             Z
Electronic contribution:     -1.65423      15.37623       2.31308
Nuclear contribution   :      1.83695     -16.02266      -2.42811
                        -----------------------------------------
Total Dipole Moment    :      0.18271      -0.64643      -0.11503
                        -----------------------------------------
Magnitude (a.u.)       :      0.68153
Magnitude (Debye)      :      1.73231

Rotational constants in cm-1:     0.019283     0.008139     0.006686
Rotational constants in MHz :   578.102401   244.000039   200.432427

                             ****ORCA TERMINATED NORMALLY****
TOTAL RUN TIME: 0 days 0 hours 0 minutes 30 seconds 901 msec
