                         Program Version 4.2.1 -  RELEASE  -
|  1> ! wB97X-D3 SP def2-SVP
|  2> %pal
|  3> nprocs 16
|  4> end
|  5>
|  6> * xyz 0 1
|  7> S 	 -48.8424 	 -0.111806 	 95.4147
|  8> C 	 -50.5649 	 -0.230336 	 95.1722
|  9> C 	 -51.1269 	 1.01968 	 95.027
| 10> C 	 -50.1811 	 2.05748 	 95.1749
| 11> C 	 -48.9618 	 1.61297 	 95.6167
| 12> H 	 -50.3107 	 3.12525 	 95.2929
| 13> C 	 -52.6012 	 1.33182 	 94.7423
| 14> H 	 -52.9744 	 0.685066 	 94.0334
| 15> H 	 -52.6258 	 2.26856 	 94.1866
| 16> C 	 -53.6725 	 1.50917 	 95.8898
| 17> H 	 -54.6526 	 1.74859 	 95.4511
| 18> H 	 -53.9089 	 0.547754 	 96.3706
| 19> C 	 -53.3151 	 2.59029 	 96.9039
| 20> H 	 -53.245 	 3.68428 	 96.5475
| 21> H 	 -53.9936 	 2.607 	 97.6856
| 22> H 	 -52.3807 	 2.59677 	 97.3506
| 23> S 	 -47.6926 	 3.25714 	 97.5331
| 24> C 	 -46.2841 	 4.15094 	 96.8785
| 25> C 	 -46.0477 	 4.0323 	 95.5084
| 26> C 	 -46.9186 	 3.0237 	 94.9539
| 27> C 	 -47.8339 	 2.49839 	 95.8613
| 28> H 	 -45.2394 	 4.61221 	 95.014
| 29> C 	 -46.8122 	 2.65923 	 93.4797
| 30> H 	 -47.8384 	 2.62959 	 93.0889
| 31> H 	 -46.3174 	 1.7141 	 93.281
| 32> C 	 -45.9385 	 3.58441 	 92.6001
| 33> H 	 -44.9541 	 3.39349 	 92.9296
| 34> H 	 -46.0979 	 4.72532 	 92.5406
| 35> C 	 -46.2494 	 3.22931 	 91.1085
| 36> H 	 -46.0485 	 2.12553 	 90.9237
| 37> H 	 -45.6747 	 3.84368 	 90.4128
| 38> H 	 -47.2958 	 3.33882 	 90.8116
| 39> H 	 -51.1887 	 -1.16268 	 95.2298
| 40> H 	 -45.6423 	 4.80962 	 97.4907
| 41> *
| 42>
| 43>                          ****END OF INPUT****

CARTESIAN COORDINATES (ANGSTROEM)
---------------------------------
  S    -48.842400   -0.111806   95.414700
  C    -50.564900   -0.230336   95.172200
  C    -51.126900    1.019680   95.027000
  C    -50.181100    2.057480   95.174900
  C    -48.961800    1.612970   95.616700
  H    -50.310700    3.125250   95.292900
  C    -52.601200    1.331820   94.742300
  H    -52.974400    0.685066   94.033400
  H    -52.625800    2.268560   94.186600
  C    -53.672500    1.509170   95.889800
  H    -54.652600    1.748590   95.451100
  H    -53.908900    0.547754   96.370600
  C    -53.315100    2.590290   96.903900
  H    -53.245000    3.684280   96.547500
  H    -53.993600    2.607000   97.685600
  H    -52.380700    2.596770   97.350600
  S    -47.692600    3.257140   97.533100
  C    -46.284100    4.150940   96.878500
  C    -46.047700    4.032300   95.508400
  C    -46.918600    3.023700   94.953900
  C    -47.833900    2.498390   95.861300
  H    -45.239400    4.612210   95.014000
  C    -46.812200    2.659230   93.479700
  H    -47.838400    2.629590   93.088900
  H    -46.317400    1.714100   93.281000
  C    -45.938500    3.584410   92.600100
  H    -44.954100    3.393490   92.929600
  H    -46.097900    4.725320   92.540600
  C    -46.249400    3.229310   91.108500
  H    -46.048500    2.125530   90.923700
  H    -45.674700    3.843680   90.412800
  H    -47.295800    3.338820   90.811600
  H    -51.188700   -1.162680   95.229800
  H    -45.642300    4.809620   97.490700

 Total Charge           Charge          ....    0
 Multiplicity           Mult            ....    1
 Number of Electrons    NEL             ....  134
 Basis Dimension        Dim             ....  322

ORBITAL ENERGIES
----------------

  NO   OCC          E(Eh)            E(eV)
   0   2.0000     -88.969323     -2420.9784
   1   2.0000     -88.965603     -2420.8771
   2   2.0000     -10.328726      -281.0589
   3   2.0000     -10.324901      -280.9548
   4   2.0000     -10.321832      -280.8713
   5   2.0000     -10.316247      -280.7194
   6   2.0000     -10.308697      -280.5139
   7   2.0000     -10.300587      -280.2932
   8   2.0000     -10.300301      -280.2854
   9   2.0000     -10.294415      -280.1253
  10   2.0000     -10.294177      -280.1188
  11   2.0000     -10.293489      -280.1001
  12   2.0000     -10.288328      -279.9596
  13   2.0000     -10.287165      -279.9280
  14   2.0000     -10.285094      -279.8716
  15   2.0000     -10.268853      -279.4297
  16   2.0000      -8.081960      -219.9213
  17   2.0000      -8.080518      -219.8821
  18   2.0000      -6.040515      -164.3708
  19   2.0000      -6.038951      -164.3282
  20   2.0000      -6.037058      -164.2767
  21   2.0000      -6.035043      -164.2219
  22   2.0000      -6.032500      -164.1527
  23   2.0000      -6.031301      -164.1201
  24   2.0000      -1.004423       -27.3317
  25   2.0000      -0.974648       -26.5215
  26   2.0000      -0.906626       -24.6705
  27   2.0000      -0.903058       -24.5735
  28   2.0000      -0.866443       -23.5771
  29   2.0000      -0.848421       -23.0867
  30   2.0000      -0.844506       -22.9802
  31   2.0000      -0.810928       -22.0665
  32   2.0000      -0.785696       -21.3799
  33   2.0000      -0.768311       -20.9068
  34   2.0000      -0.708765       -19.2865
  35   2.0000      -0.703570       -19.1451
  36   2.0000      -0.693513       -18.8714
  37   2.0000      -0.649738       -17.6803
  38   2.0000      -0.641107       -17.4454
  39   2.0000      -0.610128       -16.6024
  40   2.0000      -0.595919       -16.2158
  41   2.0000      -0.571262       -15.5448
  42   2.0000      -0.564360       -15.3570
  43   2.0000      -0.548852       -14.9350
  44   2.0000      -0.536353       -14.5949
  45   2.0000      -0.519666       -14.1408
  46   2.0000      -0.513113       -13.9625
  47   2.0000      -0.505027       -13.7425
  48   2.0000      -0.503818       -13.7096
  49   2.0000      -0.487726       -13.2717
  50   2.0000      -0.487195       -13.2573
  51   2.0000      -0.475869       -12.9490
  52   2.0000      -0.467498       -12.7213
  53   2.0000      -0.464005       -12.6262
  54   2.0000      -0.457460       -12.4481
  55   2.0000      -0.452198       -12.3049
  56   2.0000      -0.438864       -11.9421
  57   2.0000      -0.436725       -11.8839
  58   2.0000      -0.433308       -11.7909
  59   2.0000      -0.429941       -11.6993
  60   2.0000      -0.427014       -11.6196
  61   2.0000      -0.408117       -11.1054
  62   2.0000      -0.406620       -11.0647
  63   2.0000      -0.336560        -9.1583
  64   2.0000      -0.332337        -9.0433
  65   2.0000      -0.320122        -8.7110
  66   2.0000      -0.305881        -8.3234
  67   0.0000       0.043094         1.1727
  68   0.0000       0.045011         1.2248
  69   0.0000       0.098004         2.6668
  70   0.0000       0.112742         3.0679
  71   0.0000       0.130607         3.5540

MULLIKEN ATOMIC CHARGES
-----------------------
   0 S :    0.117984
   1 C :   -0.135642
   2 C :   -0.073195
   3 C :    0.047901
   4 C :   -0.200056
   5 H :    0.019862
   6 C :    0.091587
   7 H :    0.001622
   8 H :    0.015802
   9 C :   -0.040613
  10 H :    0.027619
  11 H :    0.025980
  12 C :   -0.035559
  13 H :    0.020990
  14 H :    0.014780
  15 H :    0.017232
  16 S :    0.097665
  17 C :   -0.084437
  18 C :   -0.057536
  19 C :   -0.001420
  20 C :   -0.187109
  21 H :    0.044531
  22 C :    0.066525
  23 H :    0.037307
  24 H :    0.041437
  25 C :   -0.120881
  26 H :    0.032755
  27 H :    0.048615
  28 C :   -0.059641
  29 H :    0.029174
  30 H :    0.034923
  31 H :    0.036905
  32 H :    0.066295
  33 H :    0.058598
Sum of atomic charges:   -0.0000000

LOEWDIN ATOMIC CHARGES
----------------------
   0 S :    0.412973
   1 C :   -0.203813
   2 C :   -0.066621
   3 C :   -0.060364
   4 C :   -0.204653
   5 H :    0.034472
   6 C :   -0.029057
   7 H :    0.018359
   8 H :    0.033384
   9 C :   -0.033166
  10 H :    0.029020
  11 H :    0.024085
  12 C :   -0.071079
  13 H :    0.034247
  14 H :    0.017329
  15 H :    0.016891
  16 S :    0.352637
  17 C :   -0.166187
  18 C :   -0.078126
  19 C :   -0.044592
  20 C :   -0.182863
  21 H :    0.043199
  22 C :   -0.030963
  23 H :    0.034607
  24 H :    0.038297
  25 C :   -0.047372
  26 H :    0.016317
  27 H :    0.032847
  28 C :   -0.068193
  29 H :    0.026812
  30 H :    0.023382
  31 H :    0.026415
  32 H :    0.041850
  33 H :    0.029925

  Mayer bond orders larger than 0.100000
B(  0-S ,  1-C ) :   1.1455 B(  0-S ,  4-C ) :   1.1477 B(  1-C ,  2-C ) :   1.6122
B(  1-C , 32-H ) :   0.9631 B(  2-C ,  3-C ) :   1.2352 B(  2-C ,  6-C ) :   1.0142
B(  3-C ,  4-C ) :   1.5928 B(  3-C ,  5-H ) :   0.9895 B(  4-C , 20-C ) :   1.0319
B(  6-C ,  7-H ) :   0.9369 B(  6-C ,  8-H ) :   0.9413 B(  6-C ,  9-C ) :   1.0735
B(  9-C , 10-H ) :   0.9521 B(  9-C , 11-H ) :   0.9573 B(  9-C , 12-C ) :   1.0714
B( 12-C , 13-H ) :   0.9716 B( 12-C , 14-H ) :   0.9724 B( 12-C , 15-H ) :   0.9747
B( 16-S , 17-C ) :   1.1430 B( 16-S , 20-C ) :   1.0997 B( 17-C , 18-C ) :   1.6490
B( 17-C , 33-H ) :   0.9545 B( 18-C , 19-C ) :   1.2126 B( 18-C , 21-H ) :   0.9760
B( 19-C , 20-C ) :   1.6531 B( 19-C , 22-C ) :   1.0253 B( 22-C , 23-H ) :   0.9366
B( 22-C , 24-H ) :   0.9300 B( 22-C , 25-C ) :   1.0650 B( 25-C , 26-H ) :   0.9497
B( 25-C , 27-H ) :   0.9592 B( 25-C , 28-C ) :   1.0704 B( 28-C , 29-H ) :   0.9716
B( 28-C , 30-H ) :   0.9756 B( 28-C , 31-H ) :   0.9772

Dispersion correction           -0.014298462
FINAL SINGLE POINT ENERGY     -1339.848879530058

DIPOLE MOMENT
-------------
                                X             Y             Z
Electronic contribution:      9.92114      -7.33545      15.03138
Nuclear contribution   :    -10.09089       7.60400     -15.44985
                        -----------------------------------------
Total Dipole Moment    :     -0.16975       0.26855      -0.41847
                        -----------------------------------------
Magnitude (a.u.)       :      0.52541
Magnitude (Debye)      :      1.33547

Rotational constants in cm-1:     0.018092     0.008122     0.006919
Rotational constants in MHz :   542.391620   243.500801   207.431261

                             ****ORCA TERMINATED NORMALLY****
TOTAL RUN TIME: 0 days 0 hours 0 minutes 29 seconds 590 msec
