                         Program Version 4.2.1 -  RELEASE  -
|  1> ! wB97X-D3 SP def2-SVP
|  2> %pal
|  3> nprocs 16
|  4> end
|  5>
|  6> * xyz 0 1
|  7> S 	 -32.2617 	 55.6751 	 102.931
|  8> C 	 -33.4664 	 55.8868 	 101.649
|  9> C 	 -34.2649 	 57.0071 	 101.804
| 10> C 	 -33.8656 	 57.7923 	 102.941
| 11> C 	 -32.7159 	 57.2705 	 103.566
| 12> H 	 -34.2891 	 58.7667 	 103.181
| 13> C 	 -35.4057 	 57.3984 	 100.853
| 14> H 	 -35.0115 	 57.2114 	 99.8395
| 15> H 	 -35.3713 	 58.5244 	 100.842
| 16> C 	 -36.8305 	 56.8131 	 101.185
| 17> H 	 -36.8338 	 55.7841 	 100.619
| 18> H 	 -36.9931 	 56.59 	 102.218
| 19> C 	 -37.9684 	 57.692 	 100.498
| 20> H 	 -37.6592 	 58.0051 	 99.5198
| 21> H 	 -38.8866 	 57.1891 	 100.514
| 22> H 	 -38.1973 	 58.6322 	 101.06
| 23> S 	 -31.8526 	 57.0775 	 106.102
| 24> C 	 -30.7116 	 58.1745 	 106.776
| 25> C 	 -30.4789 	 59.2058 	 105.898
| 26> C 	 -31.1456 	 59.0638 	 104.643
| 27> C 	 -31.9307 	 57.8991 	 104.618
| 28> H 	 -29.6681 	 59.8342 	 106.228
| 29> C 	 -30.868 	 59.985 	 103.423
| 30> H 	 -31.0363 	 59.4053 	 102.516
| 31> H 	 -29.8052 	 60.211 	 103.476
| 32> C 	 -31.6218 	 61.2661 	 103.097
| 33> H 	 -31.3497 	 61.9264 	 103.882
| 34> H 	 -32.6771 	 61.1127 	 103.33
| 35> C 	 -31.3493 	 61.8315 	 101.777
| 36> H 	 -32.0389 	 62.6228 	 101.645
| 37> H 	 -31.5249 	 61.2032 	 100.876
| 38> H 	 -30.3127 	 62.2145 	 101.734
| 39> H 	 -33.5766 	 54.977 	 101.067
| 40> H 	 -30.2856 	 58.1357 	 107.728
| 41> *
| 42>
| 43>                          ****END OF INPUT****

CARTESIAN COORDINATES (ANGSTROEM)
---------------------------------
  S    -32.261700   55.675100  102.931000
  C    -33.466400   55.886800  101.649000
  C    -34.264900   57.007100  101.804000
  C    -33.865600   57.792300  102.941000
  C    -32.715900   57.270500  103.566000
  H    -34.289100   58.766700  103.181000
  C    -35.405700   57.398400  100.853000
  H    -35.011500   57.211400   99.839500
  H    -35.371300   58.524400  100.842000
  C    -36.830500   56.813100  101.185000
  H    -36.833800   55.784100  100.619000
  H    -36.993100   56.590000  102.218000
  C    -37.968400   57.692000  100.498000
  H    -37.659200   58.005100   99.519800
  H    -38.886600   57.189100  100.514000
  H    -38.197300   58.632200  101.060000
  S    -31.852600   57.077500  106.102000
  C    -30.711600   58.174500  106.776000
  C    -30.478900   59.205800  105.898000
  C    -31.145600   59.063800  104.643000
  C    -31.930700   57.899100  104.618000
  H    -29.668100   59.834200  106.228000
  C    -30.868000   59.985000  103.423000
  H    -31.036300   59.405300  102.516000
  H    -29.805200   60.211000  103.476000
  C    -31.621800   61.266100  103.097000
  H    -31.349700   61.926400  103.882000
  H    -32.677100   61.112700  103.330000
  C    -31.349300   61.831500  101.777000
  H    -32.038900   62.622800  101.645000
  H    -31.524900   61.203200  100.876000
  H    -30.312700   62.214500  101.734000
  H    -33.576600   54.977000  101.067000
  H    -30.285600   58.135700  107.728000

 Total Charge           Charge          ....    0
 Multiplicity           Mult            ....    1
 Number of Electrons    NEL             ....  134
 Basis Dimension        Dim             ....  322

ORBITAL ENERGIES
----------------

  NO   OCC          E(Eh)            E(eV)
   0   2.0000     -88.965330     -2420.8697
   1   2.0000     -88.961933     -2420.7773
   2   2.0000     -10.332810      -281.1700
   3   2.0000     -10.321143      -280.8526
   4   2.0000     -10.315965      -280.7117
   5   2.0000     -10.306912      -280.4653
   6   2.0000     -10.306773      -280.4616
   7   2.0000     -10.306097      -280.4431
   8   2.0000     -10.303700      -280.3779
   9   2.0000     -10.302279      -280.3393
  10   2.0000     -10.300363      -280.2871
  11   2.0000     -10.289185      -279.9830
  12   2.0000     -10.284813      -279.8640
  13   2.0000     -10.281464      -279.7729
  14   2.0000     -10.275401      -279.6079
  15   2.0000     -10.275224      -279.6030
  16   2.0000      -8.079667      -219.8589
  17   2.0000      -8.078232      -219.8199
  18   2.0000      -6.038059      -164.3039
  19   2.0000      -6.036545      -164.2627
  20   2.0000      -6.034298      -164.2016
  21   2.0000      -6.032326      -164.1479
  22   2.0000      -6.030506      -164.0984
  23   2.0000      -6.029296      -164.0655
  24   2.0000      -1.007973       -27.4283
  25   2.0000      -0.980489       -26.6805
  26   2.0000      -0.913355       -24.8536
  27   2.0000      -0.899863       -24.4865
  28   2.0000      -0.867169       -23.5969
  29   2.0000      -0.853304       -23.2196
  30   2.0000      -0.845477       -23.0066
  31   2.0000      -0.813390       -22.1335
  32   2.0000      -0.781646       -21.2697
  33   2.0000      -0.770082       -20.9550
  34   2.0000      -0.706746       -19.2315
  35   2.0000      -0.702159       -19.1067
  36   2.0000      -0.693150       -18.8616
  37   2.0000      -0.659314       -17.9408
  38   2.0000      -0.643065       -17.4987
  39   2.0000      -0.619136       -16.8476
  40   2.0000      -0.595229       -16.1970
  41   2.0000      -0.568924       -15.4812
  42   2.0000      -0.561681       -15.2841
  43   2.0000      -0.545060       -14.8318
  44   2.0000      -0.531988       -14.4761
  45   2.0000      -0.522578       -14.2201
  46   2.0000      -0.518105       -14.0984
  47   2.0000      -0.511088       -13.9074
  48   2.0000      -0.507799       -13.8179
  49   2.0000      -0.502128       -13.6636
  50   2.0000      -0.489090       -13.3088
  51   2.0000      -0.478159       -13.0114
  52   2.0000      -0.470739       -12.8095
  53   2.0000      -0.461687       -12.5631
  54   2.0000      -0.458162       -12.4672
  55   2.0000      -0.453231       -12.3330
  56   2.0000      -0.447585       -12.1794
  57   2.0000      -0.438324       -11.9274
  58   2.0000      -0.428086       -11.6488
  59   2.0000      -0.424886       -11.5617
  60   2.0000      -0.419391       -11.4122
  61   2.0000      -0.410046       -11.1579
  62   2.0000      -0.406034       -11.0487
  63   2.0000      -0.339164        -9.2291
  64   2.0000      -0.331786        -9.0283
  65   2.0000      -0.326002        -8.8710
  66   2.0000      -0.297677        -8.1002
  67   0.0000       0.033247         0.9047
  68   0.0000       0.065254         1.7757
  69   0.0000       0.112633         3.0649
  70   0.0000       0.122094         3.3223
  71   0.0000       0.127407         3.4669

MULLIKEN ATOMIC CHARGES
-----------------------
   0 S :    0.103975
   1 C :   -0.135318
   2 C :   -0.086327
   3 C :    0.054510
   4 C :   -0.169312
   5 H :    0.019448
   6 C :    0.028883
   7 H :    0.036767
   8 H :    0.024960
   9 C :   -0.074896
  10 H :    0.045158
  11 H :    0.044216
  12 C :   -0.041435
  13 H :    0.032274
  14 H :    0.028470
  15 H :    0.034789
  16 S :    0.117784
  17 C :   -0.086410
  18 C :   -0.046568
  19 C :    0.006805
  20 C :   -0.180463
  21 H :    0.019016
  22 C :    0.036025
  23 H :    0.020096
  24 H :    0.019017
  25 C :   -0.029126
  26 H :    0.008172
  27 H :    0.011849
  28 C :   -0.030181
  29 H :    0.023431
  30 H :    0.036131
  31 H :    0.036045
  32 H :    0.057269
  33 H :    0.034946
Sum of atomic charges:   -0.0000000

LOEWDIN ATOMIC CHARGES
----------------------
   0 S :    0.387005
   1 C :   -0.187045
   2 C :   -0.065567
   3 C :   -0.054759
   4 C :   -0.188050
   5 H :    0.033715
   6 C :   -0.041557
   7 H :    0.035188
   8 H :    0.030848
   9 C :   -0.035989
  10 H :    0.037141
  11 H :    0.022505
  12 C :   -0.062063
  13 H :    0.023052
  14 H :    0.018546
  15 H :    0.029668
  16 S :    0.442799
  17 C :   -0.191000
  18 C :   -0.076102
  19 C :   -0.054172
  20 C :   -0.222346
  21 H :    0.032622
  22 C :   -0.033616
  23 H :    0.029277
  24 H :    0.027912
  25 C :   -0.046618
  26 H :    0.020059
  27 H :    0.021338
  28 C :   -0.063208
  29 H :    0.026029
  30 H :    0.030424
  31 H :    0.031482
  32 H :    0.023276
  33 H :    0.019207

  Mayer bond orders larger than 0.100000
B(  0-S ,  1-C ) :   1.1364 B(  0-S ,  4-C ) :   1.1571 B(  1-C ,  2-C ) :   1.6092
B(  1-C ,  4-C ) :   0.1018 B(  1-C , 32-H ) :   0.9717 B(  2-C ,  3-C ) :   1.2402
B(  2-C ,  6-C ) :   1.0081 B(  3-C ,  4-C ) :   1.5706 B(  3-C ,  5-H ) :   0.9916
B(  4-C , 20-C ) :   1.0218 B(  6-C ,  7-H ) :   0.9451 B(  6-C ,  8-H ) :   0.9511
B(  6-C ,  9-C ) :   1.0281 B(  9-C , 10-H ) :   0.9578 B(  9-C , 11-H ) :   0.9681
B(  9-C , 12-C ) :   1.0657 B( 12-C , 13-H ) :   0.9773 B( 12-C , 14-H ) :   0.9772
B( 12-C , 15-H ) :   0.9767 B( 16-S , 17-C ) :   1.1640 B( 16-S , 20-C ) :   1.1819
B( 17-C , 18-C ) :   1.6071 B( 17-C , 20-C ) :   0.1013 B( 17-C , 33-H ) :   0.9739
B( 18-C , 19-C ) :   1.2456 B( 18-C , 21-H ) :   0.9911 B( 19-C , 20-C ) :   1.5654
B( 19-C , 22-C ) :   1.0348 B( 22-C , 23-H ) :   0.9363 B( 22-C , 24-H ) :   0.9381
B( 22-C , 25-C ) :   1.0668 B( 25-C , 26-H ) :   0.9413 B( 25-C , 27-H ) :   0.9471
B( 25-C , 28-C ) :   1.0969 B( 28-C , 29-H ) :   0.9670 B( 28-C , 30-H ) :   0.9710
B( 28-C , 31-H ) :   0.9705

Dispersion correction           -0.013669581
FINAL SINGLE POINT ENERGY     -1339.866074921264

DIPOLE MOMENT
-------------
                                X             Y             Z
Electronic contribution:     13.42221     -18.37094      18.82946
Nuclear contribution   :    -13.63915      18.79278     -19.15674
                        -----------------------------------------
Total Dipole Moment    :     -0.21694       0.42184      -0.32728
                        -----------------------------------------
Magnitude (a.u.)       :      0.57630
Magnitude (Debye)      :      1.46485

Rotational constants in cm-1:     0.017290     0.008228     0.006451
Rotational constants in MHz :   518.348194   246.669279   193.390465

                             ****ORCA TERMINATED NORMALLY****
TOTAL RUN TIME: 0 days 0 hours 0 minutes 29 seconds 83 msec
