                         Program Version 4.2.1 -  RELEASE  -
|  1> ! wB97X-D3 SP def2-SVP
|  2> %pal
|  3> nprocs 16
|  4> end
|  5>
|  6> * xyz 0 1
|  7> S 	 -45.0625 	 54.9505 	 102.292
|  8> C 	 -46.6945 	 54.7209 	 102.922
|  9> C 	 -47.4821 	 54.0547 	 102.023
| 10> C 	 -46.8126 	 53.8792 	 100.738
| 11> C 	 -45.4428 	 54.1661 	 100.803
| 12> H 	 -47.2943 	 53.431 	 99.8521
| 13> C 	 -48.952 	 53.7154 	 102.263
| 14> H 	 -49.5165 	 54.5321 	 101.757
| 15> H 	 -49.151 	 53.7739 	 103.365
| 16> C 	 -49.4502 	 52.3311 	 101.77
| 17> H 	 -49.1131 	 52.1554 	 100.749
| 18> H 	 -49.0032 	 51.6125 	 102.483
| 19> C 	 -51.0078 	 52.2196 	 101.74
| 20> H 	 -51.4368 	 53.0397 	 101.203
| 21> H 	 -51.3047 	 51.402 	 101.172
| 22> H 	 -51.4486 	 52.1484 	 102.698
| 23> S 	 -43.1716 	 55.0974 	 99.4689
| 24> C 	 -42.5922 	 54.2363 	 98.048
| 25> C 	 -43.3502 	 53.078 	 97.8434
| 26> C 	 -44.3338 	 52.8677 	 98.8777
| 27> C 	 -44.4059 	 53.9257 	 99.7594
| 28> H 	 -43.0946 	 52.4963 	 96.9802
| 29> C 	 -45.1562 	 51.6333 	 98.8891
| 30> H 	 -45.1635 	 51.2697 	 97.8629
| 31> H 	 -46.2398 	 51.8739 	 99.0226
| 32> C 	 -44.8629 	 50.612 	 99.9984
| 33> H 	 -45.7458 	 49.9595 	 100.008
| 34> H 	 -44.8702 	 51.03 	 101.004
| 35> C 	 -43.5888 	 49.8042 	 99.8499
| 36> H 	 -43.6287 	 49.0975 	 99.1001
| 37> H 	 -43.3137 	 49.305 	 100.781
| 38> H 	 -42.6922 	 50.4138 	 99.6718
| 39> H 	 -47.0983 	 55.0052 	 103.866
| 40> H 	 -41.7627 	 54.5589 	 97.3361
| 41> *
| 42>
| 43>                          ****END OF INPUT****

CARTESIAN COORDINATES (ANGSTROEM)
---------------------------------
  S    -45.062500   54.950500  102.292000
  C    -46.694500   54.720900  102.922000
  C    -47.482100   54.054700  102.023000
  C    -46.812600   53.879200  100.738000
  C    -45.442800   54.166100  100.803000
  H    -47.294300   53.431000   99.852100
  C    -48.952000   53.715400  102.263000
  H    -49.516500   54.532100  101.757000
  H    -49.151000   53.773900  103.365000
  C    -49.450200   52.331100  101.770000
  H    -49.113100   52.155400  100.749000
  H    -49.003200   51.612500  102.483000
  C    -51.007800   52.219600  101.740000
  H    -51.436800   53.039700  101.203000
  H    -51.304700   51.402000  101.172000
  H    -51.448600   52.148400  102.698000
  S    -43.171600   55.097400   99.468900
  C    -42.592200   54.236300   98.048000
  C    -43.350200   53.078000   97.843400
  C    -44.333800   52.867700   98.877700
  C    -44.405900   53.925700   99.759400
  H    -43.094600   52.496300   96.980200
  C    -45.156200   51.633300   98.889100
  H    -45.163500   51.269700   97.862900
  H    -46.239800   51.873900   99.022600
  C    -44.862900   50.612000   99.998400
  H    -45.745800   49.959500  100.008000
  H    -44.870200   51.030000  101.004000
  C    -43.588800   49.804200   99.849900
  H    -43.628700   49.097500   99.100100
  H    -43.313700   49.305000  100.781000
  H    -42.692200   50.413800   99.671800
  H    -47.098300   55.005200  103.866000
  H    -41.762700   54.558900   97.336100

 Total Charge           Charge          ....    0
 Multiplicity           Mult            ....    1
 Number of Electrons    NEL             ....  134
 Basis Dimension        Dim             ....  322

ORBITAL ENERGIES
----------------

  NO   OCC          E(Eh)            E(eV)
   0   2.0000     -88.967698     -2420.9341
   1   2.0000     -88.966506     -2420.9017
   2   2.0000     -10.334717      -281.2219
   3   2.0000     -10.327235      -281.0184
   4   2.0000     -10.324856      -280.9536
   5   2.0000     -10.310300      -280.5575
   6   2.0000     -10.302455      -280.3441
   7   2.0000     -10.301503      -280.3181
   8   2.0000     -10.299629      -280.2671
   9   2.0000     -10.299052      -280.2515
  10   2.0000     -10.295952      -280.1671
  11   2.0000     -10.294061      -280.1156
  12   2.0000     -10.289823      -280.0003
  13   2.0000     -10.283558      -279.8298
  14   2.0000     -10.271653      -279.5059
  15   2.0000     -10.265413      -279.3361
  16   2.0000      -8.082569      -219.9379
  17   2.0000      -8.081300      -219.9034
  18   2.0000      -6.041074      -164.3860
  19   2.0000      -6.039942      -164.3552
  20   2.0000      -6.036988      -164.2748
  21   2.0000      -6.035773      -164.2417
  22   2.0000      -6.033392      -164.1769
  23   2.0000      -6.031963      -164.1380
  24   2.0000      -1.006508       -27.3885
  25   2.0000      -0.983642       -26.7663
  26   2.0000      -0.909130       -24.7387
  27   2.0000      -0.907420       -24.6922
  28   2.0000      -0.867705       -23.6114
  29   2.0000      -0.851441       -23.1689
  30   2.0000      -0.842812       -22.9341
  31   2.0000      -0.814226       -22.1562
  32   2.0000      -0.785134       -21.3646
  33   2.0000      -0.776289       -21.1239
  34   2.0000      -0.712331       -19.3835
  35   2.0000      -0.700385       -19.0584
  36   2.0000      -0.685835       -18.6625
  37   2.0000      -0.661266       -17.9940
  38   2.0000      -0.633495       -17.2383
  39   2.0000      -0.620653       -16.8888
  40   2.0000      -0.591309       -16.0903
  41   2.0000      -0.569986       -15.5101
  42   2.0000      -0.567415       -15.4401
  43   2.0000      -0.543155       -14.7800
  44   2.0000      -0.541342       -14.7307
  45   2.0000      -0.526879       -14.3371
  46   2.0000      -0.516433       -14.0529
  47   2.0000      -0.507848       -13.8192
  48   2.0000      -0.503209       -13.6930
  49   2.0000      -0.502143       -13.6640
  50   2.0000      -0.488585       -13.2951
  51   2.0000      -0.480515       -13.0755
  52   2.0000      -0.477432       -12.9916
  53   2.0000      -0.467008       -12.7079
  54   2.0000      -0.462261       -12.5788
  55   2.0000      -0.453064       -12.3285
  56   2.0000      -0.439141       -11.9496
  57   2.0000      -0.436404       -11.8751
  58   2.0000      -0.431641       -11.7455
  59   2.0000      -0.427379       -11.6296
  60   2.0000      -0.421479       -11.4690
  61   2.0000      -0.416156       -11.3242
  62   2.0000      -0.411401       -11.1948
  63   2.0000      -0.350173        -9.5287
  64   2.0000      -0.331855        -9.0302
  65   2.0000      -0.326654        -8.8887
  66   2.0000      -0.289433        -7.8759
  67   0.0000       0.025663         0.6983
  68   0.0000       0.080187         2.1820
  69   0.0000       0.104929         2.8553
  70   0.0000       0.116035         3.1575
  71   0.0000       0.129483         3.5234

MULLIKEN ATOMIC CHARGES
-----------------------
   0 S :    0.106007
   1 C :   -0.096865
   2 C :   -0.095703
   3 C :    0.004873
   4 C :   -0.137353
   5 H :    0.029730
   6 C :    0.026733
   7 H :    0.046926
   8 H :    0.027897
   9 C :   -0.099197
  10 H :    0.027783
  11 H :    0.042691
  12 C :    0.001315
  13 H :    0.017455
  14 H :    0.015706
  15 H :    0.028068
  16 S :    0.112183
  17 C :   -0.128283
  18 C :   -0.038774
  19 C :   -0.042127
  20 C :   -0.121965
  21 H :    0.017056
  22 C :    0.062472
  23 H :    0.015331
  24 H :    0.010620
  25 C :   -0.048881
  26 H :    0.021575
  27 H :    0.036677
  28 C :   -0.018349
  29 H :    0.010027
  30 H :    0.024715
  31 H :    0.028761
  32 H :    0.029253
  33 H :    0.083645
Sum of atomic charges:   -0.0000000

LOEWDIN ATOMIC CHARGES
----------------------
   0 S :    0.405669
   1 C :   -0.195539
   2 C :   -0.062169
   3 C :   -0.071730
   4 C :   -0.190768
   5 H :    0.030608
   6 C :   -0.037887
   7 H :    0.036175
   8 H :    0.032314
   9 C :   -0.037112
  10 H :    0.020071
  11 H :    0.030089
  12 C :   -0.054841
  13 H :    0.023826
  14 H :    0.019732
  15 H :    0.021073
  16 S :    0.412361
  17 C :   -0.197299
  18 C :   -0.070724
  19 C :   -0.059249
  20 C :   -0.207163
  21 H :    0.030387
  22 C :   -0.038294
  23 H :    0.030424
  24 H :    0.032787
  25 C :   -0.035881
  26 H :    0.025942
  27 H :    0.030524
  28 C :   -0.064193
  29 H :    0.010952
  30 H :    0.028654
  31 H :    0.029106
  32 H :    0.024493
  33 H :    0.047661

  Mayer bond orders larger than 0.100000
B(  0-S ,  1-C ) :   1.1156 B(  0-S ,  4-C ) :   1.1614 B(  1-C ,  2-C ) :   1.6447
B(  1-C , 32-H ) :   0.9691 B(  2-C ,  3-C ) :   1.2225 B(  2-C ,  6-C ) :   1.0218
B(  3-C ,  4-C ) :   1.5763 B(  3-C ,  5-H ) :   0.9790 B(  4-C , 20-C ) :   1.0287
B(  6-C ,  7-H ) :   0.9403 B(  6-C ,  8-H ) :   0.9469 B(  6-C ,  9-C ) :   1.0570
B(  9-C , 10-H ) :   0.9590 B(  9-C , 11-H ) :   0.9586 B(  9-C , 12-C ) :   1.0834
B( 12-C , 13-H ) :   0.9727 B( 12-C , 14-H ) :   0.9733 B( 12-C , 15-H ) :   0.9769
B( 16-S , 17-C ) :   1.1557 B( 16-S , 20-C ) :   1.1441 B( 17-C , 18-C ) :   1.6086
B( 17-C , 33-H ) :   0.9582 B( 18-C , 19-C ) :   1.2336 B( 18-C , 21-H ) :   0.9945
B( 19-C , 20-C ) :   1.5875 B( 19-C , 22-C ) :   1.0536 B( 22-C , 23-H ) :   0.9325
B( 22-C , 24-H ) :   0.9269 B( 22-C , 25-C ) :   1.0646 B( 25-C , 26-H ) :   0.9532
B( 25-C , 27-H ) :   0.9574 B( 25-C , 28-C ) :   1.0812 B( 28-C , 29-H ) :   0.9759
B( 28-C , 30-H ) :   0.9719 B( 28-C , 31-H ) :   0.9736

Dispersion correction           -0.014523849
FINAL SINGLE POINT ENERGY     -1339.884150668512

DIPOLE MOMENT
-------------
                                X             Y             Z
Electronic contribution:     19.67997      22.42748       0.29733
Nuclear contribution   :    -20.19604     -22.93480      -0.54753
                        -----------------------------------------
Total Dipole Moment    :     -0.51607      -0.50732      -0.25020
                        -----------------------------------------
Magnitude (a.u.)       :      0.76571
Magnitude (Debye)      :      1.94628

Rotational constants in cm-1:     0.018940     0.008727     0.006867
Rotational constants in MHz :   567.792243   261.623961   205.880366

                             ****ORCA TERMINATED NORMALLY****
TOTAL RUN TIME: 0 days 0 hours 0 minutes 30 seconds 884 msec
