                         Program Version 4.2.1 -  RELEASE  -
|  1> ! wB97X-D3 SP def2-SVP
|  2> %pal
|  3> nprocs 16
|  4> end
|  5>
|  6> * xyz 0 1
|  7> S 	 -29.8784 	 1.22345 	 106.638
|  8> C 	 -30.0298 	 -0.197174 	 107.76
|  9> C 	 -30.3432 	 -1.35664 	 107.07
| 10> C 	 -30.6672 	 -1.07541 	 105.714
| 11> C 	 -30.4543 	 0.229505 	 105.255
| 12> H 	 -30.9036 	 -1.86819 	 104.988
| 13> C 	 -30.6641 	 -2.63566 	 107.843
| 14> H 	 -31.0336 	 -3.25365 	 107.119
| 15> H 	 -31.543 	 -2.24275 	 108.327
| 16> C 	 -29.5866 	 -3.32006 	 108.713
| 17> H 	 -29.2966 	 -2.75757 	 109.58
| 18> H 	 -30.1043 	 -4.20156 	 109.112
| 19> C 	 -28.3092 	 -3.79856 	 107.951
| 20> H 	 -28.4537 	 -4.48479 	 107.079
| 21> H 	 -27.6988 	 -2.96717 	 107.591
| 22> H 	 -27.6555 	 -4.36385 	 108.667
| 23> S 	 -28.9546 	 0.913102 	 103.225
| 24> C 	 -29.6131 	 1.94702 	 102.019
| 25> C 	 -30.98 	 1.93781 	 101.971
| 26> C 	 -31.5419 	 1.25905 	 103.157
| 27> C 	 -30.4946 	 0.665982 	 103.892
| 28> H 	 -31.5335 	 2.33414 	 101.1
| 29> C 	 -33.0593 	 1.29929 	 103.384
| 30> H 	 -33.4421 	 1.5184 	 102.36
| 31> H 	 -33.3737 	 2.10748 	 103.961
| 32> C 	 -33.6728 	 -0.0372898 	 103.896
| 33> H 	 -33.4324 	 -0.0820008 	 104.979
| 34> H 	 -33.2244 	 -0.800359 	 103.354
| 35> C 	 -35.1962 	 0.0997731 	 103.739
| 36> H 	 -35.5887 	 -0.901617 	 103.901
| 37> H 	 -35.3091 	 0.455401 	 102.714
| 38> H 	 -35.6369 	 0.877942 	 104.394
| 39> H 	 -29.9802 	 -0.190072 	 108.852
| 40> H 	 -29.0484 	 2.62062 	 101.39
| 41> *
| 42>
| 43>                          ****END OF INPUT****

CARTESIAN COORDINATES (ANGSTROEM)
---------------------------------
  S    -29.878400    1.223450  106.638000
  C    -30.029800   -0.197174  107.760000
  C    -30.343200   -1.356640  107.070000
  C    -30.667200   -1.075410  105.714000
  C    -30.454300    0.229505  105.255000
  H    -30.903600   -1.868190  104.988000
  C    -30.664100   -2.635660  107.843000
  H    -31.033600   -3.253650  107.119000
  H    -31.543000   -2.242750  108.327000
  C    -29.586600   -3.320060  108.713000
  H    -29.296600   -2.757570  109.580000
  H    -30.104300   -4.201560  109.112000
  C    -28.309200   -3.798560  107.951000
  H    -28.453700   -4.484790  107.079000
  H    -27.698800   -2.967170  107.591000
  H    -27.655500   -4.363850  108.667000
  S    -28.954600    0.913102  103.225000
  C    -29.613100    1.947020  102.019000
  C    -30.980000    1.937810  101.971000
  C    -31.541900    1.259050  103.157000
  C    -30.494600    0.665982  103.892000
  H    -31.533500    2.334140  101.100000
  C    -33.059300    1.299290  103.384000
  H    -33.442100    1.518400  102.360000
  H    -33.373700    2.107480  103.961000
  C    -33.672800   -0.037290  103.896000
  H    -33.432400   -0.082001  104.979000
  H    -33.224400   -0.800359  103.354000
  C    -35.196200    0.099773  103.739000
  H    -35.588700   -0.901617  103.901000
  H    -35.309100    0.455401  102.714000
  H    -35.636900    0.877942  104.394000
  H    -29.980200   -0.190072  108.852000
  H    -29.048400    2.620620  101.390000

 Total Charge           Charge          ....    0
 Multiplicity           Mult            ....    1
 Number of Electrons    NEL             ....  134
 Basis Dimension        Dim             ....  322

ORBITAL ENERGIES
----------------

  NO   OCC          E(Eh)            E(eV)
   0   2.0000     -88.964278     -2420.8411
   1   2.0000     -88.963461     -2420.8188
   2   2.0000     -10.328216      -281.0451
   3   2.0000     -10.317497      -280.7534
   4   2.0000     -10.314364      -280.6681
   5   2.0000     -10.311868      -280.6002
   6   2.0000     -10.309463      -280.5347
   7   2.0000     -10.296918      -280.1934
   8   2.0000     -10.295721      -280.1608
   9   2.0000     -10.294613      -280.1307
  10   2.0000     -10.293751      -280.1072
  11   2.0000     -10.289508      -279.9917
  12   2.0000     -10.286065      -279.8981
  13   2.0000     -10.285744      -279.8893
  14   2.0000     -10.279004      -279.7059
  15   2.0000     -10.278015      -279.6790
  16   2.0000      -8.080727      -219.8878
  17   2.0000      -8.076205      -219.7647
  18   2.0000      -6.039107      -164.3325
  19   2.0000      -6.034989      -164.2204
  20   2.0000      -6.034895      -164.2179
  21   2.0000      -6.031500      -164.1255
  22   2.0000      -6.031014      -164.1122
  23   2.0000      -6.026855      -163.9991
  24   2.0000      -1.006533       -27.3892
  25   2.0000      -0.974251       -26.5107
  26   2.0000      -0.909093       -24.7377
  27   2.0000      -0.907500       -24.6943
  28   2.0000      -0.867361       -23.6021
  29   2.0000      -0.847913       -23.0729
  30   2.0000      -0.839355       -22.8400
  31   2.0000      -0.809765       -22.0348
  32   2.0000      -0.781519       -21.2662
  33   2.0000      -0.766589       -20.8599
  34   2.0000      -0.709582       -19.3087
  35   2.0000      -0.706820       -19.2335
  36   2.0000      -0.691687       -18.8218
  37   2.0000      -0.656366       -17.8606
  38   2.0000      -0.629297       -17.1240
  39   2.0000      -0.608779       -16.5657
  40   2.0000      -0.593104       -16.1392
  41   2.0000      -0.571651       -15.5554
  42   2.0000      -0.567879       -15.4528
  43   2.0000      -0.549329       -14.9480
  44   2.0000      -0.538316       -14.6483
  45   2.0000      -0.525739       -14.3061
  46   2.0000      -0.509795       -13.8722
  47   2.0000      -0.506745       -13.7892
  48   2.0000      -0.503017       -13.6878
  49   2.0000      -0.494042       -13.4436
  50   2.0000      -0.489962       -13.3325
  51   2.0000      -0.480068       -13.0633
  52   2.0000      -0.466312       -12.6890
  53   2.0000      -0.462125       -12.5751
  54   2.0000      -0.454820       -12.3763
  55   2.0000      -0.448824       -12.2131
  56   2.0000      -0.440214       -11.9788
  57   2.0000      -0.437509       -11.9052
  58   2.0000      -0.435353       -11.8466
  59   2.0000      -0.430127       -11.7043
  60   2.0000      -0.416907       -11.3446
  61   2.0000      -0.414310       -11.2740
  62   2.0000      -0.410937       -11.1822
  63   2.0000      -0.334698        -9.1076
  64   2.0000      -0.324509        -8.8303
  65   2.0000      -0.318134        -8.6569
  66   2.0000      -0.298927        -8.1342
  67   0.0000       0.038804         1.0559
  68   0.0000       0.051879         1.4117
  69   0.0000       0.108912         2.9637
  70   0.0000       0.117728         3.2035
  71   0.0000       0.129651         3.5280

MULLIKEN ATOMIC CHARGES
-----------------------
   0 S :    0.107228
   1 C :   -0.138009
   2 C :   -0.109232
   3 C :    0.021202
   4 C :   -0.143804
   5 H :    0.019940
   6 C :    0.094872
   7 H :   -0.014212
   8 H :    0.043693
   9 C :   -0.031918
  10 H :    0.027734
  11 H :    0.031561
  12 C :   -0.091769
  13 H :    0.039715
  14 H :    0.048720
  15 H :    0.038025
  16 S :    0.134788
  17 C :   -0.095465
  18 C :   -0.052172
  19 C :   -0.033094
  20 C :   -0.206288
  21 H :    0.038601
  22 C :    0.061617
  23 H :    0.012618
  24 H :    0.026487
  25 C :   -0.081631
  26 H :    0.053250
  27 H :    0.020472
  28 C :   -0.025100
  29 H :    0.039899
  30 H :    0.018405
  31 H :    0.038959
  32 H :    0.051365
  33 H :    0.053543
Sum of atomic charges:    0.0000000

LOEWDIN ATOMIC CHARGES
----------------------
   0 S :    0.360159
   1 C :   -0.182722
   2 C :   -0.068119
   3 C :   -0.066369
   4 C :   -0.190415
   5 H :    0.031948
   6 C :   -0.027986
   7 H :    0.015828
   8 H :    0.041845
   9 C :   -0.034566
  10 H :    0.022179
  11 H :    0.030238
  12 C :   -0.072946
  13 H :    0.028834
  14 H :    0.027939
  15 H :    0.031320
  16 S :    0.448738
  17 C :   -0.192543
  18 C :   -0.078956
  19 C :   -0.038762
  20 C :   -0.237533
  21 H :    0.037575
  22 C :   -0.025822
  23 H :    0.029940
  24 H :    0.024238
  25 C :   -0.032624
  26 H :    0.031394
  27 H :    0.013289
  28 C :   -0.062237
  29 H :    0.026657
  30 H :    0.021783
  31 H :    0.030205
  32 H :    0.029374
  33 H :    0.028117

  Mayer bond orders larger than 0.100000
B(  0-S ,  1-C ) :   1.1300 B(  0-S ,  4-C ) :   1.1224 B(  1-C ,  2-C ) :   1.6087
B(  1-C ,  4-C ) :   0.1061 B(  1-C , 32-H ) :   0.9669 B(  2-C ,  3-C ) :   1.2539
B(  2-C ,  6-C ) :   0.9865 B(  3-C ,  4-C ) :   1.5818 B(  3-C ,  5-H ) :   0.9814
B(  4-C , 20-C ) :   1.0471 B(  6-C ,  7-H ) :   0.9344 B(  6-C ,  8-H ) :   0.9444
B(  6-C ,  9-C ) :   1.0640 B(  9-C , 10-H ) :   0.9581 B(  9-C , 11-H ) :   0.9538
B(  9-C , 12-C ) :   1.0708 B( 12-C , 13-H ) :   0.9774 B( 12-C , 14-H ) :   0.9757
B( 12-C , 15-H ) :   0.9750 B( 16-S , 17-C ) :   1.1695 B( 16-S , 20-C ) :   1.1520
B( 17-C , 18-C ) :   1.6275 B( 17-C , 33-H ) :   0.9631 B( 18-C , 19-C ) :   1.2354
B( 18-C , 21-H ) :   0.9797 B( 19-C , 20-C ) :   1.5885 B( 19-C , 22-C ) :   1.0258
B( 22-C , 23-H ) :   0.9385 B( 22-C , 24-H ) :   0.9294 B( 22-C , 25-C ) :   1.0705
B( 25-C , 26-H ) :   0.9466 B( 25-C , 27-H ) :   0.9621 B( 25-C , 28-C ) :   1.0793
B( 28-C , 29-H ) :   0.9737 B( 28-C , 30-H ) :   0.9761 B( 28-C , 31-H ) :   0.9732

Dispersion correction           -0.014235878
FINAL SINGLE POINT ENERGY     -1339.849649082802

DIPOLE MOMENT
-------------
                                X             Y             Z
Electronic contribution:     14.07227      16.19336      -6.61044
Nuclear contribution   :    -14.47992     -16.48504       6.63220
                        -----------------------------------------
Total Dipole Moment    :     -0.40765      -0.29168       0.02176
                        -----------------------------------------
Magnitude (a.u.)       :      0.50172
Magnitude (Debye)      :      1.27528

Rotational constants in cm-1:     0.019047     0.008293     0.006752
Rotational constants in MHz :   571.008223   248.615451   202.413062

                             ****ORCA TERMINATED NORMALLY****
TOTAL RUN TIME: 0 days 0 hours 0 minutes 31 seconds 239 msec
