                         Program Version 4.2.1 -  RELEASE  -
|  1> ! wB97X-D3 SP def2-SVP
|  2> %pal
|  3> nprocs 16
|  4> end
|  5>
|  6> * xyz 0 1
|  7> S 	 -41.9319 	 -1.19226 	 94.237
|  8> C 	 -42.3763 	 -2.86962 	 94.2402
|  9> C 	 -41.8922 	 -3.48944 	 95.3786
| 10> C 	 -41.2314 	 -2.55651 	 96.2444
| 11> C 	 -41.2664 	 -1.26988 	 95.8742
| 12> H 	 -40.8277 	 -2.90127 	 97.1833
| 13> C 	 -42.0724 	 -4.86942 	 95.7458
| 14> H 	 -42.6659 	 -5.43466 	 95.051
| 15> H 	 -42.7344 	 -4.93531 	 96.6552
| 16> C 	 -40.7997 	 -5.72259 	 95.8693
| 17> H 	 -40.3023 	 -5.60498 	 96.8589
| 18> H 	 -41.101 	 -6.81763 	 95.8655
| 19> C 	 -39.6788 	 -5.54308 	 94.8509
| 20> H 	 -40.2689 	 -5.45776 	 93.8794
| 21> H 	 -39.0994 	 -4.63614 	 95.1585
| 22> H 	 -39.0497 	 -6.40069 	 94.6983
| 23> S 	 -41.9978 	 0.820441 	 97.5617
| 24> C 	 -40.7647 	 1.71539 	 98.4298
| 25> C 	 -39.5191 	 1.2513 	 98.0902
| 26> C 	 -39.5473 	 0.254286 	 97.0335
| 27> C 	 -40.8393 	 -0.145486 	 96.6704
| 28> H 	 -38.6122 	 1.6694 	 98.4941
| 29> C 	 -38.3275 	 -0.311114 	 96.4188
| 30> H 	 -37.6381 	 0.476013 	 96.3761
| 31> H 	 -38.6048 	 -0.699386 	 95.4675
| 32> C 	 -37.7003 	 -1.41136 	 97.2714
| 33> H 	 -38.4242 	 -2.11271 	 97.7027
| 34> H 	 -37.1986 	 -0.966828 	 98.1218
| 35> C 	 -36.6169 	 -2.2303 	 96.6158
| 36> H 	 -37.0745 	 -3.15682 	 96.1945
| 37> H 	 -36.0509 	 -2.71036 	 97.4944
| 38> H 	 -35.9122 	 -1.73276 	 95.9821
| 39> H 	 -42.9111 	 -3.38513 	 93.4332
| 40> H 	 -41.0148 	 2.46743 	 99.1416
| 41> *
| 42>
| 43>                          ****END OF INPUT****

CARTESIAN COORDINATES (ANGSTROEM)
---------------------------------
  S    -41.931900   -1.192260   94.237000
  C    -42.376300   -2.869620   94.240200
  C    -41.892200   -3.489440   95.378600
  C    -41.231400   -2.556510   96.244400
  C    -41.266400   -1.269880   95.874200
  H    -40.827700   -2.901270   97.183300
  C    -42.072400   -4.869420   95.745800
  H    -42.665900   -5.434660   95.051000
  H    -42.734400   -4.935310   96.655200
  C    -40.799700   -5.722590   95.869300
  H    -40.302300   -5.604980   96.858900
  H    -41.101000   -6.817630   95.865500
  C    -39.678800   -5.543080   94.850900
  H    -40.268900   -5.457760   93.879400
  H    -39.099400   -4.636140   95.158500
  H    -39.049700   -6.400690   94.698300
  S    -41.997800    0.820441   97.561700
  C    -40.764700    1.715390   98.429800
  C    -39.519100    1.251300   98.090200
  C    -39.547300    0.254286   97.033500
  C    -40.839300   -0.145486   96.670400
  H    -38.612200    1.669400   98.494100
  C    -38.327500   -0.311114   96.418800
  H    -37.638100    0.476013   96.376100
  H    -38.604800   -0.699386   95.467500
  C    -37.700300   -1.411360   97.271400
  H    -38.424200   -2.112710   97.702700
  H    -37.198600   -0.966828   98.121800
  C    -36.616900   -2.230300   96.615800
  H    -37.074500   -3.156820   96.194500
  H    -36.050900   -2.710360   97.494400
  H    -35.912200   -1.732760   95.982100
  H    -42.911100   -3.385130   93.433200
  H    -41.014800    2.467430   99.141600

 Total Charge           Charge          ....    0
 Multiplicity           Mult            ....    1
 Number of Electrons    NEL             ....  134
 Basis Dimension        Dim             ....  322

ORBITAL ENERGIES
----------------

  NO   OCC          E(Eh)            E(eV)
   0   2.0000     -88.963101     -2420.8090
   1   2.0000     -88.961016     -2420.7523
   2   2.0000     -10.326734      -281.0047
   3   2.0000     -10.323346      -280.9125
   4   2.0000     -10.318799      -280.7888
   5   2.0000     -10.316495      -280.7261
   6   2.0000     -10.302205      -280.3372
   7   2.0000     -10.295763      -280.1620
   8   2.0000     -10.295389      -280.1518
   9   2.0000     -10.291839      -280.0552
  10   2.0000     -10.291017      -280.0328
  11   2.0000     -10.290292      -280.0131
  12   2.0000     -10.283392      -279.8253
  13   2.0000     -10.281692      -279.7791
  14   2.0000     -10.280934      -279.7584
  15   2.0000     -10.279066      -279.7076
  16   2.0000      -8.077962      -219.8125
  17   2.0000      -8.075921      -219.7570
  18   2.0000      -6.036537      -164.2625
  19   2.0000      -6.034377      -164.2038
  20   2.0000      -6.032455      -164.1514
  21   2.0000      -6.030321      -164.0934
  22   2.0000      -6.028624      -164.0472
  23   2.0000      -6.026796      -163.9975
  24   2.0000      -1.008589       -27.4451
  25   2.0000      -0.986091       -26.8329
  26   2.0000      -0.917199       -24.9582
  27   2.0000      -0.915276       -24.9059
  28   2.0000      -0.873542       -23.7703
  29   2.0000      -0.851155       -23.1611
  30   2.0000      -0.847443       -23.0601
  31   2.0000      -0.820794       -22.3349
  32   2.0000      -0.783969       -21.3329
  33   2.0000      -0.771244       -20.9866
  34   2.0000      -0.706560       -19.2265
  35   2.0000      -0.694382       -18.8951
  36   2.0000      -0.689497       -18.7622
  37   2.0000      -0.663420       -18.0526
  38   2.0000      -0.640448       -17.4275
  39   2.0000      -0.628916       -17.1137
  40   2.0000      -0.598322       -16.2812
  41   2.0000      -0.575294       -15.6545
  42   2.0000      -0.569696       -15.5022
  43   2.0000      -0.557381       -15.1671
  44   2.0000      -0.543938       -14.8013
  45   2.0000      -0.529923       -14.4199
  46   2.0000      -0.522647       -14.2220
  47   2.0000      -0.513186       -13.9645
  48   2.0000      -0.508428       -13.8350
  49   2.0000      -0.502053       -13.6616
  50   2.0000      -0.495954       -13.4956
  51   2.0000      -0.483825       -13.1656
  52   2.0000      -0.467535       -12.7223
  53   2.0000      -0.466414       -12.6918
  54   2.0000      -0.460688       -12.5359
  55   2.0000      -0.448052       -12.1921
  56   2.0000      -0.444207       -12.0875
  57   2.0000      -0.436917       -11.8891
  58   2.0000      -0.433788       -11.8040
  59   2.0000      -0.419031       -11.4024
  60   2.0000      -0.413716       -11.2578
  61   2.0000      -0.407888       -11.0992
  62   2.0000      -0.401792       -10.9333
  63   2.0000      -0.340217        -9.2578
  64   2.0000      -0.326835        -8.8936
  65   2.0000      -0.319723        -8.7001
  66   2.0000      -0.309059        -8.4099
  67   0.0000       0.041063         1.1174
  68   0.0000       0.059422         1.6170
  69   0.0000       0.112268         3.0550
  70   0.0000       0.120310         3.2738
  71   0.0000       0.129901         3.5348

MULLIKEN ATOMIC CHARGES
-----------------------
   0 S :    0.108665
   1 C :   -0.120139
   2 C :   -0.091012
   3 C :    0.059720
   4 C :   -0.167810
   5 H :    0.006341
   6 C :    0.079396
   7 H :    0.002653
   8 H :    0.048979
   9 C :   -0.139962
  10 H :    0.025815
  11 H :    0.034841
  12 C :   -0.054128
  13 H :    0.028921
  14 H :    0.058983
  15 H :    0.039843
  16 S :    0.101830
  17 C :   -0.085632
  18 C :   -0.011082
  19 C :   -0.077146
  20 C :   -0.158441
  21 H :    0.015118
  22 C :    0.169247
  23 H :    0.004985
  24 H :    0.018840
  25 C :   -0.096239
  26 H :    0.021039
  27 H :    0.016898
  28 C :   -0.057022
  29 H :    0.036898
  30 H :    0.028333
  31 H :    0.039671
  32 H :    0.055837
  33 H :    0.055762
Sum of atomic charges:    0.0000000

LOEWDIN ATOMIC CHARGES
----------------------
   0 S :    0.398110
   1 C :   -0.194223
   2 C :   -0.074027
   3 C :   -0.048479
   4 C :   -0.194160
   5 H :    0.028831
   6 C :   -0.043919
   7 H :    0.027600
   8 H :    0.045937
   9 C :   -0.052871
  10 H :    0.017612
  11 H :    0.029214
  12 C :   -0.071784
  13 H :    0.032331
  14 H :    0.032680
  15 H :    0.025218
  16 S :    0.403460
  17 C :   -0.171880
  18 C :   -0.072859
  19 C :   -0.042814
  20 C :   -0.209881
  21 H :    0.029302
  22 C :   -0.023661
  23 H :    0.026388
  24 H :    0.028253
  25 C :   -0.042147
  26 H :    0.024061
  27 H :    0.019973
  28 C :   -0.071764
  29 H :    0.028012
  30 H :    0.035671
  31 H :    0.020880
  32 H :    0.034502
  33 H :    0.026434

  Mayer bond orders larger than 0.100000
B(  0-S ,  1-C ) :   1.1415 B(  0-S ,  4-C ) :   1.1248 B(  1-C ,  2-C ) :   1.6018
B(  1-C , 32-H ) :   0.9641 B(  2-C ,  3-C ) :   1.2264 B(  2-C ,  6-C ) :   1.0625
B(  3-C ,  4-C ) :   1.6070 B(  3-C ,  5-H ) :   0.9962 B(  4-C , 20-C ) :   1.0282
B(  6-C ,  7-H ) :   0.9310 B(  6-C ,  8-H ) :   0.9339 B(  6-C ,  9-C ) :   1.0531
B(  9-C , 10-H ) :   0.9566 B(  9-C , 11-H ) :   0.9605 B(  9-C , 12-C ) :   1.0766
B( 12-C , 13-H ) :   0.9736 B( 12-C , 14-H ) :   0.9670 B( 12-C , 15-H ) :   0.9740
B( 16-S , 17-C ) :   1.1665 B( 16-S , 20-C ) :   1.1348 B( 17-C , 18-C ) :   1.5897
B( 17-C , 33-H ) :   0.9739 B( 18-C , 19-C ) :   1.2419 B( 18-C , 21-H ) :   0.9912
B( 19-C , 20-C ) :   1.5899 B( 19-C , 22-C ) :   1.0710 B( 22-C , 23-H ) :   0.9134
B( 22-C , 24-H ) :   0.9243 B( 22-C , 25-C ) :   1.0671 B( 25-C , 26-H ) :   0.9546
B( 25-C , 27-H ) :   0.9563 B( 25-C , 28-C ) :   1.0909 B( 28-C , 29-H ) :   0.9755
B( 28-C , 30-H ) :   0.9710 B( 28-C , 31-H ) :   0.9723

Dispersion correction           -0.015608963
FINAL SINGLE POINT ENERGY     -1339.877363530323

DIPOLE MOMENT
-------------
                                X             Y             Z
Electronic contribution:    -19.44233      22.31757      -1.34756
Nuclear contribution   :     19.85307     -22.79230       1.63089
                        -----------------------------------------
Total Dipole Moment    :      0.41073      -0.47474       0.28333
                        -----------------------------------------
Magnitude (a.u.)       :      0.68873
Magnitude (Debye)      :      1.75062

Rotational constants in cm-1:     0.017960     0.010101     0.007566
Rotational constants in MHz :   538.427008   302.818247   226.809018

                             ****ORCA TERMINATED NORMALLY****
TOTAL RUN TIME: 0 days 0 hours 0 minutes 32 seconds 11 msec
