                         Program Version 4.2.1 -  RELEASE  -
|  1> ! wB97X-D3 SP def2-SVP
|  2> %pal
|  3> nprocs 16
|  4> end
|  5>
|  6> * xyz 0 1
|  7> S 	 13.3323 	 19.9965 	 38.1471
|  8> C 	 13.1671 	 20.4003 	 36.4206
|  9> C 	 11.8826 	 20.1649 	 35.9857
| 10> C 	 11.0846 	 19.6198 	 37.0094
| 11> C 	 11.6988 	 19.4689 	 38.252
| 12> H 	 10.11 	 19.2232 	 36.8411
| 13> C 	 11.4911 	 20.5435 	 34.5736
| 14> H 	 10.9024 	 19.7944 	 34.1568
| 15> H 	 12.3598 	 20.6596 	 33.9022
| 16> C 	 10.6983 	 21.8521 	 34.4876
| 17> H 	 10.4265 	 22.0824 	 33.4228
| 18> H 	 9.75676 	 21.7382 	 34.9951
| 19> C 	 11.5965 	 22.9918 	 34.9351
| 20> H 	 11.0037 	 23.8884 	 34.7089
| 21> H 	 11.8532 	 23.0233 	 35.9508
| 22> H 	 12.43 	 23.1 	 34.2492
| 23> S 	 12.2846 	 17.8083 	 40.3767
| 24> C 	 10.98 	 17.2372 	 41.4005
| 25> C 	 9.75507 	 17.6255 	 40.9489
| 26> C 	 9.83023 	 18.5418 	 39.8446
| 27> C 	 11.1681 	 18.7935 	 39.4092
| 28> H 	 8.8174 	 17.3966 	 41.4161
| 29> C 	 8.56662 	 19.1597 	 39.2665
| 30> H 	 8.76053 	 20.1139 	 38.8926
| 31> H 	 7.89075 	 19.2932 	 40.0746
| 32> C 	 7.81449 	 18.4667 	 38.1825
| 33> H 	 7.50349 	 17.5902 	 38.629
| 34> H 	 8.46813 	 18.1468 	 37.3214
| 35> C 	 6.6236 	 19.2787 	 37.7415
| 36> H 	 6.22284 	 18.8145 	 36.8127
| 37> H 	 6.90302 	 20.301 	 37.4619
| 38> H 	 5.77726 	 19.3337 	 38.4573
| 39> H 	 13.9004 	 20.8476 	 35.7637
| 40> H 	 11.1058 	 16.77 	 42.3627
| 41> *
| 42>
| 43>                          ****END OF INPUT****

CARTESIAN COORDINATES (ANGSTROEM)
---------------------------------
  S     13.332300   19.996500   38.147100
  C     13.167100   20.400300   36.420600
  C     11.882600   20.164900   35.985700
  C     11.084600   19.619800   37.009400
  C     11.698800   19.468900   38.252000
  H     10.110000   19.223200   36.841100
  C     11.491100   20.543500   34.573600
  H     10.902400   19.794400   34.156800
  H     12.359800   20.659600   33.902200
  C     10.698300   21.852100   34.487600
  H     10.426500   22.082400   33.422800
  H      9.756760   21.738200   34.995100
  C     11.596500   22.991800   34.935100
  H     11.003700   23.888400   34.708900
  H     11.853200   23.023300   35.950800
  H     12.430000   23.100000   34.249200
  S     12.284600   17.808300   40.376700
  C     10.980000   17.237200   41.400500
  C      9.755070   17.625500   40.948900
  C      9.830230   18.541800   39.844600
  C     11.168100   18.793500   39.409200
  H      8.817400   17.396600   41.416100
  C      8.566620   19.159700   39.266500
  H      8.760530   20.113900   38.892600
  H      7.890750   19.293200   40.074600
  C      7.814490   18.466700   38.182500
  H      7.503490   17.590200   38.629000
  H      8.468130   18.146800   37.321400
  C      6.623600   19.278700   37.741500
  H      6.222840   18.814500   36.812700
  H      6.903020   20.301000   37.461900
  H      5.777260   19.333700   38.457300
  H     13.900400   20.847600   35.763700
  H     11.105800   16.770000   42.362700

 Total Charge           Charge          ....    0
 Multiplicity           Mult            ....    1
 Number of Electrons    NEL             ....  134
 Basis Dimension        Dim             ....  322

ORBITAL ENERGIES
----------------

  NO   OCC          E(Eh)            E(eV)
   0   2.0000     -88.968216     -2420.9482
   1   2.0000     -88.966460     -2420.9004
   2   2.0000     -10.332967      -281.1743
   3   2.0000     -10.330301      -281.1018
   4   2.0000     -10.316676      -280.7310
   5   2.0000     -10.313862      -280.6544
   6   2.0000     -10.307600      -280.4841
   7   2.0000     -10.298626      -280.2399
   8   2.0000     -10.293382      -280.0972
   9   2.0000     -10.291582      -280.0482
  10   2.0000     -10.287131      -279.9271
  11   2.0000     -10.286817      -279.9185
  12   2.0000     -10.284752      -279.8623
  13   2.0000     -10.281313      -279.7688
  14   2.0000     -10.279678      -279.7243
  15   2.0000     -10.269825      -279.4561
  16   2.0000      -8.082816      -219.9446
  17   2.0000      -8.080761      -219.8887
  18   2.0000      -6.041335      -164.3931
  19   2.0000      -6.039335      -164.3387
  20   2.0000      -6.037304      -164.2834
  21   2.0000      -6.035328      -164.2296
  22   2.0000      -6.033602      -164.1827
  23   2.0000      -6.031463      -164.1245
  24   2.0000      -1.007595       -27.4181
  25   2.0000      -0.982998       -26.7487
  26   2.0000      -0.922513       -25.1029
  27   2.0000      -0.918380       -24.9904
  28   2.0000      -0.872065       -23.7301
  29   2.0000      -0.852860       -23.2075
  30   2.0000      -0.844881       -22.9904
  31   2.0000      -0.815054       -22.1787
  32   2.0000      -0.787602       -21.4317
  33   2.0000      -0.775186       -21.0939
  34   2.0000      -0.713299       -19.4098
  35   2.0000      -0.700399       -19.0588
  36   2.0000      -0.693187       -18.8626
  37   2.0000      -0.664004       -18.0685
  38   2.0000      -0.639996       -17.4152
  39   2.0000      -0.623912       -16.9775
  40   2.0000      -0.602545       -16.3961
  41   2.0000      -0.576103       -15.6766
  42   2.0000      -0.573759       -15.6128
  43   2.0000      -0.556127       -15.1330
  44   2.0000      -0.549443       -14.9511
  45   2.0000      -0.522484       -14.2175
  46   2.0000      -0.518492       -14.1089
  47   2.0000      -0.512782       -13.9535
  48   2.0000      -0.506650       -13.7867
  49   2.0000      -0.503947       -13.7131
  50   2.0000      -0.490756       -13.3542
  51   2.0000      -0.481345       -13.0981
  52   2.0000      -0.474267       -12.9055
  53   2.0000      -0.466523       -12.6947
  54   2.0000      -0.459130       -12.4936
  55   2.0000      -0.456734       -12.4284
  56   2.0000      -0.441749       -12.0206
  57   2.0000      -0.436159       -11.8685
  58   2.0000      -0.434803       -11.8316
  59   2.0000      -0.425118       -11.5680
  60   2.0000      -0.420849       -11.4519
  61   2.0000      -0.420030       -11.4296
  62   2.0000      -0.414126       -11.2689
  63   2.0000      -0.356638        -9.7046
  64   2.0000      -0.334286        -9.0964
  65   2.0000      -0.331128        -9.0104
  66   2.0000      -0.283026        -7.7015
  67   0.0000       0.016573         0.4510
  68   0.0000       0.083548         2.2735
  69   0.0000       0.104312         2.8385
  70   0.0000       0.121691         3.3114
  71   0.0000       0.129804         3.5322

MULLIKEN ATOMIC CHARGES
-----------------------
   0 S :    0.107423
   1 C :   -0.121263
   2 C :   -0.083343
   3 C :    0.029636
   4 C :   -0.119108
   5 H :   -0.041212
   6 C :    0.102122
   7 H :    0.006180
   8 H :    0.018761
   9 C :   -0.088466
  10 H :    0.031037
  11 H :    0.027235
  12 C :   -0.030796
  13 H :    0.021256
  14 H :    0.048004
  15 H :    0.019564
  16 S :    0.096155
  17 C :   -0.081895
  18 C :   -0.007736
  19 C :   -0.064012
  20 C :   -0.113941
  21 H :    0.011146
  22 C :    0.076119
  23 H :   -0.001477
  24 H :    0.004645
  25 C :   -0.037942
  26 H :   -0.004177
  27 H :    0.043780
  28 C :   -0.055203
  29 H :    0.035981
  30 H :    0.028061
  31 H :    0.040422
  32 H :    0.043922
  33 H :    0.059121
Sum of atomic charges:    0.0000000

LOEWDIN ATOMIC CHARGES
----------------------
   0 S :    0.407812
   1 C :   -0.185672
   2 C :   -0.060229
   3 C :   -0.063491
   4 C :   -0.200883
   5 H :    0.021141
   6 C :   -0.026268
   7 H :    0.018953
   8 H :    0.031403
   9 C :   -0.037157
  10 H :    0.029103
  11 H :    0.018678
  12 C :   -0.061456
  13 H :    0.028723
  14 H :    0.019711
  15 H :    0.024433
  16 S :    0.393748
  17 C :   -0.181162
  18 C :   -0.068052
  19 C :   -0.048334
  20 C :   -0.187903
  21 H :    0.029733
  22 C :   -0.030954
  23 H :    0.018883
  24 H :    0.027118
  25 C :   -0.039441
  26 H :    0.013512
  27 H :    0.028402
  28 C :   -0.064961
  29 H :    0.032075
  30 H :    0.023678
  31 H :    0.029519
  32 H :    0.028574
  33 H :    0.030764

  Mayer bond orders larger than 0.100000
B(  0-S ,  1-C ) :   1.1304 B(  0-S ,  4-C ) :   1.1568 B(  1-C ,  2-C ) :   1.5952
B(  1-C , 32-H ) :   0.9664 B(  2-C ,  3-C ) :   1.2747 B(  2-C ,  6-C ) :   1.0271
B(  3-C ,  4-C ) :   1.5227 B(  3-C ,  5-H ) :   0.9959 B(  4-C , 20-C ) :   1.0856
B(  6-C ,  7-H ) :   0.9293 B(  6-C ,  8-H ) :   0.9440 B(  6-C ,  9-C ) :   1.0800
B(  9-C , 10-H ) :   0.9555 B(  9-C , 11-H ) :   0.9567 B(  9-C , 12-C ) :   1.0764
B( 12-C , 13-H ) :   0.9703 B( 12-C , 14-H ) :   0.9764 B( 12-C , 15-H ) :   0.9717
B( 16-S , 17-C ) :   1.1506 B( 16-S , 20-C ) :   1.1288 B( 17-C , 18-C ) :   1.5956
B( 17-C , 33-H ) :   0.9653 B( 18-C , 19-C ) :   1.2664 B( 18-C , 21-H ) :   0.9893
B( 19-C , 20-C ) :   1.5629 B( 19-C , 22-C ) :   1.0458 B( 22-C , 23-H ) :   0.9313
B( 22-C , 24-H ) :   0.9292 B( 22-C , 25-C ) :   1.0694 B( 25-C , 26-H ) :   0.9373
B( 25-C , 27-H ) :   0.9473 B( 25-C , 28-C ) :   1.0857 B( 28-C , 29-H ) :   0.9719
B( 28-C , 30-H ) :   0.9728 B( 28-C , 31-H ) :   0.9731

Dispersion correction           -0.014555110
FINAL SINGLE POINT ENERGY     -1339.880522648589

DIPOLE MOMENT
-------------
                                X             Y             Z
Electronic contribution:     21.75450     -11.25618      18.46061
Nuclear contribution   :    -22.45162      11.36262     -18.82509
                        -----------------------------------------
Total Dipole Moment    :     -0.69712       0.10644      -0.36449
                        -----------------------------------------
Magnitude (a.u.)       :      0.79383
Magnitude (Debye)      :      2.01774

Rotational constants in cm-1:     0.018154     0.009774     0.006720
Rotational constants in MHz :   544.231668   293.025734   201.467184

                             ****ORCA TERMINATED NORMALLY****
TOTAL RUN TIME: 0 days 0 hours 0 minutes 36 seconds 157 msec
