                         Program Version 4.2.1 -  RELEASE  -
|  1> ! wB97X-D3 SP def2-SVP
|  2> %pal
|  3> nprocs 16
|  4> end
|  5>
|  6> * xyz 0 1
|  7> S 	 -28.3467 	 69.9348 	 103.912
|  8> C 	 -28.3064 	 69.2162 	 102.324
|  9> C 	 -27.7443 	 67.9486 	 102.339
| 10> C 	 -27.2353 	 67.6154 	 103.601
| 11> C 	 -27.4941 	 68.5097 	 104.619
| 12> H 	 -26.6098 	 66.7259 	 103.835
| 13> C 	 -27.5891 	 66.9783 	 101.195
| 14> H 	 -26.5126 	 66.8289 	 101.046
| 15> H 	 -28.0473 	 67.4488 	 100.253
| 16> C 	 -28.2756 	 65.5554 	 101.281
| 17> H 	 -27.839 	 64.9236 	 102.083
| 18> H 	 -29.325 	 65.6482 	 101.601
| 19> C 	 -28.2014 	 64.7723 	 99.8715
| 20> H 	 -28.8562 	 63.898 	 99.8543
| 21> H 	 -28.3957 	 65.3666 	 98.9305
| 22> H 	 -27.1656 	 64.5649 	 99.6901
| 23> S 	 -25.6535 	 67.3909 	 106.153
| 24> C 	 -25.5809 	 67.8385 	 107.883
| 25> C 	 -26.5442 	 68.7864 	 108.166
| 26> C 	 -27.3908 	 69.1918 	 107.064
| 27> C 	 -27.0687 	 68.4137 	 105.954
| 28> H 	 -26.5662 	 69.2604 	 109.193
| 29> C 	 -28.4866 	 70.1702 	 107.291
| 30> H 	 -28.371 	 70.9858 	 106.587
| 31> H 	 -28.1543 	 70.8611 	 108.11
| 32> C 	 -29.8567 	 69.5578 	 107.633
| 33> H 	 -30.1926 	 69.0335 	 106.696
| 34> H 	 -30.6729 	 70.2982 	 107.865
| 35> C 	 -29.8455 	 68.537 	 108.797
| 36> H 	 -30.8306 	 68.5431 	 109.274
| 37> H 	 -29.0967 	 68.8301 	 109.512
| 38> H 	 -29.6176 	 67.5335 	 108.476
| 39> H 	 -28.8273 	 69.4713 	 101.404
| 40> H 	 -24.7241 	 67.6912 	 108.55
| 41> *
| 42>
| 43>                          ****END OF INPUT****

CARTESIAN COORDINATES (ANGSTROEM)
---------------------------------
  S    -28.346700   69.934800  103.912000
  C    -28.306400   69.216200  102.324000
  C    -27.744300   67.948600  102.339000
  C    -27.235300   67.615400  103.601000
  C    -27.494100   68.509700  104.619000
  H    -26.609800   66.725900  103.835000
  C    -27.589100   66.978300  101.195000
  H    -26.512600   66.828900  101.046000
  H    -28.047300   67.448800  100.253000
  C    -28.275600   65.555400  101.281000
  H    -27.839000   64.923600  102.083000
  H    -29.325000   65.648200  101.601000
  C    -28.201400   64.772300   99.871500
  H    -28.856200   63.898000   99.854300
  H    -28.395700   65.366600   98.930500
  H    -27.165600   64.564900   99.690100
  S    -25.653500   67.390900  106.153000
  C    -25.580900   67.838500  107.883000
  C    -26.544200   68.786400  108.166000
  C    -27.390800   69.191800  107.064000
  C    -27.068700   68.413700  105.954000
  H    -26.566200   69.260400  109.193000
  C    -28.486600   70.170200  107.291000
  H    -28.371000   70.985800  106.587000
  H    -28.154300   70.861100  108.110000
  C    -29.856700   69.557800  107.633000
  H    -30.192600   69.033500  106.696000
  H    -30.672900   70.298200  107.865000
  C    -29.845500   68.537000  108.797000
  H    -30.830600   68.543100  109.274000
  H    -29.096700   68.830100  109.512000
  H    -29.617600   67.533500  108.476000
  H    -28.827300   69.471300  101.404000
  H    -24.724100   67.691200  108.550000

 Total Charge           Charge          ....    0
 Multiplicity           Mult            ....    1
 Number of Electrons    NEL             ....  134
 Basis Dimension        Dim             ....  322

ORBITAL ENERGIES
----------------

  NO   OCC          E(Eh)            E(eV)
   0   2.0000     -88.970071     -2420.9987
   1   2.0000     -88.969069     -2420.9714
   2   2.0000     -10.329254      -281.0733
   3   2.0000     -10.328917      -281.0641
   4   2.0000     -10.320615      -280.8382
   5   2.0000     -10.313141      -280.6348
   6   2.0000     -10.306686      -280.4592
   7   2.0000     -10.302277      -280.3392
   8   2.0000     -10.300923      -280.3024
   9   2.0000     -10.299655      -280.2679
  10   2.0000     -10.297733      -280.2156
  11   2.0000     -10.296473      -280.1813
  12   2.0000     -10.295155      -280.1454
  13   2.0000     -10.290591      -280.0212
  14   2.0000     -10.287063      -279.9252
  15   2.0000     -10.273588      -279.5585
  16   2.0000      -8.083225      -219.9557
  17   2.0000      -8.083063      -219.9513
  18   2.0000      -6.042030      -164.4120
  19   2.0000      -6.041775      -164.4050
  20   2.0000      -6.037954      -164.3011
  21   2.0000      -6.037830      -164.2977
  22   2.0000      -6.033758      -164.1869
  23   2.0000      -6.033489      -164.1796
  24   2.0000      -1.008521       -27.4433
  25   2.0000      -0.980670       -26.6854
  26   2.0000      -0.909866       -24.7587
  27   2.0000      -0.900471       -24.5031
  28   2.0000      -0.873449       -23.7677
  29   2.0000      -0.850175       -23.1344
  30   2.0000      -0.840891       -22.8818
  31   2.0000      -0.809220       -22.0200
  32   2.0000      -0.786593       -21.4043
  33   2.0000      -0.769149       -20.9296
  34   2.0000      -0.714691       -19.4477
  35   2.0000      -0.700599       -19.0643
  36   2.0000      -0.692939       -18.8558
  37   2.0000      -0.668767       -18.1981
  38   2.0000      -0.624159       -16.9842
  39   2.0000      -0.616245       -16.7689
  40   2.0000      -0.594889       -16.1877
  41   2.0000      -0.565300       -15.3826
  42   2.0000      -0.555204       -15.1079
  43   2.0000      -0.548536       -14.9264
  44   2.0000      -0.546693       -14.8763
  45   2.0000      -0.524787       -14.2802
  46   2.0000      -0.512153       -13.9364
  47   2.0000      -0.506383       -13.7794
  48   2.0000      -0.500788       -13.6271
  49   2.0000      -0.498242       -13.5579
  50   2.0000      -0.485916       -13.2224
  51   2.0000      -0.472047       -12.8451
  52   2.0000      -0.468760       -12.7556
  53   2.0000      -0.465544       -12.6681
  54   2.0000      -0.459579       -12.5058
  55   2.0000      -0.452709       -12.3188
  56   2.0000      -0.441422       -12.0117
  57   2.0000      -0.438076       -11.9206
  58   2.0000      -0.428720       -11.6661
  59   2.0000      -0.425234       -11.5712
  60   2.0000      -0.421402       -11.4669
  61   2.0000      -0.416017       -11.3204
  62   2.0000      -0.398643       -10.8476
  63   2.0000      -0.365109        -9.9351
  64   2.0000      -0.335921        -9.1409
  65   2.0000      -0.330871        -9.0035
  66   2.0000      -0.278166        -7.5693
  67   0.0000       0.012496         0.3400
  68   0.0000       0.082315         2.2399
  69   0.0000       0.098664         2.6848
  70   0.0000       0.113006         3.0750
  71   0.0000       0.126538         3.4433

MULLIKEN ATOMIC CHARGES
-----------------------
   0 S :    0.102622
   1 C :   -0.095269
   2 C :   -0.070242
   3 C :   -0.042466
   4 C :   -0.106985
   5 H :    0.035456
   6 C :    0.022969
   7 H :    0.045196
   8 H :    0.026632
   9 C :   -0.088969
  10 H :    0.040172
  11 H :    0.036900
  12 C :   -0.068953
  13 H :    0.050183
  14 H :    0.032327
  15 H :    0.025048
  16 S :    0.077244
  17 C :   -0.082881
  18 C :   -0.061923
  19 C :   -0.089209
  20 C :   -0.112525
  21 H :    0.042248
  22 C :    0.060649
  23 H :    0.025735
  24 H :    0.011536
  25 C :   -0.070195
  26 H :    0.039939
  27 H :    0.042485
  28 C :   -0.037196
  29 H :    0.036853
  30 H :    0.020333
  31 H :    0.042781
  32 H :    0.042731
  33 H :    0.066772
Sum of atomic charges:   -0.0000000

LOEWDIN ATOMIC CHARGES
----------------------
   0 S :    0.394477
   1 C :   -0.205674
   2 C :   -0.069686
   3 C :   -0.078714
   4 C :   -0.174060
   5 H :    0.028784
   6 C :   -0.036853
   7 H :    0.034837
   8 H :    0.034946
   9 C :   -0.040687
  10 H :    0.025481
  11 H :    0.024292
  12 C :   -0.073137
  13 H :    0.028972
  14 H :    0.030643
  15 H :    0.021722
  16 S :    0.397283
  17 C :   -0.188010
  18 C :   -0.068200
  19 C :   -0.060515
  20 C :   -0.180068
  21 H :    0.039082
  22 C :   -0.055758
  23 H :    0.029173
  24 H :    0.038325
  25 C :   -0.041610
  26 H :    0.028901
  27 H :    0.031059
  28 C :   -0.062649
  29 H :    0.030173
  30 H :    0.020313
  31 H :    0.027321
  32 H :    0.033140
  33 H :    0.036697

  Mayer bond orders larger than 0.100000
B(  0-S ,  1-C ) :   1.1246 B(  0-S ,  4-C ) :   1.1084 B(  1-C ,  2-C ) :   1.6264
B(  1-C , 32-H ) :   0.9523 B(  2-C ,  3-C ) :   1.2492 B(  2-C ,  6-C ) :   1.0327
B(  3-C ,  4-C ) :   1.5514 B(  3-C ,  5-H ) :   0.9742 B(  4-C , 20-C ) :   1.1615
B(  6-C ,  7-H ) :   0.9395 B(  6-C ,  8-H ) :   0.9436 B(  6-C ,  9-C ) :   1.0484
B(  9-C , 10-H ) :   0.9555 B(  9-C , 11-H ) :   0.9622 B(  9-C , 12-C ) :   1.0621
B( 12-C , 13-H ) :   0.9779 B( 12-C , 14-H ) :   0.9771 B( 12-C , 15-H ) :   0.9766
B( 16-S , 17-C ) :   1.1148 B( 16-S , 20-C ) :   1.1356 B( 17-C , 18-C ) :   1.6508
B( 17-C , 33-H ) :   0.9617 B( 18-C , 19-C ) :   1.2277 B( 18-C , 21-H ) :   0.9688
B( 19-C , 20-C ) :   1.5543 B( 19-C , 22-C ) :   1.0582 B( 22-C , 23-H ) :   0.9229
B( 22-C , 24-H ) :   0.9157 B( 22-C , 25-C ) :   1.0509 B( 25-C , 26-H ) :   0.9586
B( 25-C , 27-H ) :   0.9628 B( 25-C , 28-C ) :   1.0657 B( 28-C , 29-H ) :   0.9758
B( 28-C , 30-H ) :   0.9764 B( 28-C , 31-H ) :   0.9734

Dispersion correction           -0.014333575
FINAL SINGLE POINT ENERGY     -1339.865810393259

DIPOLE MOMENT
-------------
                                X             Y             Z
Electronic contribution:     11.28481       9.01571       4.73267
Nuclear contribution   :    -11.34051      -9.07385      -4.67041
                        -----------------------------------------
Total Dipole Moment    :     -0.05570      -0.05814       0.06226
                        -----------------------------------------
Magnitude (a.u.)       :      0.10178
Magnitude (Debye)      :      0.25870

Rotational constants in cm-1:     0.022180     0.007567     0.006648
Rotational constants in MHz :   664.929865   226.853881   199.311284

                             ****ORCA TERMINATED NORMALLY****
TOTAL RUN TIME: 0 days 0 hours 0 minutes 31 seconds 372 msec
