                         Program Version 4.2.1 -  RELEASE  -
|  1> ! wB97X-D3 SP def2-SVP
|  2> %pal
|  3> nprocs 16
|  4> end
|  5>
|  6> * xyz 0 1
|  7> S 	 1.23688 	 -15.3961 	 81.5131
|  8> C 	 0.760479 	 -16.7344 	 82.5207
|  9> C 	 -0.626204 	 -16.8942 	 82.3765
| 10> C 	 -1.23917 	 -15.8587 	 81.6107
| 11> C 	 -0.362669 	 -14.9 	 81.1698
| 12> H 	 -2.28702 	 -15.7079 	 81.5572
| 13> C 	 -1.43982 	 -18.014 	 82.9528
| 14> H 	 -2.45318 	 -17.7048 	 83.0031
| 15> H 	 -1.16665 	 -18.1307 	 84.0391
| 16> C 	 -1.12509 	 -19.4115 	 82.2319
| 17> H 	 -0.0394171 	 -19.6023 	 82.0572
| 18> H 	 -1.6266 	 -20.2109 	 82.715
| 19> C 	 -1.73437 	 -19.323 	 80.8152
| 20> H 	 -1.98952 	 -20.3025 	 80.4886
| 21> H 	 -2.61313 	 -18.6726 	 80.622
| 22> H 	 -0.898996 	 -18.9253 	 80.173
| 23> S 	 0.427672 	 -13.5799 	 78.8772
| 24> C 	 -0.548374 	 -12.2613 	 78.2929
| 25> C 	 -1.75643 	 -12.0972 	 78.9428
| 26> C 	 -1.7598 	 -12.9809 	 80.1168
| 27> C 	 -0.618958 	 -13.762 	 80.257
| 28> H 	 -2.4776 	 -11.3088 	 78.6511
| 29> C 	 -3.07373 	 -13.131 	 80.9528
| 30> H 	 -3.27471 	 -12.0827 	 81.2448
| 31> H 	 -2.68672 	 -13.5523 	 81.8417
| 32> C 	 -4.19363 	 -13.9178 	 80.1696
| 33> H 	 -3.91802 	 -14.9461 	 80.0656
| 34> H 	 -4.35513 	 -13.4277 	 79.2253
| 35> C 	 -5.57213 	 -13.7071 	 80.9316
| 36> H 	 -5.86934 	 -12.6483 	 80.9309
| 37> H 	 -5.43769 	 -13.8456 	 81.9862
| 38> H 	 -6.39771 	 -14.3105 	 80.5887
| 39> H 	 1.39175 	 -17.5006 	 82.9448
| 40> H 	 -0.521969 	 -11.7869 	 77.3614
| 41> *
| 42>
| 43>                          ****END OF INPUT****

CARTESIAN COORDINATES (ANGSTROEM)
---------------------------------
  S      1.236880  -15.396100   81.513100
  C      0.760479  -16.734400   82.520700
  C     -0.626204  -16.894200   82.376500
  C     -1.239170  -15.858700   81.610700
  C     -0.362669  -14.900000   81.169800
  H     -2.287020  -15.707900   81.557200
  C     -1.439820  -18.014000   82.952800
  H     -2.453180  -17.704800   83.003100
  H     -1.166650  -18.130700   84.039100
  C     -1.125090  -19.411500   82.231900
  H     -0.039417  -19.602300   82.057200
  H     -1.626600  -20.210900   82.715000
  C     -1.734370  -19.323000   80.815200
  H     -1.989520  -20.302500   80.488600
  H     -2.613130  -18.672600   80.622000
  H     -0.898996  -18.925300   80.173000
  S      0.427672  -13.579900   78.877200
  C     -0.548374  -12.261300   78.292900
  C     -1.756430  -12.097200   78.942800
  C     -1.759800  -12.980900   80.116800
  C     -0.618958  -13.762000   80.257000
  H     -2.477600  -11.308800   78.651100
  C     -3.073730  -13.131000   80.952800
  H     -3.274710  -12.082700   81.244800
  H     -2.686720  -13.552300   81.841700
  C     -4.193630  -13.917800   80.169600
  H     -3.918020  -14.946100   80.065600
  H     -4.355130  -13.427700   79.225300
  C     -5.572130  -13.707100   80.931600
  H     -5.869340  -12.648300   80.930900
  H     -5.437690  -13.845600   81.986200
  H     -6.397710  -14.310500   80.588700
  H      1.391750  -17.500600   82.944800
  H     -0.521969  -11.786900   77.361400

 Total Charge           Charge          ....    0
 Multiplicity           Mult            ....    1
 Number of Electrons    NEL             ....  134
 Basis Dimension        Dim             ....  322

ORBITAL ENERGIES
----------------

  NO   OCC          E(Eh)            E(eV)
   0   2.0000     -88.968877     -2420.9662
   1   2.0000     -88.966102     -2420.8907
   2   2.0000     -10.329539      -281.0810
   3   2.0000     -10.328357      -281.0489
   4   2.0000     -10.313643      -280.6485
   5   2.0000     -10.312056      -280.6053
   6   2.0000     -10.306493      -280.4539
   7   2.0000     -10.300864      -280.3007
   8   2.0000     -10.299503      -280.2637
   9   2.0000     -10.297650      -280.2133
  10   2.0000     -10.294765      -280.1348
  11   2.0000     -10.294354      -280.1236
  12   2.0000     -10.292791      -280.0811
  13   2.0000     -10.288759      -279.9714
  14   2.0000     -10.280296      -279.7411
  15   2.0000     -10.274569      -279.5852
  16   2.0000      -8.083699      -219.9686
  17   2.0000      -8.081514      -219.9092
  18   2.0000      -6.042308      -164.4196
  19   2.0000      -6.039936      -164.3550
  20   2.0000      -6.038339      -164.3116
  21   2.0000      -6.035780      -164.2419
  22   2.0000      -6.034193      -164.1987
  23   2.0000      -6.032468      -164.1518
  24   2.0000      -1.011239       -27.5172
  25   2.0000      -0.986095       -26.8330
  26   2.0000      -0.908171       -24.7126
  27   2.0000      -0.901667       -24.5356
  28   2.0000      -0.867547       -23.6072
  29   2.0000      -0.850236       -23.1361
  30   2.0000      -0.842898       -22.9364
  31   2.0000      -0.817700       -22.2507
  32   2.0000      -0.779213       -21.2035
  33   2.0000      -0.768185       -20.9034
  34   2.0000      -0.712817       -19.3967
  35   2.0000      -0.703799       -19.1513
  36   2.0000      -0.695426       -18.9235
  37   2.0000      -0.662576       -18.0296
  38   2.0000      -0.639689       -17.4068
  39   2.0000      -0.618357       -16.8263
  40   2.0000      -0.583620       -15.8811
  41   2.0000      -0.576552       -15.6888
  42   2.0000      -0.564266       -15.3545
  43   2.0000      -0.549644       -14.9566
  44   2.0000      -0.536879       -14.6092
  45   2.0000      -0.528462       -14.3802
  46   2.0000      -0.515928       -14.0391
  47   2.0000      -0.515470       -14.0266
  48   2.0000      -0.506310       -13.7774
  49   2.0000      -0.499381       -13.5888
  50   2.0000      -0.490372       -13.3437
  51   2.0000      -0.473013       -12.8713
  52   2.0000      -0.470469       -12.8021
  53   2.0000      -0.464742       -12.6463
  54   2.0000      -0.458971       -12.4892
  55   2.0000      -0.451006       -12.2725
  56   2.0000      -0.446687       -12.1550
  57   2.0000      -0.439122       -11.9491
  58   2.0000      -0.437453       -11.9037
  59   2.0000      -0.429237       -11.6801
  60   2.0000      -0.417881       -11.3711
  61   2.0000      -0.413448       -11.2505
  62   2.0000      -0.407322       -11.0838
  63   2.0000      -0.354840        -9.6557
  64   2.0000      -0.331265        -9.0142
  65   2.0000      -0.326332        -8.8799
  66   2.0000      -0.289979        -7.8907
  67   0.0000       0.026919         0.7325
  68   0.0000       0.073249         1.9932
  69   0.0000       0.102149         2.7796
  70   0.0000       0.121084         3.2949
  71   0.0000       0.132748         3.6123

MULLIKEN ATOMIC CHARGES
-----------------------
   0 S :    0.101370
   1 C :   -0.098346
   2 C :   -0.121383
   3 C :    0.038216
   4 C :   -0.143308
   5 H :   -0.011177
   6 C :    0.046157
   7 H :    0.018355
   8 H :    0.036741
   9 C :   -0.054953
  10 H :    0.047279
  11 H :    0.029656
  12 C :   -0.085888
  13 H :    0.024549
  14 H :    0.036559
  15 H :    0.046559
  16 S :    0.110126
  17 C :   -0.047327
  18 C :   -0.067489
  19 C :   -0.116721
  20 C :   -0.095093
  21 H :    0.043714
  22 C :    0.046618
  23 H :    0.029620
  24 H :    0.015404
  25 C :   -0.029347
  26 H :    0.040543
  27 H :    0.034464
  28 C :   -0.047462
  29 H :    0.026682
  30 H :    0.019021
  31 H :    0.041106
  32 H :    0.049892
  33 H :    0.035863
Sum of atomic charges:    0.0000000

LOEWDIN ATOMIC CHARGES
----------------------
   0 S :    0.429673
   1 C :   -0.208673
   2 C :   -0.059361
   3 C :   -0.071598
   4 C :   -0.198612
   5 H :    0.022483
   6 C :   -0.032701
   7 H :    0.023332
   8 H :    0.035595
   9 C :   -0.030425
  10 H :    0.033179
  11 H :    0.016210
  12 C :   -0.073121
  13 H :    0.017002
  14 H :    0.024465
  15 H :    0.033860
  16 S :    0.411393
  17 C :   -0.182097
  18 C :   -0.072322
  19 C :   -0.053715
  20 C :   -0.207826
  21 H :    0.041229
  22 C :   -0.032458
  23 H :    0.034138
  24 H :    0.020112
  25 C :   -0.021752
  26 H :    0.022210
  27 H :    0.026090
  28 C :   -0.067951
  29 H :    0.027773
  30 H :    0.020115
  31 H :    0.023371
  32 H :    0.030007
  33 H :    0.020377

  Mayer bond orders larger than 0.100000
B(  0-S ,  1-C ) :   1.1442 B(  0-S ,  4-C ) :   1.1806 B(  1-C ,  2-C ) :   1.5717
B(  1-C ,  4-C ) :   0.1015 B(  1-C , 32-H ) :   0.9713 B(  2-C ,  3-C ) :   1.2822
B(  2-C ,  6-C ) :   1.0257 B(  3-C ,  4-C ) :   1.5286 B(  3-C ,  5-H ) :   0.9913
B(  4-C , 20-C ) :   1.0209 B(  6-C ,  7-H ) :   0.9515 B(  6-C ,  8-H ) :   0.9414
B(  6-C ,  9-C ) :   1.0552 B(  9-C , 10-H ) :   0.9647 B(  9-C , 11-H ) :   0.9655
B(  9-C , 12-C ) :   1.0507 B( 12-C , 13-H ) :   0.9784 B( 12-C , 14-H ) :   0.9803
B( 12-C , 15-H ) :   0.9806 B( 16-S , 17-C ) :   1.1496 B( 16-S , 20-C ) :   1.1283
B( 17-C , 18-C ) :   1.6456 B( 17-C , 33-H ) :   0.9628 B( 18-C , 19-C ) :   1.2187
B( 18-C , 21-H ) :   0.9824 B( 19-C , 20-C ) :   1.6352 B( 19-C , 22-C ) :   1.0321
B( 22-C , 23-H ) :   0.9407 B( 22-C , 24-H ) :   0.9320 B( 22-C , 25-C ) :   1.0437
B( 25-C , 26-H ) :   0.9584 B( 25-C , 27-H ) :   0.9594 B( 25-C , 28-C ) :   1.0665
B( 28-C , 29-H ) :   0.9769 B( 28-C , 30-H ) :   0.9756 B( 28-C , 31-H ) :   0.9774

Dispersion correction           -0.014749987
FINAL SINGLE POINT ENERGY     -1339.856108662700

DIPOLE MOMENT
-------------
                                X             Y             Z
Electronic contribution:     24.67229      12.33024      -5.36517
Nuclear contribution   :    -25.41616     -12.58614       5.34860
                        -----------------------------------------
Total Dipole Moment    :     -0.74387      -0.25590      -0.01656
                        -----------------------------------------
Magnitude (a.u.)       :      0.78683
Magnitude (Debye)      :      1.99997

Rotational constants in cm-1:     0.017120     0.009751     0.007110
Rotational constants in MHz :   513.238218   292.335887   213.156765

                             ****ORCA TERMINATED NORMALLY****
TOTAL RUN TIME: 0 days 0 hours 0 minutes 34 seconds 376 msec
