                         Program Version 4.2.1 -  RELEASE  -
|  1> ! wB97X-D3 SP def2-SVP
|  2> %pal
|  3> nprocs 16
|  4> end
|  5>
|  6> * xyz 0 1
|  7> S 	 -8.79961 	 9.22099 	 84.8152
|  8> C 	 -7.98211 	 7.74391 	 85.2835
|  9> C 	 -8.8801 	 6.736 	 85.3994
| 10> C 	 -10.1658 	 7.12848 	 85.0541
| 11> C 	 -10.3018 	 8.36546 	 84.523
| 12> H 	 -11.1247 	 6.5379 	 85.0174
| 13> C 	 -8.62495 	 5.35559 	 85.9572
| 14> H 	 -7.8864 	 4.93881 	 85.2682
| 15> H 	 -9.52441 	 4.72924 	 85.8443
| 16> C 	 -8.01975 	 5.22176 	 87.3824
| 17> H 	 -7.12004 	 5.83418 	 87.4921
| 18> H 	 -8.8834 	 5.63206 	 87.9102
| 19> C 	 -7.9452 	 3.65541 	 87.8293
| 20> H 	 -8.85436 	 3.20527 	 87.5004
| 21> H 	 -7.19715 	 3.01139 	 87.4156
| 22> H 	 -7.92159 	 3.54057 	 88.8752
| 23> S 	 -12.1829 	 10.3882 	 85.1234
| 24> C 	 -13.6322 	 10.4679 	 84.1444
| 25> C 	 -13.6135 	 9.44808 	 83.216
| 26> C 	 -12.4675 	 8.62129 	 83.268
| 27> C 	 -11.5222 	 9.07363 	 84.1649
| 28> H 	 -14.4211 	 9.31135 	 82.5026
| 29> C 	 -12.3448 	 7.36705 	 82.4185
| 30> H 	 -12.921 	 6.54884 	 82.9134
| 31> H 	 -11.3222 	 7.12724 	 82.2197
| 32> C 	 -12.9726 	 7.44076 	 81.0084
| 33> H 	 -14.0169 	 7.55422 	 81.0951
| 34> H 	 -12.8851 	 6.5073 	 80.525
| 35> C 	 -12.3563 	 8.52004 	 80.0436
| 36> H 	 -11.608 	 7.96479 	 79.5072
| 37> H 	 -11.8577 	 9.32609 	 80.6764
| 38> H 	 -13.1068 	 8.94132 	 79.3389
| 39> H 	 -6.98124 	 7.58835 	 85.4914
| 40> H 	 -14.3153 	 11.4021 	 84.1419
| 41> *
| 42>
| 43>                          ****END OF INPUT****

CARTESIAN COORDINATES (ANGSTROEM)
---------------------------------
  S     -8.799610    9.220990   84.815200
  C     -7.982110    7.743910   85.283500
  C     -8.880100    6.736000   85.399400
  C    -10.165800    7.128480   85.054100
  C    -10.301800    8.365460   84.523000
  H    -11.124700    6.537900   85.017400
  C     -8.624950    5.355590   85.957200
  H     -7.886400    4.938810   85.268200
  H     -9.524410    4.729240   85.844300
  C     -8.019750    5.221760   87.382400
  H     -7.120040    5.834180   87.492100
  H     -8.883400    5.632060   87.910200
  C     -7.945200    3.655410   87.829300
  H     -8.854360    3.205270   87.500400
  H     -7.197150    3.011390   87.415600
  H     -7.921590    3.540570   88.875200
  S    -12.182900   10.388200   85.123400
  C    -13.632200   10.467900   84.144400
  C    -13.613500    9.448080   83.216000
  C    -12.467500    8.621290   83.268000
  C    -11.522200    9.073630   84.164900
  H    -14.421100    9.311350   82.502600
  C    -12.344800    7.367050   82.418500
  H    -12.921000    6.548840   82.913400
  H    -11.322200    7.127240   82.219700
  C    -12.972600    7.440760   81.008400
  H    -14.016900    7.554220   81.095100
  H    -12.885100    6.507300   80.525000
  C    -12.356300    8.520040   80.043600
  H    -11.608000    7.964790   79.507200
  H    -11.857700    9.326090   80.676400
  H    -13.106800    8.941320   79.338900
  H     -6.981240    7.588350   85.491400
  H    -14.315300   11.402100   84.141900

 Total Charge           Charge          ....    0
 Multiplicity           Mult            ....    1
 Number of Electrons    NEL             ....  134
 Basis Dimension        Dim             ....  322

ORBITAL ENERGIES
----------------

  NO   OCC          E(Eh)            E(eV)
   0   2.0000     -88.965393     -2420.8714
   1   2.0000     -88.963508     -2420.8201
   2   2.0000     -10.325347      -280.9670
   3   2.0000     -10.325220      -280.9635
   4   2.0000     -10.323238      -280.9096
   5   2.0000     -10.308124      -280.4983
   6   2.0000     -10.300377      -280.2875
   7   2.0000     -10.298040      -280.2239
   8   2.0000     -10.294160      -280.1183
   9   2.0000     -10.293553      -280.1018
  10   2.0000     -10.293063      -280.0885
  11   2.0000     -10.292022      -280.0602
  12   2.0000     -10.290210      -280.0108
  13   2.0000     -10.280943      -279.7587
  14   2.0000     -10.279202      -279.7113
  15   2.0000     -10.278313      -279.6871
  16   2.0000      -8.080070      -219.8699
  17   2.0000      -8.078298      -219.8217
  18   2.0000      -6.038651      -164.3200
  19   2.0000      -6.036821      -164.2702
  20   2.0000      -6.034534      -164.2080
  21   2.0000      -6.032823      -164.1614
  22   2.0000      -6.030792      -164.1062
  23   2.0000      -6.029015      -164.0578
  24   2.0000      -1.012951       -27.5638
  25   2.0000      -0.990564       -26.9546
  26   2.0000      -0.908016       -24.7084
  27   2.0000      -0.907216       -24.6866
  28   2.0000      -0.870529       -23.6883
  29   2.0000      -0.848129       -23.0788
  30   2.0000      -0.841708       -22.9040
  31   2.0000      -0.815622       -22.1942
  32   2.0000      -0.784240       -21.3403
  33   2.0000      -0.774673       -21.0799
  34   2.0000      -0.711888       -19.3715
  35   2.0000      -0.705907       -19.2087
  36   2.0000      -0.695679       -18.9304
  37   2.0000      -0.654628       -17.8133
  38   2.0000      -0.645061       -17.5530
  39   2.0000      -0.613589       -16.6966
  40   2.0000      -0.597557       -16.2603
  41   2.0000      -0.574309       -15.6277
  42   2.0000      -0.559197       -15.2165
  43   2.0000      -0.556905       -15.1541
  44   2.0000      -0.537427       -14.6241
  45   2.0000      -0.520716       -14.1694
  46   2.0000      -0.519378       -14.1330
  47   2.0000      -0.511588       -13.9210
  48   2.0000      -0.506098       -13.7716
  49   2.0000      -0.500409       -13.6168
  50   2.0000      -0.487395       -13.2627
  51   2.0000      -0.482176       -13.1207
  52   2.0000      -0.468052       -12.7363
  53   2.0000      -0.465506       -12.6671
  54   2.0000      -0.462702       -12.5908
  55   2.0000      -0.446395       -12.1470
  56   2.0000      -0.443302       -12.0629
  57   2.0000      -0.440079       -11.9752
  58   2.0000      -0.427877       -11.6431
  59   2.0000      -0.424044       -11.5388
  60   2.0000      -0.418448       -11.3865
  61   2.0000      -0.417232       -11.3535
  62   2.0000      -0.414013       -11.2659
  63   2.0000      -0.346576        -9.4308
  64   2.0000      -0.330818        -9.0020
  65   2.0000      -0.329389        -8.9631
  66   2.0000      -0.298530        -8.1234
  67   0.0000       0.029000         0.7891
  68   0.0000       0.066556         1.8111
  69   0.0000       0.117649         3.2014
  70   0.0000       0.120967         3.2917
  71   0.0000       0.138406         3.7662

MULLIKEN ATOMIC CHARGES
-----------------------
   0 S :    0.101559
   1 C :   -0.082675
   2 C :   -0.063349
   3 C :    0.011353
   4 C :   -0.195175
   5 H :    0.030143
   6 C :    0.042039
   7 H :    0.028033
   8 H :    0.022570
   9 C :   -0.074566
  10 H :    0.043685
  11 H :    0.038137
  12 C :   -0.023402
  13 H :    0.011137
  14 H :    0.031687
  15 H :    0.029362
  16 S :    0.107242
  17 C :   -0.130841
  18 C :   -0.026750
  19 C :   -0.066925
  20 C :   -0.126564
  21 H :    0.019241
  22 C :    0.074130
  23 H :    0.049975
  24 H :    0.034628
  25 C :   -0.075540
  26 H :    0.008665
  27 H :    0.015240
  28 C :   -0.077425
  29 H :    0.031990
  30 H :    0.058190
  31 H :    0.045456
  32 H :    0.011184
  33 H :    0.097564
Sum of atomic charges:    0.0000000

LOEWDIN ATOMIC CHARGES
----------------------
   0 S :    0.403231
   1 C :   -0.177287
   2 C :   -0.072029
   3 C :   -0.065208
   4 C :   -0.195044
   5 H :    0.041675
   6 C :   -0.037182
   7 H :    0.029772
   8 H :    0.029344
   9 C :   -0.031582
  10 H :    0.023699
  11 H :    0.030210
  12 C :   -0.059471
  13 H :    0.022730
  14 H :    0.022959
  15 H :    0.021315
  16 S :    0.403065
  17 C :   -0.200076
  18 C :   -0.073122
  19 C :   -0.062530
  20 C :   -0.202503
  21 H :    0.031546
  22 C :   -0.027319
  23 H :    0.041401
  24 H :    0.028548
  25 C :   -0.041605
  26 H :    0.009087
  27 H :    0.019293
  28 C :   -0.071240
  29 H :    0.023011
  30 H :    0.036163
  31 H :    0.030940
  32 H :    0.015680
  33 H :    0.052529

  Mayer bond orders larger than 0.100000
B(  0-S ,  1-C ) :   1.1433 B(  0-S ,  4-C ) :   1.1415 B(  1-C ,  2-C ) :   1.6005
B(  1-C ,  4-C ) :   0.1010 B(  1-C , 32-H ) :   0.9808 B(  2-C ,  3-C ) :   1.2535
B(  2-C ,  6-C ) :   1.0130 B(  3-C ,  4-C ) :   1.5868 B(  3-C ,  5-H ) :   0.9821
B(  4-C , 20-C ) :   1.0285 B(  6-C ,  7-H ) :   0.9299 B(  6-C ,  8-H ) :   0.9479
B(  6-C ,  9-C ) :   1.0511 B(  9-C , 10-H ) :   0.9610 B(  9-C , 11-H ) :   0.9610
B(  9-C , 12-C ) :   1.0602 B( 12-C , 13-H ) :   0.9730 B( 12-C , 14-H ) :   0.9805
B( 12-C , 15-H ) :   0.9795 B( 16-S , 17-C ) :   1.1579 B( 16-S , 20-C ) :   1.1458
B( 17-C , 18-C ) :   1.5877 B( 17-C , 33-H ) :   0.9524 B( 18-C , 19-C ) :   1.2602
B( 18-C , 21-H ) :   0.9904 B( 19-C , 20-C ) :   1.5913 B( 19-C , 22-C ) :   1.0437
B( 22-C , 23-H ) :   0.9259 B( 22-C , 24-H ) :   0.9369 B( 22-C , 25-C ) :   1.0853
B( 25-C , 26-H ) :   0.9525 B( 25-C , 27-H ) :   0.9571 B( 25-C , 28-C ) :   1.0524
B( 28-C , 29-H ) :   0.9811 B( 28-C , 30-H ) :   0.9800 B( 28-C , 31-H ) :   0.9773

Dispersion correction           -0.013966770
FINAL SINGLE POINT ENERGY     -1339.859788836296

DIPOLE MOMENT
-------------
                                X             Y             Z
Electronic contribution:     -0.70274      22.80390       5.56934
Nuclear contribution   :      0.48690     -23.49841      -5.70353
                        -----------------------------------------
Total Dipole Moment    :     -0.21584      -0.69451      -0.13418
                        -----------------------------------------
Magnitude (a.u.)       :      0.73955
Magnitude (Debye)      :      1.87979

Rotational constants in cm-1:     0.021245     0.007157     0.006348
Rotational constants in MHz :   636.914007   214.560564   190.298630

                             ****ORCA TERMINATED NORMALLY****
TOTAL RUN TIME: 0 days 0 hours 0 minutes 34 seconds 417 msec
