                         Program Version 4.2.1 -  RELEASE  -
|  1> ! wB97X-D3 SP def2-SVP
|  2> %pal
|  3> nprocs 16
|  4> end
|  5>
|  6> * xyz 0 1
|  7> S 	 -41.0737 	 38.0492 	 76.0376
|  8> C 	 -41.6448 	 38.4529 	 77.6522
|  9> C 	 -40.8015 	 37.8938 	 78.5502
| 10> C 	 -39.7718 	 37.0338 	 78.016
| 11> C 	 -39.7652 	 37.0037 	 76.6443
| 12> H 	 -39.0968 	 36.4385 	 78.5961
| 13> C 	 -40.9824 	 38.032 	 80.0513
| 14> H 	 -41.9083 	 38.5613 	 80.2047
| 15> H 	 -40.2364 	 38.7486 	 80.4573
| 16> C 	 -40.9498 	 36.7341 	 80.9348
| 17> H 	 -41.4457 	 35.8284 	 80.5081
| 18> H 	 -39.8965 	 36.4532 	 80.9613
| 19> C 	 -41.4484 	 37.0375 	 82.3691
| 20> H 	 -41.7889 	 36.0992 	 82.823
| 21> H 	 -40.6934 	 37.5696 	 82.9769
| 22> H 	 -42.2704 	 37.6894 	 82.2917
| 23> S 	 -37.7201 	 37.6643 	 74.9499
| 24> C 	 -36.7923 	 36.3993 	 74.2686
| 25> C 	 -37.1927 	 35.0958 	 74.7099
| 26> C 	 -38.2907 	 35.1701 	 75.5802
| 27> C 	 -38.7662 	 36.4594 	 75.7822
| 28> H 	 -36.6751 	 34.1711 	 74.3725
| 29> C 	 -38.7983 	 33.844 	 76.2097
| 30> H 	 -38.6604 	 34.0862 	 77.2746
| 31> H 	 -38.2055 	 32.9046 	 76.0595
| 32> C 	 -40.2759 	 33.5398 	 75.9059
| 33> H 	 -40.9982 	 34.268 	 76.4614
| 34> H 	 -40.5391 	 32.5266 	 76.2732
| 35> C 	 -40.5779 	 33.5492 	 74.3695
| 36> H 	 -39.7999 	 33.132 	 73.7345
| 37> H 	 -40.539 	 34.5781 	 74.0718
| 38> H 	 -41.5599 	 33.1551 	 74.0708
| 39> H 	 -42.4728 	 39.1475 	 77.9438
| 40> H 	 -36.0383 	 36.5481 	 73.5768
| 41> *
| 42>
| 43>                          ****END OF INPUT****

CARTESIAN COORDINATES (ANGSTROEM)
---------------------------------
  S    -41.073700   38.049200   76.037600
  C    -41.644800   38.452900   77.652200
  C    -40.801500   37.893800   78.550200
  C    -39.771800   37.033800   78.016000
  C    -39.765200   37.003700   76.644300
  H    -39.096800   36.438500   78.596100
  C    -40.982400   38.032000   80.051300
  H    -41.908300   38.561300   80.204700
  H    -40.236400   38.748600   80.457300
  C    -40.949800   36.734100   80.934800
  H    -41.445700   35.828400   80.508100
  H    -39.896500   36.453200   80.961300
  C    -41.448400   37.037500   82.369100
  H    -41.788900   36.099200   82.823000
  H    -40.693400   37.569600   82.976900
  H    -42.270400   37.689400   82.291700
  S    -37.720100   37.664300   74.949900
  C    -36.792300   36.399300   74.268600
  C    -37.192700   35.095800   74.709900
  C    -38.290700   35.170100   75.580200
  C    -38.766200   36.459400   75.782200
  H    -36.675100   34.171100   74.372500
  C    -38.798300   33.844000   76.209700
  H    -38.660400   34.086200   77.274600
  H    -38.205500   32.904600   76.059500
  C    -40.275900   33.539800   75.905900
  H    -40.998200   34.268000   76.461400
  H    -40.539100   32.526600   76.273200
  C    -40.577900   33.549200   74.369500
  H    -39.799900   33.132000   73.734500
  H    -40.539000   34.578100   74.071800
  H    -41.559900   33.155100   74.070800
  H    -42.472800   39.147500   77.943800
  H    -36.038300   36.548100   73.576800

 Total Charge           Charge          ....    0
 Multiplicity           Mult            ....    1
 Number of Electrons    NEL             ....  134
 Basis Dimension        Dim             ....  322

ORBITAL ENERGIES
----------------

  NO   OCC          E(Eh)            E(eV)
   0   2.0000     -88.970854     -2421.0200
   1   2.0000     -88.962237     -2420.7855
   2   2.0000     -10.329609      -281.0830
   3   2.0000     -10.326775      -281.0058
   4   2.0000     -10.316155      -280.7169
   5   2.0000     -10.316080      -280.7148
   6   2.0000     -10.308057      -280.4965
   7   2.0000     -10.300143      -280.2812
   8   2.0000     -10.297867      -280.2192
   9   2.0000     -10.297720      -280.2152
  10   2.0000     -10.294045      -280.1152
  11   2.0000     -10.293715      -280.1062
  12   2.0000     -10.292550      -280.0745
  13   2.0000     -10.292405      -280.0706
  14   2.0000     -10.279438      -279.7177
  15   2.0000     -10.269358      -279.4434
  16   2.0000      -8.085258      -220.0111
  17   2.0000      -8.076502      -219.7728
  18   2.0000      -6.043547      -164.4533
  19   2.0000      -6.039789      -164.3510
  20   2.0000      -6.036282      -164.2556
  21   2.0000      -6.035152      -164.2248
  22   2.0000      -6.031034      -164.1128
  23   2.0000      -6.027156      -164.0072
  24   2.0000      -1.005339       -27.3567
  25   2.0000      -0.982388       -26.7321
  26   2.0000      -0.905692       -24.6451
  27   2.0000      -0.902550       -24.5596
  28   2.0000      -0.871751       -23.7215
  29   2.0000      -0.846769       -23.0417
  30   2.0000      -0.842254       -22.9189
  31   2.0000      -0.810416       -22.0525
  32   2.0000      -0.782454       -21.2917
  33   2.0000      -0.768435       -20.9102
  34   2.0000      -0.713956       -19.4277
  35   2.0000      -0.696530       -18.9536
  36   2.0000      -0.684511       -18.6265
  37   2.0000      -0.665126       -18.0990
  38   2.0000      -0.640770       -17.4362
  39   2.0000      -0.618156       -16.8209
  40   2.0000      -0.589597       -16.0438
  41   2.0000      -0.567793       -15.4504
  42   2.0000      -0.555768       -15.1232
  43   2.0000      -0.548004       -14.9120
  44   2.0000      -0.542652       -14.7663
  45   2.0000      -0.525868       -14.3096
  46   2.0000      -0.513459       -13.9719
  47   2.0000      -0.510708       -13.8971
  48   2.0000      -0.503666       -13.7055
  49   2.0000      -0.493008       -13.4154
  50   2.0000      -0.487849       -13.2750
  51   2.0000      -0.473276       -12.8785
  52   2.0000      -0.472380       -12.8541
  53   2.0000      -0.467559       -12.7229
  54   2.0000      -0.461834       -12.5671
  55   2.0000      -0.448357       -12.2004
  56   2.0000      -0.441181       -12.0051
  57   2.0000      -0.438476       -11.9315
  58   2.0000      -0.435571       -11.8525
  59   2.0000      -0.420782       -11.4501
  60   2.0000      -0.413353       -11.2479
  61   2.0000      -0.410573       -11.1722
  62   2.0000      -0.407637       -11.0924
  63   2.0000      -0.340452        -9.2642
  64   2.0000      -0.337345        -9.1796
  65   2.0000      -0.323747        -8.8096
  66   2.0000      -0.296580        -8.0704
  67   0.0000       0.030554         0.8314
  68   0.0000       0.058298         1.5864
  69   0.0000       0.111891         3.0447
  70   0.0000       0.127149         3.4599
  71   0.0000       0.129870         3.5340

MULLIKEN ATOMIC CHARGES
-----------------------
   0 S :    0.092375
   1 C :   -0.129096
   2 C :   -0.082814
   3 C :    0.059390
   4 C :   -0.171082
   5 H :    0.006367
   6 C :    0.046607
   7 H :   -0.000667
   8 H :    0.041546
   9 C :   -0.105935
  10 H :    0.043389
  11 H :    0.030445
  12 C :   -0.028344
  13 H :    0.040556
  14 H :    0.039405
  15 H :    0.016111
  16 S :    0.133135
  17 C :   -0.070231
  18 C :   -0.066616
  19 C :   -0.014027
  20 C :   -0.175431
  21 H :    0.034486
  22 C :    0.061539
  23 H :    0.034274
  24 H :    0.039585
  25 C :   -0.109713
  26 H :    0.057987
  27 H :    0.031088
  28 C :   -0.045208
  29 H :    0.021174
  30 H :    0.028884
  31 H :    0.039711
  32 H :    0.067872
  33 H :    0.033238
Sum of atomic charges:    0.0000000

LOEWDIN ATOMIC CHARGES
----------------------
   0 S :    0.381172
   1 C :   -0.200734
   2 C :   -0.069277
   3 C :   -0.053739
   4 C :   -0.187269
   5 H :    0.027864
   6 C :   -0.036195
   7 H :    0.019467
   8 H :    0.036936
   9 C :   -0.044411
  10 H :    0.028792
  11 H :    0.020777
  12 C :   -0.061046
  13 H :    0.030982
  14 H :    0.030367
  15 H :    0.016199
  16 S :    0.424706
  17 C :   -0.182391
  18 C :   -0.078673
  19 C :   -0.047402
  20 C :   -0.201608
  21 H :    0.038434
  22 C :   -0.034519
  23 H :    0.035473
  24 H :    0.037736
  25 C :   -0.048140
  26 H :    0.036378
  27 H :    0.021726
  28 C :   -0.072720
  29 H :    0.022877
  30 H :    0.024020
  31 H :    0.027386
  32 H :    0.045074
  33 H :    0.011759

  Mayer bond orders larger than 0.100000
B(  0-S ,  1-C ) :   1.1114 B(  0-S ,  4-C ) :   1.1357 B(  1-C ,  2-C ) :   1.6553
B(  1-C , 32-H ) :   0.9581 B(  2-C ,  3-C ) :   1.2091 B(  2-C ,  6-C ) :   1.0281
B(  3-C ,  4-C ) :   1.5932 B(  3-C ,  5-H ) :   0.9979 B(  4-C , 20-C ) :   1.0509
B(  6-C ,  7-H ) :   0.9463 B(  6-C ,  8-H ) :   0.9332 B(  6-C ,  9-C ) :   1.0477
B(  9-C , 10-H ) :   0.9664 B(  9-C , 11-H ) :   0.9505 B(  9-C , 12-C ) :   1.0770
B( 12-C , 13-H ) :   0.9756 B( 12-C , 14-H ) :   0.9752 B( 12-C , 15-H ) :   0.9788
B( 16-S , 17-C ) :   1.1958 B( 16-S , 20-C ) :   1.1394 B( 17-C , 18-C ) :   1.5514
B( 17-C , 20-C ) :   0.1181 B( 17-C , 33-H ) :   0.9769 B( 18-C , 19-C ) :   1.2776
B( 18-C , 21-H ) :   0.9875 B( 19-C , 20-C ) :   1.5766 B( 19-C , 22-C ) :   1.0068
B( 22-C , 23-H ) :   0.9331 B( 22-C , 24-H ) :   0.9495 B( 22-C , 25-C ) :   1.0723
B( 25-C , 26-H ) :   0.9539 B( 25-C , 27-H ) :   0.9612 B( 25-C , 28-C ) :   1.0599
B( 28-C , 29-H ) :   0.9767 B( 28-C , 30-H ) :   0.9687 B( 28-C , 31-H ) :   0.9774

Dispersion correction           -0.014944639
FINAL SINGLE POINT ENERGY     -1339.875699958953

DIPOLE MOMENT
-------------
                                X             Y             Z
Electronic contribution:      8.41056      14.91174     -18.10711
Nuclear contribution   :     -8.27445     -15.22589      18.62056
                        -----------------------------------------
Total Dipole Moment    :      0.13611      -0.31415       0.51345
                        -----------------------------------------
Magnitude (a.u.)       :      0.61713
Magnitude (Debye)      :      1.56862

Rotational constants in cm-1:     0.019904     0.008120     0.007244
Rotational constants in MHz :   596.704702   243.440970   217.183261

                             ****ORCA TERMINATED NORMALLY****
TOTAL RUN TIME: 0 days 0 hours 0 minutes 29 seconds 180 msec
