                         Program Version 4.2.1 -  RELEASE  -
|  1> ! wB97X-D3 SP def2-SVP
|  2> %pal
|  3> nprocs 16
|  4> end
|  5>
|  6> * xyz 0 1
|  7> S 	 -29.553 	 69.966 	 158.688
|  8> C 	 -28.1192 	 70.8195 	 159.215
|  9> C 	 -28.333 	 72.1929 	 159.104
| 10> C 	 -29.6505 	 72.5385 	 158.623
| 11> C 	 -30.3868 	 71.4767 	 158.265
| 12> H 	 -30.1332 	 73.5594 	 158.588
| 13> C 	 -27.3507 	 73.187 	 159.768
| 14> H 	 -26.4504 	 72.605 	 160.029
| 15> H 	 -27.7874 	 73.5644 	 160.71
| 16> C 	 -26.6297 	 74.2287 	 158.831
| 17> H 	 -26.0318 	 74.8944 	 159.418
| 18> H 	 -25.9149 	 73.7465 	 158.104
| 19> C 	 -27.5163 	 75.2534 	 158.068
| 20> H 	 -26.9639 	 76.0985 	 157.663
| 21> H 	 -28.0503 	 74.8051 	 157.215
| 22> H 	 -28.2462 	 75.7217 	 158.796
| 23> S 	 -32.8084 	 70.449 	 158.931
| 24> C 	 -34.2378 	 70.9725 	 158.086
| 25> C 	 -33.959 	 71.9916 	 157.161
| 26> C 	 -32.5599 	 72.2637 	 157.057
| 27> C 	 -31.7969 	 71.415 	 157.931
| 28> H 	 -34.7724 	 72.4748 	 156.717
| 29> C 	 -31.993 	 73.3465 	 156.163
| 30> H 	 -30.97 	 73.5539 	 156.446
| 31> H 	 -32.4946 	 74.2245 	 156.501
| 32> C 	 -32.0961 	 73.0286 	 154.639
| 33> H 	 -32.0627 	 73.9368 	 154.095
| 34> H 	 -33.0391 	 72.6481 	 154.272
| 35> C 	 -30.9273 	 72.1799 	 154.19
| 36> H 	 -31.1241 	 71.2554 	 154.687
| 37> H 	 -29.9597 	 72.6519 	 154.447
| 38> H 	 -30.8547 	 72.1678 	 153.094
| 39> H 	 -27.252 	 70.2951 	 159.571
| 40> H 	 -35.2166 	 70.758 	 158.359
| 41> *
| 42>
| 43>                          ****END OF INPUT****

CARTESIAN COORDINATES (ANGSTROEM)
---------------------------------
  S    -29.553000   69.966000  158.688000
  C    -28.119200   70.819500  159.215000
  C    -28.333000   72.192900  159.104000
  C    -29.650500   72.538500  158.623000
  C    -30.386800   71.476700  158.265000
  H    -30.133200   73.559400  158.588000
  C    -27.350700   73.187000  159.768000
  H    -26.450400   72.605000  160.029000
  H    -27.787400   73.564400  160.710000
  C    -26.629700   74.228700  158.831000
  H    -26.031800   74.894400  159.418000
  H    -25.914900   73.746500  158.104000
  C    -27.516300   75.253400  158.068000
  H    -26.963900   76.098500  157.663000
  H    -28.050300   74.805100  157.215000
  H    -28.246200   75.721700  158.796000
  S    -32.808400   70.449000  158.931000
  C    -34.237800   70.972500  158.086000
  C    -33.959000   71.991600  157.161000
  C    -32.559900   72.263700  157.057000
  C    -31.796900   71.415000  157.931000
  H    -34.772400   72.474800  156.717000
  C    -31.993000   73.346500  156.163000
  H    -30.970000   73.553900  156.446000
  H    -32.494600   74.224500  156.501000
  C    -32.096100   73.028600  154.639000
  H    -32.062700   73.936800  154.095000
  H    -33.039100   72.648100  154.272000
  C    -30.927300   72.179900  154.190000
  H    -31.124100   71.255400  154.687000
  H    -29.959700   72.651900  154.447000
  H    -30.854700   72.167800  153.094000
  H    -27.252000   70.295100  159.571000
  H    -35.216600   70.758000  158.359000

 Total Charge           Charge          ....    0
 Multiplicity           Mult            ....    1
 Number of Electrons    NEL             ....  134
 Basis Dimension        Dim             ....  322

ORBITAL ENERGIES
----------------

  NO   OCC          E(Eh)            E(eV)
   0   2.0000     -88.968882     -2420.9664
   1   2.0000     -88.961512     -2420.7658
   2   2.0000     -10.326852      -281.0079
   3   2.0000     -10.326389      -280.9953
   4   2.0000     -10.316592      -280.7287
   5   2.0000     -10.312016      -280.6042
   6   2.0000     -10.307488      -280.4810
   7   2.0000     -10.307209      -280.4734
   8   2.0000     -10.300878      -280.3011
   9   2.0000     -10.297455      -280.2080
  10   2.0000     -10.293159      -280.0911
  11   2.0000     -10.292362      -280.0694
  12   2.0000     -10.288981      -279.9774
  13   2.0000     -10.281432      -279.7720
  14   2.0000     -10.278784      -279.6999
  15   2.0000     -10.270230      -279.4672
  16   2.0000      -8.083853      -219.9728
  17   2.0000      -8.076280      -219.7668
  18   2.0000      -6.042238      -164.4176
  19   2.0000      -6.038220      -164.3083
  20   2.0000      -6.034838      -164.2163
  21   2.0000      -6.034807      -164.2154
  22   2.0000      -6.030817      -164.1069
  23   2.0000      -6.026986      -164.0026
  24   2.0000      -1.007413       -27.4131
  25   2.0000      -0.981642       -26.7118
  26   2.0000      -0.909613       -24.7518
  27   2.0000      -0.900382       -24.5006
  28   2.0000      -0.869914       -23.6716
  29   2.0000      -0.853064       -23.2130
  30   2.0000      -0.840369       -22.8676
  31   2.0000      -0.818392       -22.2696
  32   2.0000      -0.782123       -21.2826
  33   2.0000      -0.767167       -20.8757
  34   2.0000      -0.705211       -19.1898
  35   2.0000      -0.698764       -19.0143
  36   2.0000      -0.693729       -18.8773
  37   2.0000      -0.659023       -17.9329
  38   2.0000      -0.643728       -17.5167
  39   2.0000      -0.616510       -16.7761
  40   2.0000      -0.595202       -16.1963
  41   2.0000      -0.567555       -15.4440
  42   2.0000      -0.563561       -15.3353
  43   2.0000      -0.548907       -14.9365
  44   2.0000      -0.534553       -14.5459
  45   2.0000      -0.531625       -14.4663
  46   2.0000      -0.519367       -14.1327
  47   2.0000      -0.510339       -13.8870
  48   2.0000      -0.508028       -13.8241
  49   2.0000      -0.496227       -13.5030
  50   2.0000      -0.487113       -13.2550
  51   2.0000      -0.479726       -13.0540
  52   2.0000      -0.477392       -12.9905
  53   2.0000      -0.460377       -12.5275
  54   2.0000      -0.457736       -12.4556
  55   2.0000      -0.445915       -12.1340
  56   2.0000      -0.436896       -11.8886
  57   2.0000      -0.433500       -11.7961
  58   2.0000      -0.431375       -11.7383
  59   2.0000      -0.427480       -11.6323
  60   2.0000      -0.417346       -11.3566
  61   2.0000      -0.410389       -11.1673
  62   2.0000      -0.408364       -11.1122
  63   2.0000      -0.353952        -9.6315
  64   2.0000      -0.330653        -8.9975
  65   2.0000      -0.327483        -8.9113
  66   2.0000      -0.287921        -7.8347
  67   0.0000       0.028800         0.7837
  68   0.0000       0.071391         1.9427
  69   0.0000       0.107410         2.9228
  70   0.0000       0.122820         3.3421
  71   0.0000       0.126781         3.4499

MULLIKEN ATOMIC CHARGES
-----------------------
   0 S :    0.084366
   1 C :   -0.118172
   2 C :   -0.080769
   3 C :    0.016176
   4 C :   -0.154107
   5 H :    0.047852
   6 C :    0.037523
   7 H :    0.023676
   8 H :    0.055809
   9 C :   -0.076035
  10 H :    0.022823
  11 H :    0.041747
  12 C :   -0.092774
  13 H :    0.032699
  14 H :    0.042712
  15 H :    0.033099
  16 S :    0.124354
  17 C :   -0.071731
  18 C :   -0.024000
  19 C :   -0.067335
  20 C :   -0.136875
  21 H :    0.000088
  22 C :    0.099383
  23 H :    0.001210
  24 H :    0.021966
  25 C :   -0.042937
  26 H :    0.004011
  27 H :    0.022237
  28 C :   -0.037952
  29 H :    0.044825
  30 H :    0.028342
  31 H :    0.031883
  32 H :    0.054725
  33 H :    0.031181
Sum of atomic charges:   -0.0000000

LOEWDIN ATOMIC CHARGES
----------------------
   0 S :    0.383532
   1 C :   -0.188962
   2 C :   -0.065409
   3 C :   -0.072180
   4 C :   -0.183877
   5 H :    0.046162
   6 C :   -0.033366
   7 H :    0.036053
   8 H :    0.036978
   9 C :   -0.044227
  10 H :    0.021278
  11 H :    0.031280
  12 C :   -0.079813
  13 H :    0.024442
  14 H :    0.022011
  15 H :    0.027757
  16 S :    0.434524
  17 C :   -0.183597
  18 C :   -0.059261
  19 C :   -0.051406
  20 C :   -0.218535
  21 H :    0.023253
  22 C :   -0.027620
  23 H :    0.026655
  24 H :    0.030210
  25 C :   -0.037644
  26 H :    0.015653
  27 H :    0.022540
  28 C :   -0.060011
  29 H :    0.027110
  30 H :    0.027312
  31 H :    0.027042
  32 H :    0.027568
  33 H :    0.014547

  Mayer bond orders larger than 0.100000
B(  0-S ,  1-C ) :   1.1334 B(  0-S ,  4-C ) :   1.1355 B(  1-C ,  2-C ) :   1.6187
B(  1-C , 32-H ) :   0.9738 B(  2-C ,  3-C ) :   1.2137 B(  2-C ,  6-C ) :   1.0162
B(  3-C ,  4-C ) :   1.6161 B(  3-C ,  5-H ) :   0.9745 B(  4-C , 20-C ) :   1.0327
B(  6-C ,  7-H ) :   0.9420 B(  6-C ,  8-H ) :   0.9495 B(  6-C ,  9-C ) :   1.0609
B(  9-C , 10-H ) :   0.9570 B(  9-C , 11-H ) :   0.9587 B(  9-C , 12-C ) :   1.0771
B( 12-C , 13-H ) :   0.9746 B( 12-C , 14-H ) :   0.9753 B( 12-C , 15-H ) :   0.9740
B( 16-S , 17-C ) :   1.1678 B( 16-S , 20-C ) :   1.1705 B( 17-C , 18-C ) :   1.5812
B( 17-C , 20-C ) :   0.1024 B( 17-C , 33-H ) :   0.9747 B( 18-C , 19-C ) :   1.2673
B( 18-C , 21-H ) :   1.0003 B( 19-C , 20-C ) :   1.5290 B( 19-C , 22-C ) :   1.0440
B( 22-C , 23-H ) :   0.9301 B( 22-C , 24-H ) :   0.9288 B( 22-C , 25-C ) :   1.0594
B( 25-C , 26-H ) :   0.9489 B( 25-C , 27-H ) :   0.9607 B( 25-C , 28-C ) :   1.0780
B( 28-C , 29-H ) :   0.9803 B( 28-C , 30-H ) :   0.9729 B( 28-C , 31-H ) :   0.9722

Dispersion correction           -0.014759868
FINAL SINGLE POINT ENERGY     -1339.870300815169

DIPOLE MOMENT
-------------
                                X             Y             Z
Electronic contribution:    -11.89819     -21.52472      12.91306
Nuclear contribution   :     11.97042      22.24905     -12.88788
                        -----------------------------------------
Total Dipole Moment    :      0.07223       0.72432       0.02518
                        -----------------------------------------
Magnitude (a.u.)       :      0.72835
Magnitude (Debye)      :      1.85132

Rotational constants in cm-1:     0.017913     0.009541     0.007395
Rotational constants in MHz :   537.026832   286.025159   221.692920

                             ****ORCA TERMINATED NORMALLY****
TOTAL RUN TIME: 0 days 0 hours 0 minutes 33 seconds 783 msec
