                         Program Version 4.2.1 -  RELEASE  -
|  1> ! wB97X-D3 SP def2-SVP
|  2> %pal
|  3> nprocs 16
|  4> end
|  5>
|  6> * xyz 0 1
|  7> S 	 -33.6512 	 58.0423 	 107.86
|  8> C 	 -32.1148 	 57.2227 	 108.115
|  9> C 	 -32.0008 	 56.8052 	 109.389
| 10> C 	 -33.0827 	 57.1985 	 110.205
| 11> C 	 -34.1993 	 57.5867 	 109.467
| 12> H 	 -33.2341 	 56.8941 	 111.233
| 13> C 	 -30.91 	 55.9277 	 109.948
| 14> H 	 -30.7938 	 56.0747 	 110.951
| 15> H 	 -29.9542 	 56.0566 	 109.421
| 16> C 	 -31.2528 	 54.4423 	 109.848
| 17> H 	 -31.9213 	 54.1986 	 110.687
| 18> H 	 -31.7751 	 54.3279 	 108.875
| 19> C 	 -30.1862 	 53.3538 	 109.939
| 20> H 	 -29.5648 	 53.3518 	 110.853
| 21> H 	 -30.7413 	 52.3863 	 109.837
| 22> H 	 -29.4268 	 53.4184 	 109.152
| 23> S 	 -36.354 	 59.1638 	 110.072
| 24> C 	 -37.8414 	 58.439 	 110.542
| 25> C 	 -37.7048 	 57.0605 	 110.624
| 26> C 	 -36.3473 	 56.6415 	 110.329
| 27> C 	 -35.5707 	 57.6476 	 109.836
| 28> H 	 -38.4462 	 56.4561 	 111.06
| 29> C 	 -35.9364 	 55.2393 	 110.193
| 30> H 	 -34.9891 	 55.12 	 110.669
| 31> H 	 -35.7771 	 55.1184 	 109.119
| 32> C 	 -36.9629 	 54.1918 	 110.689
| 33> H 	 -37.8115 	 54.1462 	 110.026
| 34> H 	 -37.2363 	 54.4634 	 111.724
| 35> C 	 -36.4027 	 52.7636 	 110.729
| 36> H 	 -37.2422 	 52.1859 	 111.12
| 37> H 	 -35.6181 	 52.5485 	 111.436
| 38> H 	 -36.0282 	 52.4694 	 109.763
| 39> H 	 -31.413 	 57.111 	 107.307
| 40> H 	 -38.7097 	 58.9491 	 110.813
| 41> *
| 42>
| 43>                          ****END OF INPUT****

CARTESIAN COORDINATES (ANGSTROEM)
---------------------------------
  S    -33.651200   58.042300  107.860000
  C    -32.114800   57.222700  108.115000
  C    -32.000800   56.805200  109.389000
  C    -33.082700   57.198500  110.205000
  C    -34.199300   57.586700  109.467000
  H    -33.234100   56.894100  111.233000
  C    -30.910000   55.927700  109.948000
  H    -30.793800   56.074700  110.951000
  H    -29.954200   56.056600  109.421000
  C    -31.252800   54.442300  109.848000
  H    -31.921300   54.198600  110.687000
  H    -31.775100   54.327900  108.875000
  C    -30.186200   53.353800  109.939000
  H    -29.564800   53.351800  110.853000
  H    -30.741300   52.386300  109.837000
  H    -29.426800   53.418400  109.152000
  S    -36.354000   59.163800  110.072000
  C    -37.841400   58.439000  110.542000
  C    -37.704800   57.060500  110.624000
  C    -36.347300   56.641500  110.329000
  C    -35.570700   57.647600  109.836000
  H    -38.446200   56.456100  111.060000
  C    -35.936400   55.239300  110.193000
  H    -34.989100   55.120000  110.669000
  H    -35.777100   55.118400  109.119000
  C    -36.962900   54.191800  110.689000
  H    -37.811500   54.146200  110.026000
  H    -37.236300   54.463400  111.724000
  C    -36.402700   52.763600  110.729000
  H    -37.242200   52.185900  111.120000
  H    -35.618100   52.548500  111.436000
  H    -36.028200   52.469400  109.763000
  H    -31.413000   57.111000  107.307000
  H    -38.709700   58.949100  110.813000

 Total Charge           Charge          ....    0
 Multiplicity           Mult            ....    1
 Number of Electrons    NEL             ....  134
 Basis Dimension        Dim             ....  322

ORBITAL ENERGIES
----------------

  NO   OCC          E(Eh)            E(eV)
   0   2.0000     -88.962126     -2420.7825
   1   2.0000     -88.961071     -2420.7538
   2   2.0000     -10.328295      -281.0472
   3   2.0000     -10.313398      -280.6418
   4   2.0000     -10.313064      -280.6327
   5   2.0000     -10.310274      -280.5568
   6   2.0000     -10.297373      -280.2058
   7   2.0000     -10.296503      -280.1821
   8   2.0000     -10.293624      -280.1037
   9   2.0000     -10.290606      -280.0216
  10   2.0000     -10.288147      -279.9547
  11   2.0000     -10.286969      -279.9227
  12   2.0000     -10.284969      -279.8682
  13   2.0000     -10.284309      -279.8503
  14   2.0000     -10.281208      -279.7659
  15   2.0000     -10.275198      -279.6024
  16   2.0000      -8.077989      -219.8132
  17   2.0000      -8.076090      -219.7616
  18   2.0000      -6.036405      -164.2589
  19   2.0000      -6.034527      -164.2078
  20   2.0000      -6.032243      -164.1457
  21   2.0000      -6.030581      -164.1004
  22   2.0000      -6.028875      -164.0540
  23   2.0000      -6.026884      -163.9998
  24   2.0000      -1.013977       -27.5917
  25   2.0000      -0.990397       -26.9501
  26   2.0000      -0.915503       -24.9121
  27   2.0000      -0.913194       -24.8493
  28   2.0000      -0.876189       -23.8423
  29   2.0000      -0.854336       -23.2477
  30   2.0000      -0.846534       -23.0354
  31   2.0000      -0.817241       -22.2383
  32   2.0000      -0.786947       -21.4139
  33   2.0000      -0.773865       -21.0579
  34   2.0000      -0.708618       -19.2825
  35   2.0000      -0.706617       -19.2280
  36   2.0000      -0.691711       -18.8224
  37   2.0000      -0.654630       -17.8134
  38   2.0000      -0.646764       -17.5993
  39   2.0000      -0.620624       -16.8880
  40   2.0000      -0.598742       -16.2926
  41   2.0000      -0.581414       -15.8211
  42   2.0000      -0.576591       -15.6898
  43   2.0000      -0.561766       -15.2864
  44   2.0000      -0.535613       -14.5748
  45   2.0000      -0.525977       -14.3126
  46   2.0000      -0.523643       -14.2490
  47   2.0000      -0.515467       -14.0266
  48   2.0000      -0.508084       -13.8257
  49   2.0000      -0.503525       -13.7016
  50   2.0000      -0.496325       -13.5057
  51   2.0000      -0.480501       -13.0751
  52   2.0000      -0.475575       -12.9411
  53   2.0000      -0.471729       -12.8364
  54   2.0000      -0.460853       -12.5405
  55   2.0000      -0.449931       -12.2432
  56   2.0000      -0.441821       -12.0226
  57   2.0000      -0.434097       -11.8124
  58   2.0000      -0.428931       -11.6718
  59   2.0000      -0.424221       -11.5437
  60   2.0000      -0.420292       -11.4367
  61   2.0000      -0.417420       -11.3586
  62   2.0000      -0.411452       -11.1962
  63   2.0000      -0.336833        -9.1657
  64   2.0000      -0.330054        -8.9812
  65   2.0000      -0.325388        -8.8543
  66   2.0000      -0.299509        -8.1500
  67   0.0000       0.031209         0.8492
  68   0.0000       0.061718         1.6794
  69   0.0000       0.117880         3.2077
  70   0.0000       0.121366         3.3025
  71   0.0000       0.131321         3.5734

MULLIKEN ATOMIC CHARGES
-----------------------
   0 S :    0.099838
   1 C :   -0.120021
   2 C :   -0.095826
   3 C :    0.075448
   4 C :   -0.214255
   5 H :    0.016160
   6 C :    0.141776
   7 H :   -0.004397
   8 H :    0.017891
   9 C :   -0.120068
  10 H :    0.028221
  11 H :    0.035687
  12 C :   -0.052520
  13 H :    0.031583
  14 H :    0.046947
  15 H :    0.024835
  16 S :    0.120286
  17 C :   -0.051935
  18 C :   -0.029988
  19 C :   -0.070596
  20 C :   -0.136624
  21 H :    0.007169
  22 C :    0.088276
  23 H :    0.010277
  24 H :    0.043238
  25 C :   -0.100585
  26 H :    0.035655
  27 H :    0.033266
  28 C :   -0.020875
  29 H :    0.031154
  30 H :    0.022598
  31 H :    0.029788
  32 H :    0.043137
  33 H :    0.034462
Sum of atomic charges:    0.0000000

LOEWDIN ATOMIC CHARGES
----------------------
   0 S :    0.392634
   1 C :   -0.186312
   2 C :   -0.064520
   3 C :   -0.055559
   4 C :   -0.182410
   5 H :    0.029505
   6 C :   -0.023179
   7 H :    0.016757
   8 H :    0.030145
   9 C :   -0.045896
  10 H :    0.023267
  11 H :    0.027200
  12 C :   -0.071320
  13 H :    0.024585
  14 H :    0.037142
  15 H :    0.020088
  16 S :    0.432454
  17 C :   -0.177927
  18 C :   -0.070283
  19 C :   -0.051057
  20 C :   -0.227610
  21 H :    0.022869
  22 C :   -0.036273
  23 H :    0.025971
  24 H :    0.041705
  25 C :   -0.037585
  26 H :    0.025015
  27 H :    0.025154
  28 C :   -0.061882
  29 H :    0.030077
  30 H :    0.020331
  31 H :    0.022391
  32 H :    0.025540
  33 H :    0.018981

  Mayer bond orders larger than 0.100000
B(  0-S ,  1-C ) :   1.1233 B(  0-S ,  4-C ) :   1.1549 B(  1-C ,  2-C ) :   1.6234
B(  1-C ,  4-C ) :   0.1014 B(  1-C , 32-H ) :   0.9764 B(  2-C ,  3-C ) :   1.2309
B(  2-C ,  6-C ) :   1.0485 B(  3-C ,  4-C ) :   1.5791 B(  3-C ,  5-H ) :   0.9850
B(  4-C , 20-C ) :   1.0357 B(  6-C ,  7-H ) :   0.9278 B(  6-C ,  8-H ) :   0.9393
B(  6-C ,  9-C ) :   1.0556 B(  9-C , 10-H ) :   0.9558 B(  9-C , 11-H ) :   0.9586
B(  9-C , 12-C ) :   1.0869 B( 12-C , 13-H ) :   0.9738 B( 12-C , 14-H ) :   0.9727
B( 12-C , 15-H ) :   0.9733 B( 16-S , 17-C ) :   1.1783 B( 16-S , 20-C ) :   1.1456
B( 17-C , 18-C ) :   1.5753 B( 17-C , 33-H ) :   0.9730 B( 18-C , 19-C ) :   1.2539
B( 18-C , 21-H ) :   0.9909 B( 19-C , 20-C ) :   1.5883 B( 19-C , 22-C ) :   1.0591
B( 22-C , 23-H ) :   0.9123 B( 22-C , 24-H ) :   0.9252 B( 22-C , 25-C ) :   1.0934
B( 25-C , 26-H ) :   0.9448 B( 25-C , 27-H ) :   0.9541 B( 25-C , 28-C ) :   1.0892
B( 28-C , 29-H ) :   0.9723 B( 28-C , 30-H ) :   0.9749 B( 28-C , 31-H ) :   0.9735

Dispersion correction           -0.014426681
FINAL SINGLE POINT ENERGY     -1339.868790575292

DIPOLE MOMENT
-------------
                                X             Y             Z
Electronic contribution:     -9.08851      30.82416      -7.79997
Nuclear contribution   :      9.16767     -31.56699       8.15598
                        -----------------------------------------
Total Dipole Moment    :      0.07916      -0.74283       0.35601
                        -----------------------------------------
Magnitude (a.u.)       :      0.82753
Magnitude (Debye)      :      2.10342

Rotational constants in cm-1:     0.016947     0.009740     0.006740
Rotational constants in MHz :   508.045897   291.986658   202.047122

                             ****ORCA TERMINATED NORMALLY****
TOTAL RUN TIME: 0 days 0 hours 0 minutes 30 seconds 935 msec
