                         Program Version 4.2.1 -  RELEASE  -
|  1> ! wB97X-D3 SP def2-SVP
|  2> %pal
|  3> nprocs 16
|  4> end
|  5>
|  6> * xyz 0 1
|  7> S 	 -35.7252 	 4.27521 	 99.7101
|  8> C 	 -36.1854 	 2.58623 	 99.3765
|  9> C 	 -35.1812 	 1.66873 	 99.7125
| 10> C 	 -34.0834 	 2.35736 	 100.305
| 11> C 	 -34.1959 	 3.70505 	 100.443
| 12> H 	 -33.2174 	 1.9087 	 100.662
| 13> C 	 -35.2011 	 0.156497 	 99.7283
| 14> H 	 -34.4167 	 -0.155398 	 99.0494
| 15> H 	 -36.1121 	 -0.159354 	 99.2615
| 16> C 	 -34.8864 	 -0.528014 	 101.056
| 17> H 	 -33.7812 	 -0.462858 	 101.31
| 18> H 	 -35.3958 	 -0.0518728 	 101.927
| 19> C 	 -35.3561 	 -1.98481 	 101.234
| 20> H 	 -35.1197 	 -2.58946 	 100.397
| 21> H 	 -34.9399 	 -2.36699 	 102.124
| 22> H 	 -36.4492 	 -2.03537 	 101.257
| 23> S 	 -32.8878 	 5.87652 	 99.7857
| 24> C 	 -31.5927 	 6.45632 	 100.785
| 25> C 	 -31.283 	 5.51046 	 101.695
| 26> C 	 -32.2564 	 4.48751 	 101.866
| 27> C 	 -33.2196 	 4.63891 	 100.909
| 28> H 	 -30.3873 	 5.50677 	 102.273
| 29> C 	 -32.114 	 3.51068 	 102.962
| 30> H 	 -31.5582 	 2.60802 	 102.573
| 31> H 	 -33.0638 	 3.05196 	 103.237
| 32> C 	 -31.3939 	 3.98901 	 104.234
| 33> H 	 -32.0403 	 4.72561 	 104.661
| 34> H 	 -30.3522 	 4.31388 	 104.073
| 35> C 	 -31.4728 	 3.02564 	 105.424
| 36> H 	 -30.9213 	 2.09675 	 105.26
| 37> H 	 -32.51 	 2.76556 	 105.68
| 38> H 	 -31.0372 	 3.43406 	 106.366
| 39> H 	 -37.0716 	 2.34871 	 98.9256
| 40> H 	 -30.9026 	 7.1809 	 100.463
| 41> *
| 42>
| 43>                          ****END OF INPUT****

CARTESIAN COORDINATES (ANGSTROEM)
---------------------------------
  S    -35.725200    4.275210   99.710100
  C    -36.185400    2.586230   99.376500
  C    -35.181200    1.668730   99.712500
  C    -34.083400    2.357360  100.305000
  C    -34.195900    3.705050  100.443000
  H    -33.217400    1.908700  100.662000
  C    -35.201100    0.156497   99.728300
  H    -34.416700   -0.155398   99.049400
  H    -36.112100   -0.159354   99.261500
  C    -34.886400   -0.528014  101.056000
  H    -33.781200   -0.462858  101.310000
  H    -35.395800   -0.051873  101.927000
  C    -35.356100   -1.984810  101.234000
  H    -35.119700   -2.589460  100.397000
  H    -34.939900   -2.366990  102.124000
  H    -36.449200   -2.035370  101.257000
  S    -32.887800    5.876520   99.785700
  C    -31.592700    6.456320  100.785000
  C    -31.283000    5.510460  101.695000
  C    -32.256400    4.487510  101.866000
  C    -33.219600    4.638910  100.909000
  H    -30.387300    5.506770  102.273000
  C    -32.114000    3.510680  102.962000
  H    -31.558200    2.608020  102.573000
  H    -33.063800    3.051960  103.237000
  C    -31.393900    3.989010  104.234000
  H    -32.040300    4.725610  104.661000
  H    -30.352200    4.313880  104.073000
  C    -31.472800    3.025640  105.424000
  H    -30.921300    2.096750  105.260000
  H    -32.510000    2.765560  105.680000
  H    -31.037200    3.434060  106.366000
  H    -37.071600    2.348710   98.925600
  H    -30.902600    7.180900  100.463000

 Total Charge           Charge          ....    0
 Multiplicity           Mult            ....    1
 Number of Electrons    NEL             ....  134
 Basis Dimension        Dim             ....  322

ORBITAL ENERGIES
----------------

  NO   OCC          E(Eh)            E(eV)
   0   2.0000     -88.962743     -2420.7993
   1   2.0000     -88.961114     -2420.7550
   2   2.0000     -10.324053      -280.9318
   3   2.0000     -10.316942      -280.7383
   4   2.0000     -10.311972      -280.6030
   5   2.0000     -10.305128      -280.4168
   6   2.0000     -10.302731      -280.3516
   7   2.0000     -10.296852      -280.1916
   8   2.0000     -10.296385      -280.1789
   9   2.0000     -10.295123      -280.1445
  10   2.0000     -10.293311      -280.0952
  11   2.0000     -10.289586      -279.9939
  12   2.0000     -10.284929      -279.8671
  13   2.0000     -10.283251      -279.8215
  14   2.0000     -10.283137      -279.8184
  15   2.0000     -10.275034      -279.5979
  16   2.0000      -8.077444      -219.7984
  17   2.0000      -8.076558      -219.7743
  18   2.0000      -6.035886      -164.2448
  19   2.0000      -6.035147      -164.2247
  20   2.0000      -6.031884      -164.1359
  21   2.0000      -6.031287      -164.1197
  22   2.0000      -6.027977      -164.0296
  23   2.0000      -6.027202      -164.0085
  24   2.0000      -1.016880       -27.6707
  25   2.0000      -0.982240       -26.7281
  26   2.0000      -0.916842       -24.9485
  27   2.0000      -0.911560       -24.8048
  28   2.0000      -0.874753       -23.8032
  29   2.0000      -0.858410       -23.3585
  30   2.0000      -0.846974       -23.0473
  31   2.0000      -0.818071       -22.2608
  32   2.0000      -0.784994       -21.3608
  33   2.0000      -0.776111       -21.1190
  34   2.0000      -0.709827       -19.3154
  35   2.0000      -0.703577       -19.1453
  36   2.0000      -0.696503       -18.9528
  37   2.0000      -0.662003       -18.0140
  38   2.0000      -0.648159       -17.6373
  39   2.0000      -0.624107       -16.9828
  40   2.0000      -0.607245       -16.5240
  41   2.0000      -0.576428       -15.6854
  42   2.0000      -0.568910       -15.4808
  43   2.0000      -0.557064       -15.1585
  44   2.0000      -0.537513       -14.6265
  45   2.0000      -0.523587       -14.2475
  46   2.0000      -0.517333       -14.0773
  47   2.0000      -0.513944       -13.9851
  48   2.0000      -0.510855       -13.9011
  49   2.0000      -0.497503       -13.5377
  50   2.0000      -0.490083       -13.3358
  51   2.0000      -0.482831       -13.1385
  52   2.0000      -0.471970       -12.8430
  53   2.0000      -0.469766       -12.7830
  54   2.0000      -0.461041       -12.5455
  55   2.0000      -0.454159       -12.3583
  56   2.0000      -0.446310       -12.1447
  57   2.0000      -0.441672       -12.0185
  58   2.0000      -0.431761       -11.7488
  59   2.0000      -0.430847       -11.7239
  60   2.0000      -0.423771       -11.5314
  61   2.0000      -0.412405       -11.2221
  62   2.0000      -0.410895       -11.1810
  63   2.0000      -0.352089        -9.5808
  64   2.0000      -0.328483        -8.9385
  65   2.0000      -0.326176        -8.8757
  66   2.0000      -0.288512        -7.8508
  67   0.0000       0.029569         0.8046
  68   0.0000       0.075493         2.0543
  69   0.0000       0.104093         2.8325
  70   0.0000       0.118794         3.2325
  71   0.0000       0.132577         3.6076

MULLIKEN ATOMIC CHARGES
-----------------------
   0 S :    0.088167
   1 C :   -0.091338
   2 C :   -0.073830
   3 C :    0.035656
   4 C :   -0.154199
   5 H :   -0.028889
   6 C :    0.126391
   7 H :    0.032630
   8 H :    0.006921
   9 C :   -0.138114
  10 H :    0.039266
  11 H :    0.039462
  12 C :   -0.012533
  13 H :    0.016075
  14 H :    0.030728
  15 H :    0.028964
  16 S :    0.100499
  17 C :   -0.044171
  18 C :   -0.044539
  19 C :   -0.036294
  20 C :   -0.113254
  21 H :    0.003463
  22 C :    0.049738
  23 H :    0.038445
  24 H :    0.020880
  25 C :   -0.078207
  26 H :    0.034666
  27 H :    0.048175
  28 C :   -0.067230
  29 H :    0.023197
  30 H :    0.031384
  31 H :    0.038381
  32 H :    0.009137
  33 H :    0.040371
Sum of atomic charges:    0.0000000

LOEWDIN ATOMIC CHARGES
----------------------
   0 S :    0.366685
   1 C :   -0.169351
   2 C :   -0.053973
   3 C :   -0.055546
   4 C :   -0.177154
   5 H :    0.017501
   6 C :   -0.032243
   7 H :    0.038110
   8 H :    0.025901
   9 C :   -0.048471
  10 H :    0.027745
  11 H :    0.029301
  12 C :   -0.055630
  13 H :    0.016485
  14 H :    0.023584
  15 H :    0.026917
  16 S :    0.430998
  17 C :   -0.186019
  18 C :   -0.057636
  19 C :   -0.062445
  20 C :   -0.207383
  21 H :    0.024295
  22 C :   -0.038865
  23 H :    0.036492
  24 H :    0.033210
  25 C :   -0.042952
  26 H :    0.030452
  27 H :    0.026827
  28 C :   -0.067678
  29 H :    0.017777
  30 H :    0.025583
  31 H :    0.031571
  32 H :    0.005405
  33 H :    0.020507

  Mayer bond orders larger than 0.100000
B(  0-S ,  1-C ) :   1.1281 B(  0-S ,  4-C ) :   1.1190 B(  1-C ,  2-C ) :   1.6203
B(  1-C , 32-H ) :   0.9780 B(  2-C ,  3-C ) :   1.2092 B(  2-C ,  6-C ) :   1.0361
B(  3-C ,  4-C ) :   1.6159 B(  3-C ,  5-H ) :   1.0000 B(  4-C , 20-C ) :   1.0363
B(  6-C ,  7-H ) :   0.9207 B(  6-C ,  8-H ) :   0.9431 B(  6-C ,  9-C ) :   1.0535
B(  9-C , 10-H ) :   0.9494 B(  9-C , 11-H ) :   0.9629 B(  9-C , 12-C ) :   1.0870
B( 12-C , 13-H ) :   0.9750 B( 12-C , 14-H ) :   0.9743 B( 12-C , 15-H ) :   0.9751
B( 16-S , 17-C ) :   1.1372 B( 16-S , 20-C ) :   1.1695 B( 17-C , 18-C ) :   1.6160
B( 17-C , 33-H ) :   0.9709 B( 18-C , 19-C ) :   1.2523 B( 18-C , 21-H ) :   0.9861
B( 19-C , 20-C ) :   1.5892 B( 19-C , 22-C ) :   1.0556 B( 22-C , 23-H ) :   0.9122
B( 22-C , 24-H ) :   0.9338 B( 22-C , 25-C ) :   1.0711 B( 25-C , 26-H ) :   0.9569
B( 25-C , 27-H ) :   0.9462 B( 25-C , 28-C ) :   1.0854 B( 28-C , 29-H ) :   0.9737
B( 28-C , 30-H ) :   0.9743 B( 28-C , 31-H ) :   0.9740

Dispersion correction           -0.013502189
FINAL SINGLE POINT ENERGY     -1339.866916358673

DIPOLE MOMENT
-------------
                                X             Y             Z
Electronic contribution:     -5.87483      25.43955     -19.20221
Nuclear contribution   :      6.29646     -26.15711      19.55642
                        -----------------------------------------
Total Dipole Moment    :      0.42163      -0.71756       0.35421
                        -----------------------------------------
Magnitude (a.u.)       :      0.90451
Magnitude (Debye)      :      2.29907

Rotational constants in cm-1:     0.015699     0.009398     0.006319
Rotational constants in MHz :   470.632917   281.732501   189.427117

                             ****ORCA TERMINATED NORMALLY****
TOTAL RUN TIME: 0 days 0 hours 0 minutes 28 seconds 533 msec
