                         Program Version 4.2.1 -  RELEASE  -
|  1> ! wB97X-D3 SP def2-SVP
|  2> %pal
|  3> nprocs 16
|  4> end
|  5>
|  6> * xyz 0 1
|  7> S 	 -45.7244 	 56.5824 	 101.704
|  8> C 	 -46.5617 	 55.9796 	 100.313
|  9> C 	 -46.368 	 54.6727 	 100.057
| 10> C 	 -45.3091 	 54.1368 	 100.81
| 11> C 	 -44.7775 	 55.091 	 101.654
| 12> H 	 -44.8927 	 53.1093 	 100.734
| 13> C 	 -47.0062 	 53.9158 	 98.8932
| 14> H 	 -46.3718 	 53.1631 	 98.493
| 15> H 	 -47.0467 	 54.6376 	 98.0993
| 16> C 	 -48.2442 	 53.1635 	 99.1867
| 17> H 	 -48.4081 	 52.5157 	 98.3158
| 18> H 	 -48.2691 	 52.4807 	 100.058
| 19> C 	 -49.5099 	 54.0061 	 99.3184
| 20> H 	 -49.4783 	 54.7003 	 100.15
| 21> H 	 -49.8351 	 54.5112 	 98.3746
| 22> H 	 -50.251 	 53.2874 	 99.6521
| 23> S 	 -42.0114 	 55.2868 	 101.381
| 24> C 	 -41.0983 	 55.0161 	 102.833
| 25> C 	 -41.8186 	 54.3697 	 103.801
| 26> C 	 -43.2042 	 54.3655 	 103.571
| 27> C 	 -43.4829 	 54.9654 	 102.332
| 28> H 	 -41.2603 	 53.9949 	 104.668
| 29> C 	 -44.1488 	 53.8672 	 104.622
| 30> H 	 -44.9585 	 54.5918 	 104.643
| 31> H 	 -43.6096 	 53.9577 	 105.56
| 32> C 	 -44.5799 	 52.4498 	 104.36
| 33> H 	 -44.8219 	 52.2038 	 103.327
| 34> H 	 -45.4215 	 52.1063 	 104.984
| 35> C 	 -43.4404 	 51.4265 	 104.774
| 36> H 	 -42.5641 	 51.3948 	 104.107
| 37> H 	 -43.9117 	 50.4325 	 104.705
| 38> H 	 -43.0648 	 51.5294 	 105.846
| 39> H 	 -47.3039 	 56.5265 	 99.7355
| 40> H 	 -40.0328 	 54.9742 	 102.943
| 41> *
| 42>
| 43>                          ****END OF INPUT****

CARTESIAN COORDINATES (ANGSTROEM)
---------------------------------
  S    -45.724400   56.582400  101.704000
  C    -46.561700   55.979600  100.313000
  C    -46.368000   54.672700  100.057000
  C    -45.309100   54.136800  100.810000
  C    -44.777500   55.091000  101.654000
  H    -44.892700   53.109300  100.734000
  C    -47.006200   53.915800   98.893200
  H    -46.371800   53.163100   98.493000
  H    -47.046700   54.637600   98.099300
  C    -48.244200   53.163500   99.186700
  H    -48.408100   52.515700   98.315800
  H    -48.269100   52.480700  100.058000
  C    -49.509900   54.006100   99.318400
  H    -49.478300   54.700300  100.150000
  H    -49.835100   54.511200   98.374600
  H    -50.251000   53.287400   99.652100
  S    -42.011400   55.286800  101.381000
  C    -41.098300   55.016100  102.833000
  C    -41.818600   54.369700  103.801000
  C    -43.204200   54.365500  103.571000
  C    -43.482900   54.965400  102.332000
  H    -41.260300   53.994900  104.668000
  C    -44.148800   53.867200  104.622000
  H    -44.958500   54.591800  104.643000
  H    -43.609600   53.957700  105.560000
  C    -44.579900   52.449800  104.360000
  H    -44.821900   52.203800  103.327000
  H    -45.421500   52.106300  104.984000
  C    -43.440400   51.426500  104.774000
  H    -42.564100   51.394800  104.107000
  H    -43.911700   50.432500  104.705000
  H    -43.064800   51.529400  105.846000
  H    -47.303900   56.526500   99.735500
  H    -40.032800   54.974200  102.943000

 Total Charge           Charge          ....    0
 Multiplicity           Mult            ....    1
 Number of Electrons    NEL             ....  134
 Basis Dimension        Dim             ....  322

ORBITAL ENERGIES
----------------

  NO   OCC          E(Eh)            E(eV)
   0   2.0000     -88.966498     -2420.9015
   1   2.0000     -88.966123     -2420.8913
   2   2.0000     -10.324102      -280.9331
   3   2.0000     -10.322811      -280.8980
   4   2.0000     -10.307901      -280.4922
   5   2.0000     -10.306438      -280.4524
   6   2.0000     -10.298467      -280.2355
   7   2.0000     -10.293809      -280.1088
   8   2.0000     -10.290965      -280.0314
   9   2.0000     -10.289829      -280.0005
  10   2.0000     -10.287743      -279.9437
  11   2.0000     -10.285653      -279.8868
  12   2.0000     -10.284906      -279.8665
  13   2.0000     -10.284385      -279.8524
  14   2.0000     -10.283637      -279.8320
  15   2.0000     -10.274103      -279.5725
  16   2.0000      -8.081420      -219.9066
  17   2.0000      -8.080422      -219.8795
  18   2.0000      -6.039778      -164.3507
  19   2.0000      -6.038854      -164.3256
  20   2.0000      -6.036203      -164.2534
  21   2.0000      -6.035308      -164.2291
  22   2.0000      -6.032024      -164.1397
  23   2.0000      -6.030982      -164.1114
  24   2.0000      -1.006896       -27.3990
  25   2.0000      -0.986846       -26.8535
  26   2.0000      -0.917264       -24.9600
  27   2.0000      -0.910968       -24.7887
  28   2.0000      -0.865487       -23.5511
  29   2.0000      -0.851749       -23.1773
  30   2.0000      -0.844534       -22.9809
  31   2.0000      -0.810739       -22.0613
  32   2.0000      -0.787983       -21.4421
  33   2.0000      -0.772225       -21.0133
  34   2.0000      -0.708915       -19.2905
  35   2.0000      -0.693917       -18.8824
  36   2.0000      -0.687755       -18.7148
  37   2.0000      -0.653839       -17.7919
  38   2.0000      -0.638168       -17.3654
  39   2.0000      -0.616663       -16.7803
  40   2.0000      -0.592912       -16.1339
  41   2.0000      -0.572240       -15.5714
  42   2.0000      -0.550975       -14.9928
  43   2.0000      -0.547844       -14.9076
  44   2.0000      -0.543787       -14.7972
  45   2.0000      -0.541310       -14.7298
  46   2.0000      -0.523891       -14.2558
  47   2.0000      -0.513870       -13.9831
  48   2.0000      -0.492197       -13.3933
  49   2.0000      -0.486026       -13.2255
  50   2.0000      -0.483200       -13.1485
  51   2.0000      -0.477225       -12.9859
  52   2.0000      -0.471338       -12.8258
  53   2.0000      -0.463955       -12.6249
  54   2.0000      -0.457634       -12.4528
  55   2.0000      -0.451141       -12.2762
  56   2.0000      -0.443670       -12.0729
  57   2.0000      -0.441113       -12.0033
  58   2.0000      -0.439605       -11.9623
  59   2.0000      -0.421551       -11.4710
  60   2.0000      -0.417916       -11.3721
  61   2.0000      -0.413695       -11.2572
  62   2.0000      -0.409367       -11.1394
  63   2.0000      -0.338451        -9.2097
  64   2.0000      -0.329454        -8.9649
  65   2.0000      -0.314567        -8.5598
  66   2.0000      -0.306619        -8.3435
  67   0.0000       0.041106         1.1186
  68   0.0000       0.049986         1.3602
  69   0.0000       0.107314         2.9202
  70   0.0000       0.114315         3.1107
  71   0.0000       0.132785         3.6133

MULLIKEN ATOMIC CHARGES
-----------------------
   0 S :    0.126908
   1 C :   -0.119873
   2 C :   -0.072538
   3 C :    0.030266
   4 C :   -0.200725
   5 H :    0.032628
   6 C :    0.104462
   7 H :    0.005735
   8 H :    0.018960
   9 C :   -0.076919
  10 H :    0.024768
  11 H :    0.032636
  12 C :   -0.061103
  13 H :    0.029310
  14 H :    0.039362
  15 H :    0.023081
  16 S :    0.123601
  17 C :   -0.065356
  18 C :   -0.073275
  19 C :   -0.033087
  20 C :   -0.189028
  21 H :    0.021854
  22 C :    0.141568
  23 H :    0.025870
  24 H :    0.017619
  25 C :   -0.054145
  26 H :    0.033202
  27 H :    0.035593
  28 C :   -0.119482
  29 H :    0.046123
  30 H :    0.033394
  31 H :    0.038836
  32 H :    0.038224
  33 H :    0.041532
Sum of atomic charges:    0.0000000

LOEWDIN ATOMIC CHARGES
----------------------
   0 S :    0.402354
   1 C :   -0.196060
   2 C :   -0.069821
   3 C :   -0.055219
   4 C :   -0.194554
   5 H :    0.039997
   6 C :   -0.029605
   7 H :    0.027820
   8 H :    0.031746
   9 C :   -0.044526
  10 H :    0.026732
  11 H :    0.030406
  12 C :   -0.071089
  13 H :    0.020535
  14 H :    0.026941
  15 H :    0.025963
  16 S :    0.403948
  17 C :   -0.190365
  18 C :   -0.077320
  19 C :   -0.048206
  20 C :   -0.198248
  21 H :    0.033475
  22 C :   -0.028049
  23 H :    0.032218
  24 H :    0.031408
  25 C :   -0.034458
  26 H :    0.026469
  27 H :    0.027750
  28 C :   -0.077569
  29 H :    0.022967
  30 H :    0.025837
  31 H :    0.027711
  32 H :    0.025813
  33 H :    0.024998

  Mayer bond orders larger than 0.100000
B(  0-S ,  1-C ) :   1.1318 B(  0-S ,  4-C ) :   1.1431 B(  1-C ,  2-C ) :   1.6529
B(  1-C , 32-H ) :   0.9584 B(  2-C ,  3-C ) :   1.2228 B(  2-C ,  6-C ) :   1.0077
B(  3-C ,  4-C ) :   1.6028 B(  3-C ,  5-H ) :   0.9889 B(  4-C , 20-C ) :   1.0228
B(  6-C ,  7-H ) :   0.9376 B(  6-C ,  8-H ) :   0.9433 B(  6-C ,  9-C ) :   1.0734
B(  9-C , 10-H ) :   0.9518 B(  9-C , 11-H ) :   0.9562 B(  9-C , 12-C ) :   1.0875
B( 12-C , 13-H ) :   0.9736 B( 12-C , 14-H ) :   0.9753 B( 12-C , 15-H ) :   0.9732
B( 16-S , 17-C ) :   1.1496 B( 16-S , 20-C ) :   1.1445 B( 17-C , 18-C ) :   1.6388
B( 17-C , 33-H ) :   0.9599 B( 18-C , 19-C ) :   1.2506 B( 18-C , 21-H ) :   0.9808
B( 19-C , 20-C ) :   1.5908 B( 19-C , 22-C ) :   1.0250 B( 22-C , 23-H ) :   0.9243
B( 22-C , 24-H ) :   0.9396 B( 22-C , 25-C ) :   1.0663 B( 25-C , 26-H ) :   0.9566
B( 25-C , 27-H ) :   0.9582 B( 25-C , 28-C ) :   1.0656 B( 28-C , 29-H ) :   0.9761
B( 28-C , 30-H ) :   0.9770 B( 28-C , 31-H ) :   0.9757

Dispersion correction           -0.014965131
FINAL SINGLE POINT ENERGY     -1339.864021556391

DIPOLE MOMENT
-------------
                                X             Y             Z
Electronic contribution:     15.13259      19.32944      -1.80462
Nuclear contribution   :    -15.31908     -19.94254       1.79152
                        -----------------------------------------
Total Dipole Moment    :     -0.18649      -0.61310      -0.01310
                        -----------------------------------------
Magnitude (a.u.)       :      0.64097
Magnitude (Debye)      :      1.62921

Rotational constants in cm-1:     0.020932     0.008181     0.006944
Rotational constants in MHz :   627.526608   245.265187   208.180281

                             ****ORCA TERMINATED NORMALLY****
TOTAL RUN TIME: 0 days 0 hours 0 minutes 30 seconds 259 msec
