                         Program Version 4.2.1 -  RELEASE  -
|  1> ! wB97X-D3 SP def2-SVP
|  2> %pal
|  3> nprocs 16
|  4> end
|  5>
|  6> * xyz 0 1
|  7> S 	 -44.2565 	 25.2587 	 84.0631
|  8> C 	 -44.8576 	 23.7939 	 83.2229
|  9> C 	 -43.9337 	 22.7874 	 83.3308
| 10> C 	 -42.7335 	 23.2931 	 83.9974
| 11> C 	 -42.7319 	 24.5729 	 84.453
| 12> H 	 -41.8313 	 22.5958 	 84.1737
| 13> C 	 -43.9534 	 21.3404 	 82.8956
| 14> H 	 -42.9548 	 20.9765 	 82.5425
| 15> H 	 -44.5699 	 21.1877 	 82.0678
| 16> C 	 -44.5189 	 20.4277 	 83.9538
| 17> H 	 -44.333 	 19.462 	 83.5153
| 18> H 	 -44.0465 	 20.4832 	 84.9456
| 19> C 	 -46.0374 	 20.6194 	 84.1679
| 20> H 	 -46.2179 	 21.654 	 84.4182
| 21> H 	 -46.5829 	 20.5013 	 83.2332
| 22> H 	 -46.4795 	 20.074 	 84.9865
| 23> S 	 -42.1312 	 27.1088 	 85.3737
| 24> C 	 -40.5873 	 27.3951 	 86.164
| 25> C 	 -39.8298 	 26.248 	 86.281
| 26> C 	 -40.4778 	 25.1003 	 85.7586
| 27> C 	 -41.7434 	 25.3853 	 85.1827
| 28> H 	 -38.8434 	 26.3851 	 86.7834
| 29> C 	 -39.7362 	 23.7812 	 85.8196
| 30> H 	 -38.6367 	 23.8941 	 85.7055
| 31> H 	 -39.9789 	 23.2596 	 84.9438
| 32> C 	 -40.073 	 22.9303 	 87.0358
| 33> H 	 -41.1583 	 22.9426 	 86.9831
| 34> H 	 -39.981 	 23.5969 	 87.9789
| 35> C 	 -39.3719 	 21.5846 	 87.1482
| 36> H 	 -39.5137 	 20.9932 	 88.0318
| 37> H 	 -38.3037 	 21.696 	 87.0577
| 38> H 	 -39.6049 	 20.9368 	 86.2348
| 39> H 	 -45.8788 	 23.5275 	 82.9282
| 40> H 	 -40.2898 	 28.2863 	 86.6229
| 41> *
| 42>
| 43>                          ****END OF INPUT****

CARTESIAN COORDINATES (ANGSTROEM)
---------------------------------
  S    -44.256500   25.258700   84.063100
  C    -44.857600   23.793900   83.222900
  C    -43.933700   22.787400   83.330800
  C    -42.733500   23.293100   83.997400
  C    -42.731900   24.572900   84.453000
  H    -41.831300   22.595800   84.173700
  C    -43.953400   21.340400   82.895600
  H    -42.954800   20.976500   82.542500
  H    -44.569900   21.187700   82.067800
  C    -44.518900   20.427700   83.953800
  H    -44.333000   19.462000   83.515300
  H    -44.046500   20.483200   84.945600
  C    -46.037400   20.619400   84.167900
  H    -46.217900   21.654000   84.418200
  H    -46.582900   20.501300   83.233200
  H    -46.479500   20.074000   84.986500
  S    -42.131200   27.108800   85.373700
  C    -40.587300   27.395100   86.164000
  C    -39.829800   26.248000   86.281000
  C    -40.477800   25.100300   85.758600
  C    -41.743400   25.385300   85.182700
  H    -38.843400   26.385100   86.783400
  C    -39.736200   23.781200   85.819600
  H    -38.636700   23.894100   85.705500
  H    -39.978900   23.259600   84.943800
  C    -40.073000   22.930300   87.035800
  H    -41.158300   22.942600   86.983100
  H    -39.981000   23.596900   87.978900
  C    -39.371900   21.584600   87.148200
  H    -39.513700   20.993200   88.031800
  H    -38.303700   21.696000   87.057700
  H    -39.604900   20.936800   86.234800
  H    -45.878800   23.527500   82.928200
  H    -40.289800   28.286300   86.622900

 Total Charge           Charge          ....    0
 Multiplicity           Mult            ....    1
 Number of Electrons    NEL             ....  134
 Basis Dimension        Dim             ....  322

ORBITAL ENERGIES
----------------

  NO   OCC          E(Eh)            E(eV)
   0   2.0000     -88.971150     -2421.0281
   1   2.0000     -88.964178     -2420.8384
   2   2.0000     -10.340757      -281.3863
   3   2.0000     -10.332650      -281.1657
   4   2.0000     -10.318733      -280.7870
   5   2.0000     -10.316072      -280.7146
   6   2.0000     -10.312019      -280.6043
   7   2.0000     -10.304321      -280.3948
   8   2.0000     -10.298062      -280.2245
   9   2.0000     -10.297442      -280.2076
  10   2.0000     -10.293353      -280.0964
  11   2.0000     -10.291997      -280.0595
  12   2.0000     -10.290024      -280.0058
  13   2.0000     -10.286648      -279.9139
  14   2.0000     -10.285367      -279.8791
  15   2.0000     -10.274994      -279.5968
  16   2.0000      -8.085172      -220.0087
  17   2.0000      -8.079039      -219.8418
  18   2.0000      -6.043733      -164.4583
  19   2.0000      -6.039820      -164.3519
  20   2.0000      -6.037848      -164.2982
  21   2.0000      -6.035878      -164.2446
  22   2.0000      -6.033577      -164.1820
  23   2.0000      -6.029398      -164.0683
  24   2.0000      -1.008626       -27.4461
  25   2.0000      -0.984436       -26.7879
  26   2.0000      -0.921999       -25.0889
  27   2.0000      -0.912699       -24.8358
  28   2.0000      -0.871538       -23.7158
  29   2.0000      -0.852213       -23.1899
  30   2.0000      -0.837795       -22.7976
  31   2.0000      -0.815972       -22.2037
  32   2.0000      -0.789214       -21.4756
  33   2.0000      -0.781213       -21.2579
  34   2.0000      -0.712468       -19.3872
  35   2.0000      -0.701594       -19.0913
  36   2.0000      -0.697182       -18.9713
  37   2.0000      -0.662310       -18.0224
  38   2.0000      -0.642017       -17.4702
  39   2.0000      -0.617384       -16.7999
  40   2.0000      -0.601456       -16.3665
  41   2.0000      -0.578304       -15.7365
  42   2.0000      -0.558425       -15.1955
  43   2.0000      -0.548846       -14.9348
  44   2.0000      -0.537843       -14.6355
  45   2.0000      -0.525319       -14.2946
  46   2.0000      -0.521611       -14.1938
  47   2.0000      -0.514975       -14.0132
  48   2.0000      -0.508397       -13.8342
  49   2.0000      -0.498128       -13.5547
  50   2.0000      -0.495681       -13.4882
  51   2.0000      -0.482882       -13.1399
  52   2.0000      -0.468295       -12.7430
  53   2.0000      -0.466333       -12.6896
  54   2.0000      -0.458458       -12.4753
  55   2.0000      -0.453613       -12.3434
  56   2.0000      -0.450268       -12.2524
  57   2.0000      -0.439541       -11.9605
  58   2.0000      -0.437264       -11.8986
  59   2.0000      -0.427595       -11.6355
  60   2.0000      -0.422711       -11.5026
  61   2.0000      -0.407803       -11.0969
  62   2.0000      -0.401565       -10.9271
  63   2.0000      -0.364492        -9.9183
  64   2.0000      -0.339470        -9.2374
  65   2.0000      -0.325617        -8.8605
  66   2.0000      -0.286795        -7.8041
  67   0.0000       0.016499         0.4490
  68   0.0000       0.084014         2.2861
  69   0.0000       0.090095         2.4516
  70   0.0000       0.117774         3.2048
  71   0.0000       0.127030         3.4566

MULLIKEN ATOMIC CHARGES
-----------------------
   0 S :    0.072347
   1 C :   -0.100897
   2 C :   -0.108774
   3 C :   -0.067773
   4 C :   -0.062190
   5 H :    0.029153
   6 C :    0.078019
   7 H :    0.037260
   8 H :    0.001996
   9 C :   -0.054844
  10 H :    0.025305
  11 H :    0.036650
  12 C :   -0.049766
  13 H :    0.018835
  14 H :    0.020410
  15 H :    0.039051
  16 S :    0.098049
  17 C :   -0.062174
  18 C :   -0.053954
  19 C :   -0.066927
  20 C :   -0.101288
  21 H :    0.040209
  22 C :    0.069733
  23 H :    0.021124
  24 H :   -0.004043
  25 C :   -0.074638
  26 H :    0.021498
  27 H :    0.028065
  28 C :   -0.013753
  29 H :    0.042508
  30 H :    0.021655
  31 H :    0.029872
  32 H :    0.053905
  33 H :    0.035377
Sum of atomic charges:    0.0000000

LOEWDIN ATOMIC CHARGES
----------------------
   0 S :    0.390372
   1 C :   -0.192597
   2 C :   -0.057275
   3 C :   -0.085899
   4 C :   -0.196098
   5 H :    0.035942
   6 C :   -0.028680
   7 H :    0.039035
   8 H :    0.022717
   9 C :   -0.034204
  10 H :    0.022311
  11 H :    0.026530
  12 C :   -0.066869
  13 H :    0.022229
  14 H :    0.021895
  15 H :    0.027227
  16 S :    0.395095
  17 C :   -0.171910
  18 C :   -0.072712
  19 C :   -0.049493
  20 C :   -0.183288
  21 H :    0.044855
  22 C :   -0.031110
  23 H :    0.030805
  24 H :    0.016078
  25 C :   -0.051002
  26 H :    0.024353
  27 H :    0.031475
  28 C :   -0.069244
  29 H :    0.027728
  30 H :    0.024435
  31 H :    0.033783
  32 H :    0.034534
  33 H :    0.018981

  Mayer bond orders larger than 0.100000
B(  0-S ,  1-C ) :   1.1095 B(  0-S ,  4-C ) :   1.1317 B(  1-C ,  2-C ) :   1.6529
B(  1-C , 32-H ) :   0.9576 B(  2-C ,  3-C ) :   1.2283 B(  2-C ,  6-C ) :   1.0273
B(  3-C ,  4-C ) :   1.6047 B(  3-C ,  5-H ) :   0.9717 B(  4-C , 20-C ) :   1.0664
B(  6-C ,  7-H ) :   0.9420 B(  6-C ,  8-H ) :   0.9337 B(  6-C ,  9-C ) :   1.0662
B(  9-C , 10-H ) :   0.9551 B(  9-C , 11-H ) :   0.9570 B(  9-C , 12-C ) :   1.0761
B( 12-C , 13-H ) :   0.9716 B( 12-C , 14-H ) :   0.9735 B( 12-C , 15-H ) :   0.9733
B( 16-S , 17-C ) :   1.1497 B( 16-S , 20-C ) :   1.1383 B( 17-C , 18-C ) :   1.6228
B( 17-C , 20-C ) :   0.1040 B( 17-C , 33-H ) :   0.9700 B( 18-C , 19-C ) :   1.2495
B( 18-C , 21-H ) :   0.9841 B( 19-C , 20-C ) :   1.5722 B( 19-C , 22-C ) :   1.0420
B( 22-C , 23-H ) :   0.9334 B( 22-C , 24-H ) :   0.9265 B( 22-C , 25-C ) :   1.0543
B( 25-C , 26-H ) :   0.9521 B( 25-C , 27-H ) :   0.9528 B( 25-C , 28-C ) :   1.0668
B( 28-C , 29-H ) :   0.9750 B( 28-C , 30-H ) :   0.9712 B( 28-C , 31-H ) :   0.9707

Dispersion correction           -0.014252499
FINAL SINGLE POINT ENERGY     -1339.869280714912

DIPOLE MOMENT
-------------
                                X             Y             Z
Electronic contribution:     -4.13894      29.16684      -4.26994
Nuclear contribution   :      4.51113     -29.81482       4.44935
                        -----------------------------------------
Total Dipole Moment    :      0.37219      -0.64798       0.17941
                        -----------------------------------------
Magnitude (a.u.)       :      0.76850
Magnitude (Debye)      :      1.95337

Rotational constants in cm-1:     0.018028     0.009334     0.006514
Rotational constants in MHz :   540.476693   279.839642   195.278330

                             ****ORCA TERMINATED NORMALLY****
TOTAL RUN TIME: 0 days 0 hours 0 minutes 30 seconds 291 msec
