                         Program Version 4.2.1 -  RELEASE  -
|  1> ! wB97X-D3 SP def2-SVP
|  2> %pal
|  3> nprocs 16
|  4> end
|  5>
|  6> * xyz 0 1
|  7> S 	 -107.415 	 38.9415 	 128.44
|  8> C 	 -106.082 	 39.8853 	 129.15
|  9> C 	 -106.11 	 41.2091 	 128.786
| 10> C 	 -107.14 	 41.4384 	 127.873
| 11> C 	 -108.001 	 40.3835 	 127.623
| 12> H 	 -107.383 	 42.3775 	 127.481
| 13> C 	 -105.072 	 42.203 	 129.133
| 14> H 	 -104.751 	 42.4274 	 128.145
| 15> H 	 -104.193 	 41.9156 	 129.763
| 16> C 	 -105.655 	 43.5531 	 129.644
| 17> H 	 -104.872 	 44.2506 	 129.95
| 18> H 	 -106.162 	 44.1301 	 128.921
| 19> C 	 -106.48 	 43.3352 	 130.907
| 20> H 	 -106.401 	 44.1751 	 131.615
| 21> H 	 -107.531 	 43.4677 	 130.608
| 22> H 	 -106.433 	 42.4158 	 131.429
| 23> S 	 -109.137 	 39.8433 	 125.178
| 24> C 	 -110.69 	 40.6418 	 124.873
| 25> C 	 -111.041 	 41.509 	 125.866
| 26> C 	 -110.202 	 41.3927 	 126.994
| 27> C 	 -109.202 	 40.4327 	 126.808
| 28> H 	 -111.97 	 42.0684 	 125.796
| 29> C 	 -110.473 	 42.2322 	 128.26
| 30> H 	 -109.531 	 42.4759 	 128.679
| 31> H 	 -110.945 	 41.5144 	 128.965
| 32> C 	 -111.144 	 43.5622 	 128.025
| 33> H 	 -112.078 	 43.4184 	 127.457
| 34> H 	 -110.47 	 44.1689 	 127.419
| 35> C 	 -111.425 	 44.344 	 129.274
| 36> H 	 -112.099 	 43.8668 	 129.997
| 37> H 	 -111.898 	 45.2379 	 128.83
| 38> H 	 -110.551 	 44.682 	 129.799
| 39> H 	 -105.521 	 39.3518 	 129.866
| 40> H 	 -111.208 	 40.56 	 123.914
| 41> *
| 42>
| 43>                          ****END OF INPUT****

CARTESIAN COORDINATES (ANGSTROEM)
---------------------------------
  S    -107.415000   38.941500  128.440000
  C    -106.082000   39.885300  129.150000
  C    -106.110000   41.209100  128.786000
  C    -107.140000   41.438400  127.873000
  C    -108.001000   40.383500  127.623000
  H    -107.383000   42.377500  127.481000
  C    -105.072000   42.203000  129.133000
  H    -104.751000   42.427400  128.145000
  H    -104.193000   41.915600  129.763000
  C    -105.655000   43.553100  129.644000
  H    -104.872000   44.250600  129.950000
  H    -106.162000   44.130100  128.921000
  C    -106.480000   43.335200  130.907000
  H    -106.401000   44.175100  131.615000
  H    -107.531000   43.467700  130.608000
  H    -106.433000   42.415800  131.429000
  S    -109.137000   39.843300  125.178000
  C    -110.690000   40.641800  124.873000
  C    -111.041000   41.509000  125.866000
  C    -110.202000   41.392700  126.994000
  C    -109.202000   40.432700  126.808000
  H    -111.970000   42.068400  125.796000
  C    -110.473000   42.232200  128.260000
  H    -109.531000   42.475900  128.679000
  H    -110.945000   41.514400  128.965000
  C    -111.144000   43.562200  128.025000
  H    -112.078000   43.418400  127.457000
  H    -110.470000   44.168900  127.419000
  C    -111.425000   44.344000  129.274000
  H    -112.099000   43.866800  129.997000
  H    -111.898000   45.237900  128.830000
  H    -110.551000   44.682000  129.799000
  H    -105.521000   39.351800  129.866000
  H    -111.208000   40.560000  123.914000

 Total Charge           Charge          ....    0
 Multiplicity           Mult            ....    1
 Number of Electrons    NEL             ....  134
 Basis Dimension        Dim             ....  322

ORBITAL ENERGIES
----------------

  NO   OCC          E(Eh)            E(eV)
   0   2.0000     -88.966156     -2420.8922
   1   2.0000     -88.958913     -2420.6951
   2   2.0000     -10.324292      -280.9383
   3   2.0000     -10.319113      -280.7973
   4   2.0000     -10.317655      -280.7577
   5   2.0000     -10.308661      -280.5129
   6   2.0000     -10.301910      -280.3292
   7   2.0000     -10.297995      -280.2227
   8   2.0000     -10.293515      -280.1008
   9   2.0000     -10.290266      -280.0124
  10   2.0000     -10.287839      -279.9463
  11   2.0000     -10.286625      -279.9133
  12   2.0000     -10.284962      -279.8680
  13   2.0000     -10.284884      -279.8659
  14   2.0000     -10.278605      -279.6951
  15   2.0000     -10.271416      -279.4994
  16   2.0000      -8.080872      -219.8917
  17   2.0000      -8.073546      -219.6924
  18   2.0000      -6.039287      -164.3374
  19   2.0000      -6.035571      -164.2362
  20   2.0000      -6.031845      -164.1349
  21   2.0000      -6.031545      -164.1267
  22   2.0000      -6.028103      -164.0330
  23   2.0000      -6.024528      -163.9357
  24   2.0000      -1.006282       -27.3823
  25   2.0000      -0.984438       -26.7879
  26   2.0000      -0.916638       -24.9430
  27   2.0000      -0.914831       -24.8938
  28   2.0000      -0.869369       -23.6567
  29   2.0000      -0.854160       -23.2429
  30   2.0000      -0.847621       -23.0649
  31   2.0000      -0.813402       -22.1338
  32   2.0000      -0.786660       -21.4061
  33   2.0000      -0.772296       -21.0153
  34   2.0000      -0.709362       -19.3027
  35   2.0000      -0.700318       -19.0566
  36   2.0000      -0.695421       -18.9234
  37   2.0000      -0.652205       -17.7474
  38   2.0000      -0.645963       -17.5776
  39   2.0000      -0.624460       -16.9924
  40   2.0000      -0.599769       -16.3205
  41   2.0000      -0.573805       -15.6140
  42   2.0000      -0.562410       -15.3040
  43   2.0000      -0.560303       -15.2466
  44   2.0000      -0.539609       -14.6835
  45   2.0000      -0.533117       -14.5068
  46   2.0000      -0.520530       -14.1643
  47   2.0000      -0.507766       -13.8170
  48   2.0000      -0.504792       -13.7361
  49   2.0000      -0.494637       -13.4598
  50   2.0000      -0.489671       -13.3246
  51   2.0000      -0.483384       -13.1535
  52   2.0000      -0.478998       -13.0342
  53   2.0000      -0.464066       -12.6279
  54   2.0000      -0.459595       -12.5062
  55   2.0000      -0.453501       -12.3404
  56   2.0000      -0.444385       -12.0923
  57   2.0000      -0.434432       -11.8215
  58   2.0000      -0.428883       -11.6705
  59   2.0000      -0.425994       -11.5919
  60   2.0000      -0.421540       -11.4707
  61   2.0000      -0.416318       -11.3286
  62   2.0000      -0.406541       -11.0625
  63   2.0000      -0.342143        -9.3102
  64   2.0000      -0.328400        -8.9362
  65   2.0000      -0.322166        -8.7666
  66   2.0000      -0.297470        -8.0946
  67   0.0000       0.034546         0.9400
  68   0.0000       0.063203         1.7198
  69   0.0000       0.113912         3.0997
  70   0.0000       0.117361         3.1936
  71   0.0000       0.124735         3.3942

MULLIKEN ATOMIC CHARGES
-----------------------
   0 S :    0.086155
   1 C :   -0.143229
   2 C :   -0.030898
   3 C :    0.054329
   4 C :   -0.190371
   5 H :   -0.014412
   6 C :    0.083580
   7 H :    0.028901
   8 H :    0.043964
   9 C :   -0.082151
  10 H :    0.025639
  11 H :    0.016698
  12 C :   -0.049854
  13 H :    0.024149
  14 H :    0.020934
  15 H :    0.038141
  16 S :    0.112494
  17 C :   -0.096684
  18 C :   -0.036833
  19 C :   -0.074844
  20 C :   -0.123899
  21 H :    0.023745
  22 C :    0.122803
  23 H :   -0.000592
  24 H :    0.048495
  25 C :   -0.115327
  26 H :    0.032890
  27 H :    0.028385
  28 C :   -0.022895
  29 H :    0.038604
  30 H :    0.031987
  31 H :    0.027298
  32 H :    0.035111
  33 H :    0.057688
Sum of atomic charges:   -0.0000000

LOEWDIN ATOMIC CHARGES
----------------------
   0 S :    0.381453
   1 C :   -0.176445
   2 C :   -0.062974
   3 C :   -0.054976
   4 C :   -0.189781
   5 H :    0.019268
   6 C :   -0.026028
   7 H :    0.035861
   8 H :    0.040233
   9 C :   -0.041823
  10 H :    0.026314
  11 H :    0.015736
  12 C :   -0.073154
  13 H :    0.027035
  14 H :    0.028344
  15 H :    0.022046
  16 S :    0.409053
  17 C :   -0.170925
  18 C :   -0.076902
  19 C :   -0.046269
  20 C :   -0.221230
  21 H :    0.034172
  22 C :   -0.032775
  23 H :    0.022207
  24 H :    0.041142
  25 C :   -0.043472
  26 H :    0.021835
  27 H :    0.028491
  28 C :   -0.061078
  29 H :    0.026852
  30 H :    0.033893
  31 H :    0.021285
  32 H :    0.013302
  33 H :    0.029308

  Mayer bond orders larger than 0.100000
B(  0-S ,  1-C ) :   1.1428 B(  0-S ,  4-C ) :   1.1503 B(  1-C ,  2-C ) :   1.5762
B(  1-C , 32-H ) :   0.9825 B(  2-C ,  3-C ) :   1.2430 B(  2-C ,  6-C ) :   1.0110
B(  3-C ,  4-C ) :   1.5841 B(  3-C ,  5-H ) :   0.9957 B(  4-C , 20-C ) :   1.0118
B(  6-C ,  7-H ) :   0.9311 B(  6-C ,  8-H ) :   0.9544 B(  6-C ,  9-C ) :   1.0775
B(  9-C , 10-H ) :   0.9622 B(  9-C , 11-H ) :   0.9583 B(  9-C , 12-C ) :   1.0595
B( 12-C , 13-H ) :   0.9753 B( 12-C , 14-H ) :   0.9734 B( 12-C , 15-H ) :   0.9805
B( 16-S , 17-C ) :   1.1613 B( 16-S , 20-C ) :   1.1528 B( 17-C , 18-C ) :   1.6058
B( 17-C , 33-H ) :   0.9629 B( 18-C , 19-C ) :   1.2581 B( 18-C , 21-H ) :   0.9881
B( 19-C , 20-C ) :   1.5836 B( 19-C , 22-C ) :   1.0162 B( 22-C , 23-H ) :   0.9223
B( 22-C , 24-H ) :   0.9303 B( 22-C , 25-C ) :   1.0803 B( 25-C , 26-H ) :   0.9462
B( 25-C , 27-H ) :   0.9525 B( 25-C , 28-C ) :   1.0947 B( 28-C , 29-H ) :   0.9741
B( 28-C , 30-H ) :   0.9715 B( 28-C , 31-H ) :   0.9712

Dispersion correction           -0.015129608
FINAL SINGLE POINT ENERGY     -1339.866128872748

DIPOLE MOMENT
-------------
                                X             Y             Z
Electronic contribution:      1.99778     -26.41236     -16.76869
Nuclear contribution   :     -2.07448      27.26922      16.95756
                        -----------------------------------------
Total Dipole Moment    :     -0.07670       0.85686       0.18887
                        -----------------------------------------
Magnitude (a.u.)       :      0.88078
Magnitude (Debye)      :      2.23876

Rotational constants in cm-1:     0.015838     0.010820     0.007306
Rotational constants in MHz :   474.813966   324.374180   219.015400

                             ****ORCA TERMINATED NORMALLY****
TOTAL RUN TIME: 0 days 0 hours 0 minutes 35 seconds 590 msec
