                         Program Version 4.2.1 -  RELEASE  -
|  1> ! wB97X-D3 SP def2-SVP
|  2> %pal
|  3> nprocs 16
|  4> end
|  5>
|  6> * xyz 0 1
|  7> S 	 -55.1684 	 60.4118 	 134.301
|  8> C 	 -54.0057 	 60.3895 	 132.99
|  9> C 	 -52.9016 	 61.0421 	 133.3
| 10> C 	 -52.88 	 61.3851 	 134.666
| 11> C 	 -54.0788 	 61.1864 	 135.348
| 12> H 	 -52.0414 	 61.9252 	 135.126
| 13> C 	 -51.8229 	 61.3243 	 132.345
| 14> H 	 -52.0143 	 61.0461 	 131.305
| 15> H 	 -50.9568 	 60.7286 	 132.579
| 16> C 	 -51.2206 	 62.7645 	 132.446
| 17> H 	 -51.9128 	 63.5277 	 132.152
| 18> H 	 -50.8896 	 62.8938 	 133.467
| 19> C 	 -49.9538 	 62.9456 	 131.591
| 20> H 	 -49.5632 	 63.9923 	 131.509
| 21> H 	 -49.2153 	 62.3189 	 132.103
| 22> H 	 -50.0531 	 62.6743 	 130.555
| 23> S 	 -56.0396 	 61.6638 	 137.242
| 24> C 	 -55.5869 	 62.2881 	 138.783
| 25> C 	 -54.2388 	 62.3261 	 138.952
| 26> C 	 -53.5169 	 61.9496 	 137.794
| 27> C 	 -54.3285 	 61.6092 	 136.739
| 28> H 	 -53.8263 	 62.7047 	 139.917
| 29> C 	 -51.9971 	 62.1396 	 137.869
| 30> H 	 -51.8736 	 62.6616 	 138.806
| 31> H 	 -51.6427 	 62.8775 	 137.196
| 32> C 	 -51.1243 	 60.8425 	 137.783
| 33> H 	 -50.1068 	 61.1866 	 137.864
| 34> H 	 -51.2925 	 60.4911 	 136.76
| 35> C 	 -51.4244 	 59.732 	 138.8
| 36> H 	 -52.3421 	 59.2769 	 138.676
| 37> H 	 -51.2348 	 59.9607 	 139.838
| 38> H 	 -50.6571 	 58.9957 	 138.566
| 39> H 	 -54.2572 	 59.9794 	 132.068
| 40> H 	 -56.1993 	 62.5693 	 139.627
| 41> *
| 42>
| 43>                          ****END OF INPUT****

CARTESIAN COORDINATES (ANGSTROEM)
---------------------------------
  S    -55.168400   60.411800  134.301000
  C    -54.005700   60.389500  132.990000
  C    -52.901600   61.042100  133.300000
  C    -52.880000   61.385100  134.666000
  C    -54.078800   61.186400  135.348000
  H    -52.041400   61.925200  135.126000
  C    -51.822900   61.324300  132.345000
  H    -52.014300   61.046100  131.305000
  H    -50.956800   60.728600  132.579000
  C    -51.220600   62.764500  132.446000
  H    -51.912800   63.527700  132.152000
  H    -50.889600   62.893800  133.467000
  C    -49.953800   62.945600  131.591000
  H    -49.563200   63.992300  131.509000
  H    -49.215300   62.318900  132.103000
  H    -50.053100   62.674300  130.555000
  S    -56.039600   61.663800  137.242000
  C    -55.586900   62.288100  138.783000
  C    -54.238800   62.326100  138.952000
  C    -53.516900   61.949600  137.794000
  C    -54.328500   61.609200  136.739000
  H    -53.826300   62.704700  139.917000
  C    -51.997100   62.139600  137.869000
  H    -51.873600   62.661600  138.806000
  H    -51.642700   62.877500  137.196000
  C    -51.124300   60.842500  137.783000
  H    -50.106800   61.186600  137.864000
  H    -51.292500   60.491100  136.760000
  C    -51.424400   59.732000  138.800000
  H    -52.342100   59.276900  138.676000
  H    -51.234800   59.960700  139.838000
  H    -50.657100   58.995700  138.566000
  H    -54.257200   59.979400  132.068000
  H    -56.199300   62.569300  139.627000

 Total Charge           Charge          ....    0
 Multiplicity           Mult            ....    1
 Number of Electrons    NEL             ....  134
 Basis Dimension        Dim             ....  322

ORBITAL ENERGIES
----------------

  NO   OCC          E(Eh)            E(eV)
   0   2.0000     -88.966343     -2420.8973
   1   2.0000     -88.964370     -2420.8436
   2   2.0000     -10.332018      -281.1485
   3   2.0000     -10.330999      -281.1208
   4   2.0000     -10.312032      -280.6047
   5   2.0000     -10.301916      -280.3294
   6   2.0000     -10.301549      -280.3194
   7   2.0000     -10.291261      -280.0394
   8   2.0000     -10.290901      -280.0296
   9   2.0000     -10.290469      -280.0179
  10   2.0000     -10.289699      -279.9969
  11   2.0000     -10.287769      -279.9444
  12   2.0000     -10.286915      -279.9212
  13   2.0000     -10.286663      -279.9143
  14   2.0000     -10.281010      -279.7605
  15   2.0000     -10.267970      -279.4057
  16   2.0000      -8.081089      -219.8976
  17   2.0000      -8.080189      -219.8731
  18   2.0000      -6.039682      -164.3481
  19   2.0000      -6.038718      -164.3219
  20   2.0000      -6.035658      -164.2386
  21   2.0000      -6.034529      -164.2079
  22   2.0000      -6.031722      -164.1315
  23   2.0000      -6.030906      -164.1093
  24   2.0000      -1.015405       -27.6306
  25   2.0000      -0.993495       -27.0344
  26   2.0000      -0.917921       -24.9779
  27   2.0000      -0.904929       -24.6244
  28   2.0000      -0.874702       -23.8019
  29   2.0000      -0.852588       -23.2001
  30   2.0000      -0.846996       -23.0479
  31   2.0000      -0.816323       -22.2133
  32   2.0000      -0.788010       -21.4428
  33   2.0000      -0.780209       -21.2306
  34   2.0000      -0.716373       -19.4935
  35   2.0000      -0.702320       -19.1111
  36   2.0000      -0.690106       -18.7787
  37   2.0000      -0.663410       -18.0523
  38   2.0000      -0.640579       -17.4310
  39   2.0000      -0.627171       -17.0662
  40   2.0000      -0.592566       -16.1245
  41   2.0000      -0.579501       -15.7690
  42   2.0000      -0.568344       -15.4654
  43   2.0000      -0.555216       -15.1082
  44   2.0000      -0.540753       -14.7146
  45   2.0000      -0.520740       -14.1701
  46   2.0000      -0.515968       -14.0402
  47   2.0000      -0.511226       -13.9112
  48   2.0000      -0.506672       -13.7872
  49   2.0000      -0.502221       -13.6661
  50   2.0000      -0.489644       -13.3239
  51   2.0000      -0.484447       -13.1825
  52   2.0000      -0.477899       -13.0043
  53   2.0000      -0.471508       -12.8304
  54   2.0000      -0.461719       -12.5640
  55   2.0000      -0.455464       -12.3938
  56   2.0000      -0.445209       -12.1148
  57   2.0000      -0.434222       -11.8158
  58   2.0000      -0.429366       -11.6836
  59   2.0000      -0.425318       -11.5735
  60   2.0000      -0.422969       -11.5096
  61   2.0000      -0.417169       -11.3517
  62   2.0000      -0.412040       -11.2122
  63   2.0000      -0.363528        -9.8921
  64   2.0000      -0.336345        -9.1524
  65   2.0000      -0.328856        -8.9486
  66   2.0000      -0.284704        -7.7472
  67   0.0000       0.023980         0.6525
  68   0.0000       0.087034         2.3683
  69   0.0000       0.105730         2.8771
  70   0.0000       0.121678         3.3110
  71   0.0000       0.136378         3.7110

MULLIKEN ATOMIC CHARGES
-----------------------
   0 S :    0.100094
   1 C :   -0.126860
   2 C :    0.004300
   3 C :   -0.039659
   4 C :   -0.084475
   5 H :    0.006364
   6 C :    0.078192
   7 H :    0.015078
   8 H :    0.018579
   9 C :   -0.089741
  10 H :    0.035656
  11 H :    0.030911
  12 C :   -0.066518
  13 H :    0.041211
  14 H :    0.028535
  15 H :    0.027832
  16 S :    0.098397
  17 C :   -0.064633
  18 C :   -0.073008
  19 C :   -0.057754
  20 C :   -0.131624
  21 H :    0.033262
  22 C :    0.066107
  23 H :   -0.002779
  24 H :    0.027780
  25 C :   -0.066433
  26 H :    0.024606
  27 H :    0.030652
  28 C :   -0.011354
  29 H :    0.034747
  30 H :    0.025229
  31 H :    0.023717
  32 H :    0.015382
  33 H :    0.048212
Sum of atomic charges:   -0.0000000

LOEWDIN ATOMIC CHARGES
----------------------
   0 S :    0.416460
   1 C :   -0.177662
   2 C :   -0.066853
   3 C :   -0.074388
   4 C :   -0.200504
   5 H :    0.027379
   6 C :   -0.028240
   7 H :    0.029521
   8 H :    0.032099
   9 C :   -0.032083
  10 H :    0.020045
  11 H :    0.022126
  12 C :   -0.069580
  13 H :    0.032441
  14 H :    0.024483
  15 H :    0.019536
  16 S :    0.396641
  17 C :   -0.190863
  18 C :   -0.080661
  19 C :   -0.058466
  20 C :   -0.176451
  21 H :    0.039458
  22 C :   -0.031505
  23 H :    0.025044
  24 H :    0.023839
  25 C :   -0.033299
  26 H :    0.022169
  27 H :    0.025015
  28 C :   -0.057304
  29 H :    0.018612
  30 H :    0.023628
  31 H :    0.032052
  32 H :    0.014387
  33 H :    0.032924

  Mayer bond orders larger than 0.100000
B(  0-S ,  1-C ) :   1.1202 B(  0-S ,  4-C ) :   1.1639 B(  1-C ,  2-C ) :   1.6110
B(  1-C , 32-H ) :   0.9819 B(  2-C ,  3-C ) :   1.2491 B(  2-C ,  6-C ) :   1.0384
B(  3-C ,  4-C ) :   1.5495 B(  3-C ,  5-H ) :   0.9801 B(  4-C , 20-C ) :   1.0717
B(  6-C ,  7-H ) :   0.9436 B(  6-C ,  8-H ) :   0.9275 B(  6-C ,  9-C ) :   1.0502
B(  9-C , 10-H ) :   0.9614 B(  9-C , 11-H ) :   0.9556 B(  9-C , 12-C ) :   1.0827
B( 12-C , 13-H ) :   0.9745 B( 12-C , 14-H ) :   0.9766 B( 12-C , 15-H ) :   0.9757
B( 16-S , 17-C ) :   1.1500 B( 16-S , 20-C ) :   1.1206 B( 17-C , 18-C ) :   1.6434
B( 17-C , 33-H ) :   0.9602 B( 18-C , 19-C ) :   1.2441 B( 18-C , 21-H ) :   0.9775
B( 19-C , 20-C ) :   1.6099 B( 19-C , 22-C ) :   1.0195 B( 22-C , 23-H ) :   0.9307
B( 22-C , 24-H ) :   0.9348 B( 22-C , 25-C ) :   1.0635 B( 25-C , 26-H ) :   0.9567
B( 25-C , 27-H ) :   0.9535 B( 25-C , 28-C ) :   1.0832 B( 28-C , 29-H ) :   0.9740
B( 28-C , 30-H ) :   0.9764 B( 28-C , 31-H ) :   0.9702

Dispersion correction           -0.014223534
FINAL SINGLE POINT ENERGY     -1339.877353906757

DIPOLE MOMENT
-------------
                                X             Y             Z
Electronic contribution:    -29.12960      -3.48485       3.91847
Nuclear contribution   :     29.83681       3.71839      -3.89898
                        -----------------------------------------
Total Dipole Moment    :      0.70721       0.23354       0.01950
                        -----------------------------------------
Magnitude (a.u.)       :      0.74503
Magnitude (Debye)      :      1.89371

Rotational constants in cm-1:     0.018511     0.008935     0.007019
Rotational constants in MHz :   554.940900   267.872341   210.413027

                             ****ORCA TERMINATED NORMALLY****
TOTAL RUN TIME: 0 days 0 hours 0 minutes 35 seconds 605 msec
