                         Program Version 4.2.1 -  RELEASE  -
|  1> ! wB97X-D3 SP def2-SVP
|  2> %pal
|  3> nprocs 16
|  4> end
|  5>
|  6> * xyz 0 1
|  7> S 	 -47.5665 	 21.787 	 81.8945
|  8> C 	 -46.8046 	 22.3242 	 83.3415
|  9> C 	 -47.0451 	 21.4801 	 84.4184
| 10> C 	 -47.5469 	 20.2485 	 83.9524
| 11> C 	 -47.726 	 20.1992 	 82.5775
| 12> H 	 -47.8069 	 19.3754 	 84.4415
| 13> C 	 -46.6626 	 21.6826 	 85.8137
| 14> H 	 -47.5475 	 21.9285 	 86.5443
| 15> H 	 -46.0844 	 22.5677 	 85.8745
| 16> C 	 -45.8684 	 20.5624 	 86.4587
| 17> H 	 -46.5637 	 19.7378 	 86.6317
| 18> H 	 -45.0916 	 20.3446 	 85.8217
| 19> C 	 -45.0712 	 20.7649 	 87.7145
| 20> H 	 -45.6821 	 21.0528 	 88.5299
| 21> H 	 -44.5335 	 19.8078 	 88.0387
| 22> H 	 -44.2919 	 21.4981 	 87.524
| 23> S 	 -49.7409 	 19.137 	 81.0802
| 24> C 	 -49.5082 	 17.516 	 80.3757
| 25> C 	 -48.234 	 17.0878 	 80.5259
| 26> C 	 -47.4676 	 17.8748 	 81.3954
| 27> C 	 -48.1614 	 19.0291 	 81.8041
| 28> H 	 -47.9448 	 16.1285 	 80.0986
| 29> C 	 -46.0596 	 17.5201 	 81.6993
| 30> H 	 -46.0214 	 16.6284 	 82.3986
| 31> H 	 -45.7316 	 18.3652 	 82.3889
| 32> C 	 -45.2436 	 17.3933 	 80.4706
| 33> H 	 -45.34 	 18.2839 	 79.7531
| 34> H 	 -45.6591 	 16.5319 	 79.9744
| 35> C 	 -43.7601 	 17.0532 	 80.7417
| 36> H 	 -43.2191 	 16.993 	 79.7996
| 37> H 	 -43.6762 	 16.0701 	 81.1734
| 38> H 	 -43.2539 	 17.8347 	 81.3711
| 39> H 	 -46.2876 	 23.3141 	 83.4648
| 40> H 	 -50.1032 	 17.1985 	 79.4965
| 41> *
| 42>
| 43>                          ****END OF INPUT****

CARTESIAN COORDINATES (ANGSTROEM)
---------------------------------
  S    -47.566500   21.787000   81.894500
  C    -46.804600   22.324200   83.341500
  C    -47.045100   21.480100   84.418400
  C    -47.546900   20.248500   83.952400
  C    -47.726000   20.199200   82.577500
  H    -47.806900   19.375400   84.441500
  C    -46.662600   21.682600   85.813700
  H    -47.547500   21.928500   86.544300
  H    -46.084400   22.567700   85.874500
  C    -45.868400   20.562400   86.458700
  H    -46.563700   19.737800   86.631700
  H    -45.091600   20.344600   85.821700
  C    -45.071200   20.764900   87.714500
  H    -45.682100   21.052800   88.529900
  H    -44.533500   19.807800   88.038700
  H    -44.291900   21.498100   87.524000
  S    -49.740900   19.137000   81.080200
  C    -49.508200   17.516000   80.375700
  C    -48.234000   17.087800   80.525900
  C    -47.467600   17.874800   81.395400
  C    -48.161400   19.029100   81.804100
  H    -47.944800   16.128500   80.098600
  C    -46.059600   17.520100   81.699300
  H    -46.021400   16.628400   82.398600
  H    -45.731600   18.365200   82.388900
  C    -45.243600   17.393300   80.470600
  H    -45.340000   18.283900   79.753100
  H    -45.659100   16.531900   79.974400
  C    -43.760100   17.053200   80.741700
  H    -43.219100   16.993000   79.799600
  H    -43.676200   16.070100   81.173400
  H    -43.253900   17.834700   81.371100
  H    -46.287600   23.314100   83.464800
  H    -50.103200   17.198500   79.496500

 Total Charge           Charge          ....    0
 Multiplicity           Mult            ....    1
 Number of Electrons    NEL             ....  134
 Basis Dimension        Dim             ....  322

ORBITAL ENERGIES
----------------

  NO   OCC          E(Eh)            E(eV)
   0   2.0000     -88.967490     -2420.9285
   1   2.0000     -88.962975     -2420.8056
   2   2.0000     -10.326301      -280.9929
   3   2.0000     -10.324250      -280.9371
   4   2.0000     -10.317062      -280.7415
   5   2.0000     -10.313308      -280.6394
   6   2.0000     -10.298925      -280.2480
   7   2.0000     -10.298432      -280.2346
   8   2.0000     -10.292106      -280.0625
   9   2.0000     -10.290820      -280.0274
  10   2.0000     -10.288723      -279.9704
  11   2.0000     -10.287999      -279.9507
  12   2.0000     -10.285890      -279.8933
  13   2.0000     -10.279067      -279.7076
  14   2.0000     -10.278905      -279.7032
  15   2.0000     -10.274918      -279.5947
  16   2.0000      -8.082995      -219.9495
  17   2.0000      -8.077687      -219.8050
  18   2.0000      -6.041332      -164.3930
  19   2.0000      -6.037611      -164.2917
  20   2.0000      -6.036095      -164.2505
  21   2.0000      -6.033671      -164.1845
  22   2.0000      -6.032339      -164.1483
  23   2.0000      -6.028428      -164.0419
  24   2.0000      -1.010888       -27.5077
  25   2.0000      -0.989294       -26.9201
  26   2.0000      -0.921617       -25.0785
  27   2.0000      -0.914429       -24.8829
  28   2.0000      -0.872524       -23.7426
  29   2.0000      -0.856228       -23.2991
  30   2.0000      -0.848041       -23.0764
  31   2.0000      -0.818100       -22.2616
  32   2.0000      -0.783384       -21.3170
  33   2.0000      -0.768026       -20.8990
  34   2.0000      -0.707048       -19.2397
  35   2.0000      -0.695206       -18.9175
  36   2.0000      -0.688161       -18.7258
  37   2.0000      -0.654110       -17.7993
  38   2.0000      -0.648303       -17.6412
  39   2.0000      -0.622895       -16.9498
  40   2.0000      -0.595156       -16.1950
  41   2.0000      -0.585093       -15.9212
  42   2.0000      -0.565905       -15.3991
  43   2.0000      -0.560990       -15.2653
  44   2.0000      -0.527753       -14.3609
  45   2.0000      -0.523640       -14.2490
  46   2.0000      -0.515084       -14.0162
  47   2.0000      -0.510485       -13.8910
  48   2.0000      -0.504463       -13.7271
  49   2.0000      -0.495766       -13.4905
  50   2.0000      -0.490328       -13.3425
  51   2.0000      -0.482314       -13.1244
  52   2.0000      -0.473841       -12.8939
  53   2.0000      -0.465077       -12.6554
  54   2.0000      -0.459462       -12.5026
  55   2.0000      -0.449206       -12.2235
  56   2.0000      -0.445466       -12.1217
  57   2.0000      -0.441517       -12.0143
  58   2.0000      -0.437282       -11.8990
  59   2.0000      -0.422639       -11.5006
  60   2.0000      -0.418140       -11.3782
  61   2.0000      -0.410948       -11.1825
  62   2.0000      -0.408756       -11.1228
  63   2.0000      -0.341284        -9.2868
  64   2.0000      -0.330617        -8.9966
  65   2.0000      -0.324972        -8.8429
  66   2.0000      -0.296534        -8.0691
  67   0.0000       0.035340         0.9617
  68   0.0000       0.052878         1.4389
  69   0.0000       0.108881         2.9628
  70   0.0000       0.120987         3.2922
  71   0.0000       0.130173         3.5422

MULLIKEN ATOMIC CHARGES
-----------------------
   0 S :    0.132933
   1 C :   -0.140464
   2 C :   -0.051326
   3 C :    0.067777
   4 C :   -0.183696
   5 H :   -0.017955
   6 C :    0.080884
   7 H :    0.048297
   8 H :   -0.012624
   9 C :   -0.078078
  10 H :    0.034544
  11 H :    0.013943
  12 C :   -0.047474
  13 H :    0.020458
  14 H :    0.043748
  15 H :    0.027430
  16 S :    0.090387
  17 C :   -0.092144
  18 C :   -0.059008
  19 C :   -0.017134
  20 C :   -0.186232
  21 H :    0.028737
  22 C :    0.061338
  23 H :    0.040639
  24 H :    0.028128
  25 C :   -0.113182
  26 H :    0.054408
  27 H :    0.021957
  28 C :   -0.028105
  29 H :    0.030472
  30 H :    0.024931
  31 H :    0.041716
  32 H :    0.062983
  33 H :    0.071709
Sum of atomic charges:    0.0000000

LOEWDIN ATOMIC CHARGES
----------------------
   0 S :    0.423920
   1 C :   -0.206897
   2 C :   -0.066740
   3 C :   -0.044751
   4 C :   -0.203876
   5 H :    0.020997
   6 C :   -0.038551
   7 H :    0.044552
   8 H :    0.020164
   9 C :   -0.044001
  10 H :    0.024198
  11 H :    0.017645
  12 C :   -0.059610
  13 H :    0.014170
  14 H :    0.038758
  15 H :    0.022911
  16 S :    0.392340
  17 C :   -0.187677
  18 C :   -0.068531
  19 C :   -0.059414
  20 C :   -0.201175
  21 H :    0.035020
  22 C :   -0.045543
  23 H :    0.038172
  24 H :    0.034484
  25 C :   -0.046344
  26 H :    0.038217
  27 H :    0.020660
  28 C :   -0.064915
  29 H :    0.025981
  30 H :    0.022234
  31 H :    0.030156
  32 H :    0.037710
  33 H :    0.035734

  Mayer bond orders larger than 0.100000
B(  0-S ,  1-C ) :   1.1583 B(  0-S ,  4-C ) :   1.1525 B(  1-C ,  2-C ) :   1.5867
B(  1-C , 32-H ) :   0.9582 B(  2-C ,  3-C ) :   1.2171 B(  2-C ,  6-C ) :   1.0605
B(  3-C ,  4-C ) :   1.5747 B(  3-C ,  5-H ) :   1.0110 B(  4-C , 20-C ) :   1.0227
B(  6-C ,  7-H ) :   0.9202 B(  6-C ,  8-H ) :   0.9286 B(  6-C ,  9-C ) :   1.0691
B(  9-C , 10-H ) :   0.9467 B(  9-C , 11-H ) :   0.9576 B(  9-C , 12-C ) :   1.0974
B( 12-C , 13-H ) :   0.9735 B( 12-C , 14-H ) :   0.9719 B( 12-C , 15-H ) :   0.9734
B( 16-S , 17-C ) :   1.1363 B( 16-S , 20-C ) :   1.1618 B( 17-C , 18-C ) :   1.6424
B( 17-C , 20-C ) :   0.1008 B( 17-C , 33-H ) :   0.9520 B( 18-C , 19-C ) :   1.2438
B( 18-C , 21-H ) :   0.9810 B( 19-C , 20-C ) :   1.5851 B( 19-C , 22-C ) :   1.0463
B( 22-C , 23-H ) :   0.9281 B( 22-C , 24-H ) :   0.9251 B( 22-C , 25-C ) :   1.0613
B( 25-C , 26-H ) :   0.9551 B( 25-C , 27-H ) :   0.9474 B( 25-C , 28-C ) :   1.0906
B( 28-C , 29-H ) :   0.9736 B( 28-C , 30-H ) :   0.9715 B( 28-C , 31-H ) :   0.9757

Dispersion correction           -0.013706682
FINAL SINGLE POINT ENERGY     -1339.857946695060

DIPOLE MOMENT
-------------
                                X             Y             Z
Electronic contribution:    -22.81691       8.52298     -15.08290
Nuclear contribution   :     23.34851      -8.76190      15.29650
                        -----------------------------------------
Total Dipole Moment    :      0.53159      -0.23892       0.21359
                        -----------------------------------------
Magnitude (a.u.)       :      0.62072
Magnitude (Debye)      :      1.57775

Rotational constants in cm-1:     0.017070     0.008507     0.006830
Rotational constants in MHz :   511.731511   255.041313   204.755816

                             ****ORCA TERMINATED NORMALLY****
TOTAL RUN TIME: 0 days 0 hours 0 minutes 29 seconds 280 msec
