                         Program Version 4.2.1 -  RELEASE  -
|  1> ! wB97X-D3 SP def2-SVP
|  2> %pal
|  3> nprocs 16
|  4> end
|  5>
|  6> * xyz 0 1
|  7> S 	 48.3112 	 13.6423 	 102.957
|  8> C 	 48.5059 	 15.3856 	 102.619
|  9> C 	 47.6804 	 15.7281 	 101.564
| 10> C 	 46.7907 	 14.6453 	 101.184
| 11> C 	 47.0118 	 13.4088 	 101.736
| 12> H 	 46.0032 	 14.7521 	 100.521
| 13> C 	 47.5384 	 17.1082 	 101.042
| 14> H 	 46.687 	 17.0051 	 100.368
| 15> H 	 48.4082 	 17.441 	 100.488
| 16> C 	 47.224 	 18.1522 	 102.088
| 17> H 	 47.9801 	 18.3446 	 102.814
| 18> H 	 47.0329 	 19.1038 	 101.548
| 19> C 	 45.8393 	 17.8485 	 102.709
| 20> H 	 45.0057 	 17.9066 	 102.06
| 21> H 	 45.8516 	 16.9404 	 103.123
| 22> H 	 45.6089 	 18.51 	 103.475
| 23> S 	 44.9333 	 12.1689 	 103.07
| 24> C 	 44.0784 	 10.8442 	 102.31
| 25> C 	 44.6527 	 10.5146 	 101.121
| 26> C 	 45.7017 	 11.4113 	 100.783
| 27> C 	 46.122 	 12.2821 	 101.816
| 28> H 	 44.2342 	 9.69549 	 100.549
| 29> C 	 46.2851 	 11.3404 	 99.4336
| 30> H 	 46.9081 	 10.4416 	 99.4628
| 31> H 	 46.958 	 12.2459 	 99.441
| 32> C 	 45.2864 	 11.5168 	 98.1964
| 33> H 	 44.7065 	 10.5794 	 98.091
| 34> H 	 45.8613 	 11.6008 	 97.2628
| 35> C 	 44.4139 	 12.7812 	 98.3374
| 36> H 	 43.8601 	 12.8852 	 97.3529
| 37> H 	 45.119 	 13.6332 	 98.381
| 38> H 	 43.7124 	 12.6996 	 99.1802
| 39> H 	 49.1695 	 16.1695 	 103.003
| 40> H 	 43.2365 	 10.2675 	 102.738
| 41> *
| 42>
| 43>                          ****END OF INPUT****

CARTESIAN COORDINATES (ANGSTROEM)
---------------------------------
  S     48.311200   13.642300  102.957000
  C     48.505900   15.385600  102.619000
  C     47.680400   15.728100  101.564000
  C     46.790700   14.645300  101.184000
  C     47.011800   13.408800  101.736000
  H     46.003200   14.752100  100.521000
  C     47.538400   17.108200  101.042000
  H     46.687000   17.005100  100.368000
  H     48.408200   17.441000  100.488000
  C     47.224000   18.152200  102.088000
  H     47.980100   18.344600  102.814000
  H     47.032900   19.103800  101.548000
  C     45.839300   17.848500  102.709000
  H     45.005700   17.906600  102.060000
  H     45.851600   16.940400  103.123000
  H     45.608900   18.510000  103.475000
  S     44.933300   12.168900  103.070000
  C     44.078400   10.844200  102.310000
  C     44.652700   10.514600  101.121000
  C     45.701700   11.411300  100.783000
  C     46.122000   12.282100  101.816000
  H     44.234200    9.695490  100.549000
  C     46.285100   11.340400   99.433600
  H     46.908100   10.441600   99.462800
  H     46.958000   12.245900   99.441000
  C     45.286400   11.516800   98.196400
  H     44.706500   10.579400   98.091000
  H     45.861300   11.600800   97.262800
  C     44.413900   12.781200   98.337400
  H     43.860100   12.885200   97.352900
  H     45.119000   13.633200   98.381000
  H     43.712400   12.699600   99.180200
  H     49.169500   16.169500  103.003000
  H     43.236500   10.267500  102.738000

 Total Charge           Charge          ....    0
 Multiplicity           Mult            ....    1
 Number of Electrons    NEL             ....  134
 Basis Dimension        Dim             ....  322

ORBITAL ENERGIES
----------------

  NO   OCC          E(Eh)            E(eV)
   0   2.0000     -88.964095     -2420.8361
   1   2.0000     -88.963515     -2420.8203
   2   2.0000     -10.331457      -281.1332
   3   2.0000     -10.324995      -280.9574
   4   2.0000     -10.319694      -280.8131
   5   2.0000     -10.319667      -280.8124
   6   2.0000     -10.301648      -280.3221
   7   2.0000     -10.298306      -280.2311
   8   2.0000     -10.295655      -280.1590
   9   2.0000     -10.293676      -280.1052
  10   2.0000     -10.289947      -280.0037
  11   2.0000     -10.289004      -279.9780
  12   2.0000     -10.287709      -279.9428
  13   2.0000     -10.287633      -279.9407
  14   2.0000     -10.286297      -279.9044
  15   2.0000     -10.254625      -279.0425
  16   2.0000      -8.079063      -219.8425
  17   2.0000      -8.076842      -219.7820
  18   2.0000      -6.037648      -164.2928
  19   2.0000      -6.035598      -164.2370
  20   2.0000      -6.033389      -164.1769
  21   2.0000      -6.031404      -164.1228
  22   2.0000      -6.029845      -164.0804
  23   2.0000      -6.027507      -164.0168
  24   2.0000      -1.007196       -27.4072
  25   2.0000      -0.982515       -26.7356
  26   2.0000      -0.919923       -25.0324
  27   2.0000      -0.903959       -24.5980
  28   2.0000      -0.873845       -23.7785
  29   2.0000      -0.846760       -23.0415
  30   2.0000      -0.842491       -22.9254
  31   2.0000      -0.820624       -22.3303
  32   2.0000      -0.785223       -21.3670
  33   2.0000      -0.766226       -20.8501
  34   2.0000      -0.713204       -19.4073
  35   2.0000      -0.709338       -19.3021
  36   2.0000      -0.694314       -18.8932
  37   2.0000      -0.654362       -17.8061
  38   2.0000      -0.637883       -17.3577
  39   2.0000      -0.615995       -16.7621
  40   2.0000      -0.586551       -15.9609
  41   2.0000      -0.579440       -15.7674
  42   2.0000      -0.560685       -15.2570
  43   2.0000      -0.553820       -15.0702
  44   2.0000      -0.548487       -14.9251
  45   2.0000      -0.545150       -14.8343
  46   2.0000      -0.519931       -14.1480
  47   2.0000      -0.513630       -13.9766
  48   2.0000      -0.509144       -13.8545
  49   2.0000      -0.496979       -13.5235
  50   2.0000      -0.490280       -13.3412
  51   2.0000      -0.473717       -12.8905
  52   2.0000      -0.466316       -12.6891
  53   2.0000      -0.464129       -12.6296
  54   2.0000      -0.458410       -12.4740
  55   2.0000      -0.444519       -12.0960
  56   2.0000      -0.442433       -12.0392
  57   2.0000      -0.439428       -11.9574
  58   2.0000      -0.436637       -11.8815
  59   2.0000      -0.425484       -11.5780
  60   2.0000      -0.416278       -11.3275
  61   2.0000      -0.411042       -11.1850
  62   2.0000      -0.407220       -11.0810
  63   2.0000      -0.345589        -9.4040
  64   2.0000      -0.324393        -8.8272
  65   2.0000      -0.320603        -8.7240
  66   2.0000      -0.305233        -8.3058
  67   0.0000       0.032109         0.8737
  68   0.0000       0.055295         1.5046
  69   0.0000       0.116592         3.1726
  70   0.0000       0.118594         3.2271
  71   0.0000       0.129577         3.5260

MULLIKEN ATOMIC CHARGES
-----------------------
   0 S :    0.090772
   1 C :   -0.100075
   2 C :   -0.134531
   3 C :    0.067069
   4 C :   -0.169940
   5 H :   -0.021894
   6 C :    0.093590
   7 H :    0.012870
   8 H :    0.039530
   9 C :   -0.087617
  10 H :    0.028941
  11 H :    0.030822
  12 C :    0.015935
  13 H :    0.014574
  14 H :    0.009550
  15 H :    0.008079
  16 S :    0.112965
  17 C :   -0.104906
  18 C :   -0.015273
  19 C :   -0.099131
  20 C :   -0.098388
  21 H :    0.021692
  22 C :    0.035389
  23 H :    0.049708
  24 H :    0.027990
  25 C :   -0.086553
  26 H :    0.031353
  27 H :    0.037148
  28 C :   -0.073673
  29 H :    0.043807
  30 H :    0.040460
  31 H :    0.059879
  32 H :    0.052324
  33 H :    0.067532
Sum of atomic charges:    0.0000000

LOEWDIN ATOMIC CHARGES
----------------------
   0 S :    0.374272
   1 C :   -0.183613
   2 C :   -0.070447
   3 C :   -0.044034
   4 C :   -0.187510
   5 H :    0.015622
   6 C :   -0.034901
   7 H :    0.032061
   8 H :    0.033414
   9 C :   -0.032060
  10 H :    0.017689
  11 H :    0.030153
  12 C :   -0.047847
  13 H :    0.022526
  14 H :    0.008598
  15 H :    0.019396
  16 S :    0.419670
  17 C :   -0.182096
  18 C :   -0.079207
  19 C :   -0.052525
  20 C :   -0.225880
  21 H :    0.034750
  22 C :   -0.045307
  23 H :    0.037735
  24 H :    0.032949
  25 C :   -0.040130
  26 H :    0.019771
  27 H :    0.027252
  28 C :   -0.069330
  29 H :    0.035006
  30 H :    0.026825
  31 H :    0.030134
  32 H :    0.038368
  33 H :    0.038698

  Mayer bond orders larger than 0.100000
B(  0-S ,  1-C ) :   1.1372 B(  0-S ,  4-C ) :   1.1157 B(  1-C ,  2-C ) :   1.6135
B(  1-C , 32-H ) :   0.9643 B(  2-C ,  3-C ) :   1.2313 B(  2-C ,  6-C ) :   1.0230
B(  3-C ,  4-C ) :   1.5964 B(  3-C ,  5-H ) :   0.9992 B(  4-C , 20-C ) :   1.0237
B(  6-C ,  7-H ) :   0.9399 B(  6-C ,  8-H ) :   0.9289 B(  6-C ,  9-C ) :   1.0887
B(  9-C , 10-H ) :   0.9576 B(  9-C , 11-H ) :   0.9549 B(  9-C , 12-C ) :   1.0703
B( 12-C , 13-H ) :   0.9732 B( 12-C , 14-H ) :   0.9749 B( 12-C , 15-H ) :   0.9681
B( 16-S , 17-C ) :   1.1762 B( 16-S , 20-C ) :   1.1310 B( 17-C , 18-C ) :   1.5956
B( 17-C , 33-H ) :   0.9604 B( 18-C , 19-C ) :   1.2417 B( 18-C , 21-H ) :   0.9960
B( 19-C , 20-C ) :   1.5628 B( 19-C , 22-C ) :   1.0476 B( 22-C , 23-H ) :   0.9390
B( 22-C , 24-H ) :   0.9329 B( 22-C , 25-C ) :   1.0528 B( 25-C , 26-H ) :   0.9559
B( 25-C , 27-H ) :   0.9611 B( 25-C , 28-C ) :   1.0705 B( 28-C , 29-H ) :   0.9717
B( 28-C , 30-H ) :   0.9718 B( 28-C , 31-H ) :   0.9720

Dispersion correction           -0.015574881
FINAL SINGLE POINT ENERGY     -1339.856421848273

DIPOLE MOMENT
-------------
                                X             Y             Z
Electronic contribution:      6.30345     -14.09297      16.08303
Nuclear contribution   :     -6.68663      14.38383     -16.63783
                        -----------------------------------------
Total Dipole Moment    :     -0.38318       0.29086      -0.55480
                        -----------------------------------------
Magnitude (a.u.)       :      0.73433
Magnitude (Debye)      :      1.86651

Rotational constants in cm-1:     0.020592     0.008577     0.007649
Rotational constants in MHz :   617.343664   257.130904   229.304837

                             ****ORCA TERMINATED NORMALLY****
TOTAL RUN TIME: 0 days 0 hours 0 minutes 31 seconds 472 msec
