                         Program Version 4.2.1 -  RELEASE  -
|  1> ! wB97X-D3 SP def2-SVP
|  2> %pal
|  3> nprocs 16
|  4> end
|  5>
|  6> * xyz 0 1
|  7> S 	 41.4805 	 8.55353 	 78.9814
|  8> C 	 42.5946 	 9.74465 	 79.5422
|  9> C 	 42.1743 	 11.0124 	 79.2282
| 10> C 	 40.8251 	 11.0304 	 78.6859
| 11> C 	 40.3769 	 9.70752 	 78.4352
| 12> H 	 40.2458 	 11.9275 	 78.4487
| 13> C 	 42.8916 	 12.3098 	 79.4945
| 14> H 	 42.5999 	 13.157 	 78.8779
| 15> H 	 43.9861 	 12.1583 	 79.2568
| 16> C 	 43.0693 	 12.7576 	 80.9052
| 17> H 	 43.7003 	 12.0732 	 81.5501
| 18> H 	 43.5949 	 13.7101 	 80.8072
| 19> C 	 41.8212 	 13.1696 	 81.7222
| 20> H 	 41.4397 	 14.1607 	 81.3669
| 21> H 	 41.1062 	 12.3785 	 81.604
| 22> H 	 42.1168 	 13.3662 	 82.7996
| 23> S 	 38.9805 	 9.92707 	 76.0475
| 24> C 	 37.4895 	 9.11537 	 75.8946
| 25> C 	 36.9926 	 8.76149 	 77.0926
| 26> C 	 37.904 	 8.91773 	 78.135
| 27> C 	 39.1469 	 9.42322 	 77.6923
| 28> H 	 35.9995 	 8.37488 	 77.3094
| 29> C 	 37.4838 	 8.64266 	 79.5013
| 30> H 	 38.2519 	 8.02945 	 79.8425
| 31> H 	 36.5706 	 7.98199 	 79.5429
| 32> C 	 37.5541 	 9.78408 	 80.4542
| 33> H 	 38.5351 	 10.2359 	 80.289
| 34> H 	 37.5711 	 9.40254 	 81.5028
| 35> C 	 36.4489 	 10.8311 	 80.2089
| 36> H 	 35.4473 	 10.5866 	 80.6315
| 37> H 	 36.3471 	 11.1478 	 79.1814
| 38> H 	 36.8085 	 11.6876 	 80.7885
| 39> H 	 43.529 	 9.57931 	 80.0896
| 40> H 	 36.9248 	 8.91866 	 75.0292
| 41> *
| 42>
| 43>                          ****END OF INPUT****

CARTESIAN COORDINATES (ANGSTROEM)
---------------------------------
  S     41.480500    8.553530   78.981400
  C     42.594600    9.744650   79.542200
  C     42.174300   11.012400   79.228200
  C     40.825100   11.030400   78.685900
  C     40.376900    9.707520   78.435200
  H     40.245800   11.927500   78.448700
  C     42.891600   12.309800   79.494500
  H     42.599900   13.157000   78.877900
  H     43.986100   12.158300   79.256800
  C     43.069300   12.757600   80.905200
  H     43.700300   12.073200   81.550100
  H     43.594900   13.710100   80.807200
  C     41.821200   13.169600   81.722200
  H     41.439700   14.160700   81.366900
  H     41.106200   12.378500   81.604000
  H     42.116800   13.366200   82.799600
  S     38.980500    9.927070   76.047500
  C     37.489500    9.115370   75.894600
  C     36.992600    8.761490   77.092600
  C     37.904000    8.917730   78.135000
  C     39.146900    9.423220   77.692300
  H     35.999500    8.374880   77.309400
  C     37.483800    8.642660   79.501300
  H     38.251900    8.029450   79.842500
  H     36.570600    7.981990   79.542900
  C     37.554100    9.784080   80.454200
  H     38.535100   10.235900   80.289000
  H     37.571100    9.402540   81.502800
  C     36.448900   10.831100   80.208900
  H     35.447300   10.586600   80.631500
  H     36.347100   11.147800   79.181400
  H     36.808500   11.687600   80.788500
  H     43.529000    9.579310   80.089600
  H     36.924800    8.918660   75.029200

 Total Charge           Charge          ....    0
 Multiplicity           Mult            ....    1
 Number of Electrons    NEL             ....  134
 Basis Dimension        Dim             ....  322

ORBITAL ENERGIES
----------------

  NO   OCC          E(Eh)            E(eV)
   0   2.0000     -88.972643     -2421.0687
   1   2.0000     -88.966182     -2420.8929
   2   2.0000     -10.328985      -281.0660
   3   2.0000     -10.321379      -280.8590
   4   2.0000     -10.313123      -280.6344
   5   2.0000     -10.305801      -280.4351
   6   2.0000     -10.302116      -280.3348
   7   2.0000     -10.298176      -280.2276
   8   2.0000     -10.293384      -280.0972
   9   2.0000     -10.292303      -280.0678
  10   2.0000     -10.287683      -279.9421
  11   2.0000     -10.281329      -279.7692
  12   2.0000     -10.280550      -279.7480
  13   2.0000     -10.279566      -279.7212
  14   2.0000     -10.274826      -279.5922
  15   2.0000     -10.272407      -279.5264
  16   2.0000      -8.088255      -220.0926
  17   2.0000      -8.081849      -219.9183
  18   2.0000      -6.046666      -164.5381
  19   2.0000      -6.042462      -164.4237
  20   2.0000      -6.040214      -164.3626
  21   2.0000      -6.039235      -164.3359
  22   2.0000      -6.036294      -164.2559
  23   2.0000      -6.032636      -164.1564
  24   2.0000      -1.015445       -27.6317
  25   2.0000      -0.995509       -27.0892
  26   2.0000      -0.919219       -25.0132
  27   2.0000      -0.916887       -24.9498
  28   2.0000      -0.871158       -23.7054
  29   2.0000      -0.850877       -23.1535
  30   2.0000      -0.845426       -23.0052
  31   2.0000      -0.812374       -22.1058
  32   2.0000      -0.787386       -21.4259
  33   2.0000      -0.775939       -21.1144
  34   2.0000      -0.710491       -19.3334
  35   2.0000      -0.692517       -18.8443
  36   2.0000      -0.685065       -18.6416
  37   2.0000      -0.660793       -17.9811
  38   2.0000      -0.641865       -17.4660
  39   2.0000      -0.608113       -16.5476
  40   2.0000      -0.596736       -16.2380
  41   2.0000      -0.582367       -15.8470
  42   2.0000      -0.554724       -15.0948
  43   2.0000      -0.548800       -14.9336
  44   2.0000      -0.546199       -14.8628
  45   2.0000      -0.544021       -14.8036
  46   2.0000      -0.514514       -14.0006
  47   2.0000      -0.510548       -13.8927
  48   2.0000      -0.503024       -13.6880
  49   2.0000      -0.494387       -13.4530
  50   2.0000      -0.490716       -13.3531
  51   2.0000      -0.483161       -13.1475
  52   2.0000      -0.478281       -13.0147
  53   2.0000      -0.470816       -12.8116
  54   2.0000      -0.463796       -12.6205
  55   2.0000      -0.446897       -12.1607
  56   2.0000      -0.443311       -12.0631
  57   2.0000      -0.437518       -11.9055
  58   2.0000      -0.429121       -11.6770
  59   2.0000      -0.419565       -11.4169
  60   2.0000      -0.417371       -11.3572
  61   2.0000      -0.411792       -11.2054
  62   2.0000      -0.403267       -10.9735
  63   2.0000      -0.335914        -9.1407
  64   2.0000      -0.331220        -9.0129
  65   2.0000      -0.325576        -8.8594
  66   2.0000      -0.297600        -8.0981
  67   0.0000       0.038575         1.0497
  68   0.0000       0.057174         1.5558
  69   0.0000       0.107163         2.9161
  70   0.0000       0.125630         3.4186
  71   0.0000       0.132534         3.6064

MULLIKEN ATOMIC CHARGES
-----------------------
   0 S :    0.151339
   1 C :   -0.131901
   2 C :   -0.069434
   3 C :    0.016688
   4 C :   -0.185763
   5 H :    0.023983
   6 C :    0.059605
   7 H :    0.027687
   8 H :    0.034317
   9 C :   -0.109095
  10 H :    0.035206
  11 H :    0.025460
  12 C :   -0.065569
  13 H :    0.027477
  14 H :    0.040089
  15 H :    0.042443
  16 S :    0.137415
  17 C :   -0.056326
  18 C :   -0.039738
  19 C :   -0.052189
  20 C :   -0.188233
  21 H :    0.010032
  22 C :    0.126271
  23 H :   -0.003956
  24 H :    0.021816
  25 C :   -0.076716
  26 H :    0.035149
  27 H :    0.031611
  28 C :   -0.051757
  29 H :    0.033642
  30 H :    0.038088
  31 H :    0.027486
  32 H :    0.050803
  33 H :    0.034068
Sum of atomic charges:    0.0000000

LOEWDIN ATOMIC CHARGES
----------------------
   0 S :    0.458373
   1 C :   -0.216609
   2 C :   -0.063713
   3 C :   -0.067910
   4 C :   -0.224107
   5 H :    0.033140
   6 C :   -0.043236
   7 H :    0.032588
   8 H :    0.045798
   9 C :   -0.050124
  10 H :    0.025272
  11 H :    0.025859
  12 C :   -0.072954
  13 H :    0.024783
  14 H :    0.019080
  15 H :    0.033401
  16 S :    0.444769
  17 C :   -0.190161
  18 C :   -0.076943
  19 C :   -0.050133
  20 C :   -0.222719
  21 H :    0.031738
  22 C :   -0.044322
  23 H :    0.028311
  24 H :    0.032978
  25 C :   -0.037260
  26 H :    0.028772
  27 H :    0.029462
  28 C :   -0.070644
  29 H :    0.026429
  30 H :    0.024114
  31 H :    0.027459
  32 H :    0.034545
  33 H :    0.023961

  Mayer bond orders larger than 0.100000
B(  0-S ,  1-C ) :   1.1442 B(  0-S ,  4-C ) :   1.1967 B(  1-C ,  2-C ) :   1.5965
B(  1-C , 32-H ) :   0.9665 B(  2-C ,  3-C ) :   1.2492 B(  2-C ,  6-C ) :   1.0296
B(  3-C ,  4-C ) :   1.5168 B(  3-C ,  5-H ) :   0.9964 B(  4-C , 20-C ) :   1.0312
B(  6-C ,  7-H ) :   0.9449 B(  6-C ,  8-H ) :   0.9283 B(  6-C ,  9-C ) :   1.0838
B(  9-C , 10-H ) :   0.9581 B(  9-C , 11-H ) :   0.9540 B(  9-C , 12-C ) :   1.0707
B( 12-C , 13-H ) :   0.9762 B( 12-C , 14-H ) :   0.9790 B( 12-C , 15-H ) :   0.9739
B( 16-S , 17-C ) :   1.1790 B( 16-S , 20-C ) :   1.1548 B( 17-C , 18-C ) :   1.5527
B( 17-C , 20-C ) :   0.1012 B( 17-C , 33-H ) :   0.9712 B( 18-C , 19-C ) :   1.3078
B( 18-C , 21-H ) :   0.9910 B( 19-C , 20-C ) :   1.5226 B( 19-C , 22-C ) :   1.0530
B( 22-C , 23-H ) :   0.8895 B( 22-C , 24-H ) :   0.9342 B( 22-C , 25-C ) :   1.0850
B( 25-C , 26-H ) :   0.9511 B( 25-C , 27-H ) :   0.9493 B( 25-C , 28-C ) :   1.0720
B( 28-C , 29-H ) :   0.9757 B( 28-C , 30-H ) :   0.9765 B( 28-C , 31-H ) :   0.9753

Dispersion correction           -0.015512069
FINAL SINGLE POINT ENERGY     -1339.865411476805

DIPOLE MOMENT
-------------
                                X             Y             Z
Electronic contribution:      2.93101     -15.27609     -20.12035
Nuclear contribution   :     -2.94999      15.54460      20.41252
                        -----------------------------------------
Total Dipole Moment    :     -0.01898       0.26851       0.29217
                        -----------------------------------------
Magnitude (a.u.)       :      0.39727
Magnitude (Debye)      :      1.00977

Rotational constants in cm-1:     0.020586     0.008851     0.007713
Rotational constants in MHz :   617.147278   265.336884   231.217032

                             ****ORCA TERMINATED NORMALLY****
TOTAL RUN TIME: 0 days 0 hours 0 minutes 31 seconds 650 msec
