                         Program Version 4.2.1 -  RELEASE  -
|  1> ! wB97X-D3 SP def2-SVP
|  2> %pal
|  3> nprocs 16
|  4> end
|  5>
|  6> * xyz 0 1
|  7> S 	 54.8311 	 20.0975 	 46.5881
|  8> C 	 53.2959 	 20.8226 	 47.1812
|  9> C 	 52.7315 	 20.0499 	 48.2014
| 10> C 	 53.512 	 18.9784 	 48.5515
| 11> C 	 54.6386 	 18.7628 	 47.7532
| 12> H 	 53.2209 	 18.294 	 49.3596
| 13> C 	 51.3831 	 20.253 	 48.8299
| 14> H 	 51.496 	 21.1105 	 49.4906
| 15> H 	 51.0676 	 19.4154 	 49.3908
| 16> C 	 50.2001 	 20.6385 	 47.8889
| 17> H 	 50.413 	 20.067 	 47.0118
| 18> H 	 49.2882 	 20.2516 	 48.1806
| 19> C 	 50.0173 	 22.1342 	 47.4756
| 20> H 	 49.72 	 22.7486 	 48.3375
| 21> H 	 50.9903 	 22.515 	 47.2156
| 22> H 	 49.4167 	 22.3635 	 46.5809
| 23> S 	 57.3617 	 18.1211 	 47.5442
| 24> C 	 57.9163 	 16.5823 	 48.1704
| 25> C 	 56.8762 	 15.8196 	 48.6983
| 26> C 	 55.5992 	 16.4664 	 48.6176
| 27> C 	 55.6826 	 17.7163 	 47.9617
| 28> H 	 57.2154 	 14.8993 	 49.1755
| 29> C 	 54.3211 	 15.7995 	 49.1441
| 30> H 	 53.9852 	 16.4314 	 49.9417
| 31> H 	 54.64 	 14.8561 	 49.6719
| 32> C 	 53.2359 	 15.6456 	 48.036
| 33> H 	 53.5831 	 14.9153 	 47.3049
| 34> H 	 52.9886 	 16.5147 	 47.3789
| 35> C 	 51.979 	 15.0788 	 48.703
| 36> H 	 52.1495 	 14.1143 	 49.1715
| 37> H 	 51.0934 	 15.0595 	 48.0888
| 38> H 	 51.7766 	 15.7031 	 49.6513
| 39> H 	 52.8105 	 21.7305 	 46.8269
| 40> H 	 58.9209 	 16.1537 	 48.242
| 41> *
| 42>
| 43>                          ****END OF INPUT****

CARTESIAN COORDINATES (ANGSTROEM)
---------------------------------
  S     54.831100   20.097500   46.588100
  C     53.295900   20.822600   47.181200
  C     52.731500   20.049900   48.201400
  C     53.512000   18.978400   48.551500
  C     54.638600   18.762800   47.753200
  H     53.220900   18.294000   49.359600
  C     51.383100   20.253000   48.829900
  H     51.496000   21.110500   49.490600
  H     51.067600   19.415400   49.390800
  C     50.200100   20.638500   47.888900
  H     50.413000   20.067000   47.011800
  H     49.288200   20.251600   48.180600
  C     50.017300   22.134200   47.475600
  H     49.720000   22.748600   48.337500
  H     50.990300   22.515000   47.215600
  H     49.416700   22.363500   46.580900
  S     57.361700   18.121100   47.544200
  C     57.916300   16.582300   48.170400
  C     56.876200   15.819600   48.698300
  C     55.599200   16.466400   48.617600
  C     55.682600   17.716300   47.961700
  H     57.215400   14.899300   49.175500
  C     54.321100   15.799500   49.144100
  H     53.985200   16.431400   49.941700
  H     54.640000   14.856100   49.671900
  C     53.235900   15.645600   48.036000
  H     53.583100   14.915300   47.304900
  H     52.988600   16.514700   47.378900
  C     51.979000   15.078800   48.703000
  H     52.149500   14.114300   49.171500
  H     51.093400   15.059500   48.088800
  H     51.776600   15.703100   49.651300
  H     52.810500   21.730500   46.826900
  H     58.920900   16.153700   48.242000

 Total Charge           Charge          ....    0
 Multiplicity           Mult            ....    1
 Number of Electrons    NEL             ....  134
 Basis Dimension        Dim             ....  322

ORBITAL ENERGIES
----------------

  NO   OCC          E(Eh)            E(eV)
   0   2.0000     -88.973009     -2421.0787
   1   2.0000     -88.970108     -2420.9997
   2   2.0000     -10.338063      -281.3130
   3   2.0000     -10.334674      -281.2208
   4   2.0000     -10.318311      -280.7755
   5   2.0000     -10.318292      -280.7750
   6   2.0000     -10.309229      -280.5284
   7   2.0000     -10.301392      -280.3151
   8   2.0000     -10.297794      -280.2172
   9   2.0000     -10.295568      -280.1567
  10   2.0000     -10.291852      -280.0555
  11   2.0000     -10.291328      -280.0413
  12   2.0000     -10.290450      -280.0174
  13   2.0000     -10.283934      -279.8401
  14   2.0000     -10.281897      -279.7847
  15   2.0000     -10.281302      -279.7685
  16   2.0000      -8.085907      -220.0287
  17   2.0000      -8.083975      -219.9761
  18   2.0000      -6.044565      -164.4810
  19   2.0000      -6.042577      -164.4269
  20   2.0000      -6.040664      -164.3748
  21   2.0000      -6.038613      -164.3190
  22   2.0000      -6.036634      -164.2652
  23   2.0000      -6.034693      -164.2123
  24   2.0000      -1.000026       -27.2121
  25   2.0000      -0.979585       -26.6559
  26   2.0000      -0.910914       -24.7872
  27   2.0000      -0.906955       -24.6795
  28   2.0000      -0.862163       -23.4606
  29   2.0000      -0.851647       -23.1745
  30   2.0000      -0.847200       -23.0535
  31   2.0000      -0.810065       -22.0430
  32   2.0000      -0.786370       -21.3982
  33   2.0000      -0.769672       -20.9438
  34   2.0000      -0.712313       -19.3830
  35   2.0000      -0.709331       -19.3019
  36   2.0000      -0.694555       -18.8998
  37   2.0000      -0.657517       -17.8919
  38   2.0000      -0.632374       -17.2078
  39   2.0000      -0.622700       -16.9445
  40   2.0000      -0.589405       -16.0385
  41   2.0000      -0.574854       -15.6426
  42   2.0000      -0.559570       -15.2267
  43   2.0000      -0.549990       -14.9660
  44   2.0000      -0.539206       -14.6725
  45   2.0000      -0.526585       -14.3291
  46   2.0000      -0.515326       -14.0227
  47   2.0000      -0.507987       -13.8230
  48   2.0000      -0.504169       -13.7191
  49   2.0000      -0.492636       -13.4053
  50   2.0000      -0.487136       -13.2556
  51   2.0000      -0.485957       -13.2236
  52   2.0000      -0.474692       -12.9170
  53   2.0000      -0.466571       -12.6961
  54   2.0000      -0.453921       -12.3518
  55   2.0000      -0.450939       -12.2707
  56   2.0000      -0.448440       -12.2027
  57   2.0000      -0.440885       -11.9971
  58   2.0000      -0.432546       -11.7702
  59   2.0000      -0.427873       -11.6430
  60   2.0000      -0.422261       -11.4903
  61   2.0000      -0.415595       -11.3089
  62   2.0000      -0.413079       -11.2405
  63   2.0000      -0.351534        -9.5657
  64   2.0000      -0.337052        -9.1717
  65   2.0000      -0.331712        -9.0263
  66   2.0000      -0.279070        -7.5939
  67   0.0000       0.016080         0.4376
  68   0.0000       0.077239         2.1018
  69   0.0000       0.092444         2.5155
  70   0.0000       0.121678         3.3110
  71   0.0000       0.133110         3.6221

MULLIKEN ATOMIC CHARGES
-----------------------
   0 S :    0.105056
   1 C :   -0.132065
   2 C :   -0.067909
   3 C :   -0.012960
   4 C :   -0.122979
   5 H :    0.005579
   6 C :    0.087837
   7 H :    0.036647
   8 H :    0.017482
   9 C :   -0.046497
  10 H :    0.019947
  11 H :    0.010481
  12 C :   -0.053192
  13 H :    0.036390
  14 H :   -0.004133
  15 H :    0.047671
  16 S :    0.108486
  17 C :   -0.097881
  18 C :   -0.056307
  19 C :   -0.049157
  20 C :   -0.125197
  21 H :    0.022954
  22 C :    0.054631
  23 H :    0.028479
  24 H :    0.031354
  25 C :   -0.085158
  26 H :    0.032980
  27 H :    0.066373
  28 C :   -0.042338
  29 H :    0.023077
  30 H :    0.039488
  31 H :    0.015822
  32 H :    0.047026
  33 H :    0.058014
Sum of atomic charges:   -0.0000000

LOEWDIN ATOMIC CHARGES
----------------------
   0 S :    0.381652
   1 C :   -0.191048
   2 C :   -0.062993
   3 C :   -0.068636
   4 C :   -0.177080
   5 H :    0.033467
   6 C :   -0.021919
   7 H :    0.036555
   8 H :    0.027429
   9 C :   -0.034104
  10 H :    0.023049
  11 H :    0.013633
  12 C :   -0.067857
  13 H :    0.027098
  14 H :    0.015126
  15 H :    0.033601
  16 S :    0.397499
  17 C :   -0.193363
  18 C :   -0.078332
  19 C :   -0.054340
  20 C :   -0.189884
  21 H :    0.035127
  22 C :   -0.029017
  23 H :    0.022978
  24 H :    0.039390
  25 C :   -0.045335
  26 H :    0.027182
  27 H :    0.037068
  28 C :   -0.070318
  29 H :    0.022591
  30 H :    0.022514
  31 H :    0.026101
  32 H :    0.026010
  33 H :    0.036155

  Mayer bond orders larger than 0.100000
B(  0-S ,  1-C ) :   1.1287 B(  0-S ,  4-C ) :   1.1499 B(  1-C ,  2-C ) :   1.5756
B(  1-C ,  4-C ) :   0.1110 B(  1-C , 32-H ) :   0.9636 B(  2-C ,  3-C ) :   1.3102
B(  2-C ,  6-C ) :   1.0184 B(  3-C ,  4-C ) :   1.5277 B(  3-C ,  5-H ) :   0.9792
B(  4-C , 20-C ) :   1.0692 B(  6-C ,  7-H ) :   0.9326 B(  6-C ,  8-H ) :   0.9447
B(  6-C ,  9-C ) :   1.0591 B(  9-C , 10-H ) :   0.9587 B(  9-C , 11-H ) :   0.9604
B(  9-C , 12-C ) :   1.0672 B( 12-C , 13-H ) :   0.9716 B( 12-C , 14-H ) :   0.9782
B( 12-C , 15-H ) :   0.9732 B( 16-S , 17-C ) :   1.1506 B( 16-S , 20-C ) :   1.1336
B( 17-C , 18-C ) :   1.6305 B( 17-C , 33-H ) :   0.9604 B( 18-C , 19-C ) :   1.2487
B( 18-C , 21-H ) :   0.9863 B( 19-C , 20-C ) :   1.5737 B( 19-C , 22-C ) :   1.0269
B( 22-C , 23-H ) :   0.9327 B( 22-C , 24-H ) :   0.9366 B( 22-C , 25-C ) :   1.0461
B( 25-C , 26-H ) :   0.9519 B( 25-C , 27-H ) :   0.9573 B( 25-C , 28-C ) :   1.0784
B( 28-C , 29-H ) :   0.9713 B( 28-C , 30-H ) :   0.9742 B( 28-C , 31-H ) :   0.9730

Dispersion correction           -0.014749164
FINAL SINGLE POINT ENERGY     -1339.866028468331

DIPOLE MOMENT
-------------
                                X             Y             Z
Electronic contribution:     28.62247       3.98926      -7.18659
Nuclear contribution   :    -29.12976      -4.32627       7.59597
                        -----------------------------------------
Total Dipole Moment    :     -0.50729      -0.33702       0.40938
                        -----------------------------------------
Magnitude (a.u.)       :      0.73384
Magnitude (Debye)      :      1.86526

Rotational constants in cm-1:     0.020779     0.008708     0.006469
Rotational constants in MHz :   622.952295   261.050713   193.931635

                             ****ORCA TERMINATED NORMALLY****
TOTAL RUN TIME: 0 days 0 hours 0 minutes 30 seconds 789 msec
