                         Program Version 4.2.1 -  RELEASE  -
|  1> ! wB97X-D3 SP def2-SVP
|  2> %pal
|  3> nprocs 16
|  4> end
|  5>
|  6> * xyz 0 1
|  7> S 	 -11.1547 	 50.2241 	 31.3131
|  8> C 	 -10.2297 	 49.3397 	 30.1752
|  9> C 	 -8.98153 	 49.8308 	 30.0965
| 10> C 	 -8.65977 	 50.8015 	 31.0499
| 11> C 	 -9.76121 	 51.1369 	 31.8144
| 12> H 	 -7.69513 	 51.2719 	 31.1835
| 13> C 	 -7.94948 	 49.2877 	 29.1529
| 14> H 	 -8.32201 	 49.2767 	 28.1241
| 15> H 	 -7.86877 	 48.2688 	 29.4295
| 16> C 	 -6.51017 	 49.8705 	 29.1856
| 17> H 	 -6.73005 	 50.8923 	 29.1433
| 18> H 	 -6.06271 	 49.7188 	 30.1634
| 19> C 	 -5.54486 	 49.3369 	 28.0504
| 20> H 	 -4.55912 	 49.8435 	 28.1174
| 21> H 	 -5.33377 	 48.282 	 28.218
| 22> H 	 -6.03325 	 49.374 	 27.0528
| 23> S 	 -10.4562 	 53.6942 	 32.3191
| 24> C 	 -10.3918 	 54.2565 	 33.9884
| 25> C 	 -9.76338 	 53.3587 	 34.797
| 26> C 	 -9.42046 	 52.1431 	 34.1571
| 27> C 	 -9.82759 	 52.1441 	 32.8479
| 28> H 	 -9.54457 	 53.6206 	 35.865
| 29> C 	 -8.86806 	 51.0101 	 34.8964
| 30> H 	 -8.17471 	 51.3098 	 35.7299
| 31> H 	 -8.16607 	 50.5719 	 34.1765
| 32> C 	 -9.90811 	 50.1432 	 35.5206
| 33> H 	 -9.4301 	 49.1913 	 35.7835
| 34> H 	 -10.6469 	 49.8781 	 34.7559
| 35> C 	 -10.628 	 50.8008 	 36.6808
| 36> H 	 -11.3015 	 50.0782 	 37.1708
| 37> H 	 -11.2807 	 51.6233 	 36.3045
| 38> H 	 -9.95387 	 51.1612 	 37.3774
| 39> H 	 -10.5558 	 48.4434 	 29.6858
| 40> H 	 -10.5752 	 55.2448 	 34.2788
| 41> *
| 42>
| 43>                          ****END OF INPUT****

CARTESIAN COORDINATES (ANGSTROEM)
---------------------------------
  S    -11.154700   50.224100   31.313100
  C    -10.229700   49.339700   30.175200
  C     -8.981530   49.830800   30.096500
  C     -8.659770   50.801500   31.049900
  C     -9.761210   51.136900   31.814400
  H     -7.695130   51.271900   31.183500
  C     -7.949480   49.287700   29.152900
  H     -8.322010   49.276700   28.124100
  H     -7.868770   48.268800   29.429500
  C     -6.510170   49.870500   29.185600
  H     -6.730050   50.892300   29.143300
  H     -6.062710   49.718800   30.163400
  C     -5.544860   49.336900   28.050400
  H     -4.559120   49.843500   28.117400
  H     -5.333770   48.282000   28.218000
  H     -6.033250   49.374000   27.052800
  S    -10.456200   53.694200   32.319100
  C    -10.391800   54.256500   33.988400
  C     -9.763380   53.358700   34.797000
  C     -9.420460   52.143100   34.157100
  C     -9.827590   52.144100   32.847900
  H     -9.544570   53.620600   35.865000
  C     -8.868060   51.010100   34.896400
  H     -8.174710   51.309800   35.729900
  H     -8.166070   50.571900   34.176500
  C     -9.908110   50.143200   35.520600
  H     -9.430100   49.191300   35.783500
  H    -10.646900   49.878100   34.755900
  C    -10.628000   50.800800   36.680800
  H    -11.301500   50.078200   37.170800
  H    -11.280700   51.623300   36.304500
  H     -9.953870   51.161200   37.377400
  H    -10.555800   48.443400   29.685800
  H    -10.575200   55.244800   34.278800

 Total Charge           Charge          ....    0
 Multiplicity           Mult            ....    1
 Number of Electrons    NEL             ....  134
 Basis Dimension        Dim             ....  322

ORBITAL ENERGIES
----------------

  NO   OCC          E(Eh)            E(eV)
   0   2.0000     -88.965002     -2420.8608
   1   2.0000     -88.961868     -2420.7755
   2   2.0000     -10.323378      -280.9134
   3   2.0000     -10.319683      -280.8128
   4   2.0000     -10.308915      -280.5198
   5   2.0000     -10.303354      -280.3685
   6   2.0000     -10.294285      -280.1217
   7   2.0000     -10.290946      -280.0309
   8   2.0000     -10.290671      -280.0234
   9   2.0000     -10.289601      -279.9943
  10   2.0000     -10.289349      -279.9874
  11   2.0000     -10.286503      -279.9100
  12   2.0000     -10.284419      -279.8533
  13   2.0000     -10.284078      -279.8440
  14   2.0000     -10.279028      -279.7066
  15   2.0000     -10.271629      -279.5052
  16   2.0000      -8.080462      -219.8806
  17   2.0000      -8.076663      -219.7772
  18   2.0000      -6.038797      -164.3240
  19   2.0000      -6.035163      -164.2251
  20   2.0000      -6.034747      -164.2138
  21   2.0000      -6.031487      -164.1251
  22   2.0000      -6.031282      -164.1195
  23   2.0000      -6.027314      -164.0116
  24   2.0000      -1.014132       -27.5959
  25   2.0000      -0.991269       -26.9738
  26   2.0000      -0.918244       -24.9867
  27   2.0000      -0.910113       -24.7654
  28   2.0000      -0.872401       -23.7392
  29   2.0000      -0.849098       -23.1051
  30   2.0000      -0.846973       -23.0473
  31   2.0000      -0.817607       -22.2482
  32   2.0000      -0.783831       -21.3291
  33   2.0000      -0.772296       -21.0152
  34   2.0000      -0.719436       -19.5768
  35   2.0000      -0.698694       -19.0124
  36   2.0000      -0.688923       -18.7466
  37   2.0000      -0.661816       -18.0089
  38   2.0000      -0.643237       -17.5034
  39   2.0000      -0.621719       -16.9178
  40   2.0000      -0.599479       -16.3127
  41   2.0000      -0.571283       -15.5454
  42   2.0000      -0.565049       -15.3758
  43   2.0000      -0.554254       -15.0820
  44   2.0000      -0.546662       -14.8754
  45   2.0000      -0.524759       -14.2794
  46   2.0000      -0.517778       -14.0895
  47   2.0000      -0.507749       -13.8165
  48   2.0000      -0.500977       -13.6323
  49   2.0000      -0.495289       -13.4775
  50   2.0000      -0.485892       -13.2218
  51   2.0000      -0.483463       -13.1557
  52   2.0000      -0.478790       -13.0285
  53   2.0000      -0.469757       -12.7827
  54   2.0000      -0.460451       -12.5295
  55   2.0000      -0.452460       -12.3121
  56   2.0000      -0.442038       -12.0285
  57   2.0000      -0.438198       -11.9240
  58   2.0000      -0.435814       -11.8591
  59   2.0000      -0.423456       -11.5228
  60   2.0000      -0.417968       -11.3735
  61   2.0000      -0.414050       -11.2669
  62   2.0000      -0.411259       -11.1909
  63   2.0000      -0.339021        -9.2252
  64   2.0000      -0.329211        -8.9583
  65   2.0000      -0.323809        -8.8113
  66   2.0000      -0.304005        -8.2724
  67   0.0000       0.047082         1.2812
  68   0.0000       0.053847         1.4652
  69   0.0000       0.112451         3.0599
  70   0.0000       0.130956         3.5635
  71   0.0000       0.136456         3.7132

MULLIKEN ATOMIC CHARGES
-----------------------
   0 S :    0.131404
   1 C :   -0.135227
   2 C :   -0.053488
   3 C :    0.031896
   4 C :   -0.179127
   5 H :    0.015196
   6 C :    0.046374
   7 H :    0.031060
   8 H :    0.019525
   9 C :   -0.084999
  10 H :    0.024843
  11 H :    0.028928
  12 C :   -0.041580
  13 H :    0.048542
  14 H :    0.029764
  15 H :    0.041423
  16 S :    0.109625
  17 C :   -0.060784
  18 C :   -0.063922
  19 C :   -0.008726
  20 C :   -0.207749
  21 H :    0.032827
  22 C :    0.066407
  23 H :    0.019700
  24 H :    0.021322
  25 C :   -0.042286
  26 H :    0.027571
  27 H :    0.020982
  28 C :   -0.036897
  29 H :    0.036111
  30 H :    0.051436
  31 H :    0.009317
  32 H :    0.038624
  33 H :    0.031910
Sum of atomic charges:    0.0000000

LOEWDIN ATOMIC CHARGES
----------------------
   0 S :    0.432593
   1 C :   -0.206837
   2 C :   -0.068049
   3 C :   -0.062259
   4 C :   -0.204091
   5 H :    0.034334
   6 C :   -0.033737
   7 H :    0.031558
   8 H :    0.026699
   9 C :   -0.039878
  10 H :    0.013950
  11 H :    0.022434
  12 C :   -0.064676
  13 H :    0.033804
  14 H :    0.024885
  15 H :    0.029912
  16 S :    0.398144
  17 C :   -0.173944
  18 C :   -0.073172
  19 C :   -0.057736
  20 C :   -0.199249
  21 H :    0.039355
  22 C :   -0.042138
  23 H :    0.033274
  24 H :    0.033785
  25 C :   -0.038617
  26 H :    0.024888
  27 H :    0.023991
  28 C :   -0.059974
  29 H :    0.031327
  30 H :    0.034855
  31 H :    0.010097
  32 H :    0.027942
  33 H :    0.016530

  Mayer bond orders larger than 0.100000
B(  0-S ,  1-C ) :   1.1442 B(  0-S ,  4-C ) :   1.1776 B(  1-C ,  2-C ) :   1.6065
B(  1-C ,  4-C ) :   0.1014 B(  1-C , 32-H ) :   0.9784 B(  2-C ,  3-C ) :   1.2702
B(  2-C ,  6-C ) :   0.9971 B(  3-C ,  4-C ) :   1.5488 B(  3-C ,  5-H ) :   0.9943
B(  4-C , 20-C ) :   1.0062 B(  6-C ,  7-H ) :   0.9403 B(  6-C ,  8-H ) :   0.9309
B(  6-C ,  9-C ) :   1.0825 B(  9-C , 10-H ) :   0.9540 B(  9-C , 11-H ) :   0.9492
B(  9-C , 12-C ) :   1.0714 B( 12-C , 13-H ) :   0.9739 B( 12-C , 14-H ) :   0.9760
B( 12-C , 15-H ) :   0.9763 B( 16-S , 17-C ) :   1.1383 B( 16-S , 20-C ) :   1.1536
B( 17-C , 18-C ) :   1.6314 B( 17-C , 20-C ) :   0.1006 B( 17-C , 33-H ) :   0.9705
B( 18-C , 19-C ) :   1.2259 B( 18-C , 21-H ) :   0.9785 B( 19-C , 20-C ) :   1.6198
B( 19-C , 22-C ) :   1.0573 B( 22-C , 23-H ) :   0.9309 B( 22-C , 24-H ) :   0.9137
B( 22-C , 25-C ) :   1.0753 B( 25-C , 26-H ) :   0.9527 B( 25-C , 27-H ) :   0.9483
B( 25-C , 28-C ) :   1.0853 B( 28-C , 29-H ) :   0.9697 B( 28-C , 30-H ) :   0.9663
B( 28-C , 31-H ) :   0.9736

Dispersion correction           -0.014596704
FINAL SINGLE POINT ENERGY     -1339.881468559706

DIPOLE MOMENT
-------------
                                X             Y             Z
Electronic contribution:    -16.21794      12.10045      -2.82366
Nuclear contribution   :     16.74347     -12.41349       2.95100
                        -----------------------------------------
Total Dipole Moment    :      0.52553      -0.31303       0.12734
                        -----------------------------------------
Magnitude (a.u.)       :      0.62481
Magnitude (Debye)      :      1.58814

Rotational constants in cm-1:     0.021513     0.007483     0.007162
Rotational constants in MHz :   644.942546   224.347401   214.710184

                             ****ORCA TERMINATED NORMALLY****
TOTAL RUN TIME: 0 days 0 hours 0 minutes 34 seconds 126 msec
