                         Program Version 4.2.1 -  RELEASE  -
|  1> ! wB97X-D3 SP def2-SVP
|  2> %pal
|  3> nprocs 16
|  4> end
|  5>
|  6> * xyz 0 1
|  7> S 	 -111.376 	 55.5508 	 114.161
|  8> C 	 -110.181 	 54.8948 	 113.129
|  9> C 	 -108.904 	 55.4346 	 113.409
| 10> C 	 -108.967 	 56.2093 	 114.635
| 11> C 	 -110.192 	 56.2579 	 115.26
| 12> H 	 -108.225 	 56.8428 	 115.017
| 13> C 	 -107.549 	 55.2455 	 112.671
| 14> H 	 -106.909 	 56.0994 	 113.022
| 15> H 	 -107.728 	 55.3317 	 111.643
| 16> C 	 -106.926 	 53.9102 	 112.942
| 17> H 	 -105.927 	 53.9853 	 112.677
| 18> H 	 -106.753 	 53.9187 	 113.938
| 19> C 	 -107.761 	 52.7435 	 112.379
| 20> H 	 -108.411 	 52.3569 	 113.136
| 21> H 	 -108.241 	 52.991 	 111.466
| 22> H 	 -107.01 	 51.8968 	 112.285
| 23> S 	 -111.604 	 58.4489 	 116.069
| 24> C 	 -111.401 	 59.1194 	 117.689
| 25> C 	 -110.507 	 58.3368 	 118.422
| 26> C 	 -109.98 	 57.2135 	 117.681
| 27> C 	 -110.523 	 57.1626 	 116.378
| 28> H 	 -110.183 	 58.7046 	 119.393
| 29> C 	 -108.968 	 56.2787 	 118.185
| 30> H 	 -107.947 	 56.6705 	 118.103
| 31> H 	 -108.823 	 55.4 	 117.611
| 32> C 	 -109.189 	 55.725 	 119.628
| 33> H 	 -108.856 	 56.5871 	 120.225
| 34> H 	 -108.336 	 55.1245 	 119.972
| 35> C 	 -110.603 	 55.277 	 119.967
| 36> H 	 -110.944 	 54.5285 	 119.23
| 37> H 	 -111.302 	 56.1084 	 119.912
| 38> H 	 -110.71 	 54.8676 	 121.01
| 39> H 	 -110.268 	 54.1227 	 112.386
| 40> H 	 -111.828 	 60.0218 	 118.095
| 41> *
| 42>
| 43>                          ****END OF INPUT****

CARTESIAN COORDINATES (ANGSTROEM)
---------------------------------
  S    -111.376000   55.550800  114.161000
  C    -110.181000   54.894800  113.129000
  C    -108.904000   55.434600  113.409000
  C    -108.967000   56.209300  114.635000
  C    -110.192000   56.257900  115.260000
  H    -108.225000   56.842800  115.017000
  C    -107.549000   55.245500  112.671000
  H    -106.909000   56.099400  113.022000
  H    -107.728000   55.331700  111.643000
  C    -106.926000   53.910200  112.942000
  H    -105.927000   53.985300  112.677000
  H    -106.753000   53.918700  113.938000
  C    -107.761000   52.743500  112.379000
  H    -108.411000   52.356900  113.136000
  H    -108.241000   52.991000  111.466000
  H    -107.010000   51.896800  112.285000
  S    -111.604000   58.448900  116.069000
  C    -111.401000   59.119400  117.689000
  C    -110.507000   58.336800  118.422000
  C    -109.980000   57.213500  117.681000
  C    -110.523000   57.162600  116.378000
  H    -110.183000   58.704600  119.393000
  C    -108.968000   56.278700  118.185000
  H    -107.947000   56.670500  118.103000
  H    -108.823000   55.400000  117.611000
  C    -109.189000   55.725000  119.628000
  H    -108.856000   56.587100  120.225000
  H    -108.336000   55.124500  119.972000
  C    -110.603000   55.277000  119.967000
  H    -110.944000   54.528500  119.230000
  H    -111.302000   56.108400  119.912000
  H    -110.710000   54.867600  121.010000
  H    -110.268000   54.122700  112.386000
  H    -111.828000   60.021800  118.095000

 Total Charge           Charge          ....    0
 Multiplicity           Mult            ....    1
 Number of Electrons    NEL             ....  134
 Basis Dimension        Dim             ....  322

ORBITAL ENERGIES
----------------

  NO   OCC          E(Eh)            E(eV)
   0   2.0000     -88.967233     -2420.9215
   1   2.0000     -88.967076     -2420.9172
   2   2.0000     -10.328075      -281.0412
   3   2.0000     -10.327495      -281.0254
   4   2.0000     -10.318509      -280.7809
   5   2.0000     -10.314984      -280.6850
   6   2.0000     -10.304818      -280.4084
   7   2.0000     -10.304691      -280.4049
   8   2.0000     -10.297942      -280.2212
   9   2.0000     -10.290744      -280.0254
  10   2.0000     -10.289959      -280.0040
  11   2.0000     -10.284601      -279.8582
  12   2.0000     -10.283549      -279.8296
  13   2.0000     -10.283309      -279.8231
  14   2.0000     -10.278441      -279.6906
  15   2.0000     -10.270307      -279.4693
  16   2.0000      -8.082097      -219.9250
  17   2.0000      -8.082067      -219.9242
  18   2.0000      -6.040625      -164.3738
  19   2.0000      -6.040569      -164.3722
  20   2.0000      -6.036553      -164.2630
  21   2.0000      -6.036442      -164.2599
  22   2.0000      -6.032947      -164.1648
  23   2.0000      -6.032813      -164.1612
  24   2.0000      -1.006384       -27.3851
  25   2.0000      -0.983182       -26.7538
  26   2.0000      -0.919298       -25.0154
  27   2.0000      -0.908094       -24.7105
  28   2.0000      -0.868837       -23.6422
  29   2.0000      -0.847458       -23.0605
  30   2.0000      -0.841133       -22.8884
  31   2.0000      -0.813570       -22.1384
  32   2.0000      -0.786661       -21.4061
  33   2.0000      -0.775724       -21.1085
  34   2.0000      -0.715654       -19.4739
  35   2.0000      -0.702675       -19.1208
  36   2.0000      -0.694954       -18.9107
  37   2.0000      -0.654906       -17.8209
  38   2.0000      -0.643834       -17.5196
  39   2.0000      -0.620650       -16.8887
  40   2.0000      -0.599133       -16.3032
  41   2.0000      -0.571726       -15.5575
  42   2.0000      -0.553875       -15.0717
  43   2.0000      -0.551180       -14.9984
  44   2.0000      -0.541387       -14.7319
  45   2.0000      -0.529061       -14.3965
  46   2.0000      -0.525825       -14.3084
  47   2.0000      -0.512570       -13.9477
  48   2.0000      -0.504296       -13.7226
  49   2.0000      -0.492289       -13.3959
  50   2.0000      -0.486459       -13.2372
  51   2.0000      -0.484242       -13.1769
  52   2.0000      -0.473086       -12.8733
  53   2.0000      -0.466004       -12.6806
  54   2.0000      -0.460197       -12.5226
  55   2.0000      -0.451219       -12.2783
  56   2.0000      -0.447901       -12.1880
  57   2.0000      -0.440289       -11.9809
  58   2.0000      -0.438405       -11.9296
  59   2.0000      -0.425208       -11.5705
  60   2.0000      -0.418546       -11.3892
  61   2.0000      -0.410104       -11.1595
  62   2.0000      -0.392235       -10.6733
  63   2.0000      -0.348741        -9.4897
  64   2.0000      -0.327928        -8.9234
  65   2.0000      -0.324102        -8.8193
  66   2.0000      -0.292182        -7.9507
  67   0.0000       0.033621         0.9149
  68   0.0000       0.062615         1.7038
  69   0.0000       0.109129         2.9695
  70   0.0000       0.121675         3.3109
  71   0.0000       0.133663         3.6372

MULLIKEN ATOMIC CHARGES
-----------------------
   0 S :    0.120579
   1 C :   -0.104561
   2 C :   -0.119980
   3 C :    0.039586
   4 C :   -0.153046
   5 H :   -0.001980
   6 C :    0.041644
   7 H :    0.030995
   8 H :    0.018401
   9 C :    0.031750
  10 H :    0.000443
  11 H :   -0.018656
  12 C :   -0.047188
  13 H :    0.045371
  14 H :    0.038136
  15 H :    0.039274
  16 S :    0.119029
  17 C :   -0.099765
  18 C :   -0.039750
  19 C :   -0.027267
  20 C :   -0.159351
  21 H :    0.025786
  22 C :    0.061816
  23 H :    0.029820
  24 H :    0.015036
  25 C :   -0.099983
  26 H :    0.006555
  27 H :    0.018445
  28 C :   -0.025340
  29 H :    0.039757
  30 H :    0.035501
  31 H :    0.042724
  32 H :    0.042197
  33 H :    0.054021
Sum of atomic charges:    0.0000000

LOEWDIN ATOMIC CHARGES
----------------------
   0 S :    0.419339
   1 C :   -0.211285
   2 C :   -0.056908
   3 C :   -0.055532
   4 C :   -0.198673
   5 H :    0.021486
   6 C :   -0.022869
   7 H :    0.037031
   8 H :    0.017897
   9 C :   -0.036744
  10 H :    0.017381
  11 H :    0.013864
  12 C :   -0.057997
  13 H :    0.029083
  14 H :    0.019440
  15 H :    0.039834
  16 S :    0.422756
  17 C :   -0.188272
  18 C :   -0.066529
  19 C :   -0.060278
  20 C :   -0.207769
  21 H :    0.032847
  22 C :   -0.040144
  23 H :    0.036281
  24 H :    0.025048
  25 C :   -0.054848
  26 H :    0.018908
  27 H :    0.027083
  28 C :   -0.068926
  29 H :    0.030360
  30 H :    0.027387
  31 H :    0.034069
  32 H :    0.026801
  33 H :    0.029881

  Mayer bond orders larger than 0.100000
B(  0-S ,  1-C ) :   1.1608 B(  0-S ,  4-C ) :   1.1440 B(  1-C ,  2-C ) :   1.5843
B(  1-C , 32-H ) :   0.9673 B(  2-C ,  3-C ) :   1.2626 B(  2-C ,  6-C ) :   1.0119
B(  3-C ,  4-C ) :   1.5664 B(  3-C ,  5-H ) :   0.9942 B(  4-C , 20-C ) :   1.0275
B(  6-C ,  7-H ) :   0.9414 B(  6-C ,  8-H ) :   0.9436 B(  6-C ,  9-C ) :   1.0856
B(  9-C , 10-H ) :   0.9487 B(  9-C , 11-H ) :   0.9366 B(  9-C , 12-C ) :   1.0585
B( 12-C , 13-H ) :   0.9719 B( 12-C , 14-H ) :   0.9789 B( 12-C , 15-H ) :   0.9704
B( 16-S , 17-C ) :   1.1492 B( 16-S , 20-C ) :   1.1670 B( 17-C , 18-C ) :   1.6092
B( 17-C , 33-H ) :   0.9692 B( 18-C , 19-C ) :   1.2367 B( 18-C , 21-H ) :   0.9866
B( 19-C , 20-C ) :   1.5712 B( 19-C , 22-C ) :   1.0635 B( 22-C , 23-H ) :   0.9280
B( 22-C , 24-H ) :   0.9259 B( 22-C , 25-C ) :   1.0661 B( 25-C , 26-H ) :   0.9471
B( 25-C , 27-H ) :   0.9533 B( 25-C , 28-C ) :   1.0699 B( 28-C , 29-H ) :   0.9764
B( 28-C , 30-H ) :   0.9652 B( 28-C , 31-H ) :   0.9721

Dispersion correction           -0.014647238
FINAL SINGLE POINT ENERGY     -1339.850877687307

DIPOLE MOMENT
-------------
                                X             Y             Z
Electronic contribution:    -17.81412      14.95659      -6.05760
Nuclear contribution   :     18.56815     -15.04175       6.15230
                        -----------------------------------------
Total Dipole Moment    :      0.75404      -0.08517       0.09470
                        -----------------------------------------
Magnitude (a.u.)       :      0.76472
Magnitude (Debye)      :      1.94376

Rotational constants in cm-1:     0.021372     0.008006     0.006735
Rotational constants in MHz :   640.730847   240.002664   201.920123

                             ****ORCA TERMINATED NORMALLY****
TOTAL RUN TIME: 0 days 0 hours 0 minutes 35 seconds 535 msec
