                         Program Version 4.2.1 -  RELEASE  -
|  1> ! wB97X-D3 SP def2-SVP
|  2> %pal
|  3> nprocs 16
|  4> end
|  5>
|  6> * xyz 0 1
|  7> S 	 43.6116 	 16.1529 	 85.8787
|  8> C 	 44.9729 	 15.7013 	 84.8843
|  9> C 	 44.8618 	 14.3277 	 84.6004
| 10> C 	 43.7592 	 13.6405 	 85.2484
| 11> C 	 42.9823 	 14.5402 	 85.9616
| 12> H 	 43.4327 	 12.6142 	 85.1364
| 13> C 	 45.8919 	 13.5662 	 83.7074
| 14> H 	 46.2541 	 14.325 	 82.9997
| 15> H 	 45.2509 	 12.8552 	 83.1112
| 16> C 	 47.1404 	 13.0396 	 84.4088
| 17> H 	 47.8738 	 13.8524 	 84.4442
| 18> H 	 46.8829 	 12.8201 	 85.4339
| 19> C 	 47.7972 	 11.7868 	 83.8043
| 20> H 	 47.0265 	 10.9801 	 83.8331
| 21> H 	 48.2115 	 11.925 	 82.7716
| 22> H 	 48.6761 	 11.4685 	 84.4178
| 23> S 	 40.4778 	 15.5825 	 86.4443
| 24> C 	 39.3836 	 14.689 	 87.4939
| 25> C 	 39.9797 	 13.5528 	 88.0304
| 26> C 	 41.2556 	 13.3171 	 87.5248
| 27> C 	 41.7278 	 14.2777 	 86.6521
| 28> H 	 39.5498 	 12.9161 	 88.8037
| 29> C 	 42.129 	 12.1305 	 87.8578
| 30> H 	 42.0146 	 11.8301 	 88.8714
| 31> H 	 43.1609 	 12.501 	 87.7059
| 32> C 	 41.7637 	 10.7682 	 87.1901
| 33> H 	 41.4886 	 10.8226 	 86.0632
| 34> H 	 40.8597 	 10.3294 	 87.6561
| 35> C 	 42.8874 	 9.78609 	 87.2231
| 36> H 	 42.6829 	 8.7498 	 86.8217
| 37> H 	 43.22 	 9.5932 	 88.2656
| 38> H 	 43.6676 	 10.2126 	 86.6083
| 39> H 	 45.7155 	 16.4024 	 84.525
| 40> H 	 38.3714 	 15.0085 	 87.7053
| 41> *
| 42>
| 43>                          ****END OF INPUT****

CARTESIAN COORDINATES (ANGSTROEM)
---------------------------------
  S     43.611600   16.152900   85.878700
  C     44.972900   15.701300   84.884300
  C     44.861800   14.327700   84.600400
  C     43.759200   13.640500   85.248400
  C     42.982300   14.540200   85.961600
  H     43.432700   12.614200   85.136400
  C     45.891900   13.566200   83.707400
  H     46.254100   14.325000   82.999700
  H     45.250900   12.855200   83.111200
  C     47.140400   13.039600   84.408800
  H     47.873800   13.852400   84.444200
  H     46.882900   12.820100   85.433900
  C     47.797200   11.786800   83.804300
  H     47.026500   10.980100   83.833100
  H     48.211500   11.925000   82.771600
  H     48.676100   11.468500   84.417800
  S     40.477800   15.582500   86.444300
  C     39.383600   14.689000   87.493900
  C     39.979700   13.552800   88.030400
  C     41.255600   13.317100   87.524800
  C     41.727800   14.277700   86.652100
  H     39.549800   12.916100   88.803700
  C     42.129000   12.130500   87.857800
  H     42.014600   11.830100   88.871400
  H     43.160900   12.501000   87.705900
  C     41.763700   10.768200   87.190100
  H     41.488600   10.822600   86.063200
  H     40.859700   10.329400   87.656100
  C     42.887400    9.786090   87.223100
  H     42.682900    8.749800   86.821700
  H     43.220000    9.593200   88.265600
  H     43.667600   10.212600   86.608300
  H     45.715500   16.402400   84.525000
  H     38.371400   15.008500   87.705300

 Total Charge           Charge          ....    0
 Multiplicity           Mult            ....    1
 Number of Electrons    NEL             ....  134
 Basis Dimension        Dim             ....  322

ORBITAL ENERGIES
----------------

  NO   OCC          E(Eh)            E(eV)
   0   2.0000     -88.967515     -2420.9292
   1   2.0000     -88.966273     -2420.8954
   2   2.0000     -10.332340      -281.1573
   3   2.0000     -10.330288      -281.1014
   4   2.0000     -10.322390      -280.8865
   5   2.0000     -10.318015      -280.7675
   6   2.0000     -10.309871      -280.5458
   7   2.0000     -10.301922      -280.3296
   8   2.0000     -10.298593      -280.2390
   9   2.0000     -10.295951      -280.1671
  10   2.0000     -10.295912      -280.1660
  11   2.0000     -10.295449      -280.1534
  12   2.0000     -10.293239      -280.0933
  13   2.0000     -10.287943      -279.9492
  14   2.0000     -10.286048      -279.8976
  15   2.0000     -10.282394      -279.7982
  16   2.0000      -8.082495      -219.9359
  17   2.0000      -8.079978      -219.8674
  18   2.0000      -6.040990      -164.3837
  19   2.0000      -6.038536      -164.3169
  20   2.0000      -6.036860      -164.2713
  21   2.0000      -6.034612      -164.2102
  22   2.0000      -6.033341      -164.1755
  23   2.0000      -6.030757      -164.1053
  24   2.0000      -1.006525       -27.3889
  25   2.0000      -0.982081       -26.7238
  26   2.0000      -0.910922       -24.7875
  27   2.0000      -0.906174       -24.6583
  28   2.0000      -0.868915       -23.6444
  29   2.0000      -0.857795       -23.3418
  30   2.0000      -0.845054       -22.9951
  31   2.0000      -0.813891       -22.1471
  32   2.0000      -0.781117       -21.2553
  33   2.0000      -0.767715       -20.8906
  34   2.0000      -0.701082       -19.0774
  35   2.0000      -0.697095       -18.9689
  36   2.0000      -0.691830       -18.8257
  37   2.0000      -0.666004       -18.1229
  38   2.0000      -0.645983       -17.5781
  39   2.0000      -0.615260       -16.7421
  40   2.0000      -0.597354       -16.2548
  41   2.0000      -0.570830       -15.5331
  42   2.0000      -0.560621       -15.2553
  43   2.0000      -0.558436       -15.1958
  44   2.0000      -0.529450       -14.4071
  45   2.0000      -0.520949       -14.1757
  46   2.0000      -0.518558       -14.1107
  47   2.0000      -0.517362       -14.0781
  48   2.0000      -0.505813       -13.7639
  49   2.0000      -0.500266       -13.6129
  50   2.0000      -0.497228       -13.5302
  51   2.0000      -0.480694       -13.0804
  52   2.0000      -0.467710       -12.7270
  53   2.0000      -0.466281       -12.6882
  54   2.0000      -0.460550       -12.5322
  55   2.0000      -0.452925       -12.3247
  56   2.0000      -0.442783       -12.0488
  57   2.0000      -0.434181       -11.8147
  58   2.0000      -0.431171       -11.7328
  59   2.0000      -0.425244       -11.5715
  60   2.0000      -0.413723       -11.2580
  61   2.0000      -0.410814       -11.1788
  62   2.0000      -0.409502       -11.1431
  63   2.0000      -0.353208        -9.6113
  64   2.0000      -0.335116        -9.1190
  65   2.0000      -0.331096        -9.0096
  66   2.0000      -0.287246        -7.8164
  67   0.0000       0.023615         0.6426
  68   0.0000       0.066853         1.8192
  69   0.0000       0.109154         2.9702
  70   0.0000       0.120319         3.2741
  71   0.0000       0.124701         3.3933

MULLIKEN ATOMIC CHARGES
-----------------------
   0 S :    0.111140
   1 C :   -0.122848
   2 C :   -0.112286
   3 C :    0.021111
   4 C :   -0.133222
   5 H :    0.016447
   6 C :    0.041180
   7 H :    0.022716
   8 H :    0.037619
   9 C :   -0.042992
  10 H :    0.025552
  11 H :    0.028940
  12 C :   -0.082631
  13 H :    0.038477
  14 H :    0.041905
  15 H :    0.041896
  16 S :    0.088958
  17 C :   -0.085967
  18 C :   -0.021926
  19 C :   -0.015514
  20 C :   -0.158260
  21 H :    0.019032
  22 C :    0.057589
  23 H :    0.012028
  24 H :    0.044121
  25 C :   -0.102861
  26 H :    0.037494
  27 H :    0.031239
  28 C :   -0.055595
  29 H :    0.042446
  30 H :    0.029170
  31 H :    0.028118
  32 H :    0.057182
  33 H :    0.059743
Sum of atomic charges:   -0.0000000

LOEWDIN ATOMIC CHARGES
----------------------
   0 S :    0.417955
   1 C :   -0.207863
   2 C :   -0.056410
   3 C :   -0.072583
   4 C :   -0.195197
   5 H :    0.033883
   6 C :   -0.039291
   7 H :    0.030662
   8 H :    0.033940
   9 C :   -0.045443
  10 H :    0.024791
  11 H :    0.022973
  12 C :   -0.071177
  13 H :    0.027018
  14 H :    0.027851
  15 H :    0.031105
  16 S :    0.373966
  17 C :   -0.171975
  18 C :   -0.072194
  19 C :   -0.056387
  20 C :   -0.173446
  21 H :    0.035424
  22 C :   -0.030561
  23 H :    0.028153
  24 H :    0.036754
  25 C :   -0.049841
  26 H :    0.027551
  27 H :    0.023384
  28 C :   -0.072021
  29 H :    0.032477
  30 H :    0.023940
  31 H :    0.021928
  32 H :    0.032008
  33 H :    0.028627

  Mayer bond orders larger than 0.100000
B(  0-S ,  1-C ) :   1.1312 B(  0-S ,  4-C ) :   1.1699 B(  1-C ,  2-C ) :   1.5919
B(  1-C , 32-H ) :   0.9764 B(  2-C ,  3-C ) :   1.2348 B(  2-C ,  6-C ) :   1.0239
B(  3-C ,  4-C ) :   1.5407 B(  3-C ,  5-H ) :   0.9987 B(  4-C , 20-C ) :   1.0557
B(  6-C ,  7-H ) :   0.9426 B(  6-C ,  8-H ) :   0.9507 B(  6-C ,  9-C ) :   1.0436
B(  9-C , 10-H ) :   0.9531 B(  9-C , 11-H ) :   0.9620 B(  9-C , 12-C ) :   1.0812
B( 12-C , 13-H ) :   0.9777 B( 12-C , 14-H ) :   0.9757 B( 12-C , 15-H ) :   0.9734
B( 16-S , 17-C ) :   1.1603 B( 16-S , 20-C ) :   1.1161 B( 17-C , 18-C ) :   1.5789
B( 17-C , 20-C ) :   0.1077 B( 17-C , 33-H ) :   0.9682 B( 18-C , 19-C ) :   1.2633
B( 18-C , 21-H ) :   0.9892 B( 19-C , 20-C ) :   1.5907 B( 19-C , 22-C ) :   1.0519
B( 22-C , 23-H ) :   0.9241 B( 22-C , 24-H ) :   0.9422 B( 22-C , 25-C ) :   1.0322
B( 25-C , 26-H ) :   0.9576 B( 25-C , 27-H ) :   0.9543 B( 25-C , 28-C ) :   1.0873
B( 28-C , 29-H ) :   0.9717 B( 28-C , 30-H ) :   0.9697 B( 28-C , 31-H ) :   0.9758

Dispersion correction           -0.014019443
FINAL SINGLE POINT ENERGY     -1339.884210519533

DIPOLE MOMENT
-------------
                                X             Y             Z
Electronic contribution:    -18.02018      27.36940       3.70405
Nuclear contribution   :     18.21744     -27.92189      -3.63919
                        -----------------------------------------
Total Dipole Moment    :      0.19725      -0.55249       0.06486
                        -----------------------------------------
Magnitude (a.u.)       :      0.59022
Magnitude (Debye)      :      1.50023

Rotational constants in cm-1:     0.018041     0.009042     0.006287
Rotational constants in MHz :   540.842103   271.079396   188.471571

                             ****ORCA TERMINATED NORMALLY****
TOTAL RUN TIME: 0 days 0 hours 0 minutes 28 seconds 150 msec
