                         Program Version 4.2.1 -  RELEASE  -
|  1> ! wB97X-D3 SP def2-SVP
|  2> %pal
|  3> nprocs 16
|  4> end
|  5>
|  6> * xyz 0 1
|  7> S 	 -72.7619 	 39.6181 	 122.067
|  8> C 	 -74.4345 	 39.7694 	 122.5
|  9> C 	 -75.2311 	 38.7766 	 121.943
| 10> C 	 -74.4354 	 37.831 	 121.212
| 11> C 	 -73.0731 	 38.0488 	 121.247
| 12> H 	 -74.8257 	 36.9853 	 120.79
| 13> C 	 -76.751 	 38.881 	 121.857
| 14> H 	 -76.9479 	 39.9185 	 121.693
| 15> H 	 -77.1761 	 38.5188 	 122.752
| 16> C 	 -77.4327 	 38.2698 	 120.636
| 17> H 	 -76.875 	 38.4366 	 119.729
| 18> H 	 -77.5135 	 37.1781 	 120.78
| 19> C 	 -78.824 	 38.8301 	 120.334
| 20> H 	 -78.8759 	 39.8918 	 119.973
| 21> H 	 -79.157 	 38.3389 	 119.536
| 22> H 	 -79.4084 	 38.7199 	 121.195
| 23> S 	 -71.6511 	 37.4904 	 118.993
| 24> C 	 -70.3696 	 36.2478 	 119.038
| 25> C 	 -70.2026 	 35.7533 	 120.323
| 26> C 	 -71.1195 	 36.3276 	 121.264
| 27> C 	 -72.0213 	 37.2317 	 120.694
| 28> H 	 -69.4348 	 35.0011 	 120.55
| 29> C 	 -71.0642 	 35.849 	 122.7
| 30> H 	 -71.8665 	 36.3201 	 123.303
| 31> H 	 -70.1618 	 36.339 	 123.05
| 32> C 	 -71.2564 	 34.3242 	 122.784
| 33> H 	 -70.3427 	 33.8213 	 122.461
| 34> H 	 -72.0919 	 33.8611 	 122.33
| 35> C 	 -71.0899 	 33.9305 	 124.283
| 36> H 	 -70.0674 	 33.8527 	 124.626
| 37> H 	 -71.4943 	 32.9995 	 124.487
| 38> H 	 -71.66 	 34.6143 	 124.907
| 39> H 	 -74.8547 	 40.5515 	 123.118
| 40> H 	 -69.7242 	 36.009 	 118.205
| 41> *
| 42>
| 43>                          ****END OF INPUT****

CARTESIAN COORDINATES (ANGSTROEM)
---------------------------------
  S    -72.761900   39.618100  122.067000
  C    -74.434500   39.769400  122.500000
  C    -75.231100   38.776600  121.943000
  C    -74.435400   37.831000  121.212000
  C    -73.073100   38.048800  121.247000
  H    -74.825700   36.985300  120.790000
  C    -76.751000   38.881000  121.857000
  H    -76.947900   39.918500  121.693000
  H    -77.176100   38.518800  122.752000
  C    -77.432700   38.269800  120.636000
  H    -76.875000   38.436600  119.729000
  H    -77.513500   37.178100  120.780000
  C    -78.824000   38.830100  120.334000
  H    -78.875900   39.891800  119.973000
  H    -79.157000   38.338900  119.536000
  H    -79.408400   38.719900  121.195000
  S    -71.651100   37.490400  118.993000
  C    -70.369600   36.247800  119.038000
  C    -70.202600   35.753300  120.323000
  C    -71.119500   36.327600  121.264000
  C    -72.021300   37.231700  120.694000
  H    -69.434800   35.001100  120.550000
  C    -71.064200   35.849000  122.700000
  H    -71.866500   36.320100  123.303000
  H    -70.161800   36.339000  123.050000
  C    -71.256400   34.324200  122.784000
  H    -70.342700   33.821300  122.461000
  H    -72.091900   33.861100  122.330000
  C    -71.089900   33.930500  124.283000
  H    -70.067400   33.852700  124.626000
  H    -71.494300   32.999500  124.487000
  H    -71.660000   34.614300  124.907000
  H    -74.854700   40.551500  123.118000
  H    -69.724200   36.009000  118.205000

 Total Charge           Charge          ....    0
 Multiplicity           Mult            ....    1
 Number of Electrons    NEL             ....  134
 Basis Dimension        Dim             ....  322

ORBITAL ENERGIES
----------------

  NO   OCC          E(Eh)            E(eV)
   0   2.0000     -88.963490     -2420.8196
   1   2.0000     -88.961169     -2420.7565
   2   2.0000     -10.327029      -281.0127
   3   2.0000     -10.322837      -280.8987
   4   2.0000     -10.319628      -280.8113
   5   2.0000     -10.311542      -280.5913
   6   2.0000     -10.302284      -280.3394
   7   2.0000     -10.297650      -280.2133
   8   2.0000     -10.294681      -280.1325
   9   2.0000     -10.291926      -280.0575
  10   2.0000     -10.287396      -279.9343
  11   2.0000     -10.286296      -279.9043
  12   2.0000     -10.284792      -279.8634
  13   2.0000     -10.284276      -279.8494
  14   2.0000     -10.268106      -279.4094
  15   2.0000     -10.267417      -279.3906
  16   2.0000      -8.077693      -219.8052
  17   2.0000      -8.075351      -219.7415
  18   2.0000      -6.036162      -164.2523
  19   2.0000      -6.033926      -164.1915
  20   2.0000      -6.032307      -164.1474
  21   2.0000      -6.029872      -164.0812
  22   2.0000      -6.028506      -164.0440
  23   2.0000      -6.026138      -163.9796
  24   2.0000      -0.998273       -27.1644
  25   2.0000      -0.976666       -26.5764
  26   2.0000      -0.913268       -24.8513
  27   2.0000      -0.908044       -24.7091
  28   2.0000      -0.869430       -23.6584
  29   2.0000      -0.848511       -23.0892
  30   2.0000      -0.846570       -23.0363
  31   2.0000      -0.815678       -22.1957
  32   2.0000      -0.782656       -21.2972
  33   2.0000      -0.767142       -20.8750
  34   2.0000      -0.711614       -19.3640
  35   2.0000      -0.704185       -19.1619
  36   2.0000      -0.687229       -18.7005
  37   2.0000      -0.658066       -17.9069
  38   2.0000      -0.642108       -17.4726
  39   2.0000      -0.619381       -16.8542
  40   2.0000      -0.594135       -16.1672
  41   2.0000      -0.579684       -15.7740
  42   2.0000      -0.567515       -15.4429
  43   2.0000      -0.564108       -15.3501
  44   2.0000      -0.536291       -14.5932
  45   2.0000      -0.530389       -14.4326
  46   2.0000      -0.515699       -14.0329
  47   2.0000      -0.508866       -13.8469
  48   2.0000      -0.506320       -13.7777
  49   2.0000      -0.500516       -13.6197
  50   2.0000      -0.488477       -13.2921
  51   2.0000      -0.477193       -12.9851
  52   2.0000      -0.469276       -12.7696
  53   2.0000      -0.456723       -12.4281
  54   2.0000      -0.455695       -12.4001
  55   2.0000      -0.451264       -12.2795
  56   2.0000      -0.449346       -12.2273
  57   2.0000      -0.443355       -12.0643
  58   2.0000      -0.434946       -11.8355
  59   2.0000      -0.419016       -11.4020
  60   2.0000      -0.414162       -11.2699
  61   2.0000      -0.412486       -11.2243
  62   2.0000      -0.408509       -11.1161
  63   2.0000      -0.334550        -9.1036
  64   2.0000      -0.329516        -8.9666
  65   2.0000      -0.312218        -8.4959
  66   2.0000      -0.307392        -8.3646
  67   0.0000       0.043137         1.1738
  68   0.0000       0.053776         1.4633
  69   0.0000       0.114699         3.1211
  70   0.0000       0.125007         3.4016
  71   0.0000       0.127618         3.4727

MULLIKEN ATOMIC CHARGES
-----------------------
   0 S :    0.115101
   1 C :   -0.125464
   2 C :   -0.099875
   3 C :    0.078656
   4 C :   -0.163708
   5 H :   -0.024290
   6 C :    0.107004
   7 H :    0.022626
   8 H :    0.029518
   9 C :   -0.132351
  10 H :    0.030777
  11 H :    0.033138
  12 C :    0.012701
  13 H :    0.032557
  14 H :    0.001451
  15 H :    0.022500
  16 S :    0.100918
  17 C :   -0.092879
  18 C :   -0.043627
  19 C :   -0.022931
  20 C :   -0.189670
  21 H :    0.029512
  22 C :    0.067567
  23 H :    0.030882
  24 H :    0.042831
  25 C :   -0.073298
  26 H :    0.029550
  27 H :    0.042487
  28 C :   -0.020676
  29 H :    0.030756
  30 H :    0.006045
  31 H :    0.017333
  32 H :    0.046985
  33 H :    0.057875
Sum of atomic charges:    0.0000000

LOEWDIN ATOMIC CHARGES
----------------------
   0 S :    0.392151
   1 C :   -0.196257
   2 C :   -0.066488
   3 C :   -0.042544
   4 C :   -0.190475
   5 H :    0.016513
   6 C :   -0.028143
   7 H :    0.031631
   8 H :    0.026360
   9 C :   -0.039111
  10 H :    0.023727
  11 H :    0.023596
  12 C :   -0.048955
  13 H :    0.032822
  14 H :    0.010402
  15 H :    0.018006
  16 S :    0.388544
  17 C :   -0.170957
  18 C :   -0.074058
  19 C :   -0.050078
  20 C :   -0.211421
  21 H :    0.035557
  22 C :   -0.031479
  23 H :    0.032418
  24 H :    0.039888
  25 C :   -0.030926
  26 H :    0.027479
  27 H :    0.025525
  28 C :   -0.057837
  29 H :    0.024554
  30 H :    0.013792
  31 H :    0.019681
  32 H :    0.027754
  33 H :    0.028329

  Mayer bond orders larger than 0.100000
B(  0-S ,  1-C ) :   1.1555 B(  0-S ,  4-C ) :   1.1206 B(  1-C ,  2-C ) :   1.6211
B(  1-C , 32-H ) :   0.9668 B(  2-C ,  3-C ) :   1.2505 B(  2-C ,  6-C ) :   0.9983
B(  3-C ,  4-C ) :   1.5856 B(  3-C ,  5-H ) :   1.0048 B(  4-C , 20-C ) :   1.0374
B(  6-C ,  7-H ) :   0.9552 B(  6-C ,  8-H ) :   0.9250 B(  6-C ,  9-C ) :   1.0857
B(  9-C , 10-H ) :   0.9562 B(  9-C , 11-H ) :   0.9464 B(  9-C , 12-C ) :   1.0966
B( 12-C , 13-H ) :   0.9693 B( 12-C , 14-H ) :   0.9671 B( 12-C , 15-H ) :   0.9757
B( 16-S , 17-C ) :   1.1517 B( 16-S , 20-C ) :   1.1348 B( 17-C , 18-C ) :   1.6134
B( 17-C , 20-C ) :   0.1004 B( 17-C , 33-H ) :   0.9681 B( 18-C , 19-C ) :   1.2307
B( 18-C , 21-H ) :   0.9862 B( 19-C , 20-C ) :   1.6053 B( 19-C , 22-C ) :   1.0325
B( 22-C , 23-H ) :   0.9356 B( 22-C , 24-H ) :   0.9360 B( 22-C , 25-C ) :   1.0575
B( 25-C , 26-H ) :   0.9548 B( 25-C , 27-H ) :   0.9667 B( 25-C , 28-C ) :   1.0700
B( 28-C , 29-H ) :   0.9819 B( 28-C , 30-H ) :   0.9714 B( 28-C , 31-H ) :   0.9728

Dispersion correction           -0.013539755
FINAL SINGLE POINT ENERGY     -1339.855131904632

DIPOLE MOMENT
-------------
                                X             Y             Z
Electronic contribution:     15.00726      12.08228      -9.82992
Nuclear contribution   :    -15.26656     -12.50004      10.03015
                        -----------------------------------------
Total Dipole Moment    :     -0.25929      -0.41777       0.20023
                        -----------------------------------------
Magnitude (a.u.)       :      0.53090
Magnitude (Debye)      :      1.34945

Rotational constants in cm-1:     0.018417     0.007333     0.006625
Rotational constants in MHz :   552.115501   219.831418   198.614337

                             ****ORCA TERMINATED NORMALLY****
TOTAL RUN TIME: 0 days 0 hours 0 minutes 32 seconds 400 msec
