                         Program Version 4.2.1 -  RELEASE  -
|  1> ! wB97X-D3 SP def2-SVP
|  2> %pal
|  3> nprocs 16
|  4> end
|  5>
|  6> * xyz 0 1
|  7> S 	 34.9295 	 26.7716 	 57.7315
|  8> C 	 35.5908 	 28.1378 	 56.7991
|  9> C 	 36.1728 	 27.6772 	 55.6461
| 10> C 	 35.925 	 26.297 	 55.4253
| 11> C 	 35.224 	 25.6204 	 56.4088
| 12> H 	 36.2953 	 25.6545 	 54.6084
| 13> C 	 36.6866 	 28.6177 	 54.5551
| 14> H 	 36.0708 	 29.5324 	 54.5983
| 15> H 	 36.6023 	 28.0169 	 53.5772
| 16> C 	 38.2136 	 28.9944 	 54.7166
| 17> H 	 38.7931 	 28.073 	 54.9778
| 18> H 	 38.4515 	 29.4177 	 53.7766
| 19> C 	 38.4185 	 30.0294 	 55.7563
| 20> H 	 38.0777 	 31.0591 	 55.6366
| 21> H 	 37.9541 	 29.6327 	 56.7063
| 22> H 	 39.4961 	 30.1338 	 55.8197
| 23> S 	 34.4899 	 23.5216 	 58.0406
| 24> C 	 34.2067 	 21.881 	 57.4429
| 25> C 	 34.2366 	 21.926 	 56.0925
| 26> C 	 34.6422 	 23.1698 	 55.5276
| 27> C 	 34.9348 	 24.159 	 56.4863
| 28> H 	 33.9698 	 20.9804 	 55.5629
| 29> C 	 34.8861 	 23.2256 	 54.0454
| 30> H 	 34.6538 	 24.2358 	 53.7784
| 31> H 	 34.1294 	 22.7302 	 53.4549
| 32> C 	 36.3177 	 22.8289 	 53.6066
| 33> H 	 36.3434 	 21.73 	 53.7027
| 34> H 	 37.094 	 23.2393 	 54.248
| 35> C 	 36.6997 	 23.18 	 52.1328
| 36> H 	 37.6276 	 22.6748 	 51.8373
| 37> H 	 36.6298 	 24.2564 	 52.0428
| 38> H 	 36.0428 	 22.605 	 51.4285
| 39> H 	 35.4855 	 29.1976 	 57.0197
| 40> H 	 34.1512 	 20.9965 	 58.0904
| 41> *
| 42>
| 43>                          ****END OF INPUT****

CARTESIAN COORDINATES (ANGSTROEM)
---------------------------------
  S     34.929500   26.771600   57.731500
  C     35.590800   28.137800   56.799100
  C     36.172800   27.677200   55.646100
  C     35.925000   26.297000   55.425300
  C     35.224000   25.620400   56.408800
  H     36.295300   25.654500   54.608400
  C     36.686600   28.617700   54.555100
  H     36.070800   29.532400   54.598300
  H     36.602300   28.016900   53.577200
  C     38.213600   28.994400   54.716600
  H     38.793100   28.073000   54.977800
  H     38.451500   29.417700   53.776600
  C     38.418500   30.029400   55.756300
  H     38.077700   31.059100   55.636600
  H     37.954100   29.632700   56.706300
  H     39.496100   30.133800   55.819700
  S     34.489900   23.521600   58.040600
  C     34.206700   21.881000   57.442900
  C     34.236600   21.926000   56.092500
  C     34.642200   23.169800   55.527600
  C     34.934800   24.159000   56.486300
  H     33.969800   20.980400   55.562900
  C     34.886100   23.225600   54.045400
  H     34.653800   24.235800   53.778400
  H     34.129400   22.730200   53.454900
  C     36.317700   22.828900   53.606600
  H     36.343400   21.730000   53.702700
  H     37.094000   23.239300   54.248000
  C     36.699700   23.180000   52.132800
  H     37.627600   22.674800   51.837300
  H     36.629800   24.256400   52.042800
  H     36.042800   22.605000   51.428500
  H     35.485500   29.197600   57.019700
  H     34.151200   20.996500   58.090400

 Total Charge           Charge          ....    0
 Multiplicity           Mult            ....    1
 Number of Electrons    NEL             ....  134
 Basis Dimension        Dim             ....  322

ORBITAL ENERGIES
----------------

  NO   OCC          E(Eh)            E(eV)
   0   2.0000     -88.967299     -2420.9233
   1   2.0000     -88.962258     -2420.7861
   2   2.0000     -10.339631      -281.3557
   3   2.0000     -10.337667      -281.3022
   4   2.0000     -10.319447      -280.8064
   5   2.0000     -10.318339      -280.7763
   6   2.0000     -10.307491      -280.4811
   7   2.0000     -10.301551      -280.3195
   8   2.0000     -10.301148      -280.3085
   9   2.0000     -10.296813      -280.1905
  10   2.0000     -10.295617      -280.1580
  11   2.0000     -10.291839      -280.0552
  12   2.0000     -10.288878      -279.9746
  13   2.0000     -10.286627      -279.9134
  14   2.0000     -10.286424      -279.9078
  15   2.0000     -10.275882      -279.6210
  16   2.0000      -8.080964      -219.8942
  17   2.0000      -8.077334      -219.7954
  18   2.0000      -6.039747      -164.3499
  19   2.0000      -6.035938      -164.2462
  20   2.0000      -6.035651      -164.2384
  21   2.0000      -6.031730      -164.1317
  22   2.0000      -6.031439      -164.1238
  23   2.0000      -6.028034      -164.0312
  24   2.0000      -1.006867       -27.3982
  25   2.0000      -0.985930       -26.8285
  26   2.0000      -0.912073       -24.8188
  27   2.0000      -0.907565       -24.6961
  28   2.0000      -0.872779       -23.7495
  29   2.0000      -0.850020       -23.1302
  30   2.0000      -0.844003       -22.9665
  31   2.0000      -0.820210       -22.3190
  32   2.0000      -0.778774       -21.1915
  33   2.0000      -0.772581       -21.0230
  34   2.0000      -0.708404       -19.2767
  35   2.0000      -0.697948       -18.9921
  36   2.0000      -0.691744       -18.8233
  37   2.0000      -0.660755       -17.9800
  38   2.0000      -0.638797       -17.3825
  39   2.0000      -0.619306       -16.8522
  40   2.0000      -0.597193       -16.2504
  41   2.0000      -0.576100       -15.6765
  42   2.0000      -0.569530       -15.4977
  43   2.0000      -0.548500       -14.9254
  44   2.0000      -0.535393       -14.5688
  45   2.0000      -0.531603       -14.4657
  46   2.0000      -0.522020       -14.2049
  47   2.0000      -0.517860       -14.0917
  48   2.0000      -0.509949       -13.8764
  49   2.0000      -0.503598       -13.7036
  50   2.0000      -0.495160       -13.4740
  51   2.0000      -0.476988       -12.9795
  52   2.0000      -0.470098       -12.7920
  53   2.0000      -0.465785       -12.6747
  54   2.0000      -0.455923       -12.4063
  55   2.0000      -0.447117       -12.1667
  56   2.0000      -0.443494       -12.0681
  57   2.0000      -0.435631       -11.8541
  58   2.0000      -0.428728       -11.6663
  59   2.0000      -0.418232       -11.3807
  60   2.0000      -0.417153       -11.3513
  61   2.0000      -0.415861       -11.3162
  62   2.0000      -0.405274       -11.0281
  63   2.0000      -0.363729        -9.8976
  64   2.0000      -0.333728        -9.0812
  65   2.0000      -0.326174        -8.8756
  66   2.0000      -0.287060        -7.8113
  67   0.0000       0.017912         0.4874
  68   0.0000       0.077284         2.1030
  69   0.0000       0.097740         2.6596
  70   0.0000       0.119191         3.2434
  71   0.0000       0.124943         3.3999

MULLIKEN ATOMIC CHARGES
-----------------------
   0 S :    0.091972
   1 C :   -0.120817
   2 C :   -0.056087
   3 C :   -0.019311
   4 C :   -0.100116
   5 H :    0.010501
   6 C :   -0.002601
   7 H :    0.038794
   8 H :    0.040579
   9 C :   -0.036995
  10 H :    0.045579
  11 H :    0.022375
  12 C :   -0.072786
  13 H :    0.031380
  14 H :    0.034895
  15 H :    0.032392
  16 S :    0.070358
  17 C :   -0.100881
  18 C :   -0.032250
  19 C :   -0.068205
  20 C :   -0.112874
  21 H :    0.036539
  22 C :    0.076034
  23 H :    0.002570
  24 H :    0.015922
  25 C :   -0.084238
  26 H :    0.024840
  27 H :    0.039700
  28 C :   -0.045207
  29 H :    0.037186
  30 H :    0.043750
  31 H :    0.026403
  32 H :    0.058103
  33 H :    0.072494
Sum of atomic charges:    0.0000000

LOEWDIN ATOMIC CHARGES
----------------------
   0 S :    0.376650
   1 C :   -0.185845
   2 C :   -0.071608
   3 C :   -0.076556
   4 C :   -0.175012
   5 H :    0.033179
   6 C :   -0.031193
   7 H :    0.032751
   8 H :    0.037831
   9 C :   -0.037307
  10 H :    0.034965
  11 H :    0.018151
  12 C :   -0.076526
  13 H :    0.023300
  14 H :    0.029712
  15 H :    0.028040
  16 S :    0.395510
  17 C :   -0.179083
  18 C :   -0.076970
  19 C :   -0.060080
  20 C :   -0.190208
  21 H :    0.041423
  22 C :   -0.038510
  23 H :    0.022002
  24 H :    0.031300
  25 C :   -0.040190
  26 H :    0.025188
  27 H :    0.023206
  28 C :   -0.069362
  29 H :    0.031214
  30 H :    0.023401
  31 H :    0.028939
  32 H :    0.033023
  33 H :    0.038664

  Mayer bond orders larger than 0.100000
B(  0-S ,  1-C ) :   1.1243 B(  0-S ,  4-C ) :   1.1310 B(  1-C ,  2-C ) :   1.6102
B(  1-C , 32-H ) :   0.9631 B(  2-C ,  3-C ) :   1.2446 B(  2-C ,  6-C ) :   1.0093
B(  3-C ,  4-C ) :   1.5889 B(  3-C ,  5-H ) :   0.9875 B(  4-C , 20-C ) :   1.0649
B(  6-C ,  7-H ) :   0.9487 B(  6-C ,  8-H ) :   0.9503 B(  6-C ,  9-C ) :   1.0566
B(  9-C , 10-H ) :   0.9549 B(  9-C , 11-H ) :   0.9538 B(  9-C , 12-C ) :   1.0861
B( 12-C , 13-H ) :   0.9744 B( 12-C , 14-H ) :   0.9691 B( 12-C , 15-H ) :   0.9704
B( 16-S , 17-C ) :   1.1479 B( 16-S , 20-C ) :   1.1430 B( 17-C , 18-C ) :   1.6044
B( 17-C , 33-H ) :   0.9670 B( 18-C , 19-C ) :   1.2558 B( 18-C , 21-H ) :   0.9855
B( 19-C , 20-C ) :   1.5508 B( 19-C , 22-C ) :   1.0571 B( 22-C , 23-H ) :   0.9262
B( 22-C , 24-H ) :   0.9298 B( 22-C , 25-C ) :   1.0492 B( 25-C , 26-H ) :   0.9536
B( 25-C , 27-H ) :   0.9583 B( 25-C , 28-C ) :   1.0824 B( 28-C , 29-H ) :   0.9716
B( 28-C , 30-H ) :   0.9780 B( 28-C , 31-H ) :   0.9722

Dispersion correction           -0.014083694
FINAL SINGLE POINT ENERGY     -1339.865585996396

DIPOLE MOMENT
-------------
                                X             Y             Z
Electronic contribution:    -15.45442      -7.17239      23.57447
Nuclear contribution   :     15.71364       7.05375     -24.30020
                        -----------------------------------------
Total Dipole Moment    :      0.25922      -0.11864      -0.72573
                        -----------------------------------------
Magnitude (a.u.)       :      0.77972
Magnitude (Debye)      :      1.98188

Rotational constants in cm-1:     0.018777     0.008682     0.006230
Rotational constants in MHz :   562.922311   260.270381   186.762573

                             ****ORCA TERMINATED NORMALLY****
TOTAL RUN TIME: 0 days 0 hours 0 minutes 34 seconds 473 msec
