                         Program Version 4.2.1 -  RELEASE  -
|  1> ! wB97X-D3 SP def2-SVP
|  2> %pal
|  3> nprocs 16
|  4> end
|  5>
|  6> * xyz 0 1
|  7> S 	 -6.4158 	 22.4849 	 51.0753
|  8> C 	 -4.97335 	 22.1912 	 50.1924
|  9> C 	 -3.85195 	 22.7145 	 50.7702
| 10> C 	 -4.20409 	 23.4508 	 51.9703
| 11> C 	 -5.53057 	 23.4259 	 52.2393
| 12> H 	 -3.50222 	 23.922 	 52.6199
| 13> C 	 -2.42885 	 22.695 	 50.2717
| 14> H 	 -2.17231 	 23.7567 	 50.3053
| 15> H 	 -2.50802 	 22.3889 	 49.225
| 16> C 	 -1.38415 	 21.8314 	 51.0089
| 17> H 	 -1.41151 	 21.9975 	 52.0955
| 18> H 	 -1.59568 	 20.7241 	 50.783
| 19> C 	 0.00698644 	 22.1257 	 50.6137
| 20> H 	 0.8669 	 21.8692 	 51.3582
| 21> H 	 0.221524 	 21.5203 	 49.6814
| 22> H 	 0.0437624 	 23.2307 	 50.5277
| 23> S 	 -7.0415 	 22.8184 	 54.5149
| 24> C 	 -7.43682 	 24.1344 	 55.5895
| 25> C 	 -7.0671 	 25.4572 	 55.0833
| 26> C 	 -6.35665 	 25.3574 	 53.851
| 27> C 	 -6.25611 	 24.0081 	 53.3889
| 28> H 	 -7.23514 	 26.2678 	 55.775
| 29> C 	 -5.63057 	 26.5814 	 53.2227
| 30> H 	 -6.44714 	 27.1071 	 52.6378
| 31> H 	 -4.90169 	 26.2635 	 52.4489
| 32> C 	 -4.87893 	 27.5242 	 54.1464
| 33> H 	 -5.46531 	 27.5382 	 55.0436
| 34> H 	 -4.8627 	 28.5398 	 53.7192
| 35> C 	 -3.45384 	 27.0514 	 54.4545
| 36> H 	 -3.12652 	 27.2783 	 55.427
| 37> H 	 -2.76361 	 27.4679 	 53.7374
| 38> H 	 -3.32312 	 25.9554 	 54.5018
| 39> H 	 -4.85369 	 21.6391 	 49.241
| 40> H 	 -7.96582 	 24.0565 	 56.4741
| 41> *
| 42>
| 43>                          ****END OF INPUT****

CARTESIAN COORDINATES (ANGSTROEM)
---------------------------------
  S     -6.415800   22.484900   51.075300
  C     -4.973350   22.191200   50.192400
  C     -3.851950   22.714500   50.770200
  C     -4.204090   23.450800   51.970300
  C     -5.530570   23.425900   52.239300
  H     -3.502220   23.922000   52.619900
  C     -2.428850   22.695000   50.271700
  H     -2.172310   23.756700   50.305300
  H     -2.508020   22.388900   49.225000
  C     -1.384150   21.831400   51.008900
  H     -1.411510   21.997500   52.095500
  H     -1.595680   20.724100   50.783000
  C      0.006986   22.125700   50.613700
  H      0.866900   21.869200   51.358200
  H      0.221524   21.520300   49.681400
  H      0.043762   23.230700   50.527700
  S     -7.041500   22.818400   54.514900
  C     -7.436820   24.134400   55.589500
  C     -7.067100   25.457200   55.083300
  C     -6.356650   25.357400   53.851000
  C     -6.256110   24.008100   53.388900
  H     -7.235140   26.267800   55.775000
  C     -5.630570   26.581400   53.222700
  H     -6.447140   27.107100   52.637800
  H     -4.901690   26.263500   52.448900
  C     -4.878930   27.524200   54.146400
  H     -5.465310   27.538200   55.043600
  H     -4.862700   28.539800   53.719200
  C     -3.453840   27.051400   54.454500
  H     -3.126520   27.278300   55.427000
  H     -2.763610   27.467900   53.737400
  H     -3.323120   25.955400   54.501800
  H     -4.853690   21.639100   49.241000
  H     -7.965820   24.056500   56.474100

 Total Charge           Charge          ....    0
 Multiplicity           Mult            ....    1
 Number of Electrons    NEL             ....  134
 Basis Dimension        Dim             ....  322

ORBITAL ENERGIES
----------------

  NO   OCC          E(Eh)            E(eV)
   0   2.0000     -88.973323     -2421.0872
   1   2.0000     -88.964150     -2420.8376
   2   2.0000     -10.334118      -281.2057
   3   2.0000     -10.324618      -280.9471
   4   2.0000     -10.320881      -280.8455
   5   2.0000     -10.315852      -280.7086
   6   2.0000     -10.309670      -280.5404
   7   2.0000     -10.302708      -280.3509
   8   2.0000     -10.297372      -280.2057
   9   2.0000     -10.296693      -280.1873
  10   2.0000     -10.295023      -280.1418
  11   2.0000     -10.291571      -280.0479
  12   2.0000     -10.288381      -279.9611
  13   2.0000     -10.288265      -279.9579
  14   2.0000     -10.287031      -279.9243
  15   2.0000     -10.274411      -279.5809
  16   2.0000      -8.086561      -220.0465
  17   2.0000      -8.079814      -219.8629
  18   2.0000      -6.044898      -164.4900
  19   2.0000      -6.041277      -164.3915
  20   2.0000      -6.038353      -164.3119
  21   2.0000      -6.037599      -164.2914
  22   2.0000      -6.034224      -164.1996
  23   2.0000      -6.030455      -164.0970
  24   2.0000      -1.004799       -27.3420
  25   2.0000      -0.974406       -26.5149
  26   2.0000      -0.915554       -24.9135
  27   2.0000      -0.908515       -24.7219
  28   2.0000      -0.866468       -23.5778
  29   2.0000      -0.852886       -23.2082
  30   2.0000      -0.847763       -23.0688
  31   2.0000      -0.809900       -22.0385
  32   2.0000      -0.784189       -21.3389
  33   2.0000      -0.769265       -20.9328
  34   2.0000      -0.705381       -19.1944
  35   2.0000      -0.695634       -18.9292
  36   2.0000      -0.687900       -18.7187
  37   2.0000      -0.654309       -17.8047
  38   2.0000      -0.639817       -17.4103
  39   2.0000      -0.621423       -16.9098
  40   2.0000      -0.596544       -16.2328
  41   2.0000      -0.574920       -15.6444
  42   2.0000      -0.562038       -15.2938
  43   2.0000      -0.552146       -15.0247
  44   2.0000      -0.541654       -14.7392
  45   2.0000      -0.527204       -14.3460
  46   2.0000      -0.516164       -14.0455
  47   2.0000      -0.512607       -13.9488
  48   2.0000      -0.502552       -13.6751
  49   2.0000      -0.494006       -13.4426
  50   2.0000      -0.485843       -13.2205
  51   2.0000      -0.474599       -12.9145
  52   2.0000      -0.469734       -12.7821
  53   2.0000      -0.463683       -12.6175
  54   2.0000      -0.456305       -12.4167
  55   2.0000      -0.452819       -12.3218
  56   2.0000      -0.444996       -12.1089
  57   2.0000      -0.436698       -11.8832
  58   2.0000      -0.428412       -11.6577
  59   2.0000      -0.424848       -11.5607
  60   2.0000      -0.420780       -11.4500
  61   2.0000      -0.418415       -11.3857
  62   2.0000      -0.410531       -11.1711
  63   2.0000      -0.339974        -9.2512
  64   2.0000      -0.335171        -9.1205
  65   2.0000      -0.325663        -8.8617
  66   2.0000      -0.292344        -7.9551
  67   0.0000       0.034020         0.9257
  68   0.0000       0.062001         1.6871
  69   0.0000       0.108660         2.9568
  70   0.0000       0.117490         3.1971
  71   0.0000       0.125948         3.4272

MULLIKEN ATOMIC CHARGES
-----------------------
   0 S :    0.120404
   1 C :   -0.120603
   2 C :   -0.104355
   3 C :    0.051285
   4 C :   -0.159336
   5 H :   -0.004887
   6 C :    0.061839
   7 H :    0.030552
   8 H :    0.015891
   9 C :   -0.070562
  10 H :    0.031925
  11 H :    0.042470
  12 C :   -0.089455
  13 H :    0.050386
  14 H :    0.045292
  15 H :    0.031016
  16 S :    0.124449
  17 C :   -0.081587
  18 C :   -0.072039
  19 C :    0.005832
  20 C :   -0.177481
  21 H :    0.032276
  22 C :    0.029894
  23 H :    0.047821
  24 H :    0.027741
  25 C :   -0.047336
  26 H :    0.017654
  27 H :    0.038461
  28 C :   -0.039144
  29 H :    0.014899
  30 H :    0.034916
  31 H :    0.031768
  32 H :    0.046462
  33 H :    0.033553
Sum of atomic charges:   -0.0000000

LOEWDIN ATOMIC CHARGES
----------------------
   0 S :    0.418265
   1 C :   -0.213896
   2 C :   -0.066607
   3 C :   -0.057144
   4 C :   -0.199228
   5 H :    0.025255
   6 C :   -0.032763
   7 H :    0.033217
   8 H :    0.030454
   9 C :   -0.052929
  10 H :    0.025549
  11 H :    0.033290
  12 C :   -0.080968
  13 H :    0.036477
  14 H :    0.031707
  15 H :    0.025728
  16 S :    0.399828
  17 C :   -0.176657
  18 C :   -0.073876
  19 C :   -0.046743
  20 C :   -0.191672
  21 H :    0.031356
  22 C :   -0.036559
  23 H :    0.041649
  24 H :    0.029973
  25 C :   -0.040643
  26 H :    0.018502
  27 H :    0.032155
  28 C :   -0.064983
  29 H :    0.020720
  30 H :    0.025611
  31 H :    0.029436
  32 H :    0.034641
  33 H :    0.010856

  Mayer bond orders larger than 0.100000
B(  0-S ,  1-C ) :   1.1297 B(  0-S ,  4-C ) :   1.1491 B(  1-C ,  2-C ) :   1.6569
B(  1-C , 32-H ) :   0.9550 B(  2-C ,  3-C ) :   1.2095 B(  2-C ,  6-C ) :   1.0200
B(  3-C ,  4-C ) :   1.6148 B(  3-C ,  5-H ) :   1.0009 B(  4-C , 20-C ) :   1.0071
B(  6-C ,  7-H ) :   0.9373 B(  6-C ,  8-H ) :   0.9357 B(  6-C ,  9-C ) :   1.0638
B(  9-C , 10-H ) :   0.9554 B(  9-C , 11-H ) :   0.9550 B(  9-C , 12-C ) :   1.0736
B( 12-C , 13-H ) :   0.9740 B( 12-C , 14-H ) :   0.9761 B( 12-C , 15-H ) :   0.9714
B( 16-S , 17-C ) :   1.1794 B( 16-S , 20-C ) :   1.1438 B( 17-C , 18-C ) :   1.5877
B( 17-C , 20-C ) :   0.1200 B( 17-C , 33-H ) :   0.9730 B( 18-C , 19-C ) :   1.2452
B( 18-C , 21-H ) :   0.9852 B( 19-C , 20-C ) :   1.5750 B( 19-C , 22-C ) :   1.0307
B( 22-C , 23-H ) :   0.9314 B( 22-C , 24-H ) :   0.9443 B( 22-C , 25-C ) :   1.0642
B( 25-C , 26-H ) :   0.9595 B( 25-C , 27-H ) :   0.9537 B( 25-C , 28-C ) :   1.0708
B( 28-C , 29-H ) :   0.9714 B( 28-C , 30-H ) :   0.9757 B( 28-C , 31-H ) :   0.9763

Dispersion correction           -0.013992042
FINAL SINGLE POINT ENERGY     -1339.864139295495

DIPOLE MOMENT
-------------
                                X             Y             Z
Electronic contribution:    -26.95173     -11.73649       2.34200
Nuclear contribution   :     27.49935      12.12026      -2.22011
                        -----------------------------------------
Total Dipole Moment    :      0.54762       0.38377       0.12189
                        -----------------------------------------
Magnitude (a.u.)       :      0.67972
Magnitude (Debye)      :      1.72772

Rotational constants in cm-1:     0.017535     0.008500     0.006648
Rotational constants in MHz :   525.693091   254.837275   199.311688

                             ****ORCA TERMINATED NORMALLY****
TOTAL RUN TIME: 0 days 0 hours 0 minutes 33 seconds 902 msec
