                         Program Version 4.2.1 -  RELEASE  -
|  1> ! wB97X-D3 SP def2-SVP
|  2> %pal
|  3> nprocs 16
|  4> end
|  5>
|  6> * xyz 0 1
|  7> S 	 32.6238 	 24.8851 	 52.1751
|  8> C 	 33.0321 	 26.4767 	 51.7865
|  9> C 	 33.8033 	 27.1043 	 52.784
| 10> C 	 34.0774 	 26.1502 	 53.8139
| 11> C 	 33.6131 	 24.8847 	 53.6347
| 12> H 	 34.6861 	 26.3618 	 54.7062
| 13> C 	 34.3079 	 28.5479 	 52.8019
| 14> H 	 34.8581 	 28.7974 	 51.911
| 15> H 	 35.0629 	 28.5119 	 53.6376
| 16> C 	 33.2982 	 29.6707 	 52.9993
| 17> H 	 32.5551 	 29.4279 	 53.777
| 18> H 	 33.8633 	 30.4979 	 53.4164
| 19> C 	 32.6219 	 30.1466 	 51.7215
| 20> H 	 32.1992 	 31.0571 	 51.9231
| 21> H 	 33.2797 	 30.3077 	 50.9123
| 22> H 	 31.8198 	 29.4238 	 51.6245
| 23> S 	 32.6333 	 23.1003 	 55.5963
| 24> C 	 33.7952 	 21.9577 	 56.2826
| 25> C 	 34.9625 	 21.8957 	 55.621
| 26> C 	 35.0157 	 22.9075 	 54.5551
| 27> C 	 33.8465 	 23.6999 	 54.4664
| 28> H 	 35.7463 	 21.1079 	 55.8993
| 29> C 	 36.1884 	 23.0961 	 53.6925
| 30> H 	 37.1058 	 22.8791 	 54.2598
| 31> H 	 36.185 	 24.1985 	 53.537
| 32> C 	 36.1172 	 22.3467 	 52.4012
| 33> H 	 35.2359 	 22.771 	 51.8836
| 34> H 	 36.0301 	 21.3134 	 52.6453
| 35> C 	 37.2538 	 22.5852 	 51.3918
| 36> H 	 37.3454 	 23.6275 	 51.3055
| 37> H 	 37.2058 	 22.086 	 50.4532
| 38> H 	 38.2246 	 22.236 	 51.7985
| 39> H 	 32.7121 	 26.9856 	 50.9025
| 40> H 	 33.546 	 21.2152 	 57.0288
| 41> *
| 42>
| 43>                          ****END OF INPUT****

CARTESIAN COORDINATES (ANGSTROEM)
---------------------------------
  S     32.623800   24.885100   52.175100
  C     33.032100   26.476700   51.786500
  C     33.803300   27.104300   52.784000
  C     34.077400   26.150200   53.813900
  C     33.613100   24.884700   53.634700
  H     34.686100   26.361800   54.706200
  C     34.307900   28.547900   52.801900
  H     34.858100   28.797400   51.911000
  H     35.062900   28.511900   53.637600
  C     33.298200   29.670700   52.999300
  H     32.555100   29.427900   53.777000
  H     33.863300   30.497900   53.416400
  C     32.621900   30.146600   51.721500
  H     32.199200   31.057100   51.923100
  H     33.279700   30.307700   50.912300
  H     31.819800   29.423800   51.624500
  S     32.633300   23.100300   55.596300
  C     33.795200   21.957700   56.282600
  C     34.962500   21.895700   55.621000
  C     35.015700   22.907500   54.555100
  C     33.846500   23.699900   54.466400
  H     35.746300   21.107900   55.899300
  C     36.188400   23.096100   53.692500
  H     37.105800   22.879100   54.259800
  H     36.185000   24.198500   53.537000
  C     36.117200   22.346700   52.401200
  H     35.235900   22.771000   51.883600
  H     36.030100   21.313400   52.645300
  C     37.253800   22.585200   51.391800
  H     37.345400   23.627500   51.305500
  H     37.205800   22.086000   50.453200
  H     38.224600   22.236000   51.798500
  H     32.712100   26.985600   50.902500
  H     33.546000   21.215200   57.028800

 Total Charge           Charge          ....    0
 Multiplicity           Mult            ....    1
 Number of Electrons    NEL             ....  134
 Basis Dimension        Dim             ....  322

ORBITAL ENERGIES
----------------

  NO   OCC          E(Eh)            E(eV)
   0   2.0000     -88.966390     -2420.8986
   1   2.0000     -88.964035     -2420.8345
   2   2.0000     -10.328731      -281.0591
   3   2.0000     -10.327128      -281.0154
   4   2.0000     -10.315397      -280.6962
   5   2.0000     -10.313143      -280.6349
   6   2.0000     -10.306700      -280.4596
   7   2.0000     -10.302902      -280.3562
   8   2.0000     -10.299806      -280.2720
   9   2.0000     -10.295279      -280.1488
  10   2.0000     -10.294878      -280.1379
  11   2.0000     -10.284175      -279.8466
  12   2.0000     -10.282431      -279.7992
  13   2.0000     -10.277805      -279.6733
  14   2.0000     -10.268349      -279.4160
  15   2.0000     -10.268192      -279.4117
  16   2.0000      -8.081845      -219.9182
  17   2.0000      -8.078380      -219.8239
  18   2.0000      -6.040147      -164.3608
  19   2.0000      -6.036987      -164.2748
  20   2.0000      -6.036079      -164.2501
  21   2.0000      -6.033025      -164.1670
  22   2.0000      -6.032943      -164.1647
  23   2.0000      -6.028979      -164.0569
  24   2.0000      -1.006697       -27.3936
  25   2.0000      -0.984176       -26.7808
  26   2.0000      -0.914099       -24.8739
  27   2.0000      -0.913104       -24.8468
  28   2.0000      -0.871546       -23.7160
  29   2.0000      -0.854281       -23.2462
  30   2.0000      -0.846074       -23.0228
  31   2.0000      -0.819463       -22.2987
  32   2.0000      -0.786662       -21.4062
  33   2.0000      -0.768739       -20.9185
  34   2.0000      -0.705511       -19.1979
  35   2.0000      -0.698044       -18.9947
  36   2.0000      -0.689947       -18.7744
  37   2.0000      -0.652679       -17.7603
  38   2.0000      -0.646497       -17.5921
  39   2.0000      -0.619921       -16.8689
  40   2.0000      -0.592386       -16.1197
  41   2.0000      -0.577486       -15.7142
  42   2.0000      -0.569133       -15.4869
  43   2.0000      -0.551540       -15.0082
  44   2.0000      -0.539863       -14.6904
  45   2.0000      -0.524167       -14.2633
  46   2.0000      -0.517767       -14.0892
  47   2.0000      -0.515251       -14.0207
  48   2.0000      -0.505412       -13.7529
  49   2.0000      -0.501611       -13.6495
  50   2.0000      -0.497890       -13.5483
  51   2.0000      -0.475143       -12.9293
  52   2.0000      -0.473683       -12.8896
  53   2.0000      -0.463919       -12.6239
  54   2.0000      -0.456511       -12.4223
  55   2.0000      -0.452937       -12.3250
  56   2.0000      -0.441317       -12.0088
  57   2.0000      -0.436876       -11.8880
  58   2.0000      -0.435023       -11.8376
  59   2.0000      -0.428781       -11.6677
  60   2.0000      -0.417581       -11.3630
  61   2.0000      -0.408821       -11.1246
  62   2.0000      -0.406036       -11.0488
  63   2.0000      -0.342121        -9.3096
  64   2.0000      -0.332054        -9.0357
  65   2.0000      -0.320719        -8.7272
  66   2.0000      -0.304627        -8.2893
  67   0.0000       0.044415         1.2086
  68   0.0000       0.053173         1.4469
  69   0.0000       0.118175         3.2157
  70   0.0000       0.124627         3.3913
  71   0.0000       0.127907         3.4805

MULLIKEN ATOMIC CHARGES
-----------------------
   0 S :    0.128622
   1 C :   -0.112097
   2 C :   -0.102177
   3 C :    0.048141
   4 C :   -0.203539
   5 H :    0.020011
   6 C :    0.066183
   7 H :    0.025439
   8 H :    0.024968
   9 C :   -0.092582
  10 H :    0.032756
  11 H :    0.021393
  12 C :    0.016222
  13 H :    0.009432
  14 H :    0.022327
  15 H :    0.033878
  16 S :    0.104018
  17 C :   -0.083991
  18 C :   -0.044401
  19 C :   -0.061611
  20 C :   -0.157088
  21 H :    0.052072
  22 C :    0.070010
  23 H :    0.016416
  24 H :    0.022020
  25 C :   -0.063084
  26 H :    0.029137
  27 H :    0.020411
  28 C :    0.000934
  29 H :    0.015438
  30 H :    0.033833
  31 H :    0.010136
  32 H :    0.042939
  33 H :    0.053832
Sum of atomic charges:    0.0000000

LOEWDIN ATOMIC CHARGES
----------------------
   0 S :    0.431606
   1 C :   -0.207253
   2 C :   -0.070836
   3 C :   -0.058327
   4 C :   -0.207234
   5 H :    0.035743
   6 C :   -0.033465
   7 H :    0.029301
   8 H :    0.035899
   9 C :   -0.040088
  10 H :    0.027725
  11 H :    0.021502
  12 C :   -0.053509
  13 H :    0.017699
  14 H :    0.020170
  15 H :    0.029985
  16 S :    0.387817
  17 C :   -0.174923
  18 C :   -0.082981
  19 C :   -0.040504
  20 C :   -0.207260
  21 H :    0.049830
  22 C :   -0.043928
  23 H :    0.027201
  24 H :    0.035489
  25 C :   -0.035803
  26 H :    0.028580
  27 H :    0.018382
  28 C :   -0.059420
  29 H :    0.018938
  30 H :    0.023932
  31 H :    0.022214
  32 H :    0.023735
  33 H :    0.029785

  Mayer bond orders larger than 0.100000
B(  0-S ,  1-C ) :   1.1828 B(  0-S ,  4-C ) :   1.1441 B(  1-C ,  2-C ) :   1.5651
B(  1-C , 32-H ) :   0.9700 B(  2-C ,  3-C ) :   1.2748 B(  2-C ,  6-C ) :   1.0143
B(  3-C ,  4-C ) :   1.5930 B(  3-C ,  5-H ) :   0.9840 B(  4-C , 20-C ) :   1.0206
B(  6-C ,  7-H ) :   0.9390 B(  6-C ,  8-H ) :   0.9409 B(  6-C ,  9-C ) :   1.0702
B(  9-C , 10-H ) :   0.9578 B(  9-C , 11-H ) :   0.9546 B(  9-C , 12-C ) :   1.0797
B( 12-C , 13-H ) :   0.9669 B( 12-C , 14-H ) :   0.9733 B( 12-C , 15-H ) :   0.9758
B( 16-S , 17-C ) :   1.1435 B( 16-S , 20-C ) :   1.1229 B( 17-C , 18-C ) :   1.6586
B( 17-C , 33-H ) :   0.9597 B( 18-C , 19-C ) :   1.2125 B( 18-C , 21-H ) :   0.9755
B( 19-C , 20-C ) :   1.6133 B( 19-C , 22-C ) :   1.0592 B( 22-C , 23-H ) :   0.9275
B( 22-C , 24-H ) :   0.9129 B( 22-C , 25-C ) :   1.0713 B( 25-C , 26-H ) :   0.9508
B( 25-C , 27-H ) :   0.9561 B( 25-C , 28-C ) :   1.0853 B( 28-C , 29-H ) :   0.9726
B( 28-C , 30-H ) :   0.9754 B( 28-C , 31-H ) :   0.9711

Dispersion correction           -0.014483718
FINAL SINGLE POINT ENERGY     -1339.876358402463

DIPOLE MOMENT
-------------
                                X             Y             Z
Electronic contribution:    -14.36690     -14.03297      10.70007
Nuclear contribution   :     14.83200      14.35897     -10.74291
                        -----------------------------------------
Total Dipole Moment    :      0.46510       0.32600      -0.04284
                        -----------------------------------------
Magnitude (a.u.)       :      0.56959
Magnitude (Debye)      :      1.44778

Rotational constants in cm-1:     0.020610     0.007800     0.006578
Rotational constants in MHz :   617.876608   233.843896   197.216337

                             ****ORCA TERMINATED NORMALLY****
TOTAL RUN TIME: 0 days 0 hours 0 minutes 35 seconds 51 msec
