                         Program Version 4.2.1 -  RELEASE  -
|  1> ! wB97X-D3 SP def2-SVP
|  2> %pal
|  3> nprocs 16
|  4> end
|  5>
|  6> * xyz 0 1
|  7> S 	 -47.0946 	 55.8309 	 95.6883
|  8> C 	 -48.518 	 55.4115 	 96.6688
|  9> C 	 -48.2709 	 55.3081 	 98.0524
| 10> C 	 -46.9322 	 55.6944 	 98.3355
| 11> C 	 -46.2001 	 56.039 	 97.1874
| 12> H 	 -46.5065 	 55.7168 	 99.3136
| 13> C 	 -49.3208 	 54.8819 	 99.0812
| 14> H 	 -50.2955 	 54.807 	 98.5821
| 15> H 	 -49.3247 	 55.6554 	 99.9044
| 16> C 	 -49.0123 	 53.5787 	 99.7544
| 17> H 	 -48.8169 	 52.8128 	 99.0443
| 18> H 	 -48.1451 	 53.5872 	 100.439
| 19> C 	 -50.1597 	 53.084 	 100.677
| 20> H 	 -51.1311 	 53.14 	 100.122
| 21> H 	 -49.9612 	 52.0348 	 100.911
| 22> H 	 -50.1375 	 53.623 	 101.617
| 23> S 	 -43.7819 	 55.0323 	 96.1924
| 24> C 	 -42.2869 	 55.5108 	 96.8231
| 25> C 	 -42.4937 	 56.489 	 97.8236
| 26> C 	 -43.8492 	 56.7726 	 98.1446
| 27> C 	 -44.7358 	 56.1723 	 97.219
| 28> H 	 -41.6078 	 56.8683 	 98.3228
| 29> C 	 -44.2331 	 57.8142 	 99.1488
| 30> H 	 -44.506 	 57.2205 	 100.018
| 31> H 	 -45.0845 	 58.4082 	 98.8264
| 32> C 	 -43.1901 	 58.8718 	 99.6227
| 33> H 	 -42.2583 	 58.3492 	 99.8884
| 34> H 	 -43.5306 	 59.3606 	 100.53
| 35> C 	 -43.0217 	 60.0207 	 98.5896
| 36> H 	 -42.1938 	 60.6749 	 98.9064
| 37> H 	 -44.0269 	 60.5277 	 98.4669
| 38> H 	 -42.7895 	 59.772 	 97.5799
| 39> H 	 -49.348 	 54.8733 	 96.1415
| 40> H 	 -41.3438 	 55.2403 	 96.3915
| 41> *
| 42>
| 43>                          ****END OF INPUT****

CARTESIAN COORDINATES (ANGSTROEM)
---------------------------------
  S    -47.094600   55.830900   95.688300
  C    -48.518000   55.411500   96.668800
  C    -48.270900   55.308100   98.052400
  C    -46.932200   55.694400   98.335500
  C    -46.200100   56.039000   97.187400
  H    -46.506500   55.716800   99.313600
  C    -49.320800   54.881900   99.081200
  H    -50.295500   54.807000   98.582100
  H    -49.324700   55.655400   99.904400
  C    -49.012300   53.578700   99.754400
  H    -48.816900   52.812800   99.044300
  H    -48.145100   53.587200  100.439000
  C    -50.159700   53.084000  100.677000
  H    -51.131100   53.140000  100.122000
  H    -49.961200   52.034800  100.911000
  H    -50.137500   53.623000  101.617000
  S    -43.781900   55.032300   96.192400
  C    -42.286900   55.510800   96.823100
  C    -42.493700   56.489000   97.823600
  C    -43.849200   56.772600   98.144600
  C    -44.735800   56.172300   97.219000
  H    -41.607800   56.868300   98.322800
  C    -44.233100   57.814200   99.148800
  H    -44.506000   57.220500  100.018000
  H    -45.084500   58.408200   98.826400
  C    -43.190100   58.871800   99.622700
  H    -42.258300   58.349200   99.888400
  H    -43.530600   59.360600  100.530000
  C    -43.021700   60.020700   98.589600
  H    -42.193800   60.674900   98.906400
  H    -44.026900   60.527700   98.466900
  H    -42.789500   59.772000   97.579900
  H    -49.348000   54.873300   96.141500
  H    -41.343800   55.240300   96.391500

 Total Charge           Charge          ....    0
 Multiplicity           Mult            ....    1
 Number of Electrons    NEL             ....  134
 Basis Dimension        Dim             ....  322

ORBITAL ENERGIES
----------------

  NO   OCC          E(Eh)            E(eV)
   0   2.0000     -88.971718     -2421.0435
   1   2.0000     -88.962118     -2420.7823
   2   2.0000     -10.333748      -281.1956
   3   2.0000     -10.330111      -281.0966
   4   2.0000     -10.320006      -280.8216
   5   2.0000     -10.314293      -280.6662
   6   2.0000     -10.307745      -280.4880
   7   2.0000     -10.305837      -280.4361
   8   2.0000     -10.300465      -280.2899
   9   2.0000     -10.296671      -280.1867
  10   2.0000     -10.293236      -280.0932
  11   2.0000     -10.291808      -280.0543
  12   2.0000     -10.290885      -280.0292
  13   2.0000     -10.283894      -279.8390
  14   2.0000     -10.282260      -279.7945
  15   2.0000     -10.279930      -279.7311
  16   2.0000      -8.085706      -220.0233
  17   2.0000      -8.077018      -219.7868
  18   2.0000      -6.044104      -164.4684
  19   2.0000      -6.040484      -164.3699
  20   2.0000      -6.036470      -164.2607
  21   2.0000      -6.035397      -164.2315
  22   2.0000      -6.031277      -164.1194
  23   2.0000      -6.028122      -164.0335
  24   2.0000      -1.000405       -27.2224
  25   2.0000      -0.979024       -26.6406
  26   2.0000      -0.915250       -24.9052
  27   2.0000      -0.907944       -24.7064
  28   2.0000      -0.864304       -23.5189
  29   2.0000      -0.853454       -23.2237
  30   2.0000      -0.842510       -22.9259
  31   2.0000      -0.806347       -21.9418
  32   2.0000      -0.783247       -21.3132
  33   2.0000      -0.769710       -20.9449
  34   2.0000      -0.707186       -19.2435
  35   2.0000      -0.697534       -18.9809
  36   2.0000      -0.690619       -18.7927
  37   2.0000      -0.651859       -17.7380
  38   2.0000      -0.636950       -17.3323
  39   2.0000      -0.621537       -16.9129
  40   2.0000      -0.600007       -16.3270
  41   2.0000      -0.576596       -15.6900
  42   2.0000      -0.559103       -15.2140
  43   2.0000      -0.555965       -15.1286
  44   2.0000      -0.533123       -14.5070
  45   2.0000      -0.524282       -14.2664
  46   2.0000      -0.514678       -14.0051
  47   2.0000      -0.510755       -13.8984
  48   2.0000      -0.505723       -13.7614
  49   2.0000      -0.496965       -13.5231
  50   2.0000      -0.486946       -13.2505
  51   2.0000      -0.472917       -12.8687
  52   2.0000      -0.470797       -12.8110
  53   2.0000      -0.465374       -12.6635
  54   2.0000      -0.460249       -12.5240
  55   2.0000      -0.454975       -12.3805
  56   2.0000      -0.439732       -11.9657
  57   2.0000      -0.438287       -11.9264
  58   2.0000      -0.430977       -11.7275
  59   2.0000      -0.424620       -11.5545
  60   2.0000      -0.421917       -11.4809
  61   2.0000      -0.417603       -11.3635
  62   2.0000      -0.413196       -11.2436
  63   2.0000      -0.344280        -9.3683
  64   2.0000      -0.333216        -9.0673
  65   2.0000      -0.328002        -8.9254
  66   2.0000      -0.284039        -7.7291
  67   0.0000       0.020744         0.5645
  68   0.0000       0.068301         1.8586
  69   0.0000       0.108027         2.9396
  70   0.0000       0.121789         3.3141
  71   0.0000       0.127787         3.4773

MULLIKEN ATOMIC CHARGES
-----------------------
   0 S :    0.109009
   1 C :   -0.142842
   2 C :   -0.082789
   3 C :    0.035156
   4 C :   -0.138430
   5 H :    0.003045
   6 C :    0.079505
   7 H :    0.023812
   8 H :    0.040086
   9 C :   -0.100978
  10 H :    0.024248
  11 H :    0.029976
  12 C :   -0.057229
  13 H :    0.037064
  14 H :    0.034611
  15 H :    0.037230
  16 S :    0.095471
  17 C :   -0.086101
  18 C :   -0.057846
  19 C :   -0.026403
  20 C :   -0.147764
  21 H :    0.017870
  22 C :    0.038819
  23 H :    0.037207
  24 H :    0.034659
  25 C :   -0.064274
  26 H :    0.027365
  27 H :    0.029927
  28 C :   -0.067835
  29 H :    0.042139
  30 H :    0.037391
  31 H :    0.029852
  32 H :    0.071007
  33 H :    0.057043
Sum of atomic charges:    0.0000000

LOEWDIN ATOMIC CHARGES
----------------------
   0 S :    0.397828
   1 C :   -0.204981
   2 C :   -0.055234
   3 C :   -0.050439
   4 C :   -0.193409
   5 H :    0.027368
   6 C :   -0.030341
   7 H :    0.032706
   8 H :    0.039903
   9 C :   -0.045743
  10 H :    0.018498
  11 H :    0.025888
  12 C :   -0.064260
  13 H :    0.026999
  14 H :    0.027791
  15 H :    0.023362
  16 S :    0.410614
  17 C :   -0.204569
  18 C :   -0.078801
  19 C :   -0.057841
  20 C :   -0.187409
  21 H :    0.028166
  22 C :   -0.034904
  23 H :    0.033996
  24 H :    0.032754
  25 C :   -0.037754
  26 H :    0.020235
  27 H :    0.027618
  28 C :   -0.071510
  29 H :    0.029646
  30 H :    0.033305
  31 H :    0.019427
  32 H :    0.032956
  33 H :    0.028135

  Mayer bond orders larger than 0.100000
B(  0-S ,  1-C ) :   1.1344 B(  0-S ,  4-C ) :   1.1595 B(  1-C ,  2-C ) :   1.6059
B(  1-C , 32-H ) :   0.9531 B(  2-C ,  3-C ) :   1.2639 B(  2-C ,  6-C ) :   1.0280
B(  3-C ,  4-C ) :   1.5381 B(  3-C ,  5-H ) :   0.9948 B(  4-C , 20-C ) :   1.0508
B(  6-C ,  7-H ) :   0.9406 B(  6-C ,  8-H ) :   0.9365 B(  6-C ,  9-C ) :   1.0685
B(  9-C , 10-H ) :   0.9571 B(  9-C , 11-H ) :   0.9529 B(  9-C , 12-C ) :   1.0869
B( 12-C , 13-H ) :   0.9743 B( 12-C , 14-H ) :   0.9755 B( 12-C , 15-H ) :   0.9771
B( 16-S , 17-C ) :   1.1916 B( 16-S , 20-C ) :   1.1446 B( 17-C , 18-C ) :   1.5539
B( 17-C , 20-C ) :   0.1101 B( 17-C , 33-H ) :   0.9682 B( 18-C , 19-C ) :   1.2825
B( 18-C , 21-H ) :   0.9867 B( 19-C , 20-C ) :   1.5497 B( 19-C , 22-C ) :   1.0310
B( 22-C , 23-H ) :   0.9131 B( 22-C , 24-H ) :   0.9487 B( 22-C , 25-C ) :   1.0942
B( 25-C , 26-H ) :   0.9491 B( 25-C , 27-H ) :   0.9531 B( 25-C , 28-C ) :   1.0685
B( 28-C , 29-H ) :   0.9754 B( 28-C , 30-H ) :   0.9718 B( 28-C , 31-H ) :   0.9803

Dispersion correction           -0.013582337
FINAL SINGLE POINT ENERGY     -1339.876628829353

DIPOLE MOMENT
-------------
                                X             Y             Z
Electronic contribution:      6.48488      -5.30911     -22.48349
Nuclear contribution   :     -6.50438       5.21784      23.13889
                        -----------------------------------------
Total Dipole Moment    :     -0.01950      -0.09127       0.65540
                        -----------------------------------------
Magnitude (a.u.)       :      0.66201
Magnitude (Debye)      :      1.68270

Rotational constants in cm-1:     0.019110     0.007363     0.006439
Rotational constants in MHz :   572.904873   220.727880   193.048004

                             ****ORCA TERMINATED NORMALLY****
TOTAL RUN TIME: 0 days 0 hours 0 minutes 28 seconds 798 msec
