                         Program Version 4.2.1 -  RELEASE  -
|  1> ! wB97X-D3 SP def2-SVP
|  2> %pal
|  3> nprocs 16
|  4> end
|  5>
|  6> * xyz 0 1
|  7> S 	 -66.9401 	 37.671 	 141.935
|  8> C 	 -68.3931 	 36.7337 	 141.936
|  9> C 	 -68.0766 	 35.4138 	 142.328
| 10> C 	 -66.6495 	 35.2232 	 142.588
| 11> C 	 -65.953 	 36.3791 	 142.529
| 12> H 	 -66.0549 	 34.3759 	 142.822
| 13> C 	 -69.0672 	 34.2861 	 142.652
| 14> H 	 -70.1271 	 34.636 	 142.507
| 15> H 	 -69.0483 	 34.157 	 143.761
| 16> C 	 -68.8474 	 32.9304 	 141.972
| 17> H 	 -67.8279 	 32.7345 	 142.021
| 18> H 	 -69.4784 	 32.2352 	 142.492
| 19> C 	 -69.1706 	 32.9189 	 140.52
| 20> H 	 -69.1014 	 31.873 	 140.203
| 21> H 	 -70.1923 	 33.183 	 140.257
| 22> H 	 -68.6584 	 33.6275 	 139.863
| 23> S 	 -64.3754 	 37.8358 	 144.201
| 24> C 	 -62.6451 	 37.7675 	 144.061
| 25> C 	 -62.245 	 36.875 	 143.086
| 26> C 	 -63.3425 	 36.3201 	 142.339
| 27> C 	 -64.5542 	 36.6172 	 142.932
| 28> H 	 -61.1662 	 36.9594 	 142.823
| 29> C 	 -63.2457 	 35.2812 	 141.229
| 30> H 	 -64.1367 	 35.2152 	 140.648
| 31> H 	 -63.098 	 34.3109 	 141.685
| 32> C 	 -62.1202 	 35.4918 	 140.162
| 33> H 	 -62.2442 	 34.7363 	 139.413
| 34> H 	 -61.1575 	 35.3082 	 140.526
| 35> C 	 -62.0952 	 36.7576 	 139.327
| 36> H 	 -61.2346 	 36.777 	 138.632
| 37> H 	 -62.1483 	 37.6519 	 139.994
| 38> H 	 -62.9228 	 36.7796 	 138.647
| 39> H 	 -69.3528 	 37.0981 	 141.669
| 40> H 	 -61.916 	 38.3859 	 144.619
| 41> *
| 42>
| 43>                          ****END OF INPUT****

CARTESIAN COORDINATES (ANGSTROEM)
---------------------------------
  S    -66.940100   37.671000  141.935000
  C    -68.393100   36.733700  141.936000
  C    -68.076600   35.413800  142.328000
  C    -66.649500   35.223200  142.588000
  C    -65.953000   36.379100  142.529000
  H    -66.054900   34.375900  142.822000
  C    -69.067200   34.286100  142.652000
  H    -70.127100   34.636000  142.507000
  H    -69.048300   34.157000  143.761000
  C    -68.847400   32.930400  141.972000
  H    -67.827900   32.734500  142.021000
  H    -69.478400   32.235200  142.492000
  C    -69.170600   32.918900  140.520000
  H    -69.101400   31.873000  140.203000
  H    -70.192300   33.183000  140.257000
  H    -68.658400   33.627500  139.863000
  S    -64.375400   37.835800  144.201000
  C    -62.645100   37.767500  144.061000
  C    -62.245000   36.875000  143.086000
  C    -63.342500   36.320100  142.339000
  C    -64.554200   36.617200  142.932000
  H    -61.166200   36.959400  142.823000
  C    -63.245700   35.281200  141.229000
  H    -64.136700   35.215200  140.648000
  H    -63.098000   34.310900  141.685000
  C    -62.120200   35.491800  140.162000
  H    -62.244200   34.736300  139.413000
  H    -61.157500   35.308200  140.526000
  C    -62.095200   36.757600  139.327000
  H    -61.234600   36.777000  138.632000
  H    -62.148300   37.651900  139.994000
  H    -62.922800   36.779600  138.647000
  H    -69.352800   37.098100  141.669000
  H    -61.916000   38.385900  144.619000

 Total Charge           Charge          ....    0
 Multiplicity           Mult            ....    1
 Number of Electrons    NEL             ....  134
 Basis Dimension        Dim             ....  322

ORBITAL ENERGIES
----------------

  NO   OCC          E(Eh)            E(eV)
   0   2.0000     -88.965035     -2420.8617
   1   2.0000     -88.962330     -2420.7881
   2   2.0000     -10.326265      -280.9920
   3   2.0000     -10.324231      -280.9366
   4   2.0000     -10.319873      -280.8180
   5   2.0000     -10.315360      -280.6952
   6   2.0000     -10.310112      -280.5524
   7   2.0000     -10.308976      -280.5215
   8   2.0000     -10.297643      -280.2131
   9   2.0000     -10.295086      -280.1435
  10   2.0000     -10.292538      -280.0742
  11   2.0000     -10.291194      -280.0376
  12   2.0000     -10.278494      -279.6920
  13   2.0000     -10.277504      -279.6651
  14   2.0000     -10.275310      -279.6054
  15   2.0000     -10.271124      -279.4915
  16   2.0000      -8.079798      -219.8625
  17   2.0000      -8.077845      -219.8093
  18   2.0000      -6.038230      -164.3086
  19   2.0000      -6.036370      -164.2580
  20   2.0000      -6.034282      -164.2012
  21   2.0000      -6.032127      -164.1425
  22   2.0000      -6.030644      -164.1022
  23   2.0000      -6.028638      -164.0476
  24   2.0000      -1.008353       -27.4387
  25   2.0000      -0.984443       -26.7881
  26   2.0000      -0.913190       -24.8492
  27   2.0000      -0.906975       -24.6800
  28   2.0000      -0.870951       -23.6998
  29   2.0000      -0.851418       -23.1683
  30   2.0000      -0.845592       -23.0097
  31   2.0000      -0.818326       -22.2678
  32   2.0000      -0.784355       -21.3434
  33   2.0000      -0.772614       -21.0239
  34   2.0000      -0.706978       -19.2378
  35   2.0000      -0.696961       -18.9653
  36   2.0000      -0.692682       -18.8488
  37   2.0000      -0.651372       -17.7247
  38   2.0000      -0.648911       -17.6578
  39   2.0000      -0.619692       -16.8627
  40   2.0000      -0.598348       -16.2819
  41   2.0000      -0.570685       -15.5291
  42   2.0000      -0.555454       -15.1147
  43   2.0000      -0.549095       -14.9416
  44   2.0000      -0.540802       -14.7160
  45   2.0000      -0.538745       -14.6600
  46   2.0000      -0.522561       -14.2196
  47   2.0000      -0.518903       -14.1201
  48   2.0000      -0.505309       -13.7502
  49   2.0000      -0.495420       -13.4811
  50   2.0000      -0.487520       -13.2661
  51   2.0000      -0.478547       -13.0219
  52   2.0000      -0.471747       -12.8369
  53   2.0000      -0.466699       -12.6995
  54   2.0000      -0.455791       -12.4027
  55   2.0000      -0.446911       -12.1611
  56   2.0000      -0.442323       -12.0362
  57   2.0000      -0.437891       -11.9156
  58   2.0000      -0.428770       -11.6674
  59   2.0000      -0.419853       -11.4248
  60   2.0000      -0.418661       -11.3923
  61   2.0000      -0.414207       -11.2712
  62   2.0000      -0.412608       -11.2276
  63   2.0000      -0.342182        -9.3112
  64   2.0000      -0.332517        -9.0482
  65   2.0000      -0.322575        -8.7777
  66   2.0000      -0.302919        -8.2428
  67   0.0000       0.038941         1.0596
  68   0.0000       0.064647         1.7591
  69   0.0000       0.116655         3.1743
  70   0.0000       0.121897         3.3170
  71   0.0000       0.126088         3.4310

MULLIKEN ATOMIC CHARGES
-----------------------
   0 S :    0.117585
   1 C :   -0.105150
   2 C :   -0.080559
   3 C :    0.045326
   4 C :   -0.166907
   5 H :    0.003315
   6 C :    0.012427
   7 H :    0.015891
   8 H :    0.045921
   9 C :   -0.005353
  10 H :    0.017386
  11 H :    0.027805
  12 C :   -0.057823
  13 H :    0.031811
  14 H :    0.007422
  15 H :    0.037393
  16 S :    0.109077
  17 C :   -0.111361
  18 C :   -0.042420
  19 C :   -0.025065
  20 C :   -0.177242
  21 H :    0.041995
  22 C :    0.086706
  23 H :    0.022267
  24 H :    0.043049
  25 C :   -0.067606
  26 H :    0.012068
  27 H :    0.011700
  28 C :   -0.057054
  29 H :    0.033973
  30 H :    0.044790
  31 H :    0.019424
  32 H :    0.039992
  33 H :    0.069218
Sum of atomic charges:    0.0000000

LOEWDIN ATOMIC CHARGES
----------------------
   0 S :    0.418057
   1 C :   -0.201926
   2 C :   -0.058275
   3 C :   -0.064006
   4 C :   -0.203174
   5 H :    0.029361
   6 C :   -0.039741
   7 H :    0.027941
   8 H :    0.036897
   9 C :   -0.034315
  10 H :    0.018049
  11 H :    0.028250
  12 C :   -0.069700
  13 H :    0.029217
  14 H :    0.019857
  15 H :    0.028304
  16 S :    0.406277
  17 C :   -0.189347
  18 C :   -0.086759
  19 C :   -0.052171
  20 C :   -0.195910
  21 H :    0.040756
  22 C :   -0.022381
  23 H :    0.028789
  24 H :    0.037460
  25 C :   -0.042389
  26 H :    0.024495
  27 H :    0.011643
  28 C :   -0.065674
  29 H :    0.030991
  30 H :    0.028247
  31 H :    0.019463
  32 H :    0.024047
  33 H :    0.037668

  Mayer bond orders larger than 0.100000
B(  0-S ,  1-C ) :   1.1375 B(  0-S ,  4-C ) :   1.1585 B(  1-C ,  2-C ) :   1.6006
B(  1-C , 32-H ) :   0.9793 B(  2-C ,  3-C ) :   1.1939 B(  2-C ,  6-C ) :   1.0245
B(  3-C ,  4-C ) :   1.6190 B(  3-C ,  5-H ) :   0.9972 B(  4-C , 20-C ) :   1.0077
B(  6-C ,  7-H ) :   0.9457 B(  6-C ,  8-H ) :   0.9436 B(  6-C ,  9-C ) :   1.0707
B(  9-C , 10-H ) :   0.9548 B(  9-C , 11-H ) :   0.9496 B(  9-C , 12-C ) :   1.0846
B( 12-C , 13-H ) :   0.9723 B( 12-C , 14-H ) :   0.9705 B( 12-C , 15-H ) :   0.9740
B( 16-S , 17-C ) :   1.1627 B( 16-S , 20-C ) :   1.1385 B( 17-C , 18-C ) :   1.6354
B( 17-C , 33-H ) :   0.9597 B( 18-C , 19-C ) :   1.2129 B( 18-C , 21-H ) :   0.9761
B( 19-C , 20-C ) :   1.6115 B( 19-C , 22-C ) :   1.0433 B( 22-C , 23-H ) :   0.9335
B( 22-C , 24-H ) :   0.9377 B( 22-C , 25-C ) :   1.0735 B( 25-C , 26-H ) :   0.9531
B( 25-C , 27-H ) :   0.9564 B( 25-C , 28-C ) :   1.0811 B( 28-C , 29-H ) :   0.9720
B( 28-C , 30-H ) :   0.9751 B( 28-C , 31-H ) :   0.9760

Dispersion correction           -0.014169430
FINAL SINGLE POINT ENERGY     -1339.873377318605

DIPOLE MOMENT
-------------
                                X             Y             Z
Electronic contribution:      0.64545      18.77446      15.84639
Nuclear contribution   :     -0.54476     -19.24667     -16.06987
                        -----------------------------------------
Total Dipole Moment    :      0.10070      -0.47222      -0.22348
                        -----------------------------------------
Magnitude (a.u.)       :      0.53204
Magnitude (Debye)      :      1.35235

Rotational constants in cm-1:     0.019561     0.008222     0.006844
Rotational constants in MHz :   586.415152   246.494464   205.191153

                             ****ORCA TERMINATED NORMALLY****
TOTAL RUN TIME: 0 days 0 hours 0 minutes 32 seconds 875 msec
