                         Program Version 4.2.1 -  RELEASE  -
|  1> ! wB97X-D3 SP def2-SVP
|  2> %pal
|  3> nprocs 16
|  4> end
|  5>
|  6> * xyz 0 1
|  7> S 	 22.1018 	 9.41428 	 66.3945
|  8> C 	 22.9896 	 10.9466 	 66.5108
|  9> C 	 22.7212 	 11.5859 	 67.7093
| 10> C 	 21.7397 	 10.8782 	 68.45
| 11> C 	 21.4032 	 9.65369 	 67.9583
| 12> H 	 21.1566 	 11.3038 	 69.2644
| 13> C 	 23.1156 	 13.044 	 67.9996
| 14> H 	 23.1067 	 13.5919 	 67.0654
| 15> H 	 24.1625 	 13.101 	 68.3376
| 16> C 	 22.2623 	 13.9162 	 68.9142
| 17> H 	 21.2776 	 13.9667 	 68.5451
| 18> H 	 22.3274 	 13.5642 	 69.8924
| 19> C 	 22.8423 	 15.3318 	 68.9803
| 20> H 	 22.3501 	 15.8501 	 68.0764
| 21> H 	 22.6676 	 15.822 	 69.9212
| 22> H 	 23.9226 	 15.3182 	 68.821
| 23> S 	 19.4308 	 7.8035 	 67.5068
| 24> C 	 18.8045 	 6.88723 	 68.782
| 25> C 	 19.1607 	 7.40523 	 70.0232
| 26> C 	 20.1287 	 8.40508 	 69.9313
| 27> C 	 20.483 	 8.68056 	 68.5739
| 28> H 	 18.8339 	 7.06183 	 70.972
| 29> C 	 20.8258 	 9.08239 	 71.0391
| 30> H 	 21.6735 	 9.64671 	 70.7292
| 31> H 	 21.1521 	 8.21067 	 71.6777
| 32> C 	 20.0347 	 10.0001 	 71.9702
| 33> H 	 19.1239 	 9.53586 	 72.3517
| 34> H 	 19.8059 	 10.8723 	 71.4576
| 35> C 	 20.8548 	 10.4821 	 73.1863
| 36> H 	 20.3632 	 11.2205 	 73.8145
| 37> H 	 21.8038 	 10.9106 	 72.8517
| 38> H 	 21.1011 	 9.6351 	 73.8372
| 39> H 	 23.5578 	 11.4016 	 65.7311
| 40> H 	 18.1321 	 6.05222 	 68.7502
| 41> *
| 42>
| 43>                          ****END OF INPUT****

CARTESIAN COORDINATES (ANGSTROEM)
---------------------------------
  S     22.101800    9.414280   66.394500
  C     22.989600   10.946600   66.510800
  C     22.721200   11.585900   67.709300
  C     21.739700   10.878200   68.450000
  C     21.403200    9.653690   67.958300
  H     21.156600   11.303800   69.264400
  C     23.115600   13.044000   67.999600
  H     23.106700   13.591900   67.065400
  H     24.162500   13.101000   68.337600
  C     22.262300   13.916200   68.914200
  H     21.277600   13.966700   68.545100
  H     22.327400   13.564200   69.892400
  C     22.842300   15.331800   68.980300
  H     22.350100   15.850100   68.076400
  H     22.667600   15.822000   69.921200
  H     23.922600   15.318200   68.821000
  S     19.430800    7.803500   67.506800
  C     18.804500    6.887230   68.782000
  C     19.160700    7.405230   70.023200
  C     20.128700    8.405080   69.931300
  C     20.483000    8.680560   68.573900
  H     18.833900    7.061830   70.972000
  C     20.825800    9.082390   71.039100
  H     21.673500    9.646710   70.729200
  H     21.152100    8.210670   71.677700
  C     20.034700   10.000100   71.970200
  H     19.123900    9.535860   72.351700
  H     19.805900   10.872300   71.457600
  C     20.854800   10.482100   73.186300
  H     20.363200   11.220500   73.814500
  H     21.803800   10.910600   72.851700
  H     21.101100    9.635100   73.837200
  H     23.557800   11.401600   65.731100
  H     18.132100    6.052220   68.750200

 Total Charge           Charge          ....    0
 Multiplicity           Mult            ....    1
 Number of Electrons    NEL             ....  134
 Basis Dimension        Dim             ....  322

ORBITAL ENERGIES
----------------

  NO   OCC          E(Eh)            E(eV)
   0   2.0000     -88.968470     -2420.9551
   1   2.0000     -88.967343     -2420.9245
   2   2.0000     -10.327200      -281.0174
   3   2.0000     -10.325944      -280.9832
   4   2.0000     -10.313926      -280.6562
   5   2.0000     -10.313822      -280.6534
   6   2.0000     -10.302368      -280.3417
   7   2.0000     -10.301072      -280.3064
   8   2.0000     -10.293373      -280.0969
   9   2.0000     -10.289509      -279.9918
  10   2.0000     -10.288971      -279.9771
  11   2.0000     -10.287217      -279.9294
  12   2.0000     -10.284571      -279.8574
  13   2.0000     -10.282134      -279.7911
  14   2.0000     -10.279129      -279.7093
  15   2.0000     -10.278867      -279.7022
  16   2.0000      -8.084210      -219.9825
  17   2.0000      -8.081943      -219.9209
  18   2.0000      -6.042440      -164.4232
  19   2.0000      -6.040466      -164.3694
  20   2.0000      -6.038545      -164.3171
  21   2.0000      -6.036535      -164.2625
  22   2.0000      -6.035250      -164.2275
  23   2.0000      -6.032630      -164.1562
  24   2.0000      -1.012114       -27.5410
  25   2.0000      -0.989703       -26.9312
  26   2.0000      -0.917743       -24.9731
  27   2.0000      -0.916035       -24.9266
  28   2.0000      -0.871788       -23.7226
  29   2.0000      -0.858982       -23.3741
  30   2.0000      -0.846309       -23.0293
  31   2.0000      -0.815620       -22.1941
  32   2.0000      -0.782448       -21.2915
  33   2.0000      -0.770035       -20.9537
  34   2.0000      -0.711015       -19.3477
  35   2.0000      -0.701822       -19.0975
  36   2.0000      -0.693995       -18.8846
  37   2.0000      -0.662265       -18.0211
  38   2.0000      -0.643116       -17.5001
  39   2.0000      -0.623775       -16.9738
  40   2.0000      -0.602179       -16.3861
  41   2.0000      -0.585544       -15.9335
  42   2.0000      -0.572969       -15.5913
  43   2.0000      -0.567612       -15.4455
  44   2.0000      -0.525916       -14.3109
  45   2.0000      -0.522484       -14.2175
  46   2.0000      -0.517958       -14.0944
  47   2.0000      -0.509784       -13.8719
  48   2.0000      -0.502214       -13.6659
  49   2.0000      -0.500772       -13.6267
  50   2.0000      -0.496492       -13.5102
  51   2.0000      -0.480693       -13.0803
  52   2.0000      -0.469036       -12.7631
  53   2.0000      -0.468527       -12.7493
  54   2.0000      -0.461914       -12.5693
  55   2.0000      -0.459722       -12.5097
  56   2.0000      -0.452230       -12.3058
  57   2.0000      -0.437576       -11.9071
  58   2.0000      -0.434013       -11.8101
  59   2.0000      -0.428828       -11.6690
  60   2.0000      -0.424363       -11.5475
  61   2.0000      -0.419270       -11.4089
  62   2.0000      -0.416100       -11.3226
  63   2.0000      -0.350414        -9.5353
  64   2.0000      -0.333005        -9.0615
  65   2.0000      -0.330953        -9.0057
  66   2.0000      -0.282806        -7.6955
  67   0.0000       0.021717         0.5909
  68   0.0000       0.080515         2.1909
  69   0.0000       0.105236         2.8636
  70   0.0000       0.123091         3.3495
  71   0.0000       0.130184         3.5425

MULLIKEN ATOMIC CHARGES
-----------------------
   0 S :    0.108547
   1 C :   -0.122774
   2 C :   -0.036430
   3 C :   -0.035503
   4 C :   -0.108361
   5 H :    0.022718
   6 C :    0.010753
   7 H :    0.018576
   8 H :    0.036608
   9 C :   -0.039846
  10 H :    0.032221
  11 H :    0.017008
  12 C :   -0.069124
  13 H :    0.044265
  14 H :    0.039242
  15 H :    0.029140
  16 S :    0.123456
  17 C :   -0.067219
  18 C :   -0.023906
  19 C :   -0.011071
  20 C :   -0.158309
  21 H :   -0.004656
  22 C :    0.028822
  23 H :    0.016048
  24 H :    0.029127
  25 C :   -0.033655
  26 H :    0.025045
  27 H :    0.011366
  28 C :   -0.059298
  29 H :    0.037290
  30 H :    0.023892
  31 H :    0.027052
  32 H :    0.039819
  33 H :    0.049156
Sum of atomic charges:   -0.0000000

LOEWDIN ATOMIC CHARGES
----------------------
   0 S :    0.404177
   1 C :   -0.185178
   2 C :   -0.061149
   3 C :   -0.076137
   4 C :   -0.198310
   5 H :    0.032198
   6 C :   -0.033231
   7 H :    0.028564
   8 H :    0.033067
   9 C :   -0.036299
  10 H :    0.020949
  11 H :    0.013202
  12 C :   -0.061680
  13 H :    0.036578
  14 H :    0.024435
  15 H :    0.023328
  16 S :    0.443264
  17 C :   -0.200370
  18 C :   -0.067287
  19 C :   -0.052592
  20 C :   -0.205308
  21 H :    0.024964
  22 C :   -0.034938
  23 H :    0.025371
  24 H :    0.038505
  25 C :   -0.031099
  26 H :    0.022562
  27 H :    0.011672
  28 C :   -0.063753
  29 H :    0.025945
  30 H :    0.022721
  31 H :    0.023482
  32 H :    0.023907
  33 H :    0.028438

  Mayer bond orders larger than 0.100000
B(  0-S ,  1-C ) :   1.1329 B(  0-S ,  4-C ) :   1.1538 B(  1-C ,  2-C ) :   1.6098
B(  1-C , 32-H ) :   0.9746 B(  2-C ,  3-C ) :   1.2623 B(  2-C ,  6-C ) :   0.9985
B(  3-C ,  4-C ) :   1.5626 B(  3-C ,  5-H ) :   0.9835 B(  4-C , 20-C ) :   1.0464
B(  6-C ,  7-H ) :   0.9526 B(  6-C ,  8-H ) :   0.9284 B(  6-C ,  9-C ) :   1.0961
B(  9-C , 10-H ) :   0.9583 B(  9-C , 11-H ) :   0.9450 B(  9-C , 12-C ) :   1.0769
B( 12-C , 13-H ) :   0.9777 B( 12-C , 14-H ) :   0.9758 B( 12-C , 15-H ) :   0.9753
B( 16-S , 17-C ) :   1.1881 B( 16-S , 20-C ) :   1.1610 B( 17-C , 18-C ) :   1.5363
B( 17-C , 20-C ) :   0.1056 B( 17-C , 33-H ) :   0.9704 B( 18-C , 19-C ) :   1.3135
B( 18-C , 21-H ) :   0.9946 B( 19-C , 20-C ) :   1.5156 B( 19-C , 22-C ) :   1.0503
B( 22-C , 23-H ) :   0.9320 B( 22-C , 24-H ) :   0.9274 B( 22-C , 25-C ) :   1.0708
B( 25-C , 26-H ) :   0.9535 B( 25-C , 27-H ) :   0.9499 B( 25-C , 28-C ) :   1.0842
B( 28-C , 29-H ) :   0.9756 B( 28-C , 30-H ) :   0.9732 B( 28-C , 31-H ) :   0.9756

Dispersion correction           -0.013701472
FINAL SINGLE POINT ENERGY     -1339.874267809525

DIPOLE MOMENT
-------------
                                X             Y             Z
Electronic contribution:     -5.78783     -24.04429     -22.67936
Nuclear contribution   :      5.71819      24.54903      23.19045
                        -----------------------------------------
Total Dipole Moment    :     -0.06965       0.50473       0.51109
                        -----------------------------------------
Magnitude (a.u.)       :      0.72168
Magnitude (Debye)      :      1.83436

Rotational constants in cm-1:     0.016468     0.009593     0.006457
Rotational constants in MHz :   493.702922   287.601192   193.581566

                             ****ORCA TERMINATED NORMALLY****
TOTAL RUN TIME: 0 days 0 hours 0 minutes 30 seconds 57 msec
