                         Program Version 4.2.1 -  RELEASE  -
|  1> ! wB97X-D3 SP def2-SVP
|  2> %pal
|  3> nprocs 16
|  4> end
|  5>
|  6> * xyz 0 1
|  7> S 	 -6.16259 	 10.9093 	 81.5832
|  8> C 	 -7.77375 	 10.4136 	 81.0647
|  9> C 	 -8.65973 	 11.468 	 80.8917
| 10> C 	 -7.95676 	 12.7169 	 80.8874
| 11> C 	 -6.651 	 12.5653 	 81.1903
| 12> H 	 -8.34824 	 13.6836 	 80.7535
| 13> C 	 -10.1411 	 11.2483 	 80.6053
| 14> H 	 -10.6935 	 12.1166 	 81.0356
| 15> H 	 -10.4944 	 10.3806 	 81.1686
| 16> C 	 -10.6405 	 11.1694 	 79.1441
| 17> H 	 -11.7103 	 11.2135 	 79.1861
| 18> H 	 -10.3317 	 11.9449 	 78.4865
| 19> C 	 -10.374 	 9.79499 	 78.5744
| 20> H 	 -9.26033 	 9.63897 	 78.4581
| 21> H 	 -10.7157 	 9.15261 	 79.3742
| 22> H 	 -11.0001 	 9.5866 	 77.6692
| 23> S 	 -4.76088 	 13.8951 	 82.7644
| 24> C 	 -3.83652 	 15.1988 	 82.1555
| 25> C 	 -4.25915 	 15.4294 	 80.8843
| 26> C 	 -5.24122 	 14.5302 	 80.355
| 27> C 	 -5.69258 	 13.6611 	 81.3154
| 28> H 	 -3.75053 	 16.1551 	 80.3034
| 29> C 	 -5.78691 	 14.5999 	 78.9251
| 30> H 	 -6.7676 	 15.1533 	 78.9086
| 31> H 	 -6.1119 	 13.6474 	 78.6452
| 32> C 	 -4.84724 	 15.243 	 77.9101
| 33> H 	 -3.84191 	 14.8504 	 77.9328
| 34> H 	 -4.80897 	 16.2978 	 78.2431
| 35> C 	 -5.23688 	 15.0398 	 76.4074
| 36> H 	 -6.13714 	 15.4225 	 75.9455
| 37> H 	 -5.2204 	 14.023 	 76.1003
| 38> H 	 -4.53533 	 15.6297 	 75.8168
| 39> H 	 -8.1291 	 9.34322 	 81.1545
| 40> H 	 -3.22306 	 15.8734 	 82.7971
| 41> *
| 42>
| 43>                          ****END OF INPUT****

CARTESIAN COORDINATES (ANGSTROEM)
---------------------------------
  S     -6.162590   10.909300   81.583200
  C     -7.773750   10.413600   81.064700
  C     -8.659730   11.468000   80.891700
  C     -7.956760   12.716900   80.887400
  C     -6.651000   12.565300   81.190300
  H     -8.348240   13.683600   80.753500
  C    -10.141100   11.248300   80.605300
  H    -10.693500   12.116600   81.035600
  H    -10.494400   10.380600   81.168600
  C    -10.640500   11.169400   79.144100
  H    -11.710300   11.213500   79.186100
  H    -10.331700   11.944900   78.486500
  C    -10.374000    9.794990   78.574400
  H     -9.260330    9.638970   78.458100
  H    -10.715700    9.152610   79.374200
  H    -11.000100    9.586600   77.669200
  S     -4.760880   13.895100   82.764400
  C     -3.836520   15.198800   82.155500
  C     -4.259150   15.429400   80.884300
  C     -5.241220   14.530200   80.355000
  C     -5.692580   13.661100   81.315400
  H     -3.750530   16.155100   80.303400
  C     -5.786910   14.599900   78.925100
  H     -6.767600   15.153300   78.908600
  H     -6.111900   13.647400   78.645200
  C     -4.847240   15.243000   77.910100
  H     -3.841910   14.850400   77.932800
  H     -4.808970   16.297800   78.243100
  C     -5.236880   15.039800   76.407400
  H     -6.137140   15.422500   75.945500
  H     -5.220400   14.023000   76.100300
  H     -4.535330   15.629700   75.816800
  H     -8.129100    9.343220   81.154500
  H     -3.223060   15.873400   82.797100

 Total Charge           Charge          ....    0
 Multiplicity           Mult            ....    1
 Number of Electrons    NEL             ....  134
 Basis Dimension        Dim             ....  322

ORBITAL ENERGIES
----------------

  NO   OCC          E(Eh)            E(eV)
   0   2.0000     -88.968536     -2420.9569
   1   2.0000     -88.959249     -2420.7042
   2   2.0000     -10.327781      -281.0332
   3   2.0000     -10.320291      -280.8294
   4   2.0000     -10.318645      -280.7846
   5   2.0000     -10.315021      -280.6860
   6   2.0000     -10.305076      -280.4154
   7   2.0000     -10.299894      -280.2744
   8   2.0000     -10.298042      -280.2240
   9   2.0000     -10.292109      -280.0625
  10   2.0000     -10.291219      -280.0383
  11   2.0000     -10.288355      -279.9604
  12   2.0000     -10.286740      -279.9164
  13   2.0000     -10.281431      -279.7720
  14   2.0000     -10.278835      -279.7013
  15   2.0000     -10.276339      -279.6334
  16   2.0000      -8.082841      -219.9453
  17   2.0000      -8.075191      -219.7371
  18   2.0000      -6.041307      -164.3923
  19   2.0000      -6.037702      -164.2942
  20   2.0000      -6.033677      -164.1847
  21   2.0000      -6.033374      -164.1764
  22   2.0000      -6.029314      -164.0660
  23   2.0000      -6.026110      -163.9788
  24   2.0000      -1.011364       -27.5206
  25   2.0000      -0.987925       -26.8828
  26   2.0000      -0.914298       -24.8793
  27   2.0000      -0.906538       -24.6681
  28   2.0000      -0.871924       -23.7263
  29   2.0000      -0.854090       -23.2410
  30   2.0000      -0.843613       -22.9559
  31   2.0000      -0.817022       -22.2323
  32   2.0000      -0.784159       -21.3381
  33   2.0000      -0.771879       -21.0039
  34   2.0000      -0.709974       -19.3194
  35   2.0000      -0.703256       -19.1366
  36   2.0000      -0.690245       -18.7825
  37   2.0000      -0.652119       -17.7451
  38   2.0000      -0.642359       -17.4795
  39   2.0000      -0.623485       -16.9659
  40   2.0000      -0.600986       -16.3537
  41   2.0000      -0.570564       -15.5258
  42   2.0000      -0.565909       -15.3992
  43   2.0000      -0.548577       -14.9275
  44   2.0000      -0.545112       -14.8332
  45   2.0000      -0.527048       -14.3417
  46   2.0000      -0.519725       -14.1424
  47   2.0000      -0.506154       -13.7731
  48   2.0000      -0.500480       -13.6187
  49   2.0000      -0.496519       -13.5110
  50   2.0000      -0.487083       -13.2542
  51   2.0000      -0.477258       -12.9868
  52   2.0000      -0.475116       -12.9286
  53   2.0000      -0.467066       -12.7095
  54   2.0000      -0.458636       -12.4801
  55   2.0000      -0.450334       -12.2542
  56   2.0000      -0.446858       -12.1596
  57   2.0000      -0.439863       -11.9693
  58   2.0000      -0.429904       -11.6983
  59   2.0000      -0.427413       -11.6305
  60   2.0000      -0.422078       -11.4853
  61   2.0000      -0.414061       -11.2672
  62   2.0000      -0.409531       -11.1439
  63   2.0000      -0.347382        -9.4527
  64   2.0000      -0.333873        -9.0852
  65   2.0000      -0.326990        -8.8979
  66   2.0000      -0.297049        -8.0831
  67   0.0000       0.036168         0.9842
  68   0.0000       0.065416         1.7801
  69   0.0000       0.107825         2.9341
  70   0.0000       0.127886         3.4800
  71   0.0000       0.131821         3.5870

MULLIKEN ATOMIC CHARGES
-----------------------
   0 S :    0.119921
   1 C :   -0.141589
   2 C :   -0.063996
   3 C :    0.036544
   4 C :   -0.145764
   5 H :   -0.001838
   6 C :    0.023640
   7 H :    0.030075
   8 H :    0.027863
   9 C :   -0.028419
  10 H :    0.018792
  11 H :    0.025498
  12 C :   -0.070921
  13 H :    0.049909
  14 H :    0.010288
  15 H :    0.046044
  16 S :    0.094677
  17 C :   -0.100441
  18 C :   -0.034864
  19 C :   -0.043253
  20 C :   -0.169884
  21 H :    0.005519
  22 C :    0.106053
  23 H :    0.038459
  24 H :    0.005363
  25 C :   -0.103648
  26 H :    0.039517
  27 H :    0.042165
  28 C :   -0.036203
  29 H :    0.018787
  30 H :    0.032518
  31 H :    0.023751
  32 H :    0.065555
  33 H :    0.079882
Sum of atomic charges:    0.0000000

LOEWDIN ATOMIC CHARGES
----------------------
   0 S :    0.389702
   1 C :   -0.200324
   2 C :   -0.061556
   3 C :   -0.050130
   4 C :   -0.177159
   5 H :    0.028703
   6 C :   -0.033091
   7 H :    0.036031
   8 H :    0.031165
   9 C :   -0.037244
  10 H :    0.023367
  11 H :    0.018620
  12 C :   -0.071513
  13 H :    0.031138
  14 H :    0.018304
  15 H :    0.030703
  16 S :    0.417570
  17 C :   -0.203638
  18 C :   -0.077256
  19 C :   -0.056747
  20 C :   -0.207137
  21 H :    0.022074
  22 C :   -0.031951
  23 H :    0.039063
  24 H :    0.019052
  25 C :   -0.038823
  26 H :    0.027580
  27 H :    0.027910
  28 C :   -0.069752
  29 H :    0.022362
  30 H :    0.022968
  31 H :    0.029642
  32 H :    0.035913
  33 H :    0.044452

  Mayer bond orders larger than 0.100000
B(  0-S ,  1-C ) :   1.1276 B(  0-S ,  4-C ) :   1.1312 B(  1-C ,  2-C ) :   1.6382
B(  1-C , 32-H ) :   0.9566 B(  2-C ,  3-C ) :   1.1939 B(  2-C ,  6-C ) :   1.0305
B(  3-C ,  4-C ) :   1.6151 B(  3-C ,  5-H ) :   1.0064 B(  4-C , 20-C ) :   1.0298
B(  6-C ,  7-H ) :   0.9374 B(  6-C ,  8-H ) :   0.9418 B(  6-C ,  9-C ) :   1.0745
B(  9-C , 10-H ) :   0.9502 B(  9-C , 11-H ) :   0.9558 B(  9-C , 12-C ) :   1.0775
B( 12-C , 13-H ) :   0.9748 B( 12-C , 14-H ) :   0.9736 B( 12-C , 15-H ) :   0.9729
B( 16-S , 17-C ) :   1.1643 B( 16-S , 20-C ) :   1.1521 B( 17-C , 18-C ) :   1.5914
B( 17-C , 33-H ) :   0.9608 B( 18-C , 19-C ) :   1.2577 B( 18-C , 21-H ) :   0.9897
B( 19-C , 20-C ) :   1.5918 B( 19-C , 22-C ) :   1.0388 B( 22-C , 23-H ) :   0.9308
B( 22-C , 24-H ) :   0.9245 B( 22-C , 25-C ) :   1.0660 B( 25-C , 26-H ) :   0.9611
B( 25-C , 27-H ) :   0.9485 B( 25-C , 28-C ) :   1.0732 B( 28-C , 29-H ) :   0.9754
B( 28-C , 30-H ) :   0.9768 B( 28-C , 31-H ) :   0.9727

Dispersion correction           -0.013828133
FINAL SINGLE POINT ENERGY     -1339.874963477090

DIPOLE MOMENT
-------------
                                X             Y             Z
Electronic contribution:     14.90042      -1.55149      24.98759
Nuclear contribution   :    -15.35005       1.83845     -25.42993
                        -----------------------------------------
Total Dipole Moment    :     -0.44963       0.28696      -0.44234
                        -----------------------------------------
Magnitude (a.u.)       :      0.69295
Magnitude (Debye)      :      1.76135

Rotational constants in cm-1:     0.017760     0.008573     0.006397
Rotational constants in MHz :   532.422387   257.016544   191.787828

                             ****ORCA TERMINATED NORMALLY****
TOTAL RUN TIME: 0 days 0 hours 0 minutes 32 seconds 134 msec
