                         Program Version 4.2.1 -  RELEASE  -
|  1> ! wB97X-D3 SP def2-SVP
|  2> %pal
|  3> nprocs 16
|  4> end
|  5>
|  6> * xyz 0 1
|  7> S 	 -30.9339 	 66.8635 	 108.703
|  8> C 	 -31.1426 	 67.8179 	 107.252
|  9> C 	 -29.9354 	 67.6882 	 106.517
| 10> C 	 -28.9839 	 66.8505 	 107.085
| 11> C 	 -29.4011 	 66.1658 	 108.249
| 12> H 	 -27.985 	 66.6095 	 106.648
| 13> C 	 -29.814 	 68.1263 	 105.088
| 14> H 	 -28.7937 	 68.4818 	 105.002
| 15> H 	 -30.5384 	 68.9735 	 104.997
| 16> C 	 -30.0082 	 67.1179 	 103.998
| 17> H 	 -29.714 	 67.5808 	 103.093
| 18> H 	 -29.2739 	 66.3285 	 103.939
| 19> C 	 -31.4568 	 66.7028 	 103.728
| 20> H 	 -31.8798 	 66.4242 	 104.692
| 21> H 	 -31.9802 	 67.5925 	 103.395
| 22> H 	 -31.5188 	 65.9987 	 102.935
| 23> S 	 -28.423 	 65.7605 	 110.722
| 24> C 	 -27.4076 	 64.3698 	 110.979
| 25> C 	 -27.1386 	 63.6195 	 109.847
| 26> C 	 -27.7671 	 64.2073 	 108.711
| 27> C 	 -28.5595 	 65.3362 	 109.044
| 28> H 	 -26.5242 	 62.7472 	 109.896
| 29> C 	 -27.721 	 63.6483 	 107.323
| 30> H 	 -27.7869 	 64.4203 	 106.566
| 31> H 	 -28.6188 	 63.0242 	 107.299
| 32> C 	 -26.5861 	 62.6977 	 106.925
| 33> H 	 -26.7036 	 62.5016 	 105.923
| 34> H 	 -26.7373 	 61.7661 	 107.339
| 35> C 	 -25.2386 	 63.3226 	 107.207
| 36> H 	 -24.9154 	 63.8613 	 106.35
| 37> H 	 -24.4625 	 62.5487 	 107.511
| 38> H 	 -25.175 	 63.9466 	 108.069
| 39> H 	 -32.0005 	 68.393 	 106.883
| 40> H 	 -26.8867 	 64.1124 	 111.862
| 41> *
| 42>
| 43>                          ****END OF INPUT****

CARTESIAN COORDINATES (ANGSTROEM)
---------------------------------
  S    -30.933900   66.863500  108.703000
  C    -31.142600   67.817900  107.252000
  C    -29.935400   67.688200  106.517000
  C    -28.983900   66.850500  107.085000
  C    -29.401100   66.165800  108.249000
  H    -27.985000   66.609500  106.648000
  C    -29.814000   68.126300  105.088000
  H    -28.793700   68.481800  105.002000
  H    -30.538400   68.973500  104.997000
  C    -30.008200   67.117900  103.998000
  H    -29.714000   67.580800  103.093000
  H    -29.273900   66.328500  103.939000
  C    -31.456800   66.702800  103.728000
  H    -31.879800   66.424200  104.692000
  H    -31.980200   67.592500  103.395000
  H    -31.518800   65.998700  102.935000
  S    -28.423000   65.760500  110.722000
  C    -27.407600   64.369800  110.979000
  C    -27.138600   63.619500  109.847000
  C    -27.767100   64.207300  108.711000
  C    -28.559500   65.336200  109.044000
  H    -26.524200   62.747200  109.896000
  C    -27.721000   63.648300  107.323000
  H    -27.786900   64.420300  106.566000
  H    -28.618800   63.024200  107.299000
  C    -26.586100   62.697700  106.925000
  H    -26.703600   62.501600  105.923000
  H    -26.737300   61.766100  107.339000
  C    -25.238600   63.322600  107.207000
  H    -24.915400   63.861300  106.350000
  H    -24.462500   62.548700  107.511000
  H    -25.175000   63.946600  108.069000
  H    -32.000500   68.393000  106.883000
  H    -26.886700   64.112400  111.862000

 Total Charge           Charge          ....    0
 Multiplicity           Mult            ....    1
 Number of Electrons    NEL             ....  134
 Basis Dimension        Dim             ....  322

ORBITAL ENERGIES
----------------

  NO   OCC          E(Eh)            E(eV)
   0   2.0000     -88.969674     -2420.9879
   1   2.0000     -88.969491     -2420.9829
   2   2.0000     -10.329473      -281.0792
   3   2.0000     -10.323877      -280.9270
   4   2.0000     -10.319015      -280.7947
   5   2.0000     -10.313260      -280.6381
   6   2.0000     -10.306511      -280.4544
   7   2.0000     -10.295805      -280.1631
   8   2.0000     -10.294470      -280.1268
   9   2.0000     -10.292176      -280.0644
  10   2.0000     -10.289209      -279.9836
  11   2.0000     -10.286508      -279.9101
  12   2.0000     -10.277330      -279.6604
  13   2.0000     -10.273451      -279.5548
  14   2.0000     -10.273204      -279.5481
  15   2.0000     -10.271916      -279.5131
  16   2.0000      -8.084527      -219.9912
  17   2.0000      -8.083579      -219.9654
  18   2.0000      -6.042907      -164.4359
  19   2.0000      -6.042106      -164.4141
  20   2.0000      -6.039062      -164.3312
  21   2.0000      -6.037856      -164.2984
  22   2.0000      -6.035366      -164.2307
  23   2.0000      -6.034649      -164.2111
  24   2.0000      -1.009156       -27.4605
  25   2.0000      -0.985105       -26.8061
  26   2.0000      -0.918988       -25.0069
  27   2.0000      -0.916121       -24.9289
  28   2.0000      -0.873656       -23.7734
  29   2.0000      -0.853924       -23.2365
  30   2.0000      -0.847447       -23.0602
  31   2.0000      -0.814168       -22.1546
  32   2.0000      -0.785451       -21.3732
  33   2.0000      -0.773724       -21.0541
  34   2.0000      -0.719546       -19.5799
  35   2.0000      -0.703645       -19.1472
  36   2.0000      -0.699189       -19.0259
  37   2.0000      -0.660388       -17.9701
  38   2.0000      -0.633544       -17.2396
  39   2.0000      -0.620092       -16.8736
  40   2.0000      -0.596771       -16.2390
  41   2.0000      -0.568050       -15.4574
  42   2.0000      -0.561797       -15.2873
  43   2.0000      -0.560728       -15.2582
  44   2.0000      -0.544375       -14.8132
  45   2.0000      -0.537996       -14.6396
  46   2.0000      -0.527211       -14.3461
  47   2.0000      -0.513039       -13.9605
  48   2.0000      -0.508745       -13.8437
  49   2.0000      -0.495851       -13.4928
  50   2.0000      -0.491481       -13.3739
  51   2.0000      -0.480352       -13.0710
  52   2.0000      -0.476394       -12.9634
  53   2.0000      -0.469789       -12.7836
  54   2.0000      -0.456881       -12.4324
  55   2.0000      -0.453042       -12.3279
  56   2.0000      -0.450758       -12.2658
  57   2.0000      -0.438970       -11.9450
  58   2.0000      -0.434771       -11.8307
  59   2.0000      -0.429266       -11.6809
  60   2.0000      -0.419748       -11.4219
  61   2.0000      -0.411644       -11.2014
  62   2.0000      -0.397312       -10.8114
  63   2.0000      -0.349309        -9.5052
  64   2.0000      -0.332491        -9.0475
  65   2.0000      -0.327236        -8.9045
  66   2.0000      -0.281935        -7.6719
  67   0.0000       0.023755         0.6464
  68   0.0000       0.067824         1.8456
  69   0.0000       0.112299         3.0558
  70   0.0000       0.121466         3.3053
  71   0.0000       0.129375         3.5205

MULLIKEN ATOMIC CHARGES
-----------------------
   0 S :    0.119396
   1 C :   -0.128058
   2 C :   -0.085910
   3 C :    0.002280
   4 C :   -0.158223
   5 H :    0.030737
   6 C :    0.048765
   7 H :    0.022141
   8 H :    0.018574
   9 C :   -0.029908
  10 H :    0.002593
  11 H :    0.009501
  12 C :   -0.022961
  13 H :    0.039207
  14 H :    0.016526
  15 H :    0.030003
  16 S :    0.129691
  17 C :   -0.064992
  18 C :   -0.044797
  19 C :   -0.049474
  20 C :   -0.164234
  21 H :    0.015991
  22 C :    0.054124
  23 H :    0.018423
  24 H :    0.041781
  25 C :    0.017759
  26 H :    0.004265
  27 H :    0.002035
  28 C :   -0.067039
  29 H :    0.030141
  30 H :    0.029960
  31 H :    0.035031
  32 H :    0.061101
  33 H :    0.035572
Sum of atomic charges:    0.0000000

LOEWDIN ATOMIC CHARGES
----------------------
   0 S :    0.421306
   1 C :   -0.215324
   2 C :   -0.072951
   3 C :   -0.069155
   4 C :   -0.203198
   5 H :    0.035152
   6 C :   -0.031504
   7 H :    0.032941
   8 H :    0.031351
   9 C :   -0.045185
  10 H :    0.021499
  11 H :    0.020920
  12 C :   -0.055751
  13 H :    0.025473
  14 H :    0.023221
  15 H :    0.022804
  16 S :    0.425957
  17 C :   -0.182385
  18 C :   -0.068136
  19 C :   -0.047692
  20 C :   -0.209930
  21 H :    0.031529
  22 C :   -0.030863
  23 H :    0.025414
  24 H :    0.042995
  25 C :   -0.032492
  26 H :    0.020827
  27 H :    0.012858
  28 C :   -0.067299
  29 H :    0.023261
  30 H :    0.033933
  31 H :    0.021593
  32 H :    0.038265
  33 H :    0.020565

  Mayer bond orders larger than 0.100000
B(  0-S ,  1-C ) :   1.1506 B(  0-S ,  4-C ) :   1.1681 B(  1-C ,  2-C ) :   1.5265
B(  1-C ,  4-C ) :   0.1181 B(  1-C , 32-H ) :   0.9694 B(  2-C ,  3-C ) :   1.3087
B(  2-C ,  6-C ) :   1.0412 B(  3-C ,  4-C ) :   1.4914 B(  3-C ,  5-H ) :   0.9802
B(  4-C , 20-C ) :   1.0947 B(  6-C ,  7-H ) :   0.9277 B(  6-C ,  8-H ) :   0.9396
B(  6-C ,  9-C ) :   1.0904 B(  9-C , 10-H ) :   0.9417 B(  9-C , 11-H ) :   0.9467
B(  9-C , 12-C ) :   1.0712 B( 12-C , 13-H ) :   0.9809 B( 12-C , 14-H ) :   0.9735
B( 12-C , 15-H ) :   0.9722 B( 16-S , 17-C ) :   1.1644 B( 16-S , 20-C ) :   1.1459
B( 17-C , 18-C ) :   1.6028 B( 17-C , 33-H ) :   0.9646 B( 18-C , 19-C ) :   1.2484
B( 18-C , 21-H ) :   0.9926 B( 19-C , 20-C ) :   1.5638 B( 19-C , 22-C ) :   1.0424
B( 22-C , 23-H ) :   0.9347 B( 22-C , 24-H ) :   0.9203 B( 22-C , 25-C ) :   1.0955
B( 25-C , 26-H ) :   0.9471 B( 25-C , 27-H ) :   0.9450 B( 25-C , 28-C ) :   1.0679
B( 28-C , 29-H ) :   0.9773 B( 28-C , 30-H ) :   0.9737 B( 28-C , 31-H ) :   0.9792

Dispersion correction           -0.014675791
FINAL SINGLE POINT ENERGY     -1339.855881238540

DIPOLE MOMENT
-------------
                                X             Y             Z
Electronic contribution:     -7.82466       7.01390      26.24874
Nuclear contribution   :      8.20058      -7.29864     -26.87529
                        -----------------------------------------
Total Dipole Moment    :      0.37593      -0.28474      -0.62654
                        -----------------------------------------
Magnitude (a.u.)       :      0.78419
Magnitude (Debye)      :      1.99325

Rotational constants in cm-1:     0.019077     0.009305     0.006758
Rotational constants in MHz :   571.909830   278.947615   202.587524

                             ****ORCA TERMINATED NORMALLY****
TOTAL RUN TIME: 0 days 0 hours 0 minutes 28 seconds 234 msec
