                         Program Version 4.2.1 -  RELEASE  -
|  1> ! wB97X-D3 SP def2-SVP
|  2> %pal
|  3> nprocs 16
|  4> end
|  5>
|  6> * xyz 0 1
|  7> S 	 -112.395 	 54.6874 	 114.984
|  8> C 	 -111.284 	 53.3611 	 114.771
|  9> C 	 -110.098 	 53.7162 	 115.34
| 10> C 	 -110.071 	 55.0044 	 115.977
| 11> C 	 -111.374 	 55.4974 	 116.143
| 12> H 	 -109.214 	 55.4133 	 116.481
| 13> C 	 -108.884 	 52.886 	 115.241
| 14> H 	 -107.973 	 53.5249 	 114.984
| 15> H 	 -108.941 	 52.1027 	 114.484
| 16> C 	 -108.398 	 52.2604 	 116.595
| 17> H 	 -107.6 	 51.5127 	 116.432
| 18> H 	 -107.863 	 53.0977 	 117.139
| 19> C 	 -109.516 	 51.5819 	 117.447
| 20> H 	 -110.295 	 52.2898 	 117.531
| 21> H 	 -109.936 	 50.7089 	 116.973
| 22> H 	 -109.264 	 51.2922 	 118.489
| 23> S 	 -111.993 	 58.1818 	 116.332
| 24> C 	 -112.717 	 58.7873 	 117.771
| 25> C 	 -112.833 	 57.7292 	 118.714
| 26> C 	 -112.301 	 56.4885 	 118.267
| 27> C 	 -111.861 	 56.574 	 116.957
| 28> H 	 -113.333 	 57.9897 	 119.703
| 29> C 	 -112.282 	 55.2598 	 119.135
| 30> H 	 -112.469 	 54.4241 	 118.376
| 31> H 	 -113.088 	 55.1485 	 119.846
| 32> C 	 -110.869 	 55.0007 	 119.667
| 33> H 	 -110.221 	 54.8929 	 118.763
| 34> H 	 -110.858 	 54.0274 	 120.126
| 35> C 	 -110.128 	 56.0156 	 120.558
| 36> H 	 -110.11 	 56.9265 	 119.967
| 37> H 	 -109.073 	 55.7177 	 120.858
| 38> H 	 -110.795 	 56.2196 	 121.434
| 39> H 	 -111.453 	 52.4791 	 114.136
| 40> H 	 -113.095 	 59.7558 	 117.884
| 41> *
| 42>
| 43>                          ****END OF INPUT****

CARTESIAN COORDINATES (ANGSTROEM)
---------------------------------
  S    -112.395000   54.687400  114.984000
  C    -111.284000   53.361100  114.771000
  C    -110.098000   53.716200  115.340000
  C    -110.071000   55.004400  115.977000
  C    -111.374000   55.497400  116.143000
  H    -109.214000   55.413300  116.481000
  C    -108.884000   52.886000  115.241000
  H    -107.973000   53.524900  114.984000
  H    -108.941000   52.102700  114.484000
  C    -108.398000   52.260400  116.595000
  H    -107.600000   51.512700  116.432000
  H    -107.863000   53.097700  117.139000
  C    -109.516000   51.581900  117.447000
  H    -110.295000   52.289800  117.531000
  H    -109.936000   50.708900  116.973000
  H    -109.264000   51.292200  118.489000
  S    -111.993000   58.181800  116.332000
  C    -112.717000   58.787300  117.771000
  C    -112.833000   57.729200  118.714000
  C    -112.301000   56.488500  118.267000
  C    -111.861000   56.574000  116.957000
  H    -113.333000   57.989700  119.703000
  C    -112.282000   55.259800  119.135000
  H    -112.469000   54.424100  118.376000
  H    -113.088000   55.148500  119.846000
  C    -110.869000   55.000700  119.667000
  H    -110.221000   54.892900  118.763000
  H    -110.858000   54.027400  120.126000
  C    -110.128000   56.015600  120.558000
  H    -110.110000   56.926500  119.967000
  H    -109.073000   55.717700  120.858000
  H    -110.795000   56.219600  121.434000
  H    -111.453000   52.479100  114.136000
  H    -113.095000   59.755800  117.884000

 Total Charge           Charge          ....    0
 Multiplicity           Mult            ....    1
 Number of Electrons    NEL             ....  134
 Basis Dimension        Dim             ....  322

ORBITAL ENERGIES
----------------

  NO   OCC          E(Eh)            E(eV)
   0   2.0000     -88.968825     -2420.9648
   1   2.0000     -88.963403     -2420.8173
   2   2.0000     -10.332478      -281.1610
   3   2.0000     -10.322562      -280.8912
   4   2.0000     -10.316863      -280.7361
   5   2.0000     -10.314719      -280.6778
   6   2.0000     -10.304837      -280.4089
   7   2.0000     -10.301593      -280.3206
   8   2.0000     -10.299784      -280.2714
   9   2.0000     -10.298849      -280.2459
  10   2.0000     -10.295645      -280.1587
  11   2.0000     -10.295265      -280.1484
  12   2.0000     -10.294590      -280.1300
  13   2.0000     -10.282748      -279.8078
  14   2.0000     -10.281075      -279.7623
  15   2.0000     -10.272207      -279.5210
  16   2.0000      -8.084143      -219.9807
  17   2.0000      -8.078532      -219.8280
  18   2.0000      -6.042496      -164.4247
  19   2.0000      -6.038372      -164.3125
  20   2.0000      -6.036995      -164.2750
  21   2.0000      -6.035240      -164.2272
  22   2.0000      -6.032987      -164.1659
  23   2.0000      -6.029282      -164.0651
  24   2.0000      -1.012860       -27.5613
  25   2.0000      -0.990096       -26.9419
  26   2.0000      -0.910346       -24.7718
  27   2.0000      -0.908487       -24.7212
  28   2.0000      -0.868791       -23.6410
  29   2.0000      -0.846846       -23.0438
  30   2.0000      -0.841514       -22.8988
  31   2.0000      -0.813722       -22.1425
  32   2.0000      -0.784641       -21.3512
  33   2.0000      -0.774731       -21.0815
  34   2.0000      -0.712548       -19.3894
  35   2.0000      -0.692955       -18.8563
  36   2.0000      -0.685843       -18.6627
  37   2.0000      -0.662461       -18.0265
  38   2.0000      -0.641600       -17.4588
  39   2.0000      -0.619617       -16.8606
  40   2.0000      -0.592321       -16.1179
  41   2.0000      -0.567070       -15.4308
  42   2.0000      -0.553603       -15.0643
  43   2.0000      -0.546606       -14.8739
  44   2.0000      -0.543901       -14.8003
  45   2.0000      -0.540036       -14.6951
  46   2.0000      -0.518082       -14.0977
  47   2.0000      -0.513502       -13.9731
  48   2.0000      -0.507725       -13.8159
  49   2.0000      -0.497934       -13.5495
  50   2.0000      -0.486455       -13.2371
  51   2.0000      -0.479410       -13.0454
  52   2.0000      -0.470929       -12.8146
  53   2.0000      -0.468073       -12.7369
  54   2.0000      -0.465427       -12.6649
  55   2.0000      -0.446290       -12.1442
  56   2.0000      -0.441632       -12.0174
  57   2.0000      -0.433539       -11.7972
  58   2.0000      -0.431671       -11.7464
  59   2.0000      -0.417115       -11.3503
  60   2.0000      -0.415879       -11.3166
  61   2.0000      -0.412296       -11.2192
  62   2.0000      -0.404417       -11.0047
  63   2.0000      -0.334732        -9.1085
  64   2.0000      -0.326751        -8.8913
  65   2.0000      -0.320071        -8.7096
  66   2.0000      -0.312743        -8.5102
  67   0.0000       0.037589         1.0228
  68   0.0000       0.046591         1.2678
  69   0.0000       0.107922         2.9367
  70   0.0000       0.123271         3.3544
  71   0.0000       0.130741         3.5577

MULLIKEN ATOMIC CHARGES
-----------------------
   0 S :    0.115572
   1 C :   -0.122096
   2 C :   -0.102642
   3 C :    0.097412
   4 C :   -0.211802
   5 H :    0.019728
   6 C :    0.043473
   7 H :    0.042858
   8 H :    0.021245
   9 C :   -0.117299
  10 H :    0.035043
  11 H :    0.031724
  12 C :   -0.030906
  13 H :    0.026724
  14 H :    0.023967
  15 H :    0.036101
  16 S :    0.137642
  17 C :   -0.090416
  18 C :   -0.074956
  19 C :   -0.009161
  20 C :   -0.192551
  21 H :    0.043738
  22 C :    0.083830
  23 H :    0.043473
  24 H :    0.028364
  25 C :   -0.096133
  26 H :    0.022254
  27 H :    0.023942
  28 C :   -0.052416
  29 H :    0.036554
  30 H :    0.053228
  31 H :    0.030193
  32 H :    0.060221
  33 H :    0.043092
Sum of atomic charges:    0.0000000

LOEWDIN ATOMIC CHARGES
----------------------
   0 S :    0.411847
   1 C :   -0.200940
   2 C :   -0.074461
   3 C :   -0.048178
   4 C :   -0.192473
   5 H :    0.029180
   6 C :   -0.038014
   7 H :    0.043530
   8 H :    0.024969
   9 C :   -0.045419
  10 H :    0.023971
  11 H :    0.023991
  12 C :   -0.068732
  13 H :    0.017397
  14 H :    0.022922
  15 H :    0.030008
  16 S :    0.439829
  17 C :   -0.192433
  18 C :   -0.079885
  19 C :   -0.050970
  20 C :   -0.227583
  21 H :    0.042165
  22 C :   -0.031067
  23 H :    0.047117
  24 H :    0.027310
  25 C :   -0.047120
  26 H :    0.025060
  27 H :    0.017766
  28 C :   -0.072488
  29 H :    0.024010
  30 H :    0.036481
  31 H :    0.025209
  32 H :    0.037791
  33 H :    0.019209

  Mayer bond orders larger than 0.100000
B(  0-S ,  1-C ) :   1.1306 B(  0-S ,  4-C ) :   1.1682 B(  1-C ,  2-C ) :   1.5954
B(  1-C , 32-H ) :   0.9711 B(  2-C ,  3-C ) :   1.2298 B(  2-C ,  6-C ) :   1.0482
B(  3-C ,  4-C ) :   1.5503 B(  3-C ,  5-H ) :   0.9891 B(  4-C , 20-C ) :   1.0309
B(  6-C ,  7-H ) :   0.9432 B(  6-C ,  8-H ) :   0.9466 B(  6-C ,  9-C ) :   1.0499
B(  9-C , 10-H ) :   0.9606 B(  9-C , 11-H ) :   0.9605 B(  9-C , 12-C ) :   1.0671
B( 12-C , 13-H ) :   0.9710 B( 12-C , 14-H ) :   0.9740 B( 12-C , 15-H ) :   0.9753
B( 16-S , 17-C ) :   1.1817 B( 16-S , 20-C ) :   1.1715 B( 17-C , 18-C ) :   1.5629
B( 17-C , 20-C ) :   0.1121 B( 17-C , 33-H ) :   0.9779 B( 18-C , 19-C ) :   1.2667
B( 18-C , 21-H ) :   0.9834 B( 19-C , 20-C ) :   1.5596 B( 19-C , 22-C ) :   1.0390
B( 22-C , 23-H ) :   0.9194 B( 22-C , 24-H ) :   0.9448 B( 22-C , 25-C ) :   1.0720
B( 25-C , 26-H ) :   0.9492 B( 25-C , 27-H ) :   0.9538 B( 25-C , 28-C ) :   1.0713
B( 28-C , 29-H ) :   0.9719 B( 28-C , 30-H ) :   0.9722 B( 28-C , 31-H ) :   0.9742

Dispersion correction           -0.016924173
FINAL SINGLE POINT ENERGY     -1339.875569581599

DIPOLE MOMENT
-------------
                                X             Y             Z
Electronic contribution:    -14.67370      17.00471     -17.19795
Nuclear contribution   :     14.90704     -17.25613      17.48609
                        -----------------------------------------
Total Dipole Moment    :      0.23334      -0.25142       0.28813
                        -----------------------------------------
Magnitude (a.u.)       :      0.44798
Magnitude (Debye)      :      1.13866

Rotational constants in cm-1:     0.019861     0.010409     0.007891
Rotational constants in MHz :   595.416744   312.049974   236.574380

                             ****ORCA TERMINATED NORMALLY****
TOTAL RUN TIME: 0 days 0 hours 0 minutes 36 seconds 384 msec
