                         Program Version 4.2.1 -  RELEASE  -
|  1> ! wB97X-D3 SP def2-SVP
|  2> %pal
|  3> nprocs 16
|  4> end
|  5>
|  6> * xyz 0 1
|  7> S 	 -53.7905 	 29.7757 	 93.8847
|  8> C 	 -54.447 	 28.4537 	 94.6754
|  9> C 	 -54.1074 	 27.2481 	 94.0687
| 10> C 	 -53.5749 	 27.4906 	 92.7955
| 11> C 	 -53.3054 	 28.8289 	 92.488
| 12> H 	 -53.3242 	 26.6847 	 92.0752
| 13> C 	 -54.4951 	 25.8281 	 94.5465
| 14> H 	 -54.9215 	 25.8752 	 95.5086
| 15> H 	 -53.544 	 25.2628 	 94.6761
| 16> C 	 -55.5259 	 25.1401 	 93.5839
| 17> H 	 -54.9974 	 25.1147 	 92.6369
| 18> H 	 -55.7024 	 24.0567 	 93.843
| 19> C 	 -56.76 	 26.0123 	 93.3605
| 20> H 	 -56.4221 	 26.7795 	 92.5845
| 21> H 	 -57.485 	 25.4355 	 92.7828
| 22> H 	 -57.0407 	 26.6145 	 94.18
| 23> S 	 -51.3423 	 29.8824 	 90.796
| 24> C 	 -51.6591 	 30.1206 	 89.1659
| 25> C 	 -52.9618 	 29.731 	 88.8191
| 26> C 	 -53.7469 	 29.2246 	 89.9079
| 27> C 	 -53.0204 	 29.3056 	 91.1422
| 28> H 	 -53.1939 	 29.8159 	 87.77
| 29> C 	 -55.124 	 28.6758 	 89.744
| 30> H 	 -55.2851 	 27.7543 	 90.2351
| 31> H 	 -55.2543 	 28.365 	 88.7043
| 32> C 	 -56.3033 	 29.5411 	 90.0937
| 33> H 	 -56.3775 	 30.5067 	 89.5742
| 34> H 	 -56.1096 	 29.723 	 91.158
| 35> C 	 -57.6647 	 28.8374 	 90.0056
| 36> H 	 -57.8663 	 27.9886 	 90.6777
| 37> H 	 -57.7687 	 28.541 	 88.9582
| 38> H 	 -58.4406 	 29.5691 	 90.1926
| 39> H 	 -54.9652 	 28.4761 	 95.5965
| 40> H 	 -51.021 	 30.5086 	 88.3604
| 41> *
| 42>
| 43>                          ****END OF INPUT****

CARTESIAN COORDINATES (ANGSTROEM)
---------------------------------
  S    -53.790500   29.775700   93.884700
  C    -54.447000   28.453700   94.675400
  C    -54.107400   27.248100   94.068700
  C    -53.574900   27.490600   92.795500
  C    -53.305400   28.828900   92.488000
  H    -53.324200   26.684700   92.075200
  C    -54.495100   25.828100   94.546500
  H    -54.921500   25.875200   95.508600
  H    -53.544000   25.262800   94.676100
  C    -55.525900   25.140100   93.583900
  H    -54.997400   25.114700   92.636900
  H    -55.702400   24.056700   93.843000
  C    -56.760000   26.012300   93.360500
  H    -56.422100   26.779500   92.584500
  H    -57.485000   25.435500   92.782800
  H    -57.040700   26.614500   94.180000
  S    -51.342300   29.882400   90.796000
  C    -51.659100   30.120600   89.165900
  C    -52.961800   29.731000   88.819100
  C    -53.746900   29.224600   89.907900
  C    -53.020400   29.305600   91.142200
  H    -53.193900   29.815900   87.770000
  C    -55.124000   28.675800   89.744000
  H    -55.285100   27.754300   90.235100
  H    -55.254300   28.365000   88.704300
  C    -56.303300   29.541100   90.093700
  H    -56.377500   30.506700   89.574200
  H    -56.109600   29.723000   91.158000
  C    -57.664700   28.837400   90.005600
  H    -57.866300   27.988600   90.677700
  H    -57.768700   28.541000   88.958200
  H    -58.440600   29.569100   90.192600
  H    -54.965200   28.476100   95.596500
  H    -51.021000   30.508600   88.360400

 Total Charge           Charge          ....    0
 Multiplicity           Mult            ....    1
 Number of Electrons    NEL             ....  134
 Basis Dimension        Dim             ....  322

ORBITAL ENERGIES
----------------

  NO   OCC          E(Eh)            E(eV)
   0   2.0000     -88.969668     -2420.9877
   1   2.0000     -88.965524     -2420.8750
   2   2.0000     -10.332866      -281.1716
   3   2.0000     -10.328415      -281.0505
   4   2.0000     -10.315121      -280.6887
   5   2.0000     -10.311954      -280.6025
   6   2.0000     -10.311656      -280.5944
   7   2.0000     -10.299753      -280.2705
   8   2.0000     -10.296539      -280.1831
   9   2.0000     -10.296310      -280.1768
  10   2.0000     -10.292655      -280.0774
  11   2.0000     -10.292212      -280.0653
  12   2.0000     -10.283276      -279.8222
  13   2.0000     -10.281058      -279.7618
  14   2.0000     -10.280172      -279.7377
  15   2.0000     -10.276954      -279.6501
  16   2.0000      -8.085374      -220.0142
  17   2.0000      -8.080522      -219.8822
  18   2.0000      -6.043694      -164.4573
  19   2.0000      -6.039557      -164.3447
  20   2.0000      -6.038801      -164.3241
  21   2.0000      -6.036436      -164.2598
  22   2.0000      -6.034819      -164.2158
  23   2.0000      -6.031680      -164.1304
  24   2.0000      -1.009638       -27.4736
  25   2.0000      -0.986341       -26.8397
  26   2.0000      -0.914390       -24.8818
  27   2.0000      -0.910464       -24.7750
  28   2.0000      -0.869506       -23.6605
  29   2.0000      -0.851294       -23.1649
  30   2.0000      -0.848173       -23.0800
  31   2.0000      -0.809732       -22.0339
  32   2.0000      -0.785951       -21.3868
  33   2.0000      -0.773705       -21.0536
  34   2.0000      -0.709976       -19.3194
  35   2.0000      -0.695408       -18.9230
  36   2.0000      -0.689147       -18.7526
  37   2.0000      -0.652660       -17.7598
  38   2.0000      -0.641932       -17.4679
  39   2.0000      -0.626770       -17.0553
  40   2.0000      -0.599357       -16.3093
  41   2.0000      -0.571054       -15.5392
  42   2.0000      -0.565549       -15.3894
  43   2.0000      -0.557506       -15.1705
  44   2.0000      -0.535544       -14.5729
  45   2.0000      -0.521121       -14.1804
  46   2.0000      -0.516616       -14.0578
  47   2.0000      -0.509456       -13.8630
  48   2.0000      -0.507078       -13.7983
  49   2.0000      -0.504187       -13.7196
  50   2.0000      -0.492209       -13.3937
  51   2.0000      -0.485467       -13.2102
  52   2.0000      -0.470477       -12.8023
  53   2.0000      -0.468200       -12.7404
  54   2.0000      -0.458934       -12.4882
  55   2.0000      -0.443671       -12.0729
  56   2.0000      -0.441819       -12.0225
  57   2.0000      -0.439276       -11.9533
  58   2.0000      -0.432942       -11.7809
  59   2.0000      -0.427908       -11.6440
  60   2.0000      -0.424294       -11.5456
  61   2.0000      -0.410154       -11.1608
  62   2.0000      -0.403230       -10.9725
  63   2.0000      -0.338053        -9.1989
  64   2.0000      -0.330852        -9.0029
  65   2.0000      -0.326724        -8.8906
  66   2.0000      -0.298759        -8.1296
  67   0.0000       0.036431         0.9913
  68   0.0000       0.050987         1.3874
  69   0.0000       0.111476         3.0334
  70   0.0000       0.120930         3.2907
  71   0.0000       0.128303         3.4913

MULLIKEN ATOMIC CHARGES
-----------------------
   0 S :    0.142254
   1 C :   -0.106584
   2 C :   -0.117794
   3 C :    0.001455
   4 C :   -0.156576
   5 H :    0.033653
   6 C :    0.084508
   7 H :    0.006707
   8 H :    0.046037
   9 C :   -0.105265
  10 H :    0.020594
  11 H :    0.045182
  12 C :   -0.026911
  13 H :    0.035400
  14 H :    0.040865
  15 H :    0.028328
  16 S :    0.118568
  17 C :   -0.091101
  18 C :   -0.067067
  19 C :    0.010469
  20 C :   -0.188048
  21 H :    0.013088
  22 C :    0.110497
  23 H :   -0.002327
  24 H :    0.000258
  25 C :   -0.081479
  26 H :    0.033045
  27 H :    0.027157
  28 C :   -0.047967
  29 H :    0.038599
  30 H :    0.023282
  31 H :    0.031799
  32 H :    0.035591
  33 H :    0.063782
Sum of atomic charges:   -0.0000000

LOEWDIN ATOMIC CHARGES
----------------------
   0 S :    0.448184
   1 C :   -0.208343
   2 C :   -0.073909
   3 C :   -0.054395
   4 C :   -0.220947
   5 H :    0.037010
   6 C :   -0.026526
   7 H :    0.017500
   8 H :    0.038262
   9 C :   -0.045465
  10 H :    0.019440
  11 H :    0.027739
  12 C :   -0.067256
  13 H :    0.036178
  14 H :    0.030396
  15 H :    0.018402
  16 S :    0.423335
  17 C :   -0.215375
  18 C :   -0.080192
  19 C :   -0.039286
  20 C :   -0.192628
  21 H :    0.028980
  22 C :   -0.037071
  23 H :    0.025268
  24 H :    0.027223
  25 C :   -0.039548
  26 H :    0.026873
  27 H :    0.024404
  28 C :   -0.066009
  29 H :    0.026113
  30 H :    0.022835
  31 H :    0.027687
  32 H :    0.022052
  33 H :    0.039071

  Mayer bond orders larger than 0.100000
B(  0-S ,  1-C ) :   1.1971 B(  0-S ,  4-C ) :   1.1488 B(  1-C ,  2-C ) :   1.5498
B(  1-C ,  4-C ) :   0.1022 B(  1-C , 32-H ) :   0.9669 B(  2-C ,  3-C ) :   1.2837
B(  2-C ,  6-C ) :   1.0199 B(  3-C ,  4-C ) :   1.5411 B(  3-C ,  5-H ) :   0.9902
B(  4-C , 20-C ) :   1.0391 B(  6-C ,  7-H ) :   0.9443 B(  6-C ,  8-H ) :   0.9418
B(  6-C ,  9-C ) :   1.0588 B(  9-C , 10-H ) :   0.9589 B(  9-C , 11-H ) :   0.9607
B(  9-C , 12-C ) :   1.0640 B( 12-C , 13-H ) :   0.9641 B( 12-C , 14-H ) :   0.9710
B( 12-C , 15-H ) :   0.9780 B( 16-S , 17-C ) :   1.1886 B( 16-S , 20-C ) :   1.1478
B( 17-C , 18-C ) :   1.5860 B( 17-C , 20-C ) :   0.1050 B( 17-C , 33-H ) :   0.9601
B( 18-C , 19-C ) :   1.2632 B( 18-C , 21-H ) :   0.9923 B( 19-C , 20-C ) :   1.5428
B( 19-C , 22-C ) :   1.0543 B( 22-C , 23-H ) :   0.9222 B( 22-C , 24-H ) :   0.9180
B( 22-C , 25-C ) :   1.0687 B( 25-C , 26-H ) :   0.9532 B( 25-C , 27-H ) :   0.9521
B( 25-C , 28-C ) :   1.0873 B( 28-C , 29-H ) :   0.9722 B( 28-C , 30-H ) :   0.9731
B( 28-C , 31-H ) :   0.9723

Dispersion correction           -0.016214768
FINAL SINGLE POINT ENERGY     -1339.870315293646

DIPOLE MOMENT
-------------
                                X             Y             Z
Electronic contribution:     24.54969      15.52333       4.03047
Nuclear contribution   :    -24.98372     -15.98590      -4.22347
                        -----------------------------------------
Total Dipole Moment    :     -0.43403      -0.46257      -0.19300
                        -----------------------------------------
Magnitude (a.u.)       :      0.66303
Magnitude (Debye)      :      1.68528

Rotational constants in cm-1:     0.017629     0.010191     0.007886
Rotational constants in MHz :   528.503855   305.512804   236.401859

                             ****ORCA TERMINATED NORMALLY****
TOTAL RUN TIME: 0 days 0 hours 0 minutes 33 seconds 579 msec
