                         Program Version 4.2.1 -  RELEASE  -
|  1> ! wB97X-D3 SP def2-SVP
|  2> %pal
|  3> nprocs 16
|  4> end
|  5>
|  6> * xyz 0 1
|  7> S 	 24.3136 	 31.7695 	 54.8242
|  8> C 	 23.521 	 30.4815 	 55.8173
|  9> C 	 22.7582 	 31.1099 	 56.7884
| 10> C 	 23.1881 	 32.4871 	 57.0362
| 11> C 	 23.9243 	 33.0135 	 56.0122
| 12> H 	 22.8771 	 33.1577 	 57.8179
| 13> C 	 21.8341 	 30.3903 	 57.7692
| 14> H 	 22.4731 	 30.3818 	 58.6724
| 15> H 	 21.8022 	 29.3601 	 57.3555
| 16> C 	 20.4491 	 31.0604 	 57.9988
| 17> H 	 19.9529 	 30.7245 	 58.9182
| 18> H 	 20.5471 	 32.1983 	 58.0638
| 19> C 	 19.5134 	 30.9847 	 56.8011
| 20> H 	 19.8407 	 31.4053 	 55.8821
| 21> H 	 19.1472 	 30.0165 	 56.798
| 22> H 	 18.6852 	 31.6412 	 57.1157
| 23> S 	 26.2172 	 34.5865 	 56.395
| 24> C 	 26.0257 	 36.3585 	 56.168
| 25> C 	 24.7209 	 36.7178 	 55.7943
| 26> C 	 23.8972 	 35.592 	 55.6118
| 27> C 	 24.5224 	 34.3537 	 55.9478
| 28> H 	 24.4176 	 37.7192 	 55.5537
| 29> C 	 22.4759 	 35.7278 	 55.1423
| 30> H 	 21.9742 	 34.7266 	 55.2045
| 31> H 	 22.5448 	 36.0272 	 54.1729
| 32> C 	 21.5088 	 36.5814 	 55.9797
| 33> H 	 20.473 	 36.5158 	 55.6591
| 34> H 	 21.8697 	 37.6231 	 56.0131
| 35> C 	 21.4788 	 36.2698 	 57.5427
| 36> H 	 21.1249 	 35.2739 	 57.7256
| 37> H 	 20.6979 	 36.743 	 58.0907
| 38> H 	 22.3734 	 36.4598 	 58.1267
| 39> H 	 23.2567 	 29.5082 	 55.4072
| 40> H 	 26.8246 	 37.0236 	 56.4122
| 41> *
| 42>
| 43>                          ****END OF INPUT****

CARTESIAN COORDINATES (ANGSTROEM)
---------------------------------
  S     24.313600   31.769500   54.824200
  C     23.521000   30.481500   55.817300
  C     22.758200   31.109900   56.788400
  C     23.188100   32.487100   57.036200
  C     23.924300   33.013500   56.012200
  H     22.877100   33.157700   57.817900
  C     21.834100   30.390300   57.769200
  H     22.473100   30.381800   58.672400
  H     21.802200   29.360100   57.355500
  C     20.449100   31.060400   57.998800
  H     19.952900   30.724500   58.918200
  H     20.547100   32.198300   58.063800
  C     19.513400   30.984700   56.801100
  H     19.840700   31.405300   55.882100
  H     19.147200   30.016500   56.798000
  H     18.685200   31.641200   57.115700
  S     26.217200   34.586500   56.395000
  C     26.025700   36.358500   56.168000
  C     24.720900   36.717800   55.794300
  C     23.897200   35.592000   55.611800
  C     24.522400   34.353700   55.947800
  H     24.417600   37.719200   55.553700
  C     22.475900   35.727800   55.142300
  H     21.974200   34.726600   55.204500
  H     22.544800   36.027200   54.172900
  C     21.508800   36.581400   55.979700
  H     20.473000   36.515800   55.659100
  H     21.869700   37.623100   56.013100
  C     21.478800   36.269800   57.542700
  H     21.124900   35.273900   57.725600
  H     20.697900   36.743000   58.090700
  H     22.373400   36.459800   58.126700
  H     23.256700   29.508200   55.407200
  H     26.824600   37.023600   56.412200

 Total Charge           Charge          ....    0
 Multiplicity           Mult            ....    1
 Number of Electrons    NEL             ....  134
 Basis Dimension        Dim             ....  322

ORBITAL ENERGIES
----------------

  NO   OCC          E(Eh)            E(eV)
   0   2.0000     -88.970311     -2421.0053
   1   2.0000     -88.959238     -2420.7039
   2   2.0000     -10.330021      -281.0942
   3   2.0000     -10.329294      -281.0744
   4   2.0000     -10.324896      -280.9547
   5   2.0000     -10.316582      -280.7285
   6   2.0000     -10.307183      -280.4727
   7   2.0000     -10.305574      -280.4289
   8   2.0000     -10.298488      -280.2361
   9   2.0000     -10.297543      -280.2104
  10   2.0000     -10.296521      -280.1826
  11   2.0000     -10.294988      -280.1409
  12   2.0000     -10.293600      -280.1031
  13   2.0000     -10.286320      -279.9050
  14   2.0000     -10.273680      -279.5611
  15   2.0000     -10.270250      -279.4677
  16   2.0000      -8.083748      -219.9700
  17   2.0000      -8.073203      -219.6830
  18   2.0000      -6.042180      -164.4161
  19   2.0000      -6.038454      -164.3147
  20   2.0000      -6.034644      -164.2110
  21   2.0000      -6.031994      -164.1389
  22   2.0000      -6.027882      -164.0270
  23   2.0000      -6.023627      -163.9112
  24   2.0000      -0.997414       -27.1410
  25   2.0000      -0.975544       -26.5459
  26   2.0000      -0.909331       -24.7442
  27   2.0000      -0.905599       -24.6426
  28   2.0000      -0.868152       -23.6236
  29   2.0000      -0.846237       -23.0273
  30   2.0000      -0.841748       -22.9051
  31   2.0000      -0.815530       -22.1917
  32   2.0000      -0.786054       -21.3896
  33   2.0000      -0.771947       -21.0057
  34   2.0000      -0.709550       -19.3078
  35   2.0000      -0.698581       -19.0094
  36   2.0000      -0.690636       -18.7932
  37   2.0000      -0.660145       -17.9635
  38   2.0000      -0.637176       -17.3384
  39   2.0000      -0.613333       -16.6896
  40   2.0000      -0.597113       -16.2483
  41   2.0000      -0.567306       -15.4372
  42   2.0000      -0.560080       -15.2405
  43   2.0000      -0.549571       -14.9546
  44   2.0000      -0.547961       -14.9108
  45   2.0000      -0.543976       -14.8023
  46   2.0000      -0.518946       -14.1212
  47   2.0000      -0.517020       -14.0688
  48   2.0000      -0.498683       -13.5699
  49   2.0000      -0.489219       -13.3123
  50   2.0000      -0.487824       -13.2744
  51   2.0000      -0.472301       -12.8520
  52   2.0000      -0.468873       -12.7587
  53   2.0000      -0.462775       -12.5927
  54   2.0000      -0.457205       -12.4412
  55   2.0000      -0.450193       -12.2504
  56   2.0000      -0.447022       -12.1641
  57   2.0000      -0.442357       -12.0371
  58   2.0000      -0.431410       -11.7393
  59   2.0000      -0.425678       -11.5833
  60   2.0000      -0.417785       -11.3685
  61   2.0000      -0.408688       -11.1210
  62   2.0000      -0.403841       -10.9891
  63   2.0000      -0.340735        -9.2719
  64   2.0000      -0.326353        -8.8805
  65   2.0000      -0.319751        -8.7009
  66   2.0000      -0.305773        -8.3205
  67   0.0000       0.036382         0.9900
  68   0.0000       0.050993         1.3876
  69   0.0000       0.106416         2.8957
  70   0.0000       0.115836         3.1521
  71   0.0000       0.121247         3.2993

MULLIKEN ATOMIC CHARGES
-----------------------
   0 S :    0.082937
   1 C :   -0.115799
   2 C :   -0.131134
   3 C :    0.043051
   4 C :   -0.166523
   5 H :    0.015668
   6 C :    0.071422
   7 H :    0.052458
   8 H :    0.020814
   9 C :   -0.115104
  10 H :    0.039061
  11 H :    0.034552
  12 C :   -0.013768
  13 H :    0.043363
  14 H :    0.018380
  15 H :    0.023169
  16 S :    0.120019
  17 C :   -0.098854
  18 C :   -0.014010
  19 C :   -0.045690
  20 C :   -0.172320
  21 H :    0.019613
  22 C :    0.124576
  23 H :    0.032750
  24 H :    0.020051
  25 C :   -0.088524
  26 H :    0.042050
  27 H :    0.031499
  28 C :   -0.060164
  29 H :    0.005463
  30 H :    0.014747
  31 H :    0.045615
  32 H :    0.063349
  33 H :    0.057281
Sum of atomic charges:    0.0000000

LOEWDIN ATOMIC CHARGES
----------------------
   0 S :    0.364685
   1 C :   -0.191719
   2 C :   -0.055778
   3 C :   -0.061028
   4 C :   -0.186649
   5 H :    0.030662
   6 C :   -0.038248
   7 H :    0.041315
   8 H :    0.030610
   9 C :   -0.045995
  10 H :    0.027291
  11 H :    0.030271
  12 C :   -0.056007
  13 H :    0.024671
  14 H :    0.013762
  15 H :    0.031542
  16 S :    0.396697
  17 C :   -0.161817
  18 C :   -0.067472
  19 C :   -0.047620
  20 C :   -0.205697
  21 H :    0.031912
  22 C :   -0.027813
  23 H :    0.039040
  24 H :    0.021747
  25 C :   -0.033668
  26 H :    0.028739
  27 H :    0.021355
  28 C :   -0.074430
  29 H :    0.016463
  30 H :    0.023991
  31 H :    0.027051
  32 H :    0.029631
  33 H :    0.022508

  Mayer bond orders larger than 0.100000
B(  0-S ,  1-C ) :   1.1077 B(  0-S ,  4-C ) :   1.1353 B(  1-C ,  2-C ) :   1.6554
B(  1-C , 32-H ) :   0.9559 B(  2-C ,  3-C ) :   1.1687 B(  2-C ,  6-C ) :   1.0208
B(  3-C ,  4-C ) :   1.6446 B(  3-C ,  5-H ) :   0.9857 B(  4-C , 20-C ) :   1.0116
B(  6-C ,  7-H ) :   0.9411 B(  6-C ,  8-H ) :   0.9448 B(  6-C ,  9-C ) :   1.0498
B(  9-C , 10-H ) :   0.9586 B(  9-C , 11-H ) :   0.9649 B(  9-C , 12-C ) :   1.0705
B( 12-C , 13-H ) :   0.9766 B( 12-C , 14-H ) :   0.9759 B( 12-C , 15-H ) :   0.9728
B( 16-S , 17-C ) :   1.1664 B( 16-S , 20-C ) :   1.1504 B( 17-C , 18-C ) :   1.5727
B( 17-C , 20-C ) :   0.1114 B( 17-C , 33-H ) :   0.9711 B( 18-C , 19-C ) :   1.2696
B( 18-C , 21-H ) :   0.9908 B( 19-C , 20-C ) :   1.5701 B( 19-C , 22-C ) :   1.0414
B( 22-C , 23-H ) :   0.9305 B( 22-C , 24-H ) :   0.9300 B( 22-C , 25-C ) :   1.0671
B( 25-C , 26-H ) :   0.9608 B( 25-C , 27-H ) :   0.9573 B( 25-C , 28-C ) :   1.0687
B( 28-C , 29-H ) :   0.9714 B( 28-C , 30-H ) :   0.9696 B( 28-C , 31-H ) :   0.9756

Dispersion correction           -0.015484987
FINAL SINGLE POINT ENERGY     -1339.854030031677

DIPOLE MOMENT
-------------
                                X             Y             Z
Electronic contribution:     27.53896      -2.45752      -9.26125
Nuclear contribution   :    -28.25420       2.73973       9.57813
                        -----------------------------------------
Total Dipole Moment    :     -0.71524       0.28221       0.31688
                        -----------------------------------------
Magnitude (a.u.)       :      0.83164
Magnitude (Debye)      :      2.11386

Rotational constants in cm-1:     0.018473     0.009738     0.007326
Rotational constants in MHz :   553.820529   291.925903   219.638937

                             ****ORCA TERMINATED NORMALLY****
TOTAL RUN TIME: 0 days 0 hours 0 minutes 35 seconds 50 msec
