                         Program Version 4.2.1 -  RELEASE  -
|  1> ! wB97X-D3 SP def2-SVP
|  2> %pal
|  3> nprocs 16
|  4> end
|  5>
|  6> * xyz 0 1
|  7> S 	 67.6723 	 24.9915 	 72.8521
|  8> C 	 68.5994 	 24.0854 	 71.7263
|  9> C 	 69.8898 	 24.5714 	 71.5435
| 10> C 	 70.0913 	 25.7124 	 72.3532
| 11> C 	 68.9921 	 26.0446 	 73.1877
| 12> H 	 71.0205 	 26.2793 	 72.4494
| 13> C 	 70.9072 	 23.9096 	 70.6899
| 14> H 	 70.3745 	 23.8224 	 69.684
| 15> H 	 71.2184 	 22.9341 	 71.0157
| 16> C 	 72.2127 	 24.6474 	 70.5044
| 17> H 	 72.5997 	 24.7637 	 71.5288
| 18> H 	 72.8946 	 23.9673 	 69.9605
| 19> C 	 72.1681 	 25.9361 	 69.6692
| 20> H 	 71.7789 	 26.8253 	 70.1972
| 21> H 	 73.1321 	 26.1567 	 69.2642
| 22> H 	 71.5895 	 25.8379 	 68.7682
| 23> S 	 67.7704 	 28.4571 	 74.0418
| 24> C 	 68.5408 	 29.3423 	 75.3435
| 25> C 	 69.6443 	 28.7291 	 75.8811
| 26> C 	 69.8323 	 27.4355 	 75.1896
| 27> C 	 68.9463 	 27.179 	 74.1249
| 28> H 	 70.1385 	 29.1153 	 76.7528
| 29> C 	 70.8579 	 26.5243 	 75.7639
| 30> H 	 70.8637 	 25.4853 	 75.2684
| 31> H 	 70.5257 	 26.2867 	 76.7611
| 32> C 	 72.3014 	 27.1475 	 75.8904
| 33> H 	 72.9865 	 26.495 	 76.5617
| 34> H 	 72.196 	 28.0862 	 76.4126
| 35> C 	 72.8219 	 27.5817 	 74.4753
| 36> H 	 72.0042 	 27.9511 	 73.8063
| 37> H 	 73.3356 	 26.688 	 74.0194
| 38> H 	 73.7092 	 28.1908 	 74.542
| 39> H 	 68.1998 	 23.3486 	 71.1004
| 40> H 	 68.3299 	 30.3325 	 75.6397
| 41> *
| 42>
| 43>                          ****END OF INPUT****

CARTESIAN COORDINATES (ANGSTROEM)
---------------------------------
  S     67.672300   24.991500   72.852100
  C     68.599400   24.085400   71.726300
  C     69.889800   24.571400   71.543500
  C     70.091300   25.712400   72.353200
  C     68.992100   26.044600   73.187700
  H     71.020500   26.279300   72.449400
  C     70.907200   23.909600   70.689900
  H     70.374500   23.822400   69.684000
  H     71.218400   22.934100   71.015700
  C     72.212700   24.647400   70.504400
  H     72.599700   24.763700   71.528800
  H     72.894600   23.967300   69.960500
  C     72.168100   25.936100   69.669200
  H     71.778900   26.825300   70.197200
  H     73.132100   26.156700   69.264200
  H     71.589500   25.837900   68.768200
  S     67.770400   28.457100   74.041800
  C     68.540800   29.342300   75.343500
  C     69.644300   28.729100   75.881100
  C     69.832300   27.435500   75.189600
  C     68.946300   27.179000   74.124900
  H     70.138500   29.115300   76.752800
  C     70.857900   26.524300   75.763900
  H     70.863700   25.485300   75.268400
  H     70.525700   26.286700   76.761100
  C     72.301400   27.147500   75.890400
  H     72.986500   26.495000   76.561700
  H     72.196000   28.086200   76.412600
  C     72.821900   27.581700   74.475300
  H     72.004200   27.951100   73.806300
  H     73.335600   26.688000   74.019400
  H     73.709200   28.190800   74.542000
  H     68.199800   23.348600   71.100400
  H     68.329900   30.332500   75.639700

 Total Charge           Charge          ....    0
 Multiplicity           Mult            ....    1
 Number of Electrons    NEL             ....  134
 Basis Dimension        Dim             ....  322

ORBITAL ENERGIES
----------------

  NO   OCC          E(Eh)            E(eV)
   0   2.0000     -88.969306     -2420.9779
   1   2.0000     -88.966978     -2420.9146
   2   2.0000     -10.329608      -281.0829
   3   2.0000     -10.329430      -281.0781
   4   2.0000     -10.315890      -280.7096
   5   2.0000     -10.307275      -280.4752
   6   2.0000     -10.305578      -280.4290
   7   2.0000     -10.297489      -280.2089
   8   2.0000     -10.297214      -280.2014
   9   2.0000     -10.296557      -280.1836
  10   2.0000     -10.294502      -280.1276
  11   2.0000     -10.291450      -280.0446
  12   2.0000     -10.291371      -280.0424
  13   2.0000     -10.288808      -279.9727
  14   2.0000     -10.283002      -279.8147
  15   2.0000     -10.274204      -279.5753
  16   2.0000      -8.084678      -219.9953
  17   2.0000      -8.081780      -219.9164
  18   2.0000      -6.042924      -164.4363
  19   2.0000      -6.040414      -164.3680
  20   2.0000      -6.038921      -164.3274
  21   2.0000      -6.036210      -164.2536
  22   2.0000      -6.035881      -164.2447
  23   2.0000      -6.032473      -164.1519
  24   2.0000      -1.006284       -27.3824
  25   2.0000      -0.985589       -26.8193
  26   2.0000      -0.917617       -24.9696
  27   2.0000      -0.902245       -24.5513
  28   2.0000      -0.869649       -23.6644
  29   2.0000      -0.847103       -23.0508
  30   2.0000      -0.839717       -22.8499
  31   2.0000      -0.816756       -22.2251
  32   2.0000      -0.786976       -21.4147
  33   2.0000      -0.768873       -20.9221
  34   2.0000      -0.711625       -19.3643
  35   2.0000      -0.694063       -18.8864
  36   2.0000      -0.690852       -18.7990
  37   2.0000      -0.654545       -17.8111
  38   2.0000      -0.638067       -17.3627
  39   2.0000      -0.624416       -16.9912
  40   2.0000      -0.594246       -16.1703
  41   2.0000      -0.573339       -15.6013
  42   2.0000      -0.558905       -15.2086
  43   2.0000      -0.551901       -15.0180
  44   2.0000      -0.536808       -14.6073
  45   2.0000      -0.531797       -14.4709
  46   2.0000      -0.512456       -13.9446
  47   2.0000      -0.511230       -13.9113
  48   2.0000      -0.502378       -13.6704
  49   2.0000      -0.494061       -13.4441
  50   2.0000      -0.491333       -13.3698
  51   2.0000      -0.477735       -12.9998
  52   2.0000      -0.476600       -12.9689
  53   2.0000      -0.463578       -12.6146
  54   2.0000      -0.455284       -12.3889
  55   2.0000      -0.446698       -12.1553
  56   2.0000      -0.443547       -12.0695
  57   2.0000      -0.438450       -11.9308
  58   2.0000      -0.431123       -11.7315
  59   2.0000      -0.423708       -11.5297
  60   2.0000      -0.419903       -11.4261
  61   2.0000      -0.417140       -11.3510
  62   2.0000      -0.405945       -11.0463
  63   2.0000      -0.343906        -9.3582
  64   2.0000      -0.332180        -9.0391
  65   2.0000      -0.324565        -8.8319
  66   2.0000      -0.292189        -7.9509
  67   0.0000       0.033613         0.9147
  68   0.0000       0.067506         1.8369
  69   0.0000       0.116455         3.1689
  70   0.0000       0.122871         3.3435
  71   0.0000       0.126671         3.4469

MULLIKEN ATOMIC CHARGES
-----------------------
   0 S :    0.134864
   1 C :   -0.105476
   2 C :   -0.082893
   3 C :    0.027003
   4 C :   -0.175075
   5 H :    0.000090
   6 C :    0.064633
   7 H :    0.034719
   8 H :    0.041066
   9 C :   -0.103560
  10 H :    0.036473
  11 H :    0.029096
  12 C :   -0.028118
  13 H :    0.040666
  14 H :    0.022544
  15 H :    0.017788
  16 S :    0.114216
  17 C :   -0.068445
  18 C :   -0.031912
  19 C :   -0.076191
  20 C :   -0.133642
  21 H :    0.031251
  22 C :    0.046493
  23 H :    0.044044
  24 H :    0.030091
  25 C :   -0.105591
  26 H :    0.049869
  27 H :    0.024140
  28 C :   -0.080068
  29 H :    0.080946
  30 H :    0.027431
  31 H :    0.029303
  32 H :    0.023756
  33 H :    0.040488
Sum of atomic charges:   -0.0000000

LOEWDIN ATOMIC CHARGES
----------------------
   0 S :    0.444462
   1 C :   -0.201128
   2 C :   -0.067283
   3 C :   -0.060664
   4 C :   -0.211125
   5 H :    0.029676
   6 C :   -0.036404
   7 H :    0.039420
   8 H :    0.033664
   9 C :   -0.046273
  10 H :    0.026057
  11 H :    0.029913
  12 C :   -0.067311
  13 H :    0.027926
  14 H :    0.023901
  15 H :    0.024604
  16 S :    0.406425
  17 C :   -0.172002
  18 C :   -0.067268
  19 C :   -0.052023
  20 C :   -0.215638
  21 H :    0.033721
  22 C :   -0.043623
  23 H :    0.037667
  24 H :    0.030760
  25 C :   -0.044534
  26 H :    0.035507
  27 H :    0.015204
  28 C :   -0.078942
  29 H :    0.035771
  30 H :    0.028360
  31 H :    0.023519
  32 H :    0.015732
  33 H :    0.021928

  Mayer bond orders larger than 0.100000
B(  0-S ,  1-C ) :   1.1720 B(  0-S ,  4-C ) :   1.1807 B(  1-C ,  2-C ) :   1.5641
B(  1-C ,  4-C ) :   0.1064 B(  1-C , 32-H ) :   0.9755 B(  2-C ,  3-C ) :   1.3049
B(  2-C ,  6-C ) :   1.0051 B(  3-C ,  4-C ) :   1.5151 B(  3-C ,  5-H ) :   0.9821
B(  4-C , 20-C ) :   1.0350 B(  6-C ,  7-H ) :   0.9317 B(  6-C ,  8-H ) :   0.9390
B(  6-C ,  9-C ) :   1.1021 B(  9-C , 10-H ) :   0.9449 B(  9-C , 11-H ) :   0.9530
B(  9-C , 12-C ) :   1.0758 B( 12-C , 13-H ) :   0.9748 B( 12-C , 14-H ) :   0.9748
B( 12-C , 15-H ) :   0.9697 B( 16-S , 17-C ) :   1.1564 B( 16-S , 20-C ) :   1.1171
B( 17-C , 18-C ) :   1.6427 B( 17-C , 33-H ) :   0.9643 B( 18-C , 19-C ) :   1.2012
B( 18-C , 21-H ) :   0.9884 B( 19-C , 20-C ) :   1.6011 B( 19-C , 22-C ) :   1.0563
B( 22-C , 23-H ) :   0.9382 B( 22-C , 24-H ) :   0.9343 B( 22-C , 25-C ) :   1.0555
B( 25-C , 26-H ) :   0.9580 B( 25-C , 27-H ) :   0.9581 B( 25-C , 28-C ) :   1.0613
B( 28-C , 29-H ) :   0.9618 B( 28-C , 30-H ) :   0.9720 B( 28-C , 31-H ) :   0.9715

Dispersion correction           -0.015580871
FINAL SINGLE POINT ENERGY     -1339.874934731141

DIPOLE MOMENT
-------------
                                X             Y             Z
Electronic contribution:    -28.03075       3.01774       5.73416
Nuclear contribution   :     28.67716      -3.10041      -5.69036
                        -----------------------------------------
Total Dipole Moment    :      0.64642      -0.08267       0.04380
                        -----------------------------------------
Magnitude (a.u.)       :      0.65315
Magnitude (Debye)      :      1.66018

Rotational constants in cm-1:     0.017763     0.010075     0.007648
Rotational constants in MHz :   532.519384   302.045117   229.266739

                             ****ORCA TERMINATED NORMALLY****
TOTAL RUN TIME: 0 days 0 hours 0 minutes 31 seconds 919 msec
