                         Program Version 4.2.1 -  RELEASE  -
|  1> ! wB97X-D3 SP def2-SVP
|  2> %pal
|  3> nprocs 16
|  4> end
|  5>
|  6> * xyz 0 1
|  7> S 	 -7.26462 	 59.9673 	 48.1389
|  8> C 	 -8.07758 	 61.4655 	 48.6636
|  9> C 	 -8.06413 	 61.654 	 50.0821
| 10> C 	 -7.18978 	 60.7087 	 50.6888
| 11> C 	 -6.5709 	 59.8339 	 49.7859
| 12> H 	 -6.923 	 60.6409 	 51.7732
| 13> C 	 -8.67893 	 62.8117 	 50.8434
| 14> H 	 -8.92914 	 62.4215 	 51.8403
| 15> H 	 -9.64549 	 63.1421 	 50.3651
| 16> C 	 -7.65816 	 64.0438 	 50.8177
| 17> H 	 -6.58628 	 63.6867 	 50.8633
| 18> H 	 -7.94945 	 64.5446 	 49.8518
| 19> C 	 -7.92702 	 64.9188 	 52.0635
| 20> H 	 -8.91808 	 65.2983 	 52.1814
| 21> H 	 -7.60199 	 64.3457 	 52.9247
| 22> H 	 -7.21902 	 65.7754 	 52.1292
| 23> S 	 -5.58163 	 57.3553 	 49.7377
| 24> C 	 -4.05308 	 57.1172 	 50.5178
| 25> C 	 -3.31513 	 58.2795 	 50.7372
| 26> C 	 -4.09041 	 59.4291 	 50.3501
| 27> C 	 -5.38521 	 59.0111 	 49.9469
| 28> H 	 -2.30876 	 58.2827 	 51.1535
| 29> C 	 -3.675 	 60.8676 	 50.3398
| 30> H 	 -3.21478 	 60.9671 	 51.3168
| 31> H 	 -4.50116 	 61.5502 	 50.3063
| 32> C 	 -2.71336 	 61.32 	 49.1659
| 33> H 	 -1.82489 	 60.7314 	 49.0934
| 34> H 	 -2.28577 	 62.333 	 49.3943
| 35> C 	 -3.31568 	 61.5404 	 47.8326
| 36> H 	 -3.8024 	 60.6453 	 47.3894
| 37> H 	 -2.54148 	 61.9378 	 47.1986
| 38> H 	 -4.22462 	 62.1574 	 48.014
| 39> H 	 -8.67375 	 62.1176 	 48.0089
| 40> H 	 -3.50976 	 56.1844 	 50.5253
| 41> *
| 42>
| 43>                          ****END OF INPUT****

CARTESIAN COORDINATES (ANGSTROEM)
---------------------------------
  S     -7.264620   59.967300   48.138900
  C     -8.077580   61.465500   48.663600
  C     -8.064130   61.654000   50.082100
  C     -7.189780   60.708700   50.688800
  C     -6.570900   59.833900   49.785900
  H     -6.923000   60.640900   51.773200
  C     -8.678930   62.811700   50.843400
  H     -8.929140   62.421500   51.840300
  H     -9.645490   63.142100   50.365100
  C     -7.658160   64.043800   50.817700
  H     -6.586280   63.686700   50.863300
  H     -7.949450   64.544600   49.851800
  C     -7.927020   64.918800   52.063500
  H     -8.918080   65.298300   52.181400
  H     -7.601990   64.345700   52.924700
  H     -7.219020   65.775400   52.129200
  S     -5.581630   57.355300   49.737700
  C     -4.053080   57.117200   50.517800
  C     -3.315130   58.279500   50.737200
  C     -4.090410   59.429100   50.350100
  C     -5.385210   59.011100   49.946900
  H     -2.308760   58.282700   51.153500
  C     -3.675000   60.867600   50.339800
  H     -3.214780   60.967100   51.316800
  H     -4.501160   61.550200   50.306300
  C     -2.713360   61.320000   49.165900
  H     -1.824890   60.731400   49.093400
  H     -2.285770   62.333000   49.394300
  C     -3.315680   61.540400   47.832600
  H     -3.802400   60.645300   47.389400
  H     -2.541480   61.937800   47.198600
  H     -4.224620   62.157400   48.014000
  H     -8.673750   62.117600   48.008900
  H     -3.509760   56.184400   50.525300

 Total Charge           Charge          ....    0
 Multiplicity           Mult            ....    1
 Number of Electrons    NEL             ....  134
 Basis Dimension        Dim             ....  322

ORBITAL ENERGIES
----------------

  NO   OCC          E(Eh)            E(eV)
   0   2.0000     -88.968102     -2420.9451
   1   2.0000     -88.967392     -2420.9258
   2   2.0000     -10.329629      -281.0835
   3   2.0000     -10.320752      -280.8420
   4   2.0000     -10.317913      -280.7647
   5   2.0000     -10.313279      -280.6386
   6   2.0000     -10.307377      -280.4780
   7   2.0000     -10.304783      -280.4074
   8   2.0000     -10.303884      -280.3829
   9   2.0000     -10.302515      -280.3457
  10   2.0000     -10.300996      -280.3043
  11   2.0000     -10.298930      -280.2481
  12   2.0000     -10.289086      -279.9803
  13   2.0000     -10.282631      -279.8046
  14   2.0000     -10.280751      -279.7535
  15   2.0000     -10.270244      -279.4676
  16   2.0000      -8.084463      -219.9894
  17   2.0000      -8.080897      -219.8924
  18   2.0000      -6.042648      -164.4288
  19   2.0000      -6.039337      -164.3387
  20   2.0000      -6.038903      -164.3269
  21   2.0000      -6.035751      -164.2411
  22   2.0000      -6.035303      -164.2289
  23   2.0000      -6.031632      -164.1290
  24   2.0000      -1.008428       -27.4407
  25   2.0000      -0.976013       -26.5587
  26   2.0000      -0.907571       -24.6963
  27   2.0000      -0.905029       -24.6271
  28   2.0000      -0.864985       -23.5374
  29   2.0000      -0.855576       -23.2814
  30   2.0000      -0.845259       -23.0007
  31   2.0000      -0.810834       -22.0639
  32   2.0000      -0.781554       -21.2672
  33   2.0000      -0.762138       -20.7388
  34   2.0000      -0.699184       -19.0258
  35   2.0000      -0.697008       -18.9666
  36   2.0000      -0.689004       -18.7488
  37   2.0000      -0.657984       -17.9047
  38   2.0000      -0.636919       -17.3315
  39   2.0000      -0.615680       -16.7535
  40   2.0000      -0.595298       -16.1989
  41   2.0000      -0.563163       -15.3244
  42   2.0000      -0.558826       -15.2064
  43   2.0000      -0.553560       -15.0631
  44   2.0000      -0.541499       -14.7349
  45   2.0000      -0.519213       -14.1285
  46   2.0000      -0.515155       -14.0181
  47   2.0000      -0.505792       -13.7633
  48   2.0000      -0.501807       -13.6549
  49   2.0000      -0.493233       -13.4215
  50   2.0000      -0.486913       -13.2496
  51   2.0000      -0.476386       -12.9631
  52   2.0000      -0.468872       -12.7586
  53   2.0000      -0.460548       -12.5322
  54   2.0000      -0.457083       -12.4379
  55   2.0000      -0.453532       -12.3412
  56   2.0000      -0.445572       -12.1246
  57   2.0000      -0.439794       -11.9674
  58   2.0000      -0.437294       -11.8994
  59   2.0000      -0.426649       -11.6097
  60   2.0000      -0.422060       -11.4848
  61   2.0000      -0.417686       -11.3658
  62   2.0000      -0.401363       -10.9216
  63   2.0000      -0.339472        -9.2375
  64   2.0000      -0.332345        -9.0436
  65   2.0000      -0.321130        -8.7384
  66   2.0000      -0.286164        -7.7869
  67   0.0000       0.030444         0.8284
  68   0.0000       0.054427         1.4810
  69   0.0000       0.098550         2.6817
  70   0.0000       0.112805         3.0696
  71   0.0000       0.126311         3.4371

MULLIKEN ATOMIC CHARGES
-----------------------
   0 S :    0.104335
   1 C :   -0.126090
   2 C :   -0.102010
   3 C :    0.028697
   4 C :   -0.172643
   5 H :    0.034443
   6 C :    0.030537
   7 H :    0.033211
   8 H :    0.038984
   9 C :   -0.099330
  10 H :    0.061033
  11 H :    0.047088
  12 C :   -0.045569
  13 H :    0.037057
  14 H :    0.027267
  15 H :    0.030848
  16 S :    0.137506
  17 C :   -0.080325
  18 C :   -0.058882
  19 C :   -0.029742
  20 C :   -0.181360
  21 H :    0.026714
  22 C :    0.095868
  23 H :    0.020727
  24 H :    0.019763
  25 C :   -0.076871
  26 H :    0.013720
  27 H :    0.022325
  28 C :   -0.039038
  29 H :    0.033250
  30 H :    0.042121
  31 H :    0.024821
  32 H :    0.049448
  33 H :    0.052097
Sum of atomic charges:   -0.0000000

LOEWDIN ATOMIC CHARGES
----------------------
   0 S :    0.373588
   1 C :   -0.196672
   2 C :   -0.063022
   3 C :   -0.065178
   4 C :   -0.182846
   5 H :    0.041747
   6 C :   -0.035310
   7 H :    0.029283
   8 H :    0.035549
   9 C :   -0.036924
  10 H :    0.033638
  11 H :    0.031003
  12 C :   -0.070922
  13 H :    0.021492
  14 H :    0.025444
  15 H :    0.028104
  16 S :    0.449148
  17 C :   -0.197857
  18 C :   -0.065085
  19 C :   -0.050493
  20 C :   -0.235652
  21 H :    0.035593
  22 C :   -0.029749
  23 H :    0.032148
  24 H :    0.027258
  25 C :   -0.041579
  26 H :    0.014156
  27 H :    0.028698
  28 C :   -0.068914
  29 H :    0.024759
  30 H :    0.028331
  31 H :    0.029169
  32 H :    0.026149
  33 H :    0.024946

  Mayer bond orders larger than 0.100000
B(  0-S ,  1-C ) :   1.1357 B(  0-S ,  4-C ) :   1.1411 B(  1-C ,  2-C ) :   1.6000
B(  1-C ,  4-C ) :   0.1123 B(  1-C , 32-H ) :   0.9655 B(  2-C ,  3-C ) :   1.2244
B(  2-C ,  6-C ) :   1.0384 B(  3-C ,  4-C ) :   1.5942 B(  3-C ,  5-H ) :   0.9899
B(  4-C , 20-C ) :   1.0062 B(  6-C ,  7-H ) :   0.9498 B(  6-C ,  8-H ) :   0.9418
B(  6-C ,  9-C ) :   1.0247 B(  9-C , 10-H ) :   0.9628 B(  9-C , 11-H ) :   0.9562
B(  9-C , 12-C ) :   1.0747 B( 12-C , 13-H ) :   0.9757 B( 12-C , 14-H ) :   0.9761
B( 12-C , 15-H ) :   0.9728 B( 16-S , 17-C ) :   1.1648 B( 16-S , 20-C ) :   1.1759
B( 17-C , 18-C ) :   1.5952 B( 17-C , 33-H ) :   0.9633 B( 18-C , 19-C ) :   1.2557
B( 18-C , 21-H ) :   0.9900 B( 19-C , 20-C ) :   1.5451 B( 19-C , 22-C ) :   1.0460
B( 22-C , 23-H ) :   0.9255 B( 22-C , 24-H ) :   0.9330 B( 22-C , 25-C ) :   1.0689
B( 25-C , 26-H ) :   0.9569 B( 25-C , 27-H ) :   0.9526 B( 25-C , 28-C ) :   1.0819
B( 28-C , 29-H ) :   0.9724 B( 28-C , 30-H ) :   0.9696 B( 28-C , 31-H ) :   0.9686

Dispersion correction           -0.015541268
FINAL SINGLE POINT ENERGY     -1339.858983520637

DIPOLE MOMENT
-------------
                                X             Y             Z
Electronic contribution:     -5.35015     -26.78673      -6.56988
Nuclear contribution   :      5.58481      27.35058       6.92361
                        -----------------------------------------
Total Dipole Moment    :      0.23466       0.56384       0.35373
                        -----------------------------------------
Magnitude (a.u.)       :      0.70577
Magnitude (Debye)      :      1.79393

Rotational constants in cm-1:     0.019246     0.008869     0.007775
Rotational constants in MHz :   576.988781   265.881462   233.091893

                             ****ORCA TERMINATED NORMALLY****
TOTAL RUN TIME: 0 days 0 hours 0 minutes 35 seconds 888 msec
