                         Program Version 4.2.1 -  RELEASE  -
|  1> ! wB97X-D3 SP def2-SVP
|  2> %pal
|  3> nprocs 16
|  4> end
|  5>
|  6> * xyz 0 1
|  7> S 	 1.36427 	 18.0238 	 49.6604
|  8> C 	 0.985483 	 16.374 	 50.1439
|  9> C 	 1.99226 	 15.7797 	 50.9174
| 10> C 	 3.12521 	 16.6701 	 51.0974
| 11> C 	 2.93515 	 17.8934 	 50.5151
| 12> H 	 4.18754 	 16.4928 	 51.5349
| 13> C 	 1.99718 	 14.361 	 51.2702
| 14> H 	 1.31914 	 14.2022 	 52.0791
| 15> H 	 2.98066 	 14.1957 	 51.6626
| 16> C 	 1.50793 	 13.3476 	 50.2033
| 17> H 	 0.483166 	 13.6085 	 49.9054
| 18> H 	 1.99171 	 13.555 	 49.27
| 19> C 	 1.66267 	 11.8479 	 50.6643
| 20> H 	 1.12048 	 11.6603 	 51.5119
| 21> H 	 1.16308 	 11.2736 	 49.8885
| 22> H 	 2.69491 	 11.4728 	 50.7432
| 23> S 	 4.53427 	 19.338 	 52.1337
| 24> C 	 5.5462 	 20.6806 	 51.5036
| 25> C 	 5.41565 	 20.7684 	 50.1251
| 26> C 	 4.58886 	 19.7943 	 49.5997
| 27> C 	 4.01509 	 18.9174 	 50.5062
| 28> H 	 5.92317 	 21.4987 	 49.6876
| 29> C 	 4.3684 	 19.7655 	 48.0571
| 30> H 	 3.75382 	 20.6823 	 47.8573
| 31> H 	 3.63907 	 19.054 	 47.8529
| 32> C 	 5.5952 	 19.5683 	 47.1652
| 33> H 	 6.2141 	 20.4194 	 47.3858
| 34> H 	 5.27374 	 19.6838 	 46.1391
| 35> C 	 6.33408 	 18.2786 	 47.4305
| 36> H 	 7.17339 	 18.1443 	 46.6498
| 37> H 	 5.7998 	 17.3679 	 47.3672
| 38> H 	 6.83901 	 18.1764 	 48.4463
| 39> H 	 0.111094 	 15.6837 	 49.9035
| 40> H 	 6.07046 	 21.3649 	 52.1337
| 41> *
| 42>
| 43>                          ****END OF INPUT****

CARTESIAN COORDINATES (ANGSTROEM)
---------------------------------
  S      1.364270   18.023800   49.660400
  C      0.985483   16.374000   50.143900
  C      1.992260   15.779700   50.917400
  C      3.125210   16.670100   51.097400
  C      2.935150   17.893400   50.515100
  H      4.187540   16.492800   51.534900
  C      1.997180   14.361000   51.270200
  H      1.319140   14.202200   52.079100
  H      2.980660   14.195700   51.662600
  C      1.507930   13.347600   50.203300
  H      0.483166   13.608500   49.905400
  H      1.991710   13.555000   49.270000
  C      1.662670   11.847900   50.664300
  H      1.120480   11.660300   51.511900
  H      1.163080   11.273600   49.888500
  H      2.694910   11.472800   50.743200
  S      4.534270   19.338000   52.133700
  C      5.546200   20.680600   51.503600
  C      5.415650   20.768400   50.125100
  C      4.588860   19.794300   49.599700
  C      4.015090   18.917400   50.506200
  H      5.923170   21.498700   49.687600
  C      4.368400   19.765500   48.057100
  H      3.753820   20.682300   47.857300
  H      3.639070   19.054000   47.852900
  C      5.595200   19.568300   47.165200
  H      6.214100   20.419400   47.385800
  H      5.273740   19.683800   46.139100
  C      6.334080   18.278600   47.430500
  H      7.173390   18.144300   46.649800
  H      5.799800   17.367900   47.367200
  H      6.839010   18.176400   48.446300
  H      0.111094   15.683700   49.903500
  H      6.070460   21.364900   52.133700

 Total Charge           Charge          ....    0
 Multiplicity           Mult            ....    1
 Number of Electrons    NEL             ....  134
 Basis Dimension        Dim             ....  322

ORBITAL ENERGIES
----------------

  NO   OCC          E(Eh)            E(eV)
   0   2.0000     -88.973153     -2421.0826
   1   2.0000     -88.963138     -2420.8101
   2   2.0000     -10.333559      -281.1904
   3   2.0000     -10.328440      -281.0511
   4   2.0000     -10.318943      -280.7927
   5   2.0000     -10.318709      -280.7864
   6   2.0000     -10.301733      -280.3244
   7   2.0000     -10.301000      -280.3045
   8   2.0000     -10.300870      -280.3009
   9   2.0000     -10.292412      -280.0708
  10   2.0000     -10.285228      -279.8753
  11   2.0000     -10.284667      -279.8600
  12   2.0000     -10.283210      -279.8204
  13   2.0000     -10.283036      -279.8156
  14   2.0000     -10.280232      -279.7393
  15   2.0000     -10.279140      -279.7096
  16   2.0000      -8.086108      -220.0342
  17   2.0000      -8.077085      -219.7887
  18   2.0000      -6.044813      -164.4877
  19   2.0000      -6.040965      -164.3830
  20   2.0000      -6.036658      -164.2658
  21   2.0000      -6.035534      -164.2352
  22   2.0000      -6.031618      -164.1287
  23   2.0000      -6.028026      -164.0309
  24   2.0000      -1.001514       -27.2526
  25   2.0000      -0.979942       -26.6656
  26   2.0000      -0.912636       -24.8341
  27   2.0000      -0.905518       -24.6404
  28   2.0000      -0.869264       -23.6539
  29   2.0000      -0.851005       -23.1570
  30   2.0000      -0.841387       -22.8953
  31   2.0000      -0.816067       -22.2063
  32   2.0000      -0.780772       -21.2459
  33   2.0000      -0.769941       -20.9512
  34   2.0000      -0.720043       -19.5934
  35   2.0000      -0.703457       -19.1420
  36   2.0000      -0.693906       -18.8821
  37   2.0000      -0.668478       -18.1902
  38   2.0000      -0.628639       -17.1061
  39   2.0000      -0.613109       -16.6835
  40   2.0000      -0.595947       -16.2165
  41   2.0000      -0.572555       -15.5800
  42   2.0000      -0.560880       -15.2623
  43   2.0000      -0.545397       -14.8410
  44   2.0000      -0.538587       -14.6557
  45   2.0000      -0.522807       -14.2263
  46   2.0000      -0.517422       -14.0798
  47   2.0000      -0.512477       -13.9452
  48   2.0000      -0.505482       -13.7549
  49   2.0000      -0.498264       -13.5585
  50   2.0000      -0.492859       -13.4114
  51   2.0000      -0.472839       -12.8666
  52   2.0000      -0.470460       -12.8019
  53   2.0000      -0.463246       -12.6056
  54   2.0000      -0.454783       -12.3753
  55   2.0000      -0.452372       -12.3097
  56   2.0000      -0.443222       -12.0607
  57   2.0000      -0.433917       -11.8075
  58   2.0000      -0.429708       -11.6930
  59   2.0000      -0.428504       -11.6602
  60   2.0000      -0.422125       -11.4866
  61   2.0000      -0.417225       -11.3533
  62   2.0000      -0.410222       -11.1627
  63   2.0000      -0.348604        -9.4860
  64   2.0000      -0.335235        -9.1222
  65   2.0000      -0.324100        -8.8192
  66   2.0000      -0.290275        -7.8988
  67   0.0000       0.029040         0.7902
  68   0.0000       0.067708         1.8424
  69   0.0000       0.107115         2.9147
  70   0.0000       0.111388         3.0310
  71   0.0000       0.128704         3.5022

MULLIKEN ATOMIC CHARGES
-----------------------
   0 S :    0.128418
   1 C :   -0.148431
   2 C :   -0.093253
   3 C :   -0.039613
   4 C :   -0.105835
   5 H :    0.062405
   6 C :    0.115220
   7 H :    0.025373
   8 H :    0.009603
   9 C :   -0.104237
  10 H :    0.018746
  11 H :    0.025032
  12 C :   -0.012142
  13 H :    0.015502
  14 H :    0.027650
  15 H :    0.047525
  16 S :    0.085540
  17 C :   -0.092469
  18 C :    0.013341
  19 C :   -0.046571
  20 C :   -0.175046
  21 H :   -0.035904
  22 C :    0.072659
  23 H :    0.034488
  24 H :   -0.015300
  25 C :   -0.010082
  26 H :    0.020962
  27 H :    0.031633
  28 C :   -0.083288
  29 H :    0.037621
  30 H :    0.025649
  31 H :    0.049442
  32 H :    0.064587
  33 H :    0.050777
Sum of atomic charges:   -0.0000000

LOEWDIN ATOMIC CHARGES
----------------------
   0 S :    0.389581
   1 C :   -0.215198
   2 C :   -0.062747
   3 C :   -0.078083
   4 C :   -0.185527
   5 H :    0.051084
   6 C :   -0.037765
   7 H :    0.033118
   8 H :    0.028329
   9 C :   -0.033802
  10 H :    0.021256
  11 H :    0.019932
  12 C :   -0.054591
  13 H :    0.012897
  14 H :    0.030473
  15 H :    0.032287
  16 S :    0.392180
  17 C :   -0.158372
  18 C :   -0.054628
  19 C :   -0.060666
  20 C :   -0.190984
  21 H :    0.010573
  22 C :   -0.031693
  23 H :    0.037993
  24 H :    0.008759
  25 C :   -0.037592
  26 H :    0.022104
  27 H :    0.029029
  28 C :   -0.075029
  29 H :    0.034307
  30 H :    0.018825
  31 H :    0.036822
  32 H :    0.044112
  33 H :    0.023014

  Mayer bond orders larger than 0.100000
B(  0-S ,  1-C ) :   1.1201 B(  0-S ,  4-C ) :   1.1168 B(  1-C ,  2-C ) :   1.6359
B(  1-C , 32-H ) :   0.9548 B(  2-C ,  3-C ) :   1.2130 B(  2-C ,  6-C ) :   1.0425
B(  3-C ,  4-C ) :   1.6062 B(  3-C ,  5-H ) :   0.9695 B(  4-C , 20-C ) :   1.0209
B(  6-C ,  7-H ) :   0.9135 B(  6-C ,  8-H ) :   0.9414 B(  6-C ,  9-C ) :   1.0632
B(  9-C , 10-H ) :   0.9465 B(  9-C , 11-H ) :   0.9611 B(  9-C , 12-C ) :   1.0779
B( 12-C , 13-H ) :   0.9756 B( 12-C , 14-H ) :   0.9726 B( 12-C , 15-H ) :   0.9782
B( 16-S , 17-C ) :   1.1571 B( 16-S , 20-C ) :   1.1435 B( 17-C , 18-C ) :   1.5863
B( 17-C , 20-C ) :   0.1083 B( 17-C , 33-H ) :   0.9711 B( 18-C , 19-C ) :   1.2384
B( 18-C , 21-H ) :   1.0234 B( 19-C , 20-C ) :   1.5928 B( 19-C , 22-C ) :   1.0209
B( 22-C , 23-H ) :   0.9372 B( 22-C , 24-H ) :   0.9304 B( 22-C , 25-C ) :   1.0694
B( 25-C , 26-H ) :   0.9543 B( 25-C , 27-H ) :   0.9515 B( 25-C , 28-C ) :   1.0729
B( 28-C , 29-H ) :   0.9731 B( 28-C , 30-H ) :   0.9774 B( 28-C , 31-H ) :   0.9709

Dispersion correction           -0.014111081
FINAL SINGLE POINT ENERGY     -1339.850999891853

DIPOLE MOMENT
-------------
                                X             Y             Z
Electronic contribution:     -4.64191      18.40132      11.69321
Nuclear contribution   :      4.79587     -18.71821     -11.95889
                        -----------------------------------------
Total Dipole Moment    :      0.15396      -0.31689      -0.26568
                        -----------------------------------------
Magnitude (a.u.)       :      0.44126
Magnitude (Debye)      :      1.12159

Rotational constants in cm-1:     0.021441     0.007193     0.006567
Rotational constants in MHz :   642.770121   215.650298   196.877063

                             ****ORCA TERMINATED NORMALLY****
TOTAL RUN TIME: 0 days 0 hours 0 minutes 34 seconds 147 msec
