                         Program Version 4.2.1 -  RELEASE  -
|  1> ! wB97X-D3 SP def2-SVP
|  2> %pal
|  3> nprocs 16
|  4> end
|  5>
|  6> * xyz 0 1
|  7> S 	 -0.377219 	 5.77794 	 83.2255
|  8> C 	 0.705258 	 4.85641 	 82.3436
|  9> C 	 0.0428353 	 3.83304 	 81.6694
| 10> C 	 -1.35615 	 3.70597 	 82.1108
| 11> C 	 -1.68229 	 4.67275 	 82.9876
| 12> H 	 -2.08495 	 2.9004 	 81.7794
| 13> C 	 0.739527 	 2.85433 	 80.7209
| 14> H 	 0.738943 	 1.87861 	 81.2697
| 15> H 	 1.7545 	 3.17958 	 80.465
| 16> C 	 -0.147933 	 2.62918 	 79.4838
| 17> H 	 -1.01503 	 2.05825 	 79.7604
| 18> H 	 -0.265684 	 3.52719 	 78.8844
| 19> C 	 0.478072 	 1.64053 	 78.5423
| 20> H 	 0.826501 	 0.736989 	 79.0804
| 21> H 	 -0.343118 	 1.2788 	 77.8685
| 22> H 	 1.19027 	 2.02033 	 77.8761
| 23> S 	 -3.14426 	 4.81885 	 85.2395
| 24> C 	 -4.86531 	 5.06 	 85.2085
| 25> C 	 -5.30224 	 5.29314 	 83.9765
| 26> C 	 -4.23909 	 5.30446 	 83.019
| 27> C 	 -2.98122 	 4.95563 	 83.5952
| 28> H 	 -6.32866 	 5.55424 	 83.6932
| 29> C 	 -4.39019 	 5.68393 	 81.5133
| 30> H 	 -3.63624 	 5.3141 	 80.7953
| 31> H 	 -4.38535 	 6.73893 	 81.5048
| 32> C 	 -5.72204 	 5.11157 	 80.9647
| 33> H 	 -6.59534 	 5.52341 	 81.5548
| 34> H 	 -5.66388 	 4.02991 	 81.0128
| 35> C 	 -5.88891 	 5.52966 	 79.4627
| 36> H 	 -6.74538 	 5.13581 	 79.0609
| 37> H 	 -5.16937 	 5.13015 	 78.7723
| 38> H 	 -5.93256 	 6.60497 	 79.4643
| 39> H 	 1.7709 	 5.05182 	 82.1324
| 40> H 	 -5.50309 	 5.07643 	 86.0842
| 41> *
| 42>
| 43>                          ****END OF INPUT****

CARTESIAN COORDINATES (ANGSTROEM)
---------------------------------
  S     -0.377219    5.777940   83.225500
  C      0.705258    4.856410   82.343600
  C      0.042835    3.833040   81.669400
  C     -1.356150    3.705970   82.110800
  C     -1.682290    4.672750   82.987600
  H     -2.084950    2.900400   81.779400
  C      0.739527    2.854330   80.720900
  H      0.738943    1.878610   81.269700
  H      1.754500    3.179580   80.465000
  C     -0.147933    2.629180   79.483800
  H     -1.015030    2.058250   79.760400
  H     -0.265684    3.527190   78.884400
  C      0.478072    1.640530   78.542300
  H      0.826501    0.736989   79.080400
  H     -0.343118    1.278800   77.868500
  H      1.190270    2.020330   77.876100
  S     -3.144260    4.818850   85.239500
  C     -4.865310    5.060000   85.208500
  C     -5.302240    5.293140   83.976500
  C     -4.239090    5.304460   83.019000
  C     -2.981220    4.955630   83.595200
  H     -6.328660    5.554240   83.693200
  C     -4.390190    5.683930   81.513300
  H     -3.636240    5.314100   80.795300
  H     -4.385350    6.738930   81.504800
  C     -5.722040    5.111570   80.964700
  H     -6.595340    5.523410   81.554800
  H     -5.663880    4.029910   81.012800
  C     -5.888910    5.529660   79.462700
  H     -6.745380    5.135810   79.060900
  H     -5.169370    5.130150   78.772300
  H     -5.932560    6.604970   79.464300
  H      1.770900    5.051820   82.132400
  H     -5.503090    5.076430   86.084200

 Total Charge           Charge          ....    0
 Multiplicity           Mult            ....    1
 Number of Electrons    NEL             ....  134
 Basis Dimension        Dim             ....  322

ORBITAL ENERGIES
----------------

  NO   OCC          E(Eh)            E(eV)
   0   2.0000     -88.961191     -2420.7571
   1   2.0000     -88.959869     -2420.7211
   2   2.0000     -10.322157      -280.8802
   3   2.0000     -10.317931      -280.7652
   4   2.0000     -10.309905      -280.5468
   5   2.0000     -10.307995      -280.4948
   6   2.0000     -10.303567      -280.3743
   7   2.0000     -10.300706      -280.2965
   8   2.0000     -10.298186      -280.2279
   9   2.0000     -10.295947      -280.1670
  10   2.0000     -10.290639      -280.0225
  11   2.0000     -10.290475      -280.0181
  12   2.0000     -10.288549      -279.9657
  13   2.0000     -10.282797      -279.8091
  14   2.0000     -10.273514      -279.5565
  15   2.0000     -10.268365      -279.4164
  16   2.0000      -8.078068      -219.8154
  17   2.0000      -8.076717      -219.7786
  18   2.0000      -6.036337      -164.2571
  19   2.0000      -6.035190      -164.2259
  20   2.0000      -6.032140      -164.1429
  21   2.0000      -6.030832      -164.1073
  22   2.0000      -6.029068      -164.0593
  23   2.0000      -6.027477      -164.0160
  24   2.0000      -1.016765       -27.6676
  25   2.0000      -0.994472       -27.0610
  26   2.0000      -0.916179       -24.9305
  27   2.0000      -0.903709       -24.5912
  28   2.0000      -0.877778       -23.8856
  29   2.0000      -0.849020       -23.1030
  30   2.0000      -0.844870       -22.9901
  31   2.0000      -0.821524       -22.3548
  32   2.0000      -0.778738       -21.1905
  33   2.0000      -0.766265       -20.8511
  34   2.0000      -0.704288       -19.1646
  35   2.0000      -0.697325       -18.9752
  36   2.0000      -0.683955       -18.6114
  37   2.0000      -0.651927       -17.7398
  38   2.0000      -0.639860       -17.4115
  39   2.0000      -0.619202       -16.8494
  40   2.0000      -0.600617       -16.3436
  41   2.0000      -0.585403       -15.9296
  42   2.0000      -0.570768       -15.5314
  43   2.0000      -0.566627       -15.4187
  44   2.0000      -0.524763       -14.2795
  45   2.0000      -0.519814       -14.1449
  46   2.0000      -0.516698       -14.0601
  47   2.0000      -0.511451       -13.9173
  48   2.0000      -0.507993       -13.8232
  49   2.0000      -0.496166       -13.5014
  50   2.0000      -0.491486       -13.3740
  51   2.0000      -0.478288       -13.0149
  52   2.0000      -0.470685       -12.8080
  53   2.0000      -0.465426       -12.6649
  54   2.0000      -0.464368       -12.6361
  55   2.0000      -0.453161       -12.3311
  56   2.0000      -0.448767       -12.2116
  57   2.0000      -0.436470       -11.8769
  58   2.0000      -0.435921       -11.8620
  59   2.0000      -0.423336       -11.5196
  60   2.0000      -0.420617       -11.4456
  61   2.0000      -0.408983       -11.1290
  62   2.0000      -0.405437       -11.0325
  63   2.0000      -0.348347        -9.4790
  64   2.0000      -0.330834        -9.0024
  65   2.0000      -0.318298        -8.6613
  66   2.0000      -0.298903        -8.1336
  67   0.0000       0.047464         1.2916
  68   0.0000       0.074417         2.0250
  69   0.0000       0.120214         3.2712
  70   0.0000       0.128222         3.4891
  71   0.0000       0.130940         3.5631

MULLIKEN ATOMIC CHARGES
-----------------------
   0 S :    0.124374
   1 C :   -0.109792
   2 C :   -0.127452
   3 C :    0.024204
   4 C :   -0.155429
   5 H :    0.040904
   6 C :    0.064825
   7 H :    0.041116
   8 H :    0.022554
   9 C :   -0.084035
  10 H :    0.029402
  11 H :    0.039200
  12 C :   -0.049831
  13 H :    0.026534
  14 H :    0.025700
  15 H :    0.023459
  16 S :    0.124914
  17 C :   -0.081968
  18 C :   -0.029483
  19 C :   -0.049520
  20 C :   -0.177170
  21 H :    0.022751
  22 C :    0.091978
  23 H :    0.036696
  24 H :    0.026724
  25 C :   -0.150504
  26 H :    0.041573
  27 H :    0.036759
  28 C :    0.008507
  29 H :    0.005070
  30 H :    0.023623
  31 H :    0.027036
  32 H :    0.054343
  33 H :    0.052946
Sum of atomic charges:   -0.0000000

LOEWDIN ATOMIC CHARGES
----------------------
   0 S :    0.439480
   1 C :   -0.232609
   2 C :   -0.066154
   3 C :   -0.067891
   4 C :   -0.206261
   5 H :    0.044840
   6 C :   -0.031231
   7 H :    0.038624
   8 H :    0.027527
   9 C :   -0.041655
  10 H :    0.025831
  11 H :    0.028826
  12 C :   -0.065899
  13 H :    0.024817
  14 H :    0.029575
  15 H :    0.012485
  16 S :    0.456039
  17 C :   -0.190075
  18 C :   -0.078034
  19 C :   -0.053211
  20 C :   -0.242841
  21 H :    0.035528
  22 C :   -0.027312
  23 H :    0.034928
  24 H :    0.024743
  25 C :   -0.038185
  26 H :    0.025126
  27 H :    0.021959
  28 C :   -0.059126
  29 H :    0.013239
  30 H :    0.024099
  31 H :    0.024686
  32 H :    0.036728
  33 H :    0.031407

  Mayer bond orders larger than 0.100000
B(  0-S ,  1-C ) :   1.1438 B(  0-S ,  4-C ) :   1.1705 B(  1-C ,  2-C ) :   1.6190
B(  1-C , 32-H ) :   0.9656 B(  2-C ,  3-C ) :   1.2077 B(  2-C ,  6-C ) :   1.0345
B(  3-C ,  4-C ) :   1.6224 B(  3-C ,  5-H ) :   0.9848 B(  4-C , 20-C ) :   0.9837
B(  6-C ,  7-H ) :   0.9329 B(  6-C ,  8-H ) :   0.9478 B(  6-C ,  9-C ) :   1.0787
B(  9-C , 10-H ) :   0.9497 B(  9-C , 11-H ) :   0.9586 B(  9-C , 12-C ) :   1.0943
B( 12-C , 13-H ) :   0.9688 B( 12-C , 14-H ) :   0.9748 B( 12-C , 15-H ) :   0.9755
B( 16-S , 17-C ) :   1.1679 B( 16-S , 20-C ) :   1.1907 B( 17-C , 18-C ) :   1.5839
B( 17-C , 33-H ) :   0.9671 B( 18-C , 19-C ) :   1.2825 B( 18-C , 21-H ) :   0.9871
B( 19-C , 20-C ) :   1.5544 B( 19-C , 22-C ) :   1.0187 B( 22-C , 23-H ) :   0.9472
B( 22-C , 24-H ) :   0.9333 B( 22-C , 25-C ) :   1.0586 B( 25-C , 26-H ) :   0.9503
B( 25-C , 27-H ) :   0.9638 B( 25-C , 28-C ) :   1.0862 B( 28-C , 29-H ) :   0.9700
B( 28-C , 30-H ) :   0.9719 B( 28-C , 31-H ) :   0.9755

Dispersion correction           -0.013554480
FINAL SINGLE POINT ENERGY     -1339.867194567361

DIPOLE MOMENT
-------------
                                X             Y             Z
Electronic contribution:      5.39474       9.83943      28.89040
Nuclear contribution   :     -5.62166     -10.03796     -29.52042
                        -----------------------------------------
Total Dipole Moment    :     -0.22692      -0.19853      -0.63001
                        -----------------------------------------
Magnitude (a.u.)       :      0.69844
Magnitude (Debye)      :      1.77530

Rotational constants in cm-1:     0.016541     0.008957     0.006547
Rotational constants in MHz :   495.871761   268.537772   196.264033

                             ****ORCA TERMINATED NORMALLY****
TOTAL RUN TIME: 0 days 0 hours 0 minutes 33 seconds 496 msec
