                         Program Version 4.2.1 -  RELEASE  -
|  1> ! wB97X-D3 SP def2-SVP
|  2> %pal
|  3> nprocs 16
|  4> end
|  5>
|  6> * xyz 0 1
|  7> S 	 -31.5551 	 1.68326 	 98.302
|  8> C 	 -31.0209 	 1.71007 	 96.5972
|  9> C 	 -32.1283 	 1.77626 	 95.7482
| 10> C 	 -33.3683 	 1.8644 	 96.4249
| 11> C 	 -33.2815 	 1.78119 	 97.802
| 12> H 	 -34.3191 	 2.01444 	 96.0044
| 13> C 	 -32.1159 	 1.70297 	 94.2247
| 14> H 	 -31.0841 	 1.47299 	 93.9406
| 15> H 	 -32.3883 	 2.66315 	 93.8049
| 16> C 	 -33.0912 	 0.720574 	 93.5537
| 17> H 	 -32.8243 	 -0.262122 	 94.0789
| 18> H 	 -34.1143 	 0.918981 	 93.7411
| 19> C 	 -32.8456 	 0.660799 	 92.0711
| 20> H 	 -31.9345 	 0.0396949 	 91.8
| 21> H 	 -33.6218 	 0.0254248 	 91.5773
| 22> H 	 -32.7774 	 1.58806 	 91.6223
| 23> S 	 -34.4454 	 3.33623 	 99.8004
| 24> C 	 -36.1314 	 2.88912 	 100.268
| 25> C 	 -36.4585 	 1.65636 	 99.7291
| 26> C 	 -35.4959 	 1.09546 	 98.8822
| 27> C 	 -34.3353 	 1.88042 	 98.8031
| 28> H 	 -37.4578 	 1.21894 	 99.869
| 29> C 	 -35.7484 	 -0.213369 	 98.2504
| 30> H 	 -34.8921 	 -0.653308 	 97.8297
| 31> H 	 -36.3903 	 -0.103126 	 97.3494
| 32> C 	 -36.4759 	 -1.29942 	 99.0956
| 33> H 	 -37.4714 	 -1.10354 	 99.3304
| 34> H 	 -35.933 	 -1.37696 	 100.065
| 35> C 	 -36.5573 	 -2.52142 	 98.227
| 36> H 	 -37.2995 	 -3.26975 	 98.6493
| 37> H 	 -35.6171 	 -2.97095 	 98.2039
| 38> H 	 -36.9524 	 -2.24657 	 97.2843
| 39> H 	 -30.0546 	 1.41156 	 96.1907
| 40> H 	 -36.8551 	 3.51013 	 100.854
| 41> *
| 42>
| 43>                          ****END OF INPUT****

CARTESIAN COORDINATES (ANGSTROEM)
---------------------------------
  S    -31.555100    1.683260   98.302000
  C    -31.020900    1.710070   96.597200
  C    -32.128300    1.776260   95.748200
  C    -33.368300    1.864400   96.424900
  C    -33.281500    1.781190   97.802000
  H    -34.319100    2.014440   96.004400
  C    -32.115900    1.702970   94.224700
  H    -31.084100    1.472990   93.940600
  H    -32.388300    2.663150   93.804900
  C    -33.091200    0.720574   93.553700
  H    -32.824300   -0.262122   94.078900
  H    -34.114300    0.918981   93.741100
  C    -32.845600    0.660799   92.071100
  H    -31.934500    0.039695   91.800000
  H    -33.621800    0.025425   91.577300
  H    -32.777400    1.588060   91.622300
  S    -34.445400    3.336230   99.800400
  C    -36.131400    2.889120  100.268000
  C    -36.458500    1.656360   99.729100
  C    -35.495900    1.095460   98.882200
  C    -34.335300    1.880420   98.803100
  H    -37.457800    1.218940   99.869000
  C    -35.748400   -0.213369   98.250400
  H    -34.892100   -0.653308   97.829700
  H    -36.390300   -0.103126   97.349400
  C    -36.475900   -1.299420   99.095600
  H    -37.471400   -1.103540   99.330400
  H    -35.933000   -1.376960  100.065000
  C    -36.557300   -2.521420   98.227000
  H    -37.299500   -3.269750   98.649300
  H    -35.617100   -2.970950   98.203900
  H    -36.952400   -2.246570   97.284300
  H    -30.054600    1.411560   96.190700
  H    -36.855100    3.510130  100.854000

 Total Charge           Charge          ....    0
 Multiplicity           Mult            ....    1
 Number of Electrons    NEL             ....  134
 Basis Dimension        Dim             ....  322

ORBITAL ENERGIES
----------------

  NO   OCC          E(Eh)            E(eV)
   0   2.0000     -88.968807     -2420.9643
   1   2.0000     -88.964901     -2420.8580
   2   2.0000     -10.332768      -281.1689
   3   2.0000     -10.328120      -281.0424
   4   2.0000     -10.327143      -281.0159
   5   2.0000     -10.318368      -280.7771
   6   2.0000     -10.301473      -280.3173
   7   2.0000     -10.301100      -280.3072
   8   2.0000     -10.293595      -280.1030
   9   2.0000     -10.291875      -280.0562
  10   2.0000     -10.290382      -280.0155
  11   2.0000     -10.289072      -279.9799
  12   2.0000     -10.287286      -279.9313
  13   2.0000     -10.282381      -279.7978
  14   2.0000     -10.280333      -279.7421
  15   2.0000     -10.273752      -279.5630
  16   2.0000      -8.082248      -219.9291
  17   2.0000      -8.078251      -219.8204
  18   2.0000      -6.040858      -164.3801
  19   2.0000      -6.036938      -164.2734
  20   2.0000      -6.036918      -164.2729
  21   2.0000      -6.032967      -164.1654
  22   2.0000      -6.032944      -164.1647
  23   2.0000      -6.028904      -164.0548
  24   2.0000      -0.999781       -27.2054
  25   2.0000      -0.977056       -26.5871
  26   2.0000      -0.917847       -24.9759
  27   2.0000      -0.912798       -24.8385
  28   2.0000      -0.868410       -23.6306
  29   2.0000      -0.856688       -23.3117
  30   2.0000      -0.845579       -23.0094
  31   2.0000      -0.814156       -22.1543
  32   2.0000      -0.780101       -21.2276
  33   2.0000      -0.767260       -20.8782
  34   2.0000      -0.709389       -19.3034
  35   2.0000      -0.705461       -19.1966
  36   2.0000      -0.693757       -18.8781
  37   2.0000      -0.654403       -17.8072
  38   2.0000      -0.642252       -17.4766
  39   2.0000      -0.619594       -16.8600
  40   2.0000      -0.602917       -16.4062
  41   2.0000      -0.579503       -15.7691
  42   2.0000      -0.576488       -15.6870
  43   2.0000      -0.558790       -15.2054
  44   2.0000      -0.527390       -14.3510
  45   2.0000      -0.525935       -14.3114
  46   2.0000      -0.516035       -14.0420
  47   2.0000      -0.510259       -13.8849
  48   2.0000      -0.508876       -13.8472
  49   2.0000      -0.496710       -13.5162
  50   2.0000      -0.492550       -13.4030
  51   2.0000      -0.476196       -12.9580
  52   2.0000      -0.471188       -12.8217
  53   2.0000      -0.463910       -12.6236
  54   2.0000      -0.458752       -12.4833
  55   2.0000      -0.452875       -12.3233
  56   2.0000      -0.443871       -12.0784
  57   2.0000      -0.434677       -11.8282
  58   2.0000      -0.430597       -11.7171
  59   2.0000      -0.426607       -11.6086
  60   2.0000      -0.420023       -11.4294
  61   2.0000      -0.418614       -11.3911
  62   2.0000      -0.417038       -11.3482
  63   2.0000      -0.344758        -9.3813
  64   2.0000      -0.330033        -8.9807
  65   2.0000      -0.325976        -8.8703
  66   2.0000      -0.293727        -7.9927
  67   0.0000       0.030236         0.8228
  68   0.0000       0.054676         1.4878
  69   0.0000       0.109555         2.9811
  70   0.0000       0.121666         3.3107
  71   0.0000       0.126736         3.4487

MULLIKEN ATOMIC CHARGES
-----------------------
   0 S :    0.089484
   1 C :   -0.106711
   2 C :   -0.099002
   3 C :    0.061731
   4 C :   -0.176423
   5 H :   -0.004756
   6 C :    0.073402
   7 H :    0.012569
   8 H :    0.028926
   9 C :   -0.097324
  10 H :    0.038826
  11 H :    0.029344
  12 C :   -0.039895
  13 H :    0.035080
  14 H :    0.035099
  15 H :    0.023092
  16 S :    0.110139
  17 C :   -0.113915
  18 C :   -0.039360
  19 C :    0.001110
  20 C :   -0.142487
  21 H :    0.027630
  22 C :    0.049445
  23 H :    0.011326
  24 H :    0.025080
  25 C :   -0.076486
  26 H :    0.012402
  27 H :    0.042766
  28 C :   -0.019221
  29 H :    0.034373
  30 H :    0.028543
  31 H :    0.018634
  32 H :    0.051568
  33 H :    0.075012
Sum of atomic charges:    0.0000000

LOEWDIN ATOMIC CHARGES
----------------------
   0 S :    0.368634
   1 C :   -0.194404
   2 C :   -0.062291
   3 C :   -0.053972
   4 C :   -0.171486
   5 H :    0.025245
   6 C :   -0.029936
   7 H :    0.027621
   8 H :    0.028528
   9 C :   -0.043988
  10 H :    0.033514
  11 H :    0.016305
  12 C :   -0.065404
  13 H :    0.034218
  14 H :    0.032809
  15 H :    0.013420
  16 S :    0.385978
  17 C :   -0.175125
  18 C :   -0.072045
  19 C :   -0.055747
  20 C :   -0.203715
  21 H :    0.036174
  22 C :   -0.032845
  23 H :    0.024803
  24 H :    0.035740
  25 C :   -0.035605
  26 H :    0.011489
  27 H :    0.029792
  28 C :   -0.052845
  29 H :    0.032830
  30 H :    0.018615
  31 H :    0.020043
  32 H :    0.031932
  33 H :    0.041719

  Mayer bond orders larger than 0.100000
B(  0-S ,  1-C ) :   1.1222 B(  0-S ,  4-C ) :   1.1350 B(  1-C ,  2-C ) :   1.6322
B(  1-C ,  4-C ) :   0.1010 B(  1-C , 32-H ) :   0.9590 B(  2-C ,  3-C ) :   1.2178
B(  2-C ,  6-C ) :   1.0293 B(  3-C ,  4-C ) :   1.6002 B(  3-C ,  5-H ) :   1.0011
B(  4-C , 20-C ) :   1.0195 B(  6-C ,  7-H ) :   0.9470 B(  6-C ,  8-H ) :   0.9309
B(  6-C ,  9-C ) :   1.0596 B(  9-C , 10-H ) :   0.9574 B(  9-C , 11-H ) :   0.9514
B(  9-C , 12-C ) :   1.0905 B( 12-C , 13-H ) :   0.9724 B( 12-C , 14-H ) :   0.9719
B( 12-C , 15-H ) :   0.9738 B( 16-S , 17-C ) :   1.1459 B( 16-S , 20-C ) :   1.1340
B( 17-C , 18-C ) :   1.6020 B( 17-C , 20-C ) :   0.1005 B( 17-C , 33-H ) :   0.9610
B( 18-C , 19-C ) :   1.2598 B( 18-C , 21-H ) :   0.9819 B( 19-C , 20-C ) :   1.5734
B( 19-C , 22-C ) :   1.0542 B( 22-C , 23-H ) :   0.9377 B( 22-C , 24-H ) :   0.9148
B( 22-C , 25-C ) :   1.0661 B( 25-C , 26-H ) :   0.9447 B( 25-C , 27-H ) :   0.9594
B( 25-C , 28-C ) :   1.0859 B( 28-C , 29-H ) :   0.9734 B( 28-C , 30-H ) :   0.9762
B( 28-C , 31-H ) :   0.9677

Dispersion correction           -0.013540523
FINAL SINGLE POINT ENERGY     -1339.866524389462

DIPOLE MOMENT
-------------
                                X             Y             Z
Electronic contribution:      9.98056      19.11321      21.72814
Nuclear contribution   :    -10.59359     -19.51729     -22.32772
                        -----------------------------------------
Total Dipole Moment    :     -0.61302      -0.40408      -0.59958
                        -----------------------------------------
Magnitude (a.u.)       :      0.94793
Magnitude (Debye)      :      2.40945

Rotational constants in cm-1:     0.016018     0.008626     0.006593
Rotational constants in MHz :   480.218362   258.593737   197.653563

                             ****ORCA TERMINATED NORMALLY****
TOTAL RUN TIME: 0 days 0 hours 0 minutes 29 seconds 280 msec
