                         Program Version 4.2.1 -  RELEASE  -
|  1> ! wB97X-D3 SP def2-SVP
|  2> %pal
|  3> nprocs 16
|  4> end
|  5>
|  6> * xyz 0 1
|  7> S 	 -0.828379 	 8.94262 	 83.7574
|  8> C 	 -2.52751 	 8.93358 	 83.4494
|  9> C 	 -3.07688 	 10.1961 	 83.3268
| 10> C 	 -2.04416 	 11.1551 	 83.4856
| 11> C 	 -0.776734 	 10.6475 	 83.8247
| 12> H 	 -2.24775 	 12.2212 	 83.4949
| 13> C 	 -4.53039 	 10.589 	 83.0881
| 14> H 	 -4.50059 	 11.6308 	 83.4288
| 15> H 	 -5.11779 	 9.96599 	 83.7961
| 16> C 	 -5.04572 	 10.4373 	 81.6014
| 17> H 	 -4.47868 	 10.9907 	 80.9419
| 18> H 	 -5.0309 	 9.44266 	 81.102
| 19> C 	 -6.38266 	 11.0411 	 81.4606
| 20> H 	 -6.54084 	 11.9396 	 82.0374
| 21> H 	 -6.54589 	 11.2385 	 80.3762
| 22> H 	 -7.04653 	 10.2684 	 81.8748
| 23> S 	 1.6585 	 10.612 	 85.3808
| 24> C 	 2.49989 	 12.1316 	 85.4594
| 25> C 	 2.12522 	 12.9137 	 84.3846
| 26> C 	 0.912656 	 12.5483 	 83.7161
| 27> C 	 0.434909 	 11.3694 	 84.2318
| 28> H 	 2.73776 	 13.7796 	 84.1346
| 29> C 	 0.406319 	 13.3449 	 82.4846
| 30> H 	 -0.227449 	 12.7185 	 81.8078
| 31> H 	 1.31384 	 13.4711 	 81.8761
| 32> C 	 -0.221153 	 14.7787 	 82.7546
| 33> H 	 0.202785 	 15.112 	 83.7158
| 34> H 	 -1.30506 	 14.8295 	 82.8834
| 35> C 	 0.077215 	 15.7852 	 81.6332
| 36> H 	 -0.326422 	 15.3441 	 80.7065
| 37> H 	 1.18739 	 16.0541 	 81.5742
| 38> H 	 -0.353711 	 16.7439 	 81.8593
| 39> H 	 -3.14862 	 8.02596 	 83.3543
| 40> H 	 3.40206 	 12.3741 	 86.0266
| 41> *
| 42>
| 43>                          ****END OF INPUT****

CARTESIAN COORDINATES (ANGSTROEM)
---------------------------------
  S     -0.828379    8.942620   83.757400
  C     -2.527510    8.933580   83.449400
  C     -3.076880   10.196100   83.326800
  C     -2.044160   11.155100   83.485600
  C     -0.776734   10.647500   83.824700
  H     -2.247750   12.221200   83.494900
  C     -4.530390   10.589000   83.088100
  H     -4.500590   11.630800   83.428800
  H     -5.117790    9.965990   83.796100
  C     -5.045720   10.437300   81.601400
  H     -4.478680   10.990700   80.941900
  H     -5.030900    9.442660   81.102000
  C     -6.382660   11.041100   81.460600
  H     -6.540840   11.939600   82.037400
  H     -6.545890   11.238500   80.376200
  H     -7.046530   10.268400   81.874800
  S      1.658500   10.612000   85.380800
  C      2.499890   12.131600   85.459400
  C      2.125220   12.913700   84.384600
  C      0.912656   12.548300   83.716100
  C      0.434909   11.369400   84.231800
  H      2.737760   13.779600   84.134600
  C      0.406319   13.344900   82.484600
  H     -0.227449   12.718500   81.807800
  H      1.313840   13.471100   81.876100
  C     -0.221153   14.778700   82.754600
  H      0.202785   15.112000   83.715800
  H     -1.305060   14.829500   82.883400
  C      0.077215   15.785200   81.633200
  H     -0.326422   15.344100   80.706500
  H      1.187390   16.054100   81.574200
  H     -0.353711   16.743900   81.859300
  H     -3.148620    8.025960   83.354300
  H      3.402060   12.374100   86.026600

 Total Charge           Charge          ....    0
 Multiplicity           Mult            ....    1
 Number of Electrons    NEL             ....  134
 Basis Dimension        Dim             ....  322

ORBITAL ENERGIES
----------------

  NO   OCC          E(Eh)            E(eV)
   0   2.0000     -88.966507     -2420.9017
   1   2.0000     -88.966139     -2420.8917
   2   2.0000     -10.334039      -281.2035
   3   2.0000     -10.327589      -281.0280
   4   2.0000     -10.318843      -280.7900
   5   2.0000     -10.309583      -280.5380
   6   2.0000     -10.306487      -280.4538
   7   2.0000     -10.304260      -280.3932
   8   2.0000     -10.302733      -280.3516
   9   2.0000     -10.296967      -280.1947
  10   2.0000     -10.293837      -280.1095
  11   2.0000     -10.293826      -280.1092
  12   2.0000     -10.291241      -280.0389
  13   2.0000     -10.285927      -279.8943
  14   2.0000     -10.282109      -279.7904
  15   2.0000     -10.275327      -279.6059
  16   2.0000      -8.082198      -219.9278
  17   2.0000      -8.079881      -219.8647
  18   2.0000      -6.040592      -164.3729
  19   2.0000      -6.038624      -164.3193
  20   2.0000      -6.036532      -164.2624
  21   2.0000      -6.034908      -164.2182
  22   2.0000      -6.033100      -164.1690
  23   2.0000      -6.030059      -164.0863
  24   2.0000      -1.006491       -27.3880
  25   2.0000      -0.983504       -26.7625
  26   2.0000      -0.915186       -24.9035
  27   2.0000      -0.900906       -24.5149
  28   2.0000      -0.872412       -23.7395
  29   2.0000      -0.857325       -23.3290
  30   2.0000      -0.843588       -22.9552
  31   2.0000      -0.807573       -21.9752
  32   2.0000      -0.781647       -21.2697
  33   2.0000      -0.771219       -20.9859
  34   2.0000      -0.702567       -19.1178
  35   2.0000      -0.701763       -19.0960
  36   2.0000      -0.693832       -18.8801
  37   2.0000      -0.658260       -17.9122
  38   2.0000      -0.633604       -17.2412
  39   2.0000      -0.619183       -16.8488
  40   2.0000      -0.594612       -16.1802
  41   2.0000      -0.567478       -15.4419
  42   2.0000      -0.561991       -15.2925
  43   2.0000      -0.554710       -15.0944
  44   2.0000      -0.534229       -14.5371
  45   2.0000      -0.531342       -14.4586
  46   2.0000      -0.515810       -14.0359
  47   2.0000      -0.512813       -13.9544
  48   2.0000      -0.504292       -13.7225
  49   2.0000      -0.495146       -13.4736
  50   2.0000      -0.490591       -13.3497
  51   2.0000      -0.476173       -12.9573
  52   2.0000      -0.470790       -12.8108
  53   2.0000      -0.459933       -12.5154
  54   2.0000      -0.457321       -12.4443
  55   2.0000      -0.448548       -12.2056
  56   2.0000      -0.445581       -12.1249
  57   2.0000      -0.440942       -11.9986
  58   2.0000      -0.434051       -11.8111
  59   2.0000      -0.424375       -11.5478
  60   2.0000      -0.422011       -11.4835
  61   2.0000      -0.416682       -11.3385
  62   2.0000      -0.412876       -11.2349
  63   2.0000      -0.354461        -9.6454
  64   2.0000      -0.332169        -9.0388
  65   2.0000      -0.327964        -8.9244
  66   2.0000      -0.281777        -7.6676
  67   0.0000       0.022651         0.6164
  68   0.0000       0.069058         1.8792
  69   0.0000       0.105553         2.8722
  70   0.0000       0.124883         3.3982
  71   0.0000       0.133698         3.6381

MULLIKEN ATOMIC CHARGES
-----------------------
   0 S :    0.118068
   1 C :   -0.134234
   2 C :   -0.094162
   3 C :    0.003788
   4 C :   -0.156259
   5 H :    0.002028
   6 C :    0.060614
   7 H :    0.026760
   8 H :    0.041287
   9 C :   -0.037307
  10 H :   -0.001108
  11 H :    0.035313
  12 C :   -0.048045
  13 H :    0.026925
  14 H :    0.040541
  15 H :    0.027608
  16 S :    0.094430
  17 C :   -0.085802
  18 C :   -0.047711
  19 C :   -0.022191
  20 C :   -0.131819
  21 H :    0.019672
  22 C :    0.033075
  23 H :    0.041454
  24 H :    0.034770
  25 C :   -0.066155
  26 H :    0.029473
  27 H :    0.036635
  28 C :   -0.078847
  29 H :    0.046074
  30 H :    0.040038
  31 H :    0.031602
  32 H :    0.048157
  33 H :    0.065329
Sum of atomic charges:    0.0000000

LOEWDIN ATOMIC CHARGES
----------------------
   0 S :    0.436361
   1 C :   -0.213431
   2 C :   -0.068645
   3 C :   -0.072307
   4 C :   -0.205162
   5 H :    0.025708
   6 C :   -0.023878
   7 H :    0.035205
   8 H :    0.036903
   9 C :   -0.042382
  10 H :    0.011988
  11 H :    0.032444
  12 C :   -0.064379
  13 H :    0.021184
  14 H :    0.031709
  15 H :    0.025751
  16 S :    0.363132
  17 C :   -0.189080
  18 C :   -0.071615
  19 C :   -0.056646
  20 C :   -0.165007
  21 H :    0.029052
  22 C :   -0.032925
  23 H :    0.034378
  24 H :    0.037011
  25 C :   -0.043362
  26 H :    0.023966
  27 H :    0.023760
  28 C :   -0.070183
  29 H :    0.028823
  30 H :    0.030801
  31 H :    0.023080
  32 H :    0.031018
  33 H :    0.036727

  Mayer bond orders larger than 0.100000
B(  0-S ,  1-C ) :   1.1541 B(  0-S ,  4-C ) :   1.1709 B(  1-C ,  2-C ) :   1.5866
B(  1-C , 32-H ) :   0.9647 B(  2-C ,  3-C ) :   1.2995 B(  2-C ,  6-C ) :   1.0054
B(  3-C ,  4-C ) :   1.5256 B(  3-C ,  5-H ) :   0.9897 B(  4-C , 20-C ) :   1.0765
B(  6-C ,  7-H ) :   0.9412 B(  6-C ,  8-H ) :   0.9410 B(  6-C ,  9-C ) :   1.0578
B(  9-C , 10-H ) :   0.9540 B(  9-C , 11-H ) :   0.9548 B(  9-C , 12-C ) :   1.0861
B( 12-C , 13-H ) :   0.9727 B( 12-C , 14-H ) :   0.9753 B( 12-C , 15-H ) :   0.9765
B( 16-S , 17-C ) :   1.1317 B( 16-S , 20-C ) :   1.1083 B( 17-C , 18-C ) :   1.6416
B( 17-C , 33-H ) :   0.9643 B( 18-C , 19-C ) :   1.2157 B( 18-C , 21-H ) :   0.9825
B( 19-C , 20-C ) :   1.6156 B( 19-C , 22-C ) :   1.0344 B( 22-C , 23-H ) :   0.9344
B( 22-C , 24-H ) :   0.9463 B( 22-C , 25-C ) :   1.0304 B( 25-C , 26-H ) :   0.9627
B( 25-C , 27-H ) :   0.9572 B( 25-C , 28-C ) :   1.0818 B( 28-C , 29-H ) :   0.9762
B( 28-C , 30-H ) :   0.9748 B( 28-C , 31-H ) :   0.9737

Dispersion correction           -0.013396087
FINAL SINGLE POINT ENERGY     -1339.863959479975

DIPOLE MOMENT
-------------
                                X             Y             Z
Electronic contribution:     19.99996     -19.68550      16.62812
Nuclear contribution   :    -20.26227      20.26029     -17.03596
                        -----------------------------------------
Total Dipole Moment    :     -0.26230       0.57479      -0.40784
                        -----------------------------------------
Magnitude (a.u.)       :      0.75201
Magnitude (Debye)      :      1.91147

Rotational constants in cm-1:     0.016936     0.008521     0.005915
Rotational constants in MHz :   507.735286   255.462024   177.341650

                             ****ORCA TERMINATED NORMALLY****
TOTAL RUN TIME: 0 days 0 hours 0 minutes 33 seconds 819 msec
