                         Program Version 4.2.1 -  RELEASE  -
|  1> ! wB97X-D3 SP def2-SVP
|  2> %pal
|  3> nprocs 16
|  4> end
|  5>
|  6> * xyz 0 1
|  7> S 	 -44.8484 	 54.1382 	 100.593
|  8> C 	 -44.8355 	 52.4375 	 100.858
|  9> C 	 -45.5395 	 51.8285 	 99.7551
| 10> C 	 -46.1398 	 52.7786 	 98.9009
| 11> C 	 -45.79 	 54.0292 	 99.1366
| 12> H 	 -46.7142 	 52.5104 	 98.057
| 13> C 	 -45.7486 	 50.3714 	 99.6541
| 14> H 	 -46.6983 	 50.0425 	 100.087
| 15> H 	 -44.9686 	 49.9648 	 100.387
| 16> C 	 -45.7297 	 49.9193 	 98.1188
| 17> H 	 -45.7325 	 48.7835 	 98.124
| 18> H 	 -46.5953 	 50.0757 	 97.602
| 19> C 	 -44.5654 	 50.3738 	 97.2759
| 20> H 	 -43.5916 	 50.0231 	 97.514
| 21> H 	 -44.7372 	 50.1967 	 96.2063
| 22> H 	 -44.5218 	 51.4768 	 97.4069
| 23> S 	 -47.5983 	 55.5612 	 97.7684
| 24> C 	 -47.1265 	 56.7765 	 96.6062
| 25> C 	 -45.7236 	 56.9212 	 96.7106
| 26> C 	 -45.0434 	 56.0114 	 97.6109
| 27> C 	 -45.9612 	 55.1783 	 98.238
| 28> H 	 -45.184 	 57.6649 	 96.1589
| 29> C 	 -43.5283 	 56.0754 	 97.8376
| 30> H 	 -43.0688 	 55.8249 	 96.9127
| 31> H 	 -43.4156 	 55.2622 	 98.5476
| 32> C 	 -42.9743 	 57.4004 	 98.4654
| 33> H 	 -43.3795 	 58.1515 	 97.7453
| 34> H 	 -41.907 	 57.4268 	 98.3921
| 35> C 	 -43.478 	 57.7586 	 99.8275
| 36> H 	 -44.464 	 58.1998 	 99.8074
| 37> H 	 -42.7549 	 58.5064 	 100.292
| 38> H 	 -43.4018 	 56.8233 	 100.407
| 39> H 	 -44.3483 	 52.0109 	 101.673
| 40> H 	 -47.731 	 57.4181 	 96.0497
| 41> *
| 42>
| 43>                          ****END OF INPUT****

CARTESIAN COORDINATES (ANGSTROEM)
---------------------------------
  S    -44.848400   54.138200  100.593000
  C    -44.835500   52.437500  100.858000
  C    -45.539500   51.828500   99.755100
  C    -46.139800   52.778600   98.900900
  C    -45.790000   54.029200   99.136600
  H    -46.714200   52.510400   98.057000
  C    -45.748600   50.371400   99.654100
  H    -46.698300   50.042500  100.087000
  H    -44.968600   49.964800  100.387000
  C    -45.729700   49.919300   98.118800
  H    -45.732500   48.783500   98.124000
  H    -46.595300   50.075700   97.602000
  C    -44.565400   50.373800   97.275900
  H    -43.591600   50.023100   97.514000
  H    -44.737200   50.196700   96.206300
  H    -44.521800   51.476800   97.406900
  S    -47.598300   55.561200   97.768400
  C    -47.126500   56.776500   96.606200
  C    -45.723600   56.921200   96.710600
  C    -45.043400   56.011400   97.610900
  C    -45.961200   55.178300   98.238000
  H    -45.184000   57.664900   96.158900
  C    -43.528300   56.075400   97.837600
  H    -43.068800   55.824900   96.912700
  H    -43.415600   55.262200   98.547600
  C    -42.974300   57.400400   98.465400
  H    -43.379500   58.151500   97.745300
  H    -41.907000   57.426800   98.392100
  C    -43.478000   57.758600   99.827500
  H    -44.464000   58.199800   99.807400
  H    -42.754900   58.506400  100.292000
  H    -43.401800   56.823300  100.407000
  H    -44.348300   52.010900  101.673000
  H    -47.731000   57.418100   96.049700

 Total Charge           Charge          ....    0
 Multiplicity           Mult            ....    1
 Number of Electrons    NEL             ....  134
 Basis Dimension        Dim             ....  322

ORBITAL ENERGIES
----------------

  NO   OCC          E(Eh)            E(eV)
   0   2.0000     -88.966272     -2420.8953
   1   2.0000     -88.965907     -2420.8854
   2   2.0000     -10.328723      -281.0588
   3   2.0000     -10.324279      -280.9379
   4   2.0000     -10.318222      -280.7731
   5   2.0000     -10.315580      -280.7012
   6   2.0000     -10.304143      -280.3900
   7   2.0000     -10.302564      -280.3470
   8   2.0000     -10.299674      -280.2684
   9   2.0000     -10.295640      -280.1586
  10   2.0000     -10.288045      -279.9519
  11   2.0000     -10.287664      -279.9416
  12   2.0000     -10.284500      -279.8555
  13   2.0000     -10.284447      -279.8540
  14   2.0000     -10.276167      -279.6287
  15   2.0000     -10.271732      -279.5080
  16   2.0000      -8.081223      -219.9013
  17   2.0000      -8.080477      -219.8809
  18   2.0000      -6.039585      -164.3455
  19   2.0000      -6.039006      -164.3297
  20   2.0000      -6.035500      -164.2343
  21   2.0000      -6.034872      -164.2172
  22   2.0000      -6.032316      -164.1477
  23   2.0000      -6.031352      -164.1214
  24   2.0000      -1.012701       -27.5570
  25   2.0000      -0.985369       -26.8132
  26   2.0000      -0.910468       -24.7751
  27   2.0000      -0.906656       -24.6714
  28   2.0000      -0.872182       -23.7333
  29   2.0000      -0.851478       -23.1699
  30   2.0000      -0.846196       -23.0262
  31   2.0000      -0.820013       -22.3137
  32   2.0000      -0.781535       -21.2667
  33   2.0000      -0.768838       -20.9211
  34   2.0000      -0.710787       -19.3415
  35   2.0000      -0.700511       -19.0619
  36   2.0000      -0.691813       -18.8252
  37   2.0000      -0.666057       -18.1243
  38   2.0000      -0.644494       -17.5376
  39   2.0000      -0.625006       -17.0073
  40   2.0000      -0.591775       -16.1030
  41   2.0000      -0.566941       -15.4272
  42   2.0000      -0.554299       -15.0832
  43   2.0000      -0.552919       -15.0457
  44   2.0000      -0.549095       -14.9416
  45   2.0000      -0.531866       -14.4728
  46   2.0000      -0.528609       -14.3842
  47   2.0000      -0.522925       -14.2295
  48   2.0000      -0.507674       -13.8145
  49   2.0000      -0.493909       -13.4400
  50   2.0000      -0.489548       -13.3213
  51   2.0000      -0.474963       -12.9244
  52   2.0000      -0.471982       -12.8433
  53   2.0000      -0.468159       -12.7393
  54   2.0000      -0.457436       -12.4475
  55   2.0000      -0.446529       -12.1507
  56   2.0000      -0.442140       -12.0312
  57   2.0000      -0.438820       -11.9409
  58   2.0000      -0.436230       -11.8704
  59   2.0000      -0.429054       -11.6751
  60   2.0000      -0.415929       -11.3180
  61   2.0000      -0.404389       -11.0040
  62   2.0000      -0.399246       -10.8640
  63   2.0000      -0.351279        -9.5588
  64   2.0000      -0.328883        -8.9494
  65   2.0000      -0.323510        -8.8032
  66   2.0000      -0.295816        -8.0496
  67   0.0000       0.033474         0.9109
  68   0.0000       0.069150         1.8817
  69   0.0000       0.113979         3.1015
  70   0.0000       0.114997         3.1292
  71   0.0000       0.134205         3.6519

MULLIKEN ATOMIC CHARGES
-----------------------
   0 S :    0.106356
   1 C :   -0.097494
   2 C :   -0.141611
   3 C :    0.056255
   4 C :   -0.124950
   5 H :    0.000309
   6 C :    0.082949
   7 H :    0.046703
   8 H :    0.031168
   9 C :   -0.093406
  10 H :    0.027448
  11 H :    0.015354
  12 C :   -0.039611
  13 H :    0.026552
  14 H :    0.034289
  15 H :    0.036361
  16 S :    0.107747
  17 C :   -0.063102
  18 C :   -0.050698
  19 C :   -0.056239
  20 C :   -0.178692
  21 H :    0.013383
  22 C :    0.100059
  23 H :    0.028642
  24 H :    0.010000
  25 C :   -0.072902
  26 H :    0.019153
  27 H :    0.030761
  28 C :   -0.054955
  29 H :    0.050558
  30 H :    0.040652
  31 H :    0.034438
  32 H :    0.034737
  33 H :    0.039789
Sum of atomic charges:    0.0000000

LOEWDIN ATOMIC CHARGES
----------------------
   0 S :    0.438838
   1 C :   -0.200160
   2 C :   -0.063485
   3 C :   -0.061861
   4 C :   -0.196768
   5 H :    0.028052
   6 C :   -0.035999
   7 H :    0.035954
   8 H :    0.040464
   9 C :   -0.042409
  10 H :    0.031208
  11 H :    0.012880
  12 C :   -0.067814
  13 H :    0.019469
  14 H :    0.030426
  15 H :    0.030161
  16 S :    0.415089
  17 C :   -0.184565
  18 C :   -0.066885
  19 C :   -0.059871
  20 C :   -0.198389
  21 H :    0.022665
  22 C :   -0.027846
  23 H :    0.029196
  24 H :    0.015097
  25 C :   -0.041365
  26 H :    0.023093
  27 H :    0.021634
  28 C :   -0.069503
  29 H :    0.028468
  30 H :    0.036308
  31 H :    0.022002
  32 H :    0.015652
  33 H :    0.020262

  Mayer bond orders larger than 0.100000
B(  0-S ,  1-C ) :   1.1605 B(  0-S ,  4-C ) :   1.1610 B(  1-C ,  2-C ) :   1.5419
B(  1-C , 32-H ) :   0.9849 B(  2-C ,  3-C ) :   1.2631 B(  2-C ,  6-C ) :   1.0397
B(  3-C ,  4-C ) :   1.5735 B(  3-C ,  5-H ) :   0.9974 B(  4-C , 20-C ) :   0.9868
B(  6-C ,  7-H ) :   0.9390 B(  6-C ,  8-H ) :   0.9428 B(  6-C ,  9-C ) :   1.0432
B(  9-C , 10-H ) :   0.9528 B(  9-C , 11-H ) :   0.9533 B(  9-C , 12-C ) :   1.0847
B( 12-C , 13-H ) :   0.9757 B( 12-C , 14-H ) :   0.9710 B( 12-C , 15-H ) :   0.9658
B( 16-S , 17-C ) :   1.1497 B( 16-S , 20-C ) :   1.1611 B( 17-C , 18-C ) :   1.5873
B( 17-C , 20-C ) :   0.1012 B( 17-C , 33-H ) :   0.9796 B( 18-C , 19-C ) :   1.2474
B( 18-C , 21-H ) :   0.9857 B( 19-C , 20-C ) :   1.5828 B( 19-C , 22-C ) :   1.0300
B( 22-C , 23-H ) :   0.9308 B( 22-C , 24-H ) :   0.9298 B( 22-C , 25-C ) :   1.0665
B( 25-C , 26-H ) :   0.9558 B( 25-C , 27-H ) :   0.9581 B( 25-C , 28-C ) :   1.0730
B( 28-C , 29-H ) :   0.9736 B( 28-C , 30-H ) :   0.9712 B( 28-C , 31-H ) :   0.9739

Dispersion correction           -0.015448409
FINAL SINGLE POINT ENERGY     -1339.864769858537

DIPOLE MOMENT
-------------
                                X             Y             Z
Electronic contribution:    -12.76163       6.44626       4.19351
Nuclear contribution   :     13.01162      -6.63767      -4.38801
                        -----------------------------------------
Total Dipole Moment    :      0.25000      -0.19142      -0.19449
                        -----------------------------------------
Magnitude (a.u.)       :      0.37009
Magnitude (Debye)      :      0.94069

Rotational constants in cm-1:     0.020002     0.009246     0.007839
Rotational constants in MHz :   599.642899   277.201923   235.014026

                             ****ORCA TERMINATED NORMALLY****
TOTAL RUN TIME: 0 days 0 hours 0 minutes 31 seconds 629 msec
