                         Program Version 4.2.1 -  RELEASE  -
|  1> ! wB97X-D3 SP def2-SVP
|  2> %pal
|  3> nprocs 16
|  4> end
|  5>
|  6> * xyz 0 1
|  7> S 	 10.3609 	 -11.2621 	 93.1027
|  8> C 	 10.564 	 -11.499 	 91.4154
|  9> C 	 9.59893 	 -10.9327 	 90.6452
| 10> C 	 8.67384 	 -10.2714 	 91.4807
| 11> C 	 8.85765 	 -10.4544 	 92.8348
| 12> H 	 7.71377 	 -9.88368 	 91.0435
| 13> C 	 9.39871 	 -11.1386 	 89.1856
| 14> H 	 10.3657 	 -11.2494 	 88.7244
| 15> H 	 8.93264 	 -10.3534 	 88.6289
| 16> C 	 8.47173 	 -12.2965 	 88.7892
| 17> H 	 8.61772 	 -12.564 	 87.8
| 18> H 	 8.79739 	 -13.1191 	 89.3993
| 19> C 	 6.9947 	 -12.1343 	 89.0868
| 20> H 	 6.79806 	 -11.9574 	 90.1509
| 21> H 	 6.46315 	 -11.3717 	 88.5482
| 22> H 	 6.50247 	 -13.0719 	 88.8654
| 23> S 	 6.96068 	 -8.72572 	 93.865
| 24> C 	 6.42552 	 -9.043 	 95.5241
| 25> C 	 6.69777 	 -10.3741 	 95.8738
| 26> C 	 7.49011 	 -11.0857 	 94.8429
| 27> C 	 7.83049 	 -10.2268 	 93.8239
| 28> H 	 6.23879 	 -10.8599 	 96.6951
| 29> C 	 7.78435 	 -12.533 	 95.0291
| 30> H 	 7.38713 	 -13.0117 	 95.8932
| 31> H 	 8.78926 	 -12.7073 	 95.3509
| 32> C 	 7.5684 	 -13.4959 	 93.8497
| 33> H 	 7.94307 	 -13.1109 	 92.881
| 34> H 	 6.50682 	 -13.4854 	 93.6678
| 35> C 	 8.09183 	 -14.9394 	 94.0992
| 36> H 	 9.19157 	 -14.905 	 94.3236
| 37> H 	 7.84985 	 -15.5481 	 93.2671
| 38> H 	 7.58608 	 -15.3752 	 95.0111
| 39> H 	 11.3228 	 -12.1806 	 91.0465
| 40> H 	 5.90579 	 -8.34195 	 96.0292
| 41> *
| 42>
| 43>                          ****END OF INPUT****

CARTESIAN COORDINATES (ANGSTROEM)
---------------------------------
  S     10.360900  -11.262100   93.102700
  C     10.564000  -11.499000   91.415400
  C      9.598930  -10.932700   90.645200
  C      8.673840  -10.271400   91.480700
  C      8.857650  -10.454400   92.834800
  H      7.713770   -9.883680   91.043500
  C      9.398710  -11.138600   89.185600
  H     10.365700  -11.249400   88.724400
  H      8.932640  -10.353400   88.628900
  C      8.471730  -12.296500   88.789200
  H      8.617720  -12.564000   87.800000
  H      8.797390  -13.119100   89.399300
  C      6.994700  -12.134300   89.086800
  H      6.798060  -11.957400   90.150900
  H      6.463150  -11.371700   88.548200
  H      6.502470  -13.071900   88.865400
  S      6.960680   -8.725720   93.865000
  C      6.425520   -9.043000   95.524100
  C      6.697770  -10.374100   95.873800
  C      7.490110  -11.085700   94.842900
  C      7.830490  -10.226800   93.823900
  H      6.238790  -10.859900   96.695100
  C      7.784350  -12.533000   95.029100
  H      7.387130  -13.011700   95.893200
  H      8.789260  -12.707300   95.350900
  C      7.568400  -13.495900   93.849700
  H      7.943070  -13.110900   92.881000
  H      6.506820  -13.485400   93.667800
  C      8.091830  -14.939400   94.099200
  H      9.191570  -14.905000   94.323600
  H      7.849850  -15.548100   93.267100
  H      7.586080  -15.375200   95.011100
  H     11.322800  -12.180600   91.046500
  H      5.905790   -8.341950   96.029200

 Total Charge           Charge          ....    0
 Multiplicity           Mult            ....    1
 Number of Electrons    NEL             ....  134
 Basis Dimension        Dim             ....  322

ORBITAL ENERGIES
----------------

  NO   OCC          E(Eh)            E(eV)
   0   2.0000     -88.968716     -2420.9618
   1   2.0000     -88.963673     -2420.8246
   2   2.0000     -10.323860      -280.9265
   3   2.0000     -10.323555      -280.9182
   4   2.0000     -10.316161      -280.7170
   5   2.0000     -10.308918      -280.5199
   6   2.0000     -10.304839      -280.4089
   7   2.0000     -10.298577      -280.2385
   8   2.0000     -10.295567      -280.1566
   9   2.0000     -10.291351      -280.0419
  10   2.0000     -10.285825      -279.8915
  11   2.0000     -10.283792      -279.8362
  12   2.0000     -10.283561      -279.8299
  13   2.0000     -10.282284      -279.7952
  14   2.0000     -10.277920      -279.6764
  15   2.0000     -10.273504      -279.5563
  16   2.0000      -8.084016      -219.9773
  17   2.0000      -8.078648      -219.8312
  18   2.0000      -6.042412      -164.4224
  19   2.0000      -6.038477      -164.3153
  20   2.0000      -6.037263      -164.2823
  21   2.0000      -6.034832      -164.2161
  22   2.0000      -6.033280      -164.1739
  23   2.0000      -6.029136      -164.0611
  24   2.0000      -1.013726       -27.5849
  25   2.0000      -0.985776       -26.8243
  26   2.0000      -0.918789       -25.0015
  27   2.0000      -0.907258       -24.6877
  28   2.0000      -0.871681       -23.7196
  29   2.0000      -0.853293       -23.2193
  30   2.0000      -0.845811       -23.0157
  31   2.0000      -0.813721       -22.1425
  32   2.0000      -0.788941       -21.4682
  33   2.0000      -0.775772       -21.1098
  34   2.0000      -0.708397       -19.2765
  35   2.0000      -0.704324       -19.1656
  36   2.0000      -0.693344       -18.8669
  37   2.0000      -0.674409       -18.3516
  38   2.0000      -0.639990       -17.4150
  39   2.0000      -0.619372       -16.8540
  40   2.0000      -0.606222       -16.4961
  41   2.0000      -0.580184       -15.7876
  42   2.0000      -0.555684       -15.1209
  43   2.0000      -0.552875       -15.0445
  44   2.0000      -0.544834       -14.8257
  45   2.0000      -0.525265       -14.2932
  46   2.0000      -0.520406       -14.1610
  47   2.0000      -0.510560       -13.8930
  48   2.0000      -0.505712       -13.7611
  49   2.0000      -0.497545       -13.5389
  50   2.0000      -0.493439       -13.4272
  51   2.0000      -0.481113       -13.0918
  52   2.0000      -0.476477       -12.9656
  53   2.0000      -0.468895       -12.7593
  54   2.0000      -0.453428       -12.3384
  55   2.0000      -0.447090       -12.1659
  56   2.0000      -0.441760       -12.0209
  57   2.0000      -0.436119       -11.8674
  58   2.0000      -0.435119       -11.8402
  59   2.0000      -0.430669       -11.7191
  60   2.0000      -0.426791       -11.6136
  61   2.0000      -0.414567       -11.2809
  62   2.0000      -0.406218       -11.0538
  63   2.0000      -0.351480        -9.5642
  64   2.0000      -0.332979        -9.0608
  65   2.0000      -0.324167        -8.8210
  66   2.0000      -0.286043        -7.7836
  67   0.0000       0.023206         0.6315
  68   0.0000       0.074352         2.0232
  69   0.0000       0.101344         2.7577
  70   0.0000       0.120098         3.2680
  71   0.0000       0.132785         3.6133

MULLIKEN ATOMIC CHARGES
-----------------------
   0 S :    0.132538
   1 C :   -0.145453
   2 C :   -0.066419
   3 C :   -0.004088
   4 C :   -0.146654
   5 H :    0.027896
   6 C :    0.083612
   7 H :    0.017457
   8 H :    0.011963
   9 C :   -0.024500
  10 H :    0.015731
  11 H :    0.008203
  12 C :   -0.058308
  13 H :    0.036208
  14 H :    0.024235
  15 H :    0.028532
  16 S :    0.103168
  17 C :   -0.059765
  18 C :   -0.001447
  19 C :   -0.041467
  20 C :   -0.137268
  21 H :    0.012697
  22 C :    0.098783
  23 H :   -0.009455
  24 H :    0.005134
  25 C :   -0.091508
  26 H :    0.038988
  27 H :    0.021227
  28 C :   -0.060331
  29 H :    0.043102
  30 H :    0.037163
  31 H :    0.033381
  32 H :    0.046054
  33 H :    0.020593
Sum of atomic charges:   -0.0000000

LOEWDIN ATOMIC CHARGES
----------------------
   0 S :    0.440784
   1 C :   -0.203267
   2 C :   -0.067138
   3 C :   -0.067802
   4 C :   -0.202381
   5 H :    0.033940
   6 C :   -0.030582
   7 H :    0.030899
   8 H :    0.027946
   9 C :   -0.028794
  10 H :    0.015945
  11 H :    0.020880
  12 C :   -0.065784
  13 H :    0.027324
  14 H :    0.018734
  15 H :    0.029124
  16 S :    0.399430
  17 C :   -0.155362
  18 C :   -0.053209
  19 C :   -0.053948
  20 C :   -0.198362
  21 H :    0.024650
  22 C :   -0.046317
  23 H :    0.028801
  24 H :    0.026362
  25 C :   -0.041193
  26 H :    0.023726
  27 H :    0.018989
  28 C :   -0.064577
  29 H :    0.030535
  30 H :    0.022757
  31 H :    0.028497
  32 H :    0.026021
  33 H :    0.003370

  Mayer bond orders larger than 0.100000
B(  0-S ,  1-C ) :   1.1519 B(  0-S ,  4-C ) :   1.1614 B(  1-C ,  2-C ) :   1.5996
B(  1-C , 32-H ) :   0.9627 B(  2-C ,  3-C ) :   1.2845 B(  2-C ,  6-C ) :   1.0456
B(  3-C ,  4-C ) :   1.5343 B(  3-C ,  5-H ) :   0.9783 B(  4-C , 20-C ) :   1.0538
B(  6-C ,  7-H ) :   0.9314 B(  6-C ,  8-H ) :   0.9385 B(  6-C ,  9-C ) :   1.0672
B(  9-C , 10-H ) :   0.9544 B(  9-C , 11-H ) :   0.9491 B(  9-C , 12-C ) :   1.0904
B( 12-C , 13-H ) :   0.9690 B( 12-C , 14-H ) :   0.9743 B( 12-C , 15-H ) :   0.9687
B( 16-S , 17-C ) :   1.1426 B( 16-S , 20-C ) :   1.1266 B( 17-C , 18-C ) :   1.6032
B( 17-C , 33-H ) :   0.9892 B( 18-C , 19-C ) :   1.2154 B( 18-C , 21-H ) :   0.9940
B( 19-C , 20-C ) :   1.5884 B( 19-C , 22-C ) :   1.0494 B( 22-C , 23-H ) :   0.9245
B( 22-C , 24-H ) :   0.9163 B( 22-C , 25-C ) :   1.0455 B( 25-C , 26-H ) :   0.9561
B( 25-C , 27-H ) :   0.9554 B( 25-C , 28-C ) :   1.0809 B( 28-C , 29-H ) :   0.9745
B( 28-C , 30-H ) :   0.9738 B( 28-C , 31-H ) :   0.9745

Dispersion correction           -0.015983017
FINAL SINGLE POINT ENERGY     -1339.865472052740

DIPOLE MOMENT
-------------
                                X             Y             Z
Electronic contribution:      5.56392      20.48599      11.95715
Nuclear contribution   :     -5.80873     -21.05255     -12.17114
                        -----------------------------------------
Total Dipole Moment    :     -0.24482      -0.56656      -0.21398
                        -----------------------------------------
Magnitude (a.u.)       :      0.65324
Magnitude (Debye)      :      1.66039

Rotational constants in cm-1:     0.017741     0.010113     0.008626
Rotational constants in MHz :   531.867082   303.184565   258.600624

                             ****ORCA TERMINATED NORMALLY****
TOTAL RUN TIME: 0 days 0 hours 0 minutes 37 seconds 149 msec
