                         Program Version 4.2.1 -  RELEASE  -
|  1> ! wB97X-D3 SP def2-SVP
|  2> %pal
|  3> nprocs 16
|  4> end
|  5>
|  6> * xyz 0 1
|  7> S 	 -6.41858 	 9.44026 	 84.4483
|  8> C 	 -6.36467 	 8.15862 	 85.6502
|  9> C 	 -7.58912 	 7.60936 	 85.811
| 10> C 	 -8.63202 	 8.17116 	 84.99
| 11> C 	 -8.14003 	 9.10475 	 84.1283
| 12> H 	 -9.70428 	 7.93475 	 84.9735
| 13> C 	 -7.96212 	 6.43489 	 86.7852
| 14> H 	 -8.97584 	 6.64849 	 87.1471
| 15> H 	 -7.34984 	 6.49226 	 87.7422
| 16> C 	 -7.79064 	 5.04333 	 86.262
| 17> H 	 -8.4984 	 4.78859 	 85.4064
| 18> H 	 -6.78819 	 5.05959 	 85.7108
| 19> C 	 -7.83594 	 3.93586 	 87.3127
| 20> H 	 -7.95331 	 2.87469 	 86.9841
| 21> H 	 -6.89185 	 3.86699 	 87.8831
| 22> H 	 -8.64912 	 4.22673 	 87.9606
| 23> S 	 -9.2939 	 11.5107 	 83.3607
| 24> C 	 -10.8558 	 11.5675 	 82.4892
| 25> C 	 -11.0632 	 10.2943 	 82.1074
| 26> C 	 -10.0462 	 9.30383 	 82.4352
| 27> C 	 -9.0821 	 9.83319 	 83.2512
| 28> H 	 -11.9074 	 10.1082 	 81.5097
| 29> C 	 -10.1227 	 7.85076 	 82.0096
| 30> H 	 -10.9813 	 7.39001 	 82.4256
| 31> H 	 -9.27172 	 7.34918 	 82.5109
| 32> C 	 -10.152 	 7.48627 	 80.5096
| 33> H 	 -10.8972 	 7.99401 	 79.9371
| 34> H 	 -10.3432 	 6.43605 	 80.3854
| 35> C 	 -8.90055 	 7.67101 	 79.7826
| 36> H 	 -9.10983 	 7.29991 	 78.7866
| 37> H 	 -7.96402 	 7.20852 	 80.1397
| 38> H 	 -8.77236 	 8.71488 	 79.6888
| 39> H 	 -5.55527 	 7.9542 	 86.3086
| 40> H 	 -11.385 	 12.4755 	 82.295
| 41> *
| 42>
| 43>                          ****END OF INPUT****

CARTESIAN COORDINATES (ANGSTROEM)
---------------------------------
  S     -6.418580    9.440260   84.448300
  C     -6.364670    8.158620   85.650200
  C     -7.589120    7.609360   85.811000
  C     -8.632020    8.171160   84.990000
  C     -8.140030    9.104750   84.128300
  H     -9.704280    7.934750   84.973500
  C     -7.962120    6.434890   86.785200
  H     -8.975840    6.648490   87.147100
  H     -7.349840    6.492260   87.742200
  C     -7.790640    5.043330   86.262000
  H     -8.498400    4.788590   85.406400
  H     -6.788190    5.059590   85.710800
  C     -7.835940    3.935860   87.312700
  H     -7.953310    2.874690   86.984100
  H     -6.891850    3.866990   87.883100
  H     -8.649120    4.226730   87.960600
  S     -9.293900   11.510700   83.360700
  C    -10.855800   11.567500   82.489200
  C    -11.063200   10.294300   82.107400
  C    -10.046200    9.303830   82.435200
  C     -9.082100    9.833190   83.251200
  H    -11.907400   10.108200   81.509700
  C    -10.122700    7.850760   82.009600
  H    -10.981300    7.390010   82.425600
  H     -9.271720    7.349180   82.510900
  C    -10.152000    7.486270   80.509600
  H    -10.897200    7.994010   79.937100
  H    -10.343200    6.436050   80.385400
  C     -8.900550    7.671010   79.782600
  H     -9.109830    7.299910   78.786600
  H     -7.964020    7.208520   80.139700
  H     -8.772360    8.714880   79.688800
  H     -5.555270    7.954200   86.308600
  H    -11.385000   12.475500   82.295000

 Total Charge           Charge          ....    0
 Multiplicity           Mult            ....    1
 Number of Electrons    NEL             ....  134
 Basis Dimension        Dim             ....  322

ORBITAL ENERGIES
----------------

  NO   OCC          E(Eh)            E(eV)
   0   2.0000     -88.969966     -2420.9959
   1   2.0000     -88.955819     -2420.6109
   2   2.0000     -10.334266      -281.2097
   3   2.0000     -10.325097      -280.9602
   4   2.0000     -10.318888      -280.7912
   5   2.0000     -10.315224      -280.6915
   6   2.0000     -10.304865      -280.4096
   7   2.0000     -10.301613      -280.3211
   8   2.0000     -10.299999      -280.2772
   9   2.0000     -10.297407      -280.2067
  10   2.0000     -10.294294      -280.1220
  11   2.0000     -10.291137      -280.0361
  12   2.0000     -10.286374      -279.9065
  13   2.0000     -10.283621      -279.8316
  14   2.0000     -10.275606      -279.6135
  15   2.0000     -10.261532      -279.2305
  16   2.0000      -8.083984      -219.9764
  17   2.0000      -8.071797      -219.6448
  18   2.0000      -6.042689      -164.4299
  19   2.0000      -6.038644      -164.3199
  20   2.0000      -6.034515      -164.2075
  21   2.0000      -6.030395      -164.0954
  22   2.0000      -6.026016      -163.9762
  23   2.0000      -6.022447      -163.8791
  24   2.0000      -1.011272       -27.5181
  25   2.0000      -0.988320       -26.8936
  26   2.0000      -0.913449       -24.8562
  27   2.0000      -0.909868       -24.7588
  28   2.0000      -0.878751       -23.9120
  29   2.0000      -0.852656       -23.2020
  30   2.0000      -0.845204       -22.9992
  31   2.0000      -0.823756       -22.4155
  32   2.0000      -0.780017       -21.2253
  33   2.0000      -0.775123       -21.0922
  34   2.0000      -0.706642       -19.2287
  35   2.0000      -0.696048       -18.9404
  36   2.0000      -0.691905       -18.8277
  37   2.0000      -0.659697       -17.9513
  38   2.0000      -0.645115       -17.5545
  39   2.0000      -0.618098       -16.8193
  40   2.0000      -0.600653       -16.3446
  41   2.0000      -0.573952       -15.6180
  42   2.0000      -0.558180       -15.1889
  43   2.0000      -0.555115       -15.1055
  44   2.0000      -0.546991       -14.8844
  45   2.0000      -0.534012       -14.5312
  46   2.0000      -0.525267       -14.2932
  47   2.0000      -0.515417       -14.0252
  48   2.0000      -0.510275       -13.8853
  49   2.0000      -0.500439       -13.6176
  50   2.0000      -0.492037       -13.3890
  51   2.0000      -0.483591       -13.1592
  52   2.0000      -0.475000       -12.9254
  53   2.0000      -0.465020       -12.6538
  54   2.0000      -0.460435       -12.5291
  55   2.0000      -0.446146       -12.1403
  56   2.0000      -0.435790       -11.8585
  57   2.0000      -0.433020       -11.7831
  58   2.0000      -0.428222       -11.6525
  59   2.0000      -0.421424       -11.4675
  60   2.0000      -0.419794       -11.4232
  61   2.0000      -0.405233       -11.0269
  62   2.0000      -0.404355       -11.0030
  63   2.0000      -0.354248        -9.6396
  64   2.0000      -0.334307        -9.0970
  65   2.0000      -0.322162        -8.7665
  66   2.0000      -0.304151        -8.2764
  67   0.0000       0.032818         0.8930
  68   0.0000       0.073944         2.0121
  69   0.0000       0.111629         3.0376
  70   0.0000       0.126218         3.4346
  71   0.0000       0.132865         3.6154

MULLIKEN ATOMIC CHARGES
-----------------------
   0 S :    0.108863
   1 C :   -0.098838
   2 C :   -0.077035
   3 C :    0.014345
   4 C :   -0.144572
   5 H :    0.039119
   6 C :    0.036773
   7 H :    0.024341
   8 H :    0.026144
   9 C :   -0.089514
  10 H :    0.035040
  11 H :    0.031779
  12 C :   -0.051996
  13 H :    0.043565
  14 H :    0.035357
  15 H :    0.032517
  16 S :    0.074169
  17 C :   -0.090080
  18 C :   -0.005917
  19 C :   -0.068389
  20 C :   -0.125815
  21 H :    0.001461
  22 C :    0.073753
  23 H :    0.018526
  24 H :    0.031004
  25 C :   -0.047738
  26 H :    0.015642
  27 H :    0.014784
  28 C :   -0.033219
  29 H :    0.019054
  30 H :    0.036570
  31 H :    0.019630
  32 H :    0.040703
  33 H :    0.059974
Sum of atomic charges:   -0.0000000

LOEWDIN ATOMIC CHARGES
----------------------
   0 S :    0.386942
   1 C :   -0.184285
   2 C :   -0.061421
   3 C :   -0.054217
   4 C :   -0.179931
   5 H :    0.041807
   6 C :   -0.037607
   7 H :    0.026391
   8 H :    0.033513
   9 C :   -0.058573
  10 H :    0.027962
  11 H :    0.029092
  12 C :   -0.072706
  13 H :    0.033456
  14 H :    0.028074
  15 H :    0.024528
  16 S :    0.397844
  17 C :   -0.164126
  18 C :   -0.066430
  19 C :   -0.067200
  20 C :   -0.207116
  21 H :    0.021362
  22 C :   -0.034365
  23 H :    0.025126
  24 H :    0.035531
  25 C :   -0.038989
  26 H :    0.021713
  27 H :    0.023310
  28 C :   -0.061707
  29 H :    0.026003
  30 H :    0.026792
  31 H :    0.018819
  32 H :    0.028491
  33 H :    0.031920

  Mayer bond orders larger than 0.100000
B(  0-S ,  1-C ) :   1.1144 B(  0-S ,  4-C ) :   1.1305 B(  1-C ,  2-C ) :   1.6621
B(  1-C , 32-H ) :   0.9702 B(  2-C ,  3-C ) :   1.2098 B(  2-C ,  6-C ) :   1.0145
B(  3-C ,  4-C ) :   1.5984 B(  3-C ,  5-H ) :   0.9910 B(  4-C , 20-C ) :   1.0190
B(  6-C ,  7-H ) :   0.9361 B(  6-C ,  8-H ) :   0.9455 B(  6-C ,  9-C ) :   1.0602
B(  9-C , 10-H ) :   0.9529 B(  9-C , 11-H ) :   0.9551 B(  9-C , 12-C ) :   1.0685
B( 12-C , 13-H ) :   0.9752 B( 12-C , 14-H ) :   0.9741 B( 12-C , 15-H ) :   0.9752
B( 16-S , 17-C ) :   1.1308 B( 16-S , 20-C ) :   1.1522 B( 17-C , 18-C ) :   1.6102
B( 17-C , 33-H ) :   0.9814 B( 18-C , 19-C ) :   1.2207 B( 18-C , 21-H ) :   0.9995
B( 19-C , 20-C ) :   1.5927 B( 19-C , 22-C ) :   1.0435 B( 22-C , 23-H ) :   0.9307
B( 22-C , 24-H ) :   0.9312 B( 22-C , 25-C ) :   1.0764 B( 25-C , 26-H ) :   0.9530
B( 25-C , 27-H ) :   0.9523 B( 25-C , 28-C ) :   1.0915 B( 28-C , 29-H ) :   0.9688
B( 28-C , 30-H ) :   0.9726 B( 28-C , 31-H ) :   0.9753

Dispersion correction           -0.014043370
FINAL SINGLE POINT ENERGY     -1339.867396670723

DIPOLE MOMENT
-------------
                                X             Y             Z
Electronic contribution:      4.86257      27.30689       1.31020
Nuclear contribution   :     -5.30367     -27.87850      -1.24449
                        -----------------------------------------
Total Dipole Moment    :     -0.44110      -0.57161       0.06571
                        -----------------------------------------
Magnitude (a.u.)       :      0.72500
Magnitude (Debye)      :      1.84280

Rotational constants in cm-1:     0.018568     0.008128     0.006785
Rotational constants in MHz :   556.667479   243.661645   203.397977

                             ****ORCA TERMINATED NORMALLY****
TOTAL RUN TIME: 0 days 0 hours 0 minutes 34 seconds 357 msec
