                         Program Version 4.2.1 -  RELEASE  -
|  1> ! wB97X-D3 SP def2-SVP
|  2> %pal
|  3> nprocs 16
|  4> end
|  5>
|  6> * xyz 0 1
|  7> S 	 -4.97773 	 75.0609 	 58.4834
|  8> C 	 -5.70163 	 73.5652 	 59.1097
|  9> C 	 -6.00553 	 72.6678 	 58.0651
| 10> C 	 -5.73571 	 73.3021 	 56.8022
| 11> C 	 -5.45334 	 74.6584 	 56.9337
| 12> H 	 -5.82817 	 72.905 	 55.8794
| 13> C 	 -6.30304 	 71.216 	 58.1863
| 14> H 	 -6.57626 	 70.7382 	 57.2384
| 15> H 	 -7.181 	 71.229 	 58.7717
| 16> C 	 -5.30086 	 70.3937 	 58.9509
| 17> H 	 -4.28741 	 70.601 	 58.6364
| 18> H 	 -5.2712 	 70.735 	 60.0317
| 19> C 	 -5.53948 	 68.8771 	 58.8644
| 20> H 	 -4.75244 	 68.3585 	 59.326
| 21> H 	 -6.3652 	 68.5946 	 59.549
| 22> H 	 -5.70832 	 68.388 	 57.8634
| 23> S 	 -6.69846 	 76.4003 	 55.2028
| 24> C 	 -5.66662 	 77.3303 	 54.1636
| 25> C 	 -4.36194 	 76.9277 	 54.2737
| 26> C 	 -4.07825 	 75.9617 	 55.2303
| 27> C 	 -5.29166 	 75.5671 	 55.8348
| 28> H 	 -3.63452 	 77.5028 	 53.7146
| 29> C 	 -2.6591 	 75.4192 	 55.4231
| 30> H 	 -2.41478 	 75.6871 	 56.4831
| 31> H 	 -1.90463 	 76.0203 	 54.8751
| 32> C 	 -2.40176 	 73.9601 	 55.1221
| 33> H 	 -3.06803 	 73.3566 	 55.757
| 34> H 	 -1.33334 	 73.7503 	 55.4234
| 35> C 	 -2.5664 	 73.6933 	 53.6267
| 36> H 	 -2.16158 	 74.5254 	 53.0223
| 37> H 	 -3.62202 	 73.7135 	 53.3081
| 38> H 	 -2.27435 	 72.6777 	 53.4242
| 39> H 	 -5.80917 	 73.4049 	 60.1687
| 40> H 	 -6.11804 	 78.0614 	 53.5033
| 41> *
| 42>
| 43>                          ****END OF INPUT****

CARTESIAN COORDINATES (ANGSTROEM)
---------------------------------
  S     -4.977730   75.060900   58.483400
  C     -5.701630   73.565200   59.109700
  C     -6.005530   72.667800   58.065100
  C     -5.735710   73.302100   56.802200
  C     -5.453340   74.658400   56.933700
  H     -5.828170   72.905000   55.879400
  C     -6.303040   71.216000   58.186300
  H     -6.576260   70.738200   57.238400
  H     -7.181000   71.229000   58.771700
  C     -5.300860   70.393700   58.950900
  H     -4.287410   70.601000   58.636400
  H     -5.271200   70.735000   60.031700
  C     -5.539480   68.877100   58.864400
  H     -4.752440   68.358500   59.326000
  H     -6.365200   68.594600   59.549000
  H     -5.708320   68.388000   57.863400
  S     -6.698460   76.400300   55.202800
  C     -5.666620   77.330300   54.163600
  C     -4.361940   76.927700   54.273700
  C     -4.078250   75.961700   55.230300
  C     -5.291660   75.567100   55.834800
  H     -3.634520   77.502800   53.714600
  C     -2.659100   75.419200   55.423100
  H     -2.414780   75.687100   56.483100
  H     -1.904630   76.020300   54.875100
  C     -2.401760   73.960100   55.122100
  H     -3.068030   73.356600   55.757000
  H     -1.333340   73.750300   55.423400
  C     -2.566400   73.693300   53.626700
  H     -2.161580   74.525400   53.022300
  H     -3.622020   73.713500   53.308100
  H     -2.274350   72.677700   53.424200
  H     -5.809170   73.404900   60.168700
  H     -6.118040   78.061400   53.503300

 Total Charge           Charge          ....    0
 Multiplicity           Mult            ....    1
 Number of Electrons    NEL             ....  134
 Basis Dimension        Dim             ....  322

ORBITAL ENERGIES
----------------

  NO   OCC          E(Eh)            E(eV)
   0   2.0000     -88.965489     -2420.8740
   1   2.0000     -88.964866     -2420.8571
   2   2.0000     -10.321219      -280.8546
   3   2.0000     -10.315801      -280.7072
   4   2.0000     -10.313911      -280.6558
   5   2.0000     -10.312224      -280.6099
   6   2.0000     -10.303505      -280.3726
   7   2.0000     -10.301225      -280.3106
   8   2.0000     -10.294980      -280.1406
   9   2.0000     -10.289739      -279.9980
  10   2.0000     -10.286999      -279.9235
  11   2.0000     -10.285805      -279.8910
  12   2.0000     -10.285370      -279.8792
  13   2.0000     -10.282739      -279.8076
  14   2.0000     -10.280579      -279.7488
  15   2.0000     -10.274813      -279.5919
  16   2.0000      -8.080656      -219.8858
  17   2.0000      -8.080548      -219.8829
  18   2.0000      -6.038924      -164.3275
  19   2.0000      -6.038778      -164.3235
  20   2.0000      -6.035153      -164.2249
  21   2.0000      -6.034976      -164.2200
  22   2.0000      -6.031634      -164.1291
  23   2.0000      -6.031480      -164.1249
  24   2.0000      -1.010731       -27.5034
  25   2.0000      -0.985870       -26.8269
  26   2.0000      -0.918785       -25.0014
  27   2.0000      -0.909642       -24.7526
  28   2.0000      -0.866476       -23.5780
  29   2.0000      -0.852209       -23.1898
  30   2.0000      -0.847766       -23.0689
  31   2.0000      -0.809613       -22.0307
  32   2.0000      -0.786619       -21.4050
  33   2.0000      -0.772316       -21.0158
  34   2.0000      -0.706209       -19.2169
  35   2.0000      -0.703746       -19.1499
  36   2.0000      -0.684333       -18.6216
  37   2.0000      -0.658432       -17.9168
  38   2.0000      -0.650214       -17.6932
  39   2.0000      -0.615684       -16.7536
  40   2.0000      -0.594728       -16.1834
  41   2.0000      -0.573586       -15.6081
  42   2.0000      -0.558655       -15.2018
  43   2.0000      -0.555325       -15.1112
  44   2.0000      -0.547725       -14.9043
  45   2.0000      -0.523869       -14.2552
  46   2.0000      -0.520892       -14.1742
  47   2.0000      -0.510928       -13.9031
  48   2.0000      -0.499154       -13.5827
  49   2.0000      -0.493074       -13.4172
  50   2.0000      -0.485173       -13.2022
  51   2.0000      -0.477599       -12.9961
  52   2.0000      -0.476171       -12.9573
  53   2.0000      -0.466243       -12.6871
  54   2.0000      -0.456695       -12.4273
  55   2.0000      -0.449004       -12.2180
  56   2.0000      -0.440596       -11.9892
  57   2.0000      -0.438614       -11.9353
  58   2.0000      -0.435204       -11.8425
  59   2.0000      -0.432439       -11.7673
  60   2.0000      -0.419499       -11.4151
  61   2.0000      -0.413187       -11.2434
  62   2.0000      -0.409354       -11.1391
  63   2.0000      -0.336775        -9.1641
  64   2.0000      -0.326312        -8.8794
  65   2.0000      -0.317609        -8.6426
  66   2.0000      -0.299768        -8.1571
  67   0.0000       0.041732         1.1356
  68   0.0000       0.050876         1.3844
  69   0.0000       0.104439         2.8419
  70   0.0000       0.119781         3.2594
  71   0.0000       0.131608         3.5812

MULLIKEN ATOMIC CHARGES
-----------------------
   0 S :    0.130833
   1 C :   -0.149963
   2 C :   -0.061964
   3 C :    0.071889
   4 C :   -0.177245
   5 H :   -0.034844
   6 C :    0.115952
   7 H :    0.019769
   8 H :    0.017834
   9 C :   -0.088449
  10 H :    0.025529
  11 H :    0.029667
  12 C :   -0.047691
  13 H :    0.018073
  14 H :    0.026927
  15 H :    0.047116
  16 S :    0.125461
  17 C :   -0.109663
  18 C :   -0.031799
  19 C :    0.002577
  20 C :   -0.218826
  21 H :    0.012817
  22 C :    0.057015
  23 H :    0.030337
  24 H :    0.018641
  25 C :   -0.060757
  26 H :    0.040449
  27 H :    0.035716
  28 C :   -0.044961
  29 H :    0.031012
  30 H :    0.031066
  31 H :    0.034021
  32 H :    0.045218
  33 H :    0.058242
Sum of atomic charges:   -0.0000000

LOEWDIN ATOMIC CHARGES
----------------------
   0 S :    0.438783
   1 C :   -0.196633
   2 C :   -0.048291
   3 C :   -0.050272
   4 C :   -0.222965
   5 H :    0.009333
   6 C :   -0.036370
   7 H :    0.031624
   8 H :    0.033169
   9 C :   -0.040821
  10 H :    0.019592
  11 H :    0.030937
  12 C :   -0.072507
  13 H :    0.020425
  14 H :    0.028853
  15 H :    0.032804
  16 S :    0.420943
  17 C :   -0.190927
  18 C :   -0.076388
  19 C :   -0.055085
  20 C :   -0.208452
  21 H :    0.029771
  22 C :   -0.036653
  23 H :    0.034666
  24 H :    0.030286
  25 C :   -0.042357
  26 H :    0.026652
  27 H :    0.030793
  28 C :   -0.070430
  29 H :    0.028726
  30 H :    0.028490
  31 H :    0.024772
  32 H :    0.020163
  33 H :    0.027367

  Mayer bond orders larger than 0.100000
B(  0-S ,  1-C ) :   1.1473 B(  0-S ,  4-C ) :   1.1897 B(  1-C ,  2-C ) :   1.5587
B(  1-C ,  4-C ) :   0.1006 B(  1-C , 32-H ) :   0.9786 B(  2-C ,  3-C ) :   1.2559
B(  2-C ,  6-C ) :   1.0299 B(  3-C ,  4-C ) :   1.5421 B(  3-C ,  5-H ) :   1.0102
B(  4-C , 20-C ) :   1.0304 B(  6-C ,  7-H ) :   0.9459 B(  6-C ,  8-H ) :   0.9161
B(  6-C ,  9-C ) :   1.0653 B(  9-C , 10-H ) :   0.9618 B(  9-C , 11-H ) :   0.9463
B(  9-C , 12-C ) :   1.0847 B( 12-C , 13-H ) :   0.9706 B( 12-C , 14-H ) :   0.9726
B( 12-C , 15-H ) :   0.9750 B( 16-S , 17-C ) :   1.1634 B( 16-S , 20-C ) :   1.1778
B( 17-C , 18-C ) :   1.5819 B( 17-C , 20-C ) :   0.1112 B( 17-C , 33-H ) :   0.9708
B( 18-C , 19-C ) :   1.2734 B( 18-C , 21-H ) :   0.9871 B( 19-C , 20-C ) :   1.5509
B( 19-C , 22-C ) :   1.0269 B( 22-C , 23-H ) :   0.9215 B( 22-C , 24-H ) :   0.9380
B( 22-C , 25-C ) :   1.0826 B( 25-C , 26-H ) :   0.9515 B( 25-C , 27-H ) :   0.9508
B( 25-C , 28-C ) :   1.0686 B( 28-C , 29-H ) :   0.9733 B( 28-C , 30-H ) :   0.9713
B( 28-C , 31-H ) :   0.9731

Dispersion correction           -0.015225115
FINAL SINGLE POINT ENERGY     -1339.866155790262

DIPOLE MOMENT
-------------
                                X             Y             Z
Electronic contribution:    -11.20692      24.08940       1.13569
Nuclear contribution   :     11.46613     -24.50425      -1.18571
                        -----------------------------------------
Total Dipole Moment    :      0.25921      -0.41485      -0.05002
                        -----------------------------------------
Magnitude (a.u.)       :      0.49173
Magnitude (Debye)      :      1.24987

Rotational constants in cm-1:     0.021490     0.008130     0.007022
Rotational constants in MHz :   644.256500   243.742690   210.519086

                             ****ORCA TERMINATED NORMALLY****
TOTAL RUN TIME: 0 days 0 hours 0 minutes 34 seconds 308 msec
