                         Program Version 4.2.1 -  RELEASE  -
|  1> ! wB97X-D3 SP def2-SVP
|  2> %pal
|  3> nprocs 16
|  4> end
|  5>
|  6> * xyz 0 1
|  7> S 	 2.70466 	 -4.79813 	 85.8371
|  8> C 	 1.6158 	 -4.10767 	 87.0159
|  9> C 	 0.527864 	 -4.98871 	 87.2729
| 10> C 	 0.55583 	 -6.10359 	 86.4125
| 11> C 	 1.65354 	 -6.15892 	 85.5501
| 12> H 	 -0.202435 	 -6.92671 	 86.4454
| 13> C 	 -0.719411 	 -4.69639 	 88.0747
| 14> H 	 -1.57739 	 -5.09757 	 87.5176
| 15> H 	 -0.770101 	 -3.61132 	 88.0628
| 16> C 	 -0.744364 	 -5.17049 	 89.5111
| 17> H 	 -0.816506 	 -6.25063 	 89.593
| 18> H 	 0.178029 	 -4.93383 	 89.9613
| 19> C 	 -1.97837 	 -4.60929 	 90.3005
| 20> H 	 -2.94293 	 -5.00716 	 89.9648
| 21> H 	 -1.82496 	 -4.87908 	 91.3206
| 22> H 	 -2.10601 	 -3.53308 	 90.2659
| 23> S 	 0.604755 	 -7.6809 	 83.4079
| 24> C 	 1.51689 	 -9.04583 	 82.8043
| 25> C 	 2.75299 	 -9.1279 	 83.4418
| 26> C 	 3.00904 	 -8.10295 	 84.4137
| 27> C 	 1.89697 	 -7.31357 	 84.6296
| 28> H 	 3.45946 	 -9.7915 	 83.0295
| 29> C 	 4.30434 	 -7.92281 	 85.0865
| 30> H 	 4.40835 	 -6.7999 	 85.0932
| 31> H 	 5.04686 	 -8.25807 	 84.3963
| 32> C 	 4.57655 	 -8.41005 	 86.5267
| 33> H 	 3.72856 	 -8.07728 	 87.0433
| 34> H 	 5.50232 	 -7.96587 	 86.9306
| 35> C 	 4.75449 	 -9.91655 	 86.6682
| 36> H 	 5.63788 	 -10.3559 	 86.1293
| 37> H 	 3.82575 	 -10.3815 	 86.4227
| 38> H 	 4.95154 	 -10.0964 	 87.7524
| 39> H 	 1.65661 	 -3.1691 	 87.6303
| 40> H 	 1.37564 	 -9.6137 	 81.8913
| 41> *
| 42>
| 43>                          ****END OF INPUT****

CARTESIAN COORDINATES (ANGSTROEM)
---------------------------------
  S      2.704660   -4.798130   85.837100
  C      1.615800   -4.107670   87.015900
  C      0.527864   -4.988710   87.272900
  C      0.555830   -6.103590   86.412500
  C      1.653540   -6.158920   85.550100
  H     -0.202435   -6.926710   86.445400
  C     -0.719411   -4.696390   88.074700
  H     -1.577390   -5.097570   87.517600
  H     -0.770101   -3.611320   88.062800
  C     -0.744364   -5.170490   89.511100
  H     -0.816506   -6.250630   89.593000
  H      0.178029   -4.933830   89.961300
  C     -1.978370   -4.609290   90.300500
  H     -2.942930   -5.007160   89.964800
  H     -1.824960   -4.879080   91.320600
  H     -2.106010   -3.533080   90.265900
  S      0.604755   -7.680900   83.407900
  C      1.516890   -9.045830   82.804300
  C      2.752990   -9.127900   83.441800
  C      3.009040   -8.102950   84.413700
  C      1.896970   -7.313570   84.629600
  H      3.459460   -9.791500   83.029500
  C      4.304340   -7.922810   85.086500
  H      4.408350   -6.799900   85.093200
  H      5.046860   -8.258070   84.396300
  C      4.576550   -8.410050   86.526700
  H      3.728560   -8.077280   87.043300
  H      5.502320   -7.965870   86.930600
  C      4.754490   -9.916550   86.668200
  H      5.637880  -10.355900   86.129300
  H      3.825750  -10.381500   86.422700
  H      4.951540  -10.096400   87.752400
  H      1.656610   -3.169100   87.630300
  H      1.375640   -9.613700   81.891300

 Total Charge           Charge          ....    0
 Multiplicity           Mult            ....    1
 Number of Electrons    NEL             ....  134
 Basis Dimension        Dim             ....  322

ORBITAL ENERGIES
----------------

  NO   OCC          E(Eh)            E(eV)
   0   2.0000     -88.977596     -2421.2035
   1   2.0000     -88.967529     -2420.9295
   2   2.0000     -10.333829      -281.1978
   3   2.0000     -10.332970      -281.1744
   4   2.0000     -10.322751      -280.8963
   5   2.0000     -10.317434      -280.7516
   6   2.0000     -10.301907      -280.3291
   7   2.0000     -10.300322      -280.2860
   8   2.0000     -10.294917      -280.1389
   9   2.0000     -10.290552      -280.0202
  10   2.0000     -10.290421      -280.0166
  11   2.0000     -10.286298      -279.9044
  12   2.0000     -10.284110      -279.8449
  13   2.0000     -10.281366      -279.7702
  14   2.0000     -10.278171      -279.6832
  15   2.0000     -10.276327      -279.6331
  16   2.0000      -8.091045      -220.1685
  17   2.0000      -8.080911      -219.8928
  18   2.0000      -6.049653      -164.6194
  19   2.0000      -6.045560      -164.5081
  20   2.0000      -6.041963      -164.4102
  21   2.0000      -6.039523      -164.3438
  22   2.0000      -6.035644      -164.2382
  23   2.0000      -6.031591      -164.1279
  24   2.0000      -1.002111       -27.2688
  25   2.0000      -0.981220       -26.7004
  26   2.0000      -0.913014       -24.8444
  27   2.0000      -0.909167       -24.7397
  28   2.0000      -0.863103       -23.4862
  29   2.0000      -0.852643       -23.2016
  30   2.0000      -0.849546       -23.1173
  31   2.0000      -0.810101       -22.0440
  32   2.0000      -0.782371       -21.2894
  33   2.0000      -0.771975       -21.0065
  34   2.0000      -0.708542       -19.2804
  35   2.0000      -0.705412       -19.1952
  36   2.0000      -0.687908       -18.7189
  37   2.0000      -0.664514       -18.0823
  38   2.0000      -0.630733       -17.1631
  39   2.0000      -0.616644       -16.7797
  40   2.0000      -0.589195       -16.0328
  41   2.0000      -0.573126       -15.5955
  42   2.0000      -0.559354       -15.2208
  43   2.0000      -0.554670       -15.0933
  44   2.0000      -0.544308       -14.8114
  45   2.0000      -0.525902       -14.3105
  46   2.0000      -0.515745       -14.0341
  47   2.0000      -0.507830       -13.8188
  48   2.0000      -0.499865       -13.6020
  49   2.0000      -0.497284       -13.5318
  50   2.0000      -0.486031       -13.2256
  51   2.0000      -0.477322       -12.9886
  52   2.0000      -0.471292       -12.8245
  53   2.0000      -0.466780       -12.7017
  54   2.0000      -0.463246       -12.6056
  55   2.0000      -0.447811       -12.1856
  56   2.0000      -0.446309       -12.1447
  57   2.0000      -0.443038       -12.0557
  58   2.0000      -0.429034       -11.6746
  59   2.0000      -0.425627       -11.5819
  60   2.0000      -0.419479       -11.4146
  61   2.0000      -0.417785       -11.3685
  62   2.0000      -0.411246       -11.1906
  63   2.0000      -0.344490        -9.3740
  64   2.0000      -0.332991        -9.0611
  65   2.0000      -0.329359        -8.9623
  66   2.0000      -0.290641        -7.9087
  67   0.0000       0.028213         0.7677
  68   0.0000       0.060667         1.6508
  69   0.0000       0.103871         2.8265
  70   0.0000       0.112315         3.0563
  71   0.0000       0.121567         3.3080

MULLIKEN ATOMIC CHARGES
-----------------------
   0 S :    0.131002
   1 C :   -0.126696
   2 C :   -0.093740
   3 C :   -0.003800
   4 C :   -0.142467
   5 H :    0.032867
   6 C :    0.046755
   7 H :    0.032468
   8 H :    0.016849
   9 C :   -0.042577
  10 H :    0.025231
  11 H :    0.014689
  12 C :   -0.043591
  13 H :    0.031220
  14 H :    0.030304
  15 H :    0.025784
  16 S :    0.103003
  17 C :   -0.087551
  18 C :   -0.034333
  19 C :   -0.043732
  20 C :   -0.163434
  21 H :    0.002748
  22 C :    0.052048
  23 H :    0.024784
  24 H :    0.007093
  25 C :   -0.017927
  26 H :    0.021836
  27 H :    0.033232
  28 C :   -0.065817
  29 H :    0.038124
  30 H :    0.034922
  31 H :    0.034066
  32 H :    0.064579
  33 H :    0.062062
Sum of atomic charges:    0.0000000

LOEWDIN ATOMIC CHARGES
----------------------
   0 S :    0.431428
   1 C :   -0.218195
   2 C :   -0.066727
   3 C :   -0.068219
   4 C :   -0.207465
   5 H :    0.037990
   6 C :   -0.031814
   7 H :    0.034085
   8 H :    0.029836
   9 C :   -0.033554
  10 H :    0.025135
  11 H :    0.017352
  12 C :   -0.062146
  13 H :    0.026373
  14 H :    0.024062
  15 H :    0.021437
  16 S :    0.386042
  17 C :   -0.190547
  18 C :   -0.068030
  19 C :   -0.061235
  20 C :   -0.173057
  21 H :    0.022879
  22 C :   -0.040358
  23 H :    0.030653
  24 H :    0.024731
  25 C :   -0.030263
  26 H :    0.020707
  27 H :    0.029274
  28 C :   -0.069034
  29 H :    0.028773
  30 H :    0.021075
  31 H :    0.030695
  32 H :    0.043052
  33 H :    0.035067

  Mayer bond orders larger than 0.100000
B(  0-S ,  1-C ) :   1.1485 B(  0-S ,  4-C ) :   1.1553 B(  1-C ,  2-C ) :   1.5749
B(  1-C ,  4-C ) :   0.1017 B(  1-C , 32-H ) :   0.9563 B(  2-C ,  3-C ) :   1.2941
B(  2-C ,  6-C ) :   1.0186 B(  3-C ,  4-C ) :   1.5336 B(  3-C ,  5-H ) :   0.9840
B(  4-C , 20-C ) :   1.0335 B(  6-C ,  7-H ) :   0.9472 B(  6-C ,  8-H ) :   0.9426
B(  6-C ,  9-C ) :   1.0668 B(  9-C , 10-H ) :   0.9523 B(  9-C , 11-H ) :   0.9558
B(  9-C , 12-C ) :   1.0776 B( 12-C , 13-H ) :   0.9758 B( 12-C , 14-H ) :   0.9757
B( 12-C , 15-H ) :   0.9779 B( 16-S , 17-C ) :   1.1462 B( 16-S , 20-C ) :   1.1296
B( 17-C , 18-C ) :   1.6249 B( 17-C , 33-H ) :   0.9620 B( 18-C , 19-C ) :   1.2292
B( 18-C , 21-H ) :   0.9901 B( 19-C , 20-C ) :   1.5951 B( 19-C , 22-C ) :   1.0484
B( 22-C , 23-H ) :   0.9253 B( 22-C , 24-H ) :   0.9247 B( 22-C , 25-C ) :   1.0649
B( 25-C , 26-H ) :   0.9522 B( 25-C , 27-H ) :   0.9538 B( 25-C , 28-C ) :   1.0879
B( 28-C , 29-H ) :   0.9743 B( 28-C , 30-H ) :   0.9764 B( 28-C , 31-H ) :   0.9732

Dispersion correction           -0.014111607
FINAL SINGLE POINT ENERGY     -1339.874738692035

DIPOLE MOMENT
-------------
                                X             Y             Z
Electronic contribution:      0.73639       4.04871     -21.35878
Nuclear contribution   :     -0.67016      -4.10878      21.69322
                        -----------------------------------------
Total Dipole Moment    :      0.06623      -0.06007       0.33444
                        -----------------------------------------
Magnitude (a.u.)       :      0.34619
Magnitude (Debye)      :      0.87994

Rotational constants in cm-1:     0.019491     0.007480     0.006712
Rotational constants in MHz :   584.336210   224.242635   201.221178

                             ****ORCA TERMINATED NORMALLY****
TOTAL RUN TIME: 0 days 0 hours 0 minutes 32 seconds 267 msec
