                         Program Version 4.2.1 -  RELEASE  -
|  1> ! wB97X-D3 SP def2-SVP
|  2> %pal
|  3> nprocs 16
|  4> end
|  5>
|  6> * xyz 0 1
|  7> S 	 -54.3083 	 32.7922 	 100.206
|  8> C 	 -55.6136 	 32.0214 	 99.464
|  9> C 	 -55.2628 	 31.2929 	 98.3655
| 10> C 	 -53.833 	 31.3991 	 98.0523
| 11> C 	 -53.1868 	 32.116 	 99.0605
| 12> H 	 -53.3388 	 30.8659 	 97.2574
| 13> C 	 -56.164 	 30.4361 	 97.519
| 14> H 	 -57.2441 	 30.457 	 97.8872
| 15> H 	 -55.7837 	 29.4198 	 97.4832
| 16> C 	 -56.2707 	 31.0199 	 96.1665
| 17> H 	 -56.3249 	 32.0687 	 96.2995
| 18> H 	 -55.3221 	 30.8712 	 95.6847
| 19> C 	 -57.4022 	 30.4423 	 95.3351
| 20> H 	 -57.1283 	 30.6934 	 94.2518
| 21> H 	 -57.5039 	 29.4165 	 95.4479
| 22> H 	 -58.4333 	 30.8321 	 95.6433
| 23> S 	 -50.8005 	 31.887 	 100.543
| 24> C 	 -49.4475 	 32.6514 	 99.9626
| 25> C 	 -49.5462 	 33.1033 	 98.6552
| 26> C 	 -50.8681 	 32.9096 	 98.172
| 27> C 	 -51.7042 	 32.2739 	 99.0879
| 28> H 	 -48.692 	 33.464 	 98.1119
| 29> C 	 -51.2905 	 33.4629 	 96.8392
| 30> H 	 -50.6868 	 34.3098 	 96.5085
| 31> H 	 -52.3884 	 33.9163 	 96.8743
| 32> C 	 -51.1564 	 32.4373 	 95.678
| 33> H 	 -52.032 	 31.7959 	 95.5252
| 34> H 	 -50.3075 	 31.8441 	 95.8611
| 35> C 	 -51.0864 	 33.0952 	 94.3158
| 36> H 	 -50.1381 	 33.6506 	 94.1487
| 37> H 	 -51.9226 	 33.7085 	 94.1461
| 38> H 	 -50.9932 	 32.2617 	 93.5959
| 39> H 	 -56.5638 	 32.1327 	 99.9502
| 40> H 	 -48.4796 	 32.6227 	 100.499
| 41> *
| 42>
| 43>                          ****END OF INPUT****

CARTESIAN COORDINATES (ANGSTROEM)
---------------------------------
  S    -54.308300   32.792200  100.206000
  C    -55.613600   32.021400   99.464000
  C    -55.262800   31.292900   98.365500
  C    -53.833000   31.399100   98.052300
  C    -53.186800   32.116000   99.060500
  H    -53.338800   30.865900   97.257400
  C    -56.164000   30.436100   97.519000
  H    -57.244100   30.457000   97.887200
  H    -55.783700   29.419800   97.483200
  C    -56.270700   31.019900   96.166500
  H    -56.324900   32.068700   96.299500
  H    -55.322100   30.871200   95.684700
  C    -57.402200   30.442300   95.335100
  H    -57.128300   30.693400   94.251800
  H    -57.503900   29.416500   95.447900
  H    -58.433300   30.832100   95.643300
  S    -50.800500   31.887000  100.543000
  C    -49.447500   32.651400   99.962600
  C    -49.546200   33.103300   98.655200
  C    -50.868100   32.909600   98.172000
  C    -51.704200   32.273900   99.087900
  H    -48.692000   33.464000   98.111900
  C    -51.290500   33.462900   96.839200
  H    -50.686800   34.309800   96.508500
  H    -52.388400   33.916300   96.874300
  C    -51.156400   32.437300   95.678000
  H    -52.032000   31.795900   95.525200
  H    -50.307500   31.844100   95.861100
  C    -51.086400   33.095200   94.315800
  H    -50.138100   33.650600   94.148700
  H    -51.922600   33.708500   94.146100
  H    -50.993200   32.261700   93.595900
  H    -56.563800   32.132700   99.950200
  H    -48.479600   32.622700  100.499000

 Total Charge           Charge          ....    0
 Multiplicity           Mult            ....    1
 Number of Electrons    NEL             ....  134
 Basis Dimension        Dim             ....  322

ORBITAL ENERGIES
----------------

  NO   OCC          E(Eh)            E(eV)
   0   2.0000     -88.965634     -2420.8780
   1   2.0000     -88.964558     -2420.8487
   2   2.0000     -10.330025      -281.0943
   3   2.0000     -10.323817      -280.9253
   4   2.0000     -10.312835      -280.6265
   5   2.0000     -10.306212      -280.4463
   6   2.0000     -10.301511      -280.3184
   7   2.0000     -10.299161      -280.2544
   8   2.0000     -10.296346      -280.1778
   9   2.0000     -10.296051      -280.1698
  10   2.0000     -10.290322      -280.0139
  11   2.0000     -10.288129      -279.9542
  12   2.0000     -10.283191      -279.8199
  13   2.0000     -10.280543      -279.7478
  14   2.0000     -10.275172      -279.6017
  15   2.0000     -10.273390      -279.5532
  16   2.0000      -8.082104      -219.9252
  17   2.0000      -8.080783      -219.8893
  18   2.0000      -6.040288      -164.3646
  19   2.0000      -6.039222      -164.3356
  20   2.0000      -6.036311      -164.2564
  21   2.0000      -6.035055      -164.2222
  22   2.0000      -6.033167      -164.1708
  23   2.0000      -6.031569      -164.1273
  24   2.0000      -1.010590       -27.4996
  25   2.0000      -0.992987       -27.0206
  26   2.0000      -0.923137       -25.1198
  27   2.0000      -0.910726       -24.7821
  28   2.0000      -0.867583       -23.6081
  29   2.0000      -0.857421       -23.3316
  30   2.0000      -0.848760       -23.0959
  31   2.0000      -0.810708       -22.0605
  32   2.0000      -0.780032       -21.2257
  33   2.0000      -0.769106       -20.9284
  34   2.0000      -0.701850       -19.0983
  35   2.0000      -0.696142       -18.9430
  36   2.0000      -0.685981       -18.6665
  37   2.0000      -0.662201       -18.0194
  38   2.0000      -0.647824       -17.6282
  39   2.0000      -0.620262       -16.8782
  40   2.0000      -0.599594       -16.3158
  41   2.0000      -0.576951       -15.6996
  42   2.0000      -0.567133       -15.4325
  43   2.0000      -0.561787       -15.2870
  44   2.0000      -0.528841       -14.3905
  45   2.0000      -0.523523       -14.2458
  46   2.0000      -0.518244       -14.1021
  47   2.0000      -0.512884       -13.9563
  48   2.0000      -0.506412       -13.7802
  49   2.0000      -0.496161       -13.5012
  50   2.0000      -0.491752       -13.3812
  51   2.0000      -0.479576       -13.0499
  52   2.0000      -0.471602       -12.8329
  53   2.0000      -0.469256       -12.7691
  54   2.0000      -0.458719       -12.4824
  55   2.0000      -0.452290       -12.3074
  56   2.0000      -0.441995       -12.0273
  57   2.0000      -0.435989       -11.8639
  58   2.0000      -0.434735       -11.8298
  59   2.0000      -0.423952       -11.5363
  60   2.0000      -0.420377       -11.4390
  61   2.0000      -0.412976       -11.2376
  62   2.0000      -0.412139       -11.2149
  63   2.0000      -0.343571        -9.3491
  64   2.0000      -0.333204        -9.0669
  65   2.0000      -0.325063        -8.8454
  66   2.0000      -0.295823        -8.0497
  67   0.0000       0.038821         1.0564
  68   0.0000       0.074179         2.0185
  69   0.0000       0.120907         3.2900
  70   0.0000       0.124757         3.3948
  71   0.0000       0.129475         3.5232

MULLIKEN ATOMIC CHARGES
-----------------------
   0 S :    0.125009
   1 C :   -0.135875
   2 C :   -0.075015
   3 C :    0.015109
   4 C :   -0.138533
   5 H :    0.017550
   6 C :    0.067786
   7 H :    0.020179
   8 H :    0.034885
   9 C :   -0.082932
  10 H :    0.024773
  11 H :    0.013438
  12 C :   -0.035224
  13 H :    0.047921
  14 H :    0.015865
  15 H :    0.041168
  16 S :    0.131183
  17 C :   -0.103071
  18 C :   -0.033695
  19 C :   -0.014143
  20 C :   -0.184016
  21 H :    0.015848
  22 C :    0.023867
  23 H :    0.017926
  24 H :    0.052952
  25 C :   -0.063761
  26 H :    0.029441
  27 H :    0.019434
  28 C :   -0.052207
  29 H :    0.028154
  30 H :    0.032623
  31 H :    0.031013
  32 H :    0.045229
  33 H :    0.067123
Sum of atomic charges:   -0.0000000

LOEWDIN ATOMIC CHARGES
----------------------
   0 S :    0.432547
   1 C :   -0.215185
   2 C :   -0.061007
   3 C :   -0.055621
   4 C :   -0.196678
   5 H :    0.028895
   6 C :   -0.034325
   7 H :    0.033435
   8 H :    0.029526
   9 C :   -0.046858
  10 H :    0.022272
  11 H :    0.017306
  12 C :   -0.065373
  13 H :    0.038873
  14 H :    0.012800
  15 H :    0.033421
  16 S :    0.445739
  17 C :   -0.213020
  18 C :   -0.077351
  19 C :   -0.053754
  20 C :   -0.208519
  21 H :    0.030975
  22 C :   -0.040514
  23 H :    0.027286
  24 H :    0.045233
  25 C :   -0.038524
  26 H :    0.023713
  27 H :    0.016894
  28 C :   -0.062485
  29 H :    0.023101
  30 H :    0.018538
  31 H :    0.029946
  32 H :    0.024329
  33 H :    0.034384

  Mayer bond orders larger than 0.100000
B(  0-S ,  1-C ) :   1.1420 B(  0-S ,  4-C ) :   1.1683 B(  1-C ,  2-C ) :   1.6147
B(  1-C , 32-H ) :   0.9733 B(  2-C ,  3-C ) :   1.2177 B(  2-C ,  6-C ) :   1.0376
B(  3-C ,  4-C ) :   1.5650 B(  3-C ,  5-H ) :   0.9941 B(  4-C , 20-C ) :   1.0278
B(  6-C ,  7-H ) :   0.9473 B(  6-C ,  8-H ) :   0.9296 B(  6-C ,  9-C ) :   1.0629
B(  9-C , 10-H ) :   0.9547 B(  9-C , 11-H ) :   0.9491 B(  9-C , 12-C ) :   1.0861
B( 12-C , 13-H ) :   0.9739 B( 12-C , 14-H ) :   0.9713 B( 12-C , 15-H ) :   0.9716
B( 16-S , 17-C ) :   1.2056 B( 16-S , 20-C ) :   1.1476 B( 17-C , 18-C ) :   1.5642
B( 17-C , 33-H ) :   0.9586 B( 18-C , 19-C ) :   1.2716 B( 18-C , 21-H ) :   0.9968
B( 19-C , 20-C ) :   1.5724 B( 19-C , 22-C ) :   1.0555 B( 22-C , 23-H ) :   0.9459
B( 22-C , 24-H ) :   0.9242 B( 22-C , 25-C ) :   1.0544 B( 25-C , 26-H ) :   0.9498
B( 25-C , 27-H ) :   0.9580 B( 25-C , 28-C ) :   1.0907 B( 28-C , 29-H ) :   0.9726
B( 28-C , 30-H ) :   0.9747 B( 28-C , 31-H ) :   0.9738

Dispersion correction           -0.014283218
FINAL SINGLE POINT ENERGY     -1339.877364231315

DIPOLE MOMENT
-------------
                                X             Y             Z
Electronic contribution:      9.37571       3.34436      30.62984
Nuclear contribution   :     -9.35438      -3.46970     -31.15963
                        -----------------------------------------
Total Dipole Moment    :      0.02133      -0.12534      -0.52978
                        -----------------------------------------
Magnitude (a.u.)       :      0.54483
Magnitude (Debye)      :      1.38484

Rotational constants in cm-1:     0.017680     0.009264     0.006565
Rotational constants in MHz :   530.020073   277.733949   196.799863

                             ****ORCA TERMINATED NORMALLY****
TOTAL RUN TIME: 0 days 0 hours 0 minutes 29 seconds 808 msec
