                         Program Version 4.2.1 -  RELEASE  -
|  1> ! wB97X-D3 SP def2-SVP
|  2> %pal
|  3> nprocs 16
|  4> end
|  5>
|  6> * xyz 0 1
|  7> S 	 -40.5964 	 13.6749 	 76.7762
|  8> C 	 -39.8595 	 15.0022 	 75.8721
|  9> C 	 -40.8236 	 15.802 	 75.2152
| 10> C 	 -42.1047 	 15.3646 	 75.564
| 11> C 	 -42.1553 	 14.246 	 76.3917
| 12> H 	 -43.0061 	 15.9465 	 75.4795
| 13> C 	 -40.5687 	 17.0467 	 74.4097
| 14> H 	 -41.4608 	 17.149 	 73.8685
| 15> H 	 -39.6885 	 16.8526 	 73.752
| 16> C 	 -40.3186 	 18.4 	 75.0737
| 17> H 	 -41.0545 	 18.5965 	 75.8786
| 18> H 	 -39.486 	 18.2283 	 75.7184
| 19> C 	 -40.2951 	 19.5493 	 74.0999
| 20> H 	 -41.2859 	 19.7863 	 73.7488
| 21> H 	 -39.9294 	 20.4422 	 74.6432
| 22> H 	 -39.6936 	 19.377 	 73.2379
| 23> S 	 -43.6467 	 13.5315 	 78.6501
| 24> C 	 -45.3227 	 13.2004 	 78.4543
| 25> C 	 -45.7056 	 13.1143 	 77.1149
| 26> C 	 -44.617 	 13.4 	 76.2206
| 27> C 	 -43.4159 	 13.7247 	 76.9092
| 28> H 	 -46.6948 	 12.8894 	 76.9338
| 29> C 	 -44.9136 	 13.4476 	 74.7777
| 30> H 	 -45.6386 	 12.7403 	 74.5573
| 31> H 	 -44.135 	 13.0507 	 74.2236
| 32> C 	 -45.5144 	 14.8332 	 74.2767
| 33> H 	 -44.8276 	 15.6462 	 74.452
| 34> H 	 -46.4119 	 15.0413 	 74.9306
| 35> C 	 -45.8689 	 14.8193 	 72.7941
| 36> H 	 -46.5143 	 14.0433 	 72.5247
| 37> H 	 -44.9472 	 14.7664 	 72.2408
| 38> H 	 -46.5062 	 15.6559 	 72.5087
| 39> H 	 -38.8282 	 15.3546 	 75.6927
| 40> H 	 -45.8732 	 12.8416 	 79.2985
| 41> *
| 42>
| 43>                          ****END OF INPUT****

CARTESIAN COORDINATES (ANGSTROEM)
---------------------------------
  S    -40.596400   13.674900   76.776200
  C    -39.859500   15.002200   75.872100
  C    -40.823600   15.802000   75.215200
  C    -42.104700   15.364600   75.564000
  C    -42.155300   14.246000   76.391700
  H    -43.006100   15.946500   75.479500
  C    -40.568700   17.046700   74.409700
  H    -41.460800   17.149000   73.868500
  H    -39.688500   16.852600   73.752000
  C    -40.318600   18.400000   75.073700
  H    -41.054500   18.596500   75.878600
  H    -39.486000   18.228300   75.718400
  C    -40.295100   19.549300   74.099900
  H    -41.285900   19.786300   73.748800
  H    -39.929400   20.442200   74.643200
  H    -39.693600   19.377000   73.237900
  S    -43.646700   13.531500   78.650100
  C    -45.322700   13.200400   78.454300
  C    -45.705600   13.114300   77.114900
  C    -44.617000   13.400000   76.220600
  C    -43.415900   13.724700   76.909200
  H    -46.694800   12.889400   76.933800
  C    -44.913600   13.447600   74.777700
  H    -45.638600   12.740300   74.557300
  H    -44.135000   13.050700   74.223600
  C    -45.514400   14.833200   74.276700
  H    -44.827600   15.646200   74.452000
  H    -46.411900   15.041300   74.930600
  C    -45.868900   14.819300   72.794100
  H    -46.514300   14.043300   72.524700
  H    -44.947200   14.766400   72.240800
  H    -46.506200   15.655900   72.508700
  H    -38.828200   15.354600   75.692700
  H    -45.873200   12.841600   79.298500

 Total Charge           Charge          ....    0
 Multiplicity           Mult            ....    1
 Number of Electrons    NEL             ....  134
 Basis Dimension        Dim             ....  322

ORBITAL ENERGIES
----------------

  NO   OCC          E(Eh)            E(eV)
   0   2.0000     -88.974966     -2421.1319
   1   2.0000     -88.963813     -2420.8284
   2   2.0000     -10.329188      -281.0715
   3   2.0000     -10.324533      -280.9448
   4   2.0000     -10.316614      -280.7293
   5   2.0000     -10.313768      -280.6519
   6   2.0000     -10.305242      -280.4199
   7   2.0000     -10.297934      -280.2210
   8   2.0000     -10.291689      -280.0511
   9   2.0000     -10.289628      -279.9950
  10   2.0000     -10.288597      -279.9670
  11   2.0000     -10.286175      -279.9011
  12   2.0000     -10.284113      -279.8450
  13   2.0000     -10.279192      -279.7110
  14   2.0000     -10.278040      -279.6797
  15   2.0000     -10.271860      -279.5115
  16   2.0000      -8.089283      -220.1206
  17   2.0000      -8.079034      -219.8417
  18   2.0000      -6.047772      -164.5682
  19   2.0000      -6.043736      -164.4584
  20   2.0000      -6.040210      -164.3625
  21   2.0000      -6.037404      -164.2861
  22   2.0000      -6.033396      -164.1771
  23   2.0000      -6.030007      -164.0848
  24   2.0000      -1.006436       -27.3865
  25   2.0000      -0.983387       -26.7593
  26   2.0000      -0.917684       -24.9715
  27   2.0000      -0.909152       -24.7393
  28   2.0000      -0.868851       -23.6426
  29   2.0000      -0.855886       -23.2898
  30   2.0000      -0.852108       -23.1870
  31   2.0000      -0.811494       -22.0819
  32   2.0000      -0.787546       -21.4302
  33   2.0000      -0.772943       -21.0329
  34   2.0000      -0.709382       -19.3033
  35   2.0000      -0.707996       -19.2655
  36   2.0000      -0.696931       -18.9645
  37   2.0000      -0.664909       -18.0931
  38   2.0000      -0.634306       -17.2603
  39   2.0000      -0.620398       -16.8819
  40   2.0000      -0.599708       -16.3189
  41   2.0000      -0.573937       -15.6176
  42   2.0000      -0.567709       -15.4481
  43   2.0000      -0.559800       -15.2329
  44   2.0000      -0.530493       -14.4354
  45   2.0000      -0.525587       -14.3020
  46   2.0000      -0.518047       -14.0968
  47   2.0000      -0.510876       -13.9016
  48   2.0000      -0.508779       -13.8446
  49   2.0000      -0.501461       -13.6454
  50   2.0000      -0.495243       -13.4762
  51   2.0000      -0.478109       -13.0100
  52   2.0000      -0.470957       -12.8154
  53   2.0000      -0.462089       -12.5741
  54   2.0000      -0.460271       -12.5246
  55   2.0000      -0.453881       -12.3507
  56   2.0000      -0.446277       -12.1438
  57   2.0000      -0.439298       -11.9539
  58   2.0000      -0.432543       -11.7701
  59   2.0000      -0.429523       -11.6879
  60   2.0000      -0.426144       -11.5960
  61   2.0000      -0.419563       -11.4169
  62   2.0000      -0.410957       -11.1827
  63   2.0000      -0.340618        -9.2687
  64   2.0000      -0.334043        -9.0898
  65   2.0000      -0.328048        -8.9266
  66   2.0000      -0.288155        -7.8411
  67   0.0000       0.027558         0.7499
  68   0.0000       0.070437         1.9167
  69   0.0000       0.111245         3.0271
  70   0.0000       0.123026         3.3477
  71   0.0000       0.129072         3.5122

MULLIKEN ATOMIC CHARGES
-----------------------
   0 S :    0.144197
   1 C :   -0.120369
   2 C :   -0.104067
   3 C :    0.011191
   4 C :   -0.154483
   5 H :    0.018772
   6 C :    0.061000
   7 H :    0.005541
   8 H :    0.033910
   9 C :   -0.051227
  10 H :    0.019549
  11 H :    0.006204
  12 C :   -0.013564
  13 H :    0.028791
  14 H :    0.040149
  15 H :    0.025545
  16 S :    0.105656
  17 C :   -0.096760
  18 C :   -0.013893
  19 C :   -0.034671
  20 C :   -0.164662
  21 H :   -0.006888
  22 C :    0.137200
  23 H :   -0.012374
  24 H :    0.002836
  25 C :   -0.092564
  26 H :    0.021348
  27 H :    0.030481
  28 C :   -0.005211
  29 H :    0.009546
  30 H :    0.037736
  31 H :    0.028993
  32 H :    0.044804
  33 H :    0.057283
Sum of atomic charges:    0.0000000

LOEWDIN ATOMIC CHARGES
----------------------
   0 S :    0.434859
   1 C :   -0.210676
   2 C :   -0.062212
   3 C :   -0.064343
   4 C :   -0.215543
   5 H :    0.028308
   6 C :   -0.032634
   7 H :    0.022595
   8 H :    0.036435
   9 C :   -0.045290
  10 H :    0.027726
  11 H :    0.017094
  12 C :   -0.057717
  13 H :    0.026184
  14 H :    0.035742
  15 H :    0.020962
  16 S :    0.411832
  17 C :   -0.188978
  18 C :   -0.061610
  19 C :   -0.044661
  20 C :   -0.199411
  21 H :    0.019473
  22 C :   -0.029413
  23 H :    0.024306
  24 H :    0.022909
  25 C :   -0.029561
  26 H :    0.015594
  27 H :    0.027762
  28 C :   -0.062991
  29 H :    0.016248
  30 H :    0.028017
  31 H :    0.030186
  32 H :    0.035351
  33 H :    0.023459

  Mayer bond orders larger than 0.100000
B(  0-S ,  1-C ) :   1.1438 B(  0-S ,  4-C ) :   1.1650 B(  1-C ,  2-C ) :   1.5804
B(  1-C ,  4-C ) :   0.1002 B(  1-C , 32-H ) :   0.9614 B(  2-C ,  3-C ) :   1.2888
B(  2-C ,  6-C ) :   1.0301 B(  3-C ,  4-C ) :   1.5449 B(  3-C ,  5-H ) :   0.9828
B(  4-C , 20-C ) :   1.0502 B(  6-C ,  7-H ) :   0.9360 B(  6-C ,  8-H ) :   0.9318
B(  6-C ,  9-C ) :   1.0691 B(  9-C , 10-H ) :   0.9492 B(  9-C , 11-H ) :   0.9508
B(  9-C , 12-C ) :   1.0747 B( 12-C , 13-H ) :   0.9730 B( 12-C , 14-H ) :   0.9705
B( 12-C , 15-H ) :   0.9763 B( 16-S , 17-C ) :   1.1796 B( 16-S , 20-C ) :   1.1435
B( 17-C , 18-C ) :   1.5797 B( 17-C , 20-C ) :   0.1006 B( 17-C , 33-H ) :   0.9668
B( 18-C , 19-C ) :   1.2426 B( 18-C , 21-H ) :   1.0069 B( 19-C , 20-C ) :   1.5537
B( 19-C , 22-C ) :   1.0761 B( 22-C , 23-H ) :   0.9157 B( 22-C , 24-H ) :   0.9178
B( 22-C , 25-C ) :   1.0427 B( 25-C , 26-H ) :   0.9560 B( 25-C , 27-H ) :   0.9554
B( 25-C , 28-C ) :   1.0863 B( 28-C , 29-H ) :   0.9719 B( 28-C , 30-H ) :   0.9746
B( 28-C , 31-H ) :   0.9696

Dispersion correction           -0.014136622
FINAL SINGLE POINT ENERGY     -1339.862729681514

DIPOLE MOMENT
-------------
                                X             Y             Z
Electronic contribution:      5.64540     -20.15084      22.70349
Nuclear contribution   :     -5.97811      20.54868     -23.13196
                        -----------------------------------------
Total Dipole Moment    :     -0.33272       0.39784      -0.42847
                        -----------------------------------------
Magnitude (a.u.)       :      0.67273
Magnitude (Debye)      :      1.70994

Rotational constants in cm-1:     0.016739     0.008792     0.006655
Rotational constants in MHz :   501.823293   263.586173   199.520617

                             ****ORCA TERMINATED NORMALLY****
TOTAL RUN TIME: 0 days 0 hours 0 minutes 29 seconds 939 msec
