                         Program Version 4.2.1 -  RELEASE  -
|  1> ! wB97X-D3 SP def2-SVP
|  2> %pal
|  3> nprocs 16
|  4> end
|  5>
|  6> * xyz 0 1
|  7> S 	 -33.9233 	 29.5612 	 46.7761
|  8> C 	 -33.1216 	 28.2313 	 47.4746
|  9> C 	 -32.2315 	 28.563 	 48.4466
| 10> C 	 -32.3725 	 29.9601 	 48.7321
| 11> C 	 -33.2031 	 30.6859 	 47.8933
| 12> H 	 -31.8563 	 30.4732 	 49.5465
| 13> C 	 -31.3271 	 27.5442 	 49.207
| 14> H 	 -31.4862 	 26.5874 	 48.7623
| 15> H 	 -31.6085 	 27.4652 	 50.2695
| 16> C 	 -29.7727 	 27.9142 	 49.1991
| 17> H 	 -29.565 	 28.643 	 49.9908
| 18> H 	 -29.2936 	 26.9783 	 49.4181
| 19> C 	 -29.1745 	 28.2204 	 47.8389
| 20> H 	 -29.0452 	 27.2986 	 47.3644
| 21> H 	 -29.7565 	 28.9534 	 47.2483
| 22> H 	 -28.1278 	 28.5964 	 47.9063
| 23> S 	 -31.9977 	 33.0724 	 48.5861
| 24> C 	 -32.5927 	 34.5302 	 47.7544
| 25> C 	 -33.7573 	 34.3096 	 47.0946
| 26> C 	 -34.2144 	 32.933 	 47.1347
| 27> C 	 -33.331 	 32.1159 	 47.8453
| 28> H 	 -34.2169 	 35.1574 	 46.5674
| 29> C 	 -35.4808 	 32.4935 	 46.4449
| 30> H 	 -36.2602 	 33.1484 	 46.7809
| 31> H 	 -35.7011 	 31.5129 	 46.8551
| 32> C 	 -35.3798 	 32.4068 	 44.8496
| 33> H 	 -34.6366 	 31.6546 	 44.6642
| 34> H 	 -34.9928 	 33.2454 	 44.2346
| 35> C 	 -36.7925 	 32.0603 	 44.2884
| 36> H 	 -36.5932 	 31.573 	 43.2999
| 37> H 	 -37.5505 	 32.8366 	 44.218
| 38> H 	 -37.2312 	 31.2111 	 44.8204
| 39> H 	 -33.1602 	 27.2158 	 47.1427
| 40> H 	 -32.0317 	 35.4189 	 47.7853
| 41> *
| 42>
| 43>                          ****END OF INPUT****

CARTESIAN COORDINATES (ANGSTROEM)
---------------------------------
  S    -33.923300   29.561200   46.776100
  C    -33.121600   28.231300   47.474600
  C    -32.231500   28.563000   48.446600
  C    -32.372500   29.960100   48.732100
  C    -33.203100   30.685900   47.893300
  H    -31.856300   30.473200   49.546500
  C    -31.327100   27.544200   49.207000
  H    -31.486200   26.587400   48.762300
  H    -31.608500   27.465200   50.269500
  C    -29.772700   27.914200   49.199100
  H    -29.565000   28.643000   49.990800
  H    -29.293600   26.978300   49.418100
  C    -29.174500   28.220400   47.838900
  H    -29.045200   27.298600   47.364400
  H    -29.756500   28.953400   47.248300
  H    -28.127800   28.596400   47.906300
  S    -31.997700   33.072400   48.586100
  C    -32.592700   34.530200   47.754400
  C    -33.757300   34.309600   47.094600
  C    -34.214400   32.933000   47.134700
  C    -33.331000   32.115900   47.845300
  H    -34.216900   35.157400   46.567400
  C    -35.480800   32.493500   46.444900
  H    -36.260200   33.148400   46.780900
  H    -35.701100   31.512900   46.855100
  C    -35.379800   32.406800   44.849600
  H    -34.636600   31.654600   44.664200
  H    -34.992800   33.245400   44.234600
  C    -36.792500   32.060300   44.288400
  H    -36.593200   31.573000   43.299900
  H    -37.550500   32.836600   44.218000
  H    -37.231200   31.211100   44.820400
  H    -33.160200   27.215800   47.142700
  H    -32.031700   35.418900   47.785300

 Total Charge           Charge          ....    0
 Multiplicity           Mult            ....    1
 Number of Electrons    NEL             ....  134
 Basis Dimension        Dim             ....  322

ORBITAL ENERGIES
----------------

  NO   OCC          E(Eh)            E(eV)
   0   2.0000     -88.968556     -2420.9575
   1   2.0000     -88.962063     -2420.7808
   2   2.0000     -10.330858      -281.1169
   3   2.0000     -10.328159      -281.0435
   4   2.0000     -10.315759      -280.7061
   5   2.0000     -10.306167      -280.4451
   6   2.0000     -10.305769      -280.4342
   7   2.0000     -10.299737      -280.2701
   8   2.0000     -10.299683      -280.2686
   9   2.0000     -10.295566      -280.1566
  10   2.0000     -10.293973      -280.1132
  11   2.0000     -10.293787      -280.1082
  12   2.0000     -10.291260      -280.0394
  13   2.0000     -10.287163      -279.9279
  14   2.0000     -10.280626      -279.7500
  15   2.0000     -10.271495      -279.5016
  16   2.0000      -8.083557      -219.9648
  17   2.0000      -8.075911      -219.7567
  18   2.0000      -6.042145      -164.4151
  19   2.0000      -6.037991      -164.3021
  20   2.0000      -6.034662      -164.2115
  21   2.0000      -6.034275      -164.2010
  22   2.0000      -6.030740      -164.1048
  23   2.0000      -6.026286      -163.9836
  24   2.0000      -1.009512       -27.4702
  25   2.0000      -0.981272       -26.7018
  26   2.0000      -0.905264       -24.6335
  27   2.0000      -0.900078       -24.4924
  28   2.0000      -0.874382       -23.7931
  29   2.0000      -0.850295       -23.1377
  30   2.0000      -0.842740       -22.9321
  31   2.0000      -0.813073       -22.1249
  32   2.0000      -0.784255       -21.3407
  33   2.0000      -0.770777       -20.9739
  34   2.0000      -0.710885       -19.3442
  35   2.0000      -0.702755       -19.1229
  36   2.0000      -0.688896       -18.7458
  37   2.0000      -0.668071       -18.1791
  38   2.0000      -0.632000       -17.1976
  39   2.0000      -0.615867       -16.7586
  40   2.0000      -0.594697       -16.1825
  41   2.0000      -0.567027       -15.4296
  42   2.0000      -0.563501       -15.3336
  43   2.0000      -0.552991       -15.0477
  44   2.0000      -0.540046       -14.6954
  45   2.0000      -0.525224       -14.2921
  46   2.0000      -0.515568       -14.0293
  47   2.0000      -0.512363       -13.9421
  48   2.0000      -0.506087       -13.7713
  49   2.0000      -0.495181       -13.4746
  50   2.0000      -0.486790       -13.2462
  51   2.0000      -0.474708       -12.9175
  52   2.0000      -0.467477       -12.7207
  53   2.0000      -0.466477       -12.6935
  54   2.0000      -0.461976       -12.5710
  55   2.0000      -0.449946       -12.2437
  56   2.0000      -0.442757       -12.0480
  57   2.0000      -0.436139       -11.8680
  58   2.0000      -0.433009       -11.7828
  59   2.0000      -0.424468       -11.5503
  60   2.0000      -0.421504       -11.4697
  61   2.0000      -0.412079       -11.2132
  62   2.0000      -0.409054       -11.1309
  63   2.0000      -0.365961        -9.9583
  64   2.0000      -0.332402        -9.0451
  65   2.0000      -0.326747        -8.8912
  66   2.0000      -0.279895        -7.6163
  67   0.0000       0.020050         0.5456
  68   0.0000       0.085797         2.3347
  69   0.0000       0.105671         2.8754
  70   0.0000       0.121216         3.2985
  71   0.0000       0.132866         3.6155

MULLIKEN ATOMIC CHARGES
-----------------------
   0 S :    0.104437
   1 C :   -0.098792
   2 C :   -0.098466
   3 C :   -0.029431
   4 C :   -0.110966
   5 H :    0.015218
   6 C :    0.091265
   7 H :    0.002619
   8 H :    0.045882
   9 C :   -0.091280
  10 H :    0.042377
  11 H :    0.023648
  12 C :   -0.047863
  13 H :    0.014244
  14 H :    0.056024
  15 H :    0.033220
  16 S :    0.066057
  17 C :   -0.075547
  18 C :   -0.013637
  19 C :   -0.085935
  20 C :   -0.104544
  21 H :    0.027919
  22 C :    0.064574
  23 H :    0.031189
  24 H :    0.022076
  25 C :   -0.071562
  26 H :    0.023662
  27 H :    0.040808
  28 C :   -0.058412
  29 H :    0.032990
  30 H :    0.047920
  31 H :    0.023918
  32 H :    0.032410
  33 H :    0.043978
Sum of atomic charges:   -0.0000000

LOEWDIN ATOMIC CHARGES
----------------------
   0 S :    0.436327
   1 C :   -0.209285
   2 C :   -0.065315
   3 C :   -0.074472
   4 C :   -0.194269
   5 H :    0.023750
   6 C :   -0.020310
   7 H :    0.021615
   8 H :    0.037123
   9 C :   -0.040915
  10 H :    0.022652
  11 H :    0.025503
  12 C :   -0.067455
  13 H :    0.017212
  14 H :    0.029427
  15 H :    0.032710
  16 S :    0.362229
  17 C :   -0.157355
  18 C :   -0.069401
  19 C :   -0.055660
  20 C :   -0.175290
  21 H :    0.037807
  22 C :   -0.031831
  23 H :    0.031066
  24 H :    0.020022
  25 C :   -0.037045
  26 H :    0.017815
  27 H :    0.029405
  28 C :   -0.073568
  29 H :    0.033080
  30 H :    0.025273
  31 H :    0.024437
  32 H :    0.024879
  33 H :    0.019841

  Mayer bond orders larger than 0.100000
B(  0-S ,  1-C ) :   1.1470 B(  0-S ,  4-C ) :   1.1315 B(  1-C ,  2-C ) :   1.6245
B(  1-C , 32-H ) :   0.9574 B(  2-C ,  3-C ) :   1.2488 B(  2-C ,  6-C ) :   1.0210
B(  3-C ,  4-C ) :   1.5487 B(  3-C ,  5-H ) :   0.9881 B(  4-C , 20-C ) :   1.1229
B(  6-C ,  7-H ) :   0.9386 B(  6-C ,  8-H ) :   0.9455 B(  6-C ,  9-C ) :   1.0640
B(  9-C , 10-H ) :   0.9615 B(  9-C , 11-H ) :   0.9614 B(  9-C , 12-C ) :   1.0737
B( 12-C , 13-H ) :   0.9787 B( 12-C , 14-H ) :   0.9735 B( 12-C , 15-H ) :   0.9709
B( 16-S , 17-C ) :   1.1258 B( 16-S , 20-C ) :   1.1072 B( 17-C , 18-C ) :   1.6541
B( 17-C , 33-H ) :   0.9739 B( 18-C , 19-C ) :   1.1907 B( 18-C , 21-H ) :   0.9890
B( 19-C , 20-C ) :   1.5986 B( 19-C , 22-C ) :   1.0492 B( 22-C , 23-H ) :   0.9356
B( 22-C , 24-H ) :   0.9285 B( 22-C , 25-C ) :   1.0396 B( 25-C , 26-H ) :   0.9529
B( 25-C , 27-H ) :   0.9638 B( 25-C , 28-C ) :   1.0744 B( 28-C , 29-H ) :   0.9729
B( 28-C , 30-H ) :   0.9794 B( 28-C , 31-H ) :   0.9727

Dispersion correction           -0.014333995
FINAL SINGLE POINT ENERGY     -1339.878531606019

DIPOLE MOMENT
-------------
                                X             Y             Z
Electronic contribution:     -1.12292       8.35752       7.06434
Nuclear contribution   :      1.20575      -8.47439      -7.22048
                        -----------------------------------------
Total Dipole Moment    :      0.08283      -0.11687      -0.15614
                        -----------------------------------------
Magnitude (a.u.)       :      0.21190
Magnitude (Debye)      :      0.53860

Rotational constants in cm-1:     0.020552     0.008705     0.006604
Rotational constants in MHz :   616.120694   260.974093   197.980164

                             ****ORCA TERMINATED NORMALLY****
TOTAL RUN TIME: 0 days 0 hours 0 minutes 33 seconds 608 msec
