                         Program Version 4.2.1 -  RELEASE  -
|  1> ! wB97X-D3 SP def2-SVP
|  2> %pal
|  3> nprocs 16
|  4> end
|  5>
|  6> * xyz 0 1
|  7> S 	 50.1233 	 11.6187 	 86.2071
|  8> C 	 48.8121 	 12.661 	 85.6638
|  9> C 	 48.3718 	 12.3279 	 84.424
| 10> C 	 49.1849 	 11.333 	 83.7824
| 11> C 	 50.2267 	 10.8688 	 84.5667
| 12> H 	 49.0526 	 11.0006 	 82.6946
| 13> C 	 47.0492 	 12.8241 	 83.8136
| 14> H 	 47.0514 	 12.7148 	 82.6636
| 15> H 	 46.7937 	 13.8982 	 83.9481
| 16> C 	 45.8755 	 11.9929 	 84.3647
| 17> H 	 46.1176 	 10.9398 	 84.2454
| 18> H 	 45.8267 	 12.0801 	 85.4435
| 19> C 	 44.4489 	 12.3781 	 84.0478
| 20> H 	 43.6389 	 11.7421 	 84.2949
| 21> H 	 44.2216 	 13.328 	 84.5797
| 22> H 	 44.4442 	 12.6009 	 82.9927
| 23> S 	 52.3979 	 10.364 	 82.9705
| 24> C 	 53.5242 	 9.1169 	 83.4533
| 25> C 	 53.0373 	 8.2869 	 84.42
| 26> C 	 51.6821 	 8.72312 	 84.8053
| 27> C 	 51.266 	 9.92699 	 84.2114
| 28> H 	 53.6811 	 7.5063 	 84.8747
| 29> C 	 50.8972 	 8.04157 	 85.9287
| 30> H 	 50.4622 	 8.83321 	 86.5212
| 31> H 	 51.5596 	 7.38112 	 86.5614
| 32> C 	 49.6972 	 7.28691 	 85.3751
| 33> H 	 49.1455 	 6.83214 	 86.1942
| 34> H 	 50.1077 	 6.49437 	 84.8491
| 35> C 	 48.6825 	 7.95373 	 84.5026
| 36> H 	 48.4591 	 8.94406 	 84.9055
| 37> H 	 47.732 	 7.38834 	 84.3896
| 38> H 	 49.1562 	 8.07038 	 83.548
| 39> H 	 48.1635 	 13.1759 	 86.3554
| 40> H 	 54.6409 	 9.03226 	 83.1883
| 41> *
| 42>
| 43>                          ****END OF INPUT****

CARTESIAN COORDINATES (ANGSTROEM)
---------------------------------
  S     50.123300   11.618700   86.207100
  C     48.812100   12.661000   85.663800
  C     48.371800   12.327900   84.424000
  C     49.184900   11.333000   83.782400
  C     50.226700   10.868800   84.566700
  H     49.052600   11.000600   82.694600
  C     47.049200   12.824100   83.813600
  H     47.051400   12.714800   82.663600
  H     46.793700   13.898200   83.948100
  C     45.875500   11.992900   84.364700
  H     46.117600   10.939800   84.245400
  H     45.826700   12.080100   85.443500
  C     44.448900   12.378100   84.047800
  H     43.638900   11.742100   84.294900
  H     44.221600   13.328000   84.579700
  H     44.444200   12.600900   82.992700
  S     52.397900   10.364000   82.970500
  C     53.524200    9.116900   83.453300
  C     53.037300    8.286900   84.420000
  C     51.682100    8.723120   84.805300
  C     51.266000    9.926990   84.211400
  H     53.681100    7.506300   84.874700
  C     50.897200    8.041570   85.928700
  H     50.462200    8.833210   86.521200
  H     51.559600    7.381120   86.561400
  C     49.697200    7.286910   85.375100
  H     49.145500    6.832140   86.194200
  H     50.107700    6.494370   84.849100
  C     48.682500    7.953730   84.502600
  H     48.459100    8.944060   84.905500
  H     47.732000    7.388340   84.389600
  H     49.156200    8.070380   83.548000
  H     48.163500   13.175900   86.355400
  H     54.640900    9.032260   83.188300

 Total Charge           Charge          ....    0
 Multiplicity           Mult            ....    1
 Number of Electrons    NEL             ....  134
 Basis Dimension        Dim             ....  322

ORBITAL ENERGIES
----------------

  NO   OCC          E(Eh)            E(eV)
   0   2.0000     -88.969601     -2420.9859
   1   2.0000     -88.966534     -2420.9025
   2   2.0000     -10.337648      -281.3017
   3   2.0000     -10.326802      -281.0066
   4   2.0000     -10.322805      -280.8978
   5   2.0000     -10.313854      -280.6542
   6   2.0000     -10.311172      -280.5812
   7   2.0000     -10.306941      -280.4661
   8   2.0000     -10.306037      -280.4415
   9   2.0000     -10.305084      -280.4156
  10   2.0000     -10.301418      -280.3158
  11   2.0000     -10.291051      -280.0337
  12   2.0000     -10.282655      -279.8053
  13   2.0000     -10.276242      -279.6308
  14   2.0000     -10.267678      -279.3977
  15   2.0000     -10.265356      -279.3345
  16   2.0000      -8.082923      -219.9475
  17   2.0000      -8.081546      -219.9100
  18   2.0000      -6.041595      -164.4002
  19   2.0000      -6.040122      -164.3601
  20   2.0000      -6.037718      -164.2947
  21   2.0000      -6.036025      -164.2486
  22   2.0000      -6.033480      -164.1793
  23   2.0000      -6.032173      -164.1438
  24   2.0000      -1.005603       -27.3639
  25   2.0000      -0.983570       -26.7643
  26   2.0000      -0.912150       -24.8209
  27   2.0000      -0.909579       -24.7509
  28   2.0000      -0.874004       -23.7829
  29   2.0000      -0.850080       -23.1318
  30   2.0000      -0.841333       -22.8938
  31   2.0000      -0.818625       -22.2759
  32   2.0000      -0.783610       -21.3231
  33   2.0000      -0.770481       -20.9659
  34   2.0000      -0.706797       -19.2329
  35   2.0000      -0.697734       -18.9863
  36   2.0000      -0.684757       -18.6332
  37   2.0000      -0.657431       -17.8896
  38   2.0000      -0.635703       -17.2984
  39   2.0000      -0.618642       -16.8341
  40   2.0000      -0.590163       -16.0592
  41   2.0000      -0.573147       -15.5961
  42   2.0000      -0.559697       -15.2301
  43   2.0000      -0.552315       -15.0293
  44   2.0000      -0.547441       -14.8966
  45   2.0000      -0.527564       -14.3557
  46   2.0000      -0.517335       -14.0774
  47   2.0000      -0.508067       -13.8252
  48   2.0000      -0.503877       -13.7112
  49   2.0000      -0.496539       -13.5115
  50   2.0000      -0.491989       -13.3877
  51   2.0000      -0.481297       -13.0968
  52   2.0000      -0.466433       -12.6923
  53   2.0000      -0.464703       -12.6452
  54   2.0000      -0.461192       -12.5497
  55   2.0000      -0.450380       -12.2555
  56   2.0000      -0.443190       -12.0598
  57   2.0000      -0.438856       -11.9419
  58   2.0000      -0.429997       -11.7008
  59   2.0000      -0.428221       -11.6525
  60   2.0000      -0.410450       -11.1689
  61   2.0000      -0.403683       -10.9848
  62   2.0000      -0.403038       -10.9672
  63   2.0000      -0.345696        -9.4069
  64   2.0000      -0.334915        -9.1135
  65   2.0000      -0.327569        -8.9136
  66   2.0000      -0.297592        -8.0979
  67   0.0000       0.027917         0.7597
  68   0.0000       0.054816         1.4916
  69   0.0000       0.102580         2.7913
  70   0.0000       0.114277         3.1096
  71   0.0000       0.125698         3.4204

MULLIKEN ATOMIC CHARGES
-----------------------
   0 S :    0.105057
   1 C :   -0.100942
   2 C :   -0.077590
   3 C :    0.005249
   4 C :   -0.160053
   5 H :    0.048826
   6 C :    0.024703
   7 H :    0.037890
   8 H :    0.033615
   9 C :   -0.091168
  10 H :    0.027243
  11 H :    0.014130
  12 C :   -0.014029
  13 H :    0.037407
  14 H :    0.024949
  15 H :    0.018121
  16 S :    0.122110
  17 C :   -0.120917
  18 C :   -0.041784
  19 C :   -0.081083
  20 C :   -0.156535
  21 H :    0.042095
  22 C :    0.082119
  23 H :    0.014738
  24 H :    0.034497
  25 C :   -0.052577
  26 H :    0.018631
  27 H :   -0.001792
  28 C :   -0.039392
  29 H :    0.040192
  30 H :    0.039168
  31 H :    0.029372
  32 H :    0.052528
  33 H :    0.085224
Sum of atomic charges:    0.0000000

LOEWDIN ATOMIC CHARGES
----------------------
   0 S :    0.385491
   1 C :   -0.187196
   2 C :   -0.063418
   3 C :   -0.064671
   4 C :   -0.175723
   5 H :    0.047211
   6 C :   -0.034174
   7 H :    0.035870
   8 H :    0.031740
   9 C :   -0.052758
  10 H :    0.022902
  11 H :    0.020971
  12 C :   -0.063328
  13 H :    0.025671
  14 H :    0.028949
  15 H :    0.019865
  16 S :    0.415561
  17 C :   -0.199410
  18 C :   -0.080356
  19 C :   -0.045637
  20 C :   -0.217471
  21 H :    0.042342
  22 C :   -0.032541
  23 H :    0.018081
  24 H :    0.037447
  25 C :   -0.041542
  26 H :    0.021720
  27 H :    0.011148
  28 C :   -0.064125
  29 H :    0.024254
  30 H :    0.032172
  31 H :    0.021353
  32 H :    0.028347
  33 H :    0.051256

  Mayer bond orders larger than 0.100000
B(  0-S ,  1-C ) :   1.1263 B(  0-S ,  4-C ) :   1.1247 B(  1-C ,  2-C ) :   1.6533
B(  1-C , 32-H ) :   0.9574 B(  2-C ,  3-C ) :   1.2287 B(  2-C ,  6-C ) :   1.0229
B(  3-C ,  4-C ) :   1.5924 B(  3-C ,  5-H ) :   0.9790 B(  4-C , 20-C ) :   1.0575
B(  6-C ,  7-H ) :   0.9415 B(  6-C ,  8-H ) :   0.9468 B(  6-C ,  9-C ) :   1.0523
B(  9-C , 10-H ) :   0.9537 B(  9-C , 11-H ) :   0.9607 B(  9-C , 12-C ) :   1.0706
B( 12-C , 13-H ) :   0.9740 B( 12-C , 14-H ) :   0.9737 B( 12-C , 15-H ) :   0.9745
B( 16-S , 17-C ) :   1.1553 B( 16-S , 20-C ) :   1.1252 B( 17-C , 18-C ) :   1.6441
B( 17-C , 33-H ) :   0.9506 B( 18-C , 19-C ) :   1.2186 B( 18-C , 21-H ) :   0.9851
B( 19-C , 20-C ) :   1.5896 B( 19-C , 22-C ) :   1.0388 B( 22-C , 23-H ) :   0.9277
B( 22-C , 24-H ) :   0.9407 B( 22-C , 25-C ) :   1.0727 B( 25-C , 26-H ) :   0.9518
B( 25-C , 27-H ) :   0.9485 B( 25-C , 28-C ) :   1.0958 B( 28-C , 29-H ) :   0.9686
B( 28-C , 30-H ) :   0.9687 B( 28-C , 31-H ) :   0.9679

Dispersion correction           -0.016013674
FINAL SINGLE POINT ENERGY     -1339.863571002359

DIPOLE MOMENT
-------------
                                X             Y             Z
Electronic contribution:     25.22355       5.38998      -0.29388
Nuclear contribution   :    -25.54897      -5.62531       0.41005
                        -----------------------------------------
Total Dipole Moment    :     -0.32541      -0.23534       0.11617
                        -----------------------------------------
Magnitude (a.u.)       :      0.41806
Magnitude (Debye)      :      1.06262

Rotational constants in cm-1:     0.023552     0.008118     0.007392
Rotational constants in MHz :   706.079425   243.374181   221.607655

                             ****ORCA TERMINATED NORMALLY****
TOTAL RUN TIME: 0 days 0 hours 0 minutes 30 seconds 180 msec
