                         Program Version 4.2.1 -  RELEASE  -
|  1> ! wB97X-D3 SP def2-SVP
|  2> %pal
|  3> nprocs 16
|  4> end
|  5>
|  6> * xyz 0 1
|  7> S 	 -42.694 	 49.7665 	 104.549
|  8> C 	 -42.3896 	 49.0391 	 102.933
|  9> C 	 -41.6179 	 49.8873 	 102.162
| 10> C 	 -41.0229 	 50.9124 	 102.921
| 11> C 	 -41.5791 	 51.07 	 104.2
| 12> H 	 -40.3202 	 51.5997 	 102.455
| 13> C 	 -41.1448 	 49.6224 	 100.783
| 14> H 	 -41.5134 	 48.6252 	 100.515
| 15> H 	 -40.1045 	 49.5173 	 100.837
| 16> C 	 -41.5045 	 50.63 	 99.7689
| 17> H 	 -41.1886 	 51.6726 	 100.059
| 18> H 	 -40.879 	 50.3253 	 98.8871
| 19> C 	 -43.0952 	 50.5093 	 99.4962
| 20> H 	 -43.3253 	 49.481 	 99.2644
| 21> H 	 -43.7597 	 50.7372 	 100.354
| 22> H 	 -43.3619 	 51.2482 	 98.7372
| 23> S 	 -40.6769 	 51.4006 	 106.78
| 24> C 	 -40.1283 	 52.9106 	 107.316
| 25> C 	 -40.2696 	 53.8143 	 106.301
| 26> C 	 -40.9872 	 53.385 	 105.146
| 27> C 	 -41.2083 	 52.0083 	 105.23
| 28> H 	 -39.8501 	 54.8483 	 106.386
| 29> C 	 -41.2166 	 54.2492 	 103.935
| 30> H 	 -40.6975 	 53.8733 	 103.079
| 31> H 	 -40.9249 	 55.2665 	 104.224
| 32> C 	 -42.624 	 54.3752 	 103.455
| 33> H 	 -42.8486 	 53.3201 	 103.359
| 34> H 	 -42.5345 	 54.7762 	 102.414
| 35> C 	 -43.6744 	 55.0546 	 104.318
| 36> H 	 -43.4572 	 56.0991 	 104.601
| 37> H 	 -43.6938 	 54.6131 	 105.278
| 38> H 	 -44.6427 	 54.874 	 103.864
| 39> H 	 -42.8 	 48.161 	 102.495
| 40> H 	 -39.5443 	 53.1293 	 108.238
| 41> *
| 42>
| 43>                          ****END OF INPUT****

CARTESIAN COORDINATES (ANGSTROEM)
---------------------------------
  S    -42.694000   49.766500  104.549000
  C    -42.389600   49.039100  102.933000
  C    -41.617900   49.887300  102.162000
  C    -41.022900   50.912400  102.921000
  C    -41.579100   51.070000  104.200000
  H    -40.320200   51.599700  102.455000
  C    -41.144800   49.622400  100.783000
  H    -41.513400   48.625200  100.515000
  H    -40.104500   49.517300  100.837000
  C    -41.504500   50.630000   99.768900
  H    -41.188600   51.672600  100.059000
  H    -40.879000   50.325300   98.887100
  C    -43.095200   50.509300   99.496200
  H    -43.325300   49.481000   99.264400
  H    -43.759700   50.737200  100.354000
  H    -43.361900   51.248200   98.737200
  S    -40.676900   51.400600  106.780000
  C    -40.128300   52.910600  107.316000
  C    -40.269600   53.814300  106.301000
  C    -40.987200   53.385000  105.146000
  C    -41.208300   52.008300  105.230000
  H    -39.850100   54.848300  106.386000
  C    -41.216600   54.249200  103.935000
  H    -40.697500   53.873300  103.079000
  H    -40.924900   55.266500  104.224000
  C    -42.624000   54.375200  103.455000
  H    -42.848600   53.320100  103.359000
  H    -42.534500   54.776200  102.414000
  C    -43.674400   55.054600  104.318000
  H    -43.457200   56.099100  104.601000
  H    -43.693800   54.613100  105.278000
  H    -44.642700   54.874000  103.864000
  H    -42.800000   48.161000  102.495000
  H    -39.544300   53.129300  108.238000

 Total Charge           Charge          ....    0
 Multiplicity           Mult            ....    1
 Number of Electrons    NEL             ....  134
 Basis Dimension        Dim             ....  322

ORBITAL ENERGIES
----------------

  NO   OCC          E(Eh)            E(eV)
   0   2.0000     -88.969063     -2420.9713
   1   2.0000     -88.965465     -2420.8734
   2   2.0000     -10.333451      -281.1875
   3   2.0000     -10.325083      -280.9598
   4   2.0000     -10.315820      -280.7077
   5   2.0000     -10.314405      -280.6692
   6   2.0000     -10.301457      -280.3169
   7   2.0000     -10.299169      -280.2546
   8   2.0000     -10.294889      -280.1382
   9   2.0000     -10.294124      -280.1173
  10   2.0000     -10.293395      -280.0975
  11   2.0000     -10.285812      -279.8912
  12   2.0000     -10.284048      -279.8432
  13   2.0000     -10.282614      -279.8042
  14   2.0000     -10.277848      -279.6745
  15   2.0000     -10.270057      -279.4625
  16   2.0000      -8.082848      -219.9455
  17   2.0000      -8.081235      -219.9016
  18   2.0000      -6.041447      -164.3961
  19   2.0000      -6.039595      -164.3457
  20   2.0000      -6.037480      -164.2882
  21   2.0000      -6.035439      -164.2327
  22   2.0000      -6.033572      -164.1818
  23   2.0000      -6.032219      -164.1450
  24   2.0000      -1.011885       -27.5348
  25   2.0000      -0.987464       -26.8703
  26   2.0000      -0.922079       -25.0911
  27   2.0000      -0.918367       -24.9900
  28   2.0000      -0.868275       -23.6270
  29   2.0000      -0.850520       -23.1438
  30   2.0000      -0.840705       -22.8767
  31   2.0000      -0.810311       -22.0497
  32   2.0000      -0.789955       -21.4958
  33   2.0000      -0.780264       -21.2321
  34   2.0000      -0.716191       -19.4886
  35   2.0000      -0.700239       -19.0545
  36   2.0000      -0.685761       -18.6605
  37   2.0000      -0.658152       -17.9092
  38   2.0000      -0.635107       -17.2821
  39   2.0000      -0.625615       -17.0239
  40   2.0000      -0.594487       -16.1768
  41   2.0000      -0.570424       -15.5220
  42   2.0000      -0.561709       -15.2849
  43   2.0000      -0.555788       -15.1238
  44   2.0000      -0.548558       -14.9270
  45   2.0000      -0.533135       -14.5073
  46   2.0000      -0.518712       -14.1149
  47   2.0000      -0.512081       -13.9344
  48   2.0000      -0.507819       -13.8185
  49   2.0000      -0.496876       -13.5207
  50   2.0000      -0.488036       -13.2801
  51   2.0000      -0.480599       -13.0778
  52   2.0000      -0.472957       -12.8698
  53   2.0000      -0.470574       -12.8050
  54   2.0000      -0.456190       -12.4136
  55   2.0000      -0.449507       -12.2317
  56   2.0000      -0.446242       -12.1429
  57   2.0000      -0.440777       -11.9941
  58   2.0000      -0.431193       -11.7334
  59   2.0000      -0.421543       -11.4708
  60   2.0000      -0.420851       -11.4520
  61   2.0000      -0.414917       -11.2905
  62   2.0000      -0.404069       -10.9953
  63   2.0000      -0.344041        -9.3618
  64   2.0000      -0.333431        -9.0731
  65   2.0000      -0.330703        -8.9989
  66   2.0000      -0.291422        -7.9300
  67   0.0000       0.023702         0.6450
  68   0.0000       0.071618         1.9488
  69   0.0000       0.108660         2.9568
  70   0.0000       0.117964         3.2100
  71   0.0000       0.123167         3.3515

MULLIKEN ATOMIC CHARGES
-----------------------
   0 S :    0.109288
   1 C :   -0.103803
   2 C :   -0.102438
   3 C :    0.026984
   4 C :   -0.161891
   5 H :    0.013977
   6 C :    0.085663
   7 H :    0.004619
   8 H :    0.019951
   9 C :   -0.086624
  10 H :    0.037877
  11 H :    0.041393
  12 C :   -0.064584
  13 H :    0.026356
  14 H :    0.048440
  15 H :    0.041078
  16 S :    0.122751
  17 C :   -0.091766
  18 C :   -0.077767
  19 C :   -0.041447
  20 C :   -0.155722
  21 H :    0.029799
  22 C :    0.115422
  23 H :    0.023739
  24 H :    0.004159
  25 C :   -0.104760
  26 H :    0.027428
  27 H :    0.027947
  28 C :   -0.008768
  29 H :    0.026406
  30 H :    0.019201
  31 H :    0.040761
  32 H :    0.030596
  33 H :    0.075738
Sum of atomic charges:   -0.0000000

LOEWDIN ATOMIC CHARGES
----------------------
   0 S :    0.391617
   1 C :   -0.183440
   2 C :   -0.062123
   3 C :   -0.060815
   4 C :   -0.191850
   5 H :    0.028677
   6 C :   -0.036239
   7 H :    0.028280
   8 H :    0.026633
   9 C :   -0.039215
  10 H :    0.025994
  11 H :    0.032690
  12 C :   -0.066070
  13 H :    0.021835
  14 H :    0.032411
  15 H :    0.025987
  16 S :    0.436588
  17 C :   -0.215335
  18 C :   -0.080903
  19 C :   -0.057542
  20 C :   -0.208595
  21 H :    0.034700
  22 C :   -0.029078
  23 H :    0.030806
  24 H :    0.025951
  25 C :   -0.046532
  26 H :    0.024747
  27 H :    0.026998
  28 C :   -0.065064
  29 H :    0.026357
  30 H :    0.023435
  31 H :    0.031945
  32 H :    0.021946
  33 H :    0.045203

  Mayer bond orders larger than 0.100000
B(  0-S ,  1-C ) :   1.1211 B(  0-S ,  4-C ) :   1.1518 B(  1-C ,  2-C ) :   1.6090
B(  1-C ,  4-C ) :   0.1013 B(  1-C , 32-H ) :   0.9655 B(  2-C ,  3-C ) :   1.2536
B(  2-C ,  6-C ) :   1.0254 B(  3-C ,  4-C ) :   1.5470 B(  3-C ,  5-H ) :   0.9857
B(  4-C , 20-C ) :   1.0576 B(  6-C ,  7-H ) :   0.9363 B(  6-C ,  8-H ) :   0.9335
B(  6-C ,  9-C ) :   1.0781 B(  9-C , 10-H ) :   0.9557 B(  9-C , 11-H ) :   0.9546
B(  9-C , 12-C ) :   1.0522 B( 12-C , 13-H ) :   0.9763 B( 12-C , 14-H ) :   0.9776
B( 12-C , 15-H ) :   0.9779 B( 16-S , 17-C ) :   1.1661 B( 16-S , 20-C ) :   1.1646
B( 17-C , 18-C ) :   1.5857 B( 17-C , 33-H ) :   0.9621 B( 18-C , 19-C ) :   1.2792
B( 18-C , 21-H ) :   0.9779 B( 19-C , 20-C ) :   1.5340 B( 19-C , 22-C ) :   1.0519
B( 22-C , 23-H ) :   0.9275 B( 22-C , 24-H ) :   0.9255 B( 22-C , 25-C ) :   1.0744
B( 25-C , 26-H ) :   0.9536 B( 25-C , 27-H ) :   0.9525 B( 25-C , 28-C ) :   1.0812
B( 28-C , 29-H ) :   0.9720 B( 28-C , 30-H ) :   0.9682 B( 28-C , 31-H ) :   0.9716

Dispersion correction           -0.015214588
FINAL SINGLE POINT ENERGY     -1339.870791108469

DIPOLE MOMENT
-------------
                                X             Y             Z
Electronic contribution:      5.67113     -11.74831      23.70120
Nuclear contribution   :     -5.36154      11.98372     -24.24431
                        -----------------------------------------
Total Dipole Moment    :      0.30959       0.23541      -0.54311
                        -----------------------------------------
Magnitude (a.u.)       :      0.66801
Magnitude (Debye)      :      1.69794

Rotational constants in cm-1:     0.019935     0.009382     0.007549
Rotational constants in MHz :   597.639405   281.276589   226.315974

                             ****ORCA TERMINATED NORMALLY****
TOTAL RUN TIME: 0 days 0 hours 0 minutes 32 seconds 236 msec
