                         Program Version 4.2.1 -  RELEASE  -
|  1> ! wB97X-D3 SP def2-SVP
|  2> %pal
|  3> nprocs 16
|  4> end
|  5>
|  6> * xyz 0 1
|  7> S 	 18.2264 	 31.1852 	 62.7625
|  8> C 	 19.6098 	 31.6216 	 61.7772
|  9> C 	 20.476 	 32.4909 	 62.4074
| 10> C 	 20.1012 	 32.7175 	 63.773
| 11> C 	 18.9029 	 32.1816 	 64.0301
| 12> H 	 20.6347 	 33.3389 	 64.5286
| 13> C 	 21.8317 	 32.9424 	 61.8867
| 14> H 	 21.7636 	 33.3797 	 60.8687
| 15> H 	 22.3313 	 31.9344 	 61.7974
| 16> C 	 22.6783 	 33.8742 	 62.7583
| 17> H 	 22.1136 	 34.8345 	 63.0752
| 18> H 	 22.9156 	 33.4031 	 63.7633
| 19> C 	 24.0982 	 34.1695 	 62.2056
| 20> H 	 24.6365 	 33.2449 	 61.8381
| 21> H 	 23.8763 	 34.6921 	 61.2516
| 22> H 	 24.7198 	 34.7569 	 62.8788
| 23> S 	 16.4057 	 32.4407 	 64.955
| 24> C 	 16.0649 	 32.4056 	 66.6527
| 25> C 	 17.2292 	 32.1732 	 67.3228
| 26> C 	 18.3713 	 32.0858 	 66.5372
| 27> C 	 18.1074 	 32.2867 	 65.1921
| 28> H 	 17.135 	 32.0896 	 68.3375
| 29> C 	 19.7273 	 31.8789 	 67.1638
| 30> H 	 20.4524 	 31.8652 	 66.3579
| 31> H 	 19.5851 	 30.866 	 67.6539
| 32> C 	 20.1351 	 32.9864 	 68.205
| 33> H 	 21.2223 	 32.8256 	 68.4677
| 34> H 	 19.4678 	 32.75 	 69.1569
| 35> C 	 19.9722 	 34.3907 	 67.6337
| 36> H 	 20.4891 	 34.3892 	 66.65
| 37> H 	 20.2976 	 35.1924 	 68.2969
| 38> H 	 18.9165 	 34.6586 	 67.405
| 39> H 	 19.7389 	 31.2389 	 60.7837
| 40> H 	 15.0198 	 32.4881 	 67.1193
| 41> *
| 42>
| 43>                          ****END OF INPUT****

CARTESIAN COORDINATES (ANGSTROEM)
---------------------------------
  S     18.226400   31.185200   62.762500
  C     19.609800   31.621600   61.777200
  C     20.476000   32.490900   62.407400
  C     20.101200   32.717500   63.773000
  C     18.902900   32.181600   64.030100
  H     20.634700   33.338900   64.528600
  C     21.831700   32.942400   61.886700
  H     21.763600   33.379700   60.868700
  H     22.331300   31.934400   61.797400
  C     22.678300   33.874200   62.758300
  H     22.113600   34.834500   63.075200
  H     22.915600   33.403100   63.763300
  C     24.098200   34.169500   62.205600
  H     24.636500   33.244900   61.838100
  H     23.876300   34.692100   61.251600
  H     24.719800   34.756900   62.878800
  S     16.405700   32.440700   64.955000
  C     16.064900   32.405600   66.652700
  C     17.229200   32.173200   67.322800
  C     18.371300   32.085800   66.537200
  C     18.107400   32.286700   65.192100
  H     17.135000   32.089600   68.337500
  C     19.727300   31.878900   67.163800
  H     20.452400   31.865200   66.357900
  H     19.585100   30.866000   67.653900
  C     20.135100   32.986400   68.205000
  H     21.222300   32.825600   68.467700
  H     19.467800   32.750000   69.156900
  C     19.972200   34.390700   67.633700
  H     20.489100   34.389200   66.650000
  H     20.297600   35.192400   68.296900
  H     18.916500   34.658600   67.405000
  H     19.738900   31.238900   60.783700
  H     15.019800   32.488100   67.119300

 Total Charge           Charge          ....    0
 Multiplicity           Mult            ....    1
 Number of Electrons    NEL             ....  134
 Basis Dimension        Dim             ....  322

ORBITAL ENERGIES
----------------

  NO   OCC          E(Eh)            E(eV)
   0   2.0000     -88.965440     -2420.8727
   1   2.0000     -88.960372     -2420.7348
   2   2.0000     -10.320072      -280.8234
   3   2.0000     -10.316893      -280.7369
   4   2.0000     -10.315844      -280.7084
   5   2.0000     -10.308784      -280.5163
   6   2.0000     -10.303610      -280.3755
   7   2.0000     -10.303579      -280.3746
   8   2.0000     -10.302754      -280.3522
   9   2.0000     -10.301859      -280.3278
  10   2.0000     -10.294556      -280.1291
  11   2.0000     -10.294248      -280.1207
  12   2.0000     -10.292206      -280.0652
  13   2.0000     -10.289786      -279.9993
  14   2.0000     -10.282122      -279.7908
  15   2.0000     -10.279424      -279.7173
  16   2.0000      -8.080408      -219.8791
  17   2.0000      -8.076125      -219.7625
  18   2.0000      -6.038900      -164.3268
  19   2.0000      -6.035097      -164.2233
  20   2.0000      -6.034542      -164.2082
  21   2.0000      -6.030942      -164.1103
  22   2.0000      -6.030390      -164.0952
  23   2.0000      -6.026997      -164.0029
  24   2.0000      -1.017747       -27.6943
  25   2.0000      -0.989262       -26.9192
  26   2.0000      -0.911793       -24.8112
  27   2.0000      -0.906211       -24.6593
  28   2.0000      -0.875393       -23.8207
  29   2.0000      -0.852317       -23.1927
  30   2.0000      -0.843947       -22.9650
  31   2.0000      -0.818523       -22.2731
  32   2.0000      -0.780868       -21.2485
  33   2.0000      -0.769259       -20.9326
  34   2.0000      -0.711818       -19.3696
  35   2.0000      -0.689825       -18.7711
  36   2.0000      -0.688035       -18.7224
  37   2.0000      -0.660188       -17.9646
  38   2.0000      -0.640516       -17.4293
  39   2.0000      -0.624052       -16.9813
  40   2.0000      -0.589389       -16.0381
  41   2.0000      -0.568259       -15.4631
  42   2.0000      -0.561489       -15.2789
  43   2.0000      -0.553758       -15.0685
  44   2.0000      -0.541624       -14.7383
  45   2.0000      -0.530432       -14.4338
  46   2.0000      -0.515375       -14.0241
  47   2.0000      -0.508608       -13.8399
  48   2.0000      -0.502711       -13.6795
  49   2.0000      -0.495468       -13.4824
  50   2.0000      -0.490248       -13.3403
  51   2.0000      -0.483336       -13.1522
  52   2.0000      -0.472912       -12.8686
  53   2.0000      -0.467459       -12.7202
  54   2.0000      -0.457974       -12.4621
  55   2.0000      -0.453347       -12.3362
  56   2.0000      -0.444600       -12.0982
  57   2.0000      -0.436749       -11.8845
  58   2.0000      -0.433399       -11.7934
  59   2.0000      -0.424349       -11.5471
  60   2.0000      -0.414457       -11.2780
  61   2.0000      -0.411994       -11.2109
  62   2.0000      -0.407240       -11.0816
  63   2.0000      -0.352767        -9.5993
  64   2.0000      -0.332210        -9.0399
  65   2.0000      -0.329434        -8.9643
  66   2.0000      -0.284921        -7.7531
  67   0.0000       0.033437         0.9099
  68   0.0000       0.071626         1.9491
  69   0.0000       0.109892         2.9903
  70   0.0000       0.124947         3.4000
  71   0.0000       0.126576         3.4443

MULLIKEN ATOMIC CHARGES
-----------------------
   0 S :    0.117142
   1 C :   -0.130888
   2 C :   -0.053257
   3 C :   -0.032993
   4 C :   -0.100845
   5 H :    0.024100
   6 C :    0.033639
   7 H :    0.040318
   8 H :    0.054599
   9 C :   -0.144980
  10 H :    0.052254
  11 H :    0.034251
  12 C :   -0.044194
  13 H :    0.039402
  14 H :    0.027884
  15 H :    0.049636
  16 S :    0.094845
  17 C :   -0.122112
  18 C :   -0.012755
  19 C :   -0.029703
  20 C :   -0.169417
  21 H :   -0.023705
  22 C :    0.065246
  23 H :    0.013862
  24 H :    0.051461
  25 C :   -0.116022
  26 H :    0.047823
  27 H :    0.045852
  28 C :   -0.050744
  29 H :    0.027410
  30 H :    0.043231
  31 H :    0.048238
  32 H :    0.035930
  33 H :    0.084497
Sum of atomic charges:    0.0000000

LOEWDIN ATOMIC CHARGES
----------------------
   0 S :    0.403384
   1 C :   -0.199225
   2 C :   -0.056650
   3 C :   -0.073357
   4 C :   -0.181553
   5 H :    0.037132
   6 C :   -0.042549
   7 H :    0.034532
   8 H :    0.047643
   9 C :   -0.060516
  10 H :    0.033048
  11 H :    0.024169
  12 C :   -0.069901
  13 H :    0.032581
  14 H :    0.025916
  15 H :    0.028283
  16 S :    0.417783
  17 C :   -0.200938
  18 C :   -0.069917
  19 C :   -0.063903
  20 C :   -0.210935
  21 H :    0.016018
  22 C :   -0.033857
  23 H :    0.022499
  24 H :    0.044192
  25 C :   -0.049135
  26 H :    0.030525
  27 H :    0.030812
  28 C :   -0.074512
  29 H :    0.027141
  30 H :    0.027792
  31 H :    0.032989
  32 H :    0.021191
  33 H :    0.049317

  Mayer bond orders larger than 0.100000
B(  0-S ,  1-C ) :   1.1164 B(  0-S ,  4-C ) :   1.1403 B(  1-C ,  2-C ) :   1.6441
B(  1-C , 32-H ) :   0.9760 B(  2-C ,  3-C ) :   1.2124 B(  2-C ,  6-C ) :   1.0020
B(  3-C ,  4-C ) :   1.6052 B(  3-C ,  5-H ) :   0.9825 B(  4-C , 20-C ) :   1.0622
B(  6-C ,  7-H ) :   0.9395 B(  6-C ,  8-H ) :   0.9369 B(  6-C ,  9-C ) :   1.0837
B(  9-C , 10-H ) :   0.9527 B(  9-C , 11-H ) :   0.9424 B(  9-C , 12-C ) :   1.0710
B( 12-C , 13-H ) :   0.9731 B( 12-C , 14-H ) :   0.9743 B( 12-C , 15-H ) :   0.9742
B( 16-S , 17-C ) :   1.1591 B( 16-S , 20-C ) :   1.1505 B( 17-C , 18-C ) :   1.5844
B( 17-C , 20-C ) :   0.1025 B( 17-C , 33-H ) :   0.9588 B( 18-C , 19-C ) :   1.2495
B( 18-C , 21-H ) :   1.0125 B( 19-C , 20-C ) :   1.5455 B( 19-C , 22-C ) :   1.0385
B( 22-C , 23-H ) :   0.9327 B( 22-C , 24-H ) :   0.9349 B( 22-C , 25-C ) :   1.0614
B( 25-C , 26-H ) :   0.9584 B( 25-C , 27-H ) :   0.9504 B( 25-C , 28-C ) :   1.0696
B( 28-C , 29-H ) :   0.9711 B( 28-C , 30-H ) :   0.9720 B( 28-C , 31-H ) :   0.9663

Dispersion correction           -0.014878058
FINAL SINGLE POINT ENERGY     -1339.873579636279

DIPOLE MOMENT
-------------
                                X             Y             Z
Electronic contribution:    -26.69333     -11.56386      -6.90034
Nuclear contribution   :     27.22746      11.68380       7.16573
                        -----------------------------------------
Total Dipole Moment    :      0.53413       0.11994       0.26539
                        -----------------------------------------
Magnitude (a.u.)       :      0.60837
Magnitude (Debye)      :      1.54634

Rotational constants in cm-1:     0.018883     0.009463     0.006793
Rotational constants in MHz :   566.099470   283.696292   203.654212

                             ****ORCA TERMINATED NORMALLY****
TOTAL RUN TIME: 0 days 0 hours 0 minutes 36 seconds 664 msec
