                         Program Version 4.2.1 -  RELEASE  -
|  1> ! wB97X-D3 SP def2-SVP
|  2> %pal
|  3> nprocs 16
|  4> end
|  5>
|  6> * xyz 0 1
|  7> S 	 -4.25612 	 -13.714 	 80.294
|  8> C 	 -3.58019 	 -12.2001 	 79.6011
|  9> C 	 -4.52957 	 -11.2174 	 79.8174
| 10> C 	 -5.6425 	 -11.6315 	 80.5812
| 11> C 	 -5.66971 	 -12.9206 	 81.0025
| 12> H 	 -6.57853 	 -11.0513 	 80.7687
| 13> C 	 -4.41451 	 -9.73488 	 79.4281
| 14> H 	 -3.40678 	 -9.37562 	 79.6178
| 15> H 	 -5.09826 	 -9.07938 	 79.9984
| 16> C 	 -4.73702 	 -9.48561 	 77.9689
| 17> H 	 -4.01805 	 -9.99098 	 77.2483
| 18> H 	 -5.64125 	 -10.0141 	 77.6263
| 19> C 	 -4.91138 	 -8.02828 	 77.6697
| 20> H 	 -5.08397 	 -7.97249 	 76.5991
| 21> H 	 -5.77383 	 -7.51762 	 78.1223
| 22> H 	 -4.0214 	 -7.56525 	 77.904
| 23> S 	 -8.13409 	 -13.9293 	 80.8357
| 24> C 	 -9.02909 	 -14.6598 	 82.1456
| 25> C 	 -8.21868 	 -14.8367 	 83.2227
| 26> C 	 -6.95651 	 -14.1515 	 83.0092
| 27> C 	 -6.69584 	 -13.6945 	 81.7149
| 28> H 	 -8.56134 	 -15.2611 	 84.1818
| 29> C 	 -5.90209 	 -14.0942 	 84.1044
| 30> H 	 -4.97511 	 -13.6356 	 83.8763
| 31> H 	 -5.59009 	 -15.1011 	 84.3905
| 32> C 	 -6.43097 	 -13.3527 	 85.3
| 33> H 	 -7.07654 	 -12.4986 	 84.9889
| 34> H 	 -5.54025 	 -12.9043 	 85.8268
| 35> C 	 -6.9799 	 -14.1905 	 86.4307
| 36> H 	 -7.67166 	 -15.0073 	 86.2656
| 37> H 	 -7.38091 	 -13.5908 	 87.2186
| 38> H 	 -6.1631 	 -14.719 	 86.8444
| 39> H 	 -2.6576 	 -12.0448 	 78.9858
| 40> H 	 -10.0461 	 -14.9265 	 82.0518
| 41> *
| 42>
| 43>                          ****END OF INPUT****

CARTESIAN COORDINATES (ANGSTROEM)
---------------------------------
  S     -4.256120  -13.714000   80.294000
  C     -3.580190  -12.200100   79.601100
  C     -4.529570  -11.217400   79.817400
  C     -5.642500  -11.631500   80.581200
  C     -5.669710  -12.920600   81.002500
  H     -6.578530  -11.051300   80.768700
  C     -4.414510   -9.734880   79.428100
  H     -3.406780   -9.375620   79.617800
  H     -5.098260   -9.079380   79.998400
  C     -4.737020   -9.485610   77.968900
  H     -4.018050   -9.990980   77.248300
  H     -5.641250  -10.014100   77.626300
  C     -4.911380   -8.028280   77.669700
  H     -5.083970   -7.972490   76.599100
  H     -5.773830   -7.517620   78.122300
  H     -4.021400   -7.565250   77.904000
  S     -8.134090  -13.929300   80.835700
  C     -9.029090  -14.659800   82.145600
  C     -8.218680  -14.836700   83.222700
  C     -6.956510  -14.151500   83.009200
  C     -6.695840  -13.694500   81.714900
  H     -8.561340  -15.261100   84.181800
  C     -5.902090  -14.094200   84.104400
  H     -4.975110  -13.635600   83.876300
  H     -5.590090  -15.101100   84.390500
  C     -6.430970  -13.352700   85.300000
  H     -7.076540  -12.498600   84.988900
  H     -5.540250  -12.904300   85.826800
  C     -6.979900  -14.190500   86.430700
  H     -7.671660  -15.007300   86.265600
  H     -7.380910  -13.590800   87.218600
  H     -6.163100  -14.719000   86.844400
  H     -2.657600  -12.044800   78.985800
  H    -10.046100  -14.926500   82.051800

 Total Charge           Charge          ....    0
 Multiplicity           Mult            ....    1
 Number of Electrons    NEL             ....  134
 Basis Dimension        Dim             ....  322

ORBITAL ENERGIES
----------------

  NO   OCC          E(Eh)            E(eV)
   0   2.0000     -88.962836     -2420.8018
   1   2.0000     -88.959637     -2420.7148
   2   2.0000     -10.332658      -281.1659
   3   2.0000     -10.326227      -280.9909
   4   2.0000     -10.324560      -280.9456
   5   2.0000     -10.316648      -280.7303
   6   2.0000     -10.308279      -280.5025
   7   2.0000     -10.302195      -280.3370
   8   2.0000     -10.299237      -280.2565
   9   2.0000     -10.293990      -280.1137
  10   2.0000     -10.292562      -280.0749
  11   2.0000     -10.284913      -279.8667
  12   2.0000     -10.284437      -279.8538
  13   2.0000     -10.280604      -279.7495
  14   2.0000     -10.269806      -279.4556
  15   2.0000     -10.268552      -279.4215
  16   2.0000      -8.076574      -219.7748
  17   2.0000      -8.075726      -219.7517
  18   2.0000      -6.035233      -164.2270
  19   2.0000      -6.034212      -164.1993
  20   2.0000      -6.031126      -164.1153
  21   2.0000      -6.029801      -164.0792
  22   2.0000      -6.027265      -164.0102
  23   2.0000      -6.026633      -163.9930
  24   2.0000      -1.010609       -27.5001
  25   2.0000      -0.986828       -26.8530
  26   2.0000      -0.915348       -24.9079
  27   2.0000      -0.913355       -24.8537
  28   2.0000      -0.876243       -23.8438
  29   2.0000      -0.846303       -23.0291
  30   2.0000      -0.843201       -22.9447
  31   2.0000      -0.821551       -22.3555
  32   2.0000      -0.784685       -21.3524
  33   2.0000      -0.774204       -21.0672
  34   2.0000      -0.704767       -19.1777
  35   2.0000      -0.696256       -18.9461
  36   2.0000      -0.690714       -18.7953
  37   2.0000      -0.664300       -18.0765
  38   2.0000      -0.641749       -17.4629
  39   2.0000      -0.618398       -16.8275
  40   2.0000      -0.607114       -16.5204
  41   2.0000      -0.575285       -15.6543
  42   2.0000      -0.560951       -15.2643
  43   2.0000      -0.548131       -14.9154
  44   2.0000      -0.539175       -14.6717
  45   2.0000      -0.532367       -14.4864
  46   2.0000      -0.519920       -14.1477
  47   2.0000      -0.517395       -14.0790
  48   2.0000      -0.513815       -13.9816
  49   2.0000      -0.501390       -13.6435
  50   2.0000      -0.490012       -13.3339
  51   2.0000      -0.481859       -13.1121
  52   2.0000      -0.475038       -12.9264
  53   2.0000      -0.471378       -12.8268
  54   2.0000      -0.462787       -12.5931
  55   2.0000      -0.447537       -12.1781
  56   2.0000      -0.437963       -11.9176
  57   2.0000      -0.434495       -11.8232
  58   2.0000      -0.432544       -11.7701
  59   2.0000      -0.414976       -11.2921
  60   2.0000      -0.412999       -11.2383
  61   2.0000      -0.404765       -11.0142
  62   2.0000      -0.401693       -10.9306
  63   2.0000      -0.338652        -9.2152
  64   2.0000      -0.331376        -9.0172
  65   2.0000      -0.322529        -8.7764
  66   2.0000      -0.310556        -8.4507
  67   0.0000       0.039268         1.0685
  68   0.0000       0.060315         1.6413
  69   0.0000       0.118332         3.2200
  70   0.0000       0.120853         3.2886
  71   0.0000       0.127743         3.4761

MULLIKEN ATOMIC CHARGES
-----------------------
   0 S :    0.091605
   1 C :   -0.130056
   2 C :   -0.074473
   3 C :    0.023863
   4 C :   -0.146503
   5 H :    0.028928
   6 C :    0.071119
   7 H :    0.026965
   8 H :    0.024528
   9 C :   -0.125099
  10 H :    0.026882
  11 H :    0.022489
  12 C :    0.001205
  13 H :    0.025975
  14 H :    0.038070
  15 H :    0.012276
  16 S :    0.098301
  17 C :   -0.079003
  18 C :   -0.007075
  19 C :   -0.071181
  20 C :   -0.142219
  21 H :    0.033974
  22 C :    0.106716
  23 H :    0.011342
  24 H :    0.022104
  25 C :   -0.115570
  26 H :    0.044830
  27 H :    0.028989
  28 C :   -0.019028
  29 H :    0.013262
  30 H :    0.028286
  31 H :    0.009591
  32 H :    0.070866
  33 H :    0.048041
Sum of atomic charges:   -0.0000000

LOEWDIN ATOMIC CHARGES
----------------------
   0 S :    0.381429
   1 C :   -0.189593
   2 C :   -0.066851
   3 C :   -0.070350
   4 C :   -0.192411
   5 H :    0.040120
   6 C :   -0.029756
   7 H :    0.029365
   8 H :    0.032493
   9 C :   -0.052520
  10 H :    0.026924
  11 H :    0.023058
  12 C :   -0.059025
  13 H :    0.029782
  14 H :    0.028692
  15 H :    0.012997
  16 S :    0.429852
  17 C :   -0.170434
  18 C :   -0.073644
  19 C :   -0.046766
  20 C :   -0.225924
  21 H :    0.038805
  22 C :   -0.032394
  23 H :    0.027176
  24 H :    0.031929
  25 C :   -0.046648
  26 H :    0.027804
  27 H :    0.033185
  28 C :   -0.067739
  29 H :    0.015475
  30 H :    0.025437
  31 H :    0.021075
  32 H :    0.045595
  33 H :    0.022862

  Mayer bond orders larger than 0.100000
B(  0-S ,  1-C ) :   1.1314 B(  0-S ,  4-C ) :   1.1386 B(  1-C ,  2-C ) :   1.6077
B(  1-C ,  4-C ) :   0.1055 B(  1-C , 32-H ) :   0.9657 B(  2-C ,  3-C ) :   1.2431
B(  2-C ,  6-C ) :   1.0147 B(  3-C ,  4-C ) :   1.6165 B(  3-C ,  5-H ) :   0.9864
B(  4-C , 20-C ) :   0.9827 B(  6-C ,  7-H ) :   0.9399 B(  6-C ,  8-H ) :   0.9501
B(  6-C ,  9-C ) :   1.0568 B(  9-C , 10-H ) :   0.9513 B(  9-C , 11-H ) :   0.9545
B(  9-C , 12-C ) :   1.0906 B( 12-C , 13-H ) :   0.9693 B( 12-C , 14-H ) :   0.9727
B( 12-C , 15-H ) :   0.9710 B( 16-S , 17-C ) :   1.1786 B( 16-S , 20-C ) :   1.1476
B( 17-C , 18-C ) :   1.5826 B( 17-C , 33-H ) :   0.9747 B( 18-C , 19-C ) :   1.2440
B( 18-C , 21-H ) :   0.9856 B( 19-C , 20-C ) :   1.5968 B( 19-C , 22-C ) :   1.0536
B( 22-C , 23-H ) :   0.9390 B( 22-C , 24-H ) :   0.9393 B( 22-C , 25-C ) :   1.0525
B( 25-C , 26-H ) :   0.9610 B( 25-C , 27-H ) :   0.9583 B( 25-C , 28-C ) :   1.0723
B( 28-C , 29-H ) :   0.9731 B( 28-C , 30-H ) :   0.9706 B( 28-C , 31-H ) :   0.9701

Dispersion correction           -0.013641897
FINAL SINGLE POINT ENERGY     -1339.861423614496

DIPOLE MOMENT
-------------
                                X             Y             Z
Electronic contribution:     -3.03268     -15.81855      -7.83658
Nuclear contribution   :      2.97166      16.21753       8.08036
                        -----------------------------------------
Total Dipole Moment    :     -0.06102       0.39898       0.24379
                        -----------------------------------------
Magnitude (a.u.)       :      0.47153
Magnitude (Debye)      :      1.19854

Rotational constants in cm-1:     0.023373     0.006591     0.006237
Rotational constants in MHz :   700.712694   197.604294   186.987730

                             ****ORCA TERMINATED NORMALLY****
TOTAL RUN TIME: 0 days 0 hours 0 minutes 32 seconds 349 msec
