                         Program Version 4.2.1 -  RELEASE  -
|  1> ! wB97X-D3 SP def2-SVP
|  2> %pal
|  3> nprocs 16
|  4> end
|  5>
|  6> * xyz 0 1
|  7> S 	 -99.6632 	 53.3892 	 115.405
|  8> C 	 -99.377 	 52.4184 	 113.928
|  9> C 	 -100.216 	 52.7876 	 112.89
| 10> C 	 -101.203 	 53.7586 	 113.34
| 11> C 	 -101.005 	 54.1777 	 114.638
| 12> H 	 -101.901 	 54.2882 	 112.753
| 13> C 	 -100.06 	 52.335 	 111.46
| 14> H 	 -99.8064 	 53.2674 	 110.981
| 15> H 	 -101.087 	 52.0705 	 111.143
| 16> C 	 -98.9362 	 51.3482 	 111.195
| 17> H 	 -98.803 	 51.4031 	 110.117
| 18> H 	 -97.968 	 51.8603 	 111.616
| 19> C 	 -99.0251 	 49.9011 	 111.776
| 20> H 	 -98.1597 	 49.4938 	 111.317
| 21> H 	 -99.0717 	 49.7825 	 112.898
| 22> H 	 -99.926 	 49.3531 	 111.294
| 23> S 	 -100.799 	 56.4425 	 116.238
| 24> C 	 -102.128 	 57.4793 	 116.534
| 25> C 	 -103.21 	 56.9916 	 115.855
| 26> C 	 -103.046 	 55.68 	 115.202
| 27> C 	 -101.703 	 55.2647 	 115.316
| 28> H 	 -104.078 	 57.6572 	 115.827
| 29> C 	 -104.121 	 54.9742 	 114.332
| 30> H 	 -103.945 	 53.8896 	 114.417
| 31> H 	 -103.798 	 55.0877 	 113.314
| 32> C 	 -105.624 	 55.3464 	 114.411
| 33> H 	 -105.921 	 55.1977 	 115.437
| 34> H 	 -106.228 	 54.6225 	 113.796
| 35> C 	 -105.926 	 56.754 	 113.868
| 36> H 	 -107.024 	 56.7979 	 113.839
| 37> H 	 -105.588 	 56.8221 	 112.868
| 38> H 	 -105.572 	 57.6188 	 114.332
| 39> H 	 -98.593 	 51.6986 	 113.926
| 40> H 	 -102.176 	 58.4213 	 117.021
| 41> *
| 42>
| 43>                          ****END OF INPUT****

CARTESIAN COORDINATES (ANGSTROEM)
---------------------------------
  S    -99.663200   53.389200  115.405000
  C    -99.377000   52.418400  113.928000
  C    -100.216000   52.787600  112.890000
  C    -101.203000   53.758600  113.340000
  C    -101.005000   54.177700  114.638000
  H    -101.901000   54.288200  112.753000
  C    -100.060000   52.335000  111.460000
  H    -99.806400   53.267400  110.981000
  H    -101.087000   52.070500  111.143000
  C    -98.936200   51.348200  111.195000
  H    -98.803000   51.403100  110.117000
  H    -97.968000   51.860300  111.616000
  C    -99.025100   49.901100  111.776000
  H    -98.159700   49.493800  111.317000
  H    -99.071700   49.782500  112.898000
  H    -99.926000   49.353100  111.294000
  S    -100.799000   56.442500  116.238000
  C    -102.128000   57.479300  116.534000
  C    -103.210000   56.991600  115.855000
  C    -103.046000   55.680000  115.202000
  C    -101.703000   55.264700  115.316000
  H    -104.078000   57.657200  115.827000
  C    -104.121000   54.974200  114.332000
  H    -103.945000   53.889600  114.417000
  H    -103.798000   55.087700  113.314000
  C    -105.624000   55.346400  114.411000
  H    -105.921000   55.197700  115.437000
  H    -106.228000   54.622500  113.796000
  C    -105.926000   56.754000  113.868000
  H    -107.024000   56.797900  113.839000
  H    -105.588000   56.822100  112.868000
  H    -105.572000   57.618800  114.332000
  H    -98.593000   51.698600  113.926000
  H    -102.176000   58.421300  117.021000

 Total Charge           Charge          ....    0
 Multiplicity           Mult            ....    1
 Number of Electrons    NEL             ....  134
 Basis Dimension        Dim             ....  322

ORBITAL ENERGIES
----------------

  NO   OCC          E(Eh)            E(eV)
   0   2.0000     -88.962725     -2420.7988
   1   2.0000     -88.962065     -2420.7809
   2   2.0000     -10.329623      -281.0833
   3   2.0000     -10.327637      -281.0293
   4   2.0000     -10.312349      -280.6133
   5   2.0000     -10.312271      -280.6112
   6   2.0000     -10.310387      -280.5599
   7   2.0000     -10.305159      -280.4176
   8   2.0000     -10.301072      -280.3064
   9   2.0000     -10.294983      -280.1407
  10   2.0000     -10.294430      -280.1257
  11   2.0000     -10.294068      -280.1158
  12   2.0000     -10.293768      -280.1077
  13   2.0000     -10.293042      -280.0879
  14   2.0000     -10.293027      -280.0875
  15   2.0000     -10.273199      -279.5480
  16   2.0000      -8.078056      -219.8151
  17   2.0000      -8.076772      -219.7801
  18   2.0000      -6.036647      -164.2655
  19   2.0000      -6.035302      -164.2289
  20   2.0000      -6.032325      -164.1479
  21   2.0000      -6.031373      -164.1220
  22   2.0000      -6.028823      -164.0526
  23   2.0000      -6.027429      -164.0147
  24   2.0000      -1.005072       -27.3494
  25   2.0000      -0.981085       -26.6967
  26   2.0000      -0.914747       -24.8915
  27   2.0000      -0.905622       -24.6432
  28   2.0000      -0.867619       -23.6091
  29   2.0000      -0.850905       -23.1543
  30   2.0000      -0.838982       -22.8299
  31   2.0000      -0.814777       -22.1712
  32   2.0000      -0.789779       -21.4910
  33   2.0000      -0.779430       -21.2094
  34   2.0000      -0.708307       -19.2740
  35   2.0000      -0.705412       -19.1952
  36   2.0000      -0.695621       -18.9288
  37   2.0000      -0.653301       -17.7772
  38   2.0000      -0.639241       -17.3946
  39   2.0000      -0.610568       -16.6144
  40   2.0000      -0.593050       -16.1377
  41   2.0000      -0.573624       -15.6091
  42   2.0000      -0.554558       -15.0903
  43   2.0000      -0.550511       -14.9802
  44   2.0000      -0.540632       -14.7113
  45   2.0000      -0.536145       -14.5892
  46   2.0000      -0.522595       -14.2205
  47   2.0000      -0.513441       -13.9714
  48   2.0000      -0.506715       -13.7884
  49   2.0000      -0.500182       -13.6106
  50   2.0000      -0.488835       -13.3019
  51   2.0000      -0.485255       -13.2045
  52   2.0000      -0.481680       -13.1072
  53   2.0000      -0.466197       -12.6859
  54   2.0000      -0.458364       -12.4727
  55   2.0000      -0.448358       -12.2004
  56   2.0000      -0.439280       -11.9534
  57   2.0000      -0.431134       -11.7318
  58   2.0000      -0.429174       -11.6784
  59   2.0000      -0.427532       -11.6337
  60   2.0000      -0.421904       -11.4806
  61   2.0000      -0.416336       -11.3291
  62   2.0000      -0.412887       -11.2352
  63   2.0000      -0.352793        -9.6000
  64   2.0000      -0.327106        -8.9010
  65   2.0000      -0.323393        -8.8000
  66   2.0000      -0.288401        -7.8478
  67   0.0000       0.028593         0.7780
  68   0.0000       0.082270         2.2387
  69   0.0000       0.110191         2.9984
  70   0.0000       0.122979         3.3464
  71   0.0000       0.134285         3.6541

MULLIKEN ATOMIC CHARGES
-----------------------
   0 S :    0.097500
   1 C :   -0.136456
   2 C :   -0.091576
   3 C :    0.012358
   4 C :   -0.132234
   5 H :   -0.010763
   6 C :    0.102199
   7 H :    0.036401
   8 H :    0.034806
   9 C :   -0.125436
  10 H :    0.034653
  11 H :    0.038695
  12 C :   -0.061928
  13 H :    0.038134
  14 H :    0.063110
  15 H :    0.044803
  16 S :    0.106973
  17 C :   -0.066345
  18 C :   -0.080470
  19 C :   -0.024531
  20 C :   -0.136118
  21 H :    0.019033
  22 C :    0.020551
  23 H :    0.034931
  24 H :    0.024593
  25 C :   -0.039521
  26 H :    0.034458
  27 H :    0.036853
  28 C :   -0.026109
  29 H :    0.031594
  30 H :    0.015790
  31 H :    0.021493
  32 H :    0.037092
  33 H :    0.045464
Sum of atomic charges:    0.0000000

LOEWDIN ATOMIC CHARGES
----------------------
   0 S :    0.386352
   1 C :   -0.187465
   2 C :   -0.052526
   3 C :   -0.063907
   4 C :   -0.185998
   5 H :    0.022140
   6 C :   -0.037764
   7 H :    0.039349
   8 H :    0.034342
   9 C :   -0.051010
  10 H :    0.028364
  11 H :    0.035387
  12 C :   -0.073638
  13 H :    0.025557
  14 H :    0.034368
  15 H :    0.036367
  16 S :    0.419701
  17 C :   -0.200506
  18 C :   -0.080723
  19 C :   -0.050364
  20 C :   -0.204142
  21 H :    0.028821
  22 C :   -0.042738
  23 H :    0.036826
  24 H :    0.023997
  25 C :   -0.034437
  26 H :    0.023113
  27 H :    0.036715
  28 C :   -0.059303
  29 H :    0.031512
  30 H :    0.021742
  31 H :    0.013312
  32 H :    0.015311
  33 H :    0.031245

  Mayer bond orders larger than 0.100000
B(  0-S ,  1-C ) :   1.1100 B(  0-S ,  4-C ) :   1.1500 B(  1-C ,  2-C ) :   1.6380
B(  1-C , 32-H ) :   0.9655 B(  2-C ,  3-C ) :   1.2080 B(  2-C ,  6-C ) :   0.9999
B(  3-C ,  4-C ) :   1.5864 B(  3-C ,  5-H ) :   0.9982 B(  4-C , 20-C ) :   1.0540
B(  6-C ,  7-H ) :   0.9298 B(  6-C ,  8-H ) :   0.9323 B(  6-C ,  9-C ) :   1.0923
B(  9-C , 10-H ) :   0.9537 B(  9-C , 11-H ) :   0.9440 B(  9-C , 12-C ) :   1.0576
B( 12-C , 13-H ) :   0.9738 B( 12-C , 14-H ) :   0.9724 B( 12-C , 15-H ) :   0.9725
B( 16-S , 17-C ) :   1.1485 B( 16-S , 20-C ) :   1.1502 B( 17-C , 18-C ) :   1.6287
B( 17-C , 33-H ) :   0.9680 B( 18-C , 19-C ) :   1.2288 B( 18-C , 21-H ) :   0.9825
B( 19-C , 20-C ) :   1.5733 B( 19-C , 22-C ) :   1.0352 B( 22-C , 23-H ) :   0.9278
B( 22-C , 24-H ) :   0.9307 B( 22-C , 25-C ) :   1.0706 B( 25-C , 26-H ) :   0.9588
B( 25-C , 27-H ) :   0.9504 B( 25-C , 28-C ) :   1.0691 B( 28-C , 29-H ) :   0.9725
B( 28-C , 30-H ) :   0.9708 B( 28-C , 31-H ) :   0.9792

Dispersion correction           -0.013881477
FINAL SINGLE POINT ENERGY     -1339.868012467376

DIPOLE MOMENT
-------------
                                X             Y             Z
Electronic contribution:     12.50079       8.92289      19.27645
Nuclear contribution   :    -12.85150      -8.91822     -20.08862
                        -----------------------------------------
Total Dipole Moment    :     -0.35072       0.00466      -0.81216
                        -----------------------------------------
Magnitude (a.u.)       :      0.88467
Magnitude (Debye)      :      2.24864

Rotational constants in cm-1:     0.022244     0.007421     0.005906
Rotational constants in MHz :   666.871775   222.472143   177.064428

                             ****ORCA TERMINATED NORMALLY****
TOTAL RUN TIME: 0 days 0 hours 0 minutes 34 seconds 369 msec
