                         Program Version 4.2.1 -  RELEASE  -
|  1> ! wB97X-D3 SP def2-SVP
|  2> %pal
|  3> nprocs 16
|  4> end
|  5>
|  6> * xyz 0 1
|  7> S 	 -48.8981 	 38.9914 	 84.4495
|  8> C 	 -48.214 	 37.6931 	 83.4384
|  9> C 	 -48.2029 	 38.0367 	 82.1232
| 10> C 	 -48.575 	 39.4711 	 81.9392
| 11> C 	 -48.9629 	 40.0838 	 83.0994
| 12> H 	 -48.5737 	 39.9671 	 80.9799
| 13> C 	 -47.841 	 37.1539 	 81.0108
| 14> H 	 -47.2934 	 36.2965 	 81.4634
| 15> H 	 -47.1388 	 37.7117 	 80.4034
| 16> C 	 -48.9428 	 36.6072 	 80.0928
| 17> H 	 -48.4436 	 36.1678 	 79.2584
| 18> H 	 -49.5688 	 35.8937 	 80.633
| 19> C 	 -49.8579 	 37.7213 	 79.5405
| 20> H 	 -50.5728 	 38.2324 	 80.2217
| 21> H 	 -49.3297 	 38.6454 	 79.0768
| 22> H 	 -50.4057 	 37.3046 	 78.6629
| 23> S 	 -48.291 	 42.4787 	 84.15
| 24> C 	 -49.3233 	 43.8385 	 83.8783
| 25> C 	 -50.222 	 43.5994 	 82.8394
| 26> C 	 -50.2091 	 42.2093 	 82.4708
| 27> C 	 -49.3382 	 41.4628 	 83.2487
| 28> H 	 -50.9013 	 44.4102 	 82.5012
| 29> C 	 -51.236 	 41.6969 	 81.4383
| 30> H 	 -50.6712 	 40.9708 	 80.9268
| 31> H 	 -51.5391 	 42.4499 	 80.7149
| 32> C 	 -52.3711 	 40.9521 	 82.1175
| 33> H 	 -52.1272 	 40.1443 	 82.8226
| 34> H 	 -52.847 	 40.3843 	 81.3207
| 35> C 	 -53.4332 	 41.8595 	 82.7442
| 36> H 	 -54.0575 	 42.2646 	 81.9796
| 37> H 	 -52.9441 	 42.6719 	 83.3924
| 38> H 	 -54.1311 	 41.2968 	 83.2146
| 39> H 	 -47.9916 	 36.7138 	 83.6414
| 40> H 	 -49.2587 	 44.7973 	 84.4397
| 41> *
| 42>
| 43>                          ****END OF INPUT****

CARTESIAN COORDINATES (ANGSTROEM)
---------------------------------
  S    -48.898100   38.991400   84.449500
  C    -48.214000   37.693100   83.438400
  C    -48.202900   38.036700   82.123200
  C    -48.575000   39.471100   81.939200
  C    -48.962900   40.083800   83.099400
  H    -48.573700   39.967100   80.979900
  C    -47.841000   37.153900   81.010800
  H    -47.293400   36.296500   81.463400
  H    -47.138800   37.711700   80.403400
  C    -48.942800   36.607200   80.092800
  H    -48.443600   36.167800   79.258400
  H    -49.568800   35.893700   80.633000
  C    -49.857900   37.721300   79.540500
  H    -50.572800   38.232400   80.221700
  H    -49.329700   38.645400   79.076800
  H    -50.405700   37.304600   78.662900
  S    -48.291000   42.478700   84.150000
  C    -49.323300   43.838500   83.878300
  C    -50.222000   43.599400   82.839400
  C    -50.209100   42.209300   82.470800
  C    -49.338200   41.462800   83.248700
  H    -50.901300   44.410200   82.501200
  C    -51.236000   41.696900   81.438300
  H    -50.671200   40.970800   80.926800
  H    -51.539100   42.449900   80.714900
  C    -52.371100   40.952100   82.117500
  H    -52.127200   40.144300   82.822600
  H    -52.847000   40.384300   81.320700
  C    -53.433200   41.859500   82.744200
  H    -54.057500   42.264600   81.979600
  H    -52.944100   42.671900   83.392400
  H    -54.131100   41.296800   83.214600
  H    -47.991600   36.713800   83.641400
  H    -49.258700   44.797300   84.439700

 Total Charge           Charge          ....    0
 Multiplicity           Mult            ....    1
 Number of Electrons    NEL             ....  134
 Basis Dimension        Dim             ....  322

ORBITAL ENERGIES
----------------

  NO   OCC          E(Eh)            E(eV)
   0   2.0000     -88.964519     -2420.8476
   1   2.0000     -88.963588     -2420.8223
   2   2.0000     -10.325385      -280.9680
   3   2.0000     -10.318334      -280.7761
   4   2.0000     -10.317280      -280.7475
   5   2.0000     -10.306657      -280.4584
   6   2.0000     -10.303215      -280.3647
   7   2.0000     -10.298331      -280.2318
   8   2.0000     -10.296143      -280.1723
   9   2.0000     -10.294546      -280.1288
  10   2.0000     -10.292531      -280.0740
  11   2.0000     -10.290861      -280.0286
  12   2.0000     -10.290847      -280.0282
  13   2.0000     -10.287496      -279.9370
  14   2.0000     -10.280801      -279.7548
  15   2.0000     -10.266458      -279.3645
  16   2.0000      -8.079452      -219.8531
  17   2.0000      -8.078907      -219.8382
  18   2.0000      -6.037873      -164.2989
  19   2.0000      -6.037665      -164.2932
  20   2.0000      -6.033861      -164.1897
  21   2.0000      -6.033502      -164.1799
  22   2.0000      -6.030171      -164.0893
  23   2.0000      -6.029374      -164.0676
  24   2.0000      -1.010278       -27.4911
  25   2.0000      -0.983530       -26.7632
  26   2.0000      -0.917398       -24.9637
  27   2.0000      -0.909944       -24.7608
  28   2.0000      -0.871944       -23.7268
  29   2.0000      -0.847993       -23.0750
  30   2.0000      -0.840075       -22.8596
  31   2.0000      -0.814586       -22.1660
  32   2.0000      -0.787286       -21.4231
  33   2.0000      -0.775414       -21.1001
  34   2.0000      -0.708094       -19.2682
  35   2.0000      -0.706112       -19.2143
  36   2.0000      -0.688930       -18.7467
  37   2.0000      -0.660131       -17.9631
  38   2.0000      -0.637135       -17.3373
  39   2.0000      -0.612870       -16.6770
  40   2.0000      -0.591718       -16.1015
  41   2.0000      -0.579045       -15.7566
  42   2.0000      -0.559759       -15.2318
  43   2.0000      -0.549501       -14.9527
  44   2.0000      -0.541421       -14.7328
  45   2.0000      -0.539146       -14.6709
  46   2.0000      -0.516988       -14.0680
  47   2.0000      -0.516415       -14.0524
  48   2.0000      -0.506243       -13.7756
  49   2.0000      -0.494934       -13.4679
  50   2.0000      -0.489844       -13.3293
  51   2.0000      -0.475513       -12.9394
  52   2.0000      -0.472798       -12.8655
  53   2.0000      -0.466378       -12.6908
  54   2.0000      -0.455988       -12.4081
  55   2.0000      -0.446337       -12.1455
  56   2.0000      -0.439705       -11.9650
  57   2.0000      -0.436986       -11.8910
  58   2.0000      -0.431116       -11.7313
  59   2.0000      -0.428291       -11.6544
  60   2.0000      -0.422863       -11.5067
  61   2.0000      -0.420316       -11.4374
  62   2.0000      -0.403046       -10.9674
  63   2.0000      -0.340896        -9.2763
  64   2.0000      -0.328454        -8.9377
  65   2.0000      -0.322976        -8.7886
  66   2.0000      -0.298864        -8.1325
  67   0.0000       0.031589         0.8596
  68   0.0000       0.074249         2.0204
  69   0.0000       0.109897         2.9904
  70   0.0000       0.117087         3.1861
  71   0.0000       0.123338         3.3562

MULLIKEN ATOMIC CHARGES
-----------------------
   0 S :    0.109659
   1 C :   -0.058668
   2 C :   -0.118680
   3 C :    0.039523
   4 C :   -0.174389
   5 H :    0.014839
   6 C :    0.042976
   7 H :    0.020623
   8 H :    0.027624
   9 C :    0.002224
  10 H :    0.031882
  11 H :    0.035832
  12 C :   -0.140074
  13 H :    0.060966
  14 H :    0.029739
  15 H :    0.040639
  16 S :    0.126409
  17 C :   -0.116283
  18 C :   -0.052979
  19 C :   -0.064075
  20 C :   -0.142357
  21 H :    0.036163
  22 C :    0.152661
  23 H :   -0.020378
  24 H :    0.026751
  25 C :   -0.094850
  26 H :    0.039576
  27 H :    0.014393
  28 C :   -0.002439
  29 H :    0.008033
  30 H :    0.052743
  31 H :    0.001403
  32 H :    0.000295
  33 H :    0.070221
Sum of atomic charges:   -0.0000000

LOEWDIN ATOMIC CHARGES
----------------------
   0 S :    0.391535
   1 C :   -0.177546
   2 C :   -0.057381
   3 C :   -0.056400
   4 C :   -0.201322
   5 H :    0.026722
   6 C :   -0.039326
   7 H :    0.033823
   8 H :    0.031935
   9 C :   -0.028913
  10 H :    0.026697
  11 H :    0.028562
  12 C :   -0.085369
  13 H :    0.028366
  14 H :    0.027602
  15 H :    0.029899
  16 S :    0.434208
  17 C :   -0.197345
  18 C :   -0.081309
  19 C :   -0.046593
  20 C :   -0.222643
  21 H :    0.038452
  22 C :   -0.023117
  23 H :    0.020871
  24 H :    0.033375
  25 C :   -0.039935
  26 H :    0.029536
  27 H :    0.021251
  28 C :   -0.063149
  29 H :    0.020883
  30 H :    0.037059
  31 H :    0.011609
  32 H :    0.012087
  33 H :    0.035877

  Mayer bond orders larger than 0.100000
B(  0-S ,  1-C ) :   1.1006 B(  0-S ,  4-C ) :   1.1303 B(  1-C ,  2-C ) :   1.6821
B(  1-C , 32-H ) :   0.9663 B(  2-C ,  3-C ) :   1.1718 B(  2-C ,  6-C ) :   1.0406
B(  3-C ,  4-C ) :   1.6240 B(  3-C ,  5-H ) :   0.9876 B(  4-C , 20-C ) :   1.0195
B(  6-C ,  7-H ) :   0.9358 B(  6-C ,  8-H ) :   0.9344 B(  6-C ,  9-C ) :   1.0793
B(  9-C , 10-H ) :   0.9526 B(  9-C , 11-H ) :   0.9512 B(  9-C , 12-C ) :   1.0764
B( 12-C , 13-H ) :   0.9693 B( 12-C , 14-H ) :   0.9722 B( 12-C , 15-H ) :   0.9718
B( 16-S , 17-C ) :   1.1735 B( 16-S , 20-C ) :   1.1609 B( 17-C , 18-C ) :   1.5858
B( 17-C , 20-C ) :   0.1048 B( 17-C , 33-H ) :   0.9644 B( 18-C , 19-C ) :   1.2425
B( 18-C , 21-H ) :   0.9887 B( 19-C , 20-C ) :   1.5823 B( 19-C , 22-C ) :   1.0363
B( 22-C , 23-H ) :   0.9090 B( 22-C , 24-H ) :   0.9398 B( 22-C , 25-C ) :   1.0821
B( 25-C , 26-H ) :   0.9581 B( 25-C , 27-H ) :   0.9503 B( 25-C , 28-C ) :   1.0825
B( 28-C , 29-H ) :   0.9697 B( 28-C , 30-H ) :   0.9735 B( 28-C , 31-H ) :   0.9665

Dispersion correction           -0.015932670
FINAL SINGLE POINT ENERGY     -1339.863485941191

DIPOLE MOMENT
-------------
                                X             Y             Z
Electronic contribution:     15.28620       8.15826      19.92428
Nuclear contribution   :    -15.56300      -8.33616     -20.64865
                        -----------------------------------------
Total Dipole Moment    :     -0.27680      -0.17790      -0.72437
                        -----------------------------------------
Magnitude (a.u.)       :      0.79560
Magnitude (Debye)      :      2.02225

Rotational constants in cm-1:     0.019183     0.009797     0.007768
Rotational constants in MHz :   575.100722   293.712078   232.868949

                             ****ORCA TERMINATED NORMALLY****
TOTAL RUN TIME: 0 days 0 hours 0 minutes 32 seconds 451 msec
