                         Program Version 4.2.1 -  RELEASE  -
|  1> ! wB97X-D3 SP def2-SVP
|  2> %pal
|  3> nprocs 16
|  4> end
|  5>
|  6> * xyz 0 1
|  7> S 	 -93.2071 	 52.1418 	 125.817
|  8> C 	 -92.6119 	 51.9584 	 127.483
|  9> C 	 -92.471 	 50.6323 	 127.856
| 10> C 	 -92.8527 	 49.7472 	 126.797
| 11> C 	 -93.3793 	 50.3776 	 125.668
| 12> H 	 -92.8717 	 48.6675 	 126.898
| 13> C 	 -92.0779 	 50.0741 	 129.225
| 14> H 	 -92.7893 	 49.2567 	 129.534
| 15> H 	 -92.2604 	 50.8825 	 129.867
| 16> C 	 -90.7486 	 49.3882 	 129.34
| 17> H 	 -90.6555 	 48.5517 	 128.605
| 18> H 	 -89.9455 	 50.0775 	 129.042
| 19> C 	 -90.4672 	 48.9008 	 130.768
| 20> H 	 -91.2774 	 48.2464 	 130.984
| 21> H 	 -89.5649 	 48.3669 	 130.942
| 22> H 	 -90.4285 	 49.7457 	 131.41
| 23> S 	 -93.7891 	 50.8029 	 122.942
| 24> C 	 -95.0009 	 49.8986 	 122.049
| 25> C 	 -95.3477 	 48.7967 	 122.768
| 26> C 	 -94.8535 	 48.8064 	 124.117
| 27> C 	 -93.9994 	 49.8802 	 124.413
| 28> H 	 -96.0879 	 48.1214 	 122.238
| 29> C 	 -95.3251 	 47.8185 	 125.18
| 30> H 	 -94.5034 	 47.6423 	 125.823
| 31> H 	 -95.3912 	 46.9073 	 124.612
| 32> C 	 -96.6025 	 48.2509 	 125.916
| 33> H 	 -96.9948 	 47.4387 	 126.485
| 34> H 	 -97.4017 	 48.4844 	 125.224
| 35> C 	 -96.2981 	 49.4331 	 126.929
| 36> H 	 -95.5116 	 49.1513 	 127.643
| 37> H 	 -97.1959 	 49.526 	 127.529
| 38> H 	 -95.923 	 50.4267 	 126.513
| 39> H 	 -92.351 	 52.7438 	 128.159
| 40> H 	 -95.3076 	 50.0867 	 121.032
| 41> *
| 42>
| 43>                          ****END OF INPUT****

CARTESIAN COORDINATES (ANGSTROEM)
---------------------------------
  S    -93.207100   52.141800  125.817000
  C    -92.611900   51.958400  127.483000
  C    -92.471000   50.632300  127.856000
  C    -92.852700   49.747200  126.797000
  C    -93.379300   50.377600  125.668000
  H    -92.871700   48.667500  126.898000
  C    -92.077900   50.074100  129.225000
  H    -92.789300   49.256700  129.534000
  H    -92.260400   50.882500  129.867000
  C    -90.748600   49.388200  129.340000
  H    -90.655500   48.551700  128.605000
  H    -89.945500   50.077500  129.042000
  C    -90.467200   48.900800  130.768000
  H    -91.277400   48.246400  130.984000
  H    -89.564900   48.366900  130.942000
  H    -90.428500   49.745700  131.410000
  S    -93.789100   50.802900  122.942000
  C    -95.000900   49.898600  122.049000
  C    -95.347700   48.796700  122.768000
  C    -94.853500   48.806400  124.117000
  C    -93.999400   49.880200  124.413000
  H    -96.087900   48.121400  122.238000
  C    -95.325100   47.818500  125.180000
  H    -94.503400   47.642300  125.823000
  H    -95.391200   46.907300  124.612000
  C    -96.602500   48.250900  125.916000
  H    -96.994800   47.438700  126.485000
  H    -97.401700   48.484400  125.224000
  C    -96.298100   49.433100  126.929000
  H    -95.511600   49.151300  127.643000
  H    -97.195900   49.526000  127.529000
  H    -95.923000   50.426700  126.513000
  H    -92.351000   52.743800  128.159000
  H    -95.307600   50.086700  121.032000

 Total Charge           Charge          ....    0
 Multiplicity           Mult            ....    1
 Number of Electrons    NEL             ....  134
 Basis Dimension        Dim             ....  322

ORBITAL ENERGIES
----------------

  NO   OCC          E(Eh)            E(eV)
   0   2.0000     -88.970067     -2420.9986
   1   2.0000     -88.962173     -2420.7838
   2   2.0000     -10.340376      -281.3759
   3   2.0000     -10.331737      -281.1409
   4   2.0000     -10.317511      -280.7537
   5   2.0000     -10.316732      -280.7325
   6   2.0000     -10.306001      -280.4405
   7   2.0000     -10.304654      -280.4039
   8   2.0000     -10.298909      -280.2476
   9   2.0000     -10.298214      -280.2287
  10   2.0000     -10.294875      -280.1378
  11   2.0000     -10.289530      -279.9923
  12   2.0000     -10.286456      -279.9087
  13   2.0000     -10.284654      -279.8597
  14   2.0000     -10.277075      -279.6534
  15   2.0000     -10.272733      -279.5353
  16   2.0000      -8.083489      -219.9629
  17   2.0000      -8.077002      -219.7864
  18   2.0000      -6.042172      -164.4159
  19   2.0000      -6.038209      -164.3080
  20   2.0000      -6.035580      -164.2365
  21   2.0000      -6.034087      -164.1959
  22   2.0000      -6.031411      -164.1230
  23   2.0000      -6.027751      -164.0235
  24   2.0000      -1.003825       -27.3155
  25   2.0000      -0.981772       -26.7154
  26   2.0000      -0.917517       -24.9669
  27   2.0000      -0.903761       -24.5926
  28   2.0000      -0.871199       -23.7065
  29   2.0000      -0.846886       -23.0449
  30   2.0000      -0.837558       -22.7911
  31   2.0000      -0.818387       -22.2694
  32   2.0000      -0.784074       -21.3357
  33   2.0000      -0.771067       -20.9818
  34   2.0000      -0.710372       -19.3302
  35   2.0000      -0.701392       -19.0858
  36   2.0000      -0.697842       -18.9893
  37   2.0000      -0.655328       -17.8324
  38   2.0000      -0.640334       -17.4244
  39   2.0000      -0.624274       -16.9874
  40   2.0000      -0.591795       -16.1036
  41   2.0000      -0.579824       -15.7778
  42   2.0000      -0.563426       -15.3316
  43   2.0000      -0.551945       -15.0192
  44   2.0000      -0.535209       -14.5638
  45   2.0000      -0.522326       -14.2132
  46   2.0000      -0.514890       -14.0109
  47   2.0000      -0.512325       -13.9411
  48   2.0000      -0.507950       -13.8220
  49   2.0000      -0.497347       -13.5335
  50   2.0000      -0.489959       -13.3325
  51   2.0000      -0.478759       -13.0277
  52   2.0000      -0.474233       -12.9045
  53   2.0000      -0.464605       -12.6426
  54   2.0000      -0.455082       -12.3834
  55   2.0000      -0.451680       -12.2908
  56   2.0000      -0.443132       -12.0582
  57   2.0000      -0.437799       -11.9131
  58   2.0000      -0.429821       -11.6960
  59   2.0000      -0.426222       -11.5981
  60   2.0000      -0.421012       -11.4563
  61   2.0000      -0.417238       -11.3536
  62   2.0000      -0.404383       -11.0038
  63   2.0000      -0.355274        -9.6675
  64   2.0000      -0.333593        -9.0775
  65   2.0000      -0.328541        -8.9400
  66   2.0000      -0.287884        -7.8337
  67   0.0000       0.020452         0.5565
  68   0.0000       0.077504         2.1090
  69   0.0000       0.100097         2.7238
  70   0.0000       0.112400         3.0586
  71   0.0000       0.142753         3.8845

MULLIKEN ATOMIC CHARGES
-----------------------
   0 S :    0.104424
   1 C :   -0.105931
   2 C :   -0.091346
   3 C :    0.028784
   4 C :   -0.147400
   5 H :    0.016316
   6 C :    0.071137
   7 H :    0.028709
   8 H :    0.004843
   9 C :   -0.092767
  10 H :    0.033797
  11 H :    0.026110
  12 C :    0.000015
  13 H :    0.017846
  14 H :    0.029987
  15 H :    0.023766
  16 S :    0.084149
  17 C :   -0.100454
  18 C :   -0.048351
  19 C :   -0.085402
  20 C :   -0.118862
  21 H :    0.043352
  22 C :    0.107590
  23 H :   -0.007380
  24 H :    0.011634
  25 C :   -0.020071
  26 H :    0.021254
  27 H :    0.026747
  28 C :   -0.076371
  29 H :    0.023796
  30 H :    0.029035
  31 H :    0.067525
  32 H :    0.035383
  33 H :    0.058134
Sum of atomic charges:   -0.0000000

LOEWDIN ATOMIC CHARGES
----------------------
   0 S :    0.387397
   1 C :   -0.186352
   2 C :   -0.058990
   3 C :   -0.062204
   4 C :   -0.172915
   5 H :    0.027137
   6 C :   -0.029635
   7 H :    0.036537
   8 H :    0.022084
   9 C :   -0.043550
  10 H :    0.026633
  11 H :    0.022196
  12 C :   -0.054750
  13 H :    0.020729
  14 H :    0.024369
  15 H :    0.022801
  16 S :    0.393362
  17 C :   -0.180062
  18 C :   -0.083286
  19 C :   -0.056689
  20 C :   -0.202342
  21 H :    0.045418
  22 C :   -0.030238
  23 H :    0.019528
  24 H :    0.028519
  25 C :   -0.028363
  26 H :    0.021103
  27 H :    0.024245
  28 C :   -0.070578
  29 H :    0.022607
  30 H :    0.022563
  31 H :    0.036579
  32 H :    0.024616
  33 H :    0.031531

  Mayer bond orders larger than 0.100000
B(  0-S ,  1-C ) :   1.1210 B(  0-S ,  4-C ) :   1.1392 B(  1-C ,  2-C ) :   1.6370
B(  1-C , 32-H ) :   0.9652 B(  2-C ,  3-C ) :   1.2271 B(  2-C ,  6-C ) :   1.0205
B(  3-C ,  4-C ) :   1.5825 B(  3-C ,  5-H ) :   0.9877 B(  4-C , 20-C ) :   1.0454
B(  6-C ,  7-H ) :   0.9410 B(  6-C ,  8-H ) :   0.9378 B(  6-C ,  9-C ) :   1.0574
B(  9-C , 10-H ) :   0.9547 B(  9-C , 11-H ) :   0.9531 B(  9-C , 12-C ) :   1.0788
B( 12-C , 13-H ) :   0.9744 B( 12-C , 14-H ) :   0.9740 B( 12-C , 15-H ) :   0.9748
B( 16-S , 17-C ) :   1.1504 B( 16-S , 20-C ) :   1.1370 B( 17-C , 18-C ) :   1.6227
B( 17-C , 33-H ) :   0.9673 B( 18-C , 19-C ) :   1.2388 B( 18-C , 21-H ) :   0.9812
B( 19-C , 20-C ) :   1.5853 B( 19-C , 22-C ) :   1.0320 B( 22-C , 23-H ) :   0.9374
B( 22-C , 24-H ) :   0.9241 B( 22-C , 25-C ) :   1.0694 B( 25-C , 26-H ) :   0.9542
B( 25-C , 27-H ) :   0.9564 B( 25-C , 28-C ) :   1.0677 B( 28-C , 29-H ) :   0.9726
B( 28-C , 30-H ) :   0.9732 B( 28-C , 31-H ) :   0.9708

Dispersion correction           -0.015485551
FINAL SINGLE POINT ENERGY     -1339.877822244989

DIPOLE MOMENT
-------------
                                X             Y             Z
Electronic contribution:      0.39736      14.67117     -24.34634
Nuclear contribution   :     -0.57064     -15.20217      24.79764
                        -----------------------------------------
Total Dipole Moment    :     -0.17329      -0.53099       0.45130
                        -----------------------------------------
Magnitude (a.u.)       :      0.71809
Magnitude (Debye)      :      1.82523

Rotational constants in cm-1:     0.022543     0.008153     0.006935
Rotational constants in MHz :   675.829469   244.432198   207.896775

                             ****ORCA TERMINATED NORMALLY****
TOTAL RUN TIME: 0 days 0 hours 0 minutes 35 seconds 246 msec
