                         Program Version 4.2.1 -  RELEASE  -
|  1> ! wB97X-D3 SP def2-SVP
|  2> %pal
|  3> nprocs 16
|  4> end
|  5>
|  6> * xyz 0 1
|  7> S 	 -103.161 	 55.667 	 117.209
|  8> C 	 -102.535 	 56.192 	 115.714
|  9> C 	 -103.51 	 56.6466 	 114.881
| 10> C 	 -104.726 	 56.8479 	 115.564
| 11> C 	 -104.663 	 56.4674 	 116.95
| 12> H 	 -105.566 	 57.356 	 115.126
| 13> C 	 -103.374 	 56.9779 	 113.381
| 14> H 	 -102.989 	 57.9824 	 113.256
| 15> H 	 -104.353 	 57.0067 	 112.921
| 16> C 	 -102.59 	 55.9476 	 112.592
| 17> H 	 -102.227 	 56.3876 	 111.658
| 18> H 	 -101.598 	 55.7065 	 112.968
| 19> C 	 -103.284 	 54.6095 	 112.171
| 20> H 	 -103.532 	 54.0513 	 113.03
| 21> H 	 -104.225 	 54.8419 	 111.66
| 22> H 	 -102.649 	 54.0378 	 111.535
| 23> S 	 -104.891 	 57.0943 	 119.609
| 24> C 	 -106.432 	 56.9819 	 120.388
| 25> C 	 -107.452 	 56.8698 	 119.506
| 26> C 	 -106.97 	 56.67 	 118.154
| 27> C 	 -105.599 	 56.6138 	 118.042
| 28> H 	 -108.445 	 56.9047 	 119.915
| 29> C 	 -107.877 	 56.3753 	 117.008
| 30> H 	 -107.708 	 55.2452 	 116.786
| 31> H 	 -107.609 	 56.9595 	 116.123
| 32> C 	 -109.386 	 56.4506 	 117.257
| 33> H 	 -109.644 	 55.9018 	 118.209
| 34> H 	 -110.058 	 55.975 	 116.556
| 35> C 	 -109.905 	 57.9653 	 117.369
| 36> H 	 -109.927 	 58.5595 	 116.429
| 37> H 	 -109.272 	 58.4763 	 118.121
| 38> H 	 -110.924 	 57.9361 	 117.709
| 39> H 	 -101.509 	 56.1138 	 115.368
| 40> H 	 -106.483 	 57.0926 	 121.5
| 41> *
| 42>
| 43>                          ****END OF INPUT****

CARTESIAN COORDINATES (ANGSTROEM)
---------------------------------
  S    -103.161000   55.667000  117.209000
  C    -102.535000   56.192000  115.714000
  C    -103.510000   56.646600  114.881000
  C    -104.726000   56.847900  115.564000
  C    -104.663000   56.467400  116.950000
  H    -105.566000   57.356000  115.126000
  C    -103.374000   56.977900  113.381000
  H    -102.989000   57.982400  113.256000
  H    -104.353000   57.006700  112.921000
  C    -102.590000   55.947600  112.592000
  H    -102.227000   56.387600  111.658000
  H    -101.598000   55.706500  112.968000
  C    -103.284000   54.609500  112.171000
  H    -103.532000   54.051300  113.030000
  H    -104.225000   54.841900  111.660000
  H    -102.649000   54.037800  111.535000
  S    -104.891000   57.094300  119.609000
  C    -106.432000   56.981900  120.388000
  C    -107.452000   56.869800  119.506000
  C    -106.970000   56.670000  118.154000
  C    -105.599000   56.613800  118.042000
  H    -108.445000   56.904700  119.915000
  C    -107.877000   56.375300  117.008000
  H    -107.708000   55.245200  116.786000
  H    -107.609000   56.959500  116.123000
  C    -109.386000   56.450600  117.257000
  H    -109.644000   55.901800  118.209000
  H    -110.058000   55.975000  116.556000
  C    -109.905000   57.965300  117.369000
  H    -109.927000   58.559500  116.429000
  H    -109.272000   58.476300  118.121000
  H    -110.924000   57.936100  117.709000
  H    -101.509000   56.113800  115.368000
  H    -106.483000   57.092600  121.500000

 Total Charge           Charge          ....    0
 Multiplicity           Mult            ....    1
 Number of Electrons    NEL             ....  134
 Basis Dimension        Dim             ....  322

ORBITAL ENERGIES
----------------

  NO   OCC          E(Eh)            E(eV)
   0   2.0000     -88.966889     -2420.9121
   1   2.0000     -88.958409     -2420.6814
   2   2.0000     -10.330864      -281.1171
   3   2.0000     -10.325179      -280.9624
   4   2.0000     -10.316899      -280.7371
   5   2.0000     -10.306409      -280.4516
   6   2.0000     -10.306269      -280.4478
   7   2.0000     -10.297594      -280.2118
   8   2.0000     -10.295834      -280.1639
   9   2.0000     -10.294862      -280.1374
  10   2.0000     -10.294512      -280.1279
  11   2.0000     -10.294433      -280.1258
  12   2.0000     -10.293517      -280.1008
  13   2.0000     -10.285484      -279.8822
  14   2.0000     -10.281303      -279.7685
  15   2.0000     -10.273231      -279.5488
  16   2.0000      -8.082686      -219.9411
  17   2.0000      -8.073598      -219.6938
  18   2.0000      -6.041039      -164.3850
  19   2.0000      -6.036958      -164.2740
  20   2.0000      -6.033627      -164.1833
  21   2.0000      -6.032108      -164.1420
  22   2.0000      -6.028138      -164.0340
  23   2.0000      -6.024210      -163.9271
  24   2.0000      -1.011218       -27.5167
  25   2.0000      -0.989183       -26.9170
  26   2.0000      -0.911150       -24.7937
  27   2.0000      -0.905142       -24.6302
  28   2.0000      -0.871322       -23.7099
  29   2.0000      -0.850269       -23.1370
  30   2.0000      -0.838297       -22.8112
  31   2.0000      -0.811995       -22.0955
  32   2.0000      -0.787903       -21.4399
  33   2.0000      -0.773024       -21.0351
  34   2.0000      -0.708918       -19.2906
  35   2.0000      -0.706021       -19.2118
  36   2.0000      -0.692933       -18.8557
  37   2.0000      -0.657079       -17.8800
  38   2.0000      -0.635404       -17.2902
  39   2.0000      -0.615426       -16.7466
  40   2.0000      -0.597057       -16.2467
  41   2.0000      -0.577021       -15.7015
  42   2.0000      -0.559217       -15.2171
  43   2.0000      -0.548127       -14.9153
  44   2.0000      -0.542916       -14.7735
  45   2.0000      -0.527680       -14.3589
  46   2.0000      -0.512256       -13.9392
  47   2.0000      -0.508393       -13.8341
  48   2.0000      -0.505606       -13.7583
  49   2.0000      -0.500428       -13.6174
  50   2.0000      -0.487865       -13.2755
  51   2.0000      -0.481309       -13.0971
  52   2.0000      -0.471112       -12.8196
  53   2.0000      -0.470327       -12.7982
  54   2.0000      -0.463283       -12.6066
  55   2.0000      -0.449847       -12.2410
  56   2.0000      -0.445582       -12.1249
  57   2.0000      -0.440772       -11.9940
  58   2.0000      -0.433049       -11.7839
  59   2.0000      -0.426063       -11.5938
  60   2.0000      -0.417405       -11.3582
  61   2.0000      -0.410074       -11.1587
  62   2.0000      -0.405142       -11.0245
  63   2.0000      -0.350211        -9.5297
  64   2.0000      -0.332936        -9.0597
  65   2.0000      -0.324386        -8.8270
  66   2.0000      -0.285204        -7.7608
  67   0.0000       0.019788         0.5385
  68   0.0000       0.081173         2.2088
  69   0.0000       0.109156         2.9703
  70   0.0000       0.114752         3.1226
  71   0.0000       0.138600         3.7715

MULLIKEN ATOMIC CHARGES
-----------------------
   0 S :    0.134222
   1 C :   -0.123793
   2 C :   -0.092597
   3 C :    0.021952
   4 C :   -0.167891
   5 H :    0.004032
   6 C :    0.111294
   7 H :    0.042346
   8 H :    0.013477
   9 C :   -0.102236
  10 H :    0.011138
  11 H :    0.012173
  12 C :   -0.019984
  13 H :    0.030676
  14 H :    0.025460
  15 H :    0.031384
  16 S :    0.087095
  17 C :   -0.101220
  18 C :   -0.032610
  19 C :   -0.035177
  20 C :   -0.122493
  21 H :    0.019965
  22 C :    0.036371
  23 H :    0.062740
  24 H :    0.038013
  25 C :   -0.093690
  26 H :    0.032612
  27 H :    0.030342
  28 C :   -0.083740
  29 H :    0.042092
  30 H :    0.040136
  31 H :    0.030189
  32 H :    0.044229
  33 H :    0.073492
Sum of atomic charges:    0.0000000

LOEWDIN ATOMIC CHARGES
----------------------
   0 S :    0.447957
   1 C :   -0.212942
   2 C :   -0.068478
   3 C :   -0.062822
   4 C :   -0.205465
   5 H :    0.024502
   6 C :   -0.025661
   7 H :    0.036495
   8 H :    0.030275
   9 C :   -0.048866
  10 H :    0.023522
  11 H :    0.018447
  12 C :   -0.053190
  13 H :    0.019825
  14 H :    0.024452
  15 H :    0.024150
  16 S :    0.388913
  17 C :   -0.183529
  18 C :   -0.080512
  19 C :   -0.054139
  20 C :   -0.192432
  21 H :    0.033728
  22 C :   -0.041880
  23 H :    0.054196
  24 H :    0.029992
  25 C :   -0.045990
  26 H :    0.027983
  27 H :    0.023533
  28 C :   -0.073662
  29 H :    0.027924
  30 H :    0.025348
  31 H :    0.021433
  32 H :    0.029345
  33 H :    0.037548

  Mayer bond orders larger than 0.100000
B(  0-S ,  1-C ) :   1.1564 B(  0-S ,  4-C ) :   1.1858 B(  1-C ,  2-C ) :   1.5821
B(  1-C ,  4-C ) :   0.1026 B(  1-C , 32-H ) :   0.9663 B(  2-C ,  3-C ) :   1.3010
B(  2-C ,  6-C ) :   1.0054 B(  3-C ,  4-C ) :   1.4918 B(  3-C ,  5-H ) :   0.9958
B(  4-C , 20-C ) :   1.0818 B(  6-C ,  7-H ) :   0.9350 B(  6-C ,  8-H ) :   0.9440
B(  6-C ,  9-C ) :   1.0755 B(  9-C , 10-H ) :   0.9495 B(  9-C , 11-H ) :   0.9537
B(  9-C , 12-C ) :   1.0774 B( 12-C , 13-H ) :   0.9790 B( 12-C , 14-H ) :   0.9742
B( 12-C , 15-H ) :   0.9746 B( 16-S , 17-C ) :   1.1593 B( 16-S , 20-C ) :   1.1219
B( 17-C , 18-C ) :   1.6186 B( 17-C , 33-H ) :   0.9578 B( 18-C , 19-C ) :   1.1993
B( 18-C , 21-H ) :   0.9967 B( 19-C , 20-C ) :   1.6115 B( 19-C , 22-C ) :   1.0393
B( 22-C , 23-H ) :   0.9296 B( 22-C , 24-H ) :   0.9346 B( 22-C , 25-C ) :   1.0838
B( 25-C , 26-H ) :   0.9480 B( 25-C , 27-H ) :   0.9581 B( 25-C , 28-C ) :   1.0651
B( 28-C , 29-H ) :   0.9765 B( 28-C , 30-H ) :   0.9791 B( 28-C , 31-H ) :   0.9764

Dispersion correction           -0.013898368
FINAL SINGLE POINT ENERGY     -1339.872670206851

DIPOLE MOMENT
-------------
                                X             Y             Z
Electronic contribution:     13.46739       0.43738      22.02314
Nuclear contribution   :    -13.84416      -0.38071     -22.48474
                        -----------------------------------------
Total Dipole Moment    :     -0.37677       0.05666      -0.46160
                        -----------------------------------------
Magnitude (a.u.)       :      0.59853
Magnitude (Debye)      :      1.52134

Rotational constants in cm-1:     0.021376     0.007769     0.006076
Rotational constants in MHz :   640.826924   232.921414   182.167253

                             ****ORCA TERMINATED NORMALLY****
TOTAL RUN TIME: 0 days 0 hours 0 minutes 33 seconds 921 msec
