                         Program Version 4.2.1 -  RELEASE  -
|  1> ! wB97X-D3 SP def2-SVP
|  2> %pal
|  3> nprocs 16
|  4> end
|  5>
|  6> * xyz 0 1
|  7> S 	 -4.59912 	 -12.8942 	 68.4888
|  8> C 	 -6.21534 	 -12.36 	 68.3596
|  9> C 	 -6.32724 	 -11.1896 	 67.581
| 10> C 	 -5.09856 	 -10.8754 	 66.9472
| 11> C 	 -4.04368 	 -11.7272 	 67.3142
| 12> H 	 -4.91845 	 -9.97273 	 66.2856
| 13> C 	 -7.6815 	 -10.4272 	 67.3643
| 14> H 	 -8.53088 	 -11.107 	 67.5932
| 15> H 	 -7.67817 	 -10.1832 	 66.2965
| 16> C 	 -7.81171 	 -9.21604 	 68.2907
| 17> H 	 -6.90761 	 -8.59783 	 68.2164
| 18> H 	 -8.59208 	 -8.58466 	 67.9109
| 19> C 	 -7.96033 	 -9.4515 	 69.8577
| 20> H 	 -7.96909 	 -8.50036 	 70.3879
| 21> H 	 -8.91685 	 -9.89447 	 70.0213
| 22> H 	 -7.23029 	 -10.154 	 70.2873
| 23> S 	 -1.91428 	 -10.0833 	 66.9391
| 24> C 	 -0.509239 	 -10.6002 	 66.141
| 25> C 	 -0.564757 	 -11.9621 	 65.9291
| 26> C 	 -1.72217 	 -12.6213 	 66.4707
| 27> C 	 -2.66126 	 -11.677 	 66.8177
| 28> H 	 0.320639 	 -12.388 	 65.4899
| 29> C 	 -2.04026 	 -14.1357 	 66.3494
| 30> H 	 -2.42831 	 -14.4425 	 67.3067
| 31> H 	 -1.15014 	 -14.7002 	 66.1467
| 32> C 	 -3.23856 	 -14.527 	 65.3852
| 33> H 	 -3.1189 	 -14.1299 	 64.3658
| 34> H 	 -4.13776 	 -14.0196 	 65.6978
| 35> C 	 -3.51251 	 -15.9933 	 65.4138
| 36> H 	 -2.59073 	 -16.5324 	 65.0633
| 37> H 	 -4.40078 	 -16.2084 	 64.799
| 38> H 	 -3.71465 	 -16.3809 	 66.3554
| 39> H 	 -6.97777 	 -12.7525 	 68.955
| 40> H 	 0.444816 	 -10.0292 	 66.1399
| 41> *
| 42>
| 43>                          ****END OF INPUT****

CARTESIAN COORDINATES (ANGSTROEM)
---------------------------------
  S     -4.599120  -12.894200   68.488800
  C     -6.215340  -12.360000   68.359600
  C     -6.327240  -11.189600   67.581000
  C     -5.098560  -10.875400   66.947200
  C     -4.043680  -11.727200   67.314200
  H     -4.918450   -9.972730   66.285600
  C     -7.681500  -10.427200   67.364300
  H     -8.530880  -11.107000   67.593200
  H     -7.678170  -10.183200   66.296500
  C     -7.811710   -9.216040   68.290700
  H     -6.907610   -8.597830   68.216400
  H     -8.592080   -8.584660   67.910900
  C     -7.960330   -9.451500   69.857700
  H     -7.969090   -8.500360   70.387900
  H     -8.916850   -9.894470   70.021300
  H     -7.230290  -10.154000   70.287300
  S     -1.914280  -10.083300   66.939100
  C     -0.509239  -10.600200   66.141000
  C     -0.564757  -11.962100   65.929100
  C     -1.722170  -12.621300   66.470700
  C     -2.661260  -11.677000   66.817700
  H      0.320639  -12.388000   65.489900
  C     -2.040260  -14.135700   66.349400
  H     -2.428310  -14.442500   67.306700
  H     -1.150140  -14.700200   66.146700
  C     -3.238560  -14.527000   65.385200
  H     -3.118900  -14.129900   64.365800
  H     -4.137760  -14.019600   65.697800
  C     -3.512510  -15.993300   65.413800
  H     -2.590730  -16.532400   65.063300
  H     -4.400780  -16.208400   64.799000
  H     -3.714650  -16.380900   66.355400
  H     -6.977770  -12.752500   68.955000
  H      0.444816  -10.029200   66.139900

 Total Charge           Charge          ....    0
 Multiplicity           Mult            ....    1
 Number of Electrons    NEL             ....  134
 Basis Dimension        Dim             ....  322

ORBITAL ENERGIES
----------------

  NO   OCC          E(Eh)            E(eV)
   0   2.0000     -88.970693     -2421.0156
   1   2.0000     -88.961583     -2420.7677
   2   2.0000     -10.332857      -281.1713
   3   2.0000     -10.326672      -281.0030
   4   2.0000     -10.312601      -280.6202
   5   2.0000     -10.310202      -280.5549
   6   2.0000     -10.307143      -280.4716
   7   2.0000     -10.305660      -280.4313
   8   2.0000     -10.301602      -280.3208
   9   2.0000     -10.301044      -280.3057
  10   2.0000     -10.293305      -280.0951
  11   2.0000     -10.292244      -280.0662
  12   2.0000     -10.288068      -279.9526
  13   2.0000     -10.279913      -279.7306
  14   2.0000     -10.279246      -279.7125
  15   2.0000     -10.270958      -279.4870
  16   2.0000      -8.085534      -220.0186
  17   2.0000      -8.077223      -219.7924
  18   2.0000      -6.043908      -164.4631
  19   2.0000      -6.039913      -164.3544
  20   2.0000      -6.036573      -164.2635
  21   2.0000      -6.035586      -164.2367
  22   2.0000      -6.031572      -164.1274
  23   2.0000      -6.028099      -164.0329
  24   2.0000      -1.009428       -27.4679
  25   2.0000      -0.988369       -26.8949
  26   2.0000      -0.905989       -24.6532
  27   2.0000      -0.901870       -24.5411
  28   2.0000      -0.866760       -23.5857
  29   2.0000      -0.853322       -23.2201
  30   2.0000      -0.844838       -22.9892
  31   2.0000      -0.809027       -22.0147
  32   2.0000      -0.783600       -21.3228
  33   2.0000      -0.773528       -21.0488
  34   2.0000      -0.705983       -19.2108
  35   2.0000      -0.696925       -18.9643
  36   2.0000      -0.690293       -18.7838
  37   2.0000      -0.661893       -18.0110
  38   2.0000      -0.636012       -17.3068
  39   2.0000      -0.616995       -16.7893
  40   2.0000      -0.592731       -16.1290
  41   2.0000      -0.566375       -15.4118
  42   2.0000      -0.561755       -15.2861
  43   2.0000      -0.547784       -14.9060
  44   2.0000      -0.536010       -14.5856
  45   2.0000      -0.522989       -14.2312
  46   2.0000      -0.518456       -14.1079
  47   2.0000      -0.511946       -13.9307
  48   2.0000      -0.507237       -13.8026
  49   2.0000      -0.491663       -13.3788
  50   2.0000      -0.485496       -13.2110
  51   2.0000      -0.476719       -12.9722
  52   2.0000      -0.474773       -12.9192
  53   2.0000      -0.470892       -12.8136
  54   2.0000      -0.462213       -12.5775
  55   2.0000      -0.450462       -12.2577
  56   2.0000      -0.445227       -12.1153
  57   2.0000      -0.439464       -11.9584
  58   2.0000      -0.430474       -11.7138
  59   2.0000      -0.421522       -11.4702
  60   2.0000      -0.416020       -11.3205
  61   2.0000      -0.414291       -11.2734
  62   2.0000      -0.411691       -11.2027
  63   2.0000      -0.349449        -9.5090
  64   2.0000      -0.333948        -9.0872
  65   2.0000      -0.328787        -8.9468
  66   2.0000      -0.288513        -7.8508
  67   0.0000       0.025818         0.7025
  68   0.0000       0.074500         2.0272
  69   0.0000       0.110925         3.0184
  70   0.0000       0.121669         3.3108
  71   0.0000       0.126571         3.4442

MULLIKEN ATOMIC CHARGES
-----------------------
   0 S :    0.121888
   1 C :   -0.103449
   2 C :   -0.109232
   3 C :    0.003219
   4 C :   -0.162443
   5 H :    0.041942
   6 C :    0.071215
   7 H :    0.028648
   8 H :    0.038422
   9 C :   -0.077173
  10 H :    0.026040
  11 H :    0.027444
  12 C :   -0.052268
  13 H :    0.041471
  14 H :    0.015876
  15 H :    0.045532
  16 S :    0.104679
  17 C :   -0.100061
  18 C :   -0.061585
  19 C :   -0.005010
  20 C :   -0.160112
  21 H :    0.013173
  22 C :    0.072171
  23 H :    0.013929
  24 H :    0.017256
  25 C :   -0.069268
  26 H :    0.030455
  27 H :    0.026526
  28 C :   -0.024284
  29 H :    0.029174
  30 H :    0.037937
  31 H :    0.011101
  32 H :    0.029957
  33 H :    0.076832
Sum of atomic charges:   -0.0000000

LOEWDIN ATOMIC CHARGES
----------------------
   0 S :    0.438046
   1 C :   -0.207619
   2 C :   -0.061204
   3 C :   -0.074575
   4 C :   -0.203749
   5 H :    0.042054
   6 C :   -0.026846
   7 H :    0.031957
   8 H :    0.034907
   9 C :   -0.042803
  10 H :    0.023606
  11 H :    0.021072
  12 C :   -0.063688
  13 H :    0.030252
  14 H :    0.016341
  15 H :    0.028739
  16 S :    0.424957
  17 C :   -0.215561
  18 C :   -0.074715
  19 C :   -0.055871
  20 C :   -0.188481
  21 H :    0.027826
  22 C :   -0.024973
  23 H :    0.022366
  24 H :    0.025065
  25 C :   -0.039854
  26 H :    0.024317
  27 H :    0.020103
  28 C :   -0.061738
  29 H :    0.028578
  30 H :    0.032511
  31 H :    0.013411
  32 H :    0.013996
  33 H :    0.041573

  Mayer bond orders larger than 0.100000
B(  0-S ,  1-C ) :   1.1646 B(  0-S ,  4-C ) :   1.1655 B(  1-C ,  2-C ) :   1.5637
B(  1-C ,  4-C ) :   0.1035 B(  1-C , 32-H ) :   0.9743 B(  2-C ,  3-C ) :   1.2905
B(  2-C ,  6-C ) :   1.0107 B(  3-C ,  4-C ) :   1.5312 B(  3-C ,  5-H ) :   0.9791
B(  4-C , 20-C ) :   1.0416 B(  6-C ,  7-H ) :   0.9483 B(  6-C ,  8-H ) :   0.9436
B(  6-C ,  9-C ) :   1.0649 B(  9-C , 10-H ) :   0.9600 B(  9-C , 11-H ) :   0.9579
B(  9-C , 12-C ) :   1.0652 B( 12-C , 13-H ) :   0.9755 B( 12-C , 14-H ) :   0.9768
B( 12-C , 15-H ) :   0.9762 B( 16-S , 17-C ) :   1.1637 B( 16-S , 20-C ) :   1.1593
B( 17-C , 18-C ) :   1.6052 B( 17-C , 33-H ) :   0.9595 B( 18-C , 19-C ) :   1.2354
B( 18-C , 21-H ) :   0.9910 B( 19-C , 20-C ) :   1.5606 B( 19-C , 22-C ) :   1.0518
B( 22-C , 23-H ) :   0.9263 B( 22-C , 24-H ) :   0.9435 B( 22-C , 25-C ) :   1.0548
B( 25-C , 26-H ) :   0.9566 B( 25-C , 27-H ) :   0.9475 B( 25-C , 28-C ) :   1.0942
B( 28-C , 29-H ) :   0.9735 B( 28-C , 30-H ) :   0.9698 B( 28-C , 31-H ) :   0.9717

Dispersion correction           -0.014837136
FINAL SINGLE POINT ENERGY     -1339.882322275527

DIPOLE MOMENT
-------------
                                X             Y             Z
Electronic contribution:     14.64676       5.44123       2.13152
Nuclear contribution   :    -14.87153      -5.47458      -2.14899
                        -----------------------------------------
Total Dipole Moment    :     -0.22476      -0.03334      -0.01747
                        -----------------------------------------
Magnitude (a.u.)       :      0.22789
Magnitude (Debye)      :      0.57926

Rotational constants in cm-1:     0.020071     0.008742     0.006750
Rotational constants in MHz :   601.699825   262.073244   202.367557

                             ****ORCA TERMINATED NORMALLY****
TOTAL RUN TIME: 0 days 0 hours 0 minutes 37 seconds 39 msec
