                         Program Version 4.2.1 -  RELEASE  -
|  1> ! wB97X-D3 SP def2-SVP
|  2> %pal
|  3> nprocs 16
|  4> end
|  5>
|  6> * xyz 0 1
|  7> S 	 -12.6301 	 41.6055 	 30.3653
|  8> C 	 -13.826 	 40.2754 	 30.3769
|  9> C 	 -15.0848 	 40.6522 	 30.8105
| 10> C 	 -15.0283 	 42.0405 	 31.2511
| 11> C 	 -13.8082 	 42.6183 	 31.1854
| 12> H 	 -15.8444 	 42.6224 	 31.6049
| 13> C 	 -16.356 	 39.8609 	 30.7598
| 14> H 	 -16.7125 	 39.867 	 31.7989
| 15> H 	 -16.1208 	 38.8638 	 30.5338
| 16> C 	 -17.5683 	 40.3448 	 29.8708
| 17> H 	 -18.423 	 39.7379 	 30.249
| 18> H 	 -17.8573 	 41.4083 	 30.0715
| 19> C 	 -17.3153 	 40.0495 	 28.3979
| 20> H 	 -16.4196 	 40.6541 	 28.1593
| 21> H 	 -16.9636 	 39.0215 	 28.2352
| 22> H 	 -18.1331 	 40.2226 	 27.6625
| 23> S 	 -12.7571 	 44.8956 	 30.0211
| 24> C 	 -12.9145 	 46.464 	 30.9169
| 25> C 	 -13.5761 	 46.291 	 32.072
| 26> C 	 -13.9676 	 44.9355 	 32.351
| 27> C 	 -13.4823 	 44.0147 	 31.3833
| 28> H 	 -13.8109 	 47.0656 	 32.7588
| 29> C 	 -14.9574 	 44.6344 	 33.4992
| 30> H 	 -14.3804 	 45.2577 	 34.2256
| 31> H 	 -14.8365 	 43.7014 	 33.9196
| 32> C 	 -16.4619 	 44.9874 	 33.302
| 33> H 	 -17.0326 	 44.8099 	 34.2293
| 34> H 	 -16.8412 	 44.3137 	 32.5566
| 35> C 	 -16.725 	 46.3954 	 32.8279
| 36> H 	 -17.8129 	 46.5582 	 32.6625
| 37> H 	 -16.2519 	 46.5408 	 31.8402
| 38> H 	 -16.2714 	 47.1103 	 33.5313
| 39> H 	 -13.6136 	 39.3135 	 29.9093
| 40> H 	 -12.8477 	 47.4804 	 30.4911
| 41> *
| 42>
| 43>                          ****END OF INPUT****

CARTESIAN COORDINATES (ANGSTROEM)
---------------------------------
  S    -12.630100   41.605500   30.365300
  C    -13.826000   40.275400   30.376900
  C    -15.084800   40.652200   30.810500
  C    -15.028300   42.040500   31.251100
  C    -13.808200   42.618300   31.185400
  H    -15.844400   42.622400   31.604900
  C    -16.356000   39.860900   30.759800
  H    -16.712500   39.867000   31.798900
  H    -16.120800   38.863800   30.533800
  C    -17.568300   40.344800   29.870800
  H    -18.423000   39.737900   30.249000
  H    -17.857300   41.408300   30.071500
  C    -17.315300   40.049500   28.397900
  H    -16.419600   40.654100   28.159300
  H    -16.963600   39.021500   28.235200
  H    -18.133100   40.222600   27.662500
  S    -12.757100   44.895600   30.021100
  C    -12.914500   46.464000   30.916900
  C    -13.576100   46.291000   32.072000
  C    -13.967600   44.935500   32.351000
  C    -13.482300   44.014700   31.383300
  H    -13.810900   47.065600   32.758800
  C    -14.957400   44.634400   33.499200
  H    -14.380400   45.257700   34.225600
  H    -14.836500   43.701400   33.919600
  C    -16.461900   44.987400   33.302000
  H    -17.032600   44.809900   34.229300
  H    -16.841200   44.313700   32.556600
  C    -16.725000   46.395400   32.827900
  H    -17.812900   46.558200   32.662500
  H    -16.251900   46.540800   31.840200
  H    -16.271400   47.110300   33.531300
  H    -13.613600   39.313500   29.909300
  H    -12.847700   47.480400   30.491100

 Total Charge           Charge          ....    0
 Multiplicity           Mult            ....    1
 Number of Electrons    NEL             ....  134
 Basis Dimension        Dim             ....  322

ORBITAL ENERGIES
----------------

  NO   OCC          E(Eh)            E(eV)
   0   2.0000     -88.966290     -2420.8958
   1   2.0000     -88.964699     -2420.8525
   2   2.0000     -10.330349      -281.1031
   3   2.0000     -10.326371      -280.9948
   4   2.0000     -10.320187      -280.8266
   5   2.0000     -10.318037      -280.7681
   6   2.0000     -10.307162      -280.4721
   7   2.0000     -10.306256      -280.4475
   8   2.0000     -10.299789      -280.2715
   9   2.0000     -10.294904      -280.1386
  10   2.0000     -10.292659      -280.0775
  11   2.0000     -10.292577      -280.0753
  12   2.0000     -10.291694      -280.0512
  13   2.0000     -10.291456      -280.0448
  14   2.0000     -10.282001      -279.7875
  15   2.0000     -10.281792      -279.7818
  16   2.0000      -8.079604      -219.8572
  17   2.0000      -8.079073      -219.8428
  18   2.0000      -6.038423      -164.3138
  19   2.0000      -6.037683      -164.2937
  20   2.0000      -6.034444      -164.2056
  21   2.0000      -6.033859      -164.1897
  22   2.0000      -6.029954      -164.0834
  23   2.0000      -6.029530      -164.0718
  24   2.0000      -1.002909       -27.2905
  25   2.0000      -0.977167       -26.5901
  26   2.0000      -0.912523       -24.8310
  27   2.0000      -0.907918       -24.7057
  28   2.0000      -0.871423       -23.7126
  29   2.0000      -0.849352       -23.1120
  30   2.0000      -0.843203       -22.9447
  31   2.0000      -0.818777       -22.2800
  32   2.0000      -0.785039       -21.3620
  33   2.0000      -0.772046       -21.0084
  34   2.0000      -0.712374       -19.3847
  35   2.0000      -0.701157       -19.0795
  36   2.0000      -0.689778       -18.7698
  37   2.0000      -0.660983       -17.9863
  38   2.0000      -0.642911       -17.4945
  39   2.0000      -0.622017       -16.9259
  40   2.0000      -0.589368       -16.0375
  41   2.0000      -0.564013       -15.3476
  42   2.0000      -0.559266       -15.2184
  43   2.0000      -0.552021       -15.0213
  44   2.0000      -0.549095       -14.9416
  45   2.0000      -0.537349       -14.6220
  46   2.0000      -0.522405       -14.2154
  47   2.0000      -0.508693       -13.8422
  48   2.0000      -0.497549       -13.5390
  49   2.0000      -0.493992       -13.4422
  50   2.0000      -0.488116       -13.2823
  51   2.0000      -0.477835       -13.0025
  52   2.0000      -0.473050       -12.8723
  53   2.0000      -0.465974       -12.6798
  54   2.0000      -0.450110       -12.2481
  55   2.0000      -0.445566       -12.1245
  56   2.0000      -0.444433       -12.0936
  57   2.0000      -0.440344       -11.9824
  58   2.0000      -0.437037       -11.8924
  59   2.0000      -0.433705       -11.8017
  60   2.0000      -0.430898       -11.7253
  61   2.0000      -0.415117       -11.2959
  62   2.0000      -0.408249       -11.1090
  63   2.0000      -0.355843        -9.6830
  64   2.0000      -0.329781        -8.9738
  65   2.0000      -0.325826        -8.8662
  66   2.0000      -0.289077        -7.8662
  67   0.0000       0.025724         0.7000
  68   0.0000       0.066708         1.8152
  69   0.0000       0.097840         2.6623
  70   0.0000       0.119370         3.2482
  71   0.0000       0.125563         3.4168

MULLIKEN ATOMIC CHARGES
-----------------------
   0 S :    0.089603
   1 C :   -0.124840
   2 C :   -0.074750
   3 C :    0.037552
   4 C :   -0.133218
   5 H :   -0.031525
   6 C :    0.072662
   7 H :    0.036277
   8 H :    0.003367
   9 C :   -0.074876
  10 H :    0.033773
  11 H :    0.040414
  12 C :   -0.059792
  13 H :    0.040453
  14 H :    0.021524
  15 H :    0.050657
  16 S :    0.083337
  17 C :   -0.082309
  18 C :   -0.024213
  19 C :   -0.092829
  20 C :   -0.112567
  21 H :    0.009015
  22 C :    0.063116
  23 H :    0.026877
  24 H :    0.007542
  25 C :   -0.033465
  26 H :    0.039471
  27 H :    0.026551
  28 C :   -0.084342
  29 H :    0.043070
  30 H :    0.049735
  31 H :    0.035285
  32 H :    0.047162
  33 H :    0.071282
Sum of atomic charges:   -0.0000000

LOEWDIN ATOMIC CHARGES
----------------------
   0 S :    0.376877
   1 C :   -0.183294
   2 C :   -0.059238
   3 C :   -0.054771
   4 C :   -0.185015
   5 H :    0.022147
   6 C :   -0.028383
   7 H :    0.038673
   8 H :    0.022536
   9 C :   -0.039178
  10 H :    0.026649
  11 H :    0.027776
  12 C :   -0.076622
  13 H :    0.032551
  14 H :    0.024310
  15 H :    0.030595
  16 S :    0.366763
  17 C :   -0.175301
  18 C :   -0.066377
  19 C :   -0.057521
  20 C :   -0.189359
  21 H :    0.027212
  22 C :   -0.035038
  23 H :    0.038788
  24 H :    0.019139
  25 C :   -0.035700
  26 H :    0.030112
  27 H :    0.019136
  28 C :   -0.070435
  29 H :    0.031558
  30 H :    0.030058
  31 H :    0.023770
  32 H :    0.025884
  33 H :    0.041697

  Mayer bond orders larger than 0.100000
B(  0-S ,  1-C ) :   1.1192 B(  0-S ,  4-C ) :   1.1231 B(  1-C ,  2-C ) :   1.6425
B(  1-C , 32-H ) :   0.9632 B(  2-C ,  3-C ) :   1.1877 B(  2-C ,  6-C ) :   1.0368
B(  3-C ,  4-C ) :   1.6237 B(  3-C ,  5-H ) :   0.9953 B(  4-C , 20-C ) :   1.0416
B(  6-C ,  7-H ) :   0.9311 B(  6-C ,  8-H ) :   0.9371 B(  6-C ,  9-C ) :   1.0650
B(  9-C , 10-H ) :   0.9545 B(  9-C , 11-H ) :   0.9572 B(  9-C , 12-C ) :   1.0626
B( 12-C , 13-H ) :   0.9768 B( 12-C , 14-H ) :   0.9728 B( 12-C , 15-H ) :   0.9751
B( 16-S , 17-C ) :   1.1175 B( 16-S , 20-C ) :   1.1293 B( 17-C , 18-C ) :   1.6407
B( 17-C , 33-H ) :   0.9575 B( 18-C , 19-C ) :   1.2430 B( 18-C , 21-H ) :   0.9853
B( 19-C , 20-C ) :   1.6036 B( 19-C , 22-C ) :   1.0165 B( 22-C , 23-H ) :   0.9392
B( 22-C , 24-H ) :   0.9362 B( 22-C , 25-C ) :   1.0563 B( 25-C , 26-H ) :   0.9514
B( 25-C , 27-H ) :   0.9495 B( 25-C , 28-C ) :   1.0946 B( 28-C , 29-H ) :   0.9696
B( 28-C , 30-H ) :   0.9654 B( 28-C , 31-H ) :   0.9750

Dispersion correction           -0.015019037
FINAL SINGLE POINT ENERGY     -1339.869958229803

DIPOLE MOMENT
-------------
                                X             Y             Z
Electronic contribution:     25.85862       1.92102      -4.89276
Nuclear contribution   :    -26.76674      -1.87867       5.08865
                        -----------------------------------------
Total Dipole Moment    :     -0.90813       0.04235       0.19589
                        -----------------------------------------
Magnitude (a.u.)       :      0.92998
Magnitude (Debye)      :      2.36382

Rotational constants in cm-1:     0.018492     0.009190     0.007190
Rotational constants in MHz :   554.366705   275.520575   215.562386

                             ****ORCA TERMINATED NORMALLY****
TOTAL RUN TIME: 0 days 0 hours 0 minutes 34 seconds 930 msec
