                         Program Version 4.2.1 -  RELEASE  -
|  1> ! wB97X-D3 SP def2-SVP
|  2> %pal
|  3> nprocs 16
|  4> end
|  5>
|  6> * xyz 0 1
|  7> S 	 -69.6352 	 40.2447 	 123.275
|  8> C 	 -70.7296 	 41.6707 	 123.46
|  9> C 	 -69.9799 	 42.8099 	 123.434
| 10> C 	 -68.6022 	 42.5128 	 123.209
| 11> C 	 -68.2049 	 41.2321 	 123.389
| 12> H 	 -67.9208 	 43.2624 	 122.884
| 13> C 	 -70.5127 	 44.1719 	 123.437
| 14> H 	 -71.5968 	 44.166 	 123.65
| 15> H 	 -70.4789 	 44.6162 	 122.418
| 16> C 	 -69.7445 	 45.1684 	 124.262
| 17> H 	 -68.709 	 45.1792 	 124.027
| 18> H 	 -70.0924 	 46.1603 	 123.98
| 19> C 	 -69.9102 	 45.0722 	 125.718
| 20> H 	 -70.9495 	 45.4135 	 125.962
| 21> H 	 -69.8624 	 44.0856 	 126.023
| 22> H 	 -69.2739 	 45.7913 	 126.282
| 23> S 	 -66.8787 	 39.4459 	 121.668
| 24> C 	 -65.1042 	 39.3286 	 121.874
| 25> C 	 -64.6203 	 40.1408 	 122.85
| 26> C 	 -65.625 	 40.9669 	 123.362
| 27> C 	 -66.9453 	 40.6087 	 123.011
| 28> H 	 -63.5847 	 40.1482 	 123.081
| 29> C 	 -65.2171 	 41.8524 	 124.503
| 30> H 	 -64.8378 	 41.2171 	 125.319
| 31> H 	 -66.069 	 42.3766 	 124.87
| 32> C 	 -64.0893 	 42.8252 	 124.065
| 33> H 	 -63.3059 	 42.3146 	 123.567
| 34> H 	 -63.634 	 43.3276 	 124.913
| 35> C 	 -64.657 	 43.9592 	 123.209
| 36> H 	 -63.8086 	 44.6109 	 122.956
| 37> H 	 -65.3834 	 44.5687 	 123.8
| 38> H 	 -65.0818 	 43.4921 	 122.361
| 39> H 	 -71.8346 	 41.6742 	 123.523
| 40> H 	 -64.454 	 38.7985 	 121.214
| 41> *
| 42>
| 43>                          ****END OF INPUT****

CARTESIAN COORDINATES (ANGSTROEM)
---------------------------------
  S    -69.635200   40.244700  123.275000
  C    -70.729600   41.670700  123.460000
  C    -69.979900   42.809900  123.434000
  C    -68.602200   42.512800  123.209000
  C    -68.204900   41.232100  123.389000
  H    -67.920800   43.262400  122.884000
  C    -70.512700   44.171900  123.437000
  H    -71.596800   44.166000  123.650000
  H    -70.478900   44.616200  122.418000
  C    -69.744500   45.168400  124.262000
  H    -68.709000   45.179200  124.027000
  H    -70.092400   46.160300  123.980000
  C    -69.910200   45.072200  125.718000
  H    -70.949500   45.413500  125.962000
  H    -69.862400   44.085600  126.023000
  H    -69.273900   45.791300  126.282000
  S    -66.878700   39.445900  121.668000
  C    -65.104200   39.328600  121.874000
  C    -64.620300   40.140800  122.850000
  C    -65.625000   40.966900  123.362000
  C    -66.945300   40.608700  123.011000
  H    -63.584700   40.148200  123.081000
  C    -65.217100   41.852400  124.503000
  H    -64.837800   41.217100  125.319000
  H    -66.069000   42.376600  124.870000
  C    -64.089300   42.825200  124.065000
  H    -63.305900   42.314600  123.567000
  H    -63.634000   43.327600  124.913000
  C    -64.657000   43.959200  123.209000
  H    -63.808600   44.610900  122.956000
  H    -65.383400   44.568700  123.800000
  H    -65.081800   43.492100  122.361000
  H    -71.834600   41.674200  123.523000
  H    -64.454000   38.798500  121.214000

 Total Charge           Charge          ....    0
 Multiplicity           Mult            ....    1
 Number of Electrons    NEL             ....  134
 Basis Dimension        Dim             ....  322

ORBITAL ENERGIES
----------------

  NO   OCC          E(Eh)            E(eV)
   0   2.0000     -88.968314     -2420.9509
   1   2.0000     -88.961481     -2420.7650
   2   2.0000     -10.331600      -281.1371
   3   2.0000     -10.328114      -281.0423
   4   2.0000     -10.320322      -280.8302
   5   2.0000     -10.317294      -280.7478
   6   2.0000     -10.300106      -280.2801
   7   2.0000     -10.297337      -280.2048
   8   2.0000     -10.292465      -280.0722
   9   2.0000     -10.290598      -280.0214
  10   2.0000     -10.288127      -279.9542
  11   2.0000     -10.285247      -279.8758
  12   2.0000     -10.281051      -279.7616
  13   2.0000     -10.276494      -279.6376
  14   2.0000     -10.275840      -279.6198
  15   2.0000     -10.269595      -279.4499
  16   2.0000      -8.081805      -219.9171
  17   2.0000      -8.075937      -219.7574
  18   2.0000      -6.040415      -164.3681
  19   2.0000      -6.036566      -164.2633
  20   2.0000      -6.034714      -164.2129
  21   2.0000      -6.032437      -164.1510
  22   2.0000      -6.030667      -164.1028
  23   2.0000      -6.026206      -163.9814
  24   2.0000      -1.009530       -27.4707
  25   2.0000      -0.986092       -26.8329
  26   2.0000      -0.927165       -25.2294
  27   2.0000      -0.911143       -24.7935
  28   2.0000      -0.877850       -23.8875
  29   2.0000      -0.849189       -23.1076
  30   2.0000      -0.844744       -22.9867
  31   2.0000      -0.820338       -22.3225
  32   2.0000      -0.786363       -21.3980
  33   2.0000      -0.770937       -20.9783
  34   2.0000      -0.714229       -19.4352
  35   2.0000      -0.698516       -19.0076
  36   2.0000      -0.693829       -18.8800
  37   2.0000      -0.657111       -17.8809
  38   2.0000      -0.643728       -17.5167
  39   2.0000      -0.626784       -17.0557
  40   2.0000      -0.601562       -16.3693
  41   2.0000      -0.577423       -15.7125
  42   2.0000      -0.562959       -15.3189
  43   2.0000      -0.557870       -15.1804
  44   2.0000      -0.543141       -14.7796
  45   2.0000      -0.539156       -14.6712
  46   2.0000      -0.526586       -14.3291
  47   2.0000      -0.517260       -14.0753
  48   2.0000      -0.505390       -13.7524
  49   2.0000      -0.498499       -13.5649
  50   2.0000      -0.492539       -13.4027
  51   2.0000      -0.476346       -12.9620
  52   2.0000      -0.471990       -12.8435
  53   2.0000      -0.463367       -12.6089
  54   2.0000      -0.462675       -12.5900
  55   2.0000      -0.450821       -12.2675
  56   2.0000      -0.443073       -12.0566
  57   2.0000      -0.435801       -11.8588
  58   2.0000      -0.431838       -11.7509
  59   2.0000      -0.425530       -11.5793
  60   2.0000      -0.421815       -11.4782
  61   2.0000      -0.416078       -11.3221
  62   2.0000      -0.409185       -11.1345
  63   2.0000      -0.352654        -9.5962
  64   2.0000      -0.332389        -9.0448
  65   2.0000      -0.323793        -8.8109
  66   2.0000      -0.290347        -7.9007
  67   0.0000       0.024182         0.6580
  68   0.0000       0.064441         1.7535
  69   0.0000       0.103539         2.8174
  70   0.0000       0.116176         3.1613
  71   0.0000       0.121193         3.2978

MULLIKEN ATOMIC CHARGES
-----------------------
   0 S :    0.065070
   1 C :   -0.122943
   2 C :   -0.071677
   3 C :    0.020770
   4 C :   -0.114943
   5 H :    0.008169
   6 C :    0.052977
   7 H :    0.014637
   8 H :    0.043566
   9 C :   -0.061814
  10 H :    0.014772
  11 H :    0.012198
  12 C :   -0.015381
  13 H :    0.012464
  14 H :    0.022043
  15 H :    0.037753
  16 S :    0.102115
  17 C :   -0.079697
  18 C :   -0.017808
  19 C :   -0.063380
  20 C :   -0.119329
  21 H :    0.018730
  22 C :    0.069624
  23 H :    0.044109
  24 H :    0.007075
  25 C :   -0.077414
  26 H :    0.016941
  27 H :    0.020768
  28 C :   -0.054479
  29 H :    0.035956
  30 H :    0.036114
  31 H :    0.040451
  32 H :    0.057000
  33 H :    0.045563
Sum of atomic charges:    0.0000000

LOEWDIN ATOMIC CHARGES
----------------------
   0 S :    0.376022
   1 C :   -0.174313
   2 C :   -0.072003
   3 C :   -0.052067
   4 C :   -0.191042
   5 H :    0.025056
   6 C :   -0.035878
   7 H :    0.032126
   8 H :    0.044383
   9 C :   -0.045049
  10 H :    0.017103
  11 H :    0.024237
  12 C :   -0.059574
  13 H :    0.026674
  14 H :    0.014475
  15 H :    0.031679
  16 S :    0.379616
  17 C :   -0.159270
  18 C :   -0.065251
  19 C :   -0.058933
  20 C :   -0.193259
  21 H :    0.031149
  22 C :   -0.026347
  23 H :    0.036889
  24 H :    0.020353
  25 C :   -0.036092
  26 H :    0.013889
  27 H :    0.021363
  28 C :   -0.060448
  29 H :    0.028207
  30 H :    0.027165
  31 H :    0.018208
  32 H :    0.037143
  33 H :    0.023789

  Mayer bond orders larger than 0.100000
B(  0-S ,  1-C ) :   1.1177 B(  0-S ,  4-C ) :   1.1239 B(  1-C ,  2-C ) :   1.6227
B(  1-C , 32-H ) :   0.9645 B(  2-C ,  3-C ) :   1.2203 B(  2-C ,  6-C ) :   1.0478
B(  3-C ,  4-C ) :   1.5872 B(  3-C ,  5-H ) :   0.9897 B(  4-C , 20-C ) :   1.0454
B(  6-C ,  7-H ) :   0.9388 B(  6-C ,  8-H ) :   0.9257 B(  6-C ,  9-C ) :   1.0807
B(  9-C , 10-H ) :   0.9489 B(  9-C , 11-H ) :   0.9484 B(  9-C , 12-C ) :   1.0880
B( 12-C , 13-H ) :   0.9689 B( 12-C , 14-H ) :   0.9767 B( 12-C , 15-H ) :   0.9706
B( 16-S , 17-C ) :   1.1434 B( 16-S , 20-C ) :   1.1234 B( 17-C , 18-C ) :   1.6237
B( 17-C , 33-H ) :   0.9661 B( 18-C , 19-C ) :   1.2297 B( 18-C , 21-H ) :   0.9944
B( 19-C , 20-C ) :   1.5845 B( 19-C , 22-C ) :   1.0544 B( 22-C , 23-H ) :   0.9431
B( 22-C , 24-H ) :   0.9373 B( 22-C , 25-C ) :   1.0599 B( 25-C , 26-H ) :   0.9594
B( 25-C , 27-H ) :   0.9549 B( 25-C , 28-C ) :   1.0766 B( 28-C , 29-H ) :   0.9715
B( 28-C , 30-H ) :   0.9744 B( 28-C , 31-H ) :   0.9760

Dispersion correction           -0.014781812
FINAL SINGLE POINT ENERGY     -1339.862309924897

DIPOLE MOMENT
-------------
                                X             Y             Z
Electronic contribution:     -5.73005     -27.13905     -10.68849
Nuclear contribution   :      6.04016      27.86034      10.67499
                        -----------------------------------------
Total Dipole Moment    :      0.31011       0.72130      -0.01349
                        -----------------------------------------
Magnitude (a.u.)       :      0.78525
Magnitude (Debye)      :      1.99595

Rotational constants in cm-1:     0.018482     0.010119     0.007089
Rotational constants in MHz :   554.081413   303.359133   212.536017

                             ****ORCA TERMINATED NORMALLY****
TOTAL RUN TIME: 0 days 0 hours 0 minutes 35 seconds 631 msec
