                         Program Version 4.2.1 -  RELEASE  -
|  1> ! wB97X-D3 SP def2-SVP
|  2> %pal
|  3> nprocs 16
|  4> end
|  5>
|  6> * xyz 0 1
|  7> S 	 -67.8173 	 56.7282 	 120.991
|  8> C 	 -67.2353 	 57.3931 	 119.491
|  9> C 	 -66.1768 	 58.2477 	 119.678
| 10> C 	 -65.9986 	 58.5139 	 121.077
| 11> C 	 -66.8836 	 57.81 	 121.933
| 12> H 	 -65.3496 	 59.177 	 121.557
| 13> C 	 -65.2188 	 58.7866 	 118.644
| 14> H 	 -64.8247 	 59.7762 	 118.712
| 15> H 	 -65.6946 	 58.9854 	 117.694
| 16> C 	 -64.044 	 57.8267 	 118.472
| 17> H 	 -63.5923 	 57.7643 	 119.414
| 18> H 	 -64.5478 	 56.821 	 118.342
| 19> C 	 -63.1551 	 58.1354 	 117.283
| 20> H 	 -62.7041 	 59.1553 	 117.261
| 21> H 	 -62.3426 	 57.4096 	 117.237
| 22> H 	 -63.6676 	 58.0815 	 116.333
| 23> S 	 -67.8579 	 59.0561 	 124.159
| 24> C 	 -67.3635 	 58.455 	 125.777
| 25> C 	 -66.5526 	 57.3693 	 125.651
| 26> C 	 -66.2914 	 56.9468 	 124.307
| 27> C 	 -66.9146 	 57.7738 	 123.384
| 28> H 	 -65.9955 	 56.9987 	 126.566
| 29> C 	 -65.3002 	 55.8431 	 124.067
| 30> H 	 -64.8146 	 55.7965 	 125.01
| 31> H 	 -64.5144 	 56.2708 	 123.396
| 32> C 	 -65.9998 	 54.4644 	 123.781
| 33> H 	 -66.4368 	 54.5979 	 122.81
| 34> H 	 -66.8634 	 54.2979 	 124.473
| 35> C 	 -64.9864 	 53.3069 	 123.828
| 36> H 	 -64.2044 	 53.3713 	 123.022
| 37> H 	 -65.5464 	 52.3979 	 123.906
| 38> H 	 -64.4914 	 53.3266 	 124.824
| 39> H 	 -67.7697 	 57.0558 	 118.559
| 40> H 	 -67.6114 	 59.0164 	 126.727
| 41> *
| 42>
| 43>                          ****END OF INPUT****

CARTESIAN COORDINATES (ANGSTROEM)
---------------------------------
  S    -67.817300   56.728200  120.991000
  C    -67.235300   57.393100  119.491000
  C    -66.176800   58.247700  119.678000
  C    -65.998600   58.513900  121.077000
  C    -66.883600   57.810000  121.933000
  H    -65.349600   59.177000  121.557000
  C    -65.218800   58.786600  118.644000
  H    -64.824700   59.776200  118.712000
  H    -65.694600   58.985400  117.694000
  C    -64.044000   57.826700  118.472000
  H    -63.592300   57.764300  119.414000
  H    -64.547800   56.821000  118.342000
  C    -63.155100   58.135400  117.283000
  H    -62.704100   59.155300  117.261000
  H    -62.342600   57.409600  117.237000
  H    -63.667600   58.081500  116.333000
  S    -67.857900   59.056100  124.159000
  C    -67.363500   58.455000  125.777000
  C    -66.552600   57.369300  125.651000
  C    -66.291400   56.946800  124.307000
  C    -66.914600   57.773800  123.384000
  H    -65.995500   56.998700  126.566000
  C    -65.300200   55.843100  124.067000
  H    -64.814600   55.796500  125.010000
  H    -64.514400   56.270800  123.396000
  C    -65.999800   54.464400  123.781000
  H    -66.436800   54.597900  122.810000
  H    -66.863400   54.297900  124.473000
  C    -64.986400   53.306900  123.828000
  H    -64.204400   53.371300  123.022000
  H    -65.546400   52.397900  123.906000
  H    -64.491400   53.326600  124.824000
  H    -67.769700   57.055800  118.559000
  H    -67.611400   59.016400  126.727000

 Total Charge           Charge          ....    0
 Multiplicity           Mult            ....    1
 Number of Electrons    NEL             ....  134
 Basis Dimension        Dim             ....  322

ORBITAL ENERGIES
----------------

  NO   OCC          E(Eh)            E(eV)
   0   2.0000     -88.964067     -2420.8353
   1   2.0000     -88.961909     -2420.7766
   2   2.0000     -10.325873      -280.9813
   3   2.0000     -10.325201      -280.9630
   4   2.0000     -10.322351      -280.8854
   5   2.0000     -10.319022      -280.7949
   6   2.0000     -10.306812      -280.4626
   7   2.0000     -10.301317      -280.3131
   8   2.0000     -10.295983      -280.1680
   9   2.0000     -10.293620      -280.1037
  10   2.0000     -10.289327      -279.9868
  11   2.0000     -10.289184      -279.9829
  12   2.0000     -10.286144      -279.9002
  13   2.0000     -10.283717      -279.8342
  14   2.0000     -10.281334      -279.7693
  15   2.0000     -10.281207      -279.7659
  16   2.0000      -8.079556      -219.8559
  17   2.0000      -8.075867      -219.7555
  18   2.0000      -6.037845      -164.2981
  19   2.0000      -6.034496      -164.2070
  20   2.0000      -6.033828      -164.1888
  21   2.0000      -6.030622      -164.1016
  22   2.0000      -6.030489      -164.0980
  23   2.0000      -6.026539      -163.9905
  24   2.0000      -1.006023       -27.3753
  25   2.0000      -0.982105       -26.7244
  26   2.0000      -0.916692       -24.9444
  27   2.0000      -0.903485       -24.5851
  28   2.0000      -0.869048       -23.6480
  29   2.0000      -0.847996       -23.0751
  30   2.0000      -0.846220       -23.0268
  31   2.0000      -0.810362       -22.0511
  32   2.0000      -0.785321       -21.3697
  33   2.0000      -0.768190       -20.9035
  34   2.0000      -0.707179       -19.2433
  35   2.0000      -0.702315       -19.1110
  36   2.0000      -0.689434       -18.7604
  37   2.0000      -0.657618       -17.8947
  38   2.0000      -0.652942       -17.7675
  39   2.0000      -0.617022       -16.7900
  40   2.0000      -0.589699       -16.0465
  41   2.0000      -0.571108       -15.5406
  42   2.0000      -0.557459       -15.1692
  43   2.0000      -0.551016       -14.9939
  44   2.0000      -0.529951       -14.4207
  45   2.0000      -0.525132       -14.2896
  46   2.0000      -0.518227       -14.1017
  47   2.0000      -0.509758       -13.8712
  48   2.0000      -0.507796       -13.8178
  49   2.0000      -0.499132       -13.5821
  50   2.0000      -0.491691       -13.3796
  51   2.0000      -0.474519       -12.9123
  52   2.0000      -0.469337       -12.7713
  53   2.0000      -0.459545       -12.5049
  54   2.0000      -0.456459       -12.4209
  55   2.0000      -0.445803       -12.1309
  56   2.0000      -0.443457       -12.0671
  57   2.0000      -0.441490       -12.0135
  58   2.0000      -0.438687       -11.9373
  59   2.0000      -0.424750       -11.5580
  60   2.0000      -0.417921       -11.3722
  61   2.0000      -0.411046       -11.1851
  62   2.0000      -0.408840       -11.1251
  63   2.0000      -0.335164        -9.1203
  64   2.0000      -0.328884        -8.9494
  65   2.0000      -0.321997        -8.7620
  66   2.0000      -0.307104        -8.3567
  67   0.0000       0.044505         1.2110
  68   0.0000       0.052830         1.4376
  69   0.0000       0.108714         2.9583
  70   0.0000       0.117108         3.1867
  71   0.0000       0.134691         3.6651

MULLIKEN ATOMIC CHARGES
-----------------------
   0 S :    0.119641
   1 C :   -0.162907
   2 C :   -0.037574
   3 C :    0.069202
   4 C :   -0.184884
   5 H :   -0.012340
   6 C :    0.073994
   7 H :    0.006655
   8 H :    0.001161
   9 C :   -0.062161
  10 H :    0.013888
  11 H :    0.030657
  12 C :   -0.028359
  13 H :    0.031563
  14 H :    0.036266
  15 H :    0.026667
  16 S :    0.095848
  17 C :   -0.120850
  18 C :   -0.051105
  19 C :   -0.040358
  20 C :   -0.201360
  21 H :    0.045231
  22 C :    0.100010
  23 H :   -0.009691
  24 H :    0.044245
  25 C :   -0.082355
  26 H :    0.025358
  27 H :    0.041192
  28 C :   -0.026598
  29 H :    0.051650
  30 H :    0.029363
  31 H :    0.022807
  32 H :    0.074574
  33 H :    0.080571
Sum of atomic charges:   -0.0000000

LOEWDIN ATOMIC CHARGES
----------------------
   0 S :    0.434189
   1 C :   -0.202340
   2 C :   -0.059990
   3 C :   -0.049548
   4 C :   -0.217748
   5 H :    0.021214
   6 C :   -0.037494
   7 H :    0.024986
   8 H :    0.026246
   9 C :   -0.036989
  10 H :    0.015899
  11 H :    0.032035
  12 C :   -0.067883
  13 H :    0.028384
  14 H :    0.028949
  15 H :    0.025193
  16 S :    0.378014
  17 C :   -0.180734
  18 C :   -0.084626
  19 C :   -0.055596
  20 C :   -0.202283
  21 H :    0.043221
  22 C :   -0.033053
  23 H :    0.020304
  24 H :    0.040826
  25 C :   -0.036194
  26 H :    0.014830
  27 H :    0.032917
  28 C :   -0.069197
  29 H :    0.034346
  30 H :    0.024075
  31 H :    0.026587
  32 H :    0.038427
  33 H :    0.043034

  Mayer bond orders larger than 0.100000
B(  0-S ,  1-C ) :   1.1662 B(  0-S ,  4-C ) :   1.1794 B(  1-C ,  2-C ) :   1.5723
B(  1-C ,  4-C ) :   0.1017 B(  1-C , 32-H ) :   0.9672 B(  2-C ,  3-C ) :   1.2431
B(  2-C ,  6-C ) :   1.0310 B(  3-C ,  4-C ) :   1.5597 B(  3-C ,  5-H ) :   1.0077
B(  4-C , 20-C ) :   1.0125 B(  6-C ,  7-H ) :   0.9391 B(  6-C ,  8-H ) :   0.9367
B(  6-C ,  9-C ) :   1.0485 B(  9-C , 10-H ) :   0.9581 B(  9-C , 11-H ) :   0.9541
B(  9-C , 12-C ) :   1.0791 B( 12-C , 13-H ) :   0.9722 B( 12-C , 14-H ) :   0.9727
B( 12-C , 15-H ) :   0.9726 B( 16-S , 17-C ) :   1.1360 B( 16-S , 20-C ) :   1.1398
B( 17-C , 18-C ) :   1.6463 B( 17-C , 33-H ) :   0.9583 B( 18-C , 19-C ) :   1.2313
B( 18-C , 21-H ) :   0.9685 B( 19-C , 20-C ) :   1.6177 B( 19-C , 22-C ) :   1.0335
B( 22-C , 23-H ) :   0.9264 B( 22-C , 24-H ) :   0.9325 B( 22-C , 25-C ) :   1.0398
B( 25-C , 26-H ) :   0.9544 B( 25-C , 27-H ) :   0.9571 B( 25-C , 28-C ) :   1.0808
B( 28-C , 29-H ) :   0.9735 B( 28-C , 30-H ) :   0.9735 B( 28-C , 31-H ) :   0.9732

Dispersion correction           -0.014263756
FINAL SINGLE POINT ENERGY     -1339.871525393997

DIPOLE MOMENT
-------------
                                X             Y             Z
Electronic contribution:    -20.73699      11.05685      10.75973
Nuclear contribution   :     21.33032     -11.17630     -10.84595
                        -----------------------------------------
Total Dipole Moment    :      0.59333      -0.11944      -0.08622
                        -----------------------------------------
Magnitude (a.u.)       :      0.61135
Magnitude (Debye)      :      1.55392

Rotational constants in cm-1:     0.018209     0.008168     0.006793
Rotational constants in MHz :   545.900213   244.868293   203.638234

                             ****ORCA TERMINATED NORMALLY****
TOTAL RUN TIME: 0 days 0 hours 0 minutes 33 seconds 548 msec
