                         Program Version 4.2.1 -  RELEASE  -
|  1> ! wB97X-D3 SP def2-SVP
|  2> %pal
|  3> nprocs 16
|  4> end
|  5>
|  6> * xyz 0 1
|  7> S 	 -9.45407 	 49.1002 	 31.8659
|  8> C 	 -8.65958 	 48.3234 	 33.2444
|  9> C 	 -8.60119 	 49.1632 	 34.3644
| 10> C 	 -9.24321 	 50.4462 	 34.1107
| 11> C 	 -9.81803 	 50.5373 	 32.8513
| 12> H 	 -9.34124 	 51.2859 	 34.8534
| 13> C 	 -7.86877 	 48.813 	 35.6564
| 14> H 	 -6.8315 	 48.6405 	 35.5338
| 15> H 	 -8.39079 	 47.8729 	 35.9099
| 16> C 	 -8.20752 	 49.6083 	 36.9156
| 17> H 	 -8.16209 	 50.7225 	 36.8784
| 18> H 	 -9.30283 	 49.4119 	 37.101
| 19> C 	 -7.45749 	 49.1767 	 38.1427
| 20> H 	 -7.39009 	 48.1452 	 38.2308
| 21> H 	 -6.48475 	 49.5695 	 38.3224
| 22> H 	 -8.0221 	 49.4193 	 39.0802
| 23> S 	 -9.54337 	 52.2803 	 30.8752
| 24> C 	 -10.695 	 53.5765 	 30.7918
| 25> C 	 -11.5512 	 53.6824 	 31.8186
| 26> C 	 -11.4644 	 52.4929 	 32.6809
| 27> C 	 -10.4493 	 51.6607 	 32.2192
| 28> H 	 -12.1842 	 54.5089 	 31.9147
| 29> C 	 -12.4197 	 52.2488 	 33.8823
| 30> H 	 -12.4682 	 53.2283 	 34.343
| 31> H 	 -12.1153 	 51.6153 	 34.694
| 32> C 	 -13.8098 	 51.7284 	 33.401
| 33> H 	 -14.2366 	 51.5112 	 34.3885
| 34> H 	 -13.7718 	 50.8383 	 32.7644
| 35> C 	 -14.6542 	 52.8084 	 32.6641
| 36> H 	 -14.2526 	 53.2573 	 31.756
| 37> H 	 -14.7697 	 53.6225 	 33.2967
| 38> H 	 -15.6033 	 52.3567 	 32.489
| 39> H 	 -8.32035 	 47.2742 	 33.2644
| 40> H 	 -10.5674 	 54.3813 	 30.127
| 41> *
| 42>
| 43>                          ****END OF INPUT****

CARTESIAN COORDINATES (ANGSTROEM)
---------------------------------
  S     -9.454070   49.100200   31.865900
  C     -8.659580   48.323400   33.244400
  C     -8.601190   49.163200   34.364400
  C     -9.243210   50.446200   34.110700
  C     -9.818030   50.537300   32.851300
  H     -9.341240   51.285900   34.853400
  C     -7.868770   48.813000   35.656400
  H     -6.831500   48.640500   35.533800
  H     -8.390790   47.872900   35.909900
  C     -8.207520   49.608300   36.915600
  H     -8.162090   50.722500   36.878400
  H     -9.302830   49.411900   37.101000
  C     -7.457490   49.176700   38.142700
  H     -7.390090   48.145200   38.230800
  H     -6.484750   49.569500   38.322400
  H     -8.022100   49.419300   39.080200
  S     -9.543370   52.280300   30.875200
  C    -10.695000   53.576500   30.791800
  C    -11.551200   53.682400   31.818600
  C    -11.464400   52.492900   32.680900
  C    -10.449300   51.660700   32.219200
  H    -12.184200   54.508900   31.914700
  C    -12.419700   52.248800   33.882300
  H    -12.468200   53.228300   34.343000
  H    -12.115300   51.615300   34.694000
  C    -13.809800   51.728400   33.401000
  H    -14.236600   51.511200   34.388500
  H    -13.771800   50.838300   32.764400
  C    -14.654200   52.808400   32.664100
  H    -14.252600   53.257300   31.756000
  H    -14.769700   53.622500   33.296700
  H    -15.603300   52.356700   32.489000
  H     -8.320350   47.274200   33.264400
  H    -10.567400   54.381300   30.127000

 Total Charge           Charge          ....    0
 Multiplicity           Mult            ....    1
 Number of Electrons    NEL             ....  134
 Basis Dimension        Dim             ....  322

ORBITAL ENERGIES
----------------

  NO   OCC          E(Eh)            E(eV)
   0   2.0000     -88.963762     -2420.8270
   1   2.0000     -88.963017     -2420.8068
   2   2.0000     -10.326121      -280.9880
   3   2.0000     -10.318591      -280.7831
   4   2.0000     -10.315840      -280.7083
   5   2.0000     -10.307913      -280.4926
   6   2.0000     -10.306077      -280.4426
   7   2.0000     -10.306008      -280.4407
   8   2.0000     -10.298929      -280.2481
   9   2.0000     -10.293658      -280.1047
  10   2.0000     -10.292973      -280.0860
  11   2.0000     -10.292382      -280.0700
  12   2.0000     -10.290533      -280.0196
  13   2.0000     -10.289266      -279.9852
  14   2.0000     -10.272171      -279.5200
  15   2.0000     -10.267985      -279.4061
  16   2.0000      -8.078696      -219.8325
  17   2.0000      -8.077696      -219.8053
  18   2.0000      -6.037064      -164.2769
  19   2.0000      -6.036296      -164.2560
  20   2.0000      -6.033356      -164.1760
  21   2.0000      -6.032324      -164.1479
  22   2.0000      -6.029244      -164.0641
  23   2.0000      -6.028413      -164.0415
  24   2.0000      -1.005243       -27.3540
  25   2.0000      -0.975729       -26.5509
  26   2.0000      -0.914144       -24.8751
  27   2.0000      -0.904163       -24.6035
  28   2.0000      -0.872751       -23.7488
  29   2.0000      -0.846113       -23.0239
  30   2.0000      -0.842792       -22.9335
  31   2.0000      -0.814645       -22.1676
  32   2.0000      -0.787744       -21.4356
  33   2.0000      -0.772793       -21.0288
  34   2.0000      -0.712035       -19.3755
  35   2.0000      -0.697190       -18.9715
  36   2.0000      -0.684740       -18.6327
  37   2.0000      -0.663323       -18.0499
  38   2.0000      -0.635534       -17.2938
  39   2.0000      -0.613496       -16.6941
  40   2.0000      -0.600397       -16.3376
  41   2.0000      -0.575159       -15.6509
  42   2.0000      -0.562968       -15.3191
  43   2.0000      -0.544773       -14.8240
  44   2.0000      -0.539162       -14.6713
  45   2.0000      -0.529089       -14.3972
  46   2.0000      -0.517696       -14.0872
  47   2.0000      -0.510278       -13.8854
  48   2.0000      -0.496796       -13.5185
  49   2.0000      -0.492019       -13.3885
  50   2.0000      -0.486824       -13.2471
  51   2.0000      -0.483428       -13.1547
  52   2.0000      -0.474451       -12.9105
  53   2.0000      -0.468583       -12.7508
  54   2.0000      -0.457776       -12.4567
  55   2.0000      -0.448624       -12.2077
  56   2.0000      -0.443771       -12.0756
  57   2.0000      -0.441501       -12.0138
  58   2.0000      -0.429668       -11.6919
  59   2.0000      -0.425841       -11.5877
  60   2.0000      -0.421752       -11.4764
  61   2.0000      -0.411996       -11.2110
  62   2.0000      -0.407912       -11.0999
  63   2.0000      -0.345744        -9.4082
  64   2.0000      -0.327522        -8.9123
  65   2.0000      -0.326658        -8.8888
  66   2.0000      -0.289431        -7.8758
  67   0.0000       0.035516         0.9664
  68   0.0000       0.068092         1.8529
  69   0.0000       0.106485         2.8976
  70   0.0000       0.120362         3.2752
  71   0.0000       0.136016         3.7012

MULLIKEN ATOMIC CHARGES
-----------------------
   0 S :    0.098361
   1 C :   -0.132483
   2 C :   -0.102683
   3 C :    0.031042
   4 C :   -0.169296
   5 H :    0.035511
   6 C :    0.076708
   7 H :    0.045519
   8 H :    0.035788
   9 C :   -0.127210
  10 H :    0.038275
  11 H :    0.032403
  12 C :   -0.009035
  13 H :    0.001710
  14 H :    0.029973
  15 H :    0.025184
  16 S :    0.114231
  17 C :   -0.053858
  18 C :   -0.025345
  19 C :   -0.042412
  20 C :   -0.154612
  21 H :    0.001259
  22 C :    0.070657
  23 H :    0.020060
  24 H :    0.021889
  25 C :   -0.079101
  26 H :    0.030746
  27 H :    0.049157
  28 C :   -0.019957
  29 H :    0.039059
  30 H :    0.000867
  31 H :    0.029850
  32 H :    0.056115
  33 H :    0.031631
Sum of atomic charges:    0.0000000

LOEWDIN ATOMIC CHARGES
----------------------
   0 S :    0.382112
   1 C :   -0.201578
   2 C :   -0.061051
   3 C :   -0.068682
   4 C :   -0.187958
   5 H :    0.040442
   6 C :   -0.034298
   7 H :    0.026978
   8 H :    0.044892
   9 C :   -0.050949
  10 H :    0.022439
  11 H :    0.031066
  12 C :   -0.063872
  13 H :    0.014124
  14 H :    0.021868
  15 H :    0.035325
  16 S :    0.413926
  17 C :   -0.177067
  18 C :   -0.060515
  19 C :   -0.044464
  20 C :   -0.210931
  21 H :    0.022935
  22 C :   -0.030473
  23 H :    0.029869
  24 H :    0.026406
  25 C :   -0.029025
  26 H :    0.026853
  27 H :    0.029471
  28 C :   -0.061188
  29 H :    0.026297
  30 H :    0.012506
  31 H :    0.024951
  32 H :    0.033061
  33 H :    0.016528

  Mayer bond orders larger than 0.100000
B(  0-S ,  1-C ) :   1.1264 B(  0-S ,  4-C ) :   1.1419 B(  1-C ,  2-C ) :   1.6284
B(  1-C ,  4-C ) :   0.1002 B(  1-C , 32-H ) :   0.9686 B(  2-C ,  3-C ) :   1.2326
B(  2-C ,  6-C ) :   0.9946 B(  3-C ,  4-C ) :   1.5904 B(  3-C ,  5-H ) :   0.9784
B(  4-C , 20-C ) :   1.0234 B(  6-C ,  7-H ) :   0.9536 B(  6-C ,  8-H ) :   0.9362
B(  6-C ,  9-C ) :   1.0643 B(  9-C , 10-H ) :   0.9497 B(  9-C , 11-H ) :   0.9594
B(  9-C , 12-C ) :   1.0916 B( 12-C , 13-H ) :   0.9681 B( 12-C , 14-H ) :   0.9742
B( 12-C , 15-H ) :   0.9692 B( 16-S , 17-C ) :   1.1361 B( 16-S , 20-C ) :   1.1456
B( 17-C , 18-C ) :   1.6674 B( 17-C , 33-H ) :   0.9663 B( 18-C , 19-C ) :   1.1913
B( 18-C , 21-H ) :   0.9941 B( 19-C , 20-C ) :   1.6414 B( 19-C , 22-C ) :   1.0269
B( 22-C , 23-H ) :   0.9355 B( 22-C , 24-H ) :   0.9449 B( 22-C , 25-C ) :   1.0642
B( 25-C , 26-H ) :   0.9573 B( 25-C , 27-H ) :   0.9596 B( 25-C , 28-C ) :   1.0802
B( 28-C , 29-H ) :   0.9703 B( 28-C , 30-H ) :   0.9730 B( 28-C , 31-H ) :   0.9727

Dispersion correction           -0.013917741
FINAL SINGLE POINT ENERGY     -1339.860586489470

DIPOLE MOMENT
-------------
                                X             Y             Z
Electronic contribution:      8.70466      -0.64148     -24.65520
Nuclear contribution   :     -8.86657       0.84336      25.38173
                        -----------------------------------------
Total Dipole Moment    :     -0.16191       0.20188       0.72653
                        -----------------------------------------
Magnitude (a.u.)       :      0.77124
Magnitude (Debye)      :      1.96033

Rotational constants in cm-1:     0.019197     0.007814     0.006605
Rotational constants in MHz :   575.524567   234.269582   198.008798

                             ****ORCA TERMINATED NORMALLY****
TOTAL RUN TIME: 0 days 0 hours 0 minutes 33 seconds 630 msec
