                         Program Version 4.2.1 -  RELEASE  -
|  1> ! wB97X-D3 SP def2-SVP
|  2> %pal
|  3> nprocs 16
|  4> end
|  5>
|  6> * xyz 0 1
|  7> S 	 14.2516 	 25.9064 	 48.2527
|  8> C 	 14.9119 	 24.2987 	 48.4635
|  9> C 	 13.9761 	 23.329 	 48.2463
| 10> C 	 12.7098 	 23.9172 	 48.0569
| 11> C 	 12.6848 	 25.2875 	 47.9364
| 12> H 	 11.7083 	 23.4882 	 47.8755
| 13> C 	 14.2098 	 21.868 	 48.037
| 14> H 	 15.0522 	 21.7521 	 47.368
| 15> H 	 13.3586 	 21.4929 	 47.4463
| 16> C 	 14.2937 	 21.0914 	 49.3234
| 17> H 	 15.2082 	 21.2295 	 49.8985
| 18> H 	 13.4279 	 21.2535 	 50.0137
| 19> C 	 14.1496 	 19.5712 	 49.1326
| 20> H 	 13.2023 	 19.1487 	 48.8391
| 21> H 	 14.7609 	 19.3134 	 48.2793
| 22> H 	 14.6986 	 19.0305 	 49.9571
| 23> S 	 11.524 	 27.4969 	 46.6372
| 24> C 	 9.75126 	 27.6546 	 46.5577
| 25> C 	 9.23398 	 26.8057 	 47.4899
| 26> C 	 10.08 	 25.8892 	 48.1011
| 27> C 	 11.4445 	 26.0244 	 47.6498
| 28> H 	 8.19571 	 26.6587 	 47.5781
| 29> C 	 9.59878 	 24.769 	 49.0037
| 30> H 	 10.3576 	 24.6893 	 49.7747
| 31> H 	 9.5429 	 23.8173 	 48.43
| 32> C 	 8.21608 	 25.0759 	 49.7335
| 33> H 	 7.3849 	 25.1008 	 49.0203
| 34> H 	 8.32871 	 26.0884 	 50.2231
| 35> C 	 7.93263 	 24.0485 	 50.8444
| 36> H 	 8.83138 	 24.0794 	 51.4413
| 37> H 	 7.81736 	 22.9994 	 50.5469
| 38> H 	 7.15071 	 24.3981 	 51.53
| 39> H 	 15.9615 	 24.1404 	 48.5965
| 40> H 	 9.25334 	 28.2806 	 45.8581
| 41> *
| 42>
| 43>                          ****END OF INPUT****

CARTESIAN COORDINATES (ANGSTROEM)
---------------------------------
  S     14.251600   25.906400   48.252700
  C     14.911900   24.298700   48.463500
  C     13.976100   23.329000   48.246300
  C     12.709800   23.917200   48.056900
  C     12.684800   25.287500   47.936400
  H     11.708300   23.488200   47.875500
  C     14.209800   21.868000   48.037000
  H     15.052200   21.752100   47.368000
  H     13.358600   21.492900   47.446300
  C     14.293700   21.091400   49.323400
  H     15.208200   21.229500   49.898500
  H     13.427900   21.253500   50.013700
  C     14.149600   19.571200   49.132600
  H     13.202300   19.148700   48.839100
  H     14.760900   19.313400   48.279300
  H     14.698600   19.030500   49.957100
  S     11.524000   27.496900   46.637200
  C      9.751260   27.654600   46.557700
  C      9.233980   26.805700   47.489900
  C     10.080000   25.889200   48.101100
  C     11.444500   26.024400   47.649800
  H      8.195710   26.658700   47.578100
  C      9.598780   24.769000   49.003700
  H     10.357600   24.689300   49.774700
  H      9.542900   23.817300   48.430000
  C      8.216080   25.075900   49.733500
  H      7.384900   25.100800   49.020300
  H      8.328710   26.088400   50.223100
  C      7.932630   24.048500   50.844400
  H      8.831380   24.079400   51.441300
  H      7.817360   22.999400   50.546900
  H      7.150710   24.398100   51.530000
  H     15.961500   24.140400   48.596500
  H      9.253340   28.280600   45.858100

 Total Charge           Charge          ....    0
 Multiplicity           Mult            ....    1
 Number of Electrons    NEL             ....  134
 Basis Dimension        Dim             ....  322

ORBITAL ENERGIES
----------------

  NO   OCC          E(Eh)            E(eV)
   0   2.0000     -88.966584     -2420.9038
   1   2.0000     -88.962668     -2420.7973
   2   2.0000     -10.336318      -281.2655
   3   2.0000     -10.326381      -280.9951
   4   2.0000     -10.318492      -280.7804
   5   2.0000     -10.311075      -280.5786
   6   2.0000     -10.305439      -280.4253
   7   2.0000     -10.299183      -280.2550
   8   2.0000     -10.298678      -280.2413
   9   2.0000     -10.298368      -280.2328
  10   2.0000     -10.293146      -280.0907
  11   2.0000     -10.289155      -279.9821
  12   2.0000     -10.289030      -279.9787
  13   2.0000     -10.286332      -279.9053
  14   2.0000     -10.280158      -279.7373
  15   2.0000     -10.277606      -279.6679
  16   2.0000      -8.081840      -219.9180
  17   2.0000      -8.076492      -219.7725
  18   2.0000      -6.040341      -164.3660
  19   2.0000      -6.036265      -164.2551
  20   2.0000      -6.034995      -164.2206
  21   2.0000      -6.032588      -164.1551
  22   2.0000      -6.031065      -164.1136
  23   2.0000      -6.027379      -164.0133
  24   2.0000      -1.009259       -27.4633
  25   2.0000      -0.984785       -26.7974
  26   2.0000      -0.918629       -24.9972
  27   2.0000      -0.904038       -24.6001
  28   2.0000      -0.871823       -23.7235
  29   2.0000      -0.853813       -23.2334
  30   2.0000      -0.846828       -23.0434
  31   2.0000      -0.814861       -22.1735
  32   2.0000      -0.783344       -21.3159
  33   2.0000      -0.769947       -20.9513
  34   2.0000      -0.706217       -19.2171
  35   2.0000      -0.704041       -19.1579
  36   2.0000      -0.700509       -19.0618
  37   2.0000      -0.653372       -17.7792
  38   2.0000      -0.645251       -17.5582
  39   2.0000      -0.617082       -16.7917
  40   2.0000      -0.600090       -16.3293
  41   2.0000      -0.572726       -15.5847
  42   2.0000      -0.571773       -15.5587
  43   2.0000      -0.563760       -15.3407
  44   2.0000      -0.534104       -14.5337
  45   2.0000      -0.528481       -14.3807
  46   2.0000      -0.517180       -14.0732
  47   2.0000      -0.514843       -14.0096
  48   2.0000      -0.504388       -13.7251
  49   2.0000      -0.497960       -13.5502
  50   2.0000      -0.492709       -13.4073
  51   2.0000      -0.479161       -13.0386
  52   2.0000      -0.472887       -12.8679
  53   2.0000      -0.470632       -12.8065
  54   2.0000      -0.459192       -12.4952
  55   2.0000      -0.450765       -12.2659
  56   2.0000      -0.444044       -12.0831
  57   2.0000      -0.433688       -11.8012
  58   2.0000      -0.432172       -11.7600
  59   2.0000      -0.424542       -11.5524
  60   2.0000      -0.422411       -11.4944
  61   2.0000      -0.411513       -11.1978
  62   2.0000      -0.408588       -11.1182
  63   2.0000      -0.354546        -9.6477
  64   2.0000      -0.332810        -9.0562
  65   2.0000      -0.330189        -8.9849
  66   2.0000      -0.283967        -7.7271
  67   0.0000       0.021970         0.5978
  68   0.0000       0.072966         1.9855
  69   0.0000       0.112451         3.0599
  70   0.0000       0.125226         3.4076
  71   0.0000       0.135212         3.6793

MULLIKEN ATOMIC CHARGES
-----------------------
   0 S :    0.117146
   1 C :   -0.131078
   2 C :   -0.036260
   3 C :   -0.031420
   4 C :   -0.122830
   5 H :    0.007531
   6 C :    0.086125
   7 H :    0.032070
   8 H :    0.022784
   9 C :   -0.074861
  10 H :    0.032074
  11 H :    0.040280
  12 C :   -0.059560
  13 H :    0.036629
  14 H :    0.003933
  15 H :    0.040551
  16 S :    0.078802
  17 C :   -0.078879
  18 C :   -0.002605
  19 C :   -0.047276
  20 C :   -0.168222
  21 H :    0.001128
  22 C :    0.026831
  23 H :    0.036215
  24 H :    0.061857
  25 C :   -0.125702
  26 H :    0.041556
  27 H :    0.048132
  28 C :   -0.022801
  29 H :    0.015192
  30 H :    0.038363
  31 H :    0.039934
  32 H :    0.039874
  33 H :    0.054485
Sum of atomic charges:   -0.0000000

LOEWDIN ATOMIC CHARGES
----------------------
   0 S :    0.419028
   1 C :   -0.189714
   2 C :   -0.062628
   3 C :   -0.071894
   4 C :   -0.210512
   5 H :    0.033642
   6 C :   -0.030642
   7 H :    0.033647
   8 H :    0.036388
   9 C :   -0.043506
  10 H :    0.026002
  11 H :    0.033285
  12 C :   -0.076091
  13 H :    0.021591
  14 H :    0.017649
  15 H :    0.035314
  16 S :    0.375479
  17 C :   -0.164350
  18 C :   -0.073554
  19 C :   -0.060998
  20 C :   -0.179301
  21 H :    0.024364
  22 C :   -0.034571
  23 H :    0.032683
  24 H :    0.034820
  25 C :   -0.041886
  26 H :    0.018811
  27 H :    0.035075
  28 C :   -0.069063
  29 H :    0.023684
  30 H :    0.026510
  31 H :    0.030236
  32 H :    0.023245
  33 H :    0.027259

  Mayer bond orders larger than 0.100000
B(  0-S ,  1-C ) :   1.1428 B(  0-S ,  4-C ) :   1.1490 B(  1-C ,  2-C ) :   1.5956
B(  1-C , 32-H ) :   0.9737 B(  2-C ,  3-C ) :   1.2388 B(  2-C ,  6-C ) :   1.0145
B(  3-C ,  4-C ) :   1.5706 B(  3-C ,  5-H ) :   0.9905 B(  4-C , 20-C ) :   1.0715
B(  6-C ,  7-H ) :   0.9331 B(  6-C ,  8-H ) :   0.9437 B(  6-C ,  9-C ) :   1.0666
B(  9-C , 10-H ) :   0.9561 B(  9-C , 11-H ) :   0.9603 B(  9-C , 12-C ) :   1.0771
B( 12-C , 13-H ) :   0.9775 B( 12-C , 14-H ) :   0.9675 B( 12-C , 15-H ) :   0.9740
B( 16-S , 17-C ) :   1.1525 B( 16-S , 20-C ) :   1.1465 B( 17-C , 18-C ) :   1.5556
B( 17-C , 20-C ) :   0.1184 B( 17-C , 33-H ) :   0.9764 B( 18-C , 19-C ) :   1.3063
B( 18-C , 21-H ) :   0.9866 B( 19-C , 20-C ) :   1.5254 B( 19-C , 22-C ) :   1.0336
B( 22-C , 23-H ) :   0.9305 B( 22-C , 24-H ) :   0.9296 B( 22-C , 25-C ) :   1.0701
B( 25-C , 26-H ) :   0.9490 B( 25-C , 27-H ) :   0.9583 B( 25-C , 28-C ) :   1.0809
B( 28-C , 29-H ) :   0.9721 B( 28-C , 30-H ) :   0.9749 B( 28-C , 31-H ) :   0.9729

Dispersion correction           -0.013241653
FINAL SINGLE POINT ENERGY     -1339.868307402726

DIPOLE MOMENT
-------------
                                X             Y             Z
Electronic contribution:      9.90602      27.13954     -13.27954
Nuclear contribution   :    -10.23217     -27.81893      13.37232
                        -----------------------------------------
Total Dipole Moment    :     -0.32615      -0.67939       0.09278
                        -----------------------------------------
Magnitude (a.u.)       :      0.75931
Magnitude (Debye)      :      1.93002

Rotational constants in cm-1:     0.016486     0.008450     0.006041
Rotational constants in MHz :   494.226307   253.313044   181.113846

                             ****ORCA TERMINATED NORMALLY****
TOTAL RUN TIME: 0 days 0 hours 0 minutes 35 seconds 789 msec
