                         Program Version 4.2.1 -  RELEASE  -
|  1> ! wB97X-D3 SP def2-SVP
|  2> %pal
|  3> nprocs 16
|  4> end
|  5>
|  6> * xyz 0 1
|  7> S 	 51.4923 	 9.3398 	 88.0858
|  8> C 	 50.3375 	 10.299 	 89.0456
|  9> C 	 50.633 	 11.603 	 88.8491
| 10> C 	 51.4101 	 11.8604 	 87.673
| 11> C 	 51.9603 	 10.6845 	 87.1652
| 12> H 	 51.6427 	 12.7594 	 87.1715
| 13> C 	 50.0871 	 12.628 	 89.8128
| 14> H 	 48.9884 	 12.4932 	 89.7575
| 15> H 	 50.2062 	 13.6568 	 89.4621
| 16> C 	 50.6198 	 12.746 	 91.259
| 17> H 	 49.8683 	 13.2372 	 91.8421
| 18> H 	 50.7827 	 11.7448 	 91.6786
| 19> C 	 51.9061 	 13.5414 	 91.4077
| 20> H 	 51.7843 	 14.489 	 91.01
| 21> H 	 52.3585 	 13.4797 	 92.4172
| 22> H 	 52.6694 	 13.2324 	 90.7298
| 23> S 	 54.2668 	 11.5072 	 85.8734
| 24> C 	 54.8419 	 10.5665 	 84.525
| 25> C 	 53.8972 	 9.66729 	 84.0798
| 26> C 	 52.7272 	 9.60335 	 84.9242
| 27> C 	 52.8355 	 10.4979 	 85.9988
| 28> H 	 54.1421 	 9.19525 	 83.1515
| 29> C 	 51.5775 	 8.6561 	 84.7487
| 30> H 	 51.504 	 8.14977 	 85.7057
| 31> H 	 51.794 	 7.87128 	 83.9871
| 32> C 	 50.1604 	 9.19539 	 84.4273
| 33> H 	 50.2018 	 9.90615 	 83.5397
| 34> H 	 49.8127 	 9.71671 	 85.2956
| 35> C 	 49.0392 	 8.1918 	 84.144
| 36> H 	 48.8907 	 7.56945 	 85.0308
| 37> H 	 49.3274 	 7.63435 	 83.2231
| 38> H 	 48.0654 	 8.7527 	 83.9679
| 39> H 	 49.828 	 9.96573 	 89.8895
| 40> H 	 55.7131 	 10.8056 	 83.9675
| 41> *
| 42>
| 43>                          ****END OF INPUT****

CARTESIAN COORDINATES (ANGSTROEM)
---------------------------------
  S     51.492300    9.339800   88.085800
  C     50.337500   10.299000   89.045600
  C     50.633000   11.603000   88.849100
  C     51.410100   11.860400   87.673000
  C     51.960300   10.684500   87.165200
  H     51.642700   12.759400   87.171500
  C     50.087100   12.628000   89.812800
  H     48.988400   12.493200   89.757500
  H     50.206200   13.656800   89.462100
  C     50.619800   12.746000   91.259000
  H     49.868300   13.237200   91.842100
  H     50.782700   11.744800   91.678600
  C     51.906100   13.541400   91.407700
  H     51.784300   14.489000   91.010000
  H     52.358500   13.479700   92.417200
  H     52.669400   13.232400   90.729800
  S     54.266800   11.507200   85.873400
  C     54.841900   10.566500   84.525000
  C     53.897200    9.667290   84.079800
  C     52.727200    9.603350   84.924200
  C     52.835500   10.497900   85.998800
  H     54.142100    9.195250   83.151500
  C     51.577500    8.656100   84.748700
  H     51.504000    8.149770   85.705700
  H     51.794000    7.871280   83.987100
  C     50.160400    9.195390   84.427300
  H     50.201800    9.906150   83.539700
  H     49.812700    9.716710   85.295600
  C     49.039200    8.191800   84.144000
  H     48.890700    7.569450   85.030800
  H     49.327400    7.634350   83.223100
  H     48.065400    8.752700   83.967900
  H     49.828000    9.965730   89.889500
  H     55.713100   10.805600   83.967500

 Total Charge           Charge          ....    0
 Multiplicity           Mult            ....    1
 Number of Electrons    NEL             ....  134
 Basis Dimension        Dim             ....  322

ORBITAL ENERGIES
----------------

  NO   OCC          E(Eh)            E(eV)
   0   2.0000     -88.967724     -2420.9349
   1   2.0000     -88.965686     -2420.8794
   2   2.0000     -10.329416      -281.0777
   3   2.0000     -10.328622      -281.0561
   4   2.0000     -10.314830      -280.6808
   5   2.0000     -10.310202      -280.5549
   6   2.0000     -10.306512      -280.4545
   7   2.0000     -10.301919      -280.3295
   8   2.0000     -10.295559      -280.1564
   9   2.0000     -10.293087      -280.0891
  10   2.0000     -10.292974      -280.0861
  11   2.0000     -10.289497      -279.9915
  12   2.0000     -10.286579      -279.9120
  13   2.0000     -10.282462      -279.8000
  14   2.0000     -10.282394      -279.7982
  15   2.0000     -10.268931      -279.4318
  16   2.0000      -8.082408      -219.9335
  17   2.0000      -8.080649      -219.8856
  18   2.0000      -6.040841      -164.3797
  19   2.0000      -6.039158      -164.3338
  20   2.0000      -6.036959      -164.2740
  21   2.0000      -6.035099      -164.2234
  22   2.0000      -6.033233      -164.1726
  23   2.0000      -6.031406      -164.1229
  24   2.0000      -1.011171       -27.5154
  25   2.0000      -0.987169       -26.8622
  26   2.0000      -0.914432       -24.8829
  27   2.0000      -0.903502       -24.5855
  28   2.0000      -0.872861       -23.7517
  29   2.0000      -0.852527       -23.1984
  30   2.0000      -0.845386       -23.0041
  31   2.0000      -0.819776       -22.3072
  32   2.0000      -0.785818       -21.3832
  33   2.0000      -0.771698       -20.9990
  34   2.0000      -0.708196       -19.2710
  35   2.0000      -0.705695       -19.2029
  36   2.0000      -0.681616       -18.5477
  37   2.0000      -0.664420       -18.0798
  38   2.0000      -0.643452       -17.5092
  39   2.0000      -0.611357       -16.6359
  40   2.0000      -0.592376       -16.1194
  41   2.0000      -0.582063       -15.8387
  42   2.0000      -0.568381       -15.4664
  43   2.0000      -0.552815       -15.0429
  44   2.0000      -0.543005       -14.7759
  45   2.0000      -0.520385       -14.1604
  46   2.0000      -0.519542       -14.1374
  47   2.0000      -0.514835       -14.0094
  48   2.0000      -0.507908       -13.8209
  49   2.0000      -0.497936       -13.5495
  50   2.0000      -0.486674       -13.2431
  51   2.0000      -0.484881       -13.1943
  52   2.0000      -0.473982       -12.8977
  53   2.0000      -0.469064       -12.7639
  54   2.0000      -0.460820       -12.5395
  55   2.0000      -0.446661       -12.1543
  56   2.0000      -0.443442       -12.0667
  57   2.0000      -0.435837       -11.8597
  58   2.0000      -0.430616       -11.7177
  59   2.0000      -0.420272       -11.4362
  60   2.0000      -0.419228       -11.4078
  61   2.0000      -0.412124       -11.2145
  62   2.0000      -0.409107       -11.1324
  63   2.0000      -0.345682        -9.4065
  64   2.0000      -0.331059        -9.0086
  65   2.0000      -0.327885        -8.9222
  66   2.0000      -0.295454        -8.0397
  67   0.0000       0.025474         0.6932
  68   0.0000       0.069080         1.8798
  69   0.0000       0.105168         2.8618
  70   0.0000       0.120863         3.2888
  71   0.0000       0.131401         3.5756

MULLIKEN ATOMIC CHARGES
-----------------------
   0 S :    0.102187
   1 C :   -0.096542
   2 C :   -0.071257
   3 C :    0.049677
   4 C :   -0.157904
   5 H :   -0.007980
   6 C :    0.013992
   7 H :    0.043425
   8 H :    0.007919
   9 C :   -0.035247
  10 H :    0.027136
  11 H :    0.023119
  12 C :   -0.023689
  13 H :    0.002607
  14 H :    0.048418
  15 H :    0.015033
  16 S :    0.113625
  17 C :   -0.084228
  18 C :   -0.040004
  19 C :    0.000682
  20 C :   -0.161359
  21 H :    0.014344
  22 C :    0.066605
  23 H :    0.026724
  24 H :    0.016868
  25 C :   -0.092821
  26 H :    0.035455
  27 H :    0.030971
  28 C :   -0.069499
  29 H :    0.037784
  30 H :    0.037592
  31 H :    0.047939
  32 H :    0.031404
  33 H :    0.047023
Sum of atomic charges:    0.0000000

LOEWDIN ATOMIC CHARGES
----------------------
   0 S :    0.428460
   1 C :   -0.183876
   2 C :   -0.056064
   3 C :   -0.067710
   4 C :   -0.199139
   5 H :    0.024004
   6 C :   -0.040667
   7 H :    0.040138
   8 H :    0.026551
   9 C :   -0.034401
  10 H :    0.024100
  11 H :    0.021092
  12 C :   -0.066197
  13 H :    0.014627
  14 H :    0.035266
  15 H :    0.024849
  16 S :    0.409812
  17 C :   -0.181046
  18 C :   -0.066691
  19 C :   -0.047453
  20 C :   -0.202903
  21 H :    0.031445
  22 C :   -0.044690
  23 H :    0.021911
  24 H :    0.030585
  25 C :   -0.046072
  26 H :    0.027079
  27 H :    0.019540
  28 C :   -0.068975
  29 H :    0.024660
  30 H :    0.025200
  31 H :    0.036815
  32 H :    0.016492
  33 H :    0.023261

  Mayer bond orders larger than 0.100000
B(  0-S ,  1-C ) :   1.1140 B(  0-S ,  4-C ) :   1.1836 B(  1-C ,  2-C ) :   1.6261
B(  1-C , 32-H ) :   0.9758 B(  2-C ,  3-C ) :   1.2116 B(  2-C ,  6-C ) :   1.0208
B(  3-C ,  4-C ) :   1.5661 B(  3-C ,  5-H ) :   1.0065 B(  4-C , 20-C ) :   1.0230
B(  6-C ,  7-H ) :   0.9406 B(  6-C ,  8-H ) :   0.9458 B(  6-C ,  9-C ) :   1.0610
B(  9-C , 10-H ) :   0.9518 B(  9-C , 11-H ) :   0.9580 B(  9-C , 12-C ) :   1.0840
B( 12-C , 13-H ) :   0.9667 B( 12-C , 14-H ) :   0.9724 B( 12-C , 15-H ) :   0.9724
B( 16-S , 17-C ) :   1.1550 B( 16-S , 20-C ) :   1.1461 B( 17-C , 18-C ) :   1.6207
B( 17-C , 33-H ) :   0.9680 B( 18-C , 19-C ) :   1.2254 B( 18-C , 21-H ) :   0.9961
B( 19-C , 20-C ) :   1.5610 B( 19-C , 22-C ) :   1.0523 B( 22-C , 23-H ) :   0.9169
B( 22-C , 24-H ) :   0.9342 B( 22-C , 25-C ) :   1.0579 B( 25-C , 26-H ) :   0.9581
B( 25-C , 27-H ) :   0.9518 B( 25-C , 28-C ) :   1.0899 B( 28-C , 29-H ) :   0.9744
B( 28-C , 30-H ) :   0.9746 B( 28-C , 31-H ) :   0.9728

Dispersion correction           -0.014430067
FINAL SINGLE POINT ENERGY     -1339.869994240506

DIPOLE MOMENT
-------------
                                X             Y             Z
Electronic contribution:     14.88422      -2.86347      -5.13302
Nuclear contribution   :    -15.05801       3.04807       5.11269
                        -----------------------------------------
Total Dipole Moment    :     -0.17379       0.18460      -0.02033
                        -----------------------------------------
Magnitude (a.u.)       :      0.25435
Magnitude (Debye)      :      0.64650

Rotational constants in cm-1:     0.019739     0.008736     0.006639
Rotational constants in MHz :   591.774873   261.888395   199.017489

                             ****ORCA TERMINATED NORMALLY****
TOTAL RUN TIME: 0 days 0 hours 0 minutes 29 seconds 636 msec
