                         Program Version 4.2.1 -  RELEASE  -
|  1> ! wB97X-D3 SP def2-SVP
|  2> %pal
|  3> nprocs 16
|  4> end
|  5>
|  6> * xyz 0 1
|  7> S 	 -0.96382 	 4.01436 	 81.4661
|  8> C 	 0.592267 	 4.37685 	 80.7554
|  9> C 	 0.408084 	 4.81608 	 79.4463
| 10> C 	 -0.973681 	 4.97757 	 79.1412
| 11> C 	 -1.81004 	 4.70746 	 80.1142
| 12> H 	 -1.33023 	 5.57645 	 78.3452
| 13> C 	 1.48619 	 5.40873 	 78.5291
| 14> H 	 1.34227 	 5.00138 	 77.4973
| 15> H 	 2.37054 	 4.88982 	 78.9254
| 16> C 	 1.57556 	 6.95616 	 78.6175
| 17> H 	 0.60613 	 7.38389 	 78.3457
| 18> H 	 1.71184 	 7.44819 	 79.5894
| 19> C 	 2.58917 	 7.49425 	 77.6621
| 20> H 	 2.57215 	 8.55682 	 77.6617
| 21> H 	 3.53498 	 7.09393 	 77.7921
| 22> H 	 2.18957 	 7.2777 	 76.5851
| 23> S 	 -4.24214 	 3.43144 	 80.3007
| 24> C 	 -5.70346 	 4.4224 	 80.3142
| 25> C 	 -5.43569 	 5.78136 	 80.1528
| 26> C 	 -4.04212 	 6.03004 	 79.9903
| 27> C 	 -3.26794 	 4.85297 	 80.0831
| 28> H 	 -6.21958 	 6.54418 	 80.2104
| 29> C 	 -3.42637 	 7.3925 	 79.9644
| 30> H 	 -2.4245 	 7.44554 	 80.365
| 31> H 	 -4.03681 	 8.00798 	 80.6099
| 32> C 	 -3.3541 	 8.15045 	 78.6486
| 33> H 	 -4.3814 	 8.14287 	 78.3463
| 34> H 	 -2.81417 	 7.47911 	 77.944
| 35> C 	 -2.66849 	 9.53213 	 78.6973
| 36> H 	 -2.58186 	 10.0765 	 77.7717
| 37> H 	 -1.7407 	 9.43247 	 79.1377
| 38> H 	 -3.24599 	 10.2644 	 79.3038
| 39> H 	 1.58874 	 4.32175 	 81.1475
| 40> H 	 -6.66453 	 4.13622 	 80.6393
| 41> *
| 42>
| 43>                          ****END OF INPUT****

CARTESIAN COORDINATES (ANGSTROEM)
---------------------------------
  S     -0.963820    4.014360   81.466100
  C      0.592267    4.376850   80.755400
  C      0.408084    4.816080   79.446300
  C     -0.973681    4.977570   79.141200
  C     -1.810040    4.707460   80.114200
  H     -1.330230    5.576450   78.345200
  C      1.486190    5.408730   78.529100
  H      1.342270    5.001380   77.497300
  H      2.370540    4.889820   78.925400
  C      1.575560    6.956160   78.617500
  H      0.606130    7.383890   78.345700
  H      1.711840    7.448190   79.589400
  C      2.589170    7.494250   77.662100
  H      2.572150    8.556820   77.661700
  H      3.534980    7.093930   77.792100
  H      2.189570    7.277700   76.585100
  S     -4.242140    3.431440   80.300700
  C     -5.703460    4.422400   80.314200
  C     -5.435690    5.781360   80.152800
  C     -4.042120    6.030040   79.990300
  C     -3.267940    4.852970   80.083100
  H     -6.219580    6.544180   80.210400
  C     -3.426370    7.392500   79.964400
  H     -2.424500    7.445540   80.365000
  H     -4.036810    8.007980   80.609900
  C     -3.354100    8.150450   78.648600
  H     -4.381400    8.142870   78.346300
  H     -2.814170    7.479110   77.944000
  C     -2.668490    9.532130   78.697300
  H     -2.581860   10.076500   77.771700
  H     -1.740700    9.432470   79.137700
  H     -3.245990   10.264400   79.303800
  H      1.588740    4.321750   81.147500
  H     -6.664530    4.136220   80.639300

 Total Charge           Charge          ....    0
 Multiplicity           Mult            ....    1
 Number of Electrons    NEL             ....  134
 Basis Dimension        Dim             ....  322

ORBITAL ENERGIES
----------------

  NO   OCC          E(Eh)            E(eV)
   0   2.0000     -88.970953     -2421.0227
   1   2.0000     -88.965153     -2420.8649
   2   2.0000     -10.327517      -281.0260
   3   2.0000     -10.320412      -280.8327
   4   2.0000     -10.316458      -280.7251
   5   2.0000     -10.314395      -280.6689
   6   2.0000     -10.305167      -280.4178
   7   2.0000     -10.300502      -280.2909
   8   2.0000     -10.299223      -280.2561
   9   2.0000     -10.298362      -280.2327
  10   2.0000     -10.289859      -280.0013
  11   2.0000     -10.285658      -279.8870
  12   2.0000     -10.283925      -279.8398
  13   2.0000     -10.279504      -279.7195
  14   2.0000     -10.278130      -279.6821
  15   2.0000     -10.276174      -279.6289
  16   2.0000      -8.085290      -220.0119
  17   2.0000      -8.080086      -219.8703
  18   2.0000      -6.043770      -164.4593
  19   2.0000      -6.039828      -164.3521
  20   2.0000      -6.038756      -164.3229
  21   2.0000      -6.036139      -164.2517
  22   2.0000      -6.034529      -164.2079
  23   2.0000      -6.030684      -164.1032
  24   2.0000      -1.011694       -27.5296
  25   2.0000      -0.985996       -26.8303
  26   2.0000      -0.913695       -24.8629
  27   2.0000      -0.912381       -24.8271
  28   2.0000      -0.872822       -23.7507
  29   2.0000      -0.854321       -23.2472
  30   2.0000      -0.850551       -23.1447
  31   2.0000      -0.821272       -22.3479
  32   2.0000      -0.784842       -21.3566
  33   2.0000      -0.770586       -20.9687
  34   2.0000      -0.708958       -19.2917
  35   2.0000      -0.702102       -19.1052
  36   2.0000      -0.696141       -18.9430
  37   2.0000      -0.662819       -18.0362
  38   2.0000      -0.645372       -17.5615
  39   2.0000      -0.622486       -16.9387
  40   2.0000      -0.599823       -16.3220
  41   2.0000      -0.571113       -15.5408
  42   2.0000      -0.569081       -15.4855
  43   2.0000      -0.559841       -15.2340
  44   2.0000      -0.538862       -14.6632
  45   2.0000      -0.522306       -14.2127
  46   2.0000      -0.519225       -14.1288
  47   2.0000      -0.514177       -13.9915
  48   2.0000      -0.504274       -13.7220
  49   2.0000      -0.500154       -13.6099
  50   2.0000      -0.496682       -13.5154
  51   2.0000      -0.485388       -13.2081
  52   2.0000      -0.470159       -12.7937
  53   2.0000      -0.466199       -12.6859
  54   2.0000      -0.463856       -12.6222
  55   2.0000      -0.455961       -12.4073
  56   2.0000      -0.444228       -12.0881
  57   2.0000      -0.439851       -11.9689
  58   2.0000      -0.434328       -11.8187
  59   2.0000      -0.424682       -11.5562
  60   2.0000      -0.418110       -11.3774
  61   2.0000      -0.414549       -11.2804
  62   2.0000      -0.413066       -11.2401
  63   2.0000      -0.345268        -9.3952
  64   2.0000      -0.333580        -9.0772
  65   2.0000      -0.327815        -8.9203
  66   2.0000      -0.298687        -8.1277
  67   0.0000       0.035924         0.9775
  68   0.0000       0.063920         1.7393
  69   0.0000       0.111970         3.0468
  70   0.0000       0.117441         3.1957
  71   0.0000       0.127083         3.4581

MULLIKEN ATOMIC CHARGES
-----------------------
   0 S :    0.115489
   1 C :   -0.102388
   2 C :   -0.114242
   3 C :    0.061698
   4 C :   -0.151177
   5 H :   -0.008867
   6 C :    0.050105
   7 H :    0.043069
   8 H :    0.019666
   9 C :   -0.062814
  10 H :    0.014977
  11 H :    0.030521
  12 C :   -0.019641
  13 H :    0.024493
  14 H :    0.026927
  15 H :    0.026737
  16 S :    0.124513
  17 C :   -0.074185
  18 C :   -0.044274
  19 C :   -0.003486
  20 C :   -0.177321
  21 H :    0.027598
  22 C :    0.050046
  23 H :    0.020850
  24 H :    0.009690
  25 C :   -0.069470
  26 H :    0.013878
  27 H :    0.022983
  28 C :   -0.009299
  29 H :    0.035508
  30 H :    0.016106
  31 H :    0.023894
  32 H :    0.037237
  33 H :    0.041180
Sum of atomic charges:    0.0000000

LOEWDIN ATOMIC CHARGES
----------------------
   0 S :    0.405197
   1 C :   -0.195417
   2 C :   -0.063528
   3 C :   -0.064481
   4 C :   -0.195989
   5 H :    0.024972
   6 C :   -0.031912
   7 H :    0.038840
   8 H :    0.029070
   9 C :   -0.044892
  10 H :    0.023129
  11 H :    0.028357
  12 C :   -0.058786
  13 H :    0.022050
  14 H :    0.013655
  15 H :    0.034126
  16 S :    0.416421
  17 C :   -0.181211
  18 C :   -0.064193
  19 C :   -0.054748
  20 C :   -0.198784
  21 H :    0.035989
  22 C :   -0.034464
  23 H :    0.026405
  24 H :    0.027094
  25 C :   -0.037951
  26 H :    0.017614
  27 H :    0.020322
  28 C :   -0.060195
  29 H :    0.029064
  30 H :    0.014938
  31 H :    0.029952
  32 H :    0.028486
  33 H :    0.020871

  Mayer bond orders larger than 0.100000
B(  0-S ,  1-C ) :   1.1323 B(  0-S ,  4-C ) :   1.1283 B(  1-C ,  2-C ) :   1.6330
B(  1-C , 32-H ) :   0.9691 B(  2-C ,  3-C ) :   1.2165 B(  2-C ,  6-C ) :   1.0267
B(  3-C ,  4-C ) :   1.6369 B(  3-C ,  5-H ) :   0.9954 B(  4-C , 20-C ) :   1.0106
B(  6-C ,  7-H ) :   0.9424 B(  6-C ,  8-H ) :   0.9396 B(  6-C ,  9-C ) :   1.0500
B(  9-C , 10-H ) :   0.9524 B(  9-C , 11-H ) :   0.9548 B(  9-C , 12-C ) :   1.0949
B( 12-C , 13-H ) :   0.9699 B( 12-C , 14-H ) :   0.9769 B( 12-C , 15-H ) :   0.9725
B( 16-S , 17-C ) :   1.1516 B( 16-S , 20-C ) :   1.1581 B( 17-C , 18-C ) :   1.6090
B( 17-C , 20-C ) :   0.1010 B( 17-C , 33-H ) :   0.9680 B( 18-C , 19-C ) :   1.2573
B( 18-C , 21-H ) :   0.9832 B( 19-C , 20-C ) :   1.5764 B( 19-C , 22-C ) :   1.0526
B( 22-C , 23-H ) :   0.9309 B( 22-C , 24-H ) :   0.9329 B( 22-C , 25-C ) :   1.0560
B( 25-C , 26-H ) :   0.9555 B( 25-C , 27-H ) :   0.9531 B( 25-C , 28-C ) :   1.0766
B( 28-C , 29-H ) :   0.9744 B( 28-C , 30-H ) :   0.9731 B( 28-C , 31-H ) :   0.9716

Dispersion correction           -0.014792357
FINAL SINGLE POINT ENERGY     -1339.866266887788

DIPOLE MOMENT
-------------
                                X             Y             Z
Electronic contribution:    -13.59701     -26.82068      14.55022
Nuclear contribution   :     13.77085      27.56667     -14.71370
                        -----------------------------------------
Total Dipole Moment    :      0.17384       0.74599      -0.16348
                        -----------------------------------------
Magnitude (a.u.)       :      0.78323
Magnitude (Debye)      :      1.99081

Rotational constants in cm-1:     0.017750     0.009732     0.006816
Rotational constants in MHz :   532.140863   291.753610   204.347775

                             ****ORCA TERMINATED NORMALLY****
TOTAL RUN TIME: 0 days 0 hours 0 minutes 34 seconds 832 msec
