                         Program Version 4.2.1 -  RELEASE  -
|  1> ! wB97X-D3 SP def2-SVP
|  2> %pal
|  3> nprocs 16
|  4> end
|  5>
|  6> * xyz 0 1
|  7> S 	 -65.224 	 41.6697 	 137.491
|  8> C 	 -64.5404 	 40.7881 	 138.888
|  9> C 	 -64.0076 	 39.5307 	 138.557
| 10> C 	 -64.2081 	 39.2548 	 137.154
| 11> C 	 -64.6518 	 40.3398 	 136.4
| 12> H 	 -63.9092 	 38.3443 	 136.682
| 13> C 	 -63.4387 	 38.5181 	 139.573
| 14> H 	 -63.8674 	 38.784 	 140.608
| 15> H 	 -62.4504 	 38.8531 	 139.655
| 16> C 	 -63.438 	 37.0493 	 139.206
| 17> H 	 -62.812 	 36.934 	 138.282
| 18> H 	 -62.9636 	 36.5644 	 140.033
| 19> C 	 -64.8635 	 36.5209 	 139.01
| 20> H 	 -65.4349 	 37.0291 	 138.23
| 21> H 	 -64.8145 	 35.4485 	 138.706
| 22> H 	 -65.4295 	 36.4976 	 139.901
| 23> S 	 -66.0716 	 41.1342 	 134.138
| 24> C 	 -65.2298 	 41.0371 	 132.615
| 25> C 	 -64.0209 	 40.4097 	 132.685
| 26> C 	 -63.7557 	 39.9088 	 133.985
| 27> C 	 -64.6981 	 40.3225 	 134.918
| 28> H 	 -63.4389 	 40.1772 	 131.89
| 29> C 	 -62.5505 	 39.0293 	 134.263
| 30> H 	 -62.1747 	 39.3329 	 135.231
| 31> H 	 -61.7671 	 39.2617 	 133.49
| 32> C 	 -62.8914 	 37.544 	 134.197
| 33> H 	 -63.6855 	 37.4064 	 134.923
| 34> H 	 -62.0313 	 36.8247 	 134.53
| 35> C 	 -63.4405 	 37.1581 	 132.791
| 36> H 	 -64.296 	 37.7252 	 132.43
| 37> H 	 -63.6082 	 36.1143 	 132.738
| 38> H 	 -62.6612 	 37.3312 	 132.064
| 39> H 	 -64.4975 	 41.2719 	 139.816
| 40> H 	 -65.7783 	 41.4054 	 131.729
| 41> *
| 42>
| 43>                          ****END OF INPUT****

CARTESIAN COORDINATES (ANGSTROEM)
---------------------------------
  S    -65.224000   41.669700  137.491000
  C    -64.540400   40.788100  138.888000
  C    -64.007600   39.530700  138.557000
  C    -64.208100   39.254800  137.154000
  C    -64.651800   40.339800  136.400000
  H    -63.909200   38.344300  136.682000
  C    -63.438700   38.518100  139.573000
  H    -63.867400   38.784000  140.608000
  H    -62.450400   38.853100  139.655000
  C    -63.438000   37.049300  139.206000
  H    -62.812000   36.934000  138.282000
  H    -62.963600   36.564400  140.033000
  C    -64.863500   36.520900  139.010000
  H    -65.434900   37.029100  138.230000
  H    -64.814500   35.448500  138.706000
  H    -65.429500   36.497600  139.901000
  S    -66.071600   41.134200  134.138000
  C    -65.229800   41.037100  132.615000
  C    -64.020900   40.409700  132.685000
  C    -63.755700   39.908800  133.985000
  C    -64.698100   40.322500  134.918000
  H    -63.438900   40.177200  131.890000
  C    -62.550500   39.029300  134.263000
  H    -62.174700   39.332900  135.231000
  H    -61.767100   39.261700  133.490000
  C    -62.891400   37.544000  134.197000
  H    -63.685500   37.406400  134.923000
  H    -62.031300   36.824700  134.530000
  C    -63.440500   37.158100  132.791000
  H    -64.296000   37.725200  132.430000
  H    -63.608200   36.114300  132.738000
  H    -62.661200   37.331200  132.064000
  H    -64.497500   41.271900  139.816000
  H    -65.778300   41.405400  131.729000

 Total Charge           Charge          ....    0
 Multiplicity           Mult            ....    1
 Number of Electrons    NEL             ....  134
 Basis Dimension        Dim             ....  322

ORBITAL ENERGIES
----------------

  NO   OCC          E(Eh)            E(eV)
   0   2.0000     -88.967645     -2420.9327
   1   2.0000     -88.964487     -2420.8468
   2   2.0000     -10.336268      -281.2642
   3   2.0000     -10.329415      -281.0777
   4   2.0000     -10.319941      -280.8199
   5   2.0000     -10.313745      -280.6513
   6   2.0000     -10.307125      -280.4711
   7   2.0000     -10.302740      -280.3518
   8   2.0000     -10.298186      -280.2279
   9   2.0000     -10.294887      -280.1381
  10   2.0000     -10.294335      -280.1231
  11   2.0000     -10.293870      -280.1104
  12   2.0000     -10.293176      -280.0916
  13   2.0000     -10.287474      -279.9364
  14   2.0000     -10.275419      -279.6084
  15   2.0000     -10.274285      -279.5775
  16   2.0000      -8.080633      -219.8852
  17   2.0000      -8.079443      -219.8528
  18   2.0000      -6.039352      -164.3391
  19   2.0000      -6.037866      -164.2987
  20   2.0000      -6.035559      -164.2359
  21   2.0000      -6.034038      -164.1945
  22   2.0000      -6.031113      -164.1149
  23   2.0000      -6.030183      -164.0896
  24   2.0000      -1.001486       -27.2518
  25   2.0000      -0.974984       -26.5307
  26   2.0000      -0.912708       -24.8361
  27   2.0000      -0.911428       -24.8012
  28   2.0000      -0.865813       -23.5600
  29   2.0000      -0.848713       -23.0947
  30   2.0000      -0.840175       -22.8623
  31   2.0000      -0.813955       -22.1488
  32   2.0000      -0.787556       -21.4305
  33   2.0000      -0.773854       -21.0576
  34   2.0000      -0.707814       -19.2606
  35   2.0000      -0.700354       -19.0576
  36   2.0000      -0.688350       -18.7309
  37   2.0000      -0.669526       -18.2187
  38   2.0000      -0.639150       -17.3922
  39   2.0000      -0.620948       -16.8968
  40   2.0000      -0.596401       -16.2289
  41   2.0000      -0.566547       -15.4165
  42   2.0000      -0.556026       -15.1302
  43   2.0000      -0.553102       -15.0507
  44   2.0000      -0.549516       -14.9531
  45   2.0000      -0.539146       -14.6709
  46   2.0000      -0.517491       -14.0816
  47   2.0000      -0.506338       -13.7782
  48   2.0000      -0.494126       -13.4459
  49   2.0000      -0.492053       -13.3894
  50   2.0000      -0.486399       -13.2356
  51   2.0000      -0.484525       -13.1846
  52   2.0000      -0.469378       -12.7724
  53   2.0000      -0.463581       -12.6147
  54   2.0000      -0.460309       -12.5256
  55   2.0000      -0.452453       -12.3119
  56   2.0000      -0.442883       -12.0515
  57   2.0000      -0.437123       -11.8947
  58   2.0000      -0.431104       -11.7309
  59   2.0000      -0.428436       -11.6583
  60   2.0000      -0.425302       -11.5731
  61   2.0000      -0.421185       -11.4610
  62   2.0000      -0.415388       -11.3033
  63   2.0000      -0.349206        -9.5024
  64   2.0000      -0.334633        -9.1058
  65   2.0000      -0.328365        -8.9353
  66   2.0000      -0.283206        -7.7064
  67   0.0000       0.022783         0.6200
  68   0.0000       0.069566         1.8930
  69   0.0000       0.102465         2.7882
  70   0.0000       0.124002         3.3743
  71   0.0000       0.130509         3.5513

MULLIKEN ATOMIC CHARGES
-----------------------
   0 S :    0.100082
   1 C :   -0.126942
   2 C :   -0.086017
   3 C :    0.009401
   4 C :   -0.098119
   5 H :   -0.015999
   6 C :    0.064302
   7 H :    0.034586
   8 H :    0.023868
   9 C :   -0.057097
  10 H :    0.040064
  11 H :    0.030617
  12 C :   -0.049035
  13 H :    0.046041
  14 H :    0.030877
  15 H :    0.024001
  16 S :    0.094955
  17 C :   -0.101452
  18 C :    0.037960
  19 C :   -0.080224
  20 C :   -0.174662
  21 H :   -0.025283
  22 C :    0.067468
  23 H :    0.034706
  24 H :    0.027886
  25 C :   -0.101697
  26 H :    0.040847
  27 H :    0.050910
  28 C :   -0.038812
  29 H :    0.054879
  30 H :    0.025484
  31 H :    0.013036
  32 H :    0.032900
  33 H :    0.070469
Sum of atomic charges:   -0.0000000

LOEWDIN ATOMIC CHARGES
----------------------
   0 S :    0.362807
   1 C :   -0.180668
   2 C :   -0.053136
   3 C :   -0.068216
   4 C :   -0.169775
   5 H :    0.020449
   6 C :   -0.036408
   7 H :    0.038804
   8 H :    0.027569
   9 C :   -0.040281
  10 H :    0.030700
  11 H :    0.028512
  12 C :   -0.065906
  13 H :    0.028689
  14 H :    0.029904
  15 H :    0.020836
  16 S :    0.390947
  17 C :   -0.176598
  18 C :   -0.060022
  19 C :   -0.049169
  20 C :   -0.187845
  21 H :    0.014744
  22 C :   -0.032988
  23 H :    0.029038
  24 H :    0.032181
  25 C :   -0.043244
  26 H :    0.017061
  27 H :    0.036295
  28 C :   -0.063377
  29 H :    0.030688
  30 H :    0.022060
  31 H :    0.020746
  32 H :    0.013781
  33 H :    0.031822

  Mayer bond orders larger than 0.100000
B(  0-S ,  1-C ) :   1.1227 B(  0-S ,  4-C ) :   1.1293 B(  1-C ,  2-C ) :   1.6211
B(  1-C , 32-H ) :   0.9742 B(  2-C ,  3-C ) :   1.2334 B(  2-C ,  6-C ) :   0.9933
B(  3-C ,  4-C ) :   1.5691 B(  3-C ,  5-H ) :   0.9833 B(  4-C , 20-C ) :   1.0636
B(  6-C ,  7-H ) :   0.9440 B(  6-C ,  8-H ) :   0.9241 B(  6-C ,  9-C ) :   1.0928
B(  9-C , 10-H ) :   0.9451 B(  9-C , 11-H ) :   0.9473 B(  9-C , 12-C ) :   1.0813
B( 12-C , 13-H ) :   0.9750 B( 12-C , 14-H ) :   0.9730 B( 12-C , 15-H ) :   0.9734
B( 16-S , 17-C ) :   1.1604 B( 16-S , 20-C ) :   1.1314 B( 17-C , 18-C ) :   1.5804
B( 17-C , 33-H ) :   0.9646 B( 18-C , 19-C ) :   1.2580 B( 18-C , 21-H ) :   1.0078
B( 19-C , 20-C ) :   1.5900 B( 19-C , 22-C ) :   1.0337 B( 22-C , 23-H ) :   0.9265
B( 22-C , 24-H ) :   0.9406 B( 22-C , 25-C ) :   1.0636 B( 25-C , 26-H ) :   0.9453
B( 25-C , 27-H ) :   0.9557 B( 25-C , 28-C ) :   1.0753 B( 28-C , 29-H ) :   0.9703
B( 28-C , 30-H ) :   0.9708 B( 28-C , 31-H ) :   0.9740

Dispersion correction           -0.015541190
FINAL SINGLE POINT ENERGY     -1339.875164868650

DIPOLE MOMENT
-------------
                                X             Y             Z
Electronic contribution:    -12.05041      25.55427      -3.15655
Nuclear contribution   :     12.53534     -26.15970       3.17208
                        -----------------------------------------
Total Dipole Moment    :      0.48493      -0.60543       0.01554
                        -----------------------------------------
Magnitude (a.u.)       :      0.77585
Magnitude (Debye)      :      1.97206

Rotational constants in cm-1:     0.018250     0.010142     0.007256
Rotational constants in MHz :   547.114742   304.047057   217.528904

                             ****ORCA TERMINATED NORMALLY****
TOTAL RUN TIME: 0 days 0 hours 0 minutes 37 seconds 956 msec
