                         Program Version 4.2.1 -  RELEASE  -
|  1> ! wB97X-D3 SP def2-SVP
|  2> %pal
|  3> nprocs 16
|  4> end
|  5>
|  6> * xyz 0 1
|  7> S 	 7.87514 	 22.8996 	 54.423
|  8> C 	 9.43535 	 23.6362 	 54.0255
|  9> C 	 9.73824 	 24.5663 	 55.0382
| 10> C 	 8.81553 	 24.4188 	 56.1482
| 11> C 	 7.84814 	 23.5162 	 56.0268
| 12> H 	 8.80721 	 24.9876 	 57.0231
| 13> C 	 10.9252 	 25.5212 	 55.0559
| 14> H 	 11.6728 	 25.1403 	 54.3771
| 15> H 	 11.476 	 25.5238 	 56.0201
| 16> C 	 10.6265 	 26.9239 	 54.6801
| 17> H 	 11.5675 	 27.4213 	 54.4093
| 18> H 	 10.1041 	 26.9697 	 53.8022
| 19> C 	 9.84451 	 27.7279 	 55.7617
| 20> H 	 9.93618 	 28.7721 	 55.5751
| 21> H 	 8.73375 	 27.5483 	 55.916
| 22> H 	 10.2954 	 27.6218 	 56.8037
| 23> S 	 5.2352 	 24.0008 	 56.7834
| 24> C 	 4.55197 	 23.1053 	 58.0728
| 25> C 	 5.58003 	 22.3971 	 58.7517
| 26> C 	 6.89679 	 22.4767 	 58.1876
| 27> C 	 6.84477 	 23.2672 	 57.0338
| 28> H 	 5.38816 	 21.7897 	 59.6613
| 29> C 	 8.13315 	 21.8884 	 58.8252
| 30> H 	 7.68484 	 21.6486 	 59.8068
| 31> H 	 8.92661 	 22.6423 	 58.8774
| 32> C 	 8.6839 	 20.6537 	 57.9609
| 33> H 	 8.75107 	 20.9646 	 56.9084
| 34> H 	 7.98527 	 19.8892 	 57.935
| 35> C 	 10.0587 	 20.1914 	 58.285
| 36> H 	 10.4061 	 19.5233 	 57.4998
| 37> H 	 10.1501 	 19.6719 	 59.2276
| 38> H 	 10.8483 	 20.9413 	 58.294
| 39> H 	 9.83649 	 23.5923 	 53.0121
| 40> H 	 3.50305 	 22.9697 	 58.4158
| 41> *
| 42>
| 43>                          ****END OF INPUT****

CARTESIAN COORDINATES (ANGSTROEM)
---------------------------------
  S      7.875140   22.899600   54.423000
  C      9.435350   23.636200   54.025500
  C      9.738240   24.566300   55.038200
  C      8.815530   24.418800   56.148200
  C      7.848140   23.516200   56.026800
  H      8.807210   24.987600   57.023100
  C     10.925200   25.521200   55.055900
  H     11.672800   25.140300   54.377100
  H     11.476000   25.523800   56.020100
  C     10.626500   26.923900   54.680100
  H     11.567500   27.421300   54.409300
  H     10.104100   26.969700   53.802200
  C      9.844510   27.727900   55.761700
  H      9.936180   28.772100   55.575100
  H      8.733750   27.548300   55.916000
  H     10.295400   27.621800   56.803700
  S      5.235200   24.000800   56.783400
  C      4.551970   23.105300   58.072800
  C      5.580030   22.397100   58.751700
  C      6.896790   22.476700   58.187600
  C      6.844770   23.267200   57.033800
  H      5.388160   21.789700   59.661300
  C      8.133150   21.888400   58.825200
  H      7.684840   21.648600   59.806800
  H      8.926610   22.642300   58.877400
  C      8.683900   20.653700   57.960900
  H      8.751070   20.964600   56.908400
  H      7.985270   19.889200   57.935000
  C     10.058700   20.191400   58.285000
  H     10.406100   19.523300   57.499800
  H     10.150100   19.671900   59.227600
  H     10.848300   20.941300   58.294000
  H      9.836490   23.592300   53.012100
  H      3.503050   22.969700   58.415800

 Total Charge           Charge          ....    0
 Multiplicity           Mult            ....    1
 Number of Electrons    NEL             ....  134
 Basis Dimension        Dim             ....  322

ORBITAL ENERGIES
----------------

  NO   OCC          E(Eh)            E(eV)
   0   2.0000     -88.968829     -2420.9649
   1   2.0000     -88.961543     -2420.7667
   2   2.0000     -10.324291      -280.9382
   3   2.0000     -10.321739      -280.8688
   4   2.0000     -10.321354      -280.8583
   5   2.0000     -10.318198      -280.7724
   6   2.0000     -10.308238      -280.5014
   7   2.0000     -10.303821      -280.3812
   8   2.0000     -10.298317      -280.2314
   9   2.0000     -10.296893      -280.1927
  10   2.0000     -10.290698      -280.0241
  11   2.0000     -10.283996      -279.8417
  12   2.0000     -10.282875      -279.8113
  13   2.0000     -10.281150      -279.7643
  14   2.0000     -10.280179      -279.7379
  15   2.0000     -10.269465      -279.4464
  16   2.0000      -8.083185      -219.9547
  17   2.0000      -8.076599      -219.7754
  18   2.0000      -6.041664      -164.4020
  19   2.0000      -6.037621      -164.2920
  20   2.0000      -6.035124      -164.2241
  21   2.0000      -6.034127      -164.1970
  22   2.0000      -6.031064      -164.1136
  23   2.0000      -6.027276      -164.0105
  24   2.0000      -1.008254       -27.4360
  25   2.0000      -0.982101       -26.7243
  26   2.0000      -0.916546       -24.9405
  27   2.0000      -0.905484       -24.6395
  28   2.0000      -0.869063       -23.6484
  29   2.0000      -0.855849       -23.2888
  30   2.0000      -0.840291       -22.8655
  31   2.0000      -0.809755       -22.0346
  32   2.0000      -0.784149       -21.3378
  33   2.0000      -0.772176       -21.0120
  34   2.0000      -0.707996       -19.2655
  35   2.0000      -0.704873       -19.1806
  36   2.0000      -0.691489       -18.8164
  37   2.0000      -0.656881       -17.8746
  38   2.0000      -0.650000       -17.6874
  39   2.0000      -0.617101       -16.7922
  40   2.0000      -0.590428       -16.0664
  41   2.0000      -0.571690       -15.5565
  42   2.0000      -0.559549       -15.2261
  43   2.0000      -0.549578       -14.9548
  44   2.0000      -0.538511       -14.6536
  45   2.0000      -0.522620       -14.2212
  46   2.0000      -0.513979       -13.9861
  47   2.0000      -0.509221       -13.8566
  48   2.0000      -0.506350       -13.7785
  49   2.0000      -0.499357       -13.5882
  50   2.0000      -0.492143       -13.3919
  51   2.0000      -0.478053       -13.0085
  52   2.0000      -0.474480       -12.9113
  53   2.0000      -0.466087       -12.6829
  54   2.0000      -0.456716       -12.4279
  55   2.0000      -0.449767       -12.2388
  56   2.0000      -0.442444       -12.0395
  57   2.0000      -0.432634       -11.7726
  58   2.0000      -0.429794       -11.6953
  59   2.0000      -0.425737       -11.5849
  60   2.0000      -0.423106       -11.5133
  61   2.0000      -0.413389       -11.2489
  62   2.0000      -0.410877       -11.1805
  63   2.0000      -0.332612        -9.0508
  64   2.0000      -0.330774        -9.0008
  65   2.0000      -0.320963        -8.7339
  66   2.0000      -0.305651        -8.3172
  67   0.0000       0.037064         1.0086
  68   0.0000       0.054432         1.4812
  69   0.0000       0.113730         3.0947
  70   0.0000       0.122079         3.3219
  71   0.0000       0.130390         3.5481

MULLIKEN ATOMIC CHARGES
-----------------------
   0 S :    0.101781
   1 C :   -0.131628
   2 C :   -0.075006
   3 C :    0.054138
   4 C :   -0.148809
   5 H :   -0.015106
   6 C :    0.060289
   7 H :    0.010819
   8 H :    0.031613
   9 C :   -0.002611
  10 H :    0.025946
  11 H :    0.002335
  12 C :   -0.097292
  13 H :    0.026798
  14 H :    0.056752
  15 H :    0.027659
  16 S :    0.131117
  17 C :   -0.097545
  18 C :   -0.078183
  19 C :   -0.029551
  20 C :   -0.216882
  21 H :    0.025470
  22 C :    0.106107
  23 H :    0.024047
  24 H :    0.032856
  25 C :   -0.058783
  26 H :    0.037733
  27 H :    0.011462
  28 C :   -0.026516
  29 H :    0.027568
  30 H :    0.024170
  31 H :    0.021670
  32 H :    0.064243
  33 H :    0.073339
Sum of atomic charges:    0.0000000

LOEWDIN ATOMIC CHARGES
----------------------
   0 S :    0.405005
   1 C :   -0.190552
   2 C :   -0.054444
   3 C :   -0.058129
   4 C :   -0.214224
   5 H :    0.021124
   6 C :   -0.035904
   7 H :    0.029624
   8 H :    0.033934
   9 C :   -0.034659
  10 H :    0.030488
  11 H :    0.014157
  12 C :   -0.078621
  13 H :    0.021337
  14 H :    0.035033
  15 H :    0.027688
  16 S :    0.418819
  17 C :   -0.214733
  18 C :   -0.083428
  19 C :   -0.051094
  20 C :   -0.194032
  21 H :    0.030962
  22 C :   -0.023881
  23 H :    0.033875
  24 H :    0.033807
  25 C :   -0.032056
  26 H :    0.031234
  27 H :    0.015869
  28 C :   -0.068248
  29 H :    0.030229
  30 H :    0.020255
  31 H :    0.024382
  32 H :    0.032089
  33 H :    0.044096

  Mayer bond orders larger than 0.100000
B(  0-S ,  1-C ) :   1.1434 B(  0-S ,  4-C ) :   1.1281 B(  1-C ,  2-C ) :   1.5995
B(  1-C , 32-H ) :   0.9689 B(  2-C ,  3-C ) :   1.2174 B(  2-C ,  6-C ) :   1.0250
B(  3-C ,  4-C ) :   1.6103 B(  3-C ,  5-H ) :   1.0034 B(  4-C , 20-C ) :   1.0269
B(  6-C ,  7-H ) :   0.9331 B(  6-C ,  8-H ) :   0.9459 B(  6-C ,  9-C ) :   1.0916
B(  9-C , 10-H ) :   0.9508 B(  9-C , 11-H ) :   0.9444 B(  9-C , 12-C ) :   1.0704
B( 12-C , 13-H ) :   0.9736 B( 12-C , 14-H ) :   0.9733 B( 12-C , 15-H ) :   0.9752
B( 16-S , 17-C ) :   1.1660 B( 16-S , 20-C ) :   1.1551 B( 17-C , 18-C ) :   1.5824
B( 17-C , 20-C ) :   0.1089 B( 17-C , 33-H ) :   0.9615 B( 18-C , 19-C ) :   1.2804
B( 18-C , 21-H ) :   0.9715 B( 19-C , 20-C ) :   1.5656 B( 19-C , 22-C ) :   1.0296
B( 22-C , 23-H ) :   0.9308 B( 22-C , 24-H ) :   0.9365 B( 22-C , 25-C ) :   1.0439
B( 25-C , 26-H ) :   0.9579 B( 25-C , 27-H ) :   0.9530 B( 25-C , 28-C ) :   1.0963
B( 28-C , 29-H ) :   0.9698 B( 28-C , 30-H ) :   0.9723 B( 28-C , 31-H ) :   0.9703

Dispersion correction           -0.014859461
FINAL SINGLE POINT ENERGY     -1339.863354203547

DIPOLE MOMENT
-------------
                                X             Y             Z
Electronic contribution:    -20.24759      -3.03156      -7.16002
Nuclear contribution   :     20.69342       3.19545       7.32736
                        -----------------------------------------
Total Dipole Moment    :      0.44583       0.16388       0.16734
                        -----------------------------------------
Magnitude (a.u.)       :      0.50361
Magnitude (Debye)      :      1.28007

Rotational constants in cm-1:     0.017390     0.009258     0.007684
Rotational constants in MHz :   521.335321   277.551569   230.361663

                             ****ORCA TERMINATED NORMALLY****
TOTAL RUN TIME: 0 days 0 hours 0 minutes 35 seconds 728 msec
