                         Program Version 4.2.1 -  RELEASE  -
|  1> ! wB97X-D3 SP def2-SVP
|  2> %pal
|  3> nprocs 16
|  4> end
|  5>
|  6> * xyz 0 1
|  7> S 	 -117.631 	 46.3158 	 134.319
|  8> C 	 -118.588 	 47.2975 	 135.348
|  9> C 	 -117.791 	 48.1046 	 136.081
| 10> C 	 -116.362 	 47.8695 	 135.869
| 11> C 	 -116.074 	 46.8039 	 135.02
| 12> H 	 -115.584 	 48.3505 	 136.454
| 13> C 	 -118.305 	 49.0844 	 137.036
| 14> H 	 -117.619 	 49.2396 	 137.815
| 15> H 	 -119.136 	 48.6059 	 137.618
| 16> C 	 -118.728 	 50.4813 	 136.554
| 17> H 	 -119.02 	 51.1775 	 137.365
| 18> H 	 -117.847 	 51.0976 	 136.115
| 19> C 	 -119.781 	 50.6298 	 135.452
| 20> H 	 -120.725 	 50.3432 	 135.796
| 21> H 	 -119.744 	 51.6172 	 135.034
| 22> H 	 -119.384 	 49.9659 	 134.593
| 23> S 	 -114.704 	 44.3705 	 135.44
| 24> C 	 -112.971 	 44.4217 	 135.319
| 25> C 	 -112.5 	 45.579 	 134.837
| 26> C 	 -113.487 	 46.6102 	 134.655
| 27> C 	 -114.784 	 46.0972 	 134.919
| 28> H 	 -111.462 	 45.643 	 134.631
| 29> C 	 -113.102 	 47.8494 	 133.919
| 30> H 	 -111.965 	 47.8394 	 133.768
| 31> H 	 -113.171 	 48.6471 	 134.622
| 32> C 	 -113.796 	 48.1355 	 132.563
| 33> H 	 -114.89 	 48.1257 	 132.756
| 34> H 	 -113.422 	 47.3932 	 131.839
| 35> C 	 -113.466 	 49.4899 	 131.947
| 36> H 	 -113.946 	 49.6411 	 130.915
| 37> H 	 -112.374 	 49.6759 	 131.954
| 38> H 	 -113.892 	 50.2778 	 132.491
| 39> H 	 -119.684 	 47.3209 	 135.422
| 40> H 	 -112.318 	 43.5104 	 135.27
| 41> *
| 42>
| 43>                          ****END OF INPUT****

CARTESIAN COORDINATES (ANGSTROEM)
---------------------------------
  S    -117.631000   46.315800  134.319000
  C    -118.588000   47.297500  135.348000
  C    -117.791000   48.104600  136.081000
  C    -116.362000   47.869500  135.869000
  C    -116.074000   46.803900  135.020000
  H    -115.584000   48.350500  136.454000
  C    -118.305000   49.084400  137.036000
  H    -117.619000   49.239600  137.815000
  H    -119.136000   48.605900  137.618000
  C    -118.728000   50.481300  136.554000
  H    -119.020000   51.177500  137.365000
  H    -117.847000   51.097600  136.115000
  C    -119.781000   50.629800  135.452000
  H    -120.725000   50.343200  135.796000
  H    -119.744000   51.617200  135.034000
  H    -119.384000   49.965900  134.593000
  S    -114.704000   44.370500  135.440000
  C    -112.971000   44.421700  135.319000
  C    -112.500000   45.579000  134.837000
  C    -113.487000   46.610200  134.655000
  C    -114.784000   46.097200  134.919000
  H    -111.462000   45.643000  134.631000
  C    -113.102000   47.849400  133.919000
  H    -111.965000   47.839400  133.768000
  H    -113.171000   48.647100  134.622000
  C    -113.796000   48.135500  132.563000
  H    -114.890000   48.125700  132.756000
  H    -113.422000   47.393200  131.839000
  C    -113.466000   49.489900  131.947000
  H    -113.946000   49.641100  130.915000
  H    -112.374000   49.675900  131.954000
  H    -113.892000   50.277800  132.491000
  H    -119.684000   47.320900  135.422000
  H    -112.318000   43.510400  135.270000

 Total Charge           Charge          ....    0
 Multiplicity           Mult            ....    1
 Number of Electrons    NEL             ....  134
 Basis Dimension        Dim             ....  322

ORBITAL ENERGIES
----------------

  NO   OCC          E(Eh)            E(eV)
   0   2.0000     -88.966818     -2420.9102
   1   2.0000     -88.963431     -2420.8180
   2   2.0000     -10.337908      -281.3088
   3   2.0000     -10.335596      -281.2459
   4   2.0000     -10.314804      -280.6801
   5   2.0000     -10.313819      -280.6533
   6   2.0000     -10.309136      -280.5259
   7   2.0000     -10.299263      -280.2572
   8   2.0000     -10.297296      -280.2037
   9   2.0000     -10.295080      -280.1434
  10   2.0000     -10.293315      -280.0954
  11   2.0000     -10.289311      -279.9864
  12   2.0000     -10.289137      -279.9817
  13   2.0000     -10.287375      -279.9337
  14   2.0000     -10.278285      -279.6864
  15   2.0000     -10.275063      -279.5987
  16   2.0000      -8.081008      -219.8954
  17   2.0000      -8.078505      -219.8273
  18   2.0000      -6.039597      -164.3458
  19   2.0000      -6.037137      -164.2788
  20   2.0000      -6.035709      -164.2400
  21   2.0000      -6.032805      -164.1610
  22   2.0000      -6.031587      -164.1278
  23   2.0000      -6.029238      -164.0639
  24   2.0000      -1.004641       -27.3377
  25   2.0000      -0.986331       -26.8394
  26   2.0000      -0.912125       -24.8202
  27   2.0000      -0.907425       -24.6923
  28   2.0000      -0.870849       -23.6970
  29   2.0000      -0.852460       -23.1966
  30   2.0000      -0.846996       -23.0479
  31   2.0000      -0.818082       -22.2611
  32   2.0000      -0.784426       -21.3453
  33   2.0000      -0.772932       -21.0325
  34   2.0000      -0.710624       -19.3371
  35   2.0000      -0.692094       -18.8328
  36   2.0000      -0.688193       -18.7267
  37   2.0000      -0.656163       -17.8551
  38   2.0000      -0.639366       -17.3980
  39   2.0000      -0.617520       -16.8036
  40   2.0000      -0.593076       -16.1384
  41   2.0000      -0.575310       -15.6550
  42   2.0000      -0.567016       -15.4293
  43   2.0000      -0.549631       -14.9562
  44   2.0000      -0.544490       -14.8163
  45   2.0000      -0.523961       -14.2577
  46   2.0000      -0.520793       -14.1715
  47   2.0000      -0.508189       -13.8285
  48   2.0000      -0.505125       -13.7452
  49   2.0000      -0.502146       -13.6641
  50   2.0000      -0.492109       -13.3910
  51   2.0000      -0.483839       -13.1659
  52   2.0000      -0.470236       -12.7958
  53   2.0000      -0.462573       -12.5873
  54   2.0000      -0.460344       -12.5266
  55   2.0000      -0.443869       -12.0783
  56   2.0000      -0.442433       -12.0392
  57   2.0000      -0.430406       -11.7120
  58   2.0000      -0.429461       -11.6862
  59   2.0000      -0.423709       -11.5297
  60   2.0000      -0.416874       -11.3437
  61   2.0000      -0.410278       -11.1642
  62   2.0000      -0.406537       -11.0624
  63   2.0000      -0.347620        -9.4592
  64   2.0000      -0.331200        -9.0124
  65   2.0000      -0.324905        -8.8411
  66   2.0000      -0.298618        -8.1258
  67   0.0000       0.024334         0.6622
  68   0.0000       0.068502         1.8640
  69   0.0000       0.113595         3.0911
  70   0.0000       0.117911         3.2085
  71   0.0000       0.131472         3.5775

MULLIKEN ATOMIC CHARGES
-----------------------
   0 S :    0.100892
   1 C :   -0.106833
   2 C :   -0.111667
   3 C :    0.056329
   4 C :   -0.166121
   5 H :    0.016210
   6 C :    0.097268
   7 H :    0.004114
   8 H :    0.030012
   9 C :   -0.122446
  10 H :    0.030376
  11 H :    0.024749
  12 C :   -0.042263
  13 H :    0.024876
  14 H :    0.031787
  15 H :    0.042315
  16 S :    0.109326
  17 C :   -0.093933
  18 C :   -0.038127
  19 C :   -0.007516
  20 C :   -0.167571
  21 H :    0.008265
  22 C :    0.045943
  23 H :    0.021016
  24 H :    0.014184
  25 C :   -0.061185
  26 H :    0.050603
  27 H :    0.043310
  28 C :   -0.059570
  29 H :    0.047457
  30 H :    0.030739
  31 H :    0.013966
  32 H :    0.060286
  33 H :    0.073206
Sum of atomic charges:   -0.0000000

LOEWDIN ATOMIC CHARGES
----------------------
   0 S :    0.401586
   1 C :   -0.198219
   2 C :   -0.075726
   3 C :   -0.052358
   4 C :   -0.196369
   5 H :    0.030661
   6 C :   -0.040098
   7 H :    0.027226
   8 H :    0.039390
   9 C :   -0.051807
  10 H :    0.024242
  11 H :    0.029421
  12 C :   -0.067049
  13 H :    0.010812
  14 H :    0.025762
  15 H :    0.035796
  16 S :    0.392052
  17 C :   -0.194861
  18 C :   -0.071782
  19 C :   -0.048553
  20 C :   -0.182033
  21 H :    0.027504
  22 C :   -0.040374
  23 H :    0.035903
  24 H :    0.025909
  25 C :   -0.038753
  26 H :    0.032297
  27 H :    0.030662
  28 C :   -0.071589
  29 H :    0.038572
  30 H :    0.025168
  31 H :    0.014087
  32 H :    0.039795
  33 H :    0.042725

  Mayer bond orders larger than 0.100000
B(  0-S ,  1-C ) :   1.1322 B(  0-S ,  4-C ) :   1.1372 B(  1-C ,  2-C ) :   1.6149
B(  1-C , 32-H ) :   0.9656 B(  2-C ,  3-C ) :   1.2390 B(  2-C ,  6-C ) :   1.0378
B(  3-C ,  4-C ) :   1.5673 B(  3-C ,  5-H ) :   0.9913 B(  4-C , 20-C ) :   1.0505
B(  6-C ,  7-H ) :   0.9263 B(  6-C ,  8-H ) :   0.9402 B(  6-C ,  9-C ) :   1.0637
B(  9-C , 10-H ) :   0.9549 B(  9-C , 11-H ) :   0.9568 B(  9-C , 12-C ) :   1.0846
B( 12-C , 13-H ) :   0.9777 B( 12-C , 14-H ) :   0.9724 B( 12-C , 15-H ) :   0.9698
B( 16-S , 17-C ) :   1.1439 B( 16-S , 20-C ) :   1.1310 B( 17-C , 18-C ) :   1.6587
B( 17-C , 33-H ) :   0.9492 B( 18-C , 19-C ) :   1.2299 B( 18-C , 21-H ) :   0.9878
B( 19-C , 20-C ) :   1.5786 B( 19-C , 22-C ) :   1.0496 B( 22-C , 23-H ) :   0.9377
B( 22-C , 24-H ) :   0.9153 B( 22-C , 25-C ) :   1.0579 B( 25-C , 26-H ) :   0.9508
B( 25-C , 27-H ) :   0.9571 B( 25-C , 28-C ) :   1.0878 B( 28-C , 29-H ) :   0.9719
B( 28-C , 30-H ) :   0.9737 B( 28-C , 31-H ) :   0.9737

Dispersion correction           -0.014282984
FINAL SINGLE POINT ENERGY     -1339.862825272207

DIPOLE MOMENT
-------------
                                X             Y             Z
Electronic contribution:      1.36094     -26.53829       4.05557
Nuclear contribution   :     -1.12963      27.06187      -3.90945
                        -----------------------------------------
Total Dipole Moment    :      0.23131       0.52358       0.14612
                        -----------------------------------------
Magnitude (a.u.)       :      0.59076
Magnitude (Debye)      :      1.50158

Rotational constants in cm-1:     0.019027     0.008399     0.006765
Rotational constants in MHz :   570.417297   251.801740   202.824314

                             ****ORCA TERMINATED NORMALLY****
TOTAL RUN TIME: 0 days 0 hours 0 minutes 32 seconds 715 msec
