                         Program Version 4.2.1 -  RELEASE  -
|  1> ! wB97X-D3 SP def2-SVP
|  2> %pal
|  3> nprocs 16
|  4> end
|  5>
|  6> * xyz 0 1
|  7> S 	 -6.86838 	 -16.5734 	 80.132
|  8> C 	 -6.29303 	 -16.9433 	 81.7042
|  9> C 	 -5.81517 	 -15.7928 	 82.2953
| 10> C 	 -5.78593 	 -14.6577 	 81.4626
| 11> C 	 -6.45913 	 -14.8837 	 80.2751
| 12> H 	 -5.39329 	 -13.6711 	 81.6458
| 13> C 	 -5.29979 	 -15.6505 	 83.6821
| 14> H 	 -4.43698 	 -15.0293 	 83.5403
| 15> H 	 -4.83235 	 -16.5558 	 84.0462
| 16> C 	 -6.26246 	 -14.945 	 84.6387
| 17> H 	 -6.77832 	 -14.0201 	 84.3557
| 18> H 	 -7.07232 	 -15.6555 	 84.6171
| 19> C 	 -5.80723 	 -14.6935 	 86.054
| 20> H 	 -5.34569 	 -15.5143 	 86.5605
| 21> H 	 -4.99706 	 -13.9686 	 86.098
| 22> H 	 -6.68951 	 -14.4581 	 86.7809
| 23> S 	 -5.99755 	 -12.6357 	 78.7646
| 24> C 	 -7.22239 	 -11.8846 	 77.8115
| 25> C 	 -8.45475 	 -12.5527 	 78.0393
| 26> C 	 -8.36585 	 -13.7286 	 78.8481
| 27> C 	 -7.02787 	 -13.9041 	 79.3402
| 28> H 	 -9.37333 	 -12.2549 	 77.4828
| 29> C 	 -9.59966 	 -14.5264 	 79.1404
| 30> H 	 -9.28806 	 -15.5272 	 79.5278
| 31> H 	 -10.2003 	 -14.7557 	 78.2736
| 32> C 	 -10.6565 	 -13.9199 	 80.0686
| 33> H 	 -11.6229 	 -14.4812 	 80.14
| 34> H 	 -10.9655 	 -12.9681 	 79.6975
| 35> C 	 -10.2224 	 -13.7642 	 81.5174
| 36> H 	 -10.9333 	 -13.2083 	 82.1197
| 37> H 	 -9.29121 	 -13.251 	 81.6817
| 38> H 	 -10.147 	 -14.7966 	 81.9452
| 39> H 	 -6.56373 	 -17.9008 	 82.2264
| 40> H 	 -6.99771 	 -10.9868 	 77.2165
| 41> *
| 42>
| 43>                          ****END OF INPUT****

CARTESIAN COORDINATES (ANGSTROEM)
---------------------------------
  S     -6.868380  -16.573400   80.132000
  C     -6.293030  -16.943300   81.704200
  C     -5.815170  -15.792800   82.295300
  C     -5.785930  -14.657700   81.462600
  C     -6.459130  -14.883700   80.275100
  H     -5.393290  -13.671100   81.645800
  C     -5.299790  -15.650500   83.682100
  H     -4.436980  -15.029300   83.540300
  H     -4.832350  -16.555800   84.046200
  C     -6.262460  -14.945000   84.638700
  H     -6.778320  -14.020100   84.355700
  H     -7.072320  -15.655500   84.617100
  C     -5.807230  -14.693500   86.054000
  H     -5.345690  -15.514300   86.560500
  H     -4.997060  -13.968600   86.098000
  H     -6.689510  -14.458100   86.780900
  S     -5.997550  -12.635700   78.764600
  C     -7.222390  -11.884600   77.811500
  C     -8.454750  -12.552700   78.039300
  C     -8.365850  -13.728600   78.848100
  C     -7.027870  -13.904100   79.340200
  H     -9.373330  -12.254900   77.482800
  C     -9.599660  -14.526400   79.140400
  H     -9.288060  -15.527200   79.527800
  H    -10.200300  -14.755700   78.273600
  C    -10.656500  -13.919900   80.068600
  H    -11.622900  -14.481200   80.140000
  H    -10.965500  -12.968100   79.697500
  C    -10.222400  -13.764200   81.517400
  H    -10.933300  -13.208300   82.119700
  H     -9.291210  -13.251000   81.681700
  H    -10.147000  -14.796600   81.945200
  H     -6.563730  -17.900800   82.226400
  H     -6.997710  -10.986800   77.216500

 Total Charge           Charge          ....    0
 Multiplicity           Mult            ....    1
 Number of Electrons    NEL             ....  134
 Basis Dimension        Dim             ....  322

ORBITAL ENERGIES
----------------

  NO   OCC          E(Eh)            E(eV)
   0   2.0000     -88.969672     -2420.9879
   1   2.0000     -88.965537     -2420.8754
   2   2.0000     -10.334677      -281.2208
   3   2.0000     -10.330792      -281.1151
   4   2.0000     -10.323678      -280.9216
   5   2.0000     -10.313823      -280.6534
   6   2.0000     -10.311237      -280.5830
   7   2.0000     -10.302324      -280.3405
   8   2.0000     -10.298481      -280.2359
   9   2.0000     -10.292419      -280.0710
  10   2.0000     -10.289904      -280.0025
  11   2.0000     -10.286378      -279.9066
  12   2.0000     -10.283945      -279.8404
  13   2.0000     -10.282844      -279.8104
  14   2.0000     -10.280953      -279.7589
  15   2.0000     -10.268112      -279.4095
  16   2.0000      -8.084803      -219.9987
  17   2.0000      -8.080695      -219.8869
  18   2.0000      -6.043126      -164.4418
  19   2.0000      -6.039099      -164.3322
  20   2.0000      -6.039011      -164.3299
  21   2.0000      -6.036005      -164.2480
  22   2.0000      -6.034985      -164.2203
  23   2.0000      -6.031686      -164.1305
  24   2.0000      -1.011062       -27.5124
  25   2.0000      -0.988613       -26.9015
  26   2.0000      -0.915778       -24.9196
  27   2.0000      -0.909398       -24.7460
  28   2.0000      -0.868605       -23.6359
  29   2.0000      -0.855549       -23.2807
  30   2.0000      -0.847760       -23.0687
  31   2.0000      -0.811990       -22.0954
  32   2.0000      -0.783721       -21.3261
  33   2.0000      -0.771165       -20.9845
  34   2.0000      -0.706636       -19.2285
  35   2.0000      -0.701741       -19.0953
  36   2.0000      -0.689575       -18.7643
  37   2.0000      -0.662499       -18.0275
  38   2.0000      -0.641836       -17.4652
  39   2.0000      -0.619931       -16.8692
  40   2.0000      -0.599183       -16.3046
  41   2.0000      -0.567463       -15.4415
  42   2.0000      -0.555922       -15.1274
  43   2.0000      -0.547221       -14.8906
  44   2.0000      -0.544217       -14.8089
  45   2.0000      -0.534930       -14.5562
  46   2.0000      -0.518346       -14.1049
  47   2.0000      -0.513254       -13.9664
  48   2.0000      -0.505843       -13.7647
  49   2.0000      -0.499470       -13.5913
  50   2.0000      -0.496465       -13.5095
  51   2.0000      -0.476797       -12.9743
  52   2.0000      -0.469878       -12.7860
  53   2.0000      -0.464282       -12.6337
  54   2.0000      -0.457749       -12.4560
  55   2.0000      -0.446276       -12.1438
  56   2.0000      -0.440056       -11.9745
  57   2.0000      -0.435730       -11.8568
  58   2.0000      -0.430878       -11.7248
  59   2.0000      -0.425545       -11.5797
  60   2.0000      -0.418302       -11.3826
  61   2.0000      -0.412688       -11.2298
  62   2.0000      -0.403691       -10.9850
  63   2.0000      -0.349884        -9.5208
  64   2.0000      -0.332559        -9.0494
  65   2.0000      -0.328081        -8.9275
  66   2.0000      -0.288834        -7.8596
  67   0.0000       0.024224         0.6592
  68   0.0000       0.074483         2.0268
  69   0.0000       0.114455         3.1145
  70   0.0000       0.116857         3.1799
  71   0.0000       0.131766         3.5855

MULLIKEN ATOMIC CHARGES
-----------------------
   0 S :    0.107764
   1 C :   -0.137149
   2 C :   -0.104205
   3 C :    0.036690
   4 C :   -0.140024
   5 H :    0.012903
   6 C :    0.093834
   7 H :    0.008871
   8 H :    0.017422
   9 C :   -0.055734
  10 H :    0.036533
  11 H :    0.011795
  12 C :   -0.052919
  13 H :    0.010467
  14 H :    0.027548
  15 H :    0.049485
  16 S :    0.114241
  17 C :   -0.114058
  18 C :   -0.054712
  19 C :   -0.023640
  20 C :   -0.157914
  21 H :    0.039074
  22 C :    0.076280
  23 H :    0.018047
  24 H :    0.026258
  25 C :   -0.069858
  26 H :    0.032833
  27 H :    0.010043
  28 C :   -0.058802
  29 H :    0.024417
  30 H :    0.032597
  31 H :    0.030211
  32 H :    0.074466
  33 H :    0.077238
Sum of atomic charges:   -0.0000000

LOEWDIN ATOMIC CHARGES
----------------------
   0 S :    0.436161
   1 C :   -0.225666
   2 C :   -0.063334
   3 C :   -0.060961
   4 C :   -0.190818
   5 H :    0.031288
   6 C :   -0.030779
   7 H :    0.026596
   8 H :    0.030466
   9 C :   -0.047621
  10 H :    0.032012
  11 H :    0.022312
  12 C :   -0.074681
  13 H :    0.016698
  14 H :    0.023230
  15 H :    0.042058
  16 S :    0.437389
  17 C :   -0.204968
  18 C :   -0.073150
  19 C :   -0.056827
  20 C :   -0.208428
  21 H :    0.037528
  22 C :   -0.040040
  23 H :    0.021193
  24 H :    0.034268
  25 C :   -0.041309
  26 H :    0.031952
  27 H :    0.014006
  28 C :   -0.069319
  29 H :    0.022629
  30 H :    0.020941
  31 H :    0.028446
  32 H :    0.042751
  33 H :    0.035976

  Mayer bond orders larger than 0.100000
B(  0-S ,  1-C ) :   1.1394 B(  0-S ,  4-C ) :   1.1765 B(  1-C ,  2-C ) :   1.5945
B(  1-C , 32-H ) :   0.9634 B(  2-C ,  3-C ) :   1.2594 B(  2-C ,  6-C ) :   1.0311
B(  3-C ,  4-C ) :   1.5517 B(  3-C ,  5-H ) :   0.9920 B(  4-C , 20-C ) :   1.0229
B(  6-C ,  7-H ) :   0.9318 B(  6-C ,  8-H ) :   0.9415 B(  6-C ,  9-C ) :   1.0419
B(  9-C , 10-H ) :   0.9572 B(  9-C , 11-H ) :   0.9516 B(  9-C , 12-C ) :   1.0870
B( 12-C , 13-H ) :   0.9706 B( 12-C , 14-H ) :   0.9730 B( 12-C , 15-H ) :   0.9720
B( 16-S , 17-C ) :   1.1809 B( 16-S , 20-C ) :   1.1781 B( 17-C , 18-C ) :   1.5405
B( 17-C , 20-C ) :   0.1094 B( 17-C , 33-H ) :   0.9701 B( 18-C , 19-C ) :   1.2900
B( 18-C , 21-H ) :   0.9820 B( 19-C , 20-C ) :   1.5084 B( 19-C , 22-C ) :   1.0572
B( 22-C , 23-H ) :   0.9263 B( 22-C , 24-H ) :   0.9273 B( 22-C , 25-C ) :   1.0714
B( 25-C , 26-H ) :   0.9542 B( 25-C , 27-H ) :   0.9529 B( 25-C , 28-C ) :   1.0805
B( 28-C , 29-H ) :   0.9728 B( 28-C , 30-H ) :   0.9774 B( 28-C , 31-H ) :   0.9749

Dispersion correction           -0.015017680
FINAL SINGLE POINT ENERGY     -1339.875767353473

DIPOLE MOMENT
-------------
                                X             Y             Z
Electronic contribution:     10.91302      -1.10292     -23.08512
Nuclear contribution   :    -11.21494       1.26379      23.43818
                        -----------------------------------------
Total Dipole Moment    :     -0.30192       0.16087       0.35307
                        -----------------------------------------
Magnitude (a.u.)       :      0.49162
Magnitude (Debye)      :      1.24960

Rotational constants in cm-1:     0.019055     0.008468     0.007876
Rotational constants in MHz :   571.256274   253.858683   236.101715

                             ****ORCA TERMINATED NORMALLY****
TOTAL RUN TIME: 0 days 0 hours 0 minutes 32 seconds 753 msec
