                         Program Version 4.2.1 -  RELEASE  -
|  1> ! wB97X-D3 SP def2-SVP
|  2> %pal
|  3> nprocs 16
|  4> end
|  5>
|  6> * xyz 0 1
|  7> S 	 -43.9152 	 38.4725 	 79.9759
|  8> C 	 -42.6277 	 39.5391 	 79.8247
|  9> C 	 -41.4259 	 38.9042 	 80.2674
| 10> C 	 -41.5488 	 37.5565 	 80.6162
| 11> C 	 -42.8368 	 37.1875 	 80.4306
| 12> H 	 -40.8354 	 36.8509 	 80.9337
| 13> C 	 -40.089 	 39.5089 	 80.2789
| 14> H 	 -39.3204 	 38.9454 	 79.7932
| 15> H 	 -39.7839 	 39.3942 	 81.2699
| 16> C 	 -39.7952 	 40.8943 	 79.7602
| 17> H 	 -39.9967 	 40.8275 	 78.6927
| 18> H 	 -40.4309 	 41.5384 	 80.4364
| 19> C 	 -38.3439 	 41.3417 	 80.0897
| 20> H 	 -37.4913 	 40.7451 	 79.7602
| 21> H 	 -38.1043 	 42.3338 	 79.7931
| 22> H 	 -38.2466 	 41.4226 	 81.1707
| 23> S 	 -44.5024 	 35.3311 	 79.189
| 24> C 	 -44.4702 	 33.7051 	 79.8086
| 25> C 	 -43.5996 	 33.5017 	 80.824
| 26> C 	 -42.977 	 34.7308 	 81.2945
| 27> C 	 -43.3481 	 35.8134 	 80.4894
| 28> H 	 -43.5036 	 32.5234 	 81.2842
| 29> C 	 -41.9724 	 34.6592 	 82.3488
| 30> H 	 -42.3159 	 34.0104 	 83.186
| 31> H 	 -41.8179 	 35.5975 	 82.8259
| 32> C 	 -40.5093 	 34.1826 	 82.0661
| 33> H 	 -40.1678 	 34.5589 	 81.1341
| 34> H 	 -40.5377 	 33.0478 	 82.0622
| 35> C 	 -39.4814 	 34.694 	 83.1439
| 36> H 	 -39.4148 	 34.0624 	 84.0534
| 37> H 	 -39.6479 	 35.8122 	 83.3545
| 38> H 	 -38.4896 	 34.7595 	 82.6608
| 39> H 	 -42.6528 	 40.5643 	 79.509
| 40> H 	 -44.9937 	 32.9023 	 79.3246
| 41> *
| 42>
| 43>                          ****END OF INPUT****

CARTESIAN COORDINATES (ANGSTROEM)
---------------------------------
  S    -43.915200   38.472500   79.975900
  C    -42.627700   39.539100   79.824700
  C    -41.425900   38.904200   80.267400
  C    -41.548800   37.556500   80.616200
  C    -42.836800   37.187500   80.430600
  H    -40.835400   36.850900   80.933700
  C    -40.089000   39.508900   80.278900
  H    -39.320400   38.945400   79.793200
  H    -39.783900   39.394200   81.269900
  C    -39.795200   40.894300   79.760200
  H    -39.996700   40.827500   78.692700
  H    -40.430900   41.538400   80.436400
  C    -38.343900   41.341700   80.089700
  H    -37.491300   40.745100   79.760200
  H    -38.104300   42.333800   79.793100
  H    -38.246600   41.422600   81.170700
  S    -44.502400   35.331100   79.189000
  C    -44.470200   33.705100   79.808600
  C    -43.599600   33.501700   80.824000
  C    -42.977000   34.730800   81.294500
  C    -43.348100   35.813400   80.489400
  H    -43.503600   32.523400   81.284200
  C    -41.972400   34.659200   82.348800
  H    -42.315900   34.010400   83.186000
  H    -41.817900   35.597500   82.825900
  C    -40.509300   34.182600   82.066100
  H    -40.167800   34.558900   81.134100
  H    -40.537700   33.047800   82.062200
  C    -39.481400   34.694000   83.143900
  H    -39.414800   34.062400   84.053400
  H    -39.647900   35.812200   83.354500
  H    -38.489600   34.759500   82.660800
  H    -42.652800   40.564300   79.509000
  H    -44.993700   32.902300   79.324600

 Total Charge           Charge          ....    0
 Multiplicity           Mult            ....    1
 Number of Electrons    NEL             ....  134
 Basis Dimension        Dim             ....  322

ORBITAL ENERGIES
----------------

  NO   OCC          E(Eh)            E(eV)
   0   2.0000     -88.967291     -2420.9231
   1   2.0000     -88.964580     -2420.8493
   2   2.0000     -10.330288      -281.1014
   3   2.0000     -10.323994      -280.9302
   4   2.0000     -10.311111      -280.5796
   5   2.0000     -10.308561      -280.5102
   6   2.0000     -10.303857      -280.3822
   7   2.0000     -10.299240      -280.2566
   8   2.0000     -10.297184      -280.2006
   9   2.0000     -10.294802      -280.1358
  10   2.0000     -10.292954      -280.0855
  11   2.0000     -10.290787      -280.0266
  12   2.0000     -10.288420      -279.9621
  13   2.0000     -10.286312      -279.9048
  14   2.0000     -10.278557      -279.6937
  15   2.0000     -10.273805      -279.5644
  16   2.0000      -8.083300      -219.9578
  17   2.0000      -8.078856      -219.8369
  18   2.0000      -6.041647      -164.4016
  19   2.0000      -6.037598      -164.2914
  20   2.0000      -6.037458      -164.2876
  21   2.0000      -6.034196      -164.1988
  22   2.0000      -6.033583      -164.1821
  23   2.0000      -6.029390      -164.0680
  24   2.0000      -1.013501       -27.5788
  25   2.0000      -0.984431       -26.7877
  26   2.0000      -0.919978       -25.0339
  27   2.0000      -0.909010       -24.7354
  28   2.0000      -0.870021       -23.6745
  29   2.0000      -0.861971       -23.4554
  30   2.0000      -0.849127       -23.1059
  31   2.0000      -0.815989       -22.2042
  32   2.0000      -0.783598       -21.3228
  33   2.0000      -0.768209       -20.9040
  34   2.0000      -0.714614       -19.4456
  35   2.0000      -0.703058       -19.1312
  36   2.0000      -0.688244       -18.7281
  37   2.0000      -0.666631       -18.1399
  38   2.0000      -0.644166       -17.5287
  39   2.0000      -0.616538       -16.7768
  40   2.0000      -0.602781       -16.4025
  41   2.0000      -0.583906       -15.8889
  42   2.0000      -0.570278       -15.5181
  43   2.0000      -0.565481       -15.3875
  44   2.0000      -0.526588       -14.3292
  45   2.0000      -0.520566       -14.1653
  46   2.0000      -0.515954       -14.0398
  47   2.0000      -0.508142       -13.8272
  48   2.0000      -0.503414       -13.6986
  49   2.0000      -0.502442       -13.6721
  50   2.0000      -0.493209       -13.4209
  51   2.0000      -0.482104       -13.1187
  52   2.0000      -0.475103       -12.9282
  53   2.0000      -0.466112       -12.6836
  54   2.0000      -0.458588       -12.4788
  55   2.0000      -0.455516       -12.3952
  56   2.0000      -0.448369       -12.2008
  57   2.0000      -0.438214       -11.9244
  58   2.0000      -0.429953       -11.6996
  59   2.0000      -0.427873       -11.6430
  60   2.0000      -0.426093       -11.5946
  61   2.0000      -0.419865       -11.4251
  62   2.0000      -0.408833       -11.1249
  63   2.0000      -0.357320        -9.7232
  64   2.0000      -0.329875        -8.9764
  65   2.0000      -0.326903        -8.8955
  66   2.0000      -0.282849        -7.6967
  67   0.0000       0.028488         0.7752
  68   0.0000       0.079155         2.1539
  69   0.0000       0.108288         2.9467
  70   0.0000       0.119817         3.2604
  71   0.0000       0.123518         3.3611

MULLIKEN ATOMIC CHARGES
-----------------------
   0 S :    0.132592
   1 C :   -0.113964
   2 C :   -0.042364
   3 C :    0.021064
   4 C :   -0.121685
   5 H :   -0.025403
   6 C :    0.031184
   7 H :    0.011264
   8 H :    0.000950
   9 C :   -0.070562
  10 H :    0.046097
  11 H :    0.038404
  12 C :   -0.035599
  13 H :    0.030487
  14 H :    0.021051
  15 H :    0.018365
  16 S :    0.095519
  17 C :   -0.074736
  18 C :   -0.032715
  19 C :   -0.009744
  20 C :   -0.135944
  21 H :    0.020179
  22 C :    0.034468
  23 H :    0.029950
  24 H :    0.003362
  25 C :   -0.073518
  26 H :    0.029283
  27 H :    0.041704
  28 C :   -0.100437
  29 H :    0.058164
  30 H :    0.040812
  31 H :    0.038179
  32 H :    0.043439
  33 H :    0.050152
Sum of atomic charges:    0.0000000

LOEWDIN ATOMIC CHARGES
----------------------
   0 S :    0.441959
   1 C :   -0.233957
   2 C :   -0.051515
   3 C :   -0.054849
   4 C :   -0.185221
   5 H :    0.028905
   6 C :   -0.048531
   7 H :    0.027908
   8 H :    0.024791
   9 C :   -0.038423
  10 H :    0.027945
  11 H :    0.033232
  12 C :   -0.067083
  13 H :    0.024176
  14 H :    0.022493
  15 H :    0.026500
  16 S :    0.378908
  17 C :   -0.180550
  18 C :   -0.068335
  19 C :   -0.057321
  20 C :   -0.174697
  21 H :    0.033036
  22 C :   -0.047058
  23 H :    0.038286
  24 H :    0.021635
  25 C :   -0.035488
  26 H :    0.014849
  27 H :    0.030866
  28 C :   -0.077706
  29 H :    0.030598
  30 H :    0.032195
  31 H :    0.030388
  32 H :    0.026416
  33 H :    0.025648

  Mayer bond orders larger than 0.100000
B(  0-S ,  1-C ) :   1.1376 B(  0-S ,  4-C ) :   1.1733 B(  1-C ,  2-C ) :   1.5690
B(  1-C , 32-H ) :   0.9680 B(  2-C ,  3-C ) :   1.2484 B(  2-C ,  6-C ) :   1.0255
B(  3-C ,  4-C ) :   1.5454 B(  3-C ,  5-H ) :   1.0120 B(  4-C , 20-C ) :   1.0384
B(  6-C ,  7-H ) :   0.9378 B(  6-C ,  8-H ) :   0.9223 B(  6-C ,  9-C ) :   1.0691
B(  9-C , 10-H ) :   0.9553 B(  9-C , 11-H ) :   0.9489 B(  9-C , 12-C ) :   1.0827
B( 12-C , 13-H ) :   0.9758 B( 12-C , 14-H ) :   0.9729 B( 12-C , 15-H ) :   0.9731
B( 16-S , 17-C ) :   1.1328 B( 16-S , 20-C ) :   1.1211 B( 17-C , 18-C ) :   1.6578
B( 17-C , 33-H ) :   0.9639 B( 18-C , 19-C ) :   1.1899 B( 18-C , 21-H ) :   0.9894
B( 19-C , 20-C ) :   1.6119 B( 19-C , 22-C ) :   1.0909 B( 22-C , 23-H ) :   0.9238
B( 22-C , 24-H ) :   0.9276 B( 22-C , 25-C ) :   1.0468 B( 25-C , 26-H ) :   0.9591
B( 25-C , 27-H ) :   0.9541 B( 25-C , 28-C ) :   1.0751 B( 28-C , 29-H ) :   0.9781
B( 28-C , 30-H ) :   0.9700 B( 28-C , 31-H ) :   0.9765

Dispersion correction           -0.013941638
FINAL SINGLE POINT ENERGY     -1339.860497290089

DIPOLE MOMENT
-------------
                                X             Y             Z
Electronic contribution:    -29.48003      -5.41785     -10.98201
Nuclear contribution   :     30.21913       5.25820      11.24019
                        -----------------------------------------
Total Dipole Moment    :      0.73910      -0.15965       0.25817
                        -----------------------------------------
Magnitude (a.u.)       :      0.79901
Magnitude (Debye)      :      2.03092

Rotational constants in cm-1:     0.018472     0.008626     0.006199
Rotational constants in MHz :   553.778837   258.604038   185.853088

                             ****ORCA TERMINATED NORMALLY****
TOTAL RUN TIME: 0 days 0 hours 0 minutes 28 seconds 734 msec
