                         Program Version 4.2.1 -  RELEASE  -
|  1> ! wB97X-D3 SP def2-SVP
|  2> %pal
|  3> nprocs 16
|  4> end
|  5>
|  6> * xyz 0 1
|  7> S 	 -1.14454 	 -16.5146 	 83.8068
|  8> C 	 -0.388725 	 -16.7475 	 82.1925
|  9> C 	 0.217892 	 -15.6096 	 81.7439
| 10> C 	 0.314083 	 -14.5381 	 82.6939
| 11> C 	 -0.443666 	 -14.8676 	 83.8473
| 12> H 	 0.687473 	 -13.5299 	 82.534
| 13> C 	 0.621417 	 -15.4006 	 80.2793
| 14> H 	 -0.183718 	 -14.9864 	 79.6266
| 15> H 	 0.938759 	 -16.3538 	 79.8612
| 16> C 	 1.7371 	 -14.4076 	 80.0044
| 17> H 	 1.97038 	 -14.4908 	 79.0225
| 18> H 	 1.49295 	 -13.378 	 79.9753
| 19> C 	 3.04028 	 -14.6062 	 80.8029
| 20> H 	 3.4329 	 -15.5705 	 80.476
| 21> H 	 3.68184 	 -13.8366 	 80.4566
| 22> H 	 2.8521 	 -14.6729 	 81.8774
| 23> S 	 -0.493286 	 -14.4995 	 86.5866
| 24> C 	 -0.884996 	 -12.9013 	 87.2286
| 25> C 	 -1.33031 	 -12.0888 	 86.2318
| 26> C 	 -1.11352 	 -12.6409 	 84.9041
| 27> C 	 -0.681121 	 -13.978 	 84.932
| 28> H 	 -1.87318 	 -11.1814 	 86.5514
| 29> C 	 -1.61095 	 -11.833 	 83.6883
| 30> H 	 -2.72654 	 -11.8367 	 83.6104
| 31> H 	 -1.31512 	 -12.4351 	 82.8071
| 32> C 	 -1.23074 	 -10.3445 	 83.4879
| 33> H 	 -1.79961 	 -9.74814 	 84.2093
| 34> H 	 -1.65371 	 -10.056 	 82.5503
| 35> C 	 0.263295 	 -10.1455 	 83.7194
| 36> H 	 0.428909 	 -10.0238 	 84.8275
| 37> H 	 0.592718 	 -9.31624 	 83.2059
| 38> H 	 0.954902 	 -10.9462 	 83.3884
| 39> H 	 -0.654063 	 -17.627 	 81.5957
| 40> H 	 -1.00498 	 -12.6677 	 88.2704
| 41> *
| 42>
| 43>                          ****END OF INPUT****

CARTESIAN COORDINATES (ANGSTROEM)
---------------------------------
  S     -1.144540  -16.514600   83.806800
  C     -0.388725  -16.747500   82.192500
  C      0.217892  -15.609600   81.743900
  C      0.314083  -14.538100   82.693900
  C     -0.443666  -14.867600   83.847300
  H      0.687473  -13.529900   82.534000
  C      0.621417  -15.400600   80.279300
  H     -0.183718  -14.986400   79.626600
  H      0.938759  -16.353800   79.861200
  C      1.737100  -14.407600   80.004400
  H      1.970380  -14.490800   79.022500
  H      1.492950  -13.378000   79.975300
  C      3.040280  -14.606200   80.802900
  H      3.432900  -15.570500   80.476000
  H      3.681840  -13.836600   80.456600
  H      2.852100  -14.672900   81.877400
  S     -0.493286  -14.499500   86.586600
  C     -0.884996  -12.901300   87.228600
  C     -1.330310  -12.088800   86.231800
  C     -1.113520  -12.640900   84.904100
  C     -0.681121  -13.978000   84.932000
  H     -1.873180  -11.181400   86.551400
  C     -1.610950  -11.833000   83.688300
  H     -2.726540  -11.836700   83.610400
  H     -1.315120  -12.435100   82.807100
  C     -1.230740  -10.344500   83.487900
  H     -1.799610   -9.748140   84.209300
  H     -1.653710  -10.056000   82.550300
  C      0.263295  -10.145500   83.719400
  H      0.428909  -10.023800   84.827500
  H      0.592718   -9.316240   83.205900
  H      0.954902  -10.946200   83.388400
  H     -0.654063  -17.627000   81.595700
  H     -1.004980  -12.667700   88.270400

 Total Charge           Charge          ....    0
 Multiplicity           Mult            ....    1
 Number of Electrons    NEL             ....  134
 Basis Dimension        Dim             ....  322

ORBITAL ENERGIES
----------------

  NO   OCC          E(Eh)            E(eV)
   0   2.0000     -88.969736     -2420.9896
   1   2.0000     -88.964207     -2420.8392
   2   2.0000     -10.336459      -281.2694
   3   2.0000     -10.327801      -281.0337
   4   2.0000     -10.316866      -280.7362
   5   2.0000     -10.316134      -280.7163
   6   2.0000     -10.310111      -280.5524
   7   2.0000     -10.304273      -280.3935
   8   2.0000     -10.301073      -280.3065
   9   2.0000     -10.296154      -280.1726
  10   2.0000     -10.294521      -280.1281
  11   2.0000     -10.292995      -280.0866
  12   2.0000     -10.287167      -279.9280
  13   2.0000     -10.274450      -279.5820
  14   2.0000     -10.270860      -279.4843
  15   2.0000     -10.270525      -279.4752
  16   2.0000      -8.083162      -219.9540
  17   2.0000      -8.078937      -219.8391
  18   2.0000      -6.041756      -164.4045
  19   2.0000      -6.038034      -164.3032
  20   2.0000      -6.037605      -164.2916
  21   2.0000      -6.033728      -164.1861
  22   2.0000      -6.033459      -164.1788
  23   2.0000      -6.029510      -164.0713
  24   2.0000      -1.002955       -27.2918
  25   2.0000      -0.977674       -26.6039
  26   2.0000      -0.913742       -24.8642
  27   2.0000      -0.904786       -24.6205
  28   2.0000      -0.874671       -23.8010
  29   2.0000      -0.847380       -23.0584
  30   2.0000      -0.839883       -22.8544
  31   2.0000      -0.814927       -22.1753
  32   2.0000      -0.784621       -21.3506
  33   2.0000      -0.773676       -21.0528
  34   2.0000      -0.715587       -19.4721
  35   2.0000      -0.699572       -19.0363
  36   2.0000      -0.695238       -18.9184
  37   2.0000      -0.654487       -17.8095
  38   2.0000      -0.636703       -17.3256
  39   2.0000      -0.621139       -16.9021
  40   2.0000      -0.591895       -16.1063
  41   2.0000      -0.562932       -15.3182
  42   2.0000      -0.554020       -15.0756
  43   2.0000      -0.548849       -14.9349
  44   2.0000      -0.542906       -14.7732
  45   2.0000      -0.538418       -14.6511
  46   2.0000      -0.517659       -14.0862
  47   2.0000      -0.514683       -14.0052
  48   2.0000      -0.504347       -13.7240
  49   2.0000      -0.498410       -13.5624
  50   2.0000      -0.496581       -13.5127
  51   2.0000      -0.480051       -13.0629
  52   2.0000      -0.468280       -12.7425
  53   2.0000      -0.461044       -12.5456
  54   2.0000      -0.457415       -12.4469
  55   2.0000      -0.455077       -12.3833
  56   2.0000      -0.447006       -12.1637
  57   2.0000      -0.433741       -11.8027
  58   2.0000      -0.424758       -11.5582
  59   2.0000      -0.421410       -11.4671
  60   2.0000      -0.419475       -11.4145
  61   2.0000      -0.412991       -11.2381
  62   2.0000      -0.409597       -11.1457
  63   2.0000      -0.349893        -9.5211
  64   2.0000      -0.332916        -9.0591
  65   2.0000      -0.326522        -8.8851
  66   2.0000      -0.288617        -7.8537
  67   0.0000       0.022235         0.6050
  68   0.0000       0.068845         1.8734
  69   0.0000       0.099117         2.6971
  70   0.0000       0.114347         3.1115
  71   0.0000       0.124068         3.3761

MULLIKEN ATOMIC CHARGES
-----------------------
   0 S :    0.101574
   1 C :   -0.132117
   2 C :   -0.083701
   3 C :    0.030898
   4 C :   -0.156602
   5 H :    0.033199
   6 C :    0.081715
   7 H :    0.050922
   8 H :    0.019046
   9 C :   -0.073717
  10 H :   -0.009078
  11 H :    0.006048
  12 C :   -0.037201
  13 H :    0.020762
  14 H :    0.030341
  15 H :    0.049520
  16 S :    0.100561
  17 C :   -0.090461
  18 C :   -0.046285
  19 C :   -0.028827
  20 C :   -0.143494
  21 H :    0.037679
  22 C :    0.004363
  23 H :    0.040518
  24 H :    0.020280
  25 C :   -0.041058
  26 H :    0.023346
  27 H :    0.022330
  28 C :   -0.039086
  29 H :    0.045046
  30 H :    0.015250
  31 H :    0.034709
  32 H :    0.058326
  33 H :    0.055195
Sum of atomic charges:   -0.0000000

LOEWDIN ATOMIC CHARGES
----------------------
   0 S :    0.371338
   1 C :   -0.185371
   2 C :   -0.062720
   3 C :   -0.059494
   4 C :   -0.168453
   5 H :    0.035268
   6 C :   -0.027589
   7 H :    0.042956
   8 H :    0.028429
   9 C :   -0.049014
  10 H :    0.015146
  11 H :    0.015634
  12 C :   -0.057511
  13 H :    0.024169
  14 H :    0.023268
  15 H :    0.027356
  16 S :    0.397443
  17 C :   -0.177855
  18 C :   -0.074233
  19 C :   -0.054033
  20 C :   -0.205885
  21 H :    0.039648
  22 C :   -0.041524
  23 H :    0.036243
  24 H :    0.026959
  25 C :   -0.038181
  26 H :    0.022957
  27 H :    0.022077
  28 C :   -0.066249
  29 H :    0.037971
  30 H :    0.013247
  31 H :    0.027893
  32 H :    0.031491
  33 H :    0.028616

  Mayer bond orders larger than 0.100000
B(  0-S ,  1-C ) :   1.1035 B(  0-S ,  4-C ) :   1.1504 B(  1-C ,  2-C ) :   1.6521
B(  1-C , 32-H ) :   0.9669 B(  2-C ,  3-C ) :   1.2123 B(  2-C ,  6-C ) :   1.0205
B(  3-C ,  4-C ) :   1.5600 B(  3-C ,  5-H ) :   0.9828 B(  4-C , 20-C ) :   1.0848
B(  6-C ,  7-H ) :   0.9362 B(  6-C ,  8-H ) :   0.9405 B(  6-C ,  9-C ) :   1.0848
B(  9-C , 10-H ) :   0.9402 B(  9-C , 11-H ) :   0.9447 B(  9-C , 12-C ) :   1.0777
B( 12-C , 13-H ) :   0.9758 B( 12-C , 14-H ) :   0.9735 B( 12-C , 15-H ) :   0.9757
B( 16-S , 17-C ) :   1.1400 B( 16-S , 20-C ) :   1.1303 B( 17-C , 18-C ) :   1.6440
B( 17-C , 33-H ) :   0.9661 B( 18-C , 19-C ) :   1.2137 B( 18-C , 21-H ) :   0.9832
B( 19-C , 20-C ) :   1.5826 B( 19-C , 22-C ) :   1.0378 B( 22-C , 23-H ) :   0.9394
B( 22-C , 24-H ) :   0.9354 B( 22-C , 25-C ) :   1.0754 B( 25-C , 26-H ) :   0.9516
B( 25-C , 27-H ) :   0.9565 B( 25-C , 28-C ) :   1.0693 B( 28-C , 29-H ) :   0.9683
B( 28-C , 30-H ) :   0.9741 B( 28-C , 31-H ) :   0.9791

Dispersion correction           -0.014992119
FINAL SINGLE POINT ENERGY     -1339.860539992542

DIPOLE MOMENT
-------------
                                X             Y             Z
Electronic contribution:    -10.04099     -18.06606      20.02484
Nuclear contribution   :      9.84661      18.66301     -20.59316
                        -----------------------------------------
Total Dipole Moment    :     -0.19438       0.59694      -0.56831
                        -----------------------------------------
Magnitude (a.u.)       :      0.84682
Magnitude (Debye)      :      2.15245

Rotational constants in cm-1:     0.017270     0.010017     0.007323
Rotational constants in MHz :   517.727726   300.299121   219.540977

                             ****ORCA TERMINATED NORMALLY****
TOTAL RUN TIME: 0 days 0 hours 0 minutes 35 seconds 665 msec
