                         Program Version 4.2.1 -  RELEASE  -
|  1> ! wB97X-D3 SP def2-SVP
|  2> %pal
|  3> nprocs 16
|  4> end
|  5>
|  6> * xyz 0 1
|  7> S 	 -54.8176 	 39.0705 	 86.3585
|  8> C 	 -56.2536 	 40.046 	 86.0838
|  9> C 	 -56.0611 	 41.4072 	 86.3354
| 10> C 	 -54.6961 	 41.6735 	 86.593
| 11> C 	 -53.8735 	 40.5581 	 86.6992
| 12> H 	 -54.3062 	 42.5996 	 86.9034
| 13> C 	 -57.0391 	 42.5039 	 86.2095
| 14> H 	 -56.5061 	 43.3388 	 86.7531
| 15> H 	 -57.8941 	 42.0805 	 86.7595
| 16> C 	 -57.4117 	 42.9534 	 84.7535
| 17> H 	 -57.9762 	 42.185 	 84.148
| 18> H 	 -58.0787 	 43.8311 	 84.9114
| 19> C 	 -56.1732 	 43.4168 	 83.979
| 20> H 	 -55.4364 	 42.6374 	 83.7547
| 21> H 	 -56.5298 	 43.8307 	 83.0289
| 22> H 	 -55.6708 	 44.2301 	 84.5144
| 23> S 	 -51.5844 	 42.0315 	 86.8069
| 24> C 	 -50.1233 	 41.452 	 87.5706
| 25> C 	 -50.2198 	 40.1881 	 87.9506
| 26> C 	 -51.5581 	 39.6537 	 87.6377
| 27> C 	 -52.4522 	 40.5643 	 87.0876
| 28> H 	 -49.4836 	 39.7297 	 88.5798
| 29> C 	 -51.9162 	 38.2428 	 88.1707
| 30> H 	 -51.0047 	 37.6259 	 88.3963
| 31> H 	 -52.5793 	 37.7364 	 87.4863
| 32> C 	 -52.8052 	 38.2955 	 89.4573
| 33> H 	 -53.5381 	 39.1106 	 89.4189
| 34> H 	 -52.195 	 38.6653 	 90.2122
| 35> C 	 -53.4694 	 36.9374 	 89.8319
| 36> H 	 -54.2152 	 36.8024 	 89.1259
| 37> H 	 -53.8224 	 36.9353 	 90.8326
| 38> H 	 -52.9083 	 36.0392 	 89.774
| 39> H 	 -57.1902 	 39.6507 	 86.044
| 40> H 	 -49.1747 	 42.0477 	 87.7565
| 41> *
| 42>
| 43>                          ****END OF INPUT****

CARTESIAN COORDINATES (ANGSTROEM)
---------------------------------
  S    -54.817600   39.070500   86.358500
  C    -56.253600   40.046000   86.083800
  C    -56.061100   41.407200   86.335400
  C    -54.696100   41.673500   86.593000
  C    -53.873500   40.558100   86.699200
  H    -54.306200   42.599600   86.903400
  C    -57.039100   42.503900   86.209500
  H    -56.506100   43.338800   86.753100
  H    -57.894100   42.080500   86.759500
  C    -57.411700   42.953400   84.753500
  H    -57.976200   42.185000   84.148000
  H    -58.078700   43.831100   84.911400
  C    -56.173200   43.416800   83.979000
  H    -55.436400   42.637400   83.754700
  H    -56.529800   43.830700   83.028900
  H    -55.670800   44.230100   84.514400
  S    -51.584400   42.031500   86.806900
  C    -50.123300   41.452000   87.570600
  C    -50.219800   40.188100   87.950600
  C    -51.558100   39.653700   87.637700
  C    -52.452200   40.564300   87.087600
  H    -49.483600   39.729700   88.579800
  C    -51.916200   38.242800   88.170700
  H    -51.004700   37.625900   88.396300
  H    -52.579300   37.736400   87.486300
  C    -52.805200   38.295500   89.457300
  H    -53.538100   39.110600   89.418900
  H    -52.195000   38.665300   90.212200
  C    -53.469400   36.937400   89.831900
  H    -54.215200   36.802400   89.125900
  H    -53.822400   36.935300   90.832600
  H    -52.908300   36.039200   89.774000
  H    -57.190200   39.650700   86.044000
  H    -49.174700   42.047700   87.756500

 Total Charge           Charge          ....    0
 Multiplicity           Mult            ....    1
 Number of Electrons    NEL             ....  134
 Basis Dimension        Dim             ....  322

ORBITAL ENERGIES
----------------

  NO   OCC          E(Eh)            E(eV)
   0   2.0000     -88.972847     -2421.0742
   1   2.0000     -88.962285     -2420.7868
   2   2.0000     -10.339348      -281.3480
   3   2.0000     -10.330742      -281.1138
   4   2.0000     -10.317362      -280.7497
   5   2.0000     -10.309396      -280.5329
   6   2.0000     -10.308628      -280.5120
   7   2.0000     -10.299133      -280.2537
   8   2.0000     -10.298667      -280.2410
   9   2.0000     -10.297983      -280.2224
  10   2.0000     -10.293316      -280.0954
  11   2.0000     -10.291535      -280.0469
  12   2.0000     -10.290941      -280.0307
  13   2.0000     -10.277454      -279.6637
  14   2.0000     -10.277400      -279.6623
  15   2.0000     -10.263927      -279.2956
  16   2.0000      -8.085916      -220.0290
  17   2.0000      -8.077691      -219.8051
  18   2.0000      -6.044560      -164.4808
  19   2.0000      -6.040667      -164.3749
  20   2.0000      -6.036666      -164.2660
  21   2.0000      -6.036441      -164.2599
  22   2.0000      -6.032085      -164.1414
  23   2.0000      -6.028171      -164.0349
  24   2.0000      -1.007710       -27.4212
  25   2.0000      -0.985695       -26.8221
  26   2.0000      -0.912210       -24.8225
  27   2.0000      -0.899395       -24.4738
  28   2.0000      -0.874951       -23.8086
  29   2.0000      -0.852117       -23.1873
  30   2.0000      -0.840273       -22.8650
  31   2.0000      -0.820942       -22.3390
  32   2.0000      -0.781464       -21.2647
  33   2.0000      -0.769292       -20.9335
  34   2.0000      -0.712221       -19.3805
  35   2.0000      -0.702870       -19.1261
  36   2.0000      -0.693276       -18.8650
  37   2.0000      -0.665457       -18.1080
  38   2.0000      -0.640086       -17.4176
  39   2.0000      -0.613669       -16.6988
  40   2.0000      -0.592625       -16.1262
  41   2.0000      -0.572817       -15.5871
  42   2.0000      -0.560716       -15.2578
  43   2.0000      -0.552903       -15.0453
  44   2.0000      -0.544658       -14.8209
  45   2.0000      -0.517424       -14.0798
  46   2.0000      -0.513927       -13.9847
  47   2.0000      -0.512879       -13.9561
  48   2.0000      -0.508983       -13.8501
  49   2.0000      -0.493092       -13.4177
  50   2.0000      -0.490434       -13.3454
  51   2.0000      -0.479140       -13.0381
  52   2.0000      -0.470433       -12.8011
  53   2.0000      -0.467263       -12.7149
  54   2.0000      -0.463364       -12.6088
  55   2.0000      -0.449027       -12.2186
  56   2.0000      -0.440118       -11.9762
  57   2.0000      -0.435157       -11.8412
  58   2.0000      -0.431174       -11.7328
  59   2.0000      -0.429473       -11.6866
  60   2.0000      -0.420717       -11.4483
  61   2.0000      -0.411548       -11.1988
  62   2.0000      -0.410675       -11.1750
  63   2.0000      -0.364632        -9.9222
  64   2.0000      -0.334044        -9.0898
  65   2.0000      -0.326306        -8.8792
  66   2.0000      -0.284917        -7.7530
  67   0.0000       0.017650         0.4803
  68   0.0000       0.085040         2.3141
  69   0.0000       0.103024         2.8034
  70   0.0000       0.118077         3.2130
  71   0.0000       0.131017         3.5652

MULLIKEN ATOMIC CHARGES
-----------------------
   0 S :    0.102111
   1 C :   -0.071835
   2 C :   -0.102337
   3 C :   -0.002870
   4 C :   -0.102984
   5 H :    0.000036
   6 C :    0.046338
   7 H :    0.035228
   8 H :    0.038153
   9 C :   -0.071016
  10 H :    0.044259
  11 H :    0.041042
  12 C :   -0.067604
  13 H :    0.058314
  14 H :    0.033246
  15 H :    0.026752
  16 S :    0.079807
  17 C :   -0.096129
  18 C :   -0.013332
  19 C :   -0.087020
  20 C :   -0.114403
  21 H :    0.020935
  22 C :    0.032521
  23 H :    0.038226
  24 H :    0.017576
  25 C :   -0.062133
  26 H :    0.031028
  27 H :   -0.002810
  28 C :    0.004953
  29 H :    0.014481
  30 H :    0.026346
  31 H :    0.014475
  32 H :    0.012092
  33 H :    0.076554
Sum of atomic charges:   -0.0000000

LOEWDIN ATOMIC CHARGES
----------------------
   0 S :    0.396689
   1 C :   -0.183551
   2 C :   -0.060365
   3 C :   -0.067474
   4 C :   -0.170860
   5 H :    0.016996
   6 C :   -0.039924
   7 H :    0.039670
   8 H :    0.037071
   9 C :   -0.038992
  10 H :    0.030259
  11 H :    0.029636
  12 C :   -0.069235
  13 H :    0.030652
  14 H :    0.027894
  15 H :    0.024207
  16 S :    0.409016
  17 C :   -0.189331
  18 C :   -0.074185
  19 C :   -0.057203
  20 C :   -0.199862
  21 H :    0.033398
  22 C :   -0.034676
  23 H :    0.035516
  24 H :    0.015470
  25 C :   -0.036036
  26 H :    0.026251
  27 H :    0.008843
  28 C :   -0.056716
  29 H :    0.016783
  30 H :    0.025681
  31 H :    0.021306
  32 H :    0.005808
  33 H :    0.047262

  Mayer bond orders larger than 0.100000
B(  0-S ,  1-C ) :   1.1374 B(  0-S ,  4-C ) :   1.1350 B(  1-C ,  2-C ) :   1.5984
B(  1-C , 32-H ) :   0.9710 B(  2-C ,  3-C ) :   1.2566 B(  2-C ,  6-C ) :   1.0180
B(  3-C ,  4-C ) :   1.5602 B(  3-C ,  5-H ) :   0.9834 B(  4-C , 20-C ) :   1.0725
B(  6-C ,  7-H ) :   0.9415 B(  6-C ,  8-H ) :   0.9306 B(  6-C ,  9-C ) :   1.0680
B(  9-C , 10-H ) :   0.9560 B(  9-C , 11-H ) :   0.9559 B(  9-C , 12-C ) :   1.0743
B( 12-C , 13-H ) :   0.9732 B( 12-C , 14-H ) :   0.9722 B( 12-C , 15-H ) :   0.9750
B( 16-S , 17-C ) :   1.1372 B( 16-S , 20-C ) :   1.1256 B( 17-C , 18-C ) :   1.6622
B( 17-C , 33-H ) :   0.9526 B( 18-C , 19-C ) :   1.2130 B( 18-C , 21-H ) :   0.9918
B( 19-C , 20-C ) :   1.6013 B( 19-C , 22-C ) :   1.0514 B( 22-C , 23-H ) :   0.9412
B( 22-C , 24-H ) :   0.9416 B( 22-C , 25-C ) :   1.0476 B( 25-C , 26-H ) :   0.9587
B( 25-C , 27-H ) :   0.9543 B( 25-C , 28-C ) :   1.0667 B( 28-C , 29-H ) :   0.9745
B( 28-C , 30-H ) :   0.9730 B( 28-C , 31-H ) :   0.9760

Dispersion correction           -0.014891467
FINAL SINGLE POINT ENERGY     -1339.867208273321

DIPOLE MOMENT
-------------
                                X             Y             Z
Electronic contribution:     10.55125       1.00198      -3.29250
Nuclear contribution   :    -10.72765      -0.87680       3.62090
                        -----------------------------------------
Total Dipole Moment    :     -0.17640       0.12517       0.32840
                        -----------------------------------------
Magnitude (a.u.)       :      0.39323
Magnitude (Debye)      :      0.99952

Rotational constants in cm-1:     0.020325     0.009042     0.006722
Rotational constants in MHz :   609.323237   271.080160   201.521313

                             ****ORCA TERMINATED NORMALLY****
TOTAL RUN TIME: 0 days 0 hours 0 minutes 30 seconds 90 msec
