                         Program Version 4.2.1 -  RELEASE  -
|  1> ! wB97X-D3 SP def2-SVP
|  2> %pal
|  3> nprocs 16
|  4> end
|  5>
|  6> * xyz 0 1
|  7> S 	 69.8784 	 29.3188 	 70.4236
|  8> C 	 69.2173 	 30.2892 	 69.1239
|  9> C 	 69.8079 	 29.9236 	 67.9
| 10> C 	 70.4268 	 28.6441 	 67.9434
| 11> C 	 70.5621 	 28.2025 	 69.2255
| 12> H 	 70.8267 	 28.1181 	 67.0592
| 13> C 	 69.8151 	 30.6073 	 66.4986
| 14> H 	 70.5532 	 30.1396 	 65.8856
| 15> H 	 70.0497 	 31.6561 	 66.6134
| 16> C 	 68.4641 	 30.6402 	 65.7159
| 17> H 	 68.0893 	 29.6233 	 65.7016
| 18> H 	 67.6767 	 31.2304 	 66.2517
| 19> C 	 68.5523 	 31.3168 	 64.3651
| 20> H 	 69.2655 	 30.8636 	 63.75
| 21> H 	 67.6295 	 31.214 	 63.7748
| 22> H 	 68.6988 	 32.3937 	 64.5147
| 23> S 	 72.5382 	 27.1288 	 70.9229
| 24> C 	 72.8998 	 25.4432 	 70.7979
| 25> C 	 72.1228 	 24.7797 	 69.8522
| 26> C 	 71.2608 	 25.6712 	 69.1536
| 27> C 	 71.2752 	 27.0014 	 69.6556
| 28> H 	 72.2465 	 23.7202 	 69.6166
| 29> C 	 70.4474 	 25.1869 	 68.0184
| 30> H 	 69.9335 	 26.0547 	 67.5543
| 31> H 	 69.6937 	 24.5133 	 68.4709
| 32> C 	 71.1343 	 24.4454 	 66.8949
| 33> H 	 70.4214 	 23.9496 	 66.2272
| 34> H 	 71.6657 	 23.5647 	 67.3288
| 35> C 	 72.1746 	 25.2076 	 65.9304
| 36> H 	 72.7036 	 24.4425 	 65.2997
| 37> H 	 72.8935 	 25.6568 	 66.5923
| 38> H 	 71.7814 	 25.9536 	 65.2209
| 39> H 	 68.7524 	 31.2926 	 69.102
| 40> H 	 73.6881 	 25.0289 	 71.3774
| 41> *
| 42>
| 43>                          ****END OF INPUT****

CARTESIAN COORDINATES (ANGSTROEM)
---------------------------------
  S     69.878400   29.318800   70.423600
  C     69.217300   30.289200   69.123900
  C     69.807900   29.923600   67.900000
  C     70.426800   28.644100   67.943400
  C     70.562100   28.202500   69.225500
  H     70.826700   28.118100   67.059200
  C     69.815100   30.607300   66.498600
  H     70.553200   30.139600   65.885600
  H     70.049700   31.656100   66.613400
  C     68.464100   30.640200   65.715900
  H     68.089300   29.623300   65.701600
  H     67.676700   31.230400   66.251700
  C     68.552300   31.316800   64.365100
  H     69.265500   30.863600   63.750000
  H     67.629500   31.214000   63.774800
  H     68.698800   32.393700   64.514700
  S     72.538200   27.128800   70.922900
  C     72.899800   25.443200   70.797900
  C     72.122800   24.779700   69.852200
  C     71.260800   25.671200   69.153600
  C     71.275200   27.001400   69.655600
  H     72.246500   23.720200   69.616600
  C     70.447400   25.186900   68.018400
  H     69.933500   26.054700   67.554300
  H     69.693700   24.513300   68.470900
  C     71.134300   24.445400   66.894900
  H     70.421400   23.949600   66.227200
  H     71.665700   23.564700   67.328800
  C     72.174600   25.207600   65.930400
  H     72.703600   24.442500   65.299700
  H     72.893500   25.656800   66.592300
  H     71.781400   25.953600   65.220900
  H     68.752400   31.292600   69.102000
  H     73.688100   25.028900   71.377400

 Total Charge           Charge          ....    0
 Multiplicity           Mult            ....    1
 Number of Electrons    NEL             ....  134
 Basis Dimension        Dim             ....  322

ORBITAL ENERGIES
----------------

  NO   OCC          E(Eh)            E(eV)
   0   2.0000     -88.972348     -2421.0607
   1   2.0000     -88.966799     -2420.9097
   2   2.0000     -10.331082      -281.1230
   3   2.0000     -10.330919      -281.1186
   4   2.0000     -10.317904      -280.7645
   5   2.0000     -10.317460      -280.7523
   6   2.0000     -10.304591      -280.4022
   7   2.0000     -10.304382      -280.3965
   8   2.0000     -10.296468      -280.1811
   9   2.0000     -10.295004      -280.1413
  10   2.0000     -10.293944      -280.1125
  11   2.0000     -10.293281      -280.0944
  12   2.0000     -10.291272      -280.0397
  13   2.0000     -10.288011      -279.9510
  14   2.0000     -10.286637      -279.9136
  15   2.0000     -10.276300      -279.6323
  16   2.0000      -8.086169      -220.0358
  17   2.0000      -8.081272      -219.9026
  18   2.0000      -6.044840      -164.4885
  19   2.0000      -6.040966      -164.3830
  20   2.0000      -6.039735      -164.3496
  21   2.0000      -6.036631      -164.2651
  22   2.0000      -6.035746      -164.2410
  23   2.0000      -6.032183      -164.1440
  24   2.0000      -1.003473       -27.3059
  25   2.0000      -0.981759       -26.7150
  26   2.0000      -0.909277       -24.7427
  27   2.0000      -0.907524       -24.6950
  28   2.0000      -0.866717       -23.5846
  29   2.0000      -0.853713       -23.2307
  30   2.0000      -0.843746       -22.9595
  31   2.0000      -0.810727       -22.0610
  32   2.0000      -0.785025       -21.3616
  33   2.0000      -0.772311       -21.0156
  34   2.0000      -0.707223       -19.2445
  35   2.0000      -0.701407       -19.0862
  36   2.0000      -0.693150       -18.8616
  37   2.0000      -0.656543       -17.8655
  38   2.0000      -0.634469       -17.2648
  39   2.0000      -0.620862       -16.8945
  40   2.0000      -0.597818       -16.2675
  41   2.0000      -0.571603       -15.5541
  42   2.0000      -0.561730       -15.2855
  43   2.0000      -0.553334       -15.0570
  44   2.0000      -0.537142       -14.6164
  45   2.0000      -0.519482       -14.1358
  46   2.0000      -0.518040       -14.0966
  47   2.0000      -0.509418       -13.8620
  48   2.0000      -0.501139       -13.6367
  49   2.0000      -0.496095       -13.4994
  50   2.0000      -0.491133       -13.3644
  51   2.0000      -0.477864       -13.0033
  52   2.0000      -0.472779       -12.8650
  53   2.0000      -0.469602       -12.7785
  54   2.0000      -0.465111       -12.6563
  55   2.0000      -0.453013       -12.3271
  56   2.0000      -0.448250       -12.1975
  57   2.0000      -0.436005       -11.8643
  58   2.0000      -0.428639       -11.6639
  59   2.0000      -0.424053       -11.5391
  60   2.0000      -0.421930       -11.4813
  61   2.0000      -0.415703       -11.3118
  62   2.0000      -0.411797       -11.2056
  63   2.0000      -0.350331        -9.5330
  64   2.0000      -0.332158        -9.0385
  65   2.0000      -0.329712        -8.9719
  66   2.0000      -0.284900        -7.7525
  67   0.0000       0.026443         0.7196
  68   0.0000       0.062382         1.6975
  69   0.0000       0.106465         2.8971
  70   0.0000       0.118859         3.2343
  71   0.0000       0.125307         3.4098

MULLIKEN ATOMIC CHARGES
-----------------------
   0 S :    0.124867
   1 C :   -0.102682
   2 C :   -0.115085
   3 C :    0.004978
   4 C :   -0.140797
   5 H :    0.028360
   6 C :    0.075635
   7 H :    0.015480
   8 H :    0.019816
   9 C :   -0.094996
  10 H :    0.024093
  11 H :    0.029092
  12 C :   -0.027070
  13 H :    0.016949
  14 H :    0.033510
  15 H :    0.036328
  16 S :    0.101550
  17 C :   -0.085364
  18 C :   -0.033295
  19 C :   -0.047401
  20 C :   -0.145055
  21 H :    0.028996
  22 C :    0.072038
  23 H :    0.022079
  24 H :    0.046463
  25 C :   -0.098484
  26 H :    0.029775
  27 H :    0.022015
  28 C :   -0.076630
  29 H :    0.041235
  30 H :    0.042296
  31 H :    0.042159
  32 H :    0.057314
  33 H :    0.051827
Sum of atomic charges:   -0.0000000

LOEWDIN ATOMIC CHARGES
----------------------
   0 S :    0.404475
   1 C :   -0.217101
   2 C :   -0.054387
   3 C :   -0.067547
   4 C :   -0.181676
   5 H :    0.038016
   6 C :   -0.025517
   7 H :    0.024524
   8 H :    0.027818
   9 C :   -0.043476
  10 H :    0.018753
  11 H :    0.026561
  12 C :   -0.064310
  13 H :    0.014418
  14 H :    0.032179
  15 H :    0.029267
  16 S :    0.398296
  17 C :   -0.179470
  18 C :   -0.074195
  19 C :   -0.056047
  20 C :   -0.193134
  21 H :    0.035019
  22 C :   -0.042395
  23 H :    0.032731
  24 H :    0.044627
  25 C :   -0.043710
  26 H :    0.025053
  27 H :    0.022737
  28 C :   -0.072617
  29 H :    0.033947
  30 H :    0.023446
  31 H :    0.023671
  32 H :    0.038070
  33 H :    0.021975

  Mayer bond orders larger than 0.100000
B(  0-S ,  1-C ) :   1.1212 B(  0-S ,  4-C ) :   1.1424 B(  1-C ,  2-C ) :   1.6329
B(  1-C ,  4-C ) :   0.1012 B(  1-C , 32-H ) :   0.9571 B(  2-C ,  3-C ) :   1.2322
B(  2-C ,  6-C ) :   1.0236 B(  3-C ,  4-C ) :   1.5791 B(  3-C ,  5-H ) :   0.9838
B(  4-C , 20-C ) :   1.0499 B(  6-C ,  7-H ) :   0.9469 B(  6-C ,  8-H ) :   0.9361
B(  6-C ,  9-C ) :   1.0605 B(  9-C , 10-H ) :   0.9572 B(  9-C , 11-H ) :   0.9576
B(  9-C , 12-C ) :   1.0838 B( 12-C , 13-H ) :   0.9748 B( 12-C , 14-H ) :   0.9705
B( 12-C , 15-H ) :   0.9739 B( 16-S , 17-C ) :   1.1761 B( 16-S , 20-C ) :   1.1322
B( 17-C , 18-C ) :   1.5742 B( 17-C , 20-C ) :   0.1033 B( 17-C , 33-H ) :   0.9720
B( 18-C , 19-C ) :   1.2522 B( 18-C , 21-H ) :   0.9900 B( 19-C , 20-C ) :   1.5665
B( 19-C , 22-C ) :   1.0544 B( 22-C , 23-H ) :   0.9324 B( 22-C , 24-H ) :   0.9233
B( 22-C , 25-C ) :   1.0804 B( 25-C , 26-H ) :   0.9548 B( 25-C , 27-H ) :   0.9522
B( 25-C , 28-C ) :   1.0615 B( 28-C , 29-H ) :   0.9746 B( 28-C , 30-H ) :   0.9786
B( 28-C , 31-H ) :   0.9759

Dispersion correction           -0.014127359
FINAL SINGLE POINT ENERGY     -1339.873816554664

DIPOLE MOMENT
-------------
                                X             Y             Z
Electronic contribution:      6.19791       1.04174      30.80219
Nuclear contribution   :     -6.14580      -1.22156     -31.52144
                        -----------------------------------------
Total Dipole Moment    :      0.05212      -0.17982      -0.71925
                        -----------------------------------------
Magnitude (a.u.)       :      0.74321
Magnitude (Debye)      :      1.88910

Rotational constants in cm-1:     0.018636     0.008532     0.006305
Rotational constants in MHz :   558.701513   255.785100   189.004161

                             ****ORCA TERMINATED NORMALLY****
TOTAL RUN TIME: 0 days 0 hours 0 minutes 29 seconds 775 msec
