                         Program Version 4.2.1 -  RELEASE  -
|  1> ! wB97X-D3 SP def2-SVP
|  2> %pal
|  3> nprocs 16
|  4> end
|  5>
|  6> * xyz 0 1
|  7> S 	 43.8903 	 22.3556 	 101.191
|  8> C 	 44.2851 	 23.0459 	 99.6393
|  9> C 	 44.3146 	 22.0046 	 98.643
| 10> C 	 44.1714 	 20.7066 	 99.2217
| 11> C 	 43.9921 	 20.7552 	 100.598
| 12> H 	 44.2286 	 19.7124 	 98.7686
| 13> C 	 44.7248 	 22.1422 	 97.2138
| 14> H 	 44.9404 	 21.1286 	 96.7975
| 15> H 	 45.6329 	 22.6775 	 97.2043
| 16> C 	 43.5896 	 22.7138 	 96.2878
| 17> H 	 42.7698 	 21.9886 	 96.235
| 18> H 	 43.1315 	 23.5793 	 96.7964
| 19> C 	 44.0008 	 23.1082 	 94.8669
| 20> H 	 43.0896 	 23.2534 	 94.3116
| 21> H 	 44.575 	 23.9729 	 94.8772
| 22> H 	 44.5775 	 22.2926 	 94.4529
| 23> S 	 42.6302 	 18.9444 	 102.199
| 24> C 	 43.5061 	 17.6851 	 102.935
| 25> C 	 44.7984 	 17.607 	 102.576
| 26> C 	 45.1993 	 18.7186 	 101.734
| 27> C 	 44.1502 	 19.6007 	 101.513
| 28> H 	 45.3572 	 16.75 	 102.866
| 29> C 	 46.6117 	 18.7742 	 101.101
| 30> H 	 47.3972 	 18.4769 	 101.909
| 31> H 	 46.677 	 19.8328 	 100.951
| 32> C 	 46.9686 	 17.9687 	 99.7816
| 33> H 	 47.9783 	 18.1849 	 99.444
| 34> H 	 46.3207 	 18.3802 	 98.9657
| 35> C 	 46.8316 	 16.4589 	 99.7379
| 36> H 	 47.3588 	 16.1402 	 100.621
| 37> H 	 47.157 	 15.9264 	 98.8655
| 38> H 	 45.7737 	 16.1614 	 99.9128
| 39> H 	 44.5985 	 24.0791 	 99.4189
| 40> H 	 42.9745 	 16.9949 	 103.609
| 41> *
| 42>
| 43>                          ****END OF INPUT****

CARTESIAN COORDINATES (ANGSTROEM)
---------------------------------
  S     43.890300   22.355600  101.191000
  C     44.285100   23.045900   99.639300
  C     44.314600   22.004600   98.643000
  C     44.171400   20.706600   99.221700
  C     43.992100   20.755200  100.598000
  H     44.228600   19.712400   98.768600
  C     44.724800   22.142200   97.213800
  H     44.940400   21.128600   96.797500
  H     45.632900   22.677500   97.204300
  C     43.589600   22.713800   96.287800
  H     42.769800   21.988600   96.235000
  H     43.131500   23.579300   96.796400
  C     44.000800   23.108200   94.866900
  H     43.089600   23.253400   94.311600
  H     44.575000   23.972900   94.877200
  H     44.577500   22.292600   94.452900
  S     42.630200   18.944400  102.199000
  C     43.506100   17.685100  102.935000
  C     44.798400   17.607000  102.576000
  C     45.199300   18.718600  101.734000
  C     44.150200   19.600700  101.513000
  H     45.357200   16.750000  102.866000
  C     46.611700   18.774200  101.101000
  H     47.397200   18.476900  101.909000
  H     46.677000   19.832800  100.951000
  C     46.968600   17.968700   99.781600
  H     47.978300   18.184900   99.444000
  H     46.320700   18.380200   98.965700
  C     46.831600   16.458900   99.737900
  H     47.358800   16.140200  100.621000
  H     47.157000   15.926400   98.865500
  H     45.773700   16.161400   99.912800
  H     44.598500   24.079100   99.418900
  H     42.974500   16.994900  103.609000

 Total Charge           Charge          ....    0
 Multiplicity           Mult            ....    1
 Number of Electrons    NEL             ....  134
 Basis Dimension        Dim             ....  322

ORBITAL ENERGIES
----------------

  NO   OCC          E(Eh)            E(eV)
   0   2.0000     -88.970601     -2421.0131
   1   2.0000     -88.960010     -2420.7249
   2   2.0000     -10.329067      -281.0682
   3   2.0000     -10.324656      -280.9482
   4   2.0000     -10.321857      -280.8720
   5   2.0000     -10.311134      -280.5802
   6   2.0000     -10.310328      -280.5583
   7   2.0000     -10.306510      -280.4544
   8   2.0000     -10.303942      -280.3845
   9   2.0000     -10.295494      -280.1546
  10   2.0000     -10.293328      -280.0957
  11   2.0000     -10.291013      -280.0327
  12   2.0000     -10.287306      -279.9318
  13   2.0000     -10.286852      -279.9195
  14   2.0000     -10.276152      -279.6283
  15   2.0000     -10.270862      -279.4844
  16   2.0000      -8.085612      -220.0207
  17   2.0000      -8.075692      -219.7507
  18   2.0000      -6.044019      -164.4661
  19   2.0000      -6.039847      -164.3526
  20   2.0000      -6.036698      -164.2669
  21   2.0000      -6.034044      -164.1947
  22   2.0000      -6.030235      -164.0910
  23   2.0000      -6.026391      -163.9864
  24   2.0000      -1.006180       -27.3796
  25   2.0000      -0.985394       -26.8139
  26   2.0000      -0.909298       -24.7432
  27   2.0000      -0.900020       -24.4908
  28   2.0000      -0.865834       -23.5605
  29   2.0000      -0.854575       -23.2542
  30   2.0000      -0.849548       -23.1174
  31   2.0000      -0.813824       -22.1453
  32   2.0000      -0.784942       -21.3594
  33   2.0000      -0.770510       -20.9666
  34   2.0000      -0.702412       -19.1136
  35   2.0000      -0.700435       -19.0598
  36   2.0000      -0.686149       -18.6711
  37   2.0000      -0.657088       -17.8803
  38   2.0000      -0.643972       -17.5234
  39   2.0000      -0.613413       -16.6918
  40   2.0000      -0.586287       -15.9537
  41   2.0000      -0.570988       -15.5374
  42   2.0000      -0.560381       -15.2487
  43   2.0000      -0.552766       -15.0415
  44   2.0000      -0.545931       -14.8555
  45   2.0000      -0.530198       -14.4274
  46   2.0000      -0.514735       -14.0067
  47   2.0000      -0.510855       -13.9011
  48   2.0000      -0.508243       -13.8300
  49   2.0000      -0.497348       -13.5335
  50   2.0000      -0.483518       -13.1572
  51   2.0000      -0.482795       -13.1375
  52   2.0000      -0.477587       -12.9958
  53   2.0000      -0.464507       -12.6399
  54   2.0000      -0.457508       -12.4494
  55   2.0000      -0.447085       -12.1658
  56   2.0000      -0.442565       -12.0428
  57   2.0000      -0.439935       -11.9712
  58   2.0000      -0.434701       -11.8288
  59   2.0000      -0.427078       -11.6214
  60   2.0000      -0.415919       -11.3177
  61   2.0000      -0.413579       -11.2541
  62   2.0000      -0.410215       -11.1625
  63   2.0000      -0.336536        -9.1576
  64   2.0000      -0.328985        -8.9521
  65   2.0000      -0.325413        -8.8549
  66   2.0000      -0.302965        -8.2441
  67   0.0000       0.038457         1.0465
  68   0.0000       0.055738         1.5167
  69   0.0000       0.113822         3.0973
  70   0.0000       0.119873         3.2619
  71   0.0000       0.123566         3.3624

MULLIKEN ATOMIC CHARGES
-----------------------
   0 S :    0.141274
   1 C :   -0.130841
   2 C :   -0.100962
   3 C :    0.038223
   4 C :   -0.178083
   5 H :    0.027152
   6 C :    0.067324
   7 H :    0.023112
   8 H :    0.025025
   9 C :   -0.118004
  10 H :    0.026655
  11 H :    0.026073
  12 C :    0.011591
  13 H :    0.034555
  14 H :    0.021128
  15 H :    0.023192
  16 S :    0.096146
  17 C :   -0.091810
  18 C :   -0.021173
  19 C :   -0.026761
  20 C :   -0.181244
  21 H :    0.008556
  22 C :    0.042735
  23 H :    0.042402
  24 H :    0.036950
  25 C :   -0.062438
  26 H :    0.029917
  27 H :    0.016181
  28 C :   -0.044494
  29 H :    0.017104
  30 H :    0.041377
  31 H :    0.034347
  32 H :    0.062681
  33 H :    0.062108
Sum of atomic charges:    0.0000000

LOEWDIN ATOMIC CHARGES
----------------------
   0 S :    0.443390
   1 C :   -0.214935
   2 C :   -0.057860
   3 C :   -0.060504
   4 C :   -0.224517
   5 H :    0.036503
   6 C :   -0.033406
   7 H :    0.033203
   8 H :    0.025138
   9 C :   -0.039942
  10 H :    0.023705
  11 H :    0.020752
  12 C :   -0.054751
  13 H :    0.029382
  14 H :    0.015652
  15 H :    0.023874
  16 S :    0.399341
  17 C :   -0.190206
  18 C :   -0.078472
  19 C :   -0.049547
  20 C :   -0.192954
  21 H :    0.029093
  22 C :   -0.033552
  23 H :    0.039290
  24 H :    0.033106
  25 C :   -0.041581
  26 H :    0.025398
  27 H :    0.021132
  28 C :   -0.068913
  29 H :    0.020573
  30 H :    0.026815
  31 H :    0.028490
  32 H :    0.035374
  33 H :    0.030929

  Mayer bond orders larger than 0.100000
B(  0-S ,  1-C ) :   1.1641 B(  0-S ,  4-C ) :   1.1852 B(  1-C ,  2-C ) :   1.5504
B(  1-C ,  4-C ) :   0.1055 B(  1-C , 32-H ) :   0.9695 B(  2-C ,  3-C ) :   1.2659
B(  2-C ,  6-C ) :   1.0308 B(  3-C ,  4-C ) :   1.5530 B(  3-C ,  5-H ) :   0.9922
B(  4-C , 20-C ) :   0.9823 B(  6-C ,  7-H ) :   0.9422 B(  6-C ,  8-H ) :   0.9443
B(  6-C ,  9-C ) :   1.0463 B(  9-C , 10-H ) :   0.9576 B(  9-C , 11-H ) :   0.9632
B(  9-C , 12-C ) :   1.0805 B( 12-C , 13-H ) :   0.9733 B( 12-C , 14-H ) :   0.9767
B( 12-C , 15-H ) :   0.9726 B( 16-S , 17-C ) :   1.1633 B( 16-S , 20-C ) :   1.1371
B( 17-C , 18-C ) :   1.6329 B( 17-C , 33-H ) :   0.9606 B( 18-C , 19-C ) :   1.1998
B( 18-C , 21-H ) :   1.0013 B( 19-C , 20-C ) :   1.6415 B( 19-C , 22-C ) :   1.0264
B( 22-C , 23-H ) :   0.9411 B( 22-C , 24-H ) :   0.9324 B( 22-C , 25-C ) :   1.0649
B( 25-C , 26-H ) :   0.9545 B( 25-C , 27-H ) :   0.9529 B( 25-C , 28-C ) :   1.0775
B( 28-C , 29-H ) :   0.9737 B( 28-C , 30-H ) :   0.9736 B( 28-C , 31-H ) :   0.9728

Dispersion correction           -0.014622115
FINAL SINGLE POINT ENERGY     -1339.870211070624

DIPOLE MOMENT
-------------
                                X             Y             Z
Electronic contribution:    -13.38950       4.05756      24.42579
Nuclear contribution   :     13.85292      -4.28691     -24.93635
                        -----------------------------------------
Total Dipole Moment    :      0.46342      -0.22935      -0.51056
                        -----------------------------------------
Magnitude (a.u.)       :      0.72666
Magnitude (Debye)      :      1.84702

Rotational constants in cm-1:     0.019216     0.007987     0.006458
Rotational constants in MHz :   576.090115   239.456727   193.594444

                             ****ORCA TERMINATED NORMALLY****
TOTAL RUN TIME: 0 days 0 hours 0 minutes 30 seconds 434 msec
