                         Program Version 4.2.1 -  RELEASE  -
|  1> ! wB97X-D3 SP def2-SVP
|  2> %pal
|  3> nprocs 16
|  4> end
|  5>
|  6> * xyz 0 1
|  7> S 	 16.0585 	 12.7168 	 83.9244
|  8> C 	 16.7549 	 14.064 	 83.0924
|  9> C 	 15.858 	 14.5377 	 82.1139
| 10> C 	 14.5943 	 13.9054 	 82.2846
| 11> C 	 14.4495 	 13.0559 	 83.3328
| 12> H 	 13.6395 	 14.0581 	 81.7655
| 13> C 	 16.0933 	 15.6874 	 81.1334
| 14> H 	 15.4944 	 16.5321 	 81.366
| 15> H 	 15.6115 	 15.3201 	 80.2347
| 16> C 	 17.5464 	 16.089 	 80.8336
| 17> H 	 18.1157 	 15.1622 	 80.691
| 18> H 	 17.5702 	 16.5578 	 79.8439
| 19> C 	 18.0591 	 17.1318 	 81.8919
| 20> H 	 17.4488 	 18.058 	 81.9681
| 21> H 	 18.0235 	 16.6203 	 82.8777
| 22> H 	 19.1505 	 17.3558 	 81.6483
| 23> S 	 11.8807 	 13.1659 	 84.1824
| 24> C 	 11.0253 	 11.6702 	 84.5124
| 25> C 	 11.8431 	 10.5543 	 84.3248
| 26> C 	 13.1285 	 10.8649 	 83.8744
| 27> C 	 13.2824 	 12.2439 	 83.6722
| 28> H 	 11.2767 	 9.62241 	 84.5461
| 29> C 	 14.0255 	 9.65225 	 83.5292
| 30> H 	 13.9371 	 8.95131 	 84.3746
| 31> H 	 15.1426 	 9.84614 	 83.4799
| 32> C 	 13.666 	 8.9251 	 82.2349
| 33> H 	 12.6299 	 8.50612 	 82.2705
| 34> H 	 14.317 	 8.01389 	 82.1665
| 35> C 	 13.9027 	 9.8431 	 80.9847
| 36> H 	 13.4272 	 10.8037 	 81.2099
| 37> H 	 13.4289 	 9.41078 	 80.08
| 38> H 	 14.9967 	 9.93216 	 80.7128
| 39> H 	 17.7714 	 14.3808 	 83.1371
| 40> H 	 9.99285 	 11.5773 	 84.8944
| 41> *
| 42>
| 43>                          ****END OF INPUT****

CARTESIAN COORDINATES (ANGSTROEM)
---------------------------------
  S     16.058500   12.716800   83.924400
  C     16.754900   14.064000   83.092400
  C     15.858000   14.537700   82.113900
  C     14.594300   13.905400   82.284600
  C     14.449500   13.055900   83.332800
  H     13.639500   14.058100   81.765500
  C     16.093300   15.687400   81.133400
  H     15.494400   16.532100   81.366000
  H     15.611500   15.320100   80.234700
  C     17.546400   16.089000   80.833600
  H     18.115700   15.162200   80.691000
  H     17.570200   16.557800   79.843900
  C     18.059100   17.131800   81.891900
  H     17.448800   18.058000   81.968100
  H     18.023500   16.620300   82.877700
  H     19.150500   17.355800   81.648300
  S     11.880700   13.165900   84.182400
  C     11.025300   11.670200   84.512400
  C     11.843100   10.554300   84.324800
  C     13.128500   10.864900   83.874400
  C     13.282400   12.243900   83.672200
  H     11.276700    9.622410   84.546100
  C     14.025500    9.652250   83.529200
  H     13.937100    8.951310   84.374600
  H     15.142600    9.846140   83.479900
  C     13.666000    8.925100   82.234900
  H     12.629900    8.506120   82.270500
  H     14.317000    8.013890   82.166500
  C     13.902700    9.843100   80.984700
  H     13.427200   10.803700   81.209900
  H     13.428900    9.410780   80.080000
  H     14.996700    9.932160   80.712800
  H     17.771400   14.380800   83.137100
  H      9.992850   11.577300   84.894400

 Total Charge           Charge          ....    0
 Multiplicity           Mult            ....    1
 Number of Electrons    NEL             ....  134
 Basis Dimension        Dim             ....  322

ORBITAL ENERGIES
----------------

  NO   OCC          E(Eh)            E(eV)
   0   2.0000     -88.971338     -2421.0332
   1   2.0000     -88.962055     -2420.7806
   2   2.0000     -10.332313      -281.1565
   3   2.0000     -10.324007      -280.9305
   4   2.0000     -10.318808      -280.7891
   5   2.0000     -10.313095      -280.6336
   6   2.0000     -10.309287      -280.5300
   7   2.0000     -10.304875      -280.4099
   8   2.0000     -10.298525      -280.2371
   9   2.0000     -10.295951      -280.1671
  10   2.0000     -10.292395      -280.0703
  11   2.0000     -10.292091      -280.0620
  12   2.0000     -10.291834      -280.0550
  13   2.0000     -10.290420      -280.0166
  14   2.0000     -10.289138      -279.9817
  15   2.0000     -10.279171      -279.7105
  16   2.0000      -8.085610      -220.0206
  17   2.0000      -8.076977      -219.7857
  18   2.0000      -6.044022      -164.4662
  19   2.0000      -6.040162      -164.3612
  20   2.0000      -6.036527      -164.2622
  21   2.0000      -6.035477      -164.2337
  22   2.0000      -6.031484      -164.1250
  23   2.0000      -6.027701      -164.0221
  24   2.0000      -1.009178       -27.4611
  25   2.0000      -0.986664       -26.8485
  26   2.0000      -0.909249       -24.7419
  27   2.0000      -0.903524       -24.5861
  28   2.0000      -0.868380       -23.6298
  29   2.0000      -0.846728       -23.0407
  30   2.0000      -0.841770       -22.9057
  31   2.0000      -0.809302       -22.0222
  32   2.0000      -0.780902       -21.2494
  33   2.0000      -0.771949       -21.0058
  34   2.0000      -0.706797       -19.2329
  35   2.0000      -0.701995       -19.1022
  36   2.0000      -0.683398       -18.5962
  37   2.0000      -0.661456       -17.9991
  38   2.0000      -0.638518       -17.3750
  39   2.0000      -0.611067       -16.6280
  40   2.0000      -0.593313       -16.1449
  41   2.0000      -0.577830       -15.7236
  42   2.0000      -0.550835       -14.9890
  43   2.0000      -0.543546       -14.7906
  44   2.0000      -0.533485       -14.5169
  45   2.0000      -0.530596       -14.4382
  46   2.0000      -0.515888       -14.0380
  47   2.0000      -0.514333       -13.9957
  48   2.0000      -0.499307       -13.5868
  49   2.0000      -0.490143       -13.3375
  50   2.0000      -0.488526       -13.2935
  51   2.0000      -0.475927       -12.9506
  52   2.0000      -0.469548       -12.7771
  53   2.0000      -0.464309       -12.6345
  54   2.0000      -0.459326       -12.4989
  55   2.0000      -0.446826       -12.1588
  56   2.0000      -0.441789       -12.0217
  57   2.0000      -0.436210       -11.8699
  58   2.0000      -0.430723       -11.7206
  59   2.0000      -0.426684       -11.6107
  60   2.0000      -0.418201       -11.3798
  61   2.0000      -0.414210       -11.2712
  62   2.0000      -0.405966       -11.0469
  63   2.0000      -0.347669        -9.4606
  64   2.0000      -0.337972        -9.1967
  65   2.0000      -0.323539        -8.8039
  66   2.0000      -0.292145        -7.9497
  67   0.0000       0.029782         0.8104
  68   0.0000       0.066036         1.7969
  69   0.0000       0.108008         2.9390
  70   0.0000       0.114360         3.1119
  71   0.0000       0.132785         3.6133

MULLIKEN ATOMIC CHARGES
-----------------------
   0 S :    0.109131
   1 C :   -0.121613
   2 C :   -0.073611
   3 C :   -0.000178
   4 C :   -0.120156
   5 H :    0.013820
   6 C :    0.067409
   7 H :    0.029116
   8 H :    0.022924
   9 C :   -0.077459
  10 H :    0.035375
  11 H :    0.029845
  12 C :   -0.084962
  13 H :    0.051322
  14 H :    0.034933
  15 H :    0.050580
  16 S :    0.121464
  17 C :   -0.123109
  18 C :   -0.066300
  19 C :   -0.000392
  20 C :   -0.189205
  21 H :    0.037807
  22 C :    0.037161
  23 H :    0.031452
  24 H :    0.034449
  25 C :   -0.091178
  26 H :    0.034107
  27 H :    0.035610
  28 C :   -0.071819
  29 H :    0.049456
  30 H :    0.034387
  31 H :    0.045091
  32 H :    0.048459
  33 H :    0.066085
Sum of atomic charges:   -0.0000000

LOEWDIN ATOMIC CHARGES
----------------------
   0 S :    0.415544
   1 C :   -0.202328
   2 C :   -0.059889
   3 C :   -0.070377
   4 C :   -0.201079
   5 H :    0.031524
   6 C :   -0.032999
   7 H :    0.028292
   8 H :    0.034363
   9 C :   -0.046259
  10 H :    0.027144
  11 H :    0.026794
  12 C :   -0.073049
  13 H :    0.031895
  14 H :    0.025104
  15 H :    0.033885
  16 S :    0.417664
  17 C :   -0.196897
  18 C :   -0.074432
  19 C :   -0.062571
  20 C :   -0.196647
  21 H :    0.043248
  22 C :   -0.039167
  23 H :    0.033649
  24 H :    0.030168
  25 C :   -0.046888
  26 H :    0.023606
  27 H :    0.027787
  28 C :   -0.072455
  29 H :    0.027614
  30 H :    0.026572
  31 H :    0.032875
  32 H :    0.022326
  33 H :    0.034983

  Mayer bond orders larger than 0.100000
B(  0-S ,  1-C ) :   1.1578 B(  0-S ,  4-C ) :   1.1333 B(  1-C ,  2-C ) :   1.5803
B(  1-C , 32-H ) :   0.9649 B(  2-C ,  3-C ) :   1.2465 B(  2-C ,  6-C ) :   1.0099
B(  3-C ,  4-C ) :   1.5896 B(  3-C ,  5-H ) :   0.9891 B(  4-C , 20-C ) :   1.0274
B(  6-C ,  7-H ) :   0.9419 B(  6-C ,  8-H ) :   0.9321 B(  6-C ,  9-C ) :   1.0754
B(  9-C , 10-H ) :   0.9580 B(  9-C , 11-H ) :   0.9555 B(  9-C , 12-C ) :   1.0584
B( 12-C , 13-H ) :   0.9740 B( 12-C , 14-H ) :   0.9781 B( 12-C , 15-H ) :   0.9743
B( 16-S , 17-C ) :   1.1540 B( 16-S , 20-C ) :   1.1627 B( 17-C , 18-C ) :   1.6191
B( 17-C , 20-C ) :   0.1100 B( 17-C , 33-H ) :   0.9619 B( 18-C , 19-C ) :   1.2277
B( 18-C , 21-H ) :   0.9858 B( 19-C , 20-C ) :   1.5717 B( 19-C , 22-C ) :   1.0329
B( 22-C , 23-H ) :   0.9326 B( 22-C , 24-H ) :   0.9402 B( 22-C , 25-C ) :   1.0792
B( 25-C , 26-H ) :   0.9563 B( 25-C , 27-H ) :   0.9539 B( 25-C , 28-C ) :   1.0618
B( 28-C , 29-H ) :   0.9776 B( 28-C , 30-H ) :   0.9746 B( 28-C , 31-H ) :   0.9748

Dispersion correction           -0.014939745
FINAL SINGLE POINT ENERGY     -1339.876234800492

DIPOLE MOMENT
-------------
                                X             Y             Z
Electronic contribution:    -10.92653      -0.52862      15.40205
Nuclear contribution   :     10.87678       0.43874     -15.78729
                        -----------------------------------------
Total Dipole Moment    :     -0.04975      -0.08988      -0.38524
                        -----------------------------------------
Magnitude (a.u.)       :      0.39870
Magnitude (Debye)      :      1.01342

Rotational constants in cm-1:     0.024231     0.007535     0.006681
Rotational constants in MHz :   726.417885   225.906211   200.302493

                             ****ORCA TERMINATED NORMALLY****
TOTAL RUN TIME: 0 days 0 hours 0 minutes 32 seconds 945 msec
