                         Program Version 4.2.1 -  RELEASE  -
|  1> ! wB97X-D3 SP def2-SVP
|  2> %pal
|  3> nprocs 16
|  4> end
|  5>
|  6> * xyz 0 1
|  7> S 	 -7.05424 	 78.0962 	 50.0883
|  8> C 	 -5.49827 	 78.4654 	 49.4478
|  9> C 	 -4.6943 	 77.3444 	 49.2488
| 10> C 	 -5.42082 	 76.1822 	 49.6607
| 11> C 	 -6.73856 	 76.3572 	 50.0603
| 12> H 	 -5.14246 	 75.0922 	 49.7169
| 13> C 	 -3.25134 	 77.2641 	 48.8632
| 14> H 	 -3.01062 	 78.0657 	 48.2258
| 15> H 	 -3.10936 	 76.4277 	 48.1179
| 16> C 	 -2.30236 	 77.2434 	 50.0751
| 17> H 	 -2.43186 	 78.1013 	 50.7141
| 18> H 	 -2.62669 	 76.5385 	 50.8119
| 19> C 	 -0.814769 	 77.3034 	 49.628
| 20> H 	 -0.218716 	 77.7825 	 50.3488
| 21> H 	 -0.350909 	 76.4085 	 49.3634
| 22> H 	 -0.807477 	 77.9585 	 48.7053
| 23> S 	 -8.81684 	 75.7161 	 51.7222
| 24> C 	 -9.70755 	 74.1974 	 51.4727
| 25> C 	 -9.10914 	 73.4898 	 50.4652
| 26> C 	 -8.11675 	 74.163 	 49.7157
| 27> C 	 -7.7531 	 75.3306 	 50.3475
| 28> H 	 -9.57677 	 72.5474 	 50.301
| 29> C 	 -7.55009 	 73.6422 	 48.4104
| 30> H 	 -6.5367 	 73.3467 	 48.6166
| 31> H 	 -7.46115 	 74.4627 	 47.7058
| 32> C 	 -8.3256 	 72.5114 	 47.5927
| 33> H 	 -7.94285 	 72.6391 	 46.5781
| 34> H 	 -9.43578 	 72.7123 	 47.5561
| 35> C 	 -8.05027 	 71.1358 	 48.1646
| 36> H 	 -8.1855 	 71.0543 	 49.2722
| 37> H 	 -6.97869 	 70.8036 	 48.0012
| 38> H 	 -8.66858 	 70.4008 	 47.633
| 39> H 	 -5.16731 	 79.5177 	 49.3458
| 40> H 	 -10.4958 	 73.7559 	 52.1071
| 41> *
| 42>
| 43>                          ****END OF INPUT****

CARTESIAN COORDINATES (ANGSTROEM)
---------------------------------
  S     -7.054240   78.096200   50.088300
  C     -5.498270   78.465400   49.447800
  C     -4.694300   77.344400   49.248800
  C     -5.420820   76.182200   49.660700
  C     -6.738560   76.357200   50.060300
  H     -5.142460   75.092200   49.716900
  C     -3.251340   77.264100   48.863200
  H     -3.010620   78.065700   48.225800
  H     -3.109360   76.427700   48.117900
  C     -2.302360   77.243400   50.075100
  H     -2.431860   78.101300   50.714100
  H     -2.626690   76.538500   50.811900
  C     -0.814769   77.303400   49.628000
  H     -0.218716   77.782500   50.348800
  H     -0.350909   76.408500   49.363400
  H     -0.807477   77.958500   48.705300
  S     -8.816840   75.716100   51.722200
  C     -9.707550   74.197400   51.472700
  C     -9.109140   73.489800   50.465200
  C     -8.116750   74.163000   49.715700
  C     -7.753100   75.330600   50.347500
  H     -9.576770   72.547400   50.301000
  C     -7.550090   73.642200   48.410400
  H     -6.536700   73.346700   48.616600
  H     -7.461150   74.462700   47.705800
  C     -8.325600   72.511400   47.592700
  H     -7.942850   72.639100   46.578100
  H     -9.435780   72.712300   47.556100
  C     -8.050270   71.135800   48.164600
  H     -8.185500   71.054300   49.272200
  H     -6.978690   70.803600   48.001200
  H     -8.668580   70.400800   47.633000
  H     -5.167310   79.517700   49.345800
  H    -10.495800   73.755900   52.107100

 Total Charge           Charge          ....    0
 Multiplicity           Mult            ....    1
 Number of Electrons    NEL             ....  134
 Basis Dimension        Dim             ....  322

ORBITAL ENERGIES
----------------

  NO   OCC          E(Eh)            E(eV)
   0   2.0000     -88.964438     -2420.8454
   1   2.0000     -88.963093     -2420.8088
   2   2.0000     -10.329180      -281.0713
   3   2.0000     -10.328040      -281.0402
   4   2.0000     -10.318595      -280.7832
   5   2.0000     -10.317764      -280.7606
   6   2.0000     -10.305552      -280.4283
   7   2.0000     -10.303953      -280.3848
   8   2.0000     -10.297728      -280.2154
   9   2.0000     -10.296214      -280.1742
  10   2.0000     -10.293370      -280.0968
  11   2.0000     -10.292782      -280.0808
  12   2.0000     -10.288771      -279.9717
  13   2.0000     -10.286651      -279.9140
  14   2.0000     -10.285417      -279.8804
  15   2.0000     -10.276266      -279.6314
  16   2.0000      -8.079333      -219.8498
  17   2.0000      -8.077097      -219.7890
  18   2.0000      -6.037774      -164.2962
  19   2.0000      -6.035659      -164.2386
  20   2.0000      -6.033767      -164.1871
  21   2.0000      -6.031800      -164.1336
  22   2.0000      -6.030204      -164.0902
  23   2.0000      -6.027754      -164.0235
  24   2.0000      -1.004032       -27.3211
  25   2.0000      -0.983369       -26.7588
  26   2.0000      -0.911947       -24.8153
  27   2.0000      -0.903925       -24.5971
  28   2.0000      -0.868748       -23.6398
  29   2.0000      -0.851526       -23.1712
  30   2.0000      -0.844033       -22.9673
  31   2.0000      -0.815411       -22.1885
  32   2.0000      -0.782562       -21.2946
  33   2.0000      -0.772356       -21.0169
  34   2.0000      -0.715426       -19.4677
  35   2.0000      -0.702007       -19.1026
  36   2.0000      -0.694451       -18.8970
  37   2.0000      -0.657969       -17.9042
  38   2.0000      -0.644351       -17.5337
  39   2.0000      -0.616057       -16.7638
  40   2.0000      -0.595273       -16.1982
  41   2.0000      -0.568317       -15.4647
  42   2.0000      -0.551901       -15.0180
  43   2.0000      -0.548202       -14.9173
  44   2.0000      -0.532366       -14.4864
  45   2.0000      -0.527805       -14.3623
  46   2.0000      -0.521447       -14.1893
  47   2.0000      -0.513286       -13.9672
  48   2.0000      -0.503651       -13.7051
  49   2.0000      -0.498181       -13.5562
  50   2.0000      -0.495784       -13.4910
  51   2.0000      -0.482465       -13.1285
  52   2.0000      -0.470353       -12.7990
  53   2.0000      -0.463702       -12.6180
  54   2.0000      -0.454032       -12.3548
  55   2.0000      -0.450730       -12.2650
  56   2.0000      -0.447919       -12.1885
  57   2.0000      -0.438551       -11.9336
  58   2.0000      -0.431807       -11.7501
  59   2.0000      -0.425840       -11.5877
  60   2.0000      -0.420791       -11.4503
  61   2.0000      -0.413373       -11.2484
  62   2.0000      -0.408516       -11.1163
  63   2.0000      -0.349516        -9.5108
  64   2.0000      -0.331217        -9.0129
  65   2.0000      -0.329320        -8.9612
  66   2.0000      -0.288822        -7.8592
  67   0.0000       0.026965         0.7337
  68   0.0000       0.074359         2.0234
  69   0.0000       0.106273         2.8918
  70   0.0000       0.123933         3.3724
  71   0.0000       0.140738         3.8297

MULLIKEN ATOMIC CHARGES
-----------------------
   0 S :    0.111715
   1 C :   -0.131737
   2 C :   -0.085372
   3 C :   -0.008221
   4 C :   -0.152731
   5 H :    0.028273
   6 C :    0.082671
   7 H :   -0.001696
   8 H :    0.034815
   9 C :   -0.049426
  10 H :    0.013148
  11 H :    0.018961
  12 C :   -0.009968
  13 H :    0.024535
  14 H :    0.027188
  15 H :    0.025695
  16 S :    0.086282
  17 C :   -0.096310
  18 C :   -0.051761
  19 C :   -0.005964
  20 C :   -0.163517
  21 H :    0.010029
  22 C :    0.048967
  23 H :    0.028824
  24 H :    0.036196
  25 C :   -0.073814
  26 H :    0.036982
  27 H :    0.047400
  28 C :   -0.078643
  29 H :    0.044906
  30 H :    0.034561
  31 H :    0.039198
  32 H :    0.062566
  33 H :    0.066248
Sum of atomic charges:    0.0000000

LOEWDIN ATOMIC CHARGES
----------------------
   0 S :    0.406811
   1 C :   -0.203081
   2 C :   -0.068786
   3 C :   -0.070455
   4 C :   -0.200152
   5 H :    0.039506
   6 C :   -0.034675
   7 H :    0.020964
   8 H :    0.039064
   9 C :   -0.039094
  10 H :    0.027162
  11 H :    0.022934
  12 C :   -0.054825
  13 H :    0.020658
  14 H :    0.015488
  15 H :    0.033806
  16 S :    0.375095
  17 C :   -0.179156
  18 C :   -0.074999
  19 C :   -0.055124
  20 C :   -0.182580
  21 H :    0.026679
  22 C :   -0.030052
  23 H :    0.028766
  24 H :    0.035532
  25 C :   -0.041296
  26 H :    0.029584
  27 H :    0.031919
  28 C :   -0.078046
  29 H :    0.028201
  30 H :    0.030401
  31 H :    0.026603
  32 H :    0.034450
  33 H :    0.038695

  Mayer bond orders larger than 0.100000
B(  0-S ,  1-C ) :   1.1622 B(  0-S ,  4-C ) :   1.1390 B(  1-C ,  2-C ) :   1.5858
B(  1-C , 32-H ) :   0.9642 B(  2-C ,  3-C ) :   1.2366 B(  2-C ,  6-C ) :   1.0397
B(  3-C ,  4-C ) :   1.5886 B(  3-C ,  5-H ) :   0.9853 B(  4-C , 20-C ) :   1.0454
B(  6-C ,  7-H ) :   0.9261 B(  6-C ,  8-H ) :   0.9391 B(  6-C ,  9-C ) :   1.0564
B(  9-C , 10-H ) :   0.9517 B(  9-C , 11-H ) :   0.9580 B(  9-C , 12-C ) :   1.0619
B( 12-C , 13-H ) :   0.9776 B( 12-C , 14-H ) :   0.9796 B( 12-C , 15-H ) :   0.9726
B( 16-S , 17-C ) :   1.1315 B( 16-S , 20-C ) :   1.1329 B( 17-C , 18-C ) :   1.6559
B( 17-C , 33-H ) :   0.9598 B( 18-C , 19-C ) :   1.2114 B( 18-C , 21-H ) :   0.9817
B( 19-C , 20-C ) :   1.6113 B( 19-C , 22-C ) :   1.0271 B( 22-C , 23-H ) :   0.9297
B( 22-C , 24-H ) :   0.9350 B( 22-C , 25-C ) :   1.0691 B( 25-C , 26-H ) :   0.9552
B( 25-C , 27-H ) :   0.9585 B( 25-C , 28-C ) :   1.0699 B( 28-C , 29-H ) :   0.9763
B( 28-C , 30-H ) :   0.9708 B( 28-C , 31-H ) :   0.9733

Dispersion correction           -0.013705764
FINAL SINGLE POINT ENERGY     -1339.871487545108

DIPOLE MOMENT
-------------
                                X             Y             Z
Electronic contribution:    -19.30829      13.71626      12.74328
Nuclear contribution   :     19.71914     -14.13748     -13.11823
                        -----------------------------------------
Total Dipole Moment    :      0.41085      -0.42122      -0.37495
                        -----------------------------------------
Magnitude (a.u.)       :      0.69772
Magnitude (Debye)      :      1.77345

Rotational constants in cm-1:     0.019085     0.007537     0.006024
Rotational constants in MHz :   572.142075   225.962624   180.588097

                             ****ORCA TERMINATED NORMALLY****
TOTAL RUN TIME: 0 days 0 hours 0 minutes 32 seconds 452 msec
