                         Program Version 4.2.1 -  RELEASE  -
|  1> ! wB97X-D3 SP def2-SVP
|  2> %pal
|  3> nprocs 16
|  4> end
|  5>
|  6> * xyz 0 1
|  7> S 	 57.985 	 17.3775 	 58.2075
|  8> C 	 58.2303 	 18.9297 	 58.9878
|  9> C 	 58.7774 	 18.8143 	 60.2752
| 10> C 	 59.294 	 17.4852 	 60.4449
| 11> C 	 58.9874 	 16.6156 	 59.4302
| 12> H 	 59.9757 	 17.2593 	 61.2764
| 13> C 	 58.9938 	 19.9484 	 61.2906
| 14> H 	 59.5437 	 20.787 	 60.6526
| 15> H 	 59.6813 	 19.5808 	 62.095
| 16> C 	 57.7409 	 20.4559 	 62.041
| 17> H 	 58.1566 	 21.0616 	 62.8519
| 18> H 	 57.2465 	 21.1131 	 61.3031
| 19> C 	 56.8555 	 19.3262 	 62.4105
| 20> H 	 57.4777 	 18.4787 	 62.7706
| 21> H 	 56.1409 	 19.5815 	 63.2275
| 22> H 	 56.2104 	 18.8934 	 61.6491
| 23> S 	 58.0263 	 14.1488 	 58.8786
| 24> C 	 59.2529 	 12.8657 	 58.7316
| 25> C 	 60.5217 	 13.265 	 58.9011
| 26> C 	 60.6034 	 14.6285 	 59.3284
| 27> C 	 59.332 	 15.1978 	 59.3082
| 28> H 	 61.404 	 12.6654 	 58.8891
| 29> C 	 61.9247 	 15.3338 	 59.6636
| 30> H 	 62.3529 	 14.9659 	 60.5881
| 31> H 	 61.7188 	 16.4141 	 59.8404
| 32> C 	 62.9267 	 15.2873 	 58.6309
| 33> H 	 63.1565 	 14.2743 	 58.463
| 34> H 	 63.8687 	 15.7131 	 58.9357
| 35> C 	 62.5771 	 16.0281 	 57.3511
| 36> H 	 62.2241 	 17.0185 	 57.7047
| 37> H 	 61.7404 	 15.4935 	 56.9046
| 38> H 	 63.4359 	 16.0953 	 56.6648
| 39> H 	 57.9919 	 19.9572 	 58.4978
| 40> H 	 58.9519 	 11.8697 	 58.5906
| 41> *
| 42>
| 43>                          ****END OF INPUT****

CARTESIAN COORDINATES (ANGSTROEM)
---------------------------------
  S     57.985000   17.377500   58.207500
  C     58.230300   18.929700   58.987800
  C     58.777400   18.814300   60.275200
  C     59.294000   17.485200   60.444900
  C     58.987400   16.615600   59.430200
  H     59.975700   17.259300   61.276400
  C     58.993800   19.948400   61.290600
  H     59.543700   20.787000   60.652600
  H     59.681300   19.580800   62.095000
  C     57.740900   20.455900   62.041000
  H     58.156600   21.061600   62.851900
  H     57.246500   21.113100   61.303100
  C     56.855500   19.326200   62.410500
  H     57.477700   18.478700   62.770600
  H     56.140900   19.581500   63.227500
  H     56.210400   18.893400   61.649100
  S     58.026300   14.148800   58.878600
  C     59.252900   12.865700   58.731600
  C     60.521700   13.265000   58.901100
  C     60.603400   14.628500   59.328400
  C     59.332000   15.197800   59.308200
  H     61.404000   12.665400   58.889100
  C     61.924700   15.333800   59.663600
  H     62.352900   14.965900   60.588100
  H     61.718800   16.414100   59.840400
  C     62.926700   15.287300   58.630900
  H     63.156500   14.274300   58.463000
  H     63.868700   15.713100   58.935700
  C     62.577100   16.028100   57.351100
  H     62.224100   17.018500   57.704700
  H     61.740400   15.493500   56.904600
  H     63.435900   16.095300   56.664800
  H     57.991900   19.957200   58.497800
  H     58.951900   11.869700   58.590600

 Total Charge           Charge          ....    0
 Multiplicity           Mult            ....    1
 Number of Electrons    NEL             ....  134
 Basis Dimension        Dim             ....  322

ORBITAL ENERGIES
----------------

  NO   OCC          E(Eh)            E(eV)
   0   2.0000     -88.967955     -2420.9411
   1   2.0000     -88.967624     -2420.9321
   2   2.0000     -10.325420      -280.9690
   3   2.0000     -10.324210      -280.9360
   4   2.0000     -10.321129      -280.8522
   5   2.0000     -10.312504      -280.6175
   6   2.0000     -10.305767      -280.4342
   7   2.0000     -10.303853      -280.3821
   8   2.0000     -10.301302      -280.3127
   9   2.0000     -10.292968      -280.0859
  10   2.0000     -10.291081      -280.0346
  11   2.0000     -10.287874      -279.9473
  12   2.0000     -10.287062      -279.9252
  13   2.0000     -10.275973      -279.6234
  14   2.0000     -10.271978      -279.5147
  15   2.0000     -10.268833      -279.4291
  16   2.0000      -8.082939      -219.9479
  17   2.0000      -8.082061      -219.9241
  18   2.0000      -6.041337      -164.3931
  19   2.0000      -6.040606      -164.3732
  20   2.0000      -6.037734      -164.2951
  21   2.0000      -6.036726      -164.2677
  22   2.0000      -6.033477      -164.1793
  23   2.0000      -6.032692      -164.1579
  24   2.0000      -1.008072       -27.4310
  25   2.0000      -0.982834       -26.7443
  26   2.0000      -0.923857       -25.1394
  27   2.0000      -0.912558       -24.8320
  28   2.0000      -0.868836       -23.6422
  29   2.0000      -0.850003       -23.1297
  30   2.0000      -0.844017       -22.9669
  31   2.0000      -0.809297       -22.0221
  32   2.0000      -0.783204       -21.3121
  33   2.0000      -0.770160       -20.9571
  34   2.0000      -0.700799       -19.0697
  35   2.0000      -0.696691       -18.9579
  36   2.0000      -0.691750       -18.8235
  37   2.0000      -0.661206       -17.9923
  38   2.0000      -0.628361       -17.0986
  39   2.0000      -0.614772       -16.7288
  40   2.0000      -0.601752       -16.3745
  41   2.0000      -0.573296       -15.6002
  42   2.0000      -0.563213       -15.3258
  43   2.0000      -0.554080       -15.0773
  44   2.0000      -0.547222       -14.8907
  45   2.0000      -0.537155       -14.6167
  46   2.0000      -0.512018       -13.9327
  47   2.0000      -0.500968       -13.6320
  48   2.0000      -0.498501       -13.5649
  49   2.0000      -0.494188       -13.4475
  50   2.0000      -0.483595       -13.1593
  51   2.0000      -0.471504       -12.8303
  52   2.0000      -0.469046       -12.7634
  53   2.0000      -0.467638       -12.7251
  54   2.0000      -0.460683       -12.5358
  55   2.0000      -0.451280       -12.2799
  56   2.0000      -0.447156       -12.1677
  57   2.0000      -0.437641       -11.9088
  58   2.0000      -0.431747       -11.7484
  59   2.0000      -0.421278       -11.4636
  60   2.0000      -0.416929       -11.3452
  61   2.0000      -0.410553       -11.1717
  62   2.0000      -0.408041       -11.1034
  63   2.0000      -0.350606        -9.5405
  64   2.0000      -0.334902        -9.1131
  65   2.0000      -0.330575        -8.9954
  66   2.0000      -0.284411        -7.7392
  67   0.0000       0.035228         0.9586
  68   0.0000       0.061094         1.6625
  69   0.0000       0.101155         2.7526
  70   0.0000       0.118720         3.2305
  71   0.0000       0.131969         3.5911

MULLIKEN ATOMIC CHARGES
-----------------------
   0 S :    0.116197
   1 C :   -0.165604
   2 C :   -0.096113
   3 C :    0.024652
   4 C :   -0.149798
   5 H :    0.023141
   6 C :   -0.031871
   7 H :    0.060082
   8 H :    0.030155
   9 C :   -0.033783
  10 H :    0.041310
  11 H :    0.029593
  12 C :   -0.052800
  13 H :    0.024092
  14 H :    0.037038
  15 H :    0.044896
  16 S :    0.104998
  17 C :   -0.066075
  18 C :    0.003804
  19 C :   -0.071574
  20 C :   -0.160094
  21 H :    0.010812
  22 C :    0.099189
  23 H :    0.030169
  24 H :    0.015055
  25 C :   -0.060979
  26 H :    0.000506
  27 H :    0.013604
  28 C :   -0.048350
  29 H :    0.029811
  30 H :    0.041556
  31 H :    0.042537
  32 H :    0.079167
  33 H :    0.034676
Sum of atomic charges:   -0.0000000

LOEWDIN ATOMIC CHARGES
----------------------
   0 S :    0.398808
   1 C :   -0.215472
   2 C :   -0.067550
   3 C :   -0.071089
   4 C :   -0.193521
   5 H :    0.033145
   6 C :   -0.043564
   7 H :    0.045916
   8 H :    0.028519
   9 C :   -0.045593
  10 H :    0.029500
  11 H :    0.025634
  12 C :   -0.074014
  13 H :    0.027984
  14 H :    0.030420
  15 H :    0.032504
  16 S :    0.395816
  17 C :   -0.160393
  18 C :   -0.059678
  19 C :   -0.054340
  20 C :   -0.198247
  21 H :    0.030191
  22 C :   -0.031307
  23 H :    0.033203
  24 H :    0.032050
  25 C :   -0.048084
  26 H :    0.010837
  27 H :    0.023335
  28 C :   -0.058650
  29 H :    0.028572
  30 H :    0.026221
  31 H :    0.027829
  32 H :    0.045398
  33 H :    0.015620

  Mayer bond orders larger than 0.100000
B(  0-S ,  1-C ) :   1.1389 B(  0-S ,  4-C ) :   1.1390 B(  1-C ,  2-C ) :   1.6069
B(  1-C , 32-H ) :   0.9564 B(  2-C ,  3-C ) :   1.2459 B(  2-C ,  6-C ) :   1.0083
B(  3-C ,  4-C ) :   1.5867 B(  3-C ,  5-H ) :   0.9856 B(  4-C , 20-C ) :   1.0235
B(  6-C ,  7-H ) :   0.9478 B(  6-C ,  8-H ) :   0.9452 B(  6-C ,  9-C ) :   1.0573
B(  9-C , 10-H ) :   0.9595 B(  9-C , 11-H ) :   0.9516 B(  9-C , 12-C ) :   1.0893
B( 12-C , 13-H ) :   0.9746 B( 12-C , 14-H ) :   0.9704 B( 12-C , 15-H ) :   0.9616
B( 16-S , 17-C ) :   1.1221 B( 16-S , 20-C ) :   1.1491 B( 17-C , 18-C ) :   1.6363
B( 17-C , 33-H ) :   0.9750 B( 18-C , 19-C ) :   1.2248 B( 18-C , 21-H ) :   0.9897
B( 19-C , 20-C ) :   1.6188 B( 19-C , 22-C ) :   1.0279 B( 22-C , 23-H ) :   0.9263
B( 22-C , 24-H ) :   0.9271 B( 22-C , 25-C ) :   1.1014 B( 25-C , 26-H ) :   0.9448
B( 25-C , 27-H ) :   0.9451 B( 25-C , 28-C ) :   1.0715 B( 28-C , 29-H ) :   0.9724
B( 28-C , 30-H ) :   0.9746 B( 28-C , 31-H ) :   0.9749

Dispersion correction           -0.015237135
FINAL SINGLE POINT ENERGY     -1339.869883966477

DIPOLE MOMENT
-------------
                                X             Y             Z
Electronic contribution:    -12.56272     -12.87452      -9.40471
Nuclear contribution   :     13.03620      13.02944       9.73732
                        -----------------------------------------
Total Dipole Moment    :      0.47348       0.15492       0.33261
                        -----------------------------------------
Magnitude (a.u.)       :      0.59901
Magnitude (Debye)      :      1.52256

Rotational constants in cm-1:     0.021640     0.008511     0.007378
Rotational constants in MHz :   648.758217   255.151838   221.200878

                             ****ORCA TERMINATED NORMALLY****
TOTAL RUN TIME: 0 days 0 hours 0 minutes 31 seconds 482 msec
