                         Program Version 4.2.1 -  RELEASE  -
|  1> ! wB97X-D3 SP def2-SVP
|  2> %pal
|  3> nprocs 16
|  4> end
|  5>
|  6> * xyz 0 1
|  7> S 	 -7.60063 	 -17.1369 	 79.8719
|  8> C 	 -7.6859 	 -17.5057 	 81.5397
|  9> C 	 -8.29963 	 -16.5045 	 82.2466
| 10> C 	 -8.62202 	 -15.4153 	 81.4519
| 11> C 	 -8.26181 	 -15.5276 	 80.1357
| 12> H 	 -9.04092 	 -14.4646 	 81.7608
| 13> C 	 -8.75393 	 -16.7433 	 83.7079
| 14> H 	 -7.94806 	 -17.1401 	 84.392
| 15> H 	 -9.57753 	 -17.5092 	 83.6739
| 16> C 	 -9.22967 	 -15.3952 	 84.361
| 17> H 	 -8.38307 	 -14.7165 	 84.2879
| 18> H 	 -10.0887 	 -14.9993 	 83.8046
| 19> C 	 -9.57151 	 -15.4989 	 85.8118
| 20> H 	 -10.3825 	 -16.0958 	 86.0179
| 21> H 	 -8.70445 	 -15.7502 	 86.4429
| 22> H 	 -9.85297 	 -14.4729 	 86.1518
| 23> S 	 -7.05609 	 -14.3492 	 77.9433
| 24> C 	 -7.71314 	 -13.0513 	 77.1924
| 25> C 	 -8.97375 	 -12.8158 	 77.7191
| 26> C 	 -9.34415 	 -13.5938 	 78.8439
| 27> C 	 -8.3616 	 -14.465 	 79.1246
| 28> H 	 -9.52047 	 -11.9927 	 77.2518
| 29> C 	 -10.645 	 -13.4109 	 79.5165
| 30> H 	 -10.7564 	 -14.0623 	 80.3107
| 31> H 	 -11.5314 	 -13.4754 	 78.8321
| 32> C 	 -10.8731 	 -12.0009 	 80.0712
| 33> H 	 -11.8081 	 -11.9985 	 80.6501
| 34> H 	 -11.0421 	 -11.35 	 79.1736
| 35> C 	 -9.75831 	 -11.4233 	 81.0174
| 36> H 	 -10.1699 	 -10.4707 	 81.4399
| 37> H 	 -8.85109 	 -11.1178 	 80.4759
| 38> H 	 -9.46117 	 -12.1002 	 81.7856
| 39> H 	 -7.39853 	 -18.4276 	 82.0006
| 40> H 	 -7.53997 	 -12.7497 	 76.1658
| 41> *
| 42>
| 43>                          ****END OF INPUT****

CARTESIAN COORDINATES (ANGSTROEM)
---------------------------------
  S     -7.600630  -17.136900   79.871900
  C     -7.685900  -17.505700   81.539700
  C     -8.299630  -16.504500   82.246600
  C     -8.622020  -15.415300   81.451900
  C     -8.261810  -15.527600   80.135700
  H     -9.040920  -14.464600   81.760800
  C     -8.753930  -16.743300   83.707900
  H     -7.948060  -17.140100   84.392000
  H     -9.577530  -17.509200   83.673900
  C     -9.229670  -15.395200   84.361000
  H     -8.383070  -14.716500   84.287900
  H    -10.088700  -14.999300   83.804600
  C     -9.571510  -15.498900   85.811800
  H    -10.382500  -16.095800   86.017900
  H     -8.704450  -15.750200   86.442900
  H     -9.852970  -14.472900   86.151800
  S     -7.056090  -14.349200   77.943300
  C     -7.713140  -13.051300   77.192400
  C     -8.973750  -12.815800   77.719100
  C     -9.344150  -13.593800   78.843900
  C     -8.361600  -14.465000   79.124600
  H     -9.520470  -11.992700   77.251800
  C    -10.645000  -13.410900   79.516500
  H    -10.756400  -14.062300   80.310700
  H    -11.531400  -13.475400   78.832100
  C    -10.873100  -12.000900   80.071200
  H    -11.808100  -11.998500   80.650100
  H    -11.042100  -11.350000   79.173600
  C     -9.758310  -11.423300   81.017400
  H    -10.169900  -10.470700   81.439900
  H     -8.851090  -11.117800   80.475900
  H     -9.461170  -12.100200   81.785600
  H     -7.398530  -18.427600   82.000600
  H     -7.539970  -12.749700   76.165800

 Total Charge           Charge          ....    0
 Multiplicity           Mult            ....    1
 Number of Electrons    NEL             ....  134
 Basis Dimension        Dim             ....  322

ORBITAL ENERGIES
----------------

  NO   OCC          E(Eh)            E(eV)
   0   2.0000     -88.967625     -2420.9321
   1   2.0000     -88.960948     -2420.7505
   2   2.0000     -10.327175      -281.0167
   3   2.0000     -10.324640      -280.9477
   4   2.0000     -10.306320      -280.4492
   5   2.0000     -10.305933      -280.4387
   6   2.0000     -10.302605      -280.3481
   7   2.0000     -10.297146      -280.1996
   8   2.0000     -10.295543      -280.1560
   9   2.0000     -10.292575      -280.0752
  10   2.0000     -10.288784      -279.9720
  11   2.0000     -10.288101      -279.9535
  12   2.0000     -10.286820      -279.9186
  13   2.0000     -10.286542      -279.9110
  14   2.0000     -10.279861      -279.7292
  15   2.0000     -10.273814      -279.5647
  16   2.0000      -8.082597      -219.9386
  17   2.0000      -8.078054      -219.8150
  18   2.0000      -6.041026      -164.3847
  19   2.0000      -6.037005      -164.2752
  20   2.0000      -6.036348      -164.2574
  21   2.0000      -6.033502      -164.1799
  22   2.0000      -6.032115      -164.1422
  23   2.0000      -6.028986      -164.0570
  24   2.0000      -1.019355       -27.7381
  25   2.0000      -0.998137       -27.1607
  26   2.0000      -0.917625       -24.9698
  27   2.0000      -0.908992       -24.7349
  28   2.0000      -0.874524       -23.7970
  29   2.0000      -0.854308       -23.2469
  30   2.0000      -0.846087       -23.0232
  31   2.0000      -0.815790       -22.1988
  32   2.0000      -0.790277       -21.5045
  33   2.0000      -0.773008       -21.0346
  34   2.0000      -0.712199       -19.3799
  35   2.0000      -0.698262       -19.0007
  36   2.0000      -0.687881       -18.7182
  37   2.0000      -0.656398       -17.8615
  38   2.0000      -0.641716       -17.4620
  39   2.0000      -0.624338       -16.9891
  40   2.0000      -0.601828       -16.3766
  41   2.0000      -0.575680       -15.6651
  42   2.0000      -0.565463       -15.3870
  43   2.0000      -0.552916       -15.0456
  44   2.0000      -0.542075       -14.7506
  45   2.0000      -0.524439       -14.2707
  46   2.0000      -0.517985       -14.0951
  47   2.0000      -0.510489       -13.8911
  48   2.0000      -0.506706       -13.7882
  49   2.0000      -0.498668       -13.5694
  50   2.0000      -0.496184       -13.5018
  51   2.0000      -0.484192       -13.1755
  52   2.0000      -0.480501       -13.0751
  53   2.0000      -0.470908       -12.8141
  54   2.0000      -0.464141       -12.6299
  55   2.0000      -0.453752       -12.3472
  56   2.0000      -0.437574       -11.9070
  57   2.0000      -0.433286       -11.7903
  58   2.0000      -0.428964       -11.6727
  59   2.0000      -0.427856       -11.6426
  60   2.0000      -0.420382       -11.4392
  61   2.0000      -0.417992       -11.3742
  62   2.0000      -0.408117       -11.1054
  63   2.0000      -0.356334        -9.6963
  64   2.0000      -0.335185        -9.1209
  65   2.0000      -0.327757        -8.9187
  66   2.0000      -0.290050        -7.8927
  67   0.0000       0.029328         0.7981
  68   0.0000       0.078771         2.1435
  69   0.0000       0.117106         3.1866
  70   0.0000       0.119407         3.2492
  71   0.0000       0.130482         3.5506

MULLIKEN ATOMIC CHARGES
-----------------------
   0 S :    0.125354
   1 C :   -0.112174
   2 C :   -0.050650
   3 C :   -0.007620
   4 C :   -0.126945
   5 H :   -0.007048
   6 C :    0.019487
   7 H :    0.037889
   8 H :    0.051216
   9 C :   -0.123955
  10 H :    0.035674
  11 H :    0.037715
  12 C :    0.004533
  13 H :    0.016371
  14 H :    0.031284
  15 H :    0.025100
  16 S :    0.114414
  17 C :   -0.069542
  18 C :   -0.104644
  19 C :    0.004460
  20 C :   -0.180592
  21 H :    0.019880
  22 C :    0.123620
  23 H :   -0.006965
  24 H :    0.042067
  25 C :   -0.133842
  26 H :    0.035679
  27 H :    0.036144
  28 C :   -0.059324
  29 H :    0.038680
  30 H :    0.044739
  31 H :    0.036219
  32 H :    0.035063
  33 H :    0.067713
Sum of atomic charges:   -0.0000000

LOEWDIN ATOMIC CHARGES
----------------------
   0 S :    0.422109
   1 C :   -0.201836
   2 C :   -0.073089
   3 C :   -0.070530
   4 C :   -0.188696
   5 H :    0.027106
   6 C :   -0.033300
   7 H :    0.034570
   8 H :    0.035438
   9 C :   -0.047021
  10 H :    0.026574
  11 H :    0.023668
  12 C :   -0.060035
  13 H :    0.011747
  14 H :    0.027759
  15 H :    0.032368
  16 S :    0.443785
  17 C :   -0.231616
  18 C :   -0.073658
  19 C :   -0.060890
  20 C :   -0.186558
  21 H :    0.028092
  22 C :   -0.028342
  23 H :    0.014508
  24 H :    0.045552
  25 C :   -0.040256
  26 H :    0.025310
  27 H :    0.024118
  28 C :   -0.071263
  29 H :    0.033029
  30 H :    0.029949
  31 H :    0.017662
  32 H :    0.026125
  33 H :    0.037622

  Mayer bond orders larger than 0.100000
B(  0-S ,  1-C ) :   1.1561 B(  0-S ,  4-C ) :   1.1552 B(  1-C ,  2-C ) :   1.5921
B(  1-C ,  4-C ) :   0.1029 B(  1-C , 32-H ) :   0.9730 B(  2-C ,  3-C ) :   1.2827
B(  2-C ,  6-C ) :   0.9997 B(  3-C ,  4-C ) :   1.5414 B(  3-C ,  5-H ) :   0.9924
B(  4-C , 20-C ) :   1.0424 B(  6-C ,  7-H ) :   0.9452 B(  6-C ,  8-H ) :   0.9439
B(  6-C ,  9-C ) :   1.0795 B(  9-C , 10-H ) :   0.9580 B(  9-C , 11-H ) :   0.9441
B(  9-C , 12-C ) :   1.1001 B( 12-C , 13-H ) :   0.9722 B( 12-C , 14-H ) :   0.9703
B( 12-C , 15-H ) :   0.9674 B( 16-S , 17-C ) :   1.1880 B( 16-S , 20-C ) :   1.1502
B( 17-C , 18-C ) :   1.5995 B( 17-C , 33-H ) :   0.9566 B( 18-C , 19-C ) :   1.2347
B( 18-C , 21-H ) :   0.9877 B( 19-C , 20-C ) :   1.5856 B( 19-C , 22-C ) :   1.0654
B( 22-C , 23-H ) :   0.9202 B( 22-C , 24-H ) :   0.9308 B( 22-C , 25-C ) :   1.0711
B( 25-C , 26-H ) :   0.9600 B( 25-C , 27-H ) :   0.9556 B( 25-C , 28-C ) :   1.0683
B( 28-C , 29-H ) :   0.9735 B( 28-C , 30-H ) :   0.9718 B( 28-C , 31-H ) :   0.9748

Dispersion correction           -0.014637454
FINAL SINGLE POINT ENERGY     -1339.877100482886

DIPOLE MOMENT
-------------
                                X             Y             Z
Electronic contribution:     15.44031     -12.55809     -24.25419
Nuclear contribution   :    -15.97892      12.76839      24.61975
                        -----------------------------------------
Total Dipole Moment    :     -0.53861       0.21030       0.36556
                        -----------------------------------------
Magnitude (a.u.)       :      0.68407
Magnitude (Debye)      :      1.73877

Rotational constants in cm-1:     0.018289     0.009669     0.006794
Rotational constants in MHz :   548.304886   289.860756   203.692523

                             ****ORCA TERMINATED NORMALLY****
TOTAL RUN TIME: 0 days 0 hours 0 minutes 33 seconds 84 msec
