                         Program Version 4.2.1 -  RELEASE  -
|  1> ! wB97X-D3 SP def2-SVP
|  2> %pal
|  3> nprocs 16
|  4> end
|  5>
|  6> * xyz 0 1
|  7> S 	 -3.35566 	 19.8197 	 52.2115
|  8> C 	 -2.70493 	 18.4361 	 51.3943
|  9> C 	 -1.52179 	 18.6947 	 50.7281
| 10> C 	 -1.06335 	 19.9908 	 50.9625
| 11> C 	 -1.83772 	 20.7273 	 51.86
| 12> H 	 -0.282818 	 20.4903 	 50.401
| 13> C 	 -0.765629 	 17.8205 	 49.7597
| 14> H 	 -0.707953 	 18.3145 	 48.7854
| 15> H 	 -1.33499 	 16.9382 	 49.6204
| 16> C 	 0.632308 	 17.4374 	 50.311
| 17> H 	 1.29932 	 18.2993 	 50.2859
| 18> H 	 0.521732 	 17.2126 	 51.3603
| 19> C 	 1.28616 	 16.3038 	 49.5353
| 20> H 	 2.08627 	 15.9121 	 50.2657
| 21> H 	 0.579647 	 15.5439 	 49.17
| 22> H 	 1.91739 	 16.7063 	 48.7065
| 23> S 	 -3.15994 	 23.066 	 52.7712
| 24> C 	 -2.29301 	 24.509 	 52.9005
| 25> C 	 -0.969767 	 24.3855 	 52.5311
| 26> C 	 -0.544085 	 23.0272 	 52.2033
| 27> C 	 -1.67001 	 22.1536 	 52.2166
| 28> H 	 -0.231485 	 25.1712 	 52.5307
| 29> C 	 0.888283 	 22.6272 	 51.9862
| 30> H 	 1.26041 	 23.2865 	 51.1321
| 31> H 	 0.942523 	 21.7008 	 51.532
| 32> C 	 1.76092 	 22.9032 	 53.1839
| 33> H 	 1.54278 	 23.955 	 53.6128
| 34> H 	 2.79951 	 22.8518 	 52.868
| 35> C 	 1.52357 	 21.8254 	 54.2503
| 36> H 	 2.18715 	 22.0345 	 55.1186
| 37> H 	 1.67792 	 20.8044 	 53.8227
| 38> H 	 0.514698 	 21.9092 	 54.6197
| 39> H 	 -3.17587 	 17.4819 	 51.2327
| 40> H 	 -2.68912 	 25.4403 	 53.1029
| 41> *
| 42>
| 43>                          ****END OF INPUT****

CARTESIAN COORDINATES (ANGSTROEM)
---------------------------------
  S     -3.355660   19.819700   52.211500
  C     -2.704930   18.436100   51.394300
  C     -1.521790   18.694700   50.728100
  C     -1.063350   19.990800   50.962500
  C     -1.837720   20.727300   51.860000
  H     -0.282818   20.490300   50.401000
  C     -0.765629   17.820500   49.759700
  H     -0.707953   18.314500   48.785400
  H     -1.334990   16.938200   49.620400
  C      0.632308   17.437400   50.311000
  H      1.299320   18.299300   50.285900
  H      0.521732   17.212600   51.360300
  C      1.286160   16.303800   49.535300
  H      2.086270   15.912100   50.265700
  H      0.579647   15.543900   49.170000
  H      1.917390   16.706300   48.706500
  S     -3.159940   23.066000   52.771200
  C     -2.293010   24.509000   52.900500
  C     -0.969767   24.385500   52.531100
  C     -0.544085   23.027200   52.203300
  C     -1.670010   22.153600   52.216600
  H     -0.231485   25.171200   52.530700
  C      0.888283   22.627200   51.986200
  H      1.260410   23.286500   51.132100
  H      0.942523   21.700800   51.532000
  C      1.760920   22.903200   53.183900
  H      1.542780   23.955000   53.612800
  H      2.799510   22.851800   52.868000
  C      1.523570   21.825400   54.250300
  H      2.187150   22.034500   55.118600
  H      1.677920   20.804400   53.822700
  H      0.514698   21.909200   54.619700
  H     -3.175870   17.481900   51.232700
  H     -2.689120   25.440300   53.102900

 Total Charge           Charge          ....    0
 Multiplicity           Mult            ....    1
 Number of Electrons    NEL             ....  134
 Basis Dimension        Dim             ....  322

ORBITAL ENERGIES
----------------

  NO   OCC          E(Eh)            E(eV)
   0   2.0000     -88.970285     -2421.0045
   1   2.0000     -88.966043     -2420.8891
   2   2.0000     -10.337750      -281.3045
   3   2.0000     -10.336839      -281.2797
   4   2.0000     -10.311891      -280.6008
   5   2.0000     -10.311696      -280.5955
   6   2.0000     -10.310141      -280.5532
   7   2.0000     -10.294922      -280.1391
   8   2.0000     -10.294818      -280.1362
   9   2.0000     -10.292595      -280.0757
  10   2.0000     -10.291553      -280.0474
  11   2.0000     -10.290761      -280.0259
  12   2.0000     -10.289699      -279.9970
  13   2.0000     -10.288481      -279.9638
  14   2.0000     -10.285713      -279.8885
  15   2.0000     -10.275583      -279.6128
  16   2.0000      -8.084137      -219.9806
  17   2.0000      -8.080792      -219.8895
  18   2.0000      -6.042771      -164.4322
  19   2.0000      -6.039405      -164.3406
  20   2.0000      -6.038987      -164.3292
  21   2.0000      -6.035357      -164.2304
  22   2.0000      -6.034617      -164.2103
  23   2.0000      -6.031404      -164.1229
  24   2.0000      -1.000970       -27.2378
  25   2.0000      -0.982352       -26.7311
  26   2.0000      -0.917484       -24.9660
  27   2.0000      -0.912476       -24.8297
  28   2.0000      -0.866280       -23.5727
  29   2.0000      -0.853694       -23.2302
  30   2.0000      -0.842993       -22.9390
  31   2.0000      -0.810946       -22.0670
  32   2.0000      -0.784509       -21.3476
  33   2.0000      -0.770307       -20.9611
  34   2.0000      -0.707796       -19.2601
  35   2.0000      -0.698668       -19.0117
  36   2.0000      -0.695621       -18.9288
  37   2.0000      -0.654790       -17.8177
  38   2.0000      -0.638957       -17.3869
  39   2.0000      -0.625400       -17.0180
  40   2.0000      -0.605344       -16.4722
  41   2.0000      -0.569288       -15.4911
  42   2.0000      -0.559321       -15.2199
  43   2.0000      -0.552922       -15.0458
  44   2.0000      -0.539317       -14.6756
  45   2.0000      -0.525992       -14.3130
  46   2.0000      -0.518994       -14.1226
  47   2.0000      -0.509193       -13.8558
  48   2.0000      -0.501229       -13.6391
  49   2.0000      -0.497981       -13.5507
  50   2.0000      -0.489246       -13.3131
  51   2.0000      -0.479993       -13.0613
  52   2.0000      -0.471234       -12.8229
  53   2.0000      -0.469899       -12.7866
  54   2.0000      -0.459628       -12.5071
  55   2.0000      -0.449237       -12.2244
  56   2.0000      -0.441494       -12.0137
  57   2.0000      -0.439305       -11.9541
  58   2.0000      -0.434182       -11.8147
  59   2.0000      -0.426262       -11.5992
  60   2.0000      -0.421897       -11.4804
  61   2.0000      -0.416496       -11.3334
  62   2.0000      -0.410881       -11.1806
  63   2.0000      -0.362029        -9.8513
  64   2.0000      -0.333395        -9.0721
  65   2.0000      -0.326961        -8.8970
  66   2.0000      -0.276522        -7.5245
  67   0.0000       0.016893         0.4597
  68   0.0000       0.079309         2.1581
  69   0.0000       0.094242         2.5644
  70   0.0000       0.117937         3.2092
  71   0.0000       0.129514         3.5242

MULLIKEN ATOMIC CHARGES
-----------------------
   0 S :    0.104013
   1 C :   -0.099199
   2 C :   -0.104808
   3 C :   -0.028446
   4 C :   -0.103700
   5 H :    0.028489
   6 C :    0.104315
   7 H :    0.039258
   8 H :   -0.005628
   9 C :   -0.093189
  10 H :    0.025511
  11 H :    0.034658
  12 C :   -0.066576
  13 H :    0.043338
  14 H :    0.046419
  15 H :    0.038580
  16 S :    0.091293
  17 C :   -0.033308
  18 C :   -0.033956
  19 C :   -0.094223
  20 C :   -0.142638
  21 H :    0.010736
  22 C :    0.103143
  23 H :    0.032915
  24 H :   -0.022562
  25 C :   -0.083811
  26 H :    0.044966
  27 H :    0.030696
  28 C :   -0.052306
  29 H :    0.037721
  30 H :    0.038634
  31 H :    0.042180
  32 H :    0.035849
  33 H :    0.031637
Sum of atomic charges:    0.0000000

LOEWDIN ATOMIC CHARGES
----------------------
   0 S :    0.391243
   1 C :   -0.202929
   2 C :   -0.066033
   3 C :   -0.067150
   4 C :   -0.170310
   5 H :    0.030655
   6 C :   -0.025809
   7 H :    0.034791
   8 H :    0.019466
   9 C :   -0.043250
  10 H :    0.022813
  11 H :    0.023852
  12 C :   -0.074753
  13 H :    0.039046
  14 H :    0.026143
  15 H :    0.029372
  16 S :    0.390739
  17 C :   -0.189080
  18 C :   -0.070573
  19 C :   -0.049019
  20 C :   -0.173797
  21 H :    0.025486
  22 C :   -0.034586
  23 H :    0.042268
  24 H :    0.013685
  25 C :   -0.041656
  26 H :    0.034399
  27 H :    0.022519
  28 C :   -0.066142
  29 H :    0.027875
  30 H :    0.029921
  31 H :    0.025763
  32 H :    0.027015
  33 H :    0.018037

  Mayer bond orders larger than 0.100000
B(  0-S ,  1-C ) :   1.1332 B(  0-S ,  4-C ) :   1.1378 B(  1-C ,  2-C ) :   1.6170
B(  1-C , 32-H ) :   0.9600 B(  2-C ,  3-C ) :   1.2588 B(  2-C ,  6-C ) :   1.0359
B(  3-C ,  4-C ) :   1.5569 B(  3-C ,  5-H ) :   0.9814 B(  4-C , 20-C ) :   1.0949
B(  6-C ,  7-H ) :   0.9372 B(  6-C ,  8-H ) :   0.9321 B(  6-C ,  9-C ) :   1.0561
B(  9-C , 10-H ) :   0.9513 B(  9-C , 11-H ) :   0.9627 B(  9-C , 12-C ) :   1.0816
B( 12-C , 13-H ) :   0.9742 B( 12-C , 14-H ) :   0.9763 B( 12-C , 15-H ) :   0.9748
B( 16-S , 17-C ) :   1.1590 B( 16-S , 20-C ) :   1.1171 B( 17-C , 18-C ) :   1.6040
B( 17-C , 33-H ) :   0.9739 B( 18-C , 19-C ) :   1.2419 B( 18-C , 21-H ) :   0.9846
B( 19-C , 20-C ) :   1.5763 B( 19-C , 22-C ) :   1.0488 B( 22-C , 23-H ) :   0.9216
B( 22-C , 24-H ) :   0.9289 B( 22-C , 25-C ) :   1.0697 B( 25-C , 26-H ) :   0.9539
B( 25-C , 27-H ) :   0.9517 B( 25-C , 28-C ) :   1.0714 B( 28-C , 29-H ) :   0.9735
B( 28-C , 30-H ) :   0.9733 B( 28-C , 31-H ) :   0.9768

Dispersion correction           -0.014238111
FINAL SINGLE POINT ENERGY     -1339.875307272809

DIPOLE MOMENT
-------------
                                X             Y             Z
Electronic contribution:    -27.19094      11.51266       5.21646
Nuclear contribution   :     27.85571     -11.52471      -5.59170
                        -----------------------------------------
Total Dipole Moment    :      0.66476      -0.01205      -0.37524
                        -----------------------------------------
Magnitude (a.u.)       :      0.76345
Magnitude (Debye)      :      1.94054

Rotational constants in cm-1:     0.019053     0.008835     0.006599
Rotational constants in MHz :   571.201749   264.872350   197.834092

                             ****ORCA TERMINATED NORMALLY****
TOTAL RUN TIME: 0 days 0 hours 0 minutes 35 seconds 243 msec
