                         Program Version 4.2.1 -  RELEASE  -
|  1> ! wB97X-D3 SP def2-SVP
|  2> %pal
|  3> nprocs 16
|  4> end
|  5>
|  6> * xyz 0 1
|  7> S 	 -69.9369 	 40.7194 	 127.295
|  8> C 	 -70.0544 	 42.4231 	 127.612
|  9> C 	 -69.0021 	 43.1085 	 127.043
| 10> C 	 -68.2274 	 42.2633 	 126.209
| 11> C 	 -68.6517 	 40.9784 	 126.167
| 12> H 	 -67.3286 	 42.5304 	 125.641
| 13> C 	 -68.6166 	 44.5305 	 127.246
| 14> H 	 -67.5563 	 44.5471 	 127.099
| 15> H 	 -68.8574 	 44.9081 	 128.262
| 16> C 	 -69.4676 	 45.4632 	 126.343
| 17> H 	 -70.5044 	 45.3098 	 126.496
| 18> H 	 -69.3292 	 46.4934 	 126.565
| 19> C 	 -69.3927 	 45.1774 	 124.826
| 20> H 	 -69.8321 	 45.9622 	 124.193
| 21> H 	 -68.3891 	 45.1901 	 124.484
| 22> H 	 -69.9854 	 44.312 	 124.612
| 23> S 	 -68.7077 	 39.5357 	 123.868
| 24> C 	 -67.6838 	 38.1214 	 123.72
| 25> C 	 -66.7976 	 38.0593 	 124.814
| 26> C 	 -66.9927 	 39.1036 	 125.789
| 27> C 	 -68.0222 	 39.9182 	 125.439
| 28> H 	 -66.051 	 37.2877 	 124.952
| 29> C 	 -65.9984 	 39.2358 	 126.933
| 30> H 	 -65.7579 	 38.2295 	 127.319
| 31> H 	 -66.4615 	 39.723 	 127.805
| 32> C 	 -64.6677 	 39.9206 	 126.729
| 33> H 	 -64.0959 	 39.2761 	 126
| 34> H 	 -64.025 	 39.782 	 127.575
| 35> C 	 -64.6699 	 41.3861 	 126.403
| 36> H 	 -63.5833 	 41.7357 	 126.519
| 37> H 	 -65.1925 	 41.9643 	 127.163
| 38> H 	 -64.8998 	 41.6996 	 125.35
| 39> H 	 -70.8978 	 42.8471 	 128.168
| 40> H 	 -67.9511 	 37.3199 	 123.016
| 41> *
| 42>
| 43>                          ****END OF INPUT****

CARTESIAN COORDINATES (ANGSTROEM)
---------------------------------
  S    -69.936900   40.719400  127.295000
  C    -70.054400   42.423100  127.612000
  C    -69.002100   43.108500  127.043000
  C    -68.227400   42.263300  126.209000
  C    -68.651700   40.978400  126.167000
  H    -67.328600   42.530400  125.641000
  C    -68.616600   44.530500  127.246000
  H    -67.556300   44.547100  127.099000
  H    -68.857400   44.908100  128.262000
  C    -69.467600   45.463200  126.343000
  H    -70.504400   45.309800  126.496000
  H    -69.329200   46.493400  126.565000
  C    -69.392700   45.177400  124.826000
  H    -69.832100   45.962200  124.193000
  H    -68.389100   45.190100  124.484000
  H    -69.985400   44.312000  124.612000
  S    -68.707700   39.535700  123.868000
  C    -67.683800   38.121400  123.720000
  C    -66.797600   38.059300  124.814000
  C    -66.992700   39.103600  125.789000
  C    -68.022200   39.918200  125.439000
  H    -66.051000   37.287700  124.952000
  C    -65.998400   39.235800  126.933000
  H    -65.757900   38.229500  127.319000
  H    -66.461500   39.723000  127.805000
  C    -64.667700   39.920600  126.729000
  H    -64.095900   39.276100  126.000000
  H    -64.025000   39.782000  127.575000
  C    -64.669900   41.386100  126.403000
  H    -63.583300   41.735700  126.519000
  H    -65.192500   41.964300  127.163000
  H    -64.899800   41.699600  125.350000
  H    -70.897800   42.847100  128.168000
  H    -67.951100   37.319900  123.016000

 Total Charge           Charge          ....    0
 Multiplicity           Mult            ....    1
 Number of Electrons    NEL             ....  134
 Basis Dimension        Dim             ....  322

ORBITAL ENERGIES
----------------

  NO   OCC          E(Eh)            E(eV)
   0   2.0000     -88.962515     -2420.7931
   1   2.0000     -88.962498     -2420.7926
   2   2.0000     -10.321456      -280.8611
   3   2.0000     -10.319555      -280.8094
   4   2.0000     -10.316160      -280.7170
   5   2.0000     -10.311902      -280.6011
   6   2.0000     -10.301115      -280.3076
   7   2.0000     -10.296863      -280.1919
   8   2.0000     -10.295351      -280.1507
   9   2.0000     -10.291968      -280.0587
  10   2.0000     -10.291410      -280.0435
  11   2.0000     -10.286926      -279.9215
  12   2.0000     -10.286648      -279.9139
  13   2.0000     -10.284974      -279.8684
  14   2.0000     -10.279243      -279.7124
  15   2.0000     -10.267727      -279.3991
  16   2.0000      -8.077956      -219.8124
  17   2.0000      -8.077476      -219.7993
  18   2.0000      -6.036319      -164.2566
  19   2.0000      -6.035921      -164.2458
  20   2.0000      -6.032415      -164.1504
  21   2.0000      -6.031916      -164.1368
  22   2.0000      -6.028770      -164.0512
  23   2.0000      -6.028326      -164.0391
  24   2.0000      -1.010743       -27.5037
  25   2.0000      -0.984765       -26.7968
  26   2.0000      -0.913004       -24.8441
  27   2.0000      -0.910931       -24.7877
  28   2.0000      -0.867914       -23.6171
  29   2.0000      -0.850472       -23.1425
  30   2.0000      -0.847292       -23.0560
  31   2.0000      -0.810113       -22.0443
  32   2.0000      -0.786163       -21.3926
  33   2.0000      -0.774405       -21.0726
  34   2.0000      -0.706931       -19.2366
  35   2.0000      -0.701840       -19.0980
  36   2.0000      -0.688411       -18.7326
  37   2.0000      -0.663323       -18.0499
  38   2.0000      -0.645207       -17.5570
  39   2.0000      -0.612067       -16.6552
  40   2.0000      -0.595171       -16.1954
  41   2.0000      -0.571909       -15.5624
  42   2.0000      -0.552482       -15.0338
  43   2.0000      -0.548734       -14.9318
  44   2.0000      -0.540519       -14.7083
  45   2.0000      -0.540020       -14.6947
  46   2.0000      -0.521123       -14.1805
  47   2.0000      -0.514665       -14.0048
  48   2.0000      -0.504946       -13.7403
  49   2.0000      -0.500282       -13.6134
  50   2.0000      -0.489270       -13.3137
  51   2.0000      -0.479677       -13.0527
  52   2.0000      -0.468335       -12.7440
  53   2.0000      -0.464167       -12.6306
  54   2.0000      -0.454910       -12.3787
  55   2.0000      -0.443969       -12.0810
  56   2.0000      -0.440865       -11.9965
  57   2.0000      -0.432311       -11.7638
  58   2.0000      -0.428641       -11.6639
  59   2.0000      -0.423564       -11.5258
  60   2.0000      -0.421761       -11.4767
  61   2.0000      -0.416460       -11.3325
  62   2.0000      -0.407293       -11.0830
  63   2.0000      -0.335004        -9.1159
  64   2.0000      -0.326899        -8.8954
  65   2.0000      -0.317625        -8.6430
  66   2.0000      -0.310749        -8.4559
  67   0.0000       0.042900         1.1674
  68   0.0000       0.056501         1.5375
  69   0.0000       0.107582         2.9274
  70   0.0000       0.119647         3.2557
  71   0.0000       0.127330         3.4648

MULLIKEN ATOMIC CHARGES
-----------------------
   0 S :    0.124969
   1 C :   -0.145891
   2 C :   -0.081821
   3 C :    0.038223
   4 C :   -0.168363
   5 H :    0.010434
   6 C :    0.099096
   7 H :    0.025193
   8 H :    0.029003
   9 C :   -0.053682
  10 H :    0.012320
  11 H :    0.019365
  12 C :   -0.055002
  13 H :    0.023550
  14 H :    0.020837
  15 H :    0.045706
  16 S :    0.109830
  17 C :   -0.110168
  18 C :   -0.033901
  19 C :    0.010203
  20 C :   -0.217687
  21 H :    0.017080
  22 C :    0.070135
  23 H :    0.018210
  24 H :    0.021597
  25 C :   -0.054418
  26 H :    0.017127
  27 H :    0.020406
  28 C :   -0.070737
  29 H :    0.030456
  30 H :    0.036056
  31 H :    0.057295
  32 H :    0.055555
  33 H :    0.079023
Sum of atomic charges:    0.0000000

LOEWDIN ATOMIC CHARGES
----------------------
   0 S :    0.420021
   1 C :   -0.201179
   2 C :   -0.066662
   3 C :   -0.058855
   4 C :   -0.211386
   5 H :    0.034856
   6 C :   -0.025740
   7 H :    0.027981
   8 H :    0.036666
   9 C :   -0.034497
  10 H :    0.021116
  11 H :    0.015977
  12 C :   -0.065852
  13 H :    0.028868
  14 H :    0.016182
  15 H :    0.026535
  16 S :    0.405279
  17 C :   -0.192059
  18 C :   -0.065017
  19 C :   -0.056079
  20 C :   -0.198667
  21 H :    0.027908
  22 C :   -0.035336
  23 H :    0.033932
  24 H :    0.029762
  25 C :   -0.048753
  26 H :    0.026403
  27 H :    0.026328
  28 C :   -0.075497
  29 H :    0.035887
  30 H :    0.024920
  31 H :    0.030894
  32 H :    0.030646
  33 H :    0.035418

  Mayer bond orders larger than 0.100000
B(  0-S ,  1-C ) :   1.1511 B(  0-S ,  4-C ) :   1.1537 B(  1-C ,  2-C ) :   1.5947
B(  1-C , 32-H ) :   0.9688 B(  2-C ,  3-C ) :   1.2355 B(  2-C ,  6-C ) :   1.0191
B(  3-C ,  4-C ) :   1.6002 B(  3-C ,  5-H ) :   0.9897 B(  4-C , 20-C ) :   1.0108
B(  6-C ,  7-H ) :   0.9460 B(  6-C ,  8-H ) :   0.9391 B(  6-C ,  9-C ) :   1.0642
B(  9-C , 10-H ) :   0.9592 B(  9-C , 11-H ) :   0.9616 B(  9-C , 12-C ) :   1.0741
B( 12-C , 13-H ) :   0.9713 B( 12-C , 14-H ) :   0.9781 B( 12-C , 15-H ) :   0.9754
B( 16-S , 17-C ) :   1.1563 B( 16-S , 20-C ) :   1.1511 B( 17-C , 18-C ) :   1.5912
B( 17-C , 33-H ) :   0.9661 B( 18-C , 19-C ) :   1.2332 B( 18-C , 21-H ) :   0.9874
B( 19-C , 20-C ) :   1.6270 B( 19-C , 22-C ) :   1.0487 B( 22-C , 23-H ) :   0.9254
B( 22-C , 24-H ) :   0.9275 B( 22-C , 25-C ) :   1.0933 B( 25-C , 26-H ) :   0.9455
B( 25-C , 27-H ) :   0.9469 B( 25-C , 28-C ) :   1.0851 B( 28-C , 29-H ) :   0.9671
B( 28-C , 30-H ) :   0.9677 B( 28-C , 31-H ) :   0.9699

Dispersion correction           -0.015835989
FINAL SINGLE POINT ENERGY     -1339.877375581364

DIPOLE MOMENT
-------------
                                X             Y             Z
Electronic contribution:    -13.91113     -17.36295      -3.35534
Nuclear contribution   :     14.32164      17.59941       3.60198
                        -----------------------------------------
Total Dipole Moment    :      0.41051       0.23646       0.24665
                        -----------------------------------------
Magnitude (a.u.)       :      0.53411
Magnitude (Debye)      :      1.35760

Rotational constants in cm-1:     0.019508     0.009186     0.008141
Rotational constants in MHz :   584.847780   275.390698   244.049463

                             ****ORCA TERMINATED NORMALLY****
TOTAL RUN TIME: 0 days 0 hours 0 minutes 35 seconds 861 msec
