                         Program Version 4.2.1 -  RELEASE  -
|  1> ! wB97X-D3 SP def2-SVP
|  2> %pal
|  3> nprocs 16
|  4> end
|  5>
|  6> * xyz 0 1
|  7> S 	 -70.3635 	 37.3002 	 136.37
|  8> C 	 -69.1928 	 38.3035 	 135.423
|  9> C 	 -67.8978 	 37.7118 	 135.451
| 10> C 	 -67.9048 	 36.4605 	 136.143
| 11> C 	 -69.1391 	 36.0135 	 136.542
| 12> H 	 -66.9743 	 35.8835 	 136.367
| 13> C 	 -66.7097 	 38.2728 	 134.746
| 14> H 	 -67.0019 	 38.8108 	 133.809
| 15> H 	 -66.1267 	 37.4744 	 134.371
| 16> C 	 -65.6267 	 38.929 	 135.558
| 17> H 	 -65.1103 	 39.6774 	 134.962
| 18> H 	 -66.2215 	 39.5055 	 136.311
| 19> C 	 -64.7092 	 38.1769 	 136.503
| 20> H 	 -64.0764 	 37.3612 	 136.037
| 21> H 	 -64.0227 	 38.9733 	 136.948
| 22> H 	 -65.2391 	 37.7459 	 137.321
| 23> S 	 -69.2677 	 34.9361 	 139.105
| 24> C 	 -69.6983 	 33.2436 	 139.316
| 25> C 	 -69.9644 	 32.7054 	 138.056
| 26> C 	 -69.7177 	 33.5171 	 136.949
| 27> C 	 -69.3948 	 34.8118 	 137.364
| 28> H 	 -70.1547 	 31.5698 	 138.07
| 29> C 	 -69.8323 	 33.0387 	 135.499
| 30> H 	 -70.3562 	 33.8217 	 134.993
| 31> H 	 -70.5254 	 32.1934 	 135.302
| 32> C 	 -68.542 	 32.7842 	 134.763
| 33> H 	 -67.9086 	 33.5707 	 135.162
| 34> H 	 -68.6623 	 32.945 	 133.623
| 35> C 	 -67.7733 	 31.4336 	 134.842
| 36> H 	 -67.5904 	 31.0687 	 135.833
| 37> H 	 -66.8513 	 31.6645 	 134.298
| 38> H 	 -68.3661 	 30.6526 	 134.346
| 39> H 	 -69.4482 	 39.2433 	 134.832
| 40> H 	 -69.839 	 32.665 	 140.185
| 41> *
| 42>
| 43>                          ****END OF INPUT****

CARTESIAN COORDINATES (ANGSTROEM)
---------------------------------
  S    -70.363500   37.300200  136.370000
  C    -69.192800   38.303500  135.423000
  C    -67.897800   37.711800  135.451000
  C    -67.904800   36.460500  136.143000
  C    -69.139100   36.013500  136.542000
  H    -66.974300   35.883500  136.367000
  C    -66.709700   38.272800  134.746000
  H    -67.001900   38.810800  133.809000
  H    -66.126700   37.474400  134.371000
  C    -65.626700   38.929000  135.558000
  H    -65.110300   39.677400  134.962000
  H    -66.221500   39.505500  136.311000
  C    -64.709200   38.176900  136.503000
  H    -64.076400   37.361200  136.037000
  H    -64.022700   38.973300  136.948000
  H    -65.239100   37.745900  137.321000
  S    -69.267700   34.936100  139.105000
  C    -69.698300   33.243600  139.316000
  C    -69.964400   32.705400  138.056000
  C    -69.717700   33.517100  136.949000
  C    -69.394800   34.811800  137.364000
  H    -70.154700   31.569800  138.070000
  C    -69.832300   33.038700  135.499000
  H    -70.356200   33.821700  134.993000
  H    -70.525400   32.193400  135.302000
  C    -68.542000   32.784200  134.763000
  H    -67.908600   33.570700  135.162000
  H    -68.662300   32.945000  133.623000
  C    -67.773300   31.433600  134.842000
  H    -67.590400   31.068700  135.833000
  H    -66.851300   31.664500  134.298000
  H    -68.366100   30.652600  134.346000
  H    -69.448200   39.243300  134.832000
  H    -69.839000   32.665000  140.185000

 Total Charge           Charge          ....    0
 Multiplicity           Mult            ....    1
 Number of Electrons    NEL             ....  134
 Basis Dimension        Dim             ....  322

ORBITAL ENERGIES
----------------

  NO   OCC          E(Eh)            E(eV)
   0   2.0000     -88.970279     -2421.0044
   1   2.0000     -88.969923     -2420.9947
   2   2.0000     -10.333414      -281.1865
   3   2.0000     -10.330375      -281.1038
   4   2.0000     -10.329070      -281.0683
   5   2.0000     -10.315987      -280.7123
   6   2.0000     -10.307599      -280.4840
   7   2.0000     -10.304911      -280.4109
   8   2.0000     -10.300998      -280.3044
   9   2.0000     -10.295733      -280.1611
  10   2.0000     -10.288778      -279.9719
  11   2.0000     -10.288530      -279.9651
  12   2.0000     -10.287119      -279.9268
  13   2.0000     -10.286733      -279.9162
  14   2.0000     -10.286046      -279.8975
  15   2.0000     -10.276245      -279.6308
  16   2.0000      -8.084387      -219.9873
  17   2.0000      -8.082928      -219.9477
  18   2.0000      -6.042834      -164.4339
  19   2.0000      -6.041574      -164.3996
  20   2.0000      -6.038885      -164.3264
  21   2.0000      -6.037741      -164.2953
  22   2.0000      -6.035336      -164.2299
  23   2.0000      -6.033564      -164.1816
  24   2.0000      -1.003105       -27.2959
  25   2.0000      -0.978891       -26.6370
  26   2.0000      -0.917361       -24.9627
  27   2.0000      -0.905537       -24.6409
  28   2.0000      -0.864605       -23.5271
  29   2.0000      -0.847487       -23.0613
  30   2.0000      -0.845089       -22.9960
  31   2.0000      -0.814202       -22.1556
  32   2.0000      -0.788789       -21.4640
  33   2.0000      -0.776172       -21.1207
  34   2.0000      -0.704134       -19.1605
  35   2.0000      -0.695359       -18.9217
  36   2.0000      -0.683221       -18.5914
  37   2.0000      -0.654552       -17.8113
  38   2.0000      -0.637266       -17.3409
  39   2.0000      -0.616355       -16.7719
  40   2.0000      -0.596164       -16.2224
  41   2.0000      -0.574019       -15.6199
  42   2.0000      -0.552076       -15.0227
  43   2.0000      -0.550306       -14.9746
  44   2.0000      -0.542982       -14.7753
  45   2.0000      -0.538060       -14.6414
  46   2.0000      -0.515953       -14.0398
  47   2.0000      -0.509363       -13.8605
  48   2.0000      -0.501689       -13.6516
  49   2.0000      -0.495992       -13.4966
  50   2.0000      -0.483477       -13.1561
  51   2.0000      -0.481455       -13.1010
  52   2.0000      -0.473606       -12.8875
  53   2.0000      -0.471170       -12.8212
  54   2.0000      -0.458790       -12.4843
  55   2.0000      -0.444750       -12.1023
  56   2.0000      -0.439713       -11.9652
  57   2.0000      -0.435794       -11.8586
  58   2.0000      -0.430829       -11.7235
  59   2.0000      -0.425523       -11.5791
  60   2.0000      -0.414105       -11.2684
  61   2.0000      -0.405993       -11.0476
  62   2.0000      -0.397288       -10.8108
  63   2.0000      -0.339952        -9.2506
  64   2.0000      -0.330334        -8.9888
  65   2.0000      -0.317849        -8.6491
  66   2.0000      -0.311914        -8.4876
  67   0.0000       0.038074         1.0360
  68   0.0000       0.042689         1.1616
  69   0.0000       0.109701         2.9851
  70   0.0000       0.116417         3.1679
  71   0.0000       0.125045         3.4027

MULLIKEN ATOMIC CHARGES
-----------------------
   0 S :    0.106266
   1 C :   -0.151249
   2 C :   -0.093064
   3 C :    0.036360
   4 C :   -0.167064
   5 H :    0.041316
   6 C :    0.089991
   7 H :    0.035863
   8 H :    0.002106
   9 C :   -0.090187
  10 H :    0.033291
  11 H :    0.020331
  12 C :   -0.069523
  13 H :    0.037034
  14 H :    0.049168
  15 H :    0.036684
  16 S :    0.131609
  17 C :   -0.085294
  18 C :   -0.082125
  19 C :   -0.004903
  20 C :   -0.201321
  21 H :    0.043380
  22 C :    0.114326
  23 H :    0.021024
  24 H :    0.018524
  25 C :   -0.119905
  26 H :    0.018772
  27 H :    0.039510
  28 C :   -0.031899
  29 H :    0.028167
  30 H :    0.042590
  31 H :    0.029365
  32 H :    0.079486
  33 H :    0.041372
Sum of atomic charges:    0.0000000

LOEWDIN ATOMIC CHARGES
----------------------
   0 S :    0.374087
   1 C :   -0.189311
   2 C :   -0.063048
   3 C :   -0.059233
   4 C :   -0.191562
   5 H :    0.040798
   6 C :   -0.044805
   7 H :    0.041872
   8 H :    0.025994
   9 C :   -0.051896
  10 H :    0.026411
  11 H :    0.029490
  12 C :   -0.071064
  13 H :    0.023667
  14 H :    0.042703
  15 H :    0.020618
  16 S :    0.417053
  17 C :   -0.187418
  18 C :   -0.081973
  19 C :   -0.055684
  20 C :   -0.206826
  21 H :    0.043032
  22 C :   -0.036554
  23 H :    0.034942
  24 H :    0.031544
  25 C :   -0.048432
  26 H :    0.020158
  27 H :    0.035045
  28 C :   -0.064171
  29 H :    0.018445
  30 H :    0.032739
  31 H :    0.023690
  32 H :    0.044972
  33 H :    0.024718

  Mayer bond orders larger than 0.100000
B(  0-S ,  1-C ) :   1.1333 B(  0-S ,  4-C ) :   1.1347 B(  1-C ,  2-C ) :   1.5979
B(  1-C ,  4-C ) :   0.1028 B(  1-C , 32-H ) :   0.9591 B(  2-C ,  3-C ) :   1.2384
B(  2-C ,  6-C ) :   1.0419 B(  3-C ,  4-C ) :   1.6005 B(  3-C ,  5-H ) :   0.9761
B(  4-C , 20-C ) :   1.0085 B(  6-C ,  7-H ) :   0.9397 B(  6-C ,  8-H ) :   0.9314
B(  6-C ,  9-C ) :   1.0492 B(  9-C , 10-H ) :   0.9576 B(  9-C , 11-H ) :   0.9522
B(  9-C , 12-C ) :   1.0810 B( 12-C , 13-H ) :   0.9725 B( 12-C , 14-H ) :   0.9694
B( 12-C , 15-H ) :   0.9728 B( 16-S , 17-C ) :   1.1538 B( 16-S , 20-C ) :   1.1681
B( 17-C , 18-C ) :   1.6032 B( 17-C , 20-C ) :   0.1124 B( 17-C , 33-H ) :   0.9718
B( 18-C , 19-C ) :   1.2798 B( 18-C , 21-H ) :   0.9711 B( 19-C , 20-C ) :   1.5652
B( 19-C , 22-C ) :   1.0380 B( 22-C , 23-H ) :   0.9136 B( 22-C , 24-H ) :   0.9413
B( 22-C , 25-C ) :   1.0697 B( 25-C , 26-H ) :   0.9542 B( 25-C , 27-H ) :   0.9551
B( 25-C , 28-C ) :   1.0765 B( 28-C , 29-H ) :   0.9769 B( 28-C , 30-H ) :   0.9737
B( 28-C , 31-H ) :   0.9749

Dispersion correction           -0.014603049
FINAL SINGLE POINT ENERGY     -1339.855340392535

DIPOLE MOMENT
-------------
                                X             Y             Z
Electronic contribution:    -19.11321       4.93932      14.36731
Nuclear contribution   :     19.53149      -5.04251     -14.68685
                        -----------------------------------------
Total Dipole Moment    :      0.41827      -0.10319      -0.31955
                        -----------------------------------------
Magnitude (a.u.)       :      0.53639
Magnitude (Debye)      :      1.36339

Rotational constants in cm-1:     0.017471     0.008542     0.007622
Rotational constants in MHz :   523.766763   256.080297   228.515108

                             ****ORCA TERMINATED NORMALLY****
TOTAL RUN TIME: 0 days 0 hours 0 minutes 33 seconds 289 msec
