                         Program Version 4.2.1 -  RELEASE  -
|  1> ! wB97X-D3 SP def2-SVP
|  2> %pal
|  3> nprocs 16
|  4> end
|  5>
|  6> * xyz 0 1
|  7> S 	 -57.5287 	 25.578 	 95.6954
|  8> C 	 -56.1785 	 24.5249 	 96.0933
|  9> C 	 -55.6442 	 23.9518 	 94.9252
| 10> C 	 -56.4711 	 24.2295 	 93.7929
| 11> C 	 -57.5262 	 25.1015 	 94.0066
| 12> H 	 -56.3192 	 23.8267 	 92.8404
| 13> C 	 -54.3529 	 23.1549 	 94.8497
| 14> H 	 -53.6651 	 23.6361 	 95.5956
| 15> H 	 -53.6991 	 23.2019 	 93.9334
| 16> C 	 -54.5888 	 21.5997 	 95.001
| 17> H 	 -54.9186 	 21.2858 	 95.9693
| 18> H 	 -55.3853 	 21.4581 	 94.2588
| 19> C 	 -53.331 	 20.7446 	 94.7089
| 20> H 	 -52.5007 	 21.0943 	 95.2785
| 21> H 	 -53.4429 	 19.6835 	 94.9054
| 22> H 	 -52.9968 	 20.7961 	 93.6932
| 23> S 	 -60.2596 	 25.3442 	 93.476
| 24> C 	 -60.6918 	 26.128 	 92.0004
| 25> C 	 -59.6027 	 26.5699 	 91.3013
| 26> C 	 -58.3691 	 26.2048 	 91.8986
| 27> C 	 -58.5843 	 25.5236 	 93.0932
| 28> H 	 -59.7081 	 27.1459 	 90.3854
| 29> C 	 -57.0792 	 26.7284 	 91.2473
| 30> H 	 -57.312 	 27.3149 	 90.3669
| 31> H 	 -56.3608 	 25.9177 	 91.0083
| 32> C 	 -56.3656 	 27.7743 	 92.1346
| 33> H 	 -56.3303 	 27.4693 	 93.143
| 34> H 	 -56.8477 	 28.745 	 92.1451
| 35> C 	 -54.9096 	 28.0781 	 91.6291
| 36> H 	 -54.2668 	 27.2195 	 91.9163
| 37> H 	 -54.5211 	 29.049 	 92.0662
| 38> H 	 -54.8904 	 28.0444 	 90.5472
| 39> H 	 -55.8105 	 24.325 	 97.0913
| 40> H 	 -61.7845 	 26.3003 	 91.7609
| 41> *
| 42>
| 43>                          ****END OF INPUT****

CARTESIAN COORDINATES (ANGSTROEM)
---------------------------------
  S    -57.528700   25.578000   95.695400
  C    -56.178500   24.524900   96.093300
  C    -55.644200   23.951800   94.925200
  C    -56.471100   24.229500   93.792900
  C    -57.526200   25.101500   94.006600
  H    -56.319200   23.826700   92.840400
  C    -54.352900   23.154900   94.849700
  H    -53.665100   23.636100   95.595600
  H    -53.699100   23.201900   93.933400
  C    -54.588800   21.599700   95.001000
  H    -54.918600   21.285800   95.969300
  H    -55.385300   21.458100   94.258800
  C    -53.331000   20.744600   94.708900
  H    -52.500700   21.094300   95.278500
  H    -53.442900   19.683500   94.905400
  H    -52.996800   20.796100   93.693200
  S    -60.259600   25.344200   93.476000
  C    -60.691800   26.128000   92.000400
  C    -59.602700   26.569900   91.301300
  C    -58.369100   26.204800   91.898600
  C    -58.584300   25.523600   93.093200
  H    -59.708100   27.145900   90.385400
  C    -57.079200   26.728400   91.247300
  H    -57.312000   27.314900   90.366900
  H    -56.360800   25.917700   91.008300
  C    -56.365600   27.774300   92.134600
  H    -56.330300   27.469300   93.143000
  H    -56.847700   28.745000   92.145100
  C    -54.909600   28.078100   91.629100
  H    -54.266800   27.219500   91.916300
  H    -54.521100   29.049000   92.066200
  H    -54.890400   28.044400   90.547200
  H    -55.810500   24.325000   97.091300
  H    -61.784500   26.300300   91.760900

 Total Charge           Charge          ....    0
 Multiplicity           Mult            ....    1
 Number of Electrons    NEL             ....  134
 Basis Dimension        Dim             ....  322

ORBITAL ENERGIES
----------------

  NO   OCC          E(Eh)            E(eV)
   0   2.0000     -88.969931     -2420.9949
   1   2.0000     -88.966848     -2420.9110
   2   2.0000     -10.328972      -281.0656
   3   2.0000     -10.325625      -280.9745
   4   2.0000     -10.319293      -280.8022
   5   2.0000     -10.317736      -280.7599
   6   2.0000     -10.305683      -280.4319
   7   2.0000     -10.303988      -280.3858
   8   2.0000     -10.302003      -280.3317
   9   2.0000     -10.296672      -280.1867
  10   2.0000     -10.291703      -280.0515
  11   2.0000     -10.289607      -279.9944
  12   2.0000     -10.289460      -279.9904
  13   2.0000     -10.280942      -279.7586
  14   2.0000     -10.276702      -279.6433
  15   2.0000     -10.273800      -279.5643
  16   2.0000      -8.085383      -220.0145
  17   2.0000      -8.081069      -219.8971
  18   2.0000      -6.043744      -164.4586
  19   2.0000      -6.039800      -164.3513
  20   2.0000      -6.039588      -164.3456
  21   2.0000      -6.036259      -164.2550
  22   2.0000      -6.035523      -164.2349
  23   2.0000      -6.031977      -164.1384
  24   2.0000      -1.009825       -27.4787
  25   2.0000      -0.984876       -26.7998
  26   2.0000      -0.905666       -24.6444
  27   2.0000      -0.904493       -24.6125
  28   2.0000      -0.867373       -23.6024
  29   2.0000      -0.850827       -23.1522
  30   2.0000      -0.845343       -23.0030
  31   2.0000      -0.812243       -22.1023
  32   2.0000      -0.780120       -21.2281
  33   2.0000      -0.768267       -20.9056
  34   2.0000      -0.705322       -19.1928
  35   2.0000      -0.700287       -19.0558
  36   2.0000      -0.688194       -18.7267
  37   2.0000      -0.662513       -18.0279
  38   2.0000      -0.643050       -17.4983
  39   2.0000      -0.620794       -16.8927
  40   2.0000      -0.600010       -16.3271
  41   2.0000      -0.570848       -15.5336
  42   2.0000      -0.564742       -15.3674
  43   2.0000      -0.555968       -15.1287
  44   2.0000      -0.524236       -14.2652
  45   2.0000      -0.520926       -14.1751
  46   2.0000      -0.513124       -13.9628
  47   2.0000      -0.504247       -13.7213
  48   2.0000      -0.500213       -13.6115
  49   2.0000      -0.497752       -13.5445
  50   2.0000      -0.493297       -13.4233
  51   2.0000      -0.485209       -13.2032
  52   2.0000      -0.472904       -12.8684
  53   2.0000      -0.461019       -12.5450
  54   2.0000      -0.458100       -12.4655
  55   2.0000      -0.449563       -12.2332
  56   2.0000      -0.444275       -12.0893
  57   2.0000      -0.437149       -11.8954
  58   2.0000      -0.430250       -11.7077
  59   2.0000      -0.425781       -11.5861
  60   2.0000      -0.422896       -11.5076
  61   2.0000      -0.418471       -11.3872
  62   2.0000      -0.410698       -11.1757
  63   2.0000      -0.344212        -9.3665
  64   2.0000      -0.334852        -9.1118
  65   2.0000      -0.328103        -8.9281
  66   2.0000      -0.294134        -8.0038
  67   0.0000       0.029688         0.8078
  68   0.0000       0.068737         1.8704
  69   0.0000       0.108969         2.9652
  70   0.0000       0.122687         3.3385
  71   0.0000       0.137977         3.7545

MULLIKEN ATOMIC CHARGES
-----------------------
   0 S :    0.110140
   1 C :   -0.124230
   2 C :   -0.070614
   3 C :    0.064097
   4 C :   -0.181799
   5 H :   -0.014957
   6 C :    0.001268
   7 H :    0.033000
   8 H :    0.034244
   9 C :   -0.057350
  10 H :    0.027786
  11 H :    0.033415
  12 C :   -0.035860
  13 H :    0.021962
  14 H :    0.036198
  15 H :    0.019165
  16 S :    0.134748
  17 C :   -0.121649
  18 C :   -0.029158
  19 C :   -0.019630
  20 C :   -0.164780
  21 H :    0.020873
  22 C :    0.082508
  23 H :    0.020964
  24 H :    0.036762
  25 C :   -0.079899
  26 H :    0.032067
  27 H :    0.025544
  28 C :   -0.074671
  29 H :    0.033709
  30 H :    0.051838
  31 H :    0.023516
  32 H :    0.051469
  33 H :    0.079325
Sum of atomic charges:   -0.0000000

LOEWDIN ATOMIC CHARGES
----------------------
   0 S :    0.402585
   1 C :   -0.194201
   2 C :   -0.062241
   3 C :   -0.058794
   4 C :   -0.190952
   5 H :    0.020138
   6 C :   -0.043608
   7 H :    0.032003
   8 H :    0.036276
   9 C :   -0.032640
  10 H :    0.019315
  11 H :    0.026994
  12 C :   -0.067653
  13 H :    0.022159
  14 H :    0.028419
  15 H :    0.019856
  16 S :    0.433055
  17 C :   -0.199417
  18 C :   -0.074200
  19 C :   -0.048948
  20 C :   -0.218413
  21 H :    0.033491
  22 C :   -0.025809
  23 H :    0.030841
  24 H :    0.033163
  25 C :   -0.036194
  26 H :    0.015008
  27 H :    0.021937
  28 C :   -0.070493
  29 H :    0.025995
  30 H :    0.034019
  31 H :    0.018314
  32 H :    0.029105
  33 H :    0.040887

  Mayer bond orders larger than 0.100000
B(  0-S ,  1-C ) :   1.1495 B(  0-S ,  4-C ) :   1.1459 B(  1-C ,  2-C ) :   1.5858
B(  1-C ,  4-C ) :   0.1017 B(  1-C , 32-H ) :   0.9703 B(  2-C ,  3-C ) :   1.2504
B(  2-C ,  6-C ) :   1.0209 B(  3-C ,  4-C ) :   1.5755 B(  3-C ,  5-H ) :   1.0030
B(  4-C , 20-C ) :   1.0369 B(  6-C ,  7-H ) :   0.9422 B(  6-C ,  8-H ) :   0.9556
B(  6-C ,  9-C ) :   1.0349 B(  9-C , 10-H ) :   0.9614 B(  9-C , 11-H ) :   0.9614
B(  9-C , 12-C ) :   1.0795 B( 12-C , 13-H ) :   0.9736 B( 12-C , 14-H ) :   0.9757
B( 12-C , 15-H ) :   0.9730 B( 16-S , 17-C ) :   1.1678 B( 16-S , 20-C ) :   1.1584
B( 17-C , 18-C ) :   1.5867 B( 17-C , 33-H ) :   0.9591 B( 18-C , 19-C ) :   1.2773
B( 18-C , 21-H ) :   0.9904 B( 19-C , 20-C ) :   1.5641 B( 19-C , 22-C ) :   1.0367
B( 22-C , 23-H ) :   0.9351 B( 22-C , 24-H ) :   0.9379 B( 22-C , 25-C ) :   1.0558
B( 25-C , 26-H ) :   0.9625 B( 25-C , 27-H ) :   0.9583 B( 25-C , 28-C ) :   1.0720
B( 28-C , 29-H ) :   0.9771 B( 28-C , 30-H ) :   0.9758 B( 28-C , 31-H ) :   0.9743

Dispersion correction           -0.014265105
FINAL SINGLE POINT ENERGY     -1339.884755725099

DIPOLE MOMENT
-------------
                                X             Y             Z
Electronic contribution:    -26.40802       5.26198       7.84384
Nuclear contribution   :     26.76674      -5.30188      -8.17545
                        -----------------------------------------
Total Dipole Moment    :      0.35872      -0.03990      -0.33161
                        -----------------------------------------
Magnitude (a.u.)       :      0.49014
Magnitude (Debye)      :      1.24584

Rotational constants in cm-1:     0.018660     0.008081     0.006877
Rotational constants in MHz :   559.414430   242.263761   206.168127

                             ****ORCA TERMINATED NORMALLY****
TOTAL RUN TIME: 0 days 0 hours 0 minutes 28 seconds 398 msec
