                         Program Version 4.2.1 -  RELEASE  -
|  1> ! wB97X-D3 SP def2-SVP
|  2> %pal
|  3> nprocs 16
|  4> end
|  5>
|  6> * xyz 0 1
|  7> S 	 -0.400593 	 -7.00497 	 89.9033
|  8> C 	 0.880103 	 -7.20145 	 91.1315
|  9> C 	 0.366125 	 -7.35895 	 92.3766
| 10> C 	 -1.01246 	 -7.31024 	 92.3901
| 11> C 	 -1.61317 	 -7.24354 	 91.1283
| 12> H 	 -1.58463 	 -7.39427 	 93.3239
| 13> C 	 1.22147 	 -7.51249 	 93.637
| 14> H 	 0.737476 	 -7.01092 	 94.4935
| 15> H 	 2.0215 	 -6.80017 	 93.5314
| 16> C 	 1.66258 	 -8.94301 	 94.0177
| 17> H 	 2.27818 	 -8.99474 	 94.9368
| 18> H 	 0.671098 	 -9.30664 	 94.2339
| 19> C 	 2.50876 	 -9.7266 	 93.0377
| 20> H 	 2.06616 	 -9.90916 	 92.0509
| 21> H 	 3.46844 	 -9.15479 	 92.9742
| 22> H 	 2.70116 	 -10.7323 	 93.4531
| 23> S 	 -3.51355 	 -5.86355 	 89.8069
| 24> C 	 -5.21562 	 -6.49101 	 89.7568
| 25> C 	 -5.33583 	 -7.6397 	 90.5517
| 26> C 	 -4.098 	 -7.91195 	 91.2561
| 27> C 	 -3.02689 	 -7.1444 	 90.8421
| 28> H 	 -6.30872 	 -8.14021 	 90.5508
| 29> C 	 -4.10214 	 -9.06423 	 92.2228
| 30> H 	 -3.25592 	 -9.75311 	 92.0466
| 31> H 	 -4.92617 	 -9.6733 	 92.0193
| 32> C 	 -4.3277 	 -8.73579 	 93.6973
| 33> H 	 -5.18443 	 -8.02794 	 93.7694
| 34> H 	 -3.45156 	 -8.17851 	 94.1082
| 35> C 	 -4.72208 	 -9.90473 	 94.5737
| 36> H 	 -5.30867 	 -9.4725 	 95.4097
| 37> H 	 -3.84453 	 -10.4284 	 95.0199
| 38> H 	 -5.4335 	 -10.6319 	 94.1168
| 39> H 	 1.8911 	 -7.20522 	 90.9067
| 40> H 	 -6.06731 	 -6.106 	 89.1906
| 41> *
| 42>
| 43>                          ****END OF INPUT****

CARTESIAN COORDINATES (ANGSTROEM)
---------------------------------
  S     -0.400593   -7.004970   89.903300
  C      0.880103   -7.201450   91.131500
  C      0.366125   -7.358950   92.376600
  C     -1.012460   -7.310240   92.390100
  C     -1.613170   -7.243540   91.128300
  H     -1.584630   -7.394270   93.323900
  C      1.221470   -7.512490   93.637000
  H      0.737476   -7.010920   94.493500
  H      2.021500   -6.800170   93.531400
  C      1.662580   -8.943010   94.017700
  H      2.278180   -8.994740   94.936800
  H      0.671098   -9.306640   94.233900
  C      2.508760   -9.726600   93.037700
  H      2.066160   -9.909160   92.050900
  H      3.468440   -9.154790   92.974200
  H      2.701160  -10.732300   93.453100
  S     -3.513550   -5.863550   89.806900
  C     -5.215620   -6.491010   89.756800
  C     -5.335830   -7.639700   90.551700
  C     -4.098000   -7.911950   91.256100
  C     -3.026890   -7.144400   90.842100
  H     -6.308720   -8.140210   90.550800
  C     -4.102140   -9.064230   92.222800
  H     -3.255920   -9.753110   92.046600
  H     -4.926170   -9.673300   92.019300
  C     -4.327700   -8.735790   93.697300
  H     -5.184430   -8.027940   93.769400
  H     -3.451560   -8.178510   94.108200
  C     -4.722080   -9.904730   94.573700
  H     -5.308670   -9.472500   95.409700
  H     -3.844530  -10.428400   95.019900
  H     -5.433500  -10.631900   94.116800
  H      1.891100   -7.205220   90.906700
  H     -6.067310   -6.106000   89.190600

 Total Charge           Charge          ....    0
 Multiplicity           Mult            ....    1
 Number of Electrons    NEL             ....  134
 Basis Dimension        Dim             ....  322

ORBITAL ENERGIES
----------------

  NO   OCC          E(Eh)            E(eV)
   0   2.0000     -88.969777     -2420.9907
   1   2.0000     -88.966356     -2420.8976
   2   2.0000     -10.330397      -281.1044
   3   2.0000     -10.324813      -280.9524
   4   2.0000     -10.322687      -280.8946
   5   2.0000     -10.309386      -280.5327
   6   2.0000     -10.303788      -280.3803
   7   2.0000     -10.300333      -280.2863
   8   2.0000     -10.295021      -280.1418
   9   2.0000     -10.292641      -280.0770
  10   2.0000     -10.291599      -280.0487
  11   2.0000     -10.289422      -279.9894
  12   2.0000     -10.288618      -279.9675
  13   2.0000     -10.284626      -279.8589
  14   2.0000     -10.282788      -279.8089
  15   2.0000     -10.282697      -279.8064
  16   2.0000      -8.084049      -219.9782
  17   2.0000      -8.080644      -219.8855
  18   2.0000      -6.042550      -164.4261
  19   2.0000      -6.039343      -164.3389
  20   2.0000      -6.038597      -164.3186
  21   2.0000      -6.035184      -164.2257
  22   2.0000      -6.034863      -164.2170
  23   2.0000      -6.031241      -164.1184
  24   2.0000      -1.009209       -27.4620
  25   2.0000      -0.982992       -26.7486
  26   2.0000      -0.913319       -24.8527
  27   2.0000      -0.908835       -24.7307
  28   2.0000      -0.871329       -23.7101
  29   2.0000      -0.850563       -23.1450
  30   2.0000      -0.847537       -23.0627
  31   2.0000      -0.814486       -22.1633
  32   2.0000      -0.787051       -21.4167
  33   2.0000      -0.772658       -21.0251
  34   2.0000      -0.709210       -19.2986
  35   2.0000      -0.696409       -18.9502
  36   2.0000      -0.689963       -18.7749
  37   2.0000      -0.663916       -18.0661
  38   2.0000      -0.640031       -17.4161
  39   2.0000      -0.622655       -16.9433
  40   2.0000      -0.592472       -16.1220
  41   2.0000      -0.574716       -15.6388
  42   2.0000      -0.565138       -15.3782
  43   2.0000      -0.556551       -15.1445
  44   2.0000      -0.541839       -14.7442
  45   2.0000      -0.523378       -14.2418
  46   2.0000      -0.516327       -14.0500
  47   2.0000      -0.510814       -13.9000
  48   2.0000      -0.506899       -13.7934
  49   2.0000      -0.500626       -13.6227
  50   2.0000      -0.488394       -13.2899
  51   2.0000      -0.476784       -12.9740
  52   2.0000      -0.475047       -12.9267
  53   2.0000      -0.462310       -12.5801
  54   2.0000      -0.458546       -12.4777
  55   2.0000      -0.451361       -12.2822
  56   2.0000      -0.442462       -12.0400
  57   2.0000      -0.434153       -11.8139
  58   2.0000      -0.427216       -11.6251
  59   2.0000      -0.423674       -11.5288
  60   2.0000      -0.418606       -11.3908
  61   2.0000      -0.415384       -11.3032
  62   2.0000      -0.410385       -11.1671
  63   2.0000      -0.348621        -9.4864
  64   2.0000      -0.339236        -9.2311
  65   2.0000      -0.328690        -8.9441
  66   2.0000      -0.288480        -7.8499
  67   0.0000       0.024873         0.6768
  68   0.0000       0.070177         1.9096
  69   0.0000       0.105514         2.8712
  70   0.0000       0.124582         3.3901
  71   0.0000       0.125124         3.4048

MULLIKEN ATOMIC CHARGES
-----------------------
   0 S :    0.112849
   1 C :   -0.108206
   2 C :   -0.066555
   3 C :    0.027295
   4 C :   -0.144518
   5 H :    0.000328
   6 C :    0.061082
   7 H :    0.021388
   8 H :    0.008572
   9 C :   -0.050247
  10 H :    0.035682
  11 H :    0.019074
  12 C :   -0.061571
  13 H :    0.044414
  14 H :    0.036197
  15 H :    0.038933
  16 S :    0.102190
  17 C :   -0.107726
  18 C :   -0.045082
  19 C :   -0.040843
  20 C :   -0.135567
  21 H :    0.035652
  22 C :    0.108885
  23 H :    0.034500
  24 H :   -0.020527
  25 C :   -0.094040
  26 H :    0.026871
  27 H :    0.031999
  28 C :   -0.065708
  29 H :    0.034781
  30 H :    0.045174
  31 H :    0.036854
  32 H :    0.017363
  33 H :    0.060506
Sum of atomic charges:    0.0000000

LOEWDIN ATOMIC CHARGES
----------------------
   0 S :    0.403768
   1 C :   -0.168296
   2 C :   -0.066991
   3 C :   -0.062815
   4 C :   -0.194624
   5 H :    0.031032
   6 C :   -0.034580
   7 H :    0.034662
   8 H :    0.022133
   9 C :   -0.043976
  10 H :    0.031140
  11 H :    0.020983
  12 C :   -0.069911
  13 H :    0.024765
  14 H :    0.031233
  15 H :    0.031289
  16 S :    0.394879
  17 C :   -0.175746
  18 C :   -0.065849
  19 C :   -0.057121
  20 C :   -0.206196
  21 H :    0.038755
  22 C :   -0.036746
  23 H :    0.033890
  24 H :    0.019578
  25 C :   -0.045432
  26 H :    0.027712
  27 H :    0.022201
  28 C :   -0.074354
  29 H :    0.031758
  30 H :    0.029356
  31 H :    0.028133
  32 H :    0.012761
  33 H :    0.032609

  Mayer bond orders larger than 0.100000
B(  0-S ,  1-C ) :   1.1360 B(  0-S ,  4-C ) :   1.1602 B(  1-C ,  2-C ) :   1.5957
B(  1-C ,  4-C ) :   0.1052 B(  1-C , 32-H ) :   0.9774 B(  2-C ,  3-C ) :   1.2911
B(  2-C ,  6-C ) :   1.0045 B(  3-C ,  4-C ) :   1.5270 B(  3-C ,  5-H ) :   0.9876
B(  4-C , 20-C ) :   1.0561 B(  6-C ,  7-H ) :   0.9430 B(  6-C ,  8-H ) :   0.9381
B(  6-C ,  9-C ) :   1.0530 B(  9-C , 10-H ) :   0.9559 B(  9-C , 11-H ) :   0.9557
B(  9-C , 12-C ) :   1.0817 B( 12-C , 13-H ) :   0.9729 B( 12-C , 14-H ) :   0.9729
B( 12-C , 15-H ) :   0.9721 B( 16-S , 17-C ) :   1.1291 B( 16-S , 20-C ) :   1.1369
B( 17-C , 18-C ) :   1.6402 B( 17-C , 33-H ) :   0.9650 B( 18-C , 19-C ) :   1.2193
B( 18-C , 21-H ) :   0.9853 B( 19-C , 20-C ) :   1.6014 B( 19-C , 22-C ) :   1.0641
B( 22-C , 23-H ) :   0.9284 B( 22-C , 24-H ) :   0.9187 B( 22-C , 25-C ) :   1.0609
B( 25-C , 26-H ) :   0.9554 B( 25-C , 27-H ) :   0.9478 B( 25-C , 28-C ) :   1.0831
B( 28-C , 29-H ) :   0.9761 B( 28-C , 30-H ) :   0.9747 B( 28-C , 31-H ) :   0.9711

Dispersion correction           -0.014299788
FINAL SINGLE POINT ENERGY     -1339.873447318526

DIPOLE MOMENT
-------------
                                X             Y             Z
Electronic contribution:     -4.56814      17.57144     -24.21715
Nuclear contribution   :      4.48731     -17.93194      24.77935
                        -----------------------------------------
Total Dipole Moment    :     -0.08084      -0.36050       0.56220
                        -----------------------------------------
Magnitude (a.u.)       :      0.67272
Magnitude (Debye)      :      1.70993

Rotational constants in cm-1:     0.017849     0.009346     0.006569
Rotational constants in MHz :   535.093494   280.192810   196.935556

                             ****ORCA TERMINATED NORMALLY****
TOTAL RUN TIME: 0 days 0 hours 0 minutes 34 seconds 447 msec
