                         Program Version 4.2.1 -  RELEASE  -
|  1> ! wB97X-D3 SP def2-SVP
|  2> %pal
|  3> nprocs 16
|  4> end
|  5>
|  6> * xyz 0 1
|  7> S 	 -16.6429 	 36.6002 	 36.3616
|  8> C 	 -16.3422 	 35.7546 	 34.8844
|  9> C 	 -15.0082 	 35.5477 	 34.6499
| 10> C 	 -14.2088 	 36.1104 	 35.6773
| 11> C 	 -14.9327 	 36.4872 	 36.8051
| 12> H 	 -13.164 	 36.3182 	 35.6718
| 13> C 	 -14.4614 	 35.241 	 33.2945
| 14> H 	 -13.3947 	 35.3812 	 33.3503
| 15> H 	 -14.757 	 36.0797 	 32.6253
| 16> C 	 -14.7478 	 33.8704 	 32.6733
| 17> H 	 -15.81 	 33.722 	 32.6937
| 18> H 	 -14.3755 	 34.0228 	 31.6743
| 19> C 	 -14.0318 	 32.7453 	 33.4831
| 20> H 	 -14.3469 	 31.7998 	 33.1529
| 21> H 	 -12.977 	 32.9729 	 33.3123
| 22> H 	 -14.1367 	 32.8934 	 34.6493
| 23> S 	 -15.0966 	 38.704 	 38.3496
| 24> C 	 -14.0015 	 38.9975 	 39.7534
| 25> C 	 -13.0776 	 38.0087 	 39.7712
| 26> C 	 -13.2317 	 36.9933 	 38.7661
| 27> C 	 -14.3692 	 37.1836 	 37.9541
| 28> H 	 -12.3132 	 38.1737 	 40.5496
| 29> C 	 -12.2688 	 35.8018 	 38.5755
| 30> H 	 -11.5756 	 36.136 	 37.8225
| 31> H 	 -12.7975 	 34.9724 	 38.1215
| 32> C 	 -11.4326 	 35.3124 	 39.7528
| 33> H 	 -12.0831 	 34.77 	 40.4117
| 34> H 	 -10.9976 	 36.1403 	 40.3534
| 35> C 	 -10.2664 	 34.3578 	 39.4812
| 36> H 	 -9.7632 	 34.1163 	 40.396
| 37> H 	 -9.47408 	 34.7462 	 38.7648
| 38> H 	 -10.5748 	 33.422 	 39.0469
| 39> H 	 -17.0231 	 35.5225 	 34.0248
| 40> H 	 -13.9114 	 39.8965 	 40.3834
| 41> *
| 42>
| 43>                          ****END OF INPUT****

CARTESIAN COORDINATES (ANGSTROEM)
---------------------------------
  S    -16.642900   36.600200   36.361600
  C    -16.342200   35.754600   34.884400
  C    -15.008200   35.547700   34.649900
  C    -14.208800   36.110400   35.677300
  C    -14.932700   36.487200   36.805100
  H    -13.164000   36.318200   35.671800
  C    -14.461400   35.241000   33.294500
  H    -13.394700   35.381200   33.350300
  H    -14.757000   36.079700   32.625300
  C    -14.747800   33.870400   32.673300
  H    -15.810000   33.722000   32.693700
  H    -14.375500   34.022800   31.674300
  C    -14.031800   32.745300   33.483100
  H    -14.346900   31.799800   33.152900
  H    -12.977000   32.972900   33.312300
  H    -14.136700   32.893400   34.649300
  S    -15.096600   38.704000   38.349600
  C    -14.001500   38.997500   39.753400
  C    -13.077600   38.008700   39.771200
  C    -13.231700   36.993300   38.766100
  C    -14.369200   37.183600   37.954100
  H    -12.313200   38.173700   40.549600
  C    -12.268800   35.801800   38.575500
  H    -11.575600   36.136000   37.822500
  H    -12.797500   34.972400   38.121500
  C    -11.432600   35.312400   39.752800
  H    -12.083100   34.770000   40.411700
  H    -10.997600   36.140300   40.353400
  C    -10.266400   34.357800   39.481200
  H     -9.763200   34.116300   40.396000
  H     -9.474080   34.746200   38.764800
  H    -10.574800   33.422000   39.046900
  H    -17.023100   35.522500   34.024800
  H    -13.911400   39.896500   40.383400

 Total Charge           Charge          ....    0
 Multiplicity           Mult            ....    1
 Number of Electrons    NEL             ....  134
 Basis Dimension        Dim             ....  322

ORBITAL ENERGIES
----------------

  NO   OCC          E(Eh)            E(eV)
   0   2.0000     -88.972296     -2421.0593
   1   2.0000     -88.961219     -2420.7578
   2   2.0000     -10.331922      -281.1459
   3   2.0000     -10.329613      -281.0831
   4   2.0000     -10.318642      -280.7845
   5   2.0000     -10.315531      -280.6999
   6   2.0000     -10.310627      -280.5664
   7   2.0000     -10.295772      -280.1622
   8   2.0000     -10.295436      -280.1530
   9   2.0000     -10.294813      -280.1361
  10   2.0000     -10.290227      -280.0113
  11   2.0000     -10.289304      -279.9862
  12   2.0000     -10.287010      -279.9238
  13   2.0000     -10.286119      -279.8995
  14   2.0000     -10.284705      -279.8610
  15   2.0000     -10.279776      -279.7269
  16   2.0000      -8.086582      -220.0471
  17   2.0000      -8.075608      -219.7485
  18   2.0000      -6.045170      -164.4974
  19   2.0000      -6.041233      -164.3903
  20   2.0000      -6.037183      -164.2801
  21   2.0000      -6.034247      -164.2002
  22   2.0000      -6.030128      -164.0881
  23   2.0000      -6.026268      -163.9831
  24   2.0000      -1.009101       -27.4590
  25   2.0000      -0.984637       -26.7933
  26   2.0000      -0.915932       -24.9238
  27   2.0000      -0.905224       -24.6324
  28   2.0000      -0.873935       -23.7810
  29   2.0000      -0.852608       -23.2006
  30   2.0000      -0.842517       -22.9261
  31   2.0000      -0.819179       -22.2910
  32   2.0000      -0.780254       -21.2318
  33   2.0000      -0.771764       -21.0008
  34   2.0000      -0.709198       -19.2983
  35   2.0000      -0.705322       -19.1928
  36   2.0000      -0.697406       -18.9774
  37   2.0000      -0.652356       -17.7515
  38   2.0000      -0.634751       -17.2725
  39   2.0000      -0.612889       -16.6776
  40   2.0000      -0.593233       -16.1427
  41   2.0000      -0.581998       -15.8370
  42   2.0000      -0.565158       -15.3787
  43   2.0000      -0.556891       -15.1538
  44   2.0000      -0.540721       -14.7138
  45   2.0000      -0.526458       -14.3256
  46   2.0000      -0.517274       -14.0757
  47   2.0000      -0.507202       -13.8017
  48   2.0000      -0.501488       -13.6462
  49   2.0000      -0.499326       -13.5874
  50   2.0000      -0.487959       -13.2780
  51   2.0000      -0.479308       -13.0426
  52   2.0000      -0.476009       -12.9529
  53   2.0000      -0.467662       -12.7257
  54   2.0000      -0.462117       -12.5748
  55   2.0000      -0.450392       -12.2558
  56   2.0000      -0.443178       -12.0595
  57   2.0000      -0.436257       -11.8712
  58   2.0000      -0.426875       -11.6159
  59   2.0000      -0.424080       -11.5398
  60   2.0000      -0.420063       -11.4305
  61   2.0000      -0.419722       -11.4212
  62   2.0000      -0.411460       -11.1964
  63   2.0000      -0.356082        -9.6895
  64   2.0000      -0.331614        -9.0237
  65   2.0000      -0.324993        -8.8435
  66   2.0000      -0.287973        -7.8361
  67   0.0000       0.020331         0.5532
  68   0.0000       0.072583         1.9751
  69   0.0000       0.100307         2.7295
  70   0.0000       0.127690         3.4746
  71   0.0000       0.133090         3.6216

MULLIKEN ATOMIC CHARGES
-----------------------
   0 S :    0.122903
   1 C :   -0.115028
   2 C :   -0.075434
   3 C :    0.005783
   4 C :   -0.138503
   5 H :    0.016824
   6 C :    0.000148
   7 H :    0.004322
   8 H :    0.045458
   9 C :   -0.029386
  10 H :    0.021479
  11 H :    0.032696
  12 C :   -0.064771
  13 H :    0.038219
  14 H :    0.026257
  15 H :    0.059029
  16 S :    0.075233
  17 C :   -0.105633
  18 C :   -0.054610
  19 C :   -0.034677
  20 C :   -0.142814
  21 H :    0.031114
  22 C :    0.085152
  23 H :    0.026264
  24 H :    0.029739
  25 C :   -0.083635
  26 H :    0.027684
  27 H :    0.032491
  28 C :   -0.053810
  29 H :    0.030264
  30 H :    0.032679
  31 H :    0.023742
  32 H :    0.064611
  33 H :    0.066208
Sum of atomic charges:   -0.0000000

LOEWDIN ATOMIC CHARGES
----------------------
   0 S :    0.416462
   1 C :   -0.205116
   2 C :   -0.078369
   3 C :   -0.048460
   4 C :   -0.194858
   5 H :    0.028606
   6 C :   -0.037629
   7 H :    0.022791
   8 H :    0.037339
   9 C :   -0.033591
  10 H :    0.016029
  11 H :    0.026178
  12 C :   -0.064933
  13 H :    0.017026
  14 H :    0.025082
  15 H :    0.043083
  16 S :    0.382826
  17 C :   -0.178469
  18 C :   -0.079237
  19 C :   -0.058460
  20 C :   -0.198027
  21 H :    0.039013
  22 C :   -0.033479
  23 H :    0.028642
  24 H :    0.031699
  25 C :   -0.044628
  26 H :    0.024089
  27 H :    0.025994
  28 C :   -0.065254
  29 H :    0.025655
  30 H :    0.028229
  31 H :    0.019801
  32 H :    0.042011
  33 H :    0.039956

  Mayer bond orders larger than 0.100000
B(  0-S ,  1-C ) :   1.1509 B(  0-S ,  4-C ) :   1.1441 B(  1-C ,  2-C ) :   1.5975
B(  1-C , 32-H ) :   0.9548 B(  2-C ,  3-C ) :   1.2535 B(  2-C ,  6-C ) :   1.0227
B(  3-C ,  4-C ) :   1.5419 B(  3-C ,  5-H ) :   0.9947 B(  4-C , 20-C ) :   1.0658
B(  6-C ,  7-H ) :   0.9437 B(  6-C ,  8-H ) :   0.9402 B(  6-C ,  9-C ) :   1.0638
B(  9-C , 10-H ) :   0.9596 B(  9-C , 11-H ) :   0.9547 B(  9-C , 12-C ) :   1.0608
B( 12-C , 13-H ) :   0.9767 B( 12-C , 14-H ) :   0.9755 B( 12-C , 15-H ) :   0.9753
B( 16-S , 17-C ) :   1.1269 B( 16-S , 20-C ) :   1.1446 B( 17-C , 18-C ) :   1.6499
B( 17-C , 33-H ) :   0.9616 B( 18-C , 19-C ) :   1.2216 B( 18-C , 21-H ) :   0.9838
B( 19-C , 20-C ) :   1.5871 B( 19-C , 22-C ) :   1.0334 B( 22-C , 23-H ) :   0.9286
B( 22-C , 24-H ) :   0.9348 B( 22-C , 25-C ) :   1.0683 B( 25-C , 26-H ) :   0.9540
B( 25-C , 27-H ) :   0.9503 B( 25-C , 28-C ) :   1.0929 B( 28-C , 29-H ) :   0.9728
B( 28-C , 30-H ) :   0.9735 B( 28-C , 31-H ) :   0.9747

Dispersion correction           -0.013571644
FINAL SINGLE POINT ENERGY     -1339.862809019337

DIPOLE MOMENT
-------------
                                X             Y             Z
Electronic contribution:    -20.71458      20.53025       7.03715
Nuclear contribution   :     21.36830     -20.65537      -7.38261
                        -----------------------------------------
Total Dipole Moment    :      0.65371      -0.12512      -0.34546
                        -----------------------------------------
Magnitude (a.u.)       :      0.74989
Magnitude (Debye)      :      1.90607

Rotational constants in cm-1:     0.016910     0.008801     0.006116
Rotational constants in MHz :   506.947497   263.858118   183.358869

                             ****ORCA TERMINATED NORMALLY****
TOTAL RUN TIME: 0 days 0 hours 0 minutes 32 seconds 840 msec
