                         Program Version 4.2.1 -  RELEASE  -
|  1> ! wB97X-D3 SP def2-SVP
|  2> %pal
|  3> nprocs 16
|  4> end
|  5>
|  6> * xyz 0 1
|  7> S 	 -99.7885 	 54.6826 	 119.836
|  8> C 	 -99.7356 	 54.5921 	 118.087
|  9> C 	 -100.92 	 54.1825 	 117.559
| 10> C 	 -101.884 	 53.8839 	 118.541
| 11> C 	 -101.397 	 54.046 	 119.791
| 12> H 	 -102.864 	 53.3726 	 118.291
| 13> C 	 -101.316 	 54.1162 	 116.078
| 14> H 	 -102.397 	 53.9035 	 115.869
| 15> H 	 -100.747 	 53.3503 	 115.659
| 16> C 	 -100.977 	 55.3759 	 115.255
| 17> H 	 -99.9653 	 55.6235 	 115.493
| 18> H 	 -101.026 	 55.1292 	 114.178
| 19> C 	 -101.743 	 56.6773 	 115.562
| 20> H 	 -102.774 	 56.4117 	 115.807
| 21> H 	 -101.37 	 57.2194 	 116.459
| 22> H 	 -101.738 	 57.5102 	 114.857
| 23> S 	 -101.078 	 53.164 	 122.334
| 24> C 	 -102.364 	 52.9919 	 123.361
| 25> C 	 -103.608 	 53.2838 	 122.71
| 26> C 	 -103.51 	 53.7367 	 121.373
| 27> C 	 -102.117 	 53.7709 	 121.028
| 28> H 	 -104.475 	 53.3375 	 123.234
| 29> C 	 -104.734 	 54.3691 	 120.659
| 30> H 	 -105.428 	 53.5106 	 120.467
| 31> H 	 -104.684 	 54.8269 	 119.635
| 32> C 	 -105.575 	 55.3186 	 121.486
| 33> H 	 -104.937 	 56.0385 	 121.934
| 34> H 	 -106.172 	 54.8246 	 122.297
| 35> C 	 -106.628 	 56.004 	 120.635
| 36> H 	 -107.018 	 56.8404 	 121.027
| 37> H 	 -107.521 	 55.4235 	 120.388
| 38> H 	 -106.239 	 56.365 	 119.688
| 39> H 	 -98.8042 	 54.6105 	 117.509
| 40> H 	 -102.255 	 52.6826 	 124.349
| 41> *
| 42>
| 43>                          ****END OF INPUT****

CARTESIAN COORDINATES (ANGSTROEM)
---------------------------------
  S    -99.788500   54.682600  119.836000
  C    -99.735600   54.592100  118.087000
  C    -100.920000   54.182500  117.559000
  C    -101.884000   53.883900  118.541000
  C    -101.397000   54.046000  119.791000
  H    -102.864000   53.372600  118.291000
  C    -101.316000   54.116200  116.078000
  H    -102.397000   53.903500  115.869000
  H    -100.747000   53.350300  115.659000
  C    -100.977000   55.375900  115.255000
  H    -99.965300   55.623500  115.493000
  H    -101.026000   55.129200  114.178000
  C    -101.743000   56.677300  115.562000
  H    -102.774000   56.411700  115.807000
  H    -101.370000   57.219400  116.459000
  H    -101.738000   57.510200  114.857000
  S    -101.078000   53.164000  122.334000
  C    -102.364000   52.991900  123.361000
  C    -103.608000   53.283800  122.710000
  C    -103.510000   53.736700  121.373000
  C    -102.117000   53.770900  121.028000
  H    -104.475000   53.337500  123.234000
  C    -104.734000   54.369100  120.659000
  H    -105.428000   53.510600  120.467000
  H    -104.684000   54.826900  119.635000
  C    -105.575000   55.318600  121.486000
  H    -104.937000   56.038500  121.934000
  H    -106.172000   54.824600  122.297000
  C    -106.628000   56.004000  120.635000
  H    -107.018000   56.840400  121.027000
  H    -107.521000   55.423500  120.388000
  H    -106.239000   56.365000  119.688000
  H    -98.804200   54.610500  117.509000
  H    -102.255000   52.682600  124.349000

 Total Charge           Charge          ....    0
 Multiplicity           Mult            ....    1
 Number of Electrons    NEL             ....  134
 Basis Dimension        Dim             ....  322

ORBITAL ENERGIES
----------------

  NO   OCC          E(Eh)            E(eV)
   0   2.0000     -88.968662     -2420.9604
   1   2.0000     -88.965805     -2420.8826
   2   2.0000     -10.329475      -281.0793
   3   2.0000     -10.322279      -280.8835
   4   2.0000     -10.313725      -280.6507
   5   2.0000     -10.311320      -280.5853
   6   2.0000     -10.308314      -280.5035
   7   2.0000     -10.302704      -280.3508
   8   2.0000     -10.295673      -280.1595
   9   2.0000     -10.291656      -280.0502
  10   2.0000     -10.288735      -279.9707
  11   2.0000     -10.287118      -279.9267
  12   2.0000     -10.286453      -279.9086
  13   2.0000     -10.284887      -279.8660
  14   2.0000     -10.275159      -279.6013
  15   2.0000     -10.268063      -279.4082
  16   2.0000      -8.084658      -219.9947
  17   2.0000      -8.080996      -219.8951
  18   2.0000      -6.042758      -164.4318
  19   2.0000      -6.039520      -164.3437
  20   2.0000      -6.038800      -164.3241
  21   2.0000      -6.035971      -164.2471
  22   2.0000      -6.035627      -164.2378
  23   2.0000      -6.031534      -164.1264
  24   2.0000      -1.011427       -27.5223
  25   2.0000      -0.988249       -26.8916
  26   2.0000      -0.916885       -24.9497
  27   2.0000      -0.908884       -24.7320
  28   2.0000      -0.864609       -23.5272
  29   2.0000      -0.860603       -23.4182
  30   2.0000      -0.846356       -23.0305
  31   2.0000      -0.806249       -21.9391
  32   2.0000      -0.789485       -21.4830
  33   2.0000      -0.775738       -21.1089
  34   2.0000      -0.707392       -19.2491
  35   2.0000      -0.703372       -19.1397
  36   2.0000      -0.690787       -18.7973
  37   2.0000      -0.664315       -18.0769
  38   2.0000      -0.632956       -17.2236
  39   2.0000      -0.619183       -16.8488
  40   2.0000      -0.606733       -16.5100
  41   2.0000      -0.571537       -15.5523
  42   2.0000      -0.569421       -15.4947
  43   2.0000      -0.552893       -15.0450
  44   2.0000      -0.535947       -14.5839
  45   2.0000      -0.525575       -14.3016
  46   2.0000      -0.513360       -13.9692
  47   2.0000      -0.509422       -13.8621
  48   2.0000      -0.499509       -13.5923
  49   2.0000      -0.497013       -13.5244
  50   2.0000      -0.487656       -13.2698
  51   2.0000      -0.477549       -12.9948
  52   2.0000      -0.471514       -12.8305
  53   2.0000      -0.464906       -12.6507
  54   2.0000      -0.459513       -12.5040
  55   2.0000      -0.455059       -12.3828
  56   2.0000      -0.448321       -12.1994
  57   2.0000      -0.443489       -12.0680
  58   2.0000      -0.434583       -11.8256
  59   2.0000      -0.427923       -11.6444
  60   2.0000      -0.416404       -11.3309
  61   2.0000      -0.414435       -11.2773
  62   2.0000      -0.410599       -11.1730
  63   2.0000      -0.350798        -9.5457
  64   2.0000      -0.334606        -9.1051
  65   2.0000      -0.333269        -9.0687
  66   2.0000      -0.279435        -7.6038
  67   0.0000       0.023485         0.6391
  68   0.0000       0.078951         2.1484
  69   0.0000       0.104471         2.8428
  70   0.0000       0.118766         3.2318
  71   0.0000       0.137653         3.7457

MULLIKEN ATOMIC CHARGES
-----------------------
   0 S :    0.108459
   1 C :   -0.147245
   2 C :   -0.068911
   3 C :   -0.043969
   4 C :   -0.094383
   5 H :    0.039446
   6 C :    0.089546
   7 H :    0.031155
   8 H :    0.020287
   9 C :   -0.080192
  10 H :    0.015868
  11 H :    0.036075
  12 C :   -0.064432
  13 H :    0.019022
  14 H :    0.034633
  15 H :    0.035387
  16 S :    0.122201
  17 C :   -0.065250
  18 C :   -0.015683
  19 C :    0.020401
  20 C :   -0.178402
  21 H :   -0.025524
  22 C :    0.020530
  23 H :    0.032757
  24 H :    0.035122
  25 C :   -0.073576
  26 H :    0.033672
  27 H :    0.038478
  28 C :   -0.010837
  29 H :   -0.002502
  30 H :    0.027308
  31 H :    0.013075
  32 H :    0.058308
  33 H :    0.039177
Sum of atomic charges:    0.0000000

LOEWDIN ATOMIC CHARGES
----------------------
   0 S :    0.405098
   1 C :   -0.209229
   2 C :   -0.059225
   3 C :   -0.079624
   4 C :   -0.194727
   5 H :    0.044846
   6 C :   -0.023818
   7 H :    0.032922
   8 H :    0.027060
   9 C :   -0.041152
  10 H :    0.017546
  11 H :    0.027166
  12 C :   -0.076698
  13 H :    0.020295
  14 H :    0.031285
  15 H :    0.027072
  16 S :    0.449868
  17 C :   -0.208497
  18 C :   -0.059124
  19 C :   -0.047892
  20 C :   -0.191470
  21 H :    0.008987
  22 C :   -0.040973
  23 H :    0.039749
  24 H :    0.036426
  25 C :   -0.039571
  26 H :    0.021796
  27 H :    0.029830
  28 C :   -0.059136
  29 H :    0.011747
  30 H :    0.028322
  31 H :    0.023468
  32 H :    0.031486
  33 H :    0.016168

  Mayer bond orders larger than 0.100000
B(  0-S ,  1-C ) :   1.1126 B(  0-S ,  4-C ) :   1.1535 B(  1-C ,  2-C ) :   1.6420
B(  1-C , 32-H ) :   0.9585 B(  2-C ,  3-C ) :   1.2470 B(  2-C ,  6-C ) :   1.0018
B(  3-C ,  4-C ) :   1.5854 B(  3-C ,  5-H ) :   0.9872 B(  4-C , 20-C ) :   1.0479
B(  6-C ,  7-H ) :   0.9520 B(  6-C ,  8-H ) :   0.9257 B(  6-C ,  9-C ) :   1.0872
B(  9-C , 10-H ) :   0.9560 B(  9-C , 11-H ) :   0.9581 B(  9-C , 12-C ) :   1.0608
B( 12-C , 13-H ) :   0.9782 B( 12-C , 14-H ) :   0.9744 B( 12-C , 15-H ) :   0.9771
B( 16-S , 17-C ) :   1.2025 B( 16-S , 20-C ) :   1.1738 B( 17-C , 18-C ) :   1.5215
B( 17-C , 20-C ) :   0.1137 B( 17-C , 33-H ) :   0.9796 B( 18-C , 19-C ) :   1.3007
B( 18-C , 21-H ) :   0.9991 B( 19-C , 20-C ) :   1.5231 B( 19-C , 22-C ) :   1.0173
B( 22-C , 23-H ) :   0.9261 B( 22-C , 24-H ) :   0.9558 B( 22-C , 25-C ) :   1.0679
B( 25-C , 26-H ) :   0.9585 B( 25-C , 27-H ) :   0.9448 B( 25-C , 28-C ) :   1.0914
B( 28-C , 29-H ) :   0.9665 B( 28-C , 30-H ) :   0.9737 B( 28-C , 31-H ) :   0.9687

Dispersion correction           -0.013592220
FINAL SINGLE POINT ENERGY     -1339.853157765465

DIPOLE MOMENT
-------------
                                X             Y             Z
Electronic contribution:     20.70901     -11.69256      18.05655
Nuclear contribution   :    -21.22520      11.73142     -18.27885
                        -----------------------------------------
Total Dipole Moment    :     -0.51619       0.03886      -0.22230
                        -----------------------------------------
Magnitude (a.u.)       :      0.56337
Magnitude (Debye)      :      1.43197

Rotational constants in cm-1:     0.017333     0.008990     0.006377
Rotational constants in MHz :   519.632567   269.511104   191.190271

                             ****ORCA TERMINATED NORMALLY****
TOTAL RUN TIME: 0 days 0 hours 0 minutes 32 seconds 114 msec
