                         Program Version 4.2.1 -  RELEASE  -
|  1> ! wB97X-D3 SP def2-SVP
|  2> %pal
|  3> nprocs 16
|  4> end
|  5>
|  6> * xyz 0 1
|  7> S 	 -73.9255 	 57.0068 	 121.57
|  8> C 	 -73.8694 	 58.8344 	 121.396
|  9> C 	 -74.3577 	 59.4478 	 122.577
| 10> C 	 -74.8647 	 58.5503 	 123.516
| 11> C 	 -74.5478 	 57.2583 	 123.246
| 12> H 	 -75.1197 	 58.8467 	 124.459
| 13> C 	 -74.5089 	 60.9433 	 122.724
| 14> H 	 -73.5385 	 61.3457 	 122.488
| 15> H 	 -74.6677 	 61.2162 	 123.732
| 16> C 	 -75.4677 	 61.5288 	 121.701
| 17> H 	 -74.9637 	 61.3306 	 120.699
| 18> H 	 -76.3791 	 61.0816 	 121.824
| 19> C 	 -75.6096 	 63.076 	 121.779
| 20> H 	 -74.6621 	 63.6122 	 121.822
| 21> H 	 -76.1856 	 63.5408 	 120.982
| 22> H 	 -75.9685 	 63.43 	 122.725
| 23> S 	 -76.0006 	 55.8223 	 124.976
| 24> C 	 -75.2716 	 54.4929 	 125.936
| 25> C 	 -73.936 	 54.2657 	 125.532
| 26> C 	 -73.5197 	 55.1698 	 124.517
| 27> C 	 -74.4894 	 56.1224 	 124.184
| 28> H 	 -73.321 	 53.3783 	 125.843
| 29> C 	 -72.0822 	 55.1747 	 124.071
| 30> H 	 -71.5611 	 55.1675 	 125.016
| 31> H 	 -71.8691 	 56.1206 	 123.545
| 32> C 	 -71.5589 	 53.9454 	 123.282
| 33> H 	 -72.1068 	 53.8912 	 122.365
| 34> H 	 -71.5534 	 53.1052 	 123.913
| 35> C 	 -70.0833 	 54.1758 	 122.973
| 36> H 	 -70.0391 	 54.9788 	 122.227
| 37> H 	 -69.7068 	 53.2848 	 122.481
| 38> H 	 -69.4681 	 54.4043 	 123.857
| 39> H 	 -73.4129 	 59.2745 	 120.537
| 40> H 	 -75.7573 	 54.0194 	 126.823
| 41> *
| 42>
| 43>                          ****END OF INPUT****

CARTESIAN COORDINATES (ANGSTROEM)
---------------------------------
  S    -73.925500   57.006800  121.570000
  C    -73.869400   58.834400  121.396000
  C    -74.357700   59.447800  122.577000
  C    -74.864700   58.550300  123.516000
  C    -74.547800   57.258300  123.246000
  H    -75.119700   58.846700  124.459000
  C    -74.508900   60.943300  122.724000
  H    -73.538500   61.345700  122.488000
  H    -74.667700   61.216200  123.732000
  C    -75.467700   61.528800  121.701000
  H    -74.963700   61.330600  120.699000
  H    -76.379100   61.081600  121.824000
  C    -75.609600   63.076000  121.779000
  H    -74.662100   63.612200  121.822000
  H    -76.185600   63.540800  120.982000
  H    -75.968500   63.430000  122.725000
  S    -76.000600   55.822300  124.976000
  C    -75.271600   54.492900  125.936000
  C    -73.936000   54.265700  125.532000
  C    -73.519700   55.169800  124.517000
  C    -74.489400   56.122400  124.184000
  H    -73.321000   53.378300  125.843000
  C    -72.082200   55.174700  124.071000
  H    -71.561100   55.167500  125.016000
  H    -71.869100   56.120600  123.545000
  C    -71.558900   53.945400  123.282000
  H    -72.106800   53.891200  122.365000
  H    -71.553400   53.105200  123.913000
  C    -70.083300   54.175800  122.973000
  H    -70.039100   54.978800  122.227000
  H    -69.706800   53.284800  122.481000
  H    -69.468100   54.404300  123.857000
  H    -73.412900   59.274500  120.537000
  H    -75.757300   54.019400  126.823000

 Total Charge           Charge          ....    0
 Multiplicity           Mult            ....    1
 Number of Electrons    NEL             ....  134
 Basis Dimension        Dim             ....  322

ORBITAL ENERGIES
----------------

  NO   OCC          E(Eh)            E(eV)
   0   2.0000     -88.968386     -2420.9529
   1   2.0000     -88.966193     -2420.8932
   2   2.0000     -10.335203      -281.2352
   3   2.0000     -10.326198      -280.9901
   4   2.0000     -10.326049      -280.9861
   5   2.0000     -10.321536      -280.8633
   6   2.0000     -10.304789      -280.4076
   7   2.0000     -10.301458      -280.3169
   8   2.0000     -10.301125      -280.3079
   9   2.0000     -10.287451      -279.9358
  10   2.0000     -10.286120      -279.8996
  11   2.0000     -10.285820      -279.8914
  12   2.0000     -10.284921      -279.8669
  13   2.0000     -10.278820      -279.7009
  14   2.0000     -10.275858      -279.6203
  15   2.0000     -10.274843      -279.5927
  16   2.0000      -8.080792      -219.8895
  17   2.0000      -8.080301      -219.8762
  18   2.0000      -6.039318      -164.3382
  19   2.0000      -6.038841      -164.3252
  20   2.0000      -6.035765      -164.2415
  21   2.0000      -6.034810      -164.2155
  22   2.0000      -6.031557      -164.1270
  23   2.0000      -6.031160      -164.1162
  24   2.0000      -1.001029       -27.2394
  25   2.0000      -0.976690       -26.5771
  26   2.0000      -0.913875       -24.8678
  27   2.0000      -0.909734       -24.7551
  28   2.0000      -0.862667       -23.4744
  29   2.0000      -0.853678       -23.2298
  30   2.0000      -0.846201       -23.0263
  31   2.0000      -0.813812       -22.1449
  32   2.0000      -0.779735       -21.2177
  33   2.0000      -0.763217       -20.7682
  34   2.0000      -0.710777       -19.3412
  35   2.0000      -0.700468       -19.0607
  36   2.0000      -0.690252       -18.7827
  37   2.0000      -0.667373       -18.1601
  38   2.0000      -0.644518       -17.5382
  39   2.0000      -0.621038       -16.8993
  40   2.0000      -0.590416       -16.0660
  41   2.0000      -0.579452       -15.7677
  42   2.0000      -0.573306       -15.6004
  43   2.0000      -0.554504       -15.0888
  44   2.0000      -0.528126       -14.3710
  45   2.0000      -0.522847       -14.2274
  46   2.0000      -0.518480       -14.1086
  47   2.0000      -0.510934       -13.9032
  48   2.0000      -0.509771       -13.8716
  49   2.0000      -0.500482       -13.6188
  50   2.0000      -0.482898       -13.1403
  51   2.0000      -0.478219       -13.0130
  52   2.0000      -0.466288       -12.6883
  53   2.0000      -0.457726       -12.4554
  54   2.0000      -0.451383       -12.2828
  55   2.0000      -0.447953       -12.1894
  56   2.0000      -0.447185       -12.1685
  57   2.0000      -0.437113       -11.8945
  58   2.0000      -0.431905       -11.7527
  59   2.0000      -0.426854       -11.6153
  60   2.0000      -0.425067       -11.5667
  61   2.0000      -0.421432       -11.4677
  62   2.0000      -0.414953       -11.2914
  63   2.0000      -0.344317        -9.3694
  64   2.0000      -0.334900        -9.1131
  65   2.0000      -0.323832        -8.8119
  66   2.0000      -0.288391        -7.8475
  67   0.0000       0.020433         0.5560
  68   0.0000       0.067452         1.8355
  69   0.0000       0.094445         2.5700
  70   0.0000       0.113007         3.0751
  71   0.0000       0.125196         3.4067

MULLIKEN ATOMIC CHARGES
-----------------------
   0 S :    0.086277
   1 C :   -0.137645
   2 C :   -0.099993
   3 C :    0.092701
   4 C :   -0.132902
   5 H :   -0.021099
   6 C :    0.097362
   7 H :    0.014984
   8 H :    0.005134
   9 C :   -0.051660
  10 H :    0.040530
  11 H :    0.022450
  12 C :   -0.032468
  13 H :    0.010164
  14 H :    0.042120
  15 H :    0.011175
  16 S :    0.102431
  17 C :   -0.118362
  18 C :   -0.050982
  19 C :   -0.011753
  20 C :   -0.163714
  21 H :    0.046396
  22 C :    0.011863
  23 H :    0.021265
  24 H :    0.030356
  25 C :   -0.032749
  26 H :    0.031238
  27 H :    0.015946
  28 C :   -0.051367
  29 H :    0.028856
  30 H :    0.030184
  31 H :    0.034566
  32 H :    0.050308
  33 H :    0.078389
Sum of atomic charges:   -0.0000000

LOEWDIN ATOMIC CHARGES
----------------------
   0 S :    0.353252
   1 C :   -0.171376
   2 C :   -0.047401
   3 C :   -0.058086
   4 C :   -0.161082
   5 H :    0.018947
   6 C :   -0.028078
   7 H :    0.030952
   8 H :    0.020137
   9 C :   -0.024045
  10 H :    0.034909
  11 H :    0.013244
  12 C :   -0.072854
  13 H :    0.024328
  14 H :    0.028007
  15 H :    0.019718
  16 S :    0.404032
  17 C :   -0.185432
  18 C :   -0.073719
  19 C :   -0.063673
  20 C :   -0.207480
  21 H :    0.042668
  22 C :   -0.035488
  23 H :    0.030310
  24 H :    0.026709
  25 C :   -0.027450
  26 H :    0.023941
  27 H :    0.015388
  28 C :   -0.062063
  29 H :    0.024850
  30 H :    0.023695
  31 H :    0.025683
  32 H :    0.019559
  33 H :    0.037896

  Mayer bond orders larger than 0.100000
B(  0-S ,  1-C ) :   1.1144 B(  0-S ,  4-C ) :   1.1376 B(  1-C ,  2-C ) :   1.5940
B(  1-C ,  4-C ) :   0.1042 B(  1-C , 32-H ) :   0.9754 B(  2-C ,  3-C ) :   1.2617
B(  2-C ,  6-C ) :   1.0321 B(  3-C ,  4-C ) :   1.5775 B(  3-C ,  5-H ) :   0.9893
B(  4-C , 20-C ) :   1.0145 B(  6-C ,  7-H ) :   0.9275 B(  6-C ,  8-H ) :   0.9429
B(  6-C ,  9-C ) :   1.0596 B(  9-C , 10-H ) :   0.9550 B(  9-C , 11-H ) :   0.9632
B(  9-C , 12-C ) :   1.0779 B( 12-C , 13-H ) :   0.9699 B( 12-C , 14-H ) :   0.9770
B( 12-C , 15-H ) :   0.9714 B( 16-S , 17-C ) :   1.1530 B( 16-S , 20-C ) :   1.1485
B( 17-C , 18-C ) :   1.5917 B( 17-C , 20-C ) :   0.1034 B( 17-C , 33-H ) :   0.9627
B( 18-C , 19-C ) :   1.2599 B( 18-C , 21-H ) :   0.9756 B( 19-C , 20-C ) :   1.5753
B( 19-C , 22-C ) :   1.0376 B( 22-C , 23-H ) :   0.9341 B( 22-C , 24-H ) :   0.9424
B( 22-C , 25-C ) :   1.0713 B( 25-C , 26-H ) :   0.9537 B( 25-C , 27-H ) :   0.9525
B( 25-C , 28-C ) :   1.0936 B( 28-C , 29-H ) :   0.9755 B( 28-C , 30-H ) :   0.9741
B( 28-C , 31-H ) :   0.9731

Dispersion correction           -0.013767012
FINAL SINGLE POINT ENERGY     -1339.857623680250

DIPOLE MOMENT
-------------
                                X             Y             Z
Electronic contribution:    -12.52087     -12.20250       4.61436
Nuclear contribution   :     12.92708      12.48401      -4.41387
                        -----------------------------------------
Total Dipole Moment    :      0.40621       0.28151       0.20049
                        -----------------------------------------
Magnitude (a.u.)       :      0.53334
Magnitude (Debye)      :      1.35564

Rotational constants in cm-1:     0.021643     0.007356     0.005925
Rotational constants in MHz :   648.844867   220.533913   177.620339

                             ****ORCA TERMINATED NORMALLY****
TOTAL RUN TIME: 0 days 0 hours 0 minutes 31 seconds 392 msec
