                         Program Version 4.2.1 -  RELEASE  -
|  1> ! wB97X-D3 SP def2-SVP
|  2> %pal
|  3> nprocs 16
|  4> end
|  5>
|  6> * xyz 0 1
|  7> S 	 -31.503 	 60.0583 	 111.531
|  8> C 	 -31.8516 	 58.3483 	 110.965
|  9> C 	 -31.3272 	 57.4404 	 111.893
| 10> C 	 -30.7185 	 58.1495 	 113.053
| 11> C 	 -30.7203 	 59.5103 	 112.961
| 12> H 	 -30.2847 	 57.7307 	 113.948
| 13> C 	 -31.4022 	 55.922 	 111.745
| 14> H 	 -32.0421 	 55.7614 	 110.821
| 15> H 	 -32.0471 	 55.5092 	 112.545
| 16> C 	 -30.049 	 55.212 	 111.687
| 17> H 	 -29.3025 	 55.729 	 111.055
| 18> H 	 -29.6029 	 55.217 	 112.712
| 19> C 	 -30.0305 	 53.7844 	 111.204
| 20> H 	 -30.4432 	 53.5778 	 110.264
| 21> H 	 -29.0237 	 53.3136 	 111.335
| 22> H 	 -30.6105 	 53.249 	 111.983
| 23> S 	 -31.5036 	 61.5319 	 114.526
| 24> C 	 -30.3888 	 62.4457 	 115.544
| 25> C 	 -29.1522 	 61.8007 	 115.574
| 26> C 	 -29.0838 	 60.6082 	 114.764
| 27> C 	 -30.2487 	 60.4925 	 113.964
| 28> H 	 -28.4504 	 62.1824 	 116.398
| 29> C 	 -27.8807 	 59.6888 	 114.667
| 30> H 	 -28.2192 	 58.651 	 114.508
| 31> H 	 -27.3412 	 59.6954 	 115.602
| 32> C 	 -26.7834 	 60.0937 	 113.72
| 33> H 	 -26.4301 	 61.0766 	 113.916
| 34> H 	 -27.1794 	 60.1192 	 112.747
| 35> C 	 -25.6058 	 59.0435 	 113.679
| 36> H 	 -25.5879 	 58.4281 	 112.774
| 37> H 	 -25.5649 	 58.4538 	 114.547
| 38> H 	 -24.6476 	 59.5964 	 113.545
| 39> H 	 -32.3964 	 58.0597 	 110.111
| 40> H 	 -30.6023 	 63.3859 	 115.917
| 41> *
| 42>
| 43>                          ****END OF INPUT****

CARTESIAN COORDINATES (ANGSTROEM)
---------------------------------
  S    -31.503000   60.058300  111.531000
  C    -31.851600   58.348300  110.965000
  C    -31.327200   57.440400  111.893000
  C    -30.718500   58.149500  113.053000
  C    -30.720300   59.510300  112.961000
  H    -30.284700   57.730700  113.948000
  C    -31.402200   55.922000  111.745000
  H    -32.042100   55.761400  110.821000
  H    -32.047100   55.509200  112.545000
  C    -30.049000   55.212000  111.687000
  H    -29.302500   55.729000  111.055000
  H    -29.602900   55.217000  112.712000
  C    -30.030500   53.784400  111.204000
  H    -30.443200   53.577800  110.264000
  H    -29.023700   53.313600  111.335000
  H    -30.610500   53.249000  111.983000
  S    -31.503600   61.531900  114.526000
  C    -30.388800   62.445700  115.544000
  C    -29.152200   61.800700  115.574000
  C    -29.083800   60.608200  114.764000
  C    -30.248700   60.492500  113.964000
  H    -28.450400   62.182400  116.398000
  C    -27.880700   59.688800  114.667000
  H    -28.219200   58.651000  114.508000
  H    -27.341200   59.695400  115.602000
  C    -26.783400   60.093700  113.720000
  H    -26.430100   61.076600  113.916000
  H    -27.179400   60.119200  112.747000
  C    -25.605800   59.043500  113.679000
  H    -25.587900   58.428100  112.774000
  H    -25.564900   58.453800  114.547000
  H    -24.647600   59.596400  113.545000
  H    -32.396400   58.059700  110.111000
  H    -30.602300   63.385900  115.917000

 Total Charge           Charge          ....    0
 Multiplicity           Mult            ....    1
 Number of Electrons    NEL             ....  134
 Basis Dimension        Dim             ....  322

ORBITAL ENERGIES
----------------

  NO   OCC          E(Eh)            E(eV)
   0   2.0000     -88.964843     -2420.8565
   1   2.0000     -88.964410     -2420.8447
   2   2.0000     -10.330231      -281.0999
   3   2.0000     -10.329653      -281.0841
   4   2.0000     -10.321186      -280.8538
   5   2.0000     -10.314328      -280.6671
   6   2.0000     -10.314080      -280.6604
   7   2.0000     -10.311784      -280.5979
   8   2.0000     -10.304823      -280.4085
   9   2.0000     -10.303982      -280.3856
  10   2.0000     -10.296551      -280.1834
  11   2.0000     -10.291800      -280.0541
  12   2.0000     -10.290399      -280.0160
  13   2.0000     -10.278815      -279.7008
  14   2.0000     -10.276829      -279.6467
  15   2.0000     -10.276580      -279.6400
  16   2.0000      -8.079486      -219.8540
  17   2.0000      -8.078936      -219.8390
  18   2.0000      -6.037868      -164.2988
  19   2.0000      -6.037665      -164.2932
  20   2.0000      -6.033869      -164.1899
  21   2.0000      -6.033498      -164.1798
  22   2.0000      -6.030410      -164.0958
  23   2.0000      -6.029494      -164.0709
  24   2.0000      -1.004348       -27.3297
  25   2.0000      -0.976584       -26.5742
  26   2.0000      -0.912769       -24.8377
  27   2.0000      -0.910116       -24.7655
  28   2.0000      -0.869788       -23.6681
  29   2.0000      -0.846307       -23.0292
  30   2.0000      -0.840812       -22.8797
  31   2.0000      -0.816186       -22.2096
  32   2.0000      -0.782017       -21.2798
  33   2.0000      -0.773774       -21.0555
  34   2.0000      -0.708392       -19.2763
  35   2.0000      -0.699162       -19.0252
  36   2.0000      -0.692740       -18.8504
  37   2.0000      -0.659124       -17.9357
  38   2.0000      -0.645142       -17.5552
  39   2.0000      -0.614549       -16.7227
  40   2.0000      -0.595518       -16.2049
  41   2.0000      -0.571516       -15.5517
  42   2.0000      -0.568003       -15.4562
  43   2.0000      -0.558303       -15.1922
  44   2.0000      -0.529468       -14.4076
  45   2.0000      -0.523908       -14.2563
  46   2.0000      -0.516323       -14.0499
  47   2.0000      -0.513204       -13.9650
  48   2.0000      -0.505448       -13.7539
  49   2.0000      -0.498679       -13.5697
  50   2.0000      -0.492951       -13.4139
  51   2.0000      -0.486382       -13.2351
  52   2.0000      -0.474801       -12.9200
  53   2.0000      -0.465697       -12.6723
  54   2.0000      -0.457827       -12.4581
  55   2.0000      -0.445456       -12.1215
  56   2.0000      -0.439986       -11.9726
  57   2.0000      -0.437714       -11.9108
  58   2.0000      -0.429477       -11.6867
  59   2.0000      -0.424437       -11.5495
  60   2.0000      -0.422687       -11.5019
  61   2.0000      -0.411332       -11.1929
  62   2.0000      -0.409143       -11.1333
  63   2.0000      -0.342190        -9.3115
  64   2.0000      -0.331761        -9.0277
  65   2.0000      -0.324392        -8.8272
  66   2.0000      -0.298221        -8.1150
  67   0.0000       0.027633         0.7519
  68   0.0000       0.070691         1.9236
  69   0.0000       0.104929         2.8553
  70   0.0000       0.112502         3.0613
  71   0.0000       0.126893         3.4529

MULLIKEN ATOMIC CHARGES
-----------------------
   0 S :    0.096945
   1 C :   -0.106272
   2 C :   -0.089236
   3 C :    0.034578
   4 C :   -0.144701
   5 H :    0.011975
   6 C :    0.056999
   7 H :    0.020515
   8 H :    0.044172
   9 C :   -0.093840
  10 H :    0.037116
  11 H :    0.033097
  12 C :   -0.039164
  13 H :    0.032461
  14 H :    0.039725
  15 H :    0.017768
  16 S :    0.108690
  17 C :   -0.078772
  18 C :   -0.067345
  19 C :   -0.029730
  20 C :   -0.158571
  21 H :    0.054590
  22 C :    0.064860
  23 H :    0.021592
  24 H :    0.012214
  25 C :   -0.029465
  26 H :    0.019317
  27 H :    0.016972
  28 C :   -0.049000
  29 H :    0.036210
  30 H :    0.023828
  31 H :    0.029169
  32 H :    0.035312
  33 H :    0.037990
Sum of atomic charges:   -0.0000000

LOEWDIN ATOMIC CHARGES
----------------------
   0 S :    0.383117
   1 C :   -0.171055
   2 C :   -0.048686
   3 C :   -0.069303
   4 C :   -0.204634
   5 H :    0.027682
   6 C :   -0.038601
   7 H :    0.033982
   8 H :    0.036734
   9 C :   -0.050031
  10 H :    0.026592
  11 H :    0.029854
  12 C :   -0.065648
  13 H :    0.015756
  14 H :    0.035070
  15 H :    0.026262
  16 S :    0.419774
  17 C :   -0.176986
  18 C :   -0.078460
  19 C :   -0.055656
  20 C :   -0.204035
  21 H :    0.048277
  22 C :   -0.034821
  23 H :    0.030178
  24 H :    0.029574
  25 C :   -0.029637
  26 H :    0.019648
  27 H :    0.018965
  28 C :   -0.064456
  29 H :    0.029239
  30 H :    0.014189
  31 H :    0.032308
  32 H :    0.020673
  33 H :    0.014133

  Mayer bond orders larger than 0.100000
B(  0-S ,  1-C ) :   1.1054 B(  0-S ,  4-C ) :   1.1440 B(  1-C ,  2-C ) :   1.6533
B(  1-C , 32-H ) :   0.9739 B(  2-C ,  3-C ) :   1.1753 B(  2-C ,  6-C ) :   1.0332
B(  3-C ,  4-C ) :   1.6303 B(  3-C ,  5-H ) :   0.9890 B(  4-C , 20-C ) :   1.0009
B(  6-C ,  7-H ) :   0.9431 B(  6-C ,  8-H ) :   0.9350 B(  6-C ,  9-C ) :   1.0466
B(  9-C , 10-H ) :   0.9608 B(  9-C , 11-H ) :   0.9498 B(  9-C , 12-C ) :   1.0949
B( 12-C , 13-H ) :   0.9777 B( 12-C , 14-H ) :   0.9717 B( 12-C , 15-H ) :   0.9711
B( 16-S , 17-C ) :   1.1538 B( 16-S , 20-C ) :   1.1833 B( 17-C , 18-C ) :   1.6068
B( 17-C , 20-C ) :   0.1096 B( 17-C , 33-H ) :   0.9771 B( 18-C , 19-C ) :   1.2451
B( 18-C , 21-H ) :   0.9736 B( 19-C , 20-C ) :   1.5545 B( 19-C , 22-C ) :   1.0597
B( 22-C , 23-H ) :   0.9342 B( 22-C , 24-H ) :   0.9237 B( 22-C , 25-C ) :   1.0759
B( 25-C , 26-H ) :   0.9590 B( 25-C , 27-H ) :   0.9566 B( 25-C , 28-C ) :   1.0626
B( 28-C , 29-H ) :   0.9787 B( 28-C , 30-H ) :   0.9799 B( 28-C , 31-H ) :   0.9766

Dispersion correction           -0.013488286
FINAL SINGLE POINT ENERGY     -1339.863038974903

DIPOLE MOMENT
-------------
                                X             Y             Z
Electronic contribution:    -19.94146      23.91260       2.42232
Nuclear contribution   :     20.32851     -24.42559      -2.25140
                        -----------------------------------------
Total Dipole Moment    :      0.38705      -0.51299       0.17092
                        -----------------------------------------
Magnitude (a.u.)       :      0.66497
Magnitude (Debye)      :      1.69021

Rotational constants in cm-1:     0.017144     0.008684     0.006433
Rotational constants in MHz :   513.952805   260.329963   192.866437

                             ****ORCA TERMINATED NORMALLY****
TOTAL RUN TIME: 0 days 0 hours 0 minutes 28 seconds 988 msec
