                         Program Version 4.2.1 -  RELEASE  -
|  1> ! wB97X-D3 SP def2-SVP
|  2> %pal
|  3> nprocs 16
|  4> end
|  5>
|  6> * xyz 0 1
|  7> S 	 9.28991 	 -16.2539 	 84.4613
|  8> C 	 8.73921 	 -17.913 	 84.8475
|  9> C 	 7.32151 	 -17.852 	 84.8768
| 10> C 	 6.73723 	 -16.5223 	 84.6873
| 11> C 	 7.70102 	 -15.5433 	 84.4524
| 12> H 	 5.68834 	 -16.1334 	 84.7404
| 13> C 	 6.51722 	 -19.0573 	 85.0402
| 14> H 	 7.09644 	 -19.9867 	 85.0638
| 15> H 	 5.81082 	 -19.2993 	 84.1809
| 16> C 	 5.74622 	 -19.1068 	 86.4166
| 17> H 	 6.18641 	 -18.4441 	 87.1954
| 18> H 	 4.81094 	 -18.6101 	 86.1708
| 19> C 	 5.47175 	 -20.5075 	 86.9953
| 20> H 	 6.42557 	 -21.1146 	 87.097
| 21> H 	 4.94487 	 -20.485 	 87.9756
| 22> H 	 4.79755 	 -20.9862 	 86.3686
| 23> S 	 5.99185 	 -13.7983 	 83.2966
| 24> C 	 6.46577 	 -12.1429 	 83.1438
| 25> C 	 7.78513 	 -11.8475 	 83.4171
| 26> C 	 8.43221 	 -13.0485 	 83.8703
| 27> C 	 7.53101 	 -14.1513 	 83.9385
| 28> H 	 8.18278 	 -10.8325 	 83.3398
| 29> C 	 9.90823 	 -13.0642 	 84.1536
| 30> H 	 10.3507 	 -12.1358 	 83.8184
| 31> H 	 10.4414 	 -13.8295 	 83.5799
| 32> C 	 10.2676 	 -13.0397 	 85.7019
| 33> H 	 9.80901 	 -13.8819 	 86.2455
| 34> H 	 9.79433 	 -12.1075 	 86.1074
| 35> C 	 11.7824 	 -12.951 	 86.0947
| 36> H 	 12.302 	 -13.9166 	 85.8759
| 37> H 	 12.1107 	 -12.7051 	 87.1649
| 38> H 	 12.4338 	 -12.337 	 85.4174
| 39> H 	 9.30473 	 -18.847 	 85.006
| 40> H 	 5.80865 	 -11.378 	 82.8068
| 41> *
| 42>
| 43>                          ****END OF INPUT****

CARTESIAN COORDINATES (ANGSTROEM)
---------------------------------
  S      9.289910  -16.253900   84.461300
  C      8.739210  -17.913000   84.847500
  C      7.321510  -17.852000   84.876800
  C      6.737230  -16.522300   84.687300
  C      7.701020  -15.543300   84.452400
  H      5.688340  -16.133400   84.740400
  C      6.517220  -19.057300   85.040200
  H      7.096440  -19.986700   85.063800
  H      5.810820  -19.299300   84.180900
  C      5.746220  -19.106800   86.416600
  H      6.186410  -18.444100   87.195400
  H      4.810940  -18.610100   86.170800
  C      5.471750  -20.507500   86.995300
  H      6.425570  -21.114600   87.097000
  H      4.944870  -20.485000   87.975600
  H      4.797550  -20.986200   86.368600
  S      5.991850  -13.798300   83.296600
  C      6.465770  -12.142900   83.143800
  C      7.785130  -11.847500   83.417100
  C      8.432210  -13.048500   83.870300
  C      7.531010  -14.151300   83.938500
  H      8.182780  -10.832500   83.339800
  C      9.908230  -13.064200   84.153600
  H     10.350700  -12.135800   83.818400
  H     10.441400  -13.829500   83.579900
  C     10.267600  -13.039700   85.701900
  H      9.809010  -13.881900   86.245500
  H      9.794330  -12.107500   86.107400
  C     11.782400  -12.951000   86.094700
  H     12.302000  -13.916600   85.875900
  H     12.110700  -12.705100   87.164900
  H     12.433800  -12.337000   85.417400
  H      9.304730  -18.847000   85.006000
  H      5.808650  -11.378000   82.806800

 Total Charge           Charge          ....    0
 Multiplicity           Mult            ....    1
 Number of Electrons    NEL             ....  134
 Basis Dimension        Dim             ....  322

ORBITAL ENERGIES
----------------

  NO   OCC          E(Eh)            E(eV)
   0   2.0000     -88.974673     -2421.1239
   1   2.0000     -88.964998     -2420.8607
   2   2.0000     -10.336591      -281.2729
   3   2.0000     -10.333221      -281.1812
   4   2.0000     -10.322878      -280.8998
   5   2.0000     -10.315127      -280.6889
   6   2.0000     -10.311439      -280.5885
   7   2.0000     -10.309885      -280.5462
   8   2.0000     -10.302646      -280.3493
   9   2.0000     -10.300118      -280.2804
  10   2.0000     -10.295089      -280.1436
  11   2.0000     -10.294404      -280.1250
  12   2.0000     -10.293167      -280.0913
  13   2.0000     -10.287288      -279.9313
  14   2.0000     -10.286697      -279.9152
  15   2.0000     -10.280780      -279.7543
  16   2.0000      -8.090246      -220.1468
  17   2.0000      -8.078517      -219.8276
  18   2.0000      -6.048495      -164.5879
  19   2.0000      -6.044780      -164.4868
  20   2.0000      -6.041106      -164.3868
  21   2.0000      -6.037242      -164.2817
  22   2.0000      -6.033017      -164.1667
  23   2.0000      -6.029278      -164.0650
  24   2.0000      -1.010258       -27.4905
  25   2.0000      -0.981610       -26.7110
  26   2.0000      -0.908149       -24.7120
  27   2.0000      -0.901717       -24.5370
  28   2.0000      -0.868541       -23.6342
  29   2.0000      -0.848702       -23.0944
  30   2.0000      -0.838323       -22.8119
  31   2.0000      -0.816026       -22.2052
  32   2.0000      -0.779854       -21.2209
  33   2.0000      -0.765787       -20.8381
  34   2.0000      -0.705949       -19.2098
  35   2.0000      -0.695246       -18.9186
  36   2.0000      -0.686065       -18.6688
  37   2.0000      -0.671588       -18.2748
  38   2.0000      -0.634752       -17.2725
  39   2.0000      -0.614974       -16.7343
  40   2.0000      -0.598572       -16.2880
  41   2.0000      -0.571475       -15.5506
  42   2.0000      -0.556667       -15.1477
  43   2.0000      -0.552103       -15.0235
  44   2.0000      -0.520503       -14.1636
  45   2.0000      -0.518855       -14.1188
  46   2.0000      -0.513518       -13.9735
  47   2.0000      -0.507275       -13.8037
  48   2.0000      -0.501689       -13.6516
  49   2.0000      -0.499586       -13.5944
  50   2.0000      -0.491196       -13.3661
  51   2.0000      -0.480702       -13.0806
  52   2.0000      -0.468078       -12.7371
  53   2.0000      -0.467410       -12.7189
  54   2.0000      -0.461946       -12.5702
  55   2.0000      -0.450521       -12.2593
  56   2.0000      -0.443405       -12.0657
  57   2.0000      -0.437431       -11.9031
  58   2.0000      -0.429730       -11.6935
  59   2.0000      -0.424439       -11.5496
  60   2.0000      -0.419757       -11.4222
  61   2.0000      -0.407585       -11.0909
  62   2.0000      -0.398086       -10.8325
  63   2.0000      -0.357434        -9.7263
  64   2.0000      -0.336799        -9.1648
  65   2.0000      -0.324397        -8.8273
  66   2.0000      -0.283437        -7.7127
  67   0.0000       0.018716         0.5093
  68   0.0000       0.079749         2.1701
  69   0.0000       0.105308         2.8656
  70   0.0000       0.116279         3.1641
  71   0.0000       0.129019         3.5108

MULLIKEN ATOMIC CHARGES
-----------------------
   0 S :    0.073372
   1 C :   -0.099561
   2 C :   -0.090564
   3 C :   -0.015204
   4 C :   -0.104360
   5 H :    0.040852
   6 C :    0.032714
   7 H :    0.001833
   8 H :    0.049244
   9 C :   -0.107861
  10 H :    0.045509
  11 H :    0.026237
  12 C :   -0.052050
  13 H :    0.045588
  14 H :    0.041079
  15 H :    0.017391
  16 S :    0.122337
  17 C :   -0.082050
  18 C :   -0.024817
  19 C :   -0.063196
  20 C :   -0.118607
  21 H :    0.032780
  22 C :    0.049955
  23 H :    0.009386
  24 H :    0.049146
  25 C :   -0.077249
  26 H :    0.046783
  27 H :    0.033123
  28 C :   -0.091725
  29 H :    0.025436
  30 H :    0.055347
  31 H :    0.022152
  32 H :    0.066298
  33 H :    0.040684
Sum of atomic charges:    0.0000000

LOEWDIN ATOMIC CHARGES
----------------------
   0 S :    0.407577
   1 C :   -0.199884
   2 C :   -0.056199
   3 C :   -0.091415
   4 C :   -0.184075
   5 H :    0.036243
   6 C :   -0.044239
   7 H :    0.023688
   8 H :    0.040428
   9 C :   -0.045654
  10 H :    0.028070
  11 H :    0.020954
  12 C :   -0.068543
  13 H :    0.031386
  14 H :    0.033818
  15 H :    0.014185
  16 S :    0.448836
  17 C :   -0.186048
  18 C :   -0.063984
  19 C :   -0.052549
  20 C :   -0.211657
  21 H :    0.040711
  22 C :   -0.041005
  23 H :    0.029754
  24 H :    0.026455
  25 C :   -0.041891
  26 H :    0.021040
  27 H :    0.027395
  28 C :   -0.093331
  29 H :    0.026417
  30 H :    0.037212
  31 H :    0.024342
  32 H :    0.041947
  33 H :    0.020017

  Mayer bond orders larger than 0.100000
B(  0-S ,  1-C ) :   1.1115 B(  0-S ,  4-C ) :   1.1594 B(  1-C ,  2-C ) :   1.6059
B(  1-C , 32-H ) :   0.9661 B(  2-C ,  3-C ) :   1.2092 B(  2-C ,  6-C ) :   1.0655
B(  3-C ,  4-C ) :   1.5764 B(  3-C ,  5-H ) :   0.9749 B(  4-C , 20-C ) :   1.0464
B(  6-C ,  7-H ) :   0.9483 B(  6-C ,  8-H ) :   0.9372 B(  6-C ,  9-C ) :   1.0192
B(  9-C , 10-H ) :   0.9661 B(  9-C , 11-H ) :   0.9554 B(  9-C , 12-C ) :   1.0885
B( 12-C , 13-H ) :   0.9740 B( 12-C , 14-H ) :   0.9734 B( 12-C , 15-H ) :   0.9744
B( 16-S , 17-C ) :   1.1695 B( 16-S , 20-C ) :   1.1581 B( 17-C , 18-C ) :   1.6037
B( 17-C , 33-H ) :   0.9664 B( 18-C , 19-C ) :   1.2662 B( 18-C , 21-H ) :   0.9884
B( 19-C , 20-C ) :   1.5360 B( 19-C , 22-C ) :   1.0537 B( 22-C , 23-H ) :   0.9273
B( 22-C , 24-H ) :   0.9390 B( 22-C , 25-C ) :   1.0368 B( 25-C , 26-H ) :   0.9620
B( 25-C , 27-H ) :   0.9589 B( 25-C , 28-C ) :   1.0615 B( 28-C , 29-H ) :   0.9724
B( 28-C , 30-H ) :   0.9772 B( 28-C , 31-H ) :   0.9734

Dispersion correction           -0.013851908
FINAL SINGLE POINT ENERGY     -1339.863775538259

DIPOLE MOMENT
-------------
                                X             Y             Z
Electronic contribution:     -4.99966       9.27967     -13.89564
Nuclear contribution   :      4.85572      -9.26338      13.90187
                        -----------------------------------------
Total Dipole Moment    :     -0.14394       0.01629       0.00622
                        -----------------------------------------
Magnitude (a.u.)       :      0.14499
Magnitude (Debye)      :      0.36854

Rotational constants in cm-1:     0.020303     0.007907     0.006174
Rotational constants in MHz :   608.677146   237.046354   185.092402

                             ****ORCA TERMINATED NORMALLY****
TOTAL RUN TIME: 0 days 0 hours 0 minutes 34 seconds 602 msec
