                         Program Version 4.2.1 -  RELEASE  -
|  1> ! wB97X-D3 SP def2-SVP
|  2> %pal
|  3> nprocs 16
|  4> end
|  5>
|  6> * xyz 0 1
|  7> S 	 -6.6995 	 55.1562 	 47.5762
|  8> C 	 -7.72567 	 55.9862 	 48.6964
|  9> C 	 -7.01738 	 56.421 	 49.8277
| 10> C 	 -5.70562 	 55.9334 	 49.9366
| 11> C 	 -5.43648 	 55.1916 	 48.7944
| 12> H 	 -5.01833 	 56.0623 	 50.7305
| 13> C 	 -7.69072 	 57.3309 	 50.8053
| 14> H 	 -8.02665 	 56.7801 	 51.7262
| 15> H 	 -8.57307 	 57.7347 	 50.3365
| 16> C 	 -6.79624 	 58.3939 	 51.3428
| 17> H 	 -5.75921 	 58.1106 	 51.7132
| 18> H 	 -6.56015 	 59.0853 	 50.5591
| 19> C 	 -7.4238 	 59.0209 	 52.5392
| 20> H 	 -7.65585 	 58.2904 	 53.3463
| 21> H 	 -6.67039 	 59.6601 	 53.0231
| 22> H 	 -8.33988 	 59.4747 	 52.2664
| 23> S 	 -4.48277 	 52.6257 	 48.5744
| 24> C 	 -2.73835 	 52.3817 	 48.3356
| 25> C 	 -1.98433 	 53.5389 	 48.5078
| 26> C 	 -2.85343 	 54.6848 	 48.5868
| 27> C 	 -4.2288 	 54.3792 	 48.6425
| 28> H 	 -0.892536 	 53.5251 	 48.665
| 29> C 	 -2.26961 	 56.1512 	 48.7212
| 30> H 	 -1.23219 	 56.1433 	 48.9541
| 31> H 	 -2.80323 	 56.6387 	 49.5167
| 32> C 	 -2.4341 	 56.9348 	 47.4607
| 33> H 	 -3.40751 	 56.6367 	 46.9813
| 34> H 	 -1.64056 	 56.6175 	 46.7794
| 35> C 	 -2.5725 	 58.4363 	 47.7243
| 36> H 	 -1.67778 	 58.9142 	 48.22
| 37> H 	 -3.40818 	 58.6817 	 48.3186
| 38> H 	 -2.71375 	 58.9517 	 46.7668
| 39> H 	 -8.71432 	 56.3065 	 48.4333
| 40> H 	 -2.36282 	 51.4231 	 48.2817
| 41> *
| 42>
| 43>                          ****END OF INPUT****

CARTESIAN COORDINATES (ANGSTROEM)
---------------------------------
  S     -6.699500   55.156200   47.576200
  C     -7.725670   55.986200   48.696400
  C     -7.017380   56.421000   49.827700
  C     -5.705620   55.933400   49.936600
  C     -5.436480   55.191600   48.794400
  H     -5.018330   56.062300   50.730500
  C     -7.690720   57.330900   50.805300
  H     -8.026650   56.780100   51.726200
  H     -8.573070   57.734700   50.336500
  C     -6.796240   58.393900   51.342800
  H     -5.759210   58.110600   51.713200
  H     -6.560150   59.085300   50.559100
  C     -7.423800   59.020900   52.539200
  H     -7.655850   58.290400   53.346300
  H     -6.670390   59.660100   53.023100
  H     -8.339880   59.474700   52.266400
  S     -4.482770   52.625700   48.574400
  C     -2.738350   52.381700   48.335600
  C     -1.984330   53.538900   48.507800
  C     -2.853430   54.684800   48.586800
  C     -4.228800   54.379200   48.642500
  H     -0.892536   53.525100   48.665000
  C     -2.269610   56.151200   48.721200
  H     -1.232190   56.143300   48.954100
  H     -2.803230   56.638700   49.516700
  C     -2.434100   56.934800   47.460700
  H     -3.407510   56.636700   46.981300
  H     -1.640560   56.617500   46.779400
  C     -2.572500   58.436300   47.724300
  H     -1.677780   58.914200   48.220000
  H     -3.408180   58.681700   48.318600
  H     -2.713750   58.951700   46.766800
  H     -8.714320   56.306500   48.433300
  H     -2.362820   51.423100   48.281700

 Total Charge           Charge          ....    0
 Multiplicity           Mult            ....    1
 Number of Electrons    NEL             ....  134
 Basis Dimension        Dim             ....  322

ORBITAL ENERGIES
----------------

  NO   OCC          E(Eh)            E(eV)
   0   2.0000     -88.971257     -2421.0310
   1   2.0000     -88.963761     -2420.8270
   2   2.0000     -10.330102      -281.0964
   3   2.0000     -10.325505      -280.9713
   4   2.0000     -10.313724      -280.6507
   5   2.0000     -10.310507      -280.5632
   6   2.0000     -10.307697      -280.4867
   7   2.0000     -10.299050      -280.2514
   8   2.0000     -10.298765      -280.2436
   9   2.0000     -10.294390      -280.1246
  10   2.0000     -10.287715      -279.9430
  11   2.0000     -10.284105      -279.8447
  12   2.0000     -10.282693      -279.8063
  13   2.0000     -10.280086      -279.7354
  14   2.0000     -10.275255      -279.6039
  15   2.0000     -10.274757      -279.5904
  16   2.0000      -8.085952      -220.0300
  17   2.0000      -8.077784      -219.8077
  18   2.0000      -6.044216      -164.4715
  19   2.0000      -6.040545      -164.3716
  20   2.0000      -6.036910      -164.2727
  21   2.0000      -6.036223      -164.2540
  22   2.0000      -6.032497      -164.1526
  23   2.0000      -6.028553      -164.0453
  24   2.0000      -1.005221       -27.3535
  25   2.0000      -0.977545       -26.6004
  26   2.0000      -0.924082       -25.1455
  27   2.0000      -0.907308       -24.6891
  28   2.0000      -0.867754       -23.6128
  29   2.0000      -0.858551       -23.3624
  30   2.0000      -0.840967       -22.8839
  31   2.0000      -0.814457       -22.1625
  32   2.0000      -0.780433       -21.2367
  33   2.0000      -0.765976       -20.8433
  34   2.0000      -0.708898       -19.2901
  35   2.0000      -0.691078       -18.8052
  36   2.0000      -0.686662       -18.6850
  37   2.0000      -0.661699       -18.0058
  38   2.0000      -0.647959       -17.6318
  39   2.0000      -0.624575       -16.9955
  40   2.0000      -0.592858       -16.1325
  41   2.0000      -0.574866       -15.6429
  42   2.0000      -0.569355       -15.4929
  43   2.0000      -0.563584       -15.3359
  44   2.0000      -0.533617       -14.5205
  45   2.0000      -0.518390       -14.1061
  46   2.0000      -0.513164       -13.9639
  47   2.0000      -0.507297       -13.8043
  48   2.0000      -0.503041       -13.6885
  49   2.0000      -0.497556       -13.5392
  50   2.0000      -0.494482       -13.4555
  51   2.0000      -0.481538       -13.1033
  52   2.0000      -0.472219       -12.8497
  53   2.0000      -0.468502       -12.7486
  54   2.0000      -0.457031       -12.4364
  55   2.0000      -0.455043       -12.3823
  56   2.0000      -0.442537       -12.0420
  57   2.0000      -0.439573       -11.9614
  58   2.0000      -0.435785       -11.8583
  59   2.0000      -0.426491       -11.6054
  60   2.0000      -0.417890       -11.3714
  61   2.0000      -0.408262       -11.1094
  62   2.0000      -0.405623       -11.0376
  63   2.0000      -0.345433        -9.3997
  64   2.0000      -0.329154        -8.9567
  65   2.0000      -0.322446        -8.7742
  66   2.0000      -0.293115        -7.9761
  67   0.0000       0.030851         0.8395
  68   0.0000       0.060669         1.6509
  69   0.0000       0.106588         2.9004
  70   0.0000       0.110309         3.0017
  71   0.0000       0.130565         3.5529

MULLIKEN ATOMIC CHARGES
-----------------------
   0 S :    0.137504
   1 C :   -0.127284
   2 C :   -0.070502
   3 C :    0.052909
   4 C :   -0.167820
   5 H :    0.012150
   6 C :    0.099245
   7 H :    0.033739
   8 H :    0.013689
   9 C :   -0.118969
  10 H :    0.028883
  11 H :    0.026558
  12 C :   -0.026693
  13 H :    0.027242
  14 H :    0.031557
  15 H :    0.023718
  16 S :    0.102162
  17 C :   -0.071232
  18 C :   -0.038306
  19 C :   -0.054958
  20 C :   -0.180015
  21 H :    0.038872
  22 C :    0.122576
  23 H :    0.007701
  24 H :    0.005879
  25 C :   -0.089976
  26 H :    0.038200
  27 H :    0.030375
  28 C :   -0.047984
  29 H :    0.030600
  30 H :    0.026536
  31 H :    0.032980
  32 H :    0.039636
  33 H :    0.031027
Sum of atomic charges:   -0.0000000

LOEWDIN ATOMIC CHARGES
----------------------
   0 S :    0.421865
   1 C :   -0.207807
   2 C :   -0.058333
   3 C :   -0.047510
   4 C :   -0.191278
   5 H :    0.030391
   6 C :   -0.033454
   7 H :    0.036424
   8 H :    0.028762
   9 C :   -0.050410
  10 H :    0.028128
  11 H :    0.021546
  12 C :   -0.061342
  13 H :    0.027696
  14 H :    0.028639
  15 H :    0.017709
  16 S :    0.389311
  17 C :   -0.162468
  18 C :   -0.073710
  19 C :   -0.049192
  20 C :   -0.202443
  21 H :    0.040221
  22 C :   -0.023213
  23 H :    0.022886
  24 H :    0.022250
  25 C :   -0.045458
  26 H :    0.029789
  27 H :    0.024850
  28 C :   -0.066179
  29 H :    0.026116
  30 H :    0.018955
  31 H :    0.028329
  32 H :    0.020511
  33 H :    0.008416

  Mayer bond orders larger than 0.100000
B(  0-S ,  1-C ) :   1.1390 B(  0-S ,  4-C ) :   1.1766 B(  1-C ,  2-C ) :   1.5828
B(  1-C , 32-H ) :   0.9716 B(  2-C ,  3-C ) :   1.2480 B(  2-C ,  6-C ) :   1.0325
B(  3-C ,  4-C ) :   1.5497 B(  3-C ,  5-H ) :   0.9983 B(  4-C , 20-C ) :   1.0231
B(  6-C ,  7-H ) :   0.9327 B(  6-C ,  8-H ) :   0.9346 B(  6-C ,  9-C ) :   1.0614
B(  9-C , 10-H ) :   0.9530 B(  9-C , 11-H ) :   0.9505 B(  9-C , 12-C ) :   1.0919
B( 12-C , 13-H ) :   0.9710 B( 12-C , 14-H ) :   0.9721 B( 12-C , 15-H ) :   0.9716
B( 16-S , 17-C ) :   1.1601 B( 16-S , 20-C ) :   1.1410 B( 17-C , 18-C ) :   1.6018
B( 17-C , 20-C ) :   0.1045 B( 17-C , 33-H ) :   0.9757 B( 18-C , 19-C ) :   1.2467
B( 18-C , 21-H ) :   0.9837 B( 19-C , 20-C ) :   1.6038 B( 19-C , 22-C ) :   1.0312
B( 22-C , 23-H ) :   0.9334 B( 22-C , 24-H ) :   0.9401 B( 22-C , 25-C ) :   1.0587
B( 25-C , 26-H ) :   0.9613 B( 25-C , 27-H ) :   0.9544 B( 25-C , 28-C ) :   1.0785
B( 28-C , 29-H ) :   0.9740 B( 28-C , 30-H ) :   0.9736 B( 28-C , 31-H ) :   0.9731

Dispersion correction           -0.014436038
FINAL SINGLE POINT ENERGY     -1339.869870169662

DIPOLE MOMENT
-------------
                                X             Y             Z
Electronic contribution:     -3.86636     -26.42067     -11.46953
Nuclear contribution   :      4.01558      26.88793      11.85628
                        -----------------------------------------
Total Dipole Moment    :      0.14922       0.46727       0.38675
                        -----------------------------------------
Magnitude (a.u.)       :      0.62464
Magnitude (Debye)      :      1.58772

Rotational constants in cm-1:     0.018090     0.008906     0.007313
Rotational constants in MHz :   542.333653   266.984245   219.241960

                             ****ORCA TERMINATED NORMALLY****
TOTAL RUN TIME: 0 days 0 hours 0 minutes 32 seconds 281 msec
