                         Program Version 4.2.1 -  RELEASE  -
|  1> ! wB97X-D3 SP def2-SVP
|  2> %pal
|  3> nprocs 16
|  4> end
|  5>
|  6> * xyz 0 1
|  7> S 	 -44.875 	 64.6932 	 139.574
|  8> C 	 -44.6452 	 63.5741 	 140.923
|  9> C 	 -44.8464 	 62.2515 	 140.539
| 10> C 	 -45.3466 	 62.1251 	 139.191
| 11> C 	 -45.2954 	 63.3529 	 138.509
| 12> H 	 -45.6141 	 61.2773 	 138.706
| 13> C 	 -44.7702 	 61.1031 	 141.495
| 14> H 	 -43.913 	 61.2968 	 142.182
| 15> H 	 -44.5045 	 60.3353 	 140.815
| 16> C 	 -46.0178 	 60.8755 	 142.364
| 17> H 	 -46.2709 	 61.8272 	 142.92
| 18> H 	 -46.912 	 60.8215 	 141.735
| 19> C 	 -45.9591 	 59.6439 	 143.32
| 20> H 	 -46.8837 	 59.6319 	 143.955
| 21> H 	 -45.9056 	 58.7791 	 142.686
| 22> H 	 -45.0856 	 59.6429 	 143.994
| 23> S 	 -46.9768 	 62.612 	 136.551
| 24> C 	 -46.7085 	 63.011 	 134.963
| 25> C 	 -45.754 	 63.992 	 134.8
| 26> C 	 -44.9385 	 64.0992 	 135.981
| 27> C 	 -45.6381 	 63.5533 	 137.104
| 28> H 	 -45.6675 	 64.4336 	 133.823
| 29> C 	 -43.5763 	 64.7748 	 135.989
| 30> H 	 -43.0738 	 64.4844 	 136.924
| 31> H 	 -43.7304 	 65.8241 	 136.06
| 32> C 	 -42.66 	 64.5079 	 134.748
| 33> H 	 -43.1198 	 64.9855 	 133.835
| 34> H 	 -42.4256 	 63.4927 	 134.501
| 35> C 	 -41.1668 	 65.0741 	 134.788
| 36> H 	 -40.4599 	 64.4112 	 135.395
| 37> H 	 -41.176 	 66.0385 	 135.239
| 38> H 	 -40.7444 	 65.1039 	 133.776
| 39> H 	 -44.4001 	 63.8861 	 141.933
| 40> H 	 -47.4383 	 62.6938 	 134.189
| 41> *
| 42>
| 43>                          ****END OF INPUT****

CARTESIAN COORDINATES (ANGSTROEM)
---------------------------------
  S    -44.875000   64.693200  139.574000
  C    -44.645200   63.574100  140.923000
  C    -44.846400   62.251500  140.539000
  C    -45.346600   62.125100  139.191000
  C    -45.295400   63.352900  138.509000
  H    -45.614100   61.277300  138.706000
  C    -44.770200   61.103100  141.495000
  H    -43.913000   61.296800  142.182000
  H    -44.504500   60.335300  140.815000
  C    -46.017800   60.875500  142.364000
  H    -46.270900   61.827200  142.920000
  H    -46.912000   60.821500  141.735000
  C    -45.959100   59.643900  143.320000
  H    -46.883700   59.631900  143.955000
  H    -45.905600   58.779100  142.686000
  H    -45.085600   59.642900  143.994000
  S    -46.976800   62.612000  136.551000
  C    -46.708500   63.011000  134.963000
  C    -45.754000   63.992000  134.800000
  C    -44.938500   64.099200  135.981000
  C    -45.638100   63.553300  137.104000
  H    -45.667500   64.433600  133.823000
  C    -43.576300   64.774800  135.989000
  H    -43.073800   64.484400  136.924000
  H    -43.730400   65.824100  136.060000
  C    -42.660000   64.507900  134.748000
  H    -43.119800   64.985500  133.835000
  H    -42.425600   63.492700  134.501000
  C    -41.166800   65.074100  134.788000
  H    -40.459900   64.411200  135.395000
  H    -41.176000   66.038500  135.239000
  H    -40.744400   65.103900  133.776000
  H    -44.400100   63.886100  141.933000
  H    -47.438300   62.693800  134.189000

 Total Charge           Charge          ....    0
 Multiplicity           Mult            ....    1
 Number of Electrons    NEL             ....  134
 Basis Dimension        Dim             ....  322

ORBITAL ENERGIES
----------------

  NO   OCC          E(Eh)            E(eV)
   0   2.0000     -88.967943     -2420.9408
   1   2.0000     -88.963168     -2420.8109
   2   2.0000     -10.332144      -281.1519
   3   2.0000     -10.324399      -280.9412
   4   2.0000     -10.313883      -280.6550
   5   2.0000     -10.311414      -280.5878
   6   2.0000     -10.310728      -280.5692
   7   2.0000     -10.300705      -280.2964
   8   2.0000     -10.294038      -280.1150
   9   2.0000     -10.292945      -280.0853
  10   2.0000     -10.292372      -280.0697
  11   2.0000     -10.292305      -280.0678
  12   2.0000     -10.290398      -280.0160
  13   2.0000     -10.289309      -279.9863
  14   2.0000     -10.284389      -279.8524
  15   2.0000     -10.283448      -279.8268
  16   2.0000      -8.081808      -219.9172
  17   2.0000      -8.080116      -219.8711
  18   2.0000      -6.040322      -164.3655
  19   2.0000      -6.038332      -164.3114
  20   2.0000      -6.036417      -164.2593
  21   2.0000      -6.034239      -164.2000
  22   2.0000      -6.032651      -164.1568
  23   2.0000      -6.031131      -164.1154
  24   2.0000      -1.010383       -27.4939
  25   2.0000      -0.983193       -26.7540
  26   2.0000      -0.908965       -24.7342
  27   2.0000      -0.900816       -24.5124
  28   2.0000      -0.866831       -23.5877
  29   2.0000      -0.850576       -23.1454
  30   2.0000      -0.844888       -22.9906
  31   2.0000      -0.811095       -22.0710
  32   2.0000      -0.783859       -21.3299
  33   2.0000      -0.767613       -20.8878
  34   2.0000      -0.703466       -19.1423
  35   2.0000      -0.702088       -19.1048
  36   2.0000      -0.692452       -18.8426
  37   2.0000      -0.657751       -17.8983
  38   2.0000      -0.639606       -17.4046
  39   2.0000      -0.616056       -16.7637
  40   2.0000      -0.596582       -16.2338
  41   2.0000      -0.566312       -15.4101
  42   2.0000      -0.560500       -15.2520
  43   2.0000      -0.554153       -15.0793
  44   2.0000      -0.526730       -14.3331
  45   2.0000      -0.523929       -14.2568
  46   2.0000      -0.515978       -14.0405
  47   2.0000      -0.513488       -13.9727
  48   2.0000      -0.506250       -13.7758
  49   2.0000      -0.501090       -13.6353
  50   2.0000      -0.483944       -13.1688
  51   2.0000      -0.477509       -12.9937
  52   2.0000      -0.468240       -12.7415
  53   2.0000      -0.463688       -12.6176
  54   2.0000      -0.461529       -12.5588
  55   2.0000      -0.456149       -12.4125
  56   2.0000      -0.446333       -12.1453
  57   2.0000      -0.441174       -12.0050
  58   2.0000      -0.432140       -11.7591
  59   2.0000      -0.423835       -11.5331
  60   2.0000      -0.417075       -11.3492
  61   2.0000      -0.413978       -11.2649
  62   2.0000      -0.411123       -11.1872
  63   2.0000      -0.345124        -9.3913
  64   2.0000      -0.330848        -9.0028
  65   2.0000      -0.326443        -8.8830
  66   2.0000      -0.285649        -7.7729
  67   0.0000       0.028644         0.7795
  68   0.0000       0.076215         2.0739
  69   0.0000       0.108042         2.9400
  70   0.0000       0.118178         3.2158
  71   0.0000       0.126751         3.4491

MULLIKEN ATOMIC CHARGES
-----------------------
   0 S :    0.112203
   1 C :   -0.124849
   2 C :   -0.101329
   3 C :    0.056399
   4 C :   -0.151859
   5 H :   -0.025847
   6 C :    0.085167
   7 H :    0.027874
   8 H :    0.016075
   9 C :   -0.087978
  10 H :    0.026068
  11 H :    0.023541
  12 C :   -0.038303
  13 H :    0.046147
  14 H :    0.031768
  15 H :    0.035436
  16 S :    0.114657
  17 C :   -0.118375
  18 C :   -0.019243
  19 C :   -0.065213
  20 C :   -0.139478
  21 H :    0.022398
  22 C :    0.105557
  23 H :    0.028635
  24 H :    0.033397
  25 C :   -0.115227
  26 H :    0.037410
  27 H :    0.035434
  28 C :   -0.079666
  29 H :    0.042200
  30 H :    0.027094
  31 H :    0.041832
  32 H :    0.047929
  33 H :    0.070146
Sum of atomic charges:    0.0000000

LOEWDIN ATOMIC CHARGES
----------------------
   0 S :    0.397899
   1 C :   -0.195588
   2 C :   -0.057557
   3 C :   -0.055009
   4 C :   -0.187654
   5 H :    0.008121
   6 C :   -0.035565
   7 H :    0.035304
   8 H :    0.025727
   9 C :   -0.046341
  10 H :    0.027567
  11 H :    0.023734
  12 C :   -0.065378
  13 H :    0.034449
  14 H :    0.022632
  15 H :    0.025481
  16 S :    0.460926
  17 C :   -0.217810
  18 C :   -0.073578
  19 C :   -0.044882
  20 C :   -0.218357
  21 H :    0.030692
  22 C :   -0.034023
  23 H :    0.032060
  24 H :    0.032203
  25 C :   -0.041925
  26 H :    0.026929
  27 H :    0.022552
  28 C :   -0.068046
  29 H :    0.030159
  30 H :    0.015758
  31 H :    0.028817
  32 H :    0.026936
  33 H :    0.033767

  Mayer bond orders larger than 0.100000
B(  0-S ,  1-C ) :   1.1306 B(  0-S ,  4-C ) :   1.1501 B(  1-C ,  2-C ) :   1.6054
B(  1-C , 32-H ) :   0.9690 B(  2-C ,  3-C ) :   1.2376 B(  2-C ,  6-C ) :   1.0285
B(  3-C ,  4-C ) :   1.5583 B(  3-C ,  5-H ) :   1.0018 B(  4-C , 20-C ) :   1.0368
B(  6-C ,  7-H ) :   0.9358 B(  6-C ,  8-H ) :   0.9345 B(  6-C ,  9-C ) :   1.0593
B(  9-C , 10-H ) :   0.9542 B(  9-C , 11-H ) :   0.9551 B(  9-C , 12-C ) :   1.0698
B( 12-C , 13-H ) :   0.9747 B( 12-C , 14-H ) :   0.9771 B( 12-C , 15-H ) :   0.9773
B( 16-S , 17-C ) :   1.2017 B( 16-S , 20-C ) :   1.1610 B( 17-C , 18-C ) :   1.5850
B( 17-C , 33-H ) :   0.9592 B( 18-C , 19-C ) :   1.2422 B( 18-C , 21-H ) :   0.9897
B( 19-C , 20-C ) :   1.5479 B( 19-C , 22-C ) :   1.0508 B( 22-C , 23-H ) :   0.9341
B( 22-C , 24-H ) :   0.9273 B( 22-C , 25-C ) :   1.0563 B( 25-C , 26-H ) :   0.9547
B( 25-C , 27-H ) :   0.9663 B( 25-C , 28-C ) :   1.0732 B( 28-C , 29-H ) :   0.9790
B( 28-C , 30-H ) :   0.9773 B( 28-C , 31-H ) :   0.9767

Dispersion correction           -0.013404888
FINAL SINGLE POINT ENERGY     -1339.868788843557

DIPOLE MOMENT
-------------
                                X             Y             Z
Electronic contribution:    -12.75983       6.97254      -5.16440
Nuclear contribution   :     12.91510      -7.18216       5.08125
                        -----------------------------------------
Total Dipole Moment    :      0.15527      -0.20962      -0.08315
                        -----------------------------------------
Magnitude (a.u.)       :      0.27380
Magnitude (Debye)      :      0.69594

Rotational constants in cm-1:     0.021937     0.006830     0.005846
Rotational constants in MHz :   657.646258   204.772369   175.263847

                             ****ORCA TERMINATED NORMALLY****
TOTAL RUN TIME: 0 days 0 hours 0 minutes 33 seconds 580 msec
