                         Program Version 4.2.1 -  RELEASE  -
|  1> ! wB97X-D3 SP def2-SVP
|  2> %pal
|  3> nprocs 16
|  4> end
|  5>
|  6> * xyz 0 1
|  7> S 	 -56.615 	 53.9107 	 136.575
|  8> C 	 -55.2288 	 54.57 	 135.634
|  9> C 	 -54.0603 	 53.8815 	 135.872
| 10> C 	 -54.3495 	 52.7746 	 136.711
| 11> C 	 -55.6308 	 52.5636 	 137.158
| 12> H 	 -53.6438 	 52.0425 	 137.009
| 13> C 	 -52.7222 	 54.1359 	 135.061
| 14> H 	 -51.9862 	 53.4651 	 135.559
| 15> H 	 -52.3466 	 55.1333 	 135.183
| 16> C 	 -52.7407 	 53.8747 	 133.582
| 17> H 	 -53.6113 	 54.3107 	 133.077
| 18> H 	 -51.8544 	 54.3757 	 133.171
| 19> C 	 -52.7755 	 52.3441 	 133.272
| 20> H 	 -53.7121 	 51.8827 	 133.339
| 21> H 	 -52.2945 	 52.1101 	 132.276
| 22> H 	 -52.1211 	 51.8611 	 133.987
| 23> S 	 -55.9896 	 49.8564 	 136.649
| 24> C 	 -56.7678 	 48.8031 	 137.837
| 25> C 	 -57.2817 	 49.5914 	 138.888
| 26> C 	 -56.9456 	 51.0026 	 138.773
| 27> C 	 -56.2246 	 51.3216 	 137.618
| 28> H 	 -57.7465 	 49.092 	 139.681
| 29> C 	 -57.2388 	 52.0775 	 139.856
| 30> H 	 -58.2788 	 51.8791 	 140.14
| 31> H 	 -57.1564 	 52.9764 	 139.37
| 32> C 	 -56.2537 	 51.9825 	 140.989
| 33> H 	 -55.1654 	 52.1023 	 140.597
| 34> H 	 -56.2682 	 50.9819 	 141.498
| 35> C 	 -56.305 	 53.1436 	 141.934
| 36> H 	 -57.3037 	 53.2836 	 142.283
| 37> H 	 -56.1333 	 54.0536 	 141.452
| 38> H 	 -55.7649 	 52.9494 	 142.863
| 39> H 	 -55.2391 	 55.4353 	 135.051
| 40> H 	 -56.902 	 47.7064 	 137.726
| 41> *
| 42>
| 43>                          ****END OF INPUT****

CARTESIAN COORDINATES (ANGSTROEM)
---------------------------------
  S    -56.615000   53.910700  136.575000
  C    -55.228800   54.570000  135.634000
  C    -54.060300   53.881500  135.872000
  C    -54.349500   52.774600  136.711000
  C    -55.630800   52.563600  137.158000
  H    -53.643800   52.042500  137.009000
  C    -52.722200   54.135900  135.061000
  H    -51.986200   53.465100  135.559000
  H    -52.346600   55.133300  135.183000
  C    -52.740700   53.874700  133.582000
  H    -53.611300   54.310700  133.077000
  H    -51.854400   54.375700  133.171000
  C    -52.775500   52.344100  133.272000
  H    -53.712100   51.882700  133.339000
  H    -52.294500   52.110100  132.276000
  H    -52.121100   51.861100  133.987000
  S    -55.989600   49.856400  136.649000
  C    -56.767800   48.803100  137.837000
  C    -57.281700   49.591400  138.888000
  C    -56.945600   51.002600  138.773000
  C    -56.224600   51.321600  137.618000
  H    -57.746500   49.092000  139.681000
  C    -57.238800   52.077500  139.856000
  H    -58.278800   51.879100  140.140000
  H    -57.156400   52.976400  139.370000
  C    -56.253700   51.982500  140.989000
  H    -55.165400   52.102300  140.597000
  H    -56.268200   50.981900  141.498000
  C    -56.305000   53.143600  141.934000
  H    -57.303700   53.283600  142.283000
  H    -56.133300   54.053600  141.452000
  H    -55.764900   52.949400  142.863000
  H    -55.239100   55.435300  135.051000
  H    -56.902000   47.706400  137.726000

 Total Charge           Charge          ....    0
 Multiplicity           Mult            ....    1
 Number of Electrons    NEL             ....  134
 Basis Dimension        Dim             ....  322

ORBITAL ENERGIES
----------------

  NO   OCC          E(Eh)            E(eV)
   0   2.0000     -88.966285     -2420.8957
   1   2.0000     -88.965182     -2420.8657
   2   2.0000     -10.329467      -281.0791
   3   2.0000     -10.328705      -281.0584
   4   2.0000     -10.326625      -281.0017
   5   2.0000     -10.316231      -280.7189
   6   2.0000     -10.308400      -280.5058
   7   2.0000     -10.306211      -280.4463
   8   2.0000     -10.299689      -280.2688
   9   2.0000     -10.297862      -280.2191
  10   2.0000     -10.293097      -280.0894
  11   2.0000     -10.290133      -280.0088
  12   2.0000     -10.288337      -279.9599
  13   2.0000     -10.286054      -279.8978
  14   2.0000     -10.274721      -279.5894
  15   2.0000     -10.264533      -279.3121
  16   2.0000      -8.079843      -219.8637
  17   2.0000      -8.079013      -219.8411
  18   2.0000      -6.038456      -164.3148
  19   2.0000      -6.037626      -164.2921
  20   2.0000      -6.034488      -164.2068
  21   2.0000      -6.033483      -164.1794
  22   2.0000      -6.030575      -164.1003
  23   2.0000      -6.029866      -164.0810
  24   2.0000      -1.001267       -27.2459
  25   2.0000      -0.976774       -26.5794
  26   2.0000      -0.912028       -24.8175
  27   2.0000      -0.911104       -24.7924
  28   2.0000      -0.868727       -23.6393
  29   2.0000      -0.848313       -23.0838
  30   2.0000      -0.840222       -22.8636
  31   2.0000      -0.813335       -22.1320
  32   2.0000      -0.785990       -21.3879
  33   2.0000      -0.774113       -21.0647
  34   2.0000      -0.706060       -19.2129
  35   2.0000      -0.701149       -19.0792
  36   2.0000      -0.692615       -18.8470
  37   2.0000      -0.662623       -18.0309
  38   2.0000      -0.641875       -17.4663
  39   2.0000      -0.614498       -16.7213
  40   2.0000      -0.591437       -16.0938
  41   2.0000      -0.575496       -15.6600
  42   2.0000      -0.567422       -15.4403
  43   2.0000      -0.549992       -14.9661
  44   2.0000      -0.543905       -14.8004
  45   2.0000      -0.532831       -14.4991
  46   2.0000      -0.515879       -14.0378
  47   2.0000      -0.512601       -13.9486
  48   2.0000      -0.505675       -13.7601
  49   2.0000      -0.498196       -13.5566
  50   2.0000      -0.491192       -13.3660
  51   2.0000      -0.479990       -13.0612
  52   2.0000      -0.470743       -12.8096
  53   2.0000      -0.465540       -12.6680
  54   2.0000      -0.454913       -12.3788
  55   2.0000      -0.442361       -12.0373
  56   2.0000      -0.439820       -11.9681
  57   2.0000      -0.436917       -11.8891
  58   2.0000      -0.436620       -11.8810
  59   2.0000      -0.429644       -11.6912
  60   2.0000      -0.415673       -11.3110
  61   2.0000      -0.412979       -11.2377
  62   2.0000      -0.399662       -10.8754
  63   2.0000      -0.339921        -9.2497
  64   2.0000      -0.334925        -9.1138
  65   2.0000      -0.328386        -8.9358
  66   2.0000      -0.298350        -8.1185
  67   0.0000       0.028453         0.7742
  68   0.0000       0.058068         1.5801
  69   0.0000       0.106920         2.9094
  70   0.0000       0.114360         3.1119
  71   0.0000       0.127479         3.4689

MULLIKEN ATOMIC CHARGES
-----------------------
   0 S :    0.097807
   1 C :   -0.106827
   2 C :   -0.059584
   3 C :    0.000956
   4 C :   -0.144544
   5 H :   -0.003275
   6 C :    0.054824
   7 H :    0.028685
   8 H :    0.028589
   9 C :   -0.065771
  10 H :    0.035268
  11 H :    0.034003
  12 C :   -0.052564
  13 H :    0.042609
  14 H :    0.037824
  15 H :    0.013429
  16 S :    0.107646
  17 C :   -0.124129
  18 C :   -0.014250
  19 C :   -0.072029
  20 C :   -0.140833
  21 H :    0.003194
  22 C :    0.158674
  23 H :    0.031135
  24 H :   -0.014667
  25 C :   -0.132421
  26 H :    0.040522
  27 H :    0.035036
  28 C :    0.021238
  29 H :   -0.004551
  30 H :    0.020421
  31 H :    0.035769
  32 H :    0.028097
  33 H :    0.079717
Sum of atomic charges:   -0.0000000

LOEWDIN ATOMIC CHARGES
----------------------
   0 S :    0.379002
   1 C :   -0.159241
   2 C :   -0.065389
   3 C :   -0.057534
   4 C :   -0.197633
   5 H :    0.023277
   6 C :   -0.026528
   7 H :    0.032438
   8 H :    0.028753
   9 C :   -0.041471
  10 H :    0.026229
  11 H :    0.028669
  12 C :   -0.063509
  13 H :    0.020919
  14 H :    0.033216
  15 H :    0.019784
  16 S :    0.395802
  17 C :   -0.184713
  18 C :   -0.069874
  19 C :   -0.043470
  20 C :   -0.201363
  21 H :    0.021765
  22 C :   -0.019387
  23 H :    0.034074
  24 H :    0.011354
  25 C :   -0.049095
  26 H :    0.036498
  27 H :    0.026856
  28 C :   -0.063852
  29 H :    0.016628
  30 H :    0.020197
  31 H :    0.031506
  32 H :    0.015635
  33 H :    0.040458

  Mayer bond orders larger than 0.100000
B(  0-S ,  1-C ) :   1.1500 B(  0-S ,  4-C ) :   1.1185 B(  1-C ,  2-C ) :   1.6101
B(  1-C , 32-H ) :   0.9722 B(  2-C ,  3-C ) :   1.2331 B(  2-C ,  6-C ) :   1.0029
B(  3-C ,  4-C ) :   1.5926 B(  3-C ,  5-H ) :   1.0065 B(  4-C , 20-C ) :   1.0417
B(  6-C ,  7-H ) :   0.9463 B(  6-C ,  8-H ) :   0.9401 B(  6-C ,  9-C ) :   1.0854
B(  9-C , 10-H ) :   0.9556 B(  9-C , 11-H ) :   0.9544 B(  9-C , 12-C ) :   1.0625
B( 12-C , 13-H ) :   0.9796 B( 12-C , 14-H ) :   0.9760 B( 12-C , 15-H ) :   0.9779
B( 16-S , 17-C ) :   1.1642 B( 16-S , 20-C ) :   1.1268 B( 17-C , 18-C ) :   1.5921
B( 17-C , 33-H ) :   0.9636 B( 18-C , 19-C ) :   1.2415 B( 18-C , 21-H ) :   1.0004
B( 19-C , 20-C ) :   1.5853 B( 19-C , 22-C ) :   1.0382 B( 22-C , 23-H ) :   0.9282
B( 22-C , 24-H ) :   0.9175 B( 22-C , 25-C ) :   1.0731 B( 25-C , 26-H ) :   0.9556
B( 25-C , 27-H ) :   0.9553 B( 25-C , 28-C ) :   1.0883 B( 28-C , 29-H ) :   0.9631
B( 28-C , 30-H ) :   0.9713 B( 28-C , 31-H ) :   0.9706

Dispersion correction           -0.014456510
FINAL SINGLE POINT ENERGY     -1339.863566087466

DIPOLE MOMENT
-------------
                                X             Y             Z
Electronic contribution:    -11.17506      -5.61047      -4.61808
Nuclear contribution   :     11.49125       5.61795       4.70064
                        -----------------------------------------
Total Dipole Moment    :      0.31618       0.00747       0.08255
                        -----------------------------------------
Magnitude (a.u.)       :      0.32687
Magnitude (Debye)      :      0.83083

Rotational constants in cm-1:     0.020191     0.008365     0.006790
Rotational constants in MHz :   605.300100   250.785460   203.573466

                             ****ORCA TERMINATED NORMALLY****
TOTAL RUN TIME: 0 days 0 hours 0 minutes 32 seconds 881 msec
