                         Program Version 4.2.1 -  RELEASE  -
|  1> ! wB97X-D3 SP def2-SVP
|  2> %pal
|  3> nprocs 16
|  4> end
|  5>
|  6> * xyz 0 1
|  7> S 	 -33.0964 	 58.2324 	 111.741
|  8> C 	 -34.4961 	 58.2147 	 110.74
|  9> C 	 -35.6178 	 57.8422 	 111.443
| 10> C 	 -35.3424 	 57.7382 	 112.836
| 11> C 	 -34.0055 	 58.0355 	 113.23
| 12> H 	 -36.1208 	 57.5641 	 113.594
| 13> C 	 -36.991 	 57.6976 	 110.931
| 14> H 	 -37.5398 	 57.1614 	 111.712
| 15> H 	 -36.9738 	 57.1053 	 109.955
| 16> C 	 -37.5938 	 59.0807 	 110.782
| 17> H 	 -37.471 	 59.5407 	 111.774
| 18> H 	 -36.9909 	 59.6432 	 110.067
| 19> C 	 -39.085 	 59.0066 	 110.225
| 20> H 	 -39.3194 	 59.9732 	 109.843
| 21> H 	 -39.3001 	 58.2631 	 109.43
| 22> H 	 -39.7955 	 58.718 	 110.915
| 23> S 	 -31.65 	 57.817 	 114.798
| 24> C 	 -31.6055 	 58.2962 	 116.448
| 25> C 	 -32.8673 	 58.579 	 116.917
| 26> C 	 -33.87 	 58.5879 	 115.822
| 27> C 	 -33.3736 	 58.1994 	 114.549
| 28> H 	 -32.9997 	 58.9761 	 117.919
| 29> C 	 -35.1782 	 59.2324 	 116.073
| 30> H 	 -35.7569 	 59.2862 	 115.142
| 31> H 	 -35.1182 	 60.3004 	 116.394
| 32> C 	 -36.0034 	 58.5397 	 117.164
| 33> H 	 -35.467 	 58.4147 	 118.114
| 34> H 	 -36.2022 	 57.5417 	 116.896
| 35> C 	 -37.3798 	 59.1295 	 117.44
| 36> H 	 -37.7923 	 59.3696 	 116.472
| 37> H 	 -37.2182 	 60.0614 	 117.977
| 38> H 	 -37.9714 	 58.406 	 117.997
| 39> H 	 -34.5013 	 58.2826 	 109.686
| 40> H 	 -30.7281 	 58.2075 	 117.045
| 41> *
| 42>
| 43>                          ****END OF INPUT****

CARTESIAN COORDINATES (ANGSTROEM)
---------------------------------
  S    -33.096400   58.232400  111.741000
  C    -34.496100   58.214700  110.740000
  C    -35.617800   57.842200  111.443000
  C    -35.342400   57.738200  112.836000
  C    -34.005500   58.035500  113.230000
  H    -36.120800   57.564100  113.594000
  C    -36.991000   57.697600  110.931000
  H    -37.539800   57.161400  111.712000
  H    -36.973800   57.105300  109.955000
  C    -37.593800   59.080700  110.782000
  H    -37.471000   59.540700  111.774000
  H    -36.990900   59.643200  110.067000
  C    -39.085000   59.006600  110.225000
  H    -39.319400   59.973200  109.843000
  H    -39.300100   58.263100  109.430000
  H    -39.795500   58.718000  110.915000
  S    -31.650000   57.817000  114.798000
  C    -31.605500   58.296200  116.448000
  C    -32.867300   58.579000  116.917000
  C    -33.870000   58.587900  115.822000
  C    -33.373600   58.199400  114.549000
  H    -32.999700   58.976100  117.919000
  C    -35.178200   59.232400  116.073000
  H    -35.756900   59.286200  115.142000
  H    -35.118200   60.300400  116.394000
  C    -36.003400   58.539700  117.164000
  H    -35.467000   58.414700  118.114000
  H    -36.202200   57.541700  116.896000
  C    -37.379800   59.129500  117.440000
  H    -37.792300   59.369600  116.472000
  H    -37.218200   60.061400  117.977000
  H    -37.971400   58.406000  117.997000
  H    -34.501300   58.282600  109.686000
  H    -30.728100   58.207500  117.045000

 Total Charge           Charge          ....    0
 Multiplicity           Mult            ....    1
 Number of Electrons    NEL             ....  134
 Basis Dimension        Dim             ....  322

ORBITAL ENERGIES
----------------

  NO   OCC          E(Eh)            E(eV)
   0   2.0000     -88.967853     -2420.9384
   1   2.0000     -88.963923     -2420.8314
   2   2.0000     -10.340808      -281.3877
   3   2.0000     -10.339975      -281.3650
   4   2.0000     -10.318705      -280.7862
   5   2.0000     -10.312485      -280.6170
   6   2.0000     -10.310064      -280.5511
   7   2.0000     -10.301026      -280.3052
   8   2.0000     -10.299810      -280.2721
   9   2.0000     -10.296974      -280.1949
  10   2.0000     -10.293695      -280.1057
  11   2.0000     -10.293470      -280.0996
  12   2.0000     -10.291602      -280.0487
  13   2.0000     -10.277683      -279.6700
  14   2.0000     -10.276066      -279.6260
  15   2.0000     -10.275936      -279.6224
  16   2.0000      -8.082805      -219.9443
  17   2.0000      -8.078935      -219.8390
  18   2.0000      -6.041355      -164.3936
  19   2.0000      -6.037547      -164.2900
  20   2.0000      -6.037163      -164.2796
  21   2.0000      -6.033618      -164.1831
  22   2.0000      -6.033315      -164.1748
  23   2.0000      -6.029639      -164.0748
  24   2.0000      -1.005716       -27.3669
  25   2.0000      -0.986277       -26.8380
  26   2.0000      -0.918736       -25.0001
  27   2.0000      -0.913548       -24.8589
  28   2.0000      -0.870015       -23.6743
  29   2.0000      -0.852358       -23.1938
  30   2.0000      -0.844236       -22.9728
  31   2.0000      -0.816215       -22.2103
  32   2.0000      -0.783600       -21.3228
  33   2.0000      -0.772110       -21.0102
  34   2.0000      -0.707400       -19.2493
  35   2.0000      -0.706673       -19.2296
  36   2.0000      -0.697739       -18.9865
  37   2.0000      -0.660244       -17.9662
  38   2.0000      -0.639322       -17.3968
  39   2.0000      -0.623524       -16.9669
  40   2.0000      -0.600992       -16.3538
  41   2.0000      -0.573614       -15.6088
  42   2.0000      -0.567358       -15.4386
  43   2.0000      -0.562041       -15.2939
  44   2.0000      -0.533810       -14.5257
  45   2.0000      -0.527223       -14.3465
  46   2.0000      -0.519656       -14.1406
  47   2.0000      -0.515065       -14.0156
  48   2.0000      -0.508531       -13.8378
  49   2.0000      -0.498548       -13.5662
  50   2.0000      -0.496043       -13.4980
  51   2.0000      -0.482791       -13.1374
  52   2.0000      -0.475228       -12.9316
  53   2.0000      -0.464379       -12.6364
  54   2.0000      -0.458429       -12.4745
  55   2.0000      -0.452680       -12.3181
  56   2.0000      -0.446098       -12.1389
  57   2.0000      -0.437716       -11.9109
  58   2.0000      -0.432106       -11.7582
  59   2.0000      -0.429077       -11.6758
  60   2.0000      -0.420849       -11.4519
  61   2.0000      -0.414995       -11.2926
  62   2.0000      -0.409371       -11.1395
  63   2.0000      -0.361034        -9.8242
  64   2.0000      -0.331660        -9.0249
  65   2.0000      -0.323838        -8.8121
  66   2.0000      -0.285254        -7.7621
  67   0.0000       0.017163         0.4670
  68   0.0000       0.079456         2.1621
  69   0.0000       0.106728         2.9042
  70   0.0000       0.116230         3.1628
  71   0.0000       0.126810         3.4507

MULLIKEN ATOMIC CHARGES
-----------------------
   0 S :    0.115986
   1 C :   -0.095206
   2 C :   -0.111330
   3 C :    0.015940
   4 C :   -0.155397
   5 H :    0.017202
   6 C :    0.050078
   7 H :    0.024333
   8 H :    0.042664
   9 C :   -0.080389
  10 H :    0.034868
  11 H :    0.028575
  12 C :   -0.006859
  13 H :    0.029621
  14 H :    0.026481
  15 H :    0.014482
  16 S :    0.087866
  17 C :   -0.079117
  18 C :   -0.022605
  19 C :   -0.050578
  20 C :   -0.099750
  21 H :    0.033066
  22 C :    0.038836
  23 H :    0.011064
  24 H :    0.038953
  25 C :   -0.107436
  26 H :    0.024569
  27 H :    0.007421
  28 C :   -0.014805
  29 H :    0.018834
  30 H :    0.028743
  31 H :    0.042718
  32 H :    0.031970
  33 H :    0.059199
Sum of atomic charges:   -0.0000000

LOEWDIN ATOMIC CHARGES
----------------------
   0 S :    0.424174
   1 C :   -0.199386
   2 C :   -0.069448
   3 C :   -0.068824
   4 C :   -0.191357
   5 H :    0.029529
   6 C :   -0.038025
   7 H :    0.030576
   8 H :    0.037371
   9 C :   -0.030224
  10 H :    0.029901
  11 H :    0.023130
  12 C :   -0.064052
  13 H :    0.023404
  14 H :    0.031098
  15 H :    0.014337
  16 S :    0.398281
  17 C :   -0.180900
  18 C :   -0.072657
  19 C :   -0.050867
  20 C :   -0.190785
  21 H :    0.033853
  22 C :   -0.039819
  23 H :    0.026497
  24 H :    0.036416
  25 C :   -0.044646
  26 H :    0.021385
  27 H :    0.014313
  28 C :   -0.057192
  29 H :    0.021275
  30 H :    0.023352
  31 H :    0.029520
  32 H :    0.021699
  33 H :    0.028072

  Mayer bond orders larger than 0.100000
B(  0-S ,  1-C ) :   1.1534 B(  0-S ,  4-C ) :   1.1693 B(  1-C ,  2-C ) :   1.5743
B(  1-C ,  4-C ) :   0.1066 B(  1-C , 32-H ) :   0.9717 B(  2-C ,  3-C ) :   1.2879
B(  2-C ,  6-C ) :   1.0359 B(  3-C ,  4-C ) :   1.5159 B(  3-C ,  5-H ) :   0.9825
B(  4-C , 20-C ) :   1.0770 B(  6-C ,  7-H ) :   0.9383 B(  6-C ,  8-H ) :   0.9328
B(  6-C ,  9-C ) :   1.0644 B(  9-C , 10-H ) :   0.9536 B(  9-C , 11-H ) :   0.9622
B(  9-C , 12-C ) :   1.0617 B( 12-C , 13-H ) :   0.9774 B( 12-C , 14-H ) :   0.9749
B( 12-C , 15-H ) :   0.9757 B( 16-S , 17-C ) :   1.1663 B( 16-S , 20-C ) :   1.1184
B( 17-C , 18-C ) :   1.6141 B( 17-C , 33-H ) :   0.9687 B( 18-C , 19-C ) :   1.2208
B( 18-C , 21-H ) :   0.9864 B( 19-C , 20-C ) :   1.5778 B( 19-C , 22-C ) :   1.0680
B( 22-C , 23-H ) :   0.9333 B( 22-C , 24-H ) :   0.9375 B( 22-C , 25-C ) :   1.0487
B( 25-C , 26-H ) :   0.9562 B( 25-C , 27-H ) :   0.9532 B( 25-C , 28-C ) :   1.0868
B( 28-C , 29-H ) :   0.9724 B( 28-C , 30-H ) :   0.9746 B( 28-C , 31-H ) :   0.9752

Dispersion correction           -0.013511561
FINAL SINGLE POINT ENERGY     -1339.874359622414

DIPOLE MOMENT
-------------
                                X             Y             Z
Electronic contribution:     31.81612      -5.89819      -3.20192
Nuclear contribution   :    -32.45313       6.05877       3.39059
                        -----------------------------------------
Total Dipole Moment    :     -0.63701       0.16058       0.18868
                        -----------------------------------------
Magnitude (a.u.)       :      0.68350
Magnitude (Debye)      :      1.73731

Rotational constants in cm-1:     0.017279     0.008779     0.006007
Rotational constants in MHz :   518.020769   263.200669   180.083456

                             ****ORCA TERMINATED NORMALLY****
TOTAL RUN TIME: 0 days 0 hours 0 minutes 29 seconds 562 msec
