                         Program Version 4.2.1 -  RELEASE  -
|  1> ! wB97X-D3 SP def2-SVP
|  2> %pal
|  3> nprocs 16
|  4> end
|  5>
|  6> * xyz 0 1
|  7> S 	 -43.1051 	 19.1616 	 69.848
|  8> C 	 -41.6116 	 18.9177 	 69.1031
|  9> C 	 -40.9999 	 17.7429 	 69.5005
| 10> C 	 -41.9142 	 16.9396 	 70.3192
| 11> C 	 -43.0297 	 17.6263 	 70.8129
| 12> H 	 -41.8276 	 15.9163 	 70.7086
| 13> C 	 -39.6702 	 17.269 	 68.8548
| 14> H 	 -39.1871 	 16.7668 	 69.7242
| 15> H 	 -39.1082 	 18.1506 	 68.7043
| 16> C 	 -39.6392 	 16.3816 	 67.6138
| 17> H 	 -40.5696 	 16.4047 	 67.0432
| 18> H 	 -38.8046 	 16.6679 	 66.9444
| 19> C 	 -39.38 	 14.8554 	 67.9461
| 20> H 	 -40.0477 	 14.4576 	 68.7387
| 21> H 	 -39.5203 	 14.2007 	 67.1152
| 22> H 	 -38.3902 	 14.6445 	 68.3442
| 23> S 	 -45.7529 	 17.2463 	 70.8693
| 24> C 	 -46.4575 	 16.1216 	 71.9849
| 25> C 	 -45.4746 	 15.592 	 72.8249
| 26> C 	 -44.1893 	 16.1515 	 72.5712
| 27> C 	 -44.1978 	 17.0317 	 71.5024
| 28> H 	 -45.7082 	 14.8621 	 73.5496
| 29> C 	 -43.0411 	 15.5066 	 73.2632
| 30> H 	 -42.4647 	 15.0509 	 72.5483
| 31> H 	 -43.4048 	 14.5787 	 73.8603
| 32> C 	 -42.13 	 16.3688 	 74.1438
| 33> H 	 -41.6028 	 17.1569 	 73.5575
| 34> H 	 -41.3554 	 15.6954 	 74.5189
| 35> C 	 -42.7517 	 17.0787 	 75.3482
| 36> H 	 -43.7428 	 17.425 	 75.0431
| 37> H 	 -41.99 	 17.8129 	 75.716
| 38> H 	 -42.8901 	 16.384 	 76.1153
| 39> H 	 -41.251 	 19.5225 	 68.3364
| 40> H 	 -47.4632 	 15.7735 	 71.9284
| 41> *
| 42>
| 43>                          ****END OF INPUT****

CARTESIAN COORDINATES (ANGSTROEM)
---------------------------------
  S    -43.105100   19.161600   69.848000
  C    -41.611600   18.917700   69.103100
  C    -40.999900   17.742900   69.500500
  C    -41.914200   16.939600   70.319200
  C    -43.029700   17.626300   70.812900
  H    -41.827600   15.916300   70.708600
  C    -39.670200   17.269000   68.854800
  H    -39.187100   16.766800   69.724200
  H    -39.108200   18.150600   68.704300
  C    -39.639200   16.381600   67.613800
  H    -40.569600   16.404700   67.043200
  H    -38.804600   16.667900   66.944400
  C    -39.380000   14.855400   67.946100
  H    -40.047700   14.457600   68.738700
  H    -39.520300   14.200700   67.115200
  H    -38.390200   14.644500   68.344200
  S    -45.752900   17.246300   70.869300
  C    -46.457500   16.121600   71.984900
  C    -45.474600   15.592000   72.824900
  C    -44.189300   16.151500   72.571200
  C    -44.197800   17.031700   71.502400
  H    -45.708200   14.862100   73.549600
  C    -43.041100   15.506600   73.263200
  H    -42.464700   15.050900   72.548300
  H    -43.404800   14.578700   73.860300
  C    -42.130000   16.368800   74.143800
  H    -41.602800   17.156900   73.557500
  H    -41.355400   15.695400   74.518900
  C    -42.751700   17.078700   75.348200
  H    -43.742800   17.425000   75.043100
  H    -41.990000   17.812900   75.716000
  H    -42.890100   16.384000   76.115300
  H    -41.251000   19.522500   68.336400
  H    -47.463200   15.773500   71.928400

 Total Charge           Charge          ....    0
 Multiplicity           Mult            ....    1
 Number of Electrons    NEL             ....  134
 Basis Dimension        Dim             ....  322

ORBITAL ENERGIES
----------------

  NO   OCC          E(Eh)            E(eV)
   0   2.0000     -88.969039     -2420.9706
   1   2.0000     -88.963884     -2420.8304
   2   2.0000     -10.336174      -281.2616
   3   2.0000     -10.327294      -281.0200
   4   2.0000     -10.315708      -280.7047
   5   2.0000     -10.309852      -280.5453
   6   2.0000     -10.307307      -280.4761
   7   2.0000     -10.304013      -280.3864
   8   2.0000     -10.299105      -280.2529
   9   2.0000     -10.294780      -280.1352
  10   2.0000     -10.293902      -280.1113
  11   2.0000     -10.292054      -280.0610
  12   2.0000     -10.289923      -280.0030
  13   2.0000     -10.281481      -279.7733
  14   2.0000     -10.278994      -279.7056
  15   2.0000     -10.269259      -279.4408
  16   2.0000      -8.084906      -220.0015
  17   2.0000      -8.078915      -219.8384
  18   2.0000      -6.043290      -164.4463
  19   2.0000      -6.039093      -164.3321
  20   2.0000      -6.037396      -164.2859
  21   2.0000      -6.035883      -164.2447
  22   2.0000      -6.033316      -164.1749
  23   2.0000      -6.029744      -164.0777
  24   2.0000      -1.011573       -27.5263
  25   2.0000      -0.986961       -26.8566
  26   2.0000      -0.911093       -24.7921
  27   2.0000      -0.903789       -24.5933
  28   2.0000      -0.871836       -23.7239
  29   2.0000      -0.854307       -23.2469
  30   2.0000      -0.841104       -22.8876
  31   2.0000      -0.817709       -22.2510
  32   2.0000      -0.785170       -21.3656
  33   2.0000      -0.773185       -21.0394
  34   2.0000      -0.706695       -19.2302
  35   2.0000      -0.703486       -19.1428
  36   2.0000      -0.684719       -18.6322
  37   2.0000      -0.671374       -18.2690
  38   2.0000      -0.647084       -17.6080
  39   2.0000      -0.613300       -16.6887
  40   2.0000      -0.595080       -16.1929
  41   2.0000      -0.569676       -15.5017
  42   2.0000      -0.555315       -15.1109
  43   2.0000      -0.550462       -14.9788
  44   2.0000      -0.545689       -14.8490
  45   2.0000      -0.531877       -14.4731
  46   2.0000      -0.519285       -14.1305
  47   2.0000      -0.513102       -13.9622
  48   2.0000      -0.507855       -13.8194
  49   2.0000      -0.495210       -13.4754
  50   2.0000      -0.489254       -13.3133
  51   2.0000      -0.483823       -13.1655
  52   2.0000      -0.473032       -12.8719
  53   2.0000      -0.468797       -12.7566
  54   2.0000      -0.460501       -12.5309
  55   2.0000      -0.447780       -12.1847
  56   2.0000      -0.443404       -12.0656
  57   2.0000      -0.439830       -11.9684
  58   2.0000      -0.430083       -11.7032
  59   2.0000      -0.421908       -11.4807
  60   2.0000      -0.414615       -11.2823
  61   2.0000      -0.412374       -11.2213
  62   2.0000      -0.407484       -11.0882
  63   2.0000      -0.356266        -9.6945
  64   2.0000      -0.334364        -9.0985
  65   2.0000      -0.324426        -8.8281
  66   2.0000      -0.290533        -7.9058
  67   0.0000       0.025478         0.6933
  68   0.0000       0.074294         2.0216
  69   0.0000       0.107859         2.9350
  70   0.0000       0.118476         3.2239
  71   0.0000       0.130888         3.5616

MULLIKEN ATOMIC CHARGES
-----------------------
   0 S :    0.091059
   1 C :   -0.080999
   2 C :   -0.110463
   3 C :    0.009755
   4 C :   -0.146770
   5 H :    0.023071
   6 C :    0.071351
   7 H :    0.032344
   8 H :    0.014752
   9 C :   -0.040837
  10 H :    0.041618
  11 H :    0.039611
  12 C :   -0.081601
  13 H :    0.028559
  14 H :    0.028381
  15 H :    0.027926
  16 S :    0.128994
  17 C :   -0.095591
  18 C :   -0.029826
  19 C :   -0.035074
  20 C :   -0.133926
  21 H :    0.008348
  22 C :    0.056848
  23 H :    0.004025
  24 H :    0.025678
  25 C :   -0.097382
  26 H :    0.041053
  27 H :    0.020572
  28 C :   -0.021304
  29 H :    0.040403
  30 H :    0.045016
  31 H :    0.007190
  32 H :    0.034889
  33 H :    0.052327
Sum of atomic charges:    0.0000000

LOEWDIN ATOMIC CHARGES
----------------------
   0 S :    0.398166
   1 C :   -0.196295
   2 C :   -0.068971
   3 C :   -0.057662
   4 C :   -0.180952
   5 H :    0.032239
   6 C :   -0.034279
   7 H :    0.037131
   8 H :    0.026434
   9 C :   -0.039330
  10 H :    0.028771
  11 H :    0.031508
  12 C :   -0.070327
  13 H :    0.024536
  14 H :    0.020723
  15 H :    0.021551
  16 S :    0.448305
  17 C :   -0.190669
  18 C :   -0.061318
  19 C :   -0.064104
  20 C :   -0.218536
  21 H :    0.024849
  22 C :   -0.033464
  23 H :    0.017111
  24 H :    0.040221
  25 C :   -0.044769
  26 H :    0.027248
  27 H :    0.022375
  28 C :   -0.062201
  29 H :    0.028134
  30 H :    0.036494
  31 H :    0.012127
  32 H :    0.019942
  33 H :    0.025014

  Mayer bond orders larger than 0.100000
B(  0-S ,  1-C ) :   1.1705 B(  0-S ,  4-C ) :   1.1274 B(  1-C ,  2-C ) :   1.5905
B(  1-C , 32-H ) :   0.9747 B(  2-C ,  3-C ) :   1.2322 B(  2-C ,  6-C ) :   1.0322
B(  3-C ,  4-C ) :   1.5869 B(  3-C ,  5-H ) :   0.9796 B(  4-C , 20-C ) :   1.0405
B(  6-C ,  7-H ) :   0.9444 B(  6-C ,  8-H ) :   0.9405 B(  6-C ,  9-C ) :   1.0383
B(  9-C , 10-H ) :   0.9629 B(  9-C , 11-H ) :   0.9585 B(  9-C , 12-C ) :   1.0734
B( 12-C , 13-H ) :   0.9790 B( 12-C , 14-H ) :   0.9764 B( 12-C , 15-H ) :   0.9772
B( 16-S , 17-C ) :   1.1744 B( 16-S , 20-C ) :   1.1693 B( 17-C , 18-C ) :   1.5654
B( 17-C , 33-H ) :   0.9736 B( 18-C , 19-C ) :   1.2742 B( 18-C , 21-H ) :   1.0002
B( 19-C , 20-C ) :   1.5559 B( 19-C , 22-C ) :   1.0324 B( 22-C , 23-H ) :   0.9268
B( 22-C , 24-H ) :   0.9376 B( 22-C , 25-C ) :   1.0768 B( 25-C , 26-H ) :   0.9578
B( 25-C , 27-H ) :   0.9530 B( 25-C , 28-C ) :   1.0744 B( 28-C , 29-H ) :   0.9766
B( 28-C , 30-H ) :   0.9744 B( 28-C , 31-H ) :   0.9743

Dispersion correction           -0.014287125
FINAL SINGLE POINT ENERGY     -1339.863048260157

DIPOLE MOMENT
-------------
                                X             Y             Z
Electronic contribution:    -21.25811      13.71985      -5.38342
Nuclear contribution   :     21.65100     -14.33920       5.27074
                        -----------------------------------------
Total Dipole Moment    :      0.39289      -0.61936      -0.11268
                        -----------------------------------------
Magnitude (a.u.)       :      0.74207
Magnitude (Debye)      :      1.88618

Rotational constants in cm-1:     0.018158     0.008373     0.007275
Rotational constants in MHz :   544.368917   251.015710   218.091624

                             ****ORCA TERMINATED NORMALLY****
TOTAL RUN TIME: 0 days 0 hours 0 minutes 30 seconds 398 msec
