                         Program Version 4.2.1 -  RELEASE  -
|  1> ! wB97X-D3 SP def2-SVP
|  2> %pal
|  3> nprocs 16
|  4> end
|  5>
|  6> * xyz 0 1
|  7> S 	 -117.603 	 47.1414 	 133.517
|  8> C 	 -117.384 	 47.1633 	 135.26
|  9> C 	 -116.064 	 46.823 	 135.598
| 10> C 	 -115.374 	 46.3633 	 134.425
| 11> C 	 -116.025 	 46.5556 	 133.253
| 12> H 	 -114.442 	 45.8729 	 134.332
| 13> C 	 -115.439 	 46.7569 	 136.946
| 14> H 	 -114.851 	 45.8443 	 137.038
| 15> H 	 -116.222 	 46.6825 	 137.722
| 16> C 	 -114.628 	 47.9508 	 137.439
| 17> H 	 -114.458 	 47.9361 	 138.554
| 18> H 	 -113.667 	 47.8813 	 137.038
| 19> C 	 -115.289 	 49.3292 	 137.213
| 20> H 	 -114.53 	 50.0319 	 137.414
| 21> H 	 -115.726 	 49.4978 	 136.185
| 22> H 	 -116.14 	 49.3765 	 137.851
| 23> S 	 -116.659 	 45.3773 	 130.915
| 24> C 	 -115.459 	 45.2928 	 129.651
| 25> C 	 -114.273 	 45.8531 	 129.997
| 26> C 	 -114.352 	 46.5361 	 131.255
| 27> C 	 -115.514 	 46.167 	 131.932
| 28> H 	 -113.404 	 45.8501 	 129.347
| 29> C 	 -113.201 	 47.2957 	 131.876
| 30> H 	 -112.306 	 47.0763 	 131.317
| 31> H 	 -113.096 	 47.0542 	 132.951
| 32> C 	 -113.335 	 48.7915 	 131.778
| 33> H 	 -113.757 	 49.2262 	 130.842
| 34> H 	 -112.334 	 49.2486 	 131.77
| 35> C 	 -114.213 	 49.4323 	 132.85
| 36> H 	 -115.296 	 49.2665 	 132.654
| 37> H 	 -114.098 	 50.4751 	 132.664
| 38> H 	 -113.867 	 49.0115 	 133.85
| 39> H 	 -118.09 	 47.5587 	 135.977
| 40> H 	 -115.622 	 44.8554 	 128.661
| 41> *
| 42>
| 43>                          ****END OF INPUT****

CARTESIAN COORDINATES (ANGSTROEM)
---------------------------------
  S    -117.603000   47.141400  133.517000
  C    -117.384000   47.163300  135.260000
  C    -116.064000   46.823000  135.598000
  C    -115.374000   46.363300  134.425000
  C    -116.025000   46.555600  133.253000
  H    -114.442000   45.872900  134.332000
  C    -115.439000   46.756900  136.946000
  H    -114.851000   45.844300  137.038000
  H    -116.222000   46.682500  137.722000
  C    -114.628000   47.950800  137.439000
  H    -114.458000   47.936100  138.554000
  H    -113.667000   47.881300  137.038000
  C    -115.289000   49.329200  137.213000
  H    -114.530000   50.031900  137.414000
  H    -115.726000   49.497800  136.185000
  H    -116.140000   49.376500  137.851000
  S    -116.659000   45.377300  130.915000
  C    -115.459000   45.292800  129.651000
  C    -114.273000   45.853100  129.997000
  C    -114.352000   46.536100  131.255000
  C    -115.514000   46.167000  131.932000
  H    -113.404000   45.850100  129.347000
  C    -113.201000   47.295700  131.876000
  H    -112.306000   47.076300  131.317000
  H    -113.096000   47.054200  132.951000
  C    -113.335000   48.791500  131.778000
  H    -113.757000   49.226200  130.842000
  H    -112.334000   49.248600  131.770000
  C    -114.213000   49.432300  132.850000
  H    -115.296000   49.266500  132.654000
  H    -114.098000   50.475100  132.664000
  H    -113.867000   49.011500  133.850000
  H    -118.090000   47.558700  135.977000
  H    -115.622000   44.855400  128.661000

 Total Charge           Charge          ....    0
 Multiplicity           Mult            ....    1
 Number of Electrons    NEL             ....  134
 Basis Dimension        Dim             ....  322

ORBITAL ENERGIES
----------------

  NO   OCC          E(Eh)            E(eV)
   0   2.0000     -88.967790     -2420.9366
   1   2.0000     -88.966075     -2420.8900
   2   2.0000     -10.323515      -280.9171
   3   2.0000     -10.321253      -280.8556
   4   2.0000     -10.316607      -280.7292
   5   2.0000     -10.314290      -280.6661
   6   2.0000     -10.304886      -280.4102
   7   2.0000     -10.303415      -280.3702
   8   2.0000     -10.292850      -280.0827
   9   2.0000     -10.290551      -280.0201
  10   2.0000     -10.289761      -279.9986
  11   2.0000     -10.284428      -279.8535
  12   2.0000     -10.284137      -279.8456
  13   2.0000     -10.280297      -279.7411
  14   2.0000     -10.272848      -279.5384
  15   2.0000     -10.272224      -279.5214
  16   2.0000      -8.082841      -219.9453
  17   2.0000      -8.081497      -219.9087
  18   2.0000      -6.041282      -164.3916
  19   2.0000      -6.039905      -164.3542
  20   2.0000      -6.037252      -164.2820
  21   2.0000      -6.035949      -164.2465
  22   2.0000      -6.033688      -164.1850
  23   2.0000      -6.032296      -164.1471
  24   2.0000      -1.013999       -27.5923
  25   2.0000      -0.988996       -26.9120
  26   2.0000      -0.915016       -24.8989
  27   2.0000      -0.912626       -24.8338
  28   2.0000      -0.870022       -23.6745
  29   2.0000      -0.851959       -23.1830
  30   2.0000      -0.846281       -23.0285
  31   2.0000      -0.816224       -22.2106
  32   2.0000      -0.785733       -21.3809
  33   2.0000      -0.775135       -21.0925
  34   2.0000      -0.703592       -19.1457
  35   2.0000      -0.696445       -18.9512
  36   2.0000      -0.684108       -18.6155
  37   2.0000      -0.660511       -17.9734
  38   2.0000      -0.644064       -17.5259
  39   2.0000      -0.620620       -16.8879
  40   2.0000      -0.598985       -16.2992
  41   2.0000      -0.566183       -15.4066
  42   2.0000      -0.558454       -15.1963
  43   2.0000      -0.554162       -15.0795
  44   2.0000      -0.545654       -14.8480
  45   2.0000      -0.538211       -14.6455
  46   2.0000      -0.521557       -14.1923
  47   2.0000      -0.509325       -13.8594
  48   2.0000      -0.504207       -13.7202
  49   2.0000      -0.496454       -13.5092
  50   2.0000      -0.492990       -13.4149
  51   2.0000      -0.479586       -13.0502
  52   2.0000      -0.471339       -12.8258
  53   2.0000      -0.465528       -12.6676
  54   2.0000      -0.456889       -12.4326
  55   2.0000      -0.448163       -12.1951
  56   2.0000      -0.442593       -12.0436
  57   2.0000      -0.439177       -11.9506
  58   2.0000      -0.432558       -11.7705
  59   2.0000      -0.423433       -11.5222
  60   2.0000      -0.417525       -11.3614
  61   2.0000      -0.412693       -11.2300
  62   2.0000      -0.400858       -10.9079
  63   2.0000      -0.347939        -9.4679
  64   2.0000      -0.332789        -9.0556
  65   2.0000      -0.329175        -8.9573
  66   2.0000      -0.292199        -7.9511
  67   0.0000       0.031840         0.8664
  68   0.0000       0.074257         2.0206
  69   0.0000       0.107712         2.9310
  70   0.0000       0.116601         3.1729
  71   0.0000       0.126826         3.4511

MULLIKEN ATOMIC CHARGES
-----------------------
   0 S :    0.114949
   1 C :   -0.121393
   2 C :   -0.072785
   3 C :    0.012802
   4 C :   -0.131889
   5 H :    0.001318
   6 C :    0.072858
   7 H :    0.031949
   8 H :    0.015566
   9 C :   -0.082366
  10 H :    0.034671
  11 H :    0.010907
  12 C :   -0.047741
  13 H :    0.033772
  14 H :    0.053056
  15 H :    0.018883
  16 S :    0.112406
  17 C :   -0.088173
  18 C :   -0.022498
  19 C :   -0.042368
  20 C :   -0.171368
  21 H :    0.019456
  22 C :    0.110734
  23 H :    0.010378
  24 H :    0.024059
  25 C :   -0.112051
  26 H :    0.021478
  27 H :    0.023309
  28 C :   -0.049157
  29 H :    0.045269
  30 H :    0.026143
  31 H :    0.042622
  32 H :    0.048365
  33 H :    0.056836
Sum of atomic charges:   -0.0000000

LOEWDIN ATOMIC CHARGES
----------------------
   0 S :    0.420147
   1 C :   -0.197189
   2 C :   -0.054522
   3 C :   -0.066109
   4 C :   -0.208121
   5 H :    0.024361
   6 C :   -0.038079
   7 H :    0.034370
   8 H :    0.031822
   9 C :   -0.038314
  10 H :    0.032603
  11 H :    0.008582
  12 C :   -0.062085
  13 H :    0.022889
  14 H :    0.032419
  15 H :    0.018480
  16 S :    0.417445
  17 C :   -0.187663
  18 C :   -0.068799
  19 C :   -0.050718
  20 C :   -0.204672
  21 H :    0.033174
  22 C :   -0.031478
  23 H :    0.030134
  24 H :    0.032887
  25 C :   -0.049548
  26 H :    0.026692
  27 H :    0.021414
  28 C :   -0.067899
  29 H :    0.027972
  30 H :    0.022162
  31 H :    0.028200
  32 H :    0.027388
  33 H :    0.032056

  Mayer bond orders larger than 0.100000
B(  0-S ,  1-C ) :   1.1375 B(  0-S ,  4-C ) :   1.1501 B(  1-C ,  2-C ) :   1.5969
B(  1-C , 32-H ) :   0.9680 B(  2-C ,  3-C ) :   1.2109 B(  2-C ,  6-C ) :   1.0418
B(  3-C ,  4-C ) :   1.6016 B(  3-C ,  5-H ) :   0.9983 B(  4-C , 20-C ) :   1.0220
B(  6-C ,  7-H ) :   0.9426 B(  6-C ,  8-H ) :   0.9356 B(  6-C ,  9-C ) :   1.0674
B(  9-C , 10-H ) :   0.9565 B(  9-C , 11-H ) :   0.9580 B(  9-C , 12-C ) :   1.0730
B( 12-C , 13-H ) :   0.9746 B( 12-C , 14-H ) :   0.9711 B( 12-C , 15-H ) :   0.9763
B( 16-S , 17-C ) :   1.1497 B( 16-S , 20-C ) :   1.1467 B( 17-C , 18-C ) :   1.6259
B( 17-C , 33-H ) :   0.9631 B( 18-C , 19-C ) :   1.2408 B( 18-C , 21-H ) :   0.9853
B( 19-C , 20-C ) :   1.5865 B( 19-C , 22-C ) :   1.0416 B( 22-C , 23-H ) :   0.9257
B( 22-C , 24-H ) :   0.9405 B( 22-C , 25-C ) :   1.0674 B( 25-C , 26-H ) :   0.9509
B( 25-C , 27-H ) :   0.9563 B( 25-C , 28-C ) :   1.0836 B( 28-C , 29-H ) :   0.9696
B( 28-C , 30-H ) :   0.9704 B( 28-C , 31-H ) :   0.9708

Dispersion correction           -0.016533438
FINAL SINGLE POINT ENERGY     -1339.877540295091

DIPOLE MOMENT
-------------
                                X             Y             Z
Electronic contribution:    -16.23001     -15.76709     -16.52859
Nuclear contribution   :     16.79547      15.94556      16.68651
                        -----------------------------------------
Total Dipole Moment    :      0.56546       0.17847       0.15793
                        -----------------------------------------
Magnitude (a.u.)       :      0.61363
Magnitude (Debye)      :      1.55971

Rotational constants in cm-1:     0.022686     0.009587     0.007785
Rotational constants in MHz :   680.110461   287.413860   233.378937

                             ****ORCA TERMINATED NORMALLY****
TOTAL RUN TIME: 0 days 0 hours 0 minutes 35 seconds 446 msec
