                         Program Version 4.2.1 -  RELEASE  -
|  1> ! wB97X-D3 SP def2-SVP
|  2> %pal
|  3> nprocs 16
|  4> end
|  5>
|  6> * xyz 0 1
|  7> S 	 42.5148 	 21.205 	 45.3896
|  8> C 	 40.9575 	 20.6749 	 45.9517
|  9> C 	 39.9333 	 21.3437 	 45.2754
| 10> C 	 40.395 	 22.2412 	 44.2797
| 11> C 	 41.7667 	 22.3506 	 44.2054
| 12> H 	 39.7977 	 22.7826 	 43.5119
| 13> C 	 38.4748 	 21.0484 	 45.4772
| 14> H 	 38.542 	 20.0246 	 45.9222
| 15> H 	 37.9441 	 20.9134 	 44.5356
| 16> C 	 37.7927 	 22.043 	 46.4497
| 17> H 	 37.5321 	 22.9254 	 45.9574
| 18> H 	 36.8711 	 21.5488 	 46.7177
| 19> C 	 38.5534 	 22.4099 	 47.7283
| 20> H 	 38.0831 	 23.1029 	 48.4346
| 21> H 	 38.7944 	 21.4559 	 48.2146
| 22> H 	 39.5899 	 22.8479 	 47.454
| 23> S 	 43.6575 	 22.2253 	 42.212
| 24> C 	 43.9243 	 23.585 	 41.138
| 25> C 	 43.1161 	 24.6087 	 41.5793
| 26> C 	 42.4597 	 24.3563 	 42.8378
| 27> C 	 42.5551 	 23.069 	 43.2176
| 28> H 	 43.101 	 25.5158 	 40.9873
| 29> C 	 41.6944 	 25.4444 	 43.6096
| 30> H 	 42.4204 	 26.047 	 44.0929
| 31> H 	 41.0703 	 25.0449 	 44.3357
| 32> C 	 40.778 	 26.3845 	 42.6793
| 33> H 	 41.2458 	 26.6714 	 41.7573
| 34> H 	 40.5033 	 27.3202 	 43.2531
| 35> C 	 39.5342 	 25.6796 	 42.1057
| 36> H 	 38.7001 	 25.5416 	 42.7411
| 37> H 	 39.8289 	 24.6474 	 41.9074
| 38> H 	 39.2268 	 26.2544 	 41.2604
| 39> H 	 40.729 	 19.9696 	 46.7481
| 40> H 	 44.4342 	 23.6339 	 40.2918
| 41> *
| 42>
| 43>                          ****END OF INPUT****

CARTESIAN COORDINATES (ANGSTROEM)
---------------------------------
  S     42.514800   21.205000   45.389600
  C     40.957500   20.674900   45.951700
  C     39.933300   21.343700   45.275400
  C     40.395000   22.241200   44.279700
  C     41.766700   22.350600   44.205400
  H     39.797700   22.782600   43.511900
  C     38.474800   21.048400   45.477200
  H     38.542000   20.024600   45.922200
  H     37.944100   20.913400   44.535600
  C     37.792700   22.043000   46.449700
  H     37.532100   22.925400   45.957400
  H     36.871100   21.548800   46.717700
  C     38.553400   22.409900   47.728300
  H     38.083100   23.102900   48.434600
  H     38.794400   21.455900   48.214600
  H     39.589900   22.847900   47.454000
  S     43.657500   22.225300   42.212000
  C     43.924300   23.585000   41.138000
  C     43.116100   24.608700   41.579300
  C     42.459700   24.356300   42.837800
  C     42.555100   23.069000   43.217600
  H     43.101000   25.515800   40.987300
  C     41.694400   25.444400   43.609600
  H     42.420400   26.047000   44.092900
  H     41.070300   25.044900   44.335700
  C     40.778000   26.384500   42.679300
  H     41.245800   26.671400   41.757300
  H     40.503300   27.320200   43.253100
  C     39.534200   25.679600   42.105700
  H     38.700100   25.541600   42.741100
  H     39.828900   24.647400   41.907400
  H     39.226800   26.254400   41.260400
  H     40.729000   19.969600   46.748100
  H     44.434200   23.633900   40.291800

 Total Charge           Charge          ....    0
 Multiplicity           Mult            ....    1
 Number of Electrons    NEL             ....  134
 Basis Dimension        Dim             ....  322

ORBITAL ENERGIES
----------------

  NO   OCC          E(Eh)            E(eV)
   0   2.0000     -88.967729     -2420.9350
   1   2.0000     -88.962360     -2420.7889
   2   2.0000     -10.334351      -281.2120
   3   2.0000     -10.321763      -280.8695
   4   2.0000     -10.317068      -280.7417
   5   2.0000     -10.310290      -280.5573
   6   2.0000     -10.301702      -280.3236
   7   2.0000     -10.299611      -280.2667
   8   2.0000     -10.298555      -280.2379
   9   2.0000     -10.295061      -280.1429
  10   2.0000     -10.294435      -280.1258
  11   2.0000     -10.292303      -280.0678
  12   2.0000     -10.288366      -279.9607
  13   2.0000     -10.283277      -279.8222
  14   2.0000     -10.282301      -279.7956
  15   2.0000     -10.271316      -279.4967
  16   2.0000      -8.081573      -219.9108
  17   2.0000      -8.077913      -219.8112
  18   2.0000      -6.040122      -164.3601
  19   2.0000      -6.036520      -164.2621
  20   2.0000      -6.036138      -164.2517
  21   2.0000      -6.032420      -164.1505
  22   2.0000      -6.032158      -164.1434
  23   2.0000      -6.028629      -164.0473
  24   2.0000      -1.011764       -27.5315
  25   2.0000      -0.985814       -26.8254
  26   2.0000      -0.911419       -24.8010
  27   2.0000      -0.902793       -24.5662
  28   2.0000      -0.873865       -23.7791
  29   2.0000      -0.849044       -23.1037
  30   2.0000      -0.843982       -22.9659
  31   2.0000      -0.820823       -22.3357
  32   2.0000      -0.783618       -21.3233
  33   2.0000      -0.774371       -21.0717
  34   2.0000      -0.713823       -19.4241
  35   2.0000      -0.702949       -19.1282
  36   2.0000      -0.695553       -18.9270
  37   2.0000      -0.660400       -17.9704
  38   2.0000      -0.641645       -17.4601
  39   2.0000      -0.618611       -16.8333
  40   2.0000      -0.602259       -16.3883
  41   2.0000      -0.570332       -15.5195
  42   2.0000      -0.557491       -15.1701
  43   2.0000      -0.555212       -15.1081
  44   2.0000      -0.542041       -14.7497
  45   2.0000      -0.535435       -14.5699
  46   2.0000      -0.528819       -14.3899
  47   2.0000      -0.517132       -14.0719
  48   2.0000      -0.511988       -13.9319
  49   2.0000      -0.500493       -13.6191
  50   2.0000      -0.486994       -13.2518
  51   2.0000      -0.477950       -13.0057
  52   2.0000      -0.470825       -12.8118
  53   2.0000      -0.464832       -12.6487
  54   2.0000      -0.455876       -12.4050
  55   2.0000      -0.448777       -12.2119
  56   2.0000      -0.439582       -11.9616
  57   2.0000      -0.437440       -11.9033
  58   2.0000      -0.432696       -11.7743
  59   2.0000      -0.426867       -11.6156
  60   2.0000      -0.420894       -11.4531
  61   2.0000      -0.411193       -11.1891
  62   2.0000      -0.410458       -11.1691
  63   2.0000      -0.351809        -9.5732
  64   2.0000      -0.331010        -9.0072
  65   2.0000      -0.327712        -8.9175
  66   2.0000      -0.296401        -8.0655
  67   0.0000       0.030211         0.8221
  68   0.0000       0.068708         1.8696
  69   0.0000       0.113086         3.0772
  70   0.0000       0.126879         3.4526
  71   0.0000       0.129806         3.5322

MULLIKEN ATOMIC CHARGES
-----------------------
   0 S :    0.106149
   1 C :   -0.106591
   2 C :   -0.138012
   3 C :    0.042948
   4 C :   -0.178181
   5 H :    0.024300
   6 C :    0.057034
   7 H :    0.019052
   8 H :    0.038194
   9 C :   -0.024844
  10 H :    0.016198
  11 H :    0.025650
  12 C :   -0.090149
  13 H :    0.049458
  14 H :    0.020578
  15 H :    0.056205
  16 S :    0.106515
  17 C :   -0.022764
  18 C :   -0.056156
  19 C :   -0.072181
  20 C :   -0.127385
  21 H :    0.021407
  22 C :    0.145324
  23 H :    0.031527
  24 H :    0.009562
  25 C :   -0.115393
  26 H :    0.025770
  27 H :    0.040406
  28 C :   -0.039737
  29 H :    0.017434
  30 H :    0.033563
  31 H :    0.032834
  32 H :    0.052177
  33 H :   -0.000894
Sum of atomic charges:    0.0000000

LOEWDIN ATOMIC CHARGES
----------------------
   0 S :    0.387953
   1 C :   -0.202167
   2 C :   -0.070294
   3 C :   -0.062303
   4 C :   -0.172252
   5 H :    0.039859
   6 C :   -0.031435
   7 H :    0.033154
   8 H :    0.034342
   9 C :   -0.035787
  10 H :    0.013738
  11 H :    0.024355
  12 C :   -0.073670
  13 H :    0.028705
  14 H :    0.021280
  15 H :    0.036531
  16 S :    0.416428
  17 C :   -0.159614
  18 C :   -0.066045
  19 C :   -0.060923
  20 C :   -0.213904
  21 H :    0.029319
  22 C :   -0.013991
  23 H :    0.031409
  24 H :    0.019009
  25 C :   -0.037707
  26 H :    0.017791
  27 H :    0.028999
  28 C :   -0.063829
  29 H :    0.014749
  30 H :    0.025350
  31 H :    0.025653
  32 H :    0.031901
  33 H :    0.003397

  Mayer bond orders larger than 0.100000
B(  0-S ,  1-C ) :   1.1410 B(  0-S ,  4-C ) :   1.1365 B(  1-C ,  2-C ) :   1.6018
B(  1-C ,  4-C ) :   0.1018 B(  1-C , 32-H ) :   0.9611 B(  2-C ,  3-C ) :   1.2423
B(  2-C ,  6-C ) :   1.0239 B(  3-C ,  4-C ) :   1.5861 B(  3-C ,  5-H ) :   0.9831
B(  4-C , 20-C ) :   1.0248 B(  6-C ,  7-H ) :   0.9386 B(  6-C ,  8-H ) :   0.9470
B(  6-C ,  9-C ) :   1.0564 B(  9-C , 10-H ) :   0.9572 B(  9-C , 11-H ) :   0.9550
B(  9-C , 12-C ) :   1.0806 B( 12-C , 13-H ) :   0.9748 B( 12-C , 14-H ) :   0.9749
B( 12-C , 15-H ) :   0.9655 B( 16-S , 17-C ) :   1.1437 B( 16-S , 20-C ) :   1.1387
B( 17-C , 18-C ) :   1.6281 B( 17-C , 33-H ) :   0.9843 B( 18-C , 19-C ) :   1.2168
B( 18-C , 21-H ) :   0.9892 B( 19-C , 20-C ) :   1.6138 B( 19-C , 22-C ) :   1.0347
B( 22-C , 23-H ) :   0.9312 B( 22-C , 24-H ) :   0.9371 B( 22-C , 25-C ) :   1.0631
B( 25-C , 26-H ) :   0.9661 B( 25-C , 27-H ) :   0.9579 B( 25-C , 28-C ) :   1.0608
B( 28-C , 29-H ) :   0.9768 B( 28-C , 30-H ) :   0.9720 B( 28-C , 31-H ) :   0.9769

Dispersion correction           -0.015382589
FINAL SINGLE POINT ENERGY     -1339.866525549928

DIPOLE MOMENT
-------------
                                X             Y             Z
Electronic contribution:     23.89287     -13.28134      -5.88080
Nuclear contribution   :    -24.49180      13.65717       5.76807
                        -----------------------------------------
Total Dipole Moment    :     -0.59893       0.37583      -0.11274
                        -----------------------------------------
Magnitude (a.u.)       :      0.71602
Magnitude (Debye)      :      1.81997

Rotational constants in cm-1:     0.019318     0.009537     0.007077
Rotational constants in MHz :   579.148446   285.901848   212.150312

                             ****ORCA TERMINATED NORMALLY****
TOTAL RUN TIME: 0 days 0 hours 0 minutes 34 seconds 139 msec
