                         Program Version 4.2.1 -  RELEASE  -
|  1> ! wB97X-D3 SP def2-SVP
|  2> %pal
|  3> nprocs 16
|  4> end
|  5>
|  6> * xyz 0 1
|  7> S 	 -17.8356 	 54.3238 	 60.3026
|  8> C 	 -18.1756 	 52.7342 	 59.5395
|  9> C 	 -17.4966 	 51.6997 	 60.2118
| 10> C 	 -16.5785 	 52.1704 	 61.1972
| 11> C 	 -16.6436 	 53.5604 	 61.3682
| 12> H 	 -15.8598 	 51.499 	 61.6955
| 13> C 	 -17.454 	 50.2588 	 59.6907
| 14> H 	 -18.4035 	 50.0479 	 59.1784
| 15> H 	 -17.2981 	 49.74 	 60.6011
| 16> C 	 -16.3106 	 50.0017 	 58.732
| 17> H 	 -16.561 	 50.5729 	 57.8224
| 18> H 	 -15.337 	 50.4606 	 59.0468
| 19> C 	 -16.2408 	 48.5125 	 58.3537
| 20> H 	 -17.2567 	 48.0028 	 58.3175
| 21> H 	 -15.6777 	 48.513 	 57.4376
| 22> H 	 -15.6059 	 47.9815 	 59.0739
| 23> S 	 -14.7432 	 55.5531 	 61.3556
| 24> C 	 -13.8868 	 55.9043 	 62.828
| 25> C 	 -14.4137 	 55.2519 	 63.8974
| 26> C 	 -15.4236 	 54.265 	 63.5788
| 27> C 	 -15.7112 	 54.3259 	 62.1771
| 28> H 	 -14.1214 	 55.5141 	 64.9377
| 29> C 	 -16.1172 	 53.425 	 64.6817
| 30> H 	 -17.1632 	 53.3331 	 64.4847
| 31> H 	 -16.1213 	 53.8674 	 65.6867
| 32> C 	 -15.6497 	 51.9068 	 64.7898
| 33> H 	 -15.4493 	 51.5666 	 63.7639
| 34> H 	 -16.5548 	 51.3948 	 65.0175
| 35> C 	 -14.4101 	 51.642 	 65.6758
| 36> H 	 -14.5826 	 51.9455 	 66.7262
| 37> H 	 -13.6369 	 52.1666 	 65.1951
| 38> H 	 -14.2599 	 50.5692 	 65.6231
| 39> H 	 -18.7144 	 52.5652 	 58.6763
| 40> H 	 -12.9933 	 56.586 	 62.8699
| 41> *
| 42>
| 43>                          ****END OF INPUT****

CARTESIAN COORDINATES (ANGSTROEM)
---------------------------------
  S    -17.835600   54.323800   60.302600
  C    -18.175600   52.734200   59.539500
  C    -17.496600   51.699700   60.211800
  C    -16.578500   52.170400   61.197200
  C    -16.643600   53.560400   61.368200
  H    -15.859800   51.499000   61.695500
  C    -17.454000   50.258800   59.690700
  H    -18.403500   50.047900   59.178400
  H    -17.298100   49.740000   60.601100
  C    -16.310600   50.001700   58.732000
  H    -16.561000   50.572900   57.822400
  H    -15.337000   50.460600   59.046800
  C    -16.240800   48.512500   58.353700
  H    -17.256700   48.002800   58.317500
  H    -15.677700   48.513000   57.437600
  H    -15.605900   47.981500   59.073900
  S    -14.743200   55.553100   61.355600
  C    -13.886800   55.904300   62.828000
  C    -14.413700   55.251900   63.897400
  C    -15.423600   54.265000   63.578800
  C    -15.711200   54.325900   62.177100
  H    -14.121400   55.514100   64.937700
  C    -16.117200   53.425000   64.681700
  H    -17.163200   53.333100   64.484700
  H    -16.121300   53.867400   65.686700
  C    -15.649700   51.906800   64.789800
  H    -15.449300   51.566600   63.763900
  H    -16.554800   51.394800   65.017500
  C    -14.410100   51.642000   65.675800
  H    -14.582600   51.945500   66.726200
  H    -13.636900   52.166600   65.195100
  H    -14.259900   50.569200   65.623100
  H    -18.714400   52.565200   58.676300
  H    -12.993300   56.586000   62.869900

 Total Charge           Charge          ....    0
 Multiplicity           Mult            ....    1
 Number of Electrons    NEL             ....  134
 Basis Dimension        Dim             ....  322

ORBITAL ENERGIES
----------------

  NO   OCC          E(Eh)            E(eV)
   0   2.0000     -88.969572     -2420.9851
   1   2.0000     -88.966879     -2420.9119
   2   2.0000     -10.333105      -281.1781
   3   2.0000     -10.331246      -281.1275
   4   2.0000     -10.318098      -280.7697
   5   2.0000     -10.313190      -280.6362
   6   2.0000     -10.312146      -280.6078
   7   2.0000     -10.300728      -280.2971
   8   2.0000     -10.298494      -280.2363
   9   2.0000     -10.295264      -280.1484
  10   2.0000     -10.294457      -280.1264
  11   2.0000     -10.289255      -279.9849
  12   2.0000     -10.288847      -279.9738
  13   2.0000     -10.285751      -279.8895
  14   2.0000     -10.283218      -279.8206
  15   2.0000     -10.277054      -279.6529
  16   2.0000      -8.082880      -219.9464
  17   2.0000      -8.081540      -219.9099
  18   2.0000      -6.041499      -164.3975
  19   2.0000      -6.040035      -164.3577
  20   2.0000      -6.037591      -164.2912
  21   2.0000      -6.036036      -164.2489
  22   2.0000      -6.033622      -164.1832
  23   2.0000      -6.032341      -164.1483
  24   2.0000      -0.999202       -27.1897
  25   2.0000      -0.975884       -26.5551
  26   2.0000      -0.913461       -24.8565
  27   2.0000      -0.899878       -24.4869
  28   2.0000      -0.865312       -23.5463
  29   2.0000      -0.847671       -23.0663
  30   2.0000      -0.844249       -22.9732
  31   2.0000      -0.810430       -22.0529
  32   2.0000      -0.784099       -21.3364
  33   2.0000      -0.769673       -20.9439
  34   2.0000      -0.708197       -19.2710
  35   2.0000      -0.696596       -18.9553
  36   2.0000      -0.689576       -18.7643
  37   2.0000      -0.653136       -17.7727
  38   2.0000      -0.636652       -17.3242
  39   2.0000      -0.619333       -16.8529
  40   2.0000      -0.596596       -16.2342
  41   2.0000      -0.565051       -15.3758
  42   2.0000      -0.558813       -15.2061
  43   2.0000      -0.550162       -14.9707
  44   2.0000      -0.536950       -14.6112
  45   2.0000      -0.527356       -14.3501
  46   2.0000      -0.512257       -13.9392
  47   2.0000      -0.508630       -13.8405
  48   2.0000      -0.502484       -13.6733
  49   2.0000      -0.497134       -13.5277
  50   2.0000      -0.492803       -13.4098
  51   2.0000      -0.482441       -13.1279
  52   2.0000      -0.471638       -12.8339
  53   2.0000      -0.464541       -12.6408
  54   2.0000      -0.458395       -12.4736
  55   2.0000      -0.448402       -12.2016
  56   2.0000      -0.441586       -12.0162
  57   2.0000      -0.440842       -11.9959
  58   2.0000      -0.425925       -11.5900
  59   2.0000      -0.425367       -11.5748
  60   2.0000      -0.420552       -11.4438
  61   2.0000      -0.417972       -11.3736
  62   2.0000      -0.410985       -11.1835
  63   2.0000      -0.342974        -9.3328
  64   2.0000      -0.329795        -8.9742
  65   2.0000      -0.327975        -8.9247
  66   2.0000      -0.288701        -7.8560
  67   0.0000       0.026182         0.7124
  68   0.0000       0.064347         1.7510
  69   0.0000       0.108782         2.9601
  70   0.0000       0.119050         3.2395
  71   0.0000       0.129134         3.5139

MULLIKEN ATOMIC CHARGES
-----------------------
   0 S :    0.110913
   1 C :   -0.102302
   2 C :   -0.090813
   3 C :    0.007966
   4 C :   -0.146910
   5 H :    0.037014
   6 C :    0.069510
   7 H :    0.031047
   8 H :    0.016667
   9 C :   -0.099814
  10 H :    0.021046
  11 H :    0.038846
  12 C :   -0.037158
  13 H :    0.048869
  14 H :    0.034067
  15 H :    0.033012
  16 S :    0.117016
  17 C :   -0.114875
  18 C :   -0.041399
  19 C :   -0.007642
  20 C :   -0.185263
  21 H :    0.030461
  22 C :    0.051614
  23 H :    0.023091
  24 H :    0.025632
  25 C :   -0.085921
  26 H :    0.005774
  27 H :    0.016722
  28 C :   -0.009420
  29 H :    0.038388
  30 H :    0.031536
  31 H :    0.036249
  32 H :    0.018871
  33 H :    0.077207
Sum of atomic charges:   -0.0000000

LOEWDIN ATOMIC CHARGES
----------------------
   0 S :    0.381914
   1 C :   -0.181267
   2 C :   -0.055425
   3 C :   -0.064691
   4 C :   -0.188274
   5 H :    0.034535
   6 C :   -0.029480
   7 H :    0.032957
   8 H :    0.023308
   9 C :   -0.046498
  10 H :    0.022955
  11 H :    0.030029
  12 C :   -0.068452
  13 H :    0.035629
  14 H :    0.026577
  15 H :    0.025410
  16 S :    0.407963
  17 C :   -0.200136
  18 C :   -0.080110
  19 C :   -0.048018
  20 C :   -0.199877
  21 H :    0.036821
  22 C :   -0.031896
  23 H :    0.030812
  24 H :    0.031515
  25 C :   -0.036073
  26 H :    0.019339
  27 H :    0.016975
  28 C :   -0.057364
  29 H :    0.027400
  30 H :    0.022563
  31 H :    0.028340
  32 H :    0.010857
  33 H :    0.041662

  Mayer bond orders larger than 0.100000
B(  0-S ,  1-C ) :   1.1191 B(  0-S ,  4-C ) :   1.1488 B(  1-C ,  2-C ) :   1.6045
B(  1-C , 32-H ) :   0.9773 B(  2-C ,  3-C ) :   1.2488 B(  2-C ,  6-C ) :   1.0302
B(  3-C ,  4-C ) :   1.5683 B(  3-C ,  5-H ) :   0.9751 B(  4-C , 20-C ) :   1.0520
B(  6-C ,  7-H ) :   0.9390 B(  6-C ,  8-H ) :   0.9368 B(  6-C ,  9-C ) :   1.0704
B(  9-C , 10-H ) :   0.9562 B(  9-C , 11-H ) :   0.9551 B(  9-C , 12-C ) :   1.0669
B( 12-C , 13-H ) :   0.9720 B( 12-C , 14-H ) :   0.9743 B( 12-C , 15-H ) :   0.9759
B( 16-S , 17-C ) :   1.1490 B( 16-S , 20-C ) :   1.1506 B( 17-C , 18-C ) :   1.6150
B( 17-C , 33-H ) :   0.9598 B( 18-C , 19-C ) :   1.2447 B( 18-C , 21-H ) :   0.9818
B( 19-C , 20-C ) :   1.5692 B( 19-C , 22-C ) :   1.0437 B( 22-C , 23-H ) :   0.9342
B( 22-C , 24-H ) :   0.9477 B( 22-C , 25-C ) :   1.0606 B( 25-C , 26-H ) :   0.9546
B( 25-C , 27-H ) :   0.9586 B( 25-C , 28-C ) :   1.0664 B( 28-C , 29-H ) :   0.9776
B( 28-C , 30-H ) :   0.9759 B( 28-C , 31-H ) :   0.9736

Dispersion correction           -0.014283989
FINAL SINGLE POINT ENERGY     -1339.868757435532

DIPOLE MOMENT
-------------
                                X             Y             Z
Electronic contribution:     -3.56724      26.90222      -6.10020
Nuclear contribution   :      3.76894     -27.43480       6.27955
                        -----------------------------------------
Total Dipole Moment    :      0.20170      -0.53258       0.17935
                        -----------------------------------------
Magnitude (a.u.)       :      0.59707
Magnitude (Debye)      :      1.51764

Rotational constants in cm-1:     0.017248     0.008574     0.006819
Rotational constants in MHz :   517.093369   257.031041   204.435730

                             ****ORCA TERMINATED NORMALLY****
TOTAL RUN TIME: 0 days 0 hours 0 minutes 32 seconds 816 msec
