                         Program Version 4.2.1 -  RELEASE  -
|  1> ! wB97X-D3 SP def2-SVP
|  2> %pal
|  3> nprocs 16
|  4> end
|  5>
|  6> * xyz 0 1
|  7> S 	 69.1819 	 22.5088 	 80.0136
|  8> C 	 69.2526 	 21.0743 	 81.0796
|  9> C 	 68.9884 	 19.8928 	 80.3247
| 10> C 	 68.9584 	 20.2223 	 78.8919
| 11> C 	 69.2341 	 21.5641 	 78.5764
| 12> H 	 68.7088 	 19.5838 	 78.005
| 13> C 	 68.7768 	 18.5351 	 81.0298
| 14> H 	 68.6049 	 18.8008 	 82.0452
| 15> H 	 69.6451 	 17.8875 	 81.097
| 16> C 	 67.7011 	 17.5944 	 80.3715
| 17> H 	 66.7476 	 18.1745 	 80.2815
| 18> H 	 68.0079 	 17.5415 	 79.3125
| 19> C 	 67.5945 	 16.2112 	 81.0624
| 20> H 	 67.6505 	 16.1325 	 82.1727
| 21> H 	 66.7185 	 15.7297 	 80.6658
| 22> H 	 68.3394 	 15.614 	 80.6669
| 23> S 	 68.1028 	 23.3493 	 76.8873
| 24> C 	 68.5192 	 23.4098 	 75.2232
| 25> C 	 69.5553 	 22.5331 	 74.9852
| 26> C 	 70.1039 	 21.8548 	 76.1274
| 27> C 	 69.3425 	 22.1196 	 77.2668
| 28> H 	 69.9297 	 22.3491 	 73.9717
| 29> C 	 71.3518 	 20.8951 	 75.9537
| 30> H 	 71.9172 	 20.9656 	 76.8818
| 31> H 	 72.0738 	 21.2434 	 75.1708
| 32> C 	 71.0521 	 19.424 	 75.7314
| 33> H 	 70.5858 	 18.902 	 76.5199
| 34> H 	 72.0167 	 18.8418 	 75.6601
| 35> C 	 70.4112 	 19.1548 	 74.361
| 36> H 	 70.7898 	 19.6911 	 73.518
| 37> H 	 69.3306 	 19.222 	 74.4389
| 38> H 	 70.5923 	 18.1292 	 74.1165
| 39> H 	 69.2279 	 21.0839 	 82.1687
| 40> H 	 68.0559 	 23.8346 	 74.3881
| 41> *
| 42>
| 43>                          ****END OF INPUT****

CARTESIAN COORDINATES (ANGSTROEM)
---------------------------------
  S     69.181900   22.508800   80.013600
  C     69.252600   21.074300   81.079600
  C     68.988400   19.892800   80.324700
  C     68.958400   20.222300   78.891900
  C     69.234100   21.564100   78.576400
  H     68.708800   19.583800   78.005000
  C     68.776800   18.535100   81.029800
  H     68.604900   18.800800   82.045200
  H     69.645100   17.887500   81.097000
  C     67.701100   17.594400   80.371500
  H     66.747600   18.174500   80.281500
  H     68.007900   17.541500   79.312500
  C     67.594500   16.211200   81.062400
  H     67.650500   16.132500   82.172700
  H     66.718500   15.729700   80.665800
  H     68.339400   15.614000   80.666900
  S     68.102800   23.349300   76.887300
  C     68.519200   23.409800   75.223200
  C     69.555300   22.533100   74.985200
  C     70.103900   21.854800   76.127400
  C     69.342500   22.119600   77.266800
  H     69.929700   22.349100   73.971700
  C     71.351800   20.895100   75.953700
  H     71.917200   20.965600   76.881800
  H     72.073800   21.243400   75.170800
  C     71.052100   19.424000   75.731400
  H     70.585800   18.902000   76.519900
  H     72.016700   18.841800   75.660100
  C     70.411200   19.154800   74.361000
  H     70.789800   19.691100   73.518000
  H     69.330600   19.222000   74.438900
  H     70.592300   18.129200   74.116500
  H     69.227900   21.083900   82.168700
  H     68.055900   23.834600   74.388100

 Total Charge           Charge          ....    0
 Multiplicity           Mult            ....    1
 Number of Electrons    NEL             ....  134
 Basis Dimension        Dim             ....  322

ORBITAL ENERGIES
----------------

  NO   OCC          E(Eh)            E(eV)
   0   2.0000     -88.967450     -2420.9274
   1   2.0000     -88.965536     -2420.8753
   2   2.0000     -10.331367      -281.1308
   3   2.0000     -10.329723      -281.0861
   4   2.0000     -10.322370      -280.8860
   5   2.0000     -10.316283      -280.7203
   6   2.0000     -10.311974      -280.6031
   7   2.0000     -10.311346      -280.5860
   8   2.0000     -10.305272      -280.4207
   9   2.0000     -10.299637      -280.2674
  10   2.0000     -10.296914      -280.1933
  11   2.0000     -10.294925      -280.1391
  12   2.0000     -10.291806      -280.0543
  13   2.0000     -10.285663      -279.8871
  14   2.0000     -10.279856      -279.7291
  15   2.0000     -10.270628      -279.4780
  16   2.0000      -8.081904      -219.9198
  17   2.0000      -8.080283      -219.8757
  18   2.0000      -6.040489      -164.3701
  19   2.0000      -6.038872      -164.3261
  20   2.0000      -6.036494      -164.2614
  21   2.0000      -6.034702      -164.2126
  22   2.0000      -6.032539      -164.1537
  23   2.0000      -6.031008      -164.1121
  24   2.0000      -1.005367       -27.3574
  25   2.0000      -0.978565       -26.6281
  26   2.0000      -0.906993       -24.6805
  27   2.0000      -0.906384       -24.6640
  28   2.0000      -0.871145       -23.7050
  29   2.0000      -0.847816       -23.0703
  30   2.0000      -0.839918       -22.8553
  31   2.0000      -0.812586       -22.1116
  32   2.0000      -0.786750       -21.4086
  33   2.0000      -0.777208       -21.1489
  34   2.0000      -0.716714       -19.5028
  35   2.0000      -0.699824       -19.0432
  36   2.0000      -0.689712       -18.7680
  37   2.0000      -0.658859       -17.9285
  38   2.0000      -0.644323       -17.5329
  39   2.0000      -0.608116       -16.5477
  40   2.0000      -0.592550       -16.1241
  41   2.0000      -0.569159       -15.4876
  42   2.0000      -0.555544       -15.1171
  43   2.0000      -0.553391       -15.0585
  44   2.0000      -0.543673       -14.7941
  45   2.0000      -0.525621       -14.3029
  46   2.0000      -0.518048       -14.0968
  47   2.0000      -0.508673       -13.8417
  48   2.0000      -0.506792       -13.7905
  49   2.0000      -0.498078       -13.5534
  50   2.0000      -0.489858       -13.3297
  51   2.0000      -0.480365       -13.0714
  52   2.0000      -0.474414       -12.9095
  53   2.0000      -0.473509       -12.8848
  54   2.0000      -0.458070       -12.4647
  55   2.0000      -0.451773       -12.2934
  56   2.0000      -0.444372       -12.0920
  57   2.0000      -0.437645       -11.9089
  58   2.0000      -0.431690       -11.7469
  59   2.0000      -0.424956       -11.5637
  60   2.0000      -0.420380       -11.4391
  61   2.0000      -0.413105       -11.2412
  62   2.0000      -0.403809       -10.9882
  63   2.0000      -0.342432        -9.3180
  64   2.0000      -0.331894        -9.0313
  65   2.0000      -0.326154        -8.8751
  66   2.0000      -0.292611        -7.9624
  67   0.0000       0.026483         0.7206
  68   0.0000       0.059826         1.6279
  69   0.0000       0.102165         2.7801
  70   0.0000       0.121075         3.2946
  71   0.0000       0.130135         3.5412

MULLIKEN ATOMIC CHARGES
-----------------------
   0 S :    0.113361
   1 C :   -0.122057
   2 C :   -0.089133
   3 C :    0.007036
   4 C :   -0.162605
   5 H :    0.041094
   6 C :    0.088388
   7 H :    0.005734
   8 H :    0.032041
   9 C :   -0.137422
  10 H :    0.040631
  11 H :    0.036539
  12 C :   -0.005947
  13 H :    0.050180
  14 H :    0.028467
  15 H :    0.013161
  16 S :    0.103320
  17 C :   -0.038036
  18 C :   -0.078164
  19 C :   -0.015171
  20 C :   -0.176987
  21 H :    0.020142
  22 C :    0.074027
  23 H :    0.031376
  24 H :    0.037271
  25 C :   -0.069961
  26 H :    0.014675
  27 H :    0.026443
  28 C :   -0.037919
  29 H :    0.024550
  30 H :    0.035846
  31 H :    0.015455
  32 H :    0.056712
  33 H :    0.036951
Sum of atomic charges:    0.0000000

LOEWDIN ATOMIC CHARGES
----------------------
   0 S :    0.407158
   1 C :   -0.192291
   2 C :   -0.053839
   3 C :   -0.072016
   4 C :   -0.214149
   5 H :    0.037356
   6 C :   -0.031493
   7 H :    0.022062
   8 H :    0.030063
   9 C :   -0.042065
  10 H :    0.025518
  11 H :    0.026626
  12 C :   -0.064337
  13 H :    0.034695
  14 H :    0.030507
  15 H :    0.018531
  16 S :    0.407876
  17 C :   -0.193467
  18 C :   -0.075102
  19 C :   -0.049922
  20 C :   -0.188295
  21 H :    0.029438
  22 C :   -0.028541
  23 H :    0.033852
  24 H :    0.037889
  25 C :   -0.041919
  26 H :    0.016081
  27 H :    0.031128
  28 C :   -0.066049
  29 H :    0.020723
  30 H :    0.025152
  31 H :    0.023085
  32 H :    0.029688
  33 H :    0.026057

  Mayer bond orders larger than 0.100000
B(  0-S ,  1-C ) :   1.1386 B(  0-S ,  4-C ) :   1.1534 B(  1-C ,  2-C ) :   1.5977
B(  1-C ,  4-C ) :   0.1044 B(  1-C , 32-H ) :   0.9664 B(  2-C ,  3-C ) :   1.2269
B(  2-C ,  6-C ) :   1.0206 B(  3-C ,  4-C ) :   1.5684 B(  3-C ,  5-H ) :   0.9780
B(  4-C , 20-C ) :   1.0532 B(  6-C ,  7-H ) :   0.9389 B(  6-C ,  8-H ) :   0.9435
B(  6-C ,  9-C ) :   1.0460 B(  9-C , 10-H ) :   0.9666 B(  9-C , 11-H ) :   0.9547
B(  9-C , 12-C ) :   1.0687 B( 12-C , 13-H ) :   0.9788 B( 12-C , 14-H ) :   0.9709
B( 12-C , 15-H ) :   0.9693 B( 16-S , 17-C ) :   1.1468 B( 16-S , 20-C ) :   1.1368
B( 17-C , 18-C ) :   1.6200 B( 17-C , 33-H ) :   0.9704 B( 18-C , 19-C ) :   1.2415
B( 18-C , 21-H ) :   0.9810 B( 19-C , 20-C ) :   1.6034 B( 19-C , 22-C ) :   1.0199
B( 22-C , 23-H ) :   0.9325 B( 22-C , 24-H ) :   0.9456 B( 22-C , 25-C ) :   1.0885
B( 25-C , 26-H ) :   0.9530 B( 25-C , 27-H ) :   0.9542 B( 25-C , 28-C ) :   1.0734
B( 28-C , 29-H ) :   0.9744 B( 28-C , 30-H ) :   0.9752 B( 28-C , 31-H ) :   0.9730

Dispersion correction           -0.014098273
FINAL SINGLE POINT ENERGY     -1339.854252959868

DIPOLE MOMENT
-------------
                                X             Y             Z
Electronic contribution:     -3.61684      29.73498       3.46812
Nuclear contribution   :      3.69642     -30.57653      -3.68855
                        -----------------------------------------
Total Dipole Moment    :      0.07958      -0.84155      -0.22043
                        -----------------------------------------
Magnitude (a.u.)       :      0.87357
Magnitude (Debye)      :      2.22044

Rotational constants in cm-1:     0.017539     0.008588     0.006618
Rotational constants in MHz :   525.796413   257.469741   198.410412

                             ****ORCA TERMINATED NORMALLY****
TOTAL RUN TIME: 0 days 0 hours 0 minutes 28 seconds 550 msec
