                         Program Version 4.2.1 -  RELEASE  -
|  1> ! wB97X-D3 SP def2-SVP
|  2> %pal
|  3> nprocs 16
|  4> end
|  5>
|  6> * xyz 0 1
|  7> S 	 -118.843 	 47.6108 	 131.05
|  8> C 	 -119.193 	 48.6111 	 132.431
|  9> C 	 -118.038 	 48.8411 	 133.147
| 10> C 	 -116.986 	 48.0288 	 132.707
| 11> C 	 -117.319 	 47.1031 	 131.708
| 12> H 	 -116.07 	 47.9946 	 133.189
| 13> C 	 -117.796 	 49.833 	 134.247
| 14> H 	 -117.86 	 50.8408 	 133.816
| 15> H 	 -116.799 	 49.7137 	 134.709
| 16> C 	 -118.846 	 49.7284 	 135.366
| 17> H 	 -118.675 	 50.5732 	 136.083
| 18> H 	 -119.802 	 49.8707 	 134.925
| 19> C 	 -118.614 	 48.4667 	 136.227
| 20> H 	 -118.85 	 48.5915 	 137.223
| 21> H 	 -119.089 	 47.6565 	 135.707
| 22> H 	 -117.553 	 48.2789 	 136.305
| 23> S 	 -117.455 	 44.5156 	 130.94
| 24> C 	 -116.119 	 43.6704 	 130.262
| 25> C 	 -115.04 	 44.5063 	 130.156
| 26> C 	 -115.16 	 45.7934 	 130.809
| 27> C 	 -116.516 	 46.0411 	 131.074
| 28> H 	 -114.162 	 44.1046 	 129.692
| 29> C 	 -114.142 	 46.9131 	 130.704
| 30> H 	 -113.804 	 47.1982 	 131.736
| 31> H 	 -114.674 	 47.7467 	 130.348
| 32> C 	 -113.072 	 46.8036 	 129.603
| 33> H 	 -112.481 	 45.9071 	 129.794
| 34> H 	 -112.476 	 47.6849 	 129.7
| 35> C 	 -113.594 	 46.9174 	 128.206
| 36> H 	 -113.944 	 47.9416 	 127.931
| 37> H 	 -114.464 	 46.3373 	 127.914
| 38> H 	 -112.799 	 46.6029 	 127.592
| 39> H 	 -120.053 	 49.1768 	 132.568
| 40> H 	 -116.147 	 42.6633 	 129.909
| 41> *
| 42>
| 43>                          ****END OF INPUT****

CARTESIAN COORDINATES (ANGSTROEM)
---------------------------------
  S    -118.843000   47.610800  131.050000
  C    -119.193000   48.611100  132.431000
  C    -118.038000   48.841100  133.147000
  C    -116.986000   48.028800  132.707000
  C    -117.319000   47.103100  131.708000
  H    -116.070000   47.994600  133.189000
  C    -117.796000   49.833000  134.247000
  H    -117.860000   50.840800  133.816000
  H    -116.799000   49.713700  134.709000
  C    -118.846000   49.728400  135.366000
  H    -118.675000   50.573200  136.083000
  H    -119.802000   49.870700  134.925000
  C    -118.614000   48.466700  136.227000
  H    -118.850000   48.591500  137.223000
  H    -119.089000   47.656500  135.707000
  H    -117.553000   48.278900  136.305000
  S    -117.455000   44.515600  130.940000
  C    -116.119000   43.670400  130.262000
  C    -115.040000   44.506300  130.156000
  C    -115.160000   45.793400  130.809000
  C    -116.516000   46.041100  131.074000
  H    -114.162000   44.104600  129.692000
  C    -114.142000   46.913100  130.704000
  H    -113.804000   47.198200  131.736000
  H    -114.674000   47.746700  130.348000
  C    -113.072000   46.803600  129.603000
  H    -112.481000   45.907100  129.794000
  H    -112.476000   47.684900  129.700000
  C    -113.594000   46.917400  128.206000
  H    -113.944000   47.941600  127.931000
  H    -114.464000   46.337300  127.914000
  H    -112.799000   46.602900  127.592000
  H    -120.053000   49.176800  132.568000
  H    -116.147000   42.663300  129.909000

 Total Charge           Charge          ....    0
 Multiplicity           Mult            ....    1
 Number of Electrons    NEL             ....  134
 Basis Dimension        Dim             ....  322

ORBITAL ENERGIES
----------------

  NO   OCC          E(Eh)            E(eV)
   0   2.0000     -88.965770     -2420.8817
   1   2.0000     -88.960505     -2420.7384
   2   2.0000     -10.332311      -281.1565
   3   2.0000     -10.331225      -281.1269
   4   2.0000     -10.312049      -280.6051
   5   2.0000     -10.309901      -280.5467
   6   2.0000     -10.306405      -280.4515
   7   2.0000     -10.294845      -280.1370
   8   2.0000     -10.292273      -280.0670
   9   2.0000     -10.291573      -280.0479
  10   2.0000     -10.289955      -280.0039
  11   2.0000     -10.285698      -279.8881
  12   2.0000     -10.285481      -279.8822
  13   2.0000     -10.284780      -279.8631
  14   2.0000     -10.273399      -279.5534
  15   2.0000     -10.266071      -279.3540
  16   2.0000      -8.080686      -219.8866
  17   2.0000      -8.075355      -219.7416
  18   2.0000      -6.039101      -164.3323
  19   2.0000      -6.035243      -164.2273
  20   2.0000      -6.033882      -164.1903
  21   2.0000      -6.031442      -164.1239
  22   2.0000      -6.029717      -164.0769
  23   2.0000      -6.026187      -163.9809
  24   2.0000      -1.007313       -27.4104
  25   2.0000      -0.985869       -26.8269
  26   2.0000      -0.916491       -24.9390
  27   2.0000      -0.914222       -24.8773
  28   2.0000      -0.867730       -23.6121
  29   2.0000      -0.853104       -23.2141
  30   2.0000      -0.844405       -22.9774
  31   2.0000      -0.813609       -22.1394
  32   2.0000      -0.786226       -21.3943
  33   2.0000      -0.776524       -21.1303
  34   2.0000      -0.709724       -19.3126
  35   2.0000      -0.705083       -19.1863
  36   2.0000      -0.694531       -18.8991
  37   2.0000      -0.654976       -17.8228
  38   2.0000      -0.641153       -17.4467
  39   2.0000      -0.616781       -16.7835
  40   2.0000      -0.602165       -16.3857
  41   2.0000      -0.580755       -15.8031
  42   2.0000      -0.559932       -15.2365
  43   2.0000      -0.556188       -15.1346
  44   2.0000      -0.546464       -14.8700
  45   2.0000      -0.537951       -14.6384
  46   2.0000      -0.523120       -14.2348
  47   2.0000      -0.509365       -13.8605
  48   2.0000      -0.501654       -13.6507
  49   2.0000      -0.499500       -13.5921
  50   2.0000      -0.492897       -13.4124
  51   2.0000      -0.475832       -12.9481
  52   2.0000      -0.472774       -12.8648
  53   2.0000      -0.472200       -12.8492
  54   2.0000      -0.460884       -12.5413
  55   2.0000      -0.448784       -12.2120
  56   2.0000      -0.443982       -12.0814
  57   2.0000      -0.434450       -11.8220
  58   2.0000      -0.433042       -11.7837
  59   2.0000      -0.424376       -11.5479
  60   2.0000      -0.418962       -11.4005
  61   2.0000      -0.410647       -11.1743
  62   2.0000      -0.408684       -11.1209
  63   2.0000      -0.346626        -9.4322
  64   2.0000      -0.331293        -9.0150
  65   2.0000      -0.325130        -8.8472
  66   2.0000      -0.288553        -7.8519
  67   0.0000       0.021356         0.5811
  68   0.0000       0.072056         1.9607
  69   0.0000       0.109511         2.9799
  70   0.0000       0.123469         3.3598
  71   0.0000       0.134195         3.6516

MULLIKEN ATOMIC CHARGES
-----------------------
   0 S :    0.116452
   1 C :   -0.097673
   2 C :   -0.081838
   3 C :    0.037183
   4 C :   -0.124958
   5 H :   -0.024859
   6 C :    0.055230
   7 H :    0.041935
   8 H :    0.024088
   9 C :   -0.102443
  10 H :    0.026169
  11 H :    0.024567
  12 C :    0.005801
  13 H :    0.016971
  14 H :    0.046370
  15 H :    0.008827
  16 S :    0.092839
  17 C :   -0.066202
  18 C :   -0.046708
  19 C :   -0.021324
  20 C :   -0.161147
  21 H :    0.011391
  22 C :    0.040207
  23 H :    0.044333
  24 H :    0.016068
  25 C :   -0.058323
  26 H :    0.034965
  27 H :    0.027864
  28 C :   -0.054897
  29 H :    0.033428
  30 H :    0.036265
  31 H :    0.029032
  32 H :    0.020446
  33 H :    0.049943
Sum of atomic charges:   -0.0000000

LOEWDIN ATOMIC CHARGES
----------------------
   0 S :    0.424019
   1 C :   -0.196959
   2 C :   -0.063431
   3 C :   -0.061035
   4 C :   -0.200113
   5 H :    0.015352
   6 C :   -0.029589
   7 H :    0.035226
   8 H :    0.028499
   9 C :   -0.036740
  10 H :    0.025901
  11 H :    0.015034
  12 C :   -0.055030
  13 H :    0.015918
  14 H :    0.029276
  15 H :    0.024925
  16 S :    0.401743
  17 C :   -0.189907
  18 C :   -0.074754
  19 C :   -0.051715
  20 C :   -0.181488
  21 H :    0.026011
  22 C :   -0.036683
  23 H :    0.036247
  24 H :    0.028672
  25 C :   -0.037990
  26 H :    0.021434
  27 H :    0.030683
  28 C :   -0.065997
  29 H :    0.031211
  30 H :    0.025074
  31 H :    0.025110
  32 H :    0.013118
  33 H :    0.027981

  Mayer bond orders larger than 0.100000
B(  0-S ,  1-C ) :   1.1447 B(  0-S ,  4-C ) :   1.1778 B(  1-C ,  2-C ) :   1.5645
B(  1-C ,  4-C ) :   0.1069 B(  1-C , 32-H ) :   0.9784 B(  2-C ,  3-C ) :   1.2926
B(  2-C ,  6-C ) :   1.0126 B(  3-C ,  4-C ) :   1.5147 B(  3-C ,  5-H ) :   1.0125
B(  4-C , 20-C ) :   1.0277 B(  6-C ,  7-H ) :   0.9316 B(  6-C ,  8-H ) :   0.9500
B(  6-C ,  9-C ) :   1.0859 B(  9-C , 10-H ) :   0.9580 B(  9-C , 11-H ) :   0.9613
B(  9-C , 12-C ) :   1.0624 B( 12-C , 13-H ) :   0.9767 B( 12-C , 14-H ) :   0.9762
B( 12-C , 15-H ) :   0.9711 B( 16-S , 17-C ) :   1.1558 B( 16-S , 20-C ) :   1.1456
B( 17-C , 18-C ) :   1.6185 B( 17-C , 20-C ) :   0.1026 B( 17-C , 33-H ) :   0.9672
B( 18-C , 19-C ) :   1.2242 B( 18-C , 21-H ) :   0.9842 B( 19-C , 20-C ) :   1.5776
B( 19-C , 22-C ) :   1.0310 B( 22-C , 23-H ) :   0.9292 B( 22-C , 24-H ) :   0.9408
B( 22-C , 25-C ) :   1.0883 B( 25-C , 26-H ) :   0.9542 B( 25-C , 27-H ) :   0.9476
B( 25-C , 28-C ) :   1.0764 B( 28-C , 29-H ) :   0.9699 B( 28-C , 30-H ) :   0.9759
B( 28-C , 31-H ) :   0.9713

Dispersion correction           -0.014237564
FINAL SINGLE POINT ENERGY     -1339.855928069995

DIPOLE MOMENT
-------------
                                X             Y             Z
Electronic contribution:    -12.55268     -12.30174      -8.10606
Nuclear contribution   :     13.09765      12.67569       8.21507
                        -----------------------------------------
Total Dipole Moment    :      0.54498       0.37395       0.10901
                        -----------------------------------------
Magnitude (a.u.)       :      0.66987
Magnitude (Debye)      :      1.70267

Rotational constants in cm-1:     0.022524     0.007486     0.006692
Rotational constants in MHz :   675.265367   224.418207   200.617649

                             ****ORCA TERMINATED NORMALLY****
TOTAL RUN TIME: 0 days 0 hours 0 minutes 33 seconds 403 msec
