                         Program Version 4.2.1 -  RELEASE  -
|  1> ! wB97X-D3 SP def2-SVP
|  2> %pal
|  3> nprocs 16
|  4> end
|  5>
|  6> * xyz 0 1
|  7> S 	 38.446 	 14.7816 	 80.0981
|  8> C 	 36.9684 	 13.8133 	 79.9836
|  9> C 	 36.4125 	 13.9929 	 78.7556
| 10> C 	 37.0862 	 14.9264 	 77.914
| 11> C 	 38.2803 	 15.4428 	 78.4985
| 12> H 	 36.7397 	 15.1387 	 76.9351
| 13> C 	 35.1415 	 13.3062 	 78.2879
| 14> H 	 34.5613 	 14.0384 	 77.7749
| 15> H 	 34.5498 	 13.1266 	 79.1495
| 16> C 	 35.3293 	 12.0897 	 77.3707
| 17> H 	 36.3479 	 11.9797 	 77.1016
| 18> H 	 35.0342 	 11.2449 	 78.0253
| 19> C 	 34.4199 	 12.1167 	 76.1729
| 20> H 	 33.4876 	 12.5004 	 76.3658
| 21> H 	 34.8497 	 12.822 	 75.4021
| 22> H 	 34.4942 	 11.0209 	 75.7872
| 23> S 	 38.7381 	 17.2367 	 76.5161
| 24> C 	 40.1657 	 18.1245 	 76.5153
| 25> C 	 41.0235 	 17.9084 	 77.5868
| 26> C 	 40.4902 	 16.8577 	 78.4674
| 27> C 	 39.2157 	 16.4118 	 77.9885
| 28> H 	 41.9619 	 18.5169 	 77.7574
| 29> C 	 41.3396 	 16.4311 	 79.6672
| 30> H 	 40.6593 	 16.5753 	 80.5142
| 31> H 	 42.0177 	 17.2206 	 79.8604
| 32> C 	 42.0748 	 15.0435 	 79.5646
| 33> H 	 42.3772 	 14.8516 	 78.5388
| 34> H 	 41.3582 	 14.2451 	 79.823
| 35> C 	 43.2308 	 15.0627 	 80.6191
| 36> H 	 42.8356 	 15.6903 	 81.5229
| 37> H 	 43.9631 	 15.7377 	 80.2417
| 38> H 	 43.5613 	 14.1058 	 81.0256
| 39> H 	 36.6917 	 13.201 	 80.7869
| 40> H 	 40.5084 	 18.7625 	 75.69
| 41> *
| 42>
| 43>                          ****END OF INPUT****

CARTESIAN COORDINATES (ANGSTROEM)
---------------------------------
  S     38.446000   14.781600   80.098100
  C     36.968400   13.813300   79.983600
  C     36.412500   13.992900   78.755600
  C     37.086200   14.926400   77.914000
  C     38.280300   15.442800   78.498500
  H     36.739700   15.138700   76.935100
  C     35.141500   13.306200   78.287900
  H     34.561300   14.038400   77.774900
  H     34.549800   13.126600   79.149500
  C     35.329300   12.089700   77.370700
  H     36.347900   11.979700   77.101600
  H     35.034200   11.244900   78.025300
  C     34.419900   12.116700   76.172900
  H     33.487600   12.500400   76.365800
  H     34.849700   12.822000   75.402100
  H     34.494200   11.020900   75.787200
  S     38.738100   17.236700   76.516100
  C     40.165700   18.124500   76.515300
  C     41.023500   17.908400   77.586800
  C     40.490200   16.857700   78.467400
  C     39.215700   16.411800   77.988500
  H     41.961900   18.516900   77.757400
  C     41.339600   16.431100   79.667200
  H     40.659300   16.575300   80.514200
  H     42.017700   17.220600   79.860400
  C     42.074800   15.043500   79.564600
  H     42.377200   14.851600   78.538800
  H     41.358200   14.245100   79.823000
  C     43.230800   15.062700   80.619100
  H     42.835600   15.690300   81.522900
  H     43.963100   15.737700   80.241700
  H     43.561300   14.105800   81.025600
  H     36.691700   13.201000   80.786900
  H     40.508400   18.762500   75.690000

 Total Charge           Charge          ....    0
 Multiplicity           Mult            ....    1
 Number of Electrons    NEL             ....  134
 Basis Dimension        Dim             ....  322

ORBITAL ENERGIES
----------------

  NO   OCC          E(Eh)            E(eV)
   0   2.0000     -88.970564     -2421.0121
   1   2.0000     -88.962376     -2420.7893
   2   2.0000     -10.334808      -281.2244
   3   2.0000     -10.331643      -281.1383
   4   2.0000     -10.315765      -280.7062
   5   2.0000     -10.313687      -280.6497
   6   2.0000     -10.306876      -280.4644
   7   2.0000     -10.301092      -280.3070
   8   2.0000     -10.296515      -280.1824
   9   2.0000     -10.293419      -280.0982
  10   2.0000     -10.291446      -280.0445
  11   2.0000     -10.290787      -280.0266
  12   2.0000     -10.284820      -279.8642
  13   2.0000     -10.281253      -279.7671
  14   2.0000     -10.280050      -279.7344
  15   2.0000     -10.279693      -279.7247
  16   2.0000      -8.086265      -220.0385
  17   2.0000      -8.076624      -219.7761
  18   2.0000      -6.044676      -164.4840
  19   2.0000      -6.040686      -164.3754
  20   2.0000      -6.037047      -164.2764
  21   2.0000      -6.035173      -164.2254
  22   2.0000      -6.031092      -164.1144
  23   2.0000      -6.027502      -164.0167
  24   2.0000      -1.005991       -27.3744
  25   2.0000      -0.983044       -26.7500
  26   2.0000      -0.914568       -24.8867
  27   2.0000      -0.904624       -24.6161
  28   2.0000      -0.871408       -23.7122
  29   2.0000      -0.851777       -23.1780
  30   2.0000      -0.842948       -22.9378
  31   2.0000      -0.808316       -21.9954
  32   2.0000      -0.782515       -21.2933
  33   2.0000      -0.768167       -20.9029
  34   2.0000      -0.709041       -19.2940
  35   2.0000      -0.700677       -19.0664
  36   2.0000      -0.694619       -18.9016
  37   2.0000      -0.665575       -18.1112
  38   2.0000      -0.638180       -17.3658
  39   2.0000      -0.616595       -16.7784
  40   2.0000      -0.594363       -16.1734
  41   2.0000      -0.565739       -15.3946
  42   2.0000      -0.562523       -15.3070
  43   2.0000      -0.554165       -15.0796
  44   2.0000      -0.534224       -14.5370
  45   2.0000      -0.524704       -14.2779
  46   2.0000      -0.519277       -14.1303
  47   2.0000      -0.508541       -13.8381
  48   2.0000      -0.506963       -13.7952
  49   2.0000      -0.503570       -13.7028
  50   2.0000      -0.488005       -13.2793
  51   2.0000      -0.479677       -13.0527
  52   2.0000      -0.475742       -12.9456
  53   2.0000      -0.462979       -12.5983
  54   2.0000      -0.457180       -12.4405
  55   2.0000      -0.455056       -12.3827
  56   2.0000      -0.445379       -12.1194
  57   2.0000      -0.437464       -11.9040
  58   2.0000      -0.430062       -11.7026
  59   2.0000      -0.420414       -11.4401
  60   2.0000      -0.415370       -11.3028
  61   2.0000      -0.411067       -11.1857
  62   2.0000      -0.406656       -11.0657
  63   2.0000      -0.362179        -9.8554
  64   2.0000      -0.333126        -9.0648
  65   2.0000      -0.326820        -8.8932
  66   2.0000      -0.275974        -7.5096
  67   0.0000       0.016403         0.4463
  68   0.0000       0.090460         2.4615
  69   0.0000       0.109365         2.9760
  70   0.0000       0.124724         3.3939
  71   0.0000       0.129875         3.5341

MULLIKEN ATOMIC CHARGES
-----------------------
   0 S :    0.076207
   1 C :   -0.123238
   2 C :   -0.075684
   3 C :    0.003702
   4 C :   -0.112557
   5 H :   -0.002643
   6 C :    0.078887
   7 H :    0.006482
   8 H :    0.011118
   9 C :   -0.041699
  10 H :    0.033768
  11 H :    0.029805
  12 C :   -0.068243
  13 H :    0.023893
  14 H :    0.035449
  15 H :    0.053605
  16 S :    0.119931
  17 C :   -0.081637
  18 C :   -0.063336
  19 C :   -0.101437
  20 C :   -0.116222
  21 H :    0.045848
  22 C :    0.055035
  23 H :    0.035643
  24 H :   -0.002838
  25 C :   -0.033405
  26 H :    0.039839
  27 H :    0.036322
  28 C :   -0.069783
  29 H :    0.033165
  30 H :    0.031755
  31 H :    0.049248
  32 H :    0.030574
  33 H :    0.062446
Sum of atomic charges:   -0.0000000

LOEWDIN ATOMIC CHARGES
----------------------
   0 S :    0.412035
   1 C :   -0.189452
   2 C :   -0.057343
   3 C :   -0.080883
   4 C :   -0.183316
   5 H :    0.018551
   6 C :   -0.028871
   7 H :    0.023763
   8 H :    0.025336
   9 C :   -0.040319
  10 H :    0.021951
  11 H :    0.028713
  12 C :   -0.063862
  13 H :    0.009880
  14 H :    0.030151
  15 H :    0.042897
  16 S :    0.443361
  17 C :   -0.210897
  18 C :   -0.082707
  19 C :   -0.047352
  20 C :   -0.205018
  21 H :    0.043600
  22 C :   -0.040311
  23 H :    0.030578
  24 H :    0.022532
  25 C :   -0.034087
  26 H :    0.024439
  27 H :    0.021056
  28 C :   -0.068685
  29 H :    0.035677
  30 H :    0.020460
  31 H :    0.026359
  32 H :    0.017673
  33 H :    0.034090

  Mayer bond orders larger than 0.100000
B(  0-S ,  1-C ) :   1.1179 B(  0-S ,  4-C ) :   1.1677 B(  1-C ,  2-C ) :   1.5926
B(  1-C , 32-H ) :   0.9851 B(  2-C ,  3-C ) :   1.2749 B(  2-C ,  6-C ) :   1.0285
B(  3-C ,  4-C ) :   1.4952 B(  3-C ,  5-H ) :   0.9906 B(  4-C , 20-C ) :   1.1279
B(  6-C ,  7-H ) :   0.9458 B(  6-C ,  8-H ) :   0.9382 B(  6-C ,  9-C ) :   1.0303
B(  9-C , 10-H ) :   0.9655 B(  9-C , 11-H ) :   0.9572 B(  9-C , 12-C ) :   1.0811
B( 12-C , 13-H ) :   0.9781 B( 12-C , 14-H ) :   0.9747 B( 12-C , 15-H ) :   0.9726
B( 16-S , 17-C ) :   1.1769 B( 16-S , 20-C ) :   1.1423 B( 17-C , 18-C ) :   1.6054
B( 17-C , 33-H ) :   0.9588 B( 18-C , 19-C ) :   1.2583 B( 18-C , 21-H ) :   0.9768
B( 19-C , 20-C ) :   1.5328 B( 19-C , 22-C ) :   1.0358 B( 22-C , 23-H ) :   0.9205
B( 22-C , 24-H ) :   0.9352 B( 22-C , 25-C ) :   1.0380 B( 25-C , 26-H ) :   0.9648
B( 25-C , 27-H ) :   0.9516 B( 25-C , 28-C ) :   1.0642 B( 28-C , 29-H ) :   0.9725
B( 28-C , 30-H ) :   0.9779 B( 28-C , 31-H ) :   0.9756

Dispersion correction           -0.013719719
FINAL SINGLE POINT ENERGY     -1339.863660139693

DIPOLE MOMENT
-------------
                                X             Y             Z
Electronic contribution:     -0.37139      13.58336      -1.57850
Nuclear contribution   :      0.44987     -13.66697       1.53308
                        -----------------------------------------
Total Dipole Moment    :      0.07849      -0.08362      -0.04542
                        -----------------------------------------
Magnitude (a.u.)       :      0.12335
Magnitude (Debye)      :      0.31353

Rotational constants in cm-1:     0.020310     0.007972     0.006247
Rotational constants in MHz :   608.871341   238.998711   187.279997

                             ****ORCA TERMINATED NORMALLY****
TOTAL RUN TIME: 0 days 0 hours 0 minutes 29 seconds 302 msec
