                         Program Version 4.2.1 -  RELEASE  -
|  1> ! wB97X-D3 SP def2-SVP
|  2> %pal
|  3> nprocs 16
|  4> end
|  5>
|  6> * xyz 0 1
|  7> S 	 -12.8797 	 51.5747 	 42.3366
|  8> C 	 -14.3776 	 52.2154 	 42.7328
|  9> C 	 -14.4114 	 52.9728 	 43.8597
| 10> C 	 -13.1062 	 53.1241 	 44.3339
| 11> C 	 -12.0791 	 52.4194 	 43.7005
| 12> H 	 -12.873 	 53.7866 	 45.1878
| 13> C 	 -15.6121 	 53.7823 	 44.3752
| 14> H 	 -15.0898 	 54.727 	 44.563
| 15> H 	 -15.9057 	 53.3413 	 45.3102
| 16> C 	 -16.766 	 54.0775 	 43.4236
| 17> H 	 -16.4367 	 54.47 	 42.4701
| 18> H 	 -17.1649 	 53.1424 	 43.0734
| 19> C 	 -17.7762 	 55.0433 	 44.1509
| 20> H 	 -17.3924 	 56.0778 	 44.0662
| 21> H 	 -18.6768 	 55.0593 	 43.64
| 22> H 	 -17.8933 	 54.8584 	 45.2236
| 23> S 	 -9.67621 	 51.5163 	 42.7814
| 24> C 	 -8.3809 	 51.255 	 43.9598
| 25> C 	 -8.68514 	 51.8104 	 45.196
| 26> C 	 -10.0468 	 52.2452 	 45.316
| 27> C 	 -10.7047 	 52.1608 	 44.1358
| 28> H 	 -7.85835 	 51.758 	 45.9431
| 29> C 	 -10.5886 	 52.8566 	 46.6624
| 30> H 	 -10.1496 	 52.3397 	 47.51
| 31> H 	 -11.6426 	 52.612 	 46.7941
| 32> C 	 -10.3494 	 54.4031 	 46.6798
| 33> H 	 -10.7118 	 55.0226 	 45.8815
| 34> H 	 -9.30678 	 54.7088 	 46.5422
| 35> C 	 -10.7959 	 55.1649 	 47.9103
| 36> H 	 -10.3925 	 54.7606 	 48.8592
| 37> H 	 -11.8506 	 55.15 	 48.0781
| 38> H 	 -10.4105 	 56.1841 	 47.9068
| 39> H 	 -15.2106 	 51.9985 	 42.0902
| 40> H 	 -7.39948 	 50.9155 	 43.7443
| 41> *
| 42>
| 43>                          ****END OF INPUT****

CARTESIAN COORDINATES (ANGSTROEM)
---------------------------------
  S    -12.879700   51.574700   42.336600
  C    -14.377600   52.215400   42.732800
  C    -14.411400   52.972800   43.859700
  C    -13.106200   53.124100   44.333900
  C    -12.079100   52.419400   43.700500
  H    -12.873000   53.786600   45.187800
  C    -15.612100   53.782300   44.375200
  H    -15.089800   54.727000   44.563000
  H    -15.905700   53.341300   45.310200
  C    -16.766000   54.077500   43.423600
  H    -16.436700   54.470000   42.470100
  H    -17.164900   53.142400   43.073400
  C    -17.776200   55.043300   44.150900
  H    -17.392400   56.077800   44.066200
  H    -18.676800   55.059300   43.640000
  H    -17.893300   54.858400   45.223600
  S     -9.676210   51.516300   42.781400
  C     -8.380900   51.255000   43.959800
  C     -8.685140   51.810400   45.196000
  C    -10.046800   52.245200   45.316000
  C    -10.704700   52.160800   44.135800
  H     -7.858350   51.758000   45.943100
  C    -10.588600   52.856600   46.662400
  H    -10.149600   52.339700   47.510000
  H    -11.642600   52.612000   46.794100
  C    -10.349400   54.403100   46.679800
  H    -10.711800   55.022600   45.881500
  H     -9.306780   54.708800   46.542200
  C    -10.795900   55.164900   47.910300
  H    -10.392500   54.760600   48.859200
  H    -11.850600   55.150000   48.078100
  H    -10.410500   56.184100   47.906800
  H    -15.210600   51.998500   42.090200
  H     -7.399480   50.915500   43.744300

 Total Charge           Charge          ....    0
 Multiplicity           Mult            ....    1
 Number of Electrons    NEL             ....  134
 Basis Dimension        Dim             ....  322

ORBITAL ENERGIES
----------------

  NO   OCC          E(Eh)            E(eV)
   0   2.0000     -88.963714     -2420.8257
   1   2.0000     -88.962616     -2420.7958
   2   2.0000     -10.332811      -281.1701
   3   2.0000     -10.330900      -281.1181
   4   2.0000     -10.316540      -280.7273
   5   2.0000     -10.309062      -280.5238
   6   2.0000     -10.305326      -280.4222
   7   2.0000     -10.304700      -280.4051
   8   2.0000     -10.299079      -280.2522
   9   2.0000     -10.293373      -280.0969
  10   2.0000     -10.293274      -280.0942
  11   2.0000     -10.292331      -280.0686
  12   2.0000     -10.290212      -280.0109
  13   2.0000     -10.288070      -279.9526
  14   2.0000     -10.281392      -279.7709
  15   2.0000     -10.275998      -279.6241
  16   2.0000      -8.078176      -219.8183
  17   2.0000      -8.077449      -219.7986
  18   2.0000      -6.036645      -164.2655
  19   2.0000      -6.036106      -164.2508
  20   2.0000      -6.032469      -164.1518
  21   2.0000      -6.032359      -164.1488
  22   2.0000      -6.029020      -164.0580
  23   2.0000      -6.027861      -164.0264
  24   2.0000      -1.006860       -27.3980
  25   2.0000      -0.983361       -26.7586
  26   2.0000      -0.910799       -24.7841
  27   2.0000      -0.903943       -24.5975
  28   2.0000      -0.867453       -23.6046
  29   2.0000      -0.855910       -23.2905
  30   2.0000      -0.847522       -23.0622
  31   2.0000      -0.811128       -22.0719
  32   2.0000      -0.784855       -21.3570
  33   2.0000      -0.774156       -21.0659
  34   2.0000      -0.718298       -19.5459
  35   2.0000      -0.707476       -19.2514
  36   2.0000      -0.696321       -18.9479
  37   2.0000      -0.665398       -18.1064
  38   2.0000      -0.637808       -17.3556
  39   2.0000      -0.616786       -16.7836
  40   2.0000      -0.592394       -16.1199
  41   2.0000      -0.567369       -15.4389
  42   2.0000      -0.565697       -15.3934
  43   2.0000      -0.553483       -15.0610
  44   2.0000      -0.536080       -14.5875
  45   2.0000      -0.526290       -14.3211
  46   2.0000      -0.516827       -14.0636
  47   2.0000      -0.510206       -13.8834
  48   2.0000      -0.507008       -13.7964
  49   2.0000      -0.493584       -13.4311
  50   2.0000      -0.491291       -13.3687
  51   2.0000      -0.482467       -13.1286
  52   2.0000      -0.471268       -12.8238
  53   2.0000      -0.465729       -12.6731
  54   2.0000      -0.461659       -12.5624
  55   2.0000      -0.448856       -12.2140
  56   2.0000      -0.445915       -12.1340
  57   2.0000      -0.443582       -12.0705
  58   2.0000      -0.435139       -11.8407
  59   2.0000      -0.423414       -11.5217
  60   2.0000      -0.421250       -11.4628
  61   2.0000      -0.413701       -11.2574
  62   2.0000      -0.409351       -11.1390
  63   2.0000      -0.360671        -9.8144
  64   2.0000      -0.334527        -9.1029
  65   2.0000      -0.330348        -8.9892
  66   2.0000      -0.281470        -7.6592
  67   0.0000       0.022276         0.6062
  68   0.0000       0.083720         2.2781
  69   0.0000       0.092674         2.5218
  70   0.0000       0.130626         3.5545
  71   0.0000       0.132889         3.6161

MULLIKEN ATOMIC CHARGES
-----------------------
   0 S :    0.107084
   1 C :   -0.136460
   2 C :   -0.061320
   3 C :   -0.042353
   4 C :   -0.094999
   5 H :    0.011952
   6 C :    0.061194
   7 H :    0.030447
   8 H :    0.038183
   9 C :   -0.069269
  10 H :    0.022568
  11 H :    0.020587
  12 C :   -0.023927
  13 H :    0.034583
  14 H :    0.022175
  15 H :    0.039107
  16 S :    0.075121
  17 C :   -0.070577
  18 C :   -0.060514
  19 C :   -0.062613
  20 C :   -0.118568
  21 H :    0.035243
  22 C :    0.105440
  23 H :    0.023012
  24 H :    0.025593
  25 C :   -0.065978
  26 H :    0.023664
  27 H :    0.016787
  28 C :   -0.044132
  29 H :    0.016939
  30 H :    0.022421
  31 H :    0.033828
  32 H :    0.042171
  33 H :    0.042611
Sum of atomic charges:   -0.0000000

LOEWDIN ATOMIC CHARGES
----------------------
   0 S :    0.416191
   1 C :   -0.210138
   2 C :   -0.076384
   3 C :   -0.068227
   4 C :   -0.189892
   5 H :    0.030986
   6 C :   -0.026281
   7 H :    0.035616
   8 H :    0.030674
   9 C :   -0.038907
  10 H :    0.025148
  11 H :    0.016914
  12 C :   -0.055418
  13 H :    0.032044
  14 H :    0.016916
  15 H :    0.028759
  16 S :    0.357169
  17 C :   -0.170560
  18 C :   -0.072526
  19 C :   -0.055963
  20 C :   -0.159212
  21 H :    0.039741
  22 C :   -0.017813
  23 H :    0.032047
  24 H :    0.029601
  25 C :   -0.051341
  26 H :    0.026720
  27 H :    0.029371
  28 C :   -0.068052
  29 H :    0.022299
  30 H :    0.016452
  31 H :    0.029832
  32 H :    0.022358
  33 H :    0.021877

  Mayer bond orders larger than 0.100000
B(  0-S ,  1-C ) :   1.1727 B(  0-S ,  4-C ) :   1.1376 B(  1-C ,  2-C ) :   1.5805
B(  1-C , 32-H ) :   0.9613 B(  2-C ,  3-C ) :   1.3040 B(  2-C ,  6-C ) :   0.9820
B(  3-C ,  4-C ) :   1.5511 B(  3-C ,  5-H ) :   0.9863 B(  4-C , 20-C ) :   1.0684
B(  6-C ,  7-H ) :   0.9533 B(  6-C ,  8-H ) :   0.9291 B(  6-C ,  9-C ) :   1.0838
B(  9-C , 10-H ) :   0.9544 B(  9-C , 11-H ) :   0.9507 B(  9-C , 12-C ) :   1.0682
B( 12-C , 13-H ) :   0.9759 B( 12-C , 14-H ) :   0.9739 B( 12-C , 15-H ) :   0.9788
B( 16-S , 17-C ) :   1.1286 B( 16-S , 20-C ) :   1.1076 B( 17-C , 18-C ) :   1.6674
B( 17-C , 33-H ) :   0.9681 B( 18-C , 19-C ) :   1.1890 B( 18-C , 21-H ) :   0.9807
B( 19-C , 20-C ) :   1.6646 B( 19-C , 22-C ) :   1.0347 B( 22-C , 23-H ) :   0.9352
B( 22-C , 24-H ) :   0.9397 B( 22-C , 25-C ) :   1.0389 B( 25-C , 26-H ) :   0.9545
B( 25-C , 27-H ) :   0.9513 B( 25-C , 28-C ) :   1.0926 B( 28-C , 29-H ) :   0.9717
B( 28-C , 30-H ) :   0.9753 B( 28-C , 31-H ) :   0.9719

Dispersion correction           -0.013660378
FINAL SINGLE POINT ENERGY     -1339.868169096805

DIPOLE MOMENT
-------------
                                X             Y             Z
Electronic contribution:     16.05136     -19.38719     -18.97009
Nuclear contribution   :    -16.29506      19.83755      19.52819
                        -----------------------------------------
Total Dipole Moment    :     -0.24369       0.45036       0.55809
                        -----------------------------------------
Magnitude (a.u.)       :      0.75742
Magnitude (Debye)      :      1.92520

Rotational constants in cm-1:     0.018701     0.008234     0.005880
Rotational constants in MHz :   560.636159   246.847854   176.265600

                             ****ORCA TERMINATED NORMALLY****
TOTAL RUN TIME: 0 days 0 hours 0 minutes 32 seconds 468 msec
