                         Program Version 4.2.1 -  RELEASE  -
|  1> ! wB97X-D3 SP def2-SVP
|  2> %pal
|  3> nprocs 16
|  4> end
|  5>
|  6> * xyz 0 1
|  7> S 	 33.612 	 -0.202177 	 70.4629
|  8> C 	 34.1216 	 1.46435 	 70.2879
|  9> C 	 33.2839 	 2.08864 	 69.3509
| 10> C 	 32.4531 	 1.15047 	 68.659
| 11> C 	 32.537 	 -0.122952 	 69.1709
| 12> H 	 31.8688 	 1.28639 	 67.7872
| 13> C 	 33.2875 	 3.60173 	 69.1153
| 14> H 	 33.7236 	 4.14949 	 69.9714
| 15> H 	 32.2359 	 4.1218 	 69.0821
| 16> C 	 34.0542 	 4.14101 	 67.8383
| 17> H 	 33.508 	 3.73034 	 66.9115
| 18> H 	 34.0343 	 5.23886 	 67.955
| 19> C 	 35.5448 	 3.69284 	 67.9315
| 20> H 	 35.6795 	 2.63495 	 67.713
| 21> H 	 36.3008 	 4.19555 	 67.381
| 22> H 	 35.9643 	 3.89584 	 68.963
| 23> S 	 32.5025 	 -2.84099 	 68.319
| 24> C 	 30.9071 	 -3.43815 	 67.8064
| 25> C 	 29.8758 	 -2.55904 	 68.0662
| 26> C 	 30.382 	 -1.30518 	 68.5573
| 27> C 	 31.7565 	 -1.29672 	 68.801
| 28> H 	 28.8067 	 -2.82217 	 67.9787
| 29> C 	 29.4162 	 -0.195988 	 68.8266
| 30> H 	 28.3644 	 -0.251601 	 68.3836
| 31> H 	 29.978 	 0.661122 	 68.4164
| 32> C 	 29.1081 	 0.173534 	 70.2887
| 33> H 	 30.0311 	 0.416732 	 70.8516
| 34> H 	 28.872 	 -0.74983 	 70.8125
| 35> C 	 27.9572 	 1.19576 	 70.467
| 36> H 	 27.0154 	 0.8914 	 70.03
| 37> H 	 28.2215 	 2.14503 	 70.1063
| 38> H 	 27.7679 	 1.16365 	 71.5585
| 39> H 	 34.8573 	 1.9697 	 70.8684
| 40> H 	 30.6331 	 -4.45283 	 67.7007
| 41> *
| 42>
| 43>                          ****END OF INPUT****

CARTESIAN COORDINATES (ANGSTROEM)
---------------------------------
  S     33.612000   -0.202177   70.462900
  C     34.121600    1.464350   70.287900
  C     33.283900    2.088640   69.350900
  C     32.453100    1.150470   68.659000
  C     32.537000   -0.122952   69.170900
  H     31.868800    1.286390   67.787200
  C     33.287500    3.601730   69.115300
  H     33.723600    4.149490   69.971400
  H     32.235900    4.121800   69.082100
  C     34.054200    4.141010   67.838300
  H     33.508000    3.730340   66.911500
  H     34.034300    5.238860   67.955000
  C     35.544800    3.692840   67.931500
  H     35.679500    2.634950   67.713000
  H     36.300800    4.195550   67.381000
  H     35.964300    3.895840   68.963000
  S     32.502500   -2.840990   68.319000
  C     30.907100   -3.438150   67.806400
  C     29.875800   -2.559040   68.066200
  C     30.382000   -1.305180   68.557300
  C     31.756500   -1.296720   68.801000
  H     28.806700   -2.822170   67.978700
  C     29.416200   -0.195988   68.826600
  H     28.364400   -0.251601   68.383600
  H     29.978000    0.661122   68.416400
  C     29.108100    0.173534   70.288700
  H     30.031100    0.416732   70.851600
  H     28.872000   -0.749830   70.812500
  C     27.957200    1.195760   70.467000
  H     27.015400    0.891400   70.030000
  H     28.221500    2.145030   70.106300
  H     27.767900    1.163650   71.558500
  H     34.857300    1.969700   70.868400
  H     30.633100   -4.452830   67.700700

 Total Charge           Charge          ....    0
 Multiplicity           Mult            ....    1
 Number of Electrons    NEL             ....  134
 Basis Dimension        Dim             ....  322

ORBITAL ENERGIES
----------------

  NO   OCC          E(Eh)            E(eV)
   0   2.0000     -88.971043     -2421.0252
   1   2.0000     -88.966572     -2420.9035
   2   2.0000     -10.329781      -281.0876
   3   2.0000     -10.324843      -280.9533
   4   2.0000     -10.316936      -280.7381
   5   2.0000     -10.315959      -280.7115
   6   2.0000     -10.309211      -280.5279
   7   2.0000     -10.305296      -280.4214
   8   2.0000     -10.305222      -280.4194
   9   2.0000     -10.302297      -280.3398
  10   2.0000     -10.297995      -280.2227
  11   2.0000     -10.292154      -280.0638
  12   2.0000     -10.291538      -280.0470
  13   2.0000     -10.283257      -279.8217
  14   2.0000     -10.277203      -279.6569
  15   2.0000     -10.277005      -279.6515
  16   2.0000      -8.084485      -219.9900
  17   2.0000      -8.082494      -219.9358
  18   2.0000      -6.043163      -164.4428
  19   2.0000      -6.040793      -164.3783
  20   2.0000      -6.039265      -164.3368
  21   2.0000      -6.036672      -164.2662
  22   2.0000      -6.035050      -164.2221
  23   2.0000      -6.033559      -164.1815
  24   2.0000      -1.011841       -27.5336
  25   2.0000      -0.983009       -26.7490
  26   2.0000      -0.905205       -24.6319
  27   2.0000      -0.903821       -24.5942
  28   2.0000      -0.867517       -23.6063
  29   2.0000      -0.851782       -23.1782
  30   2.0000      -0.843884       -22.9633
  31   2.0000      -0.814887       -22.1742
  32   2.0000      -0.781518       -21.2662
  33   2.0000      -0.770670       -20.9710
  34   2.0000      -0.710577       -19.3358
  35   2.0000      -0.694577       -18.9004
  36   2.0000      -0.690787       -18.7973
  37   2.0000      -0.659300       -17.9405
  38   2.0000      -0.646451       -17.5908
  39   2.0000      -0.620733       -16.8910
  40   2.0000      -0.594780       -16.1848
  41   2.0000      -0.571216       -15.5436
  42   2.0000      -0.559856       -15.2345
  43   2.0000      -0.545088       -14.8326
  44   2.0000      -0.536508       -14.5991
  45   2.0000      -0.526390       -14.3238
  46   2.0000      -0.515909       -14.0386
  47   2.0000      -0.511373       -13.9152
  48   2.0000      -0.500120       -13.6089
  49   2.0000      -0.498187       -13.5563
  50   2.0000      -0.486575       -13.2404
  51   2.0000      -0.482701       -13.1350
  52   2.0000      -0.469341       -12.7714
  53   2.0000      -0.462435       -12.5835
  54   2.0000      -0.457357       -12.4453
  55   2.0000      -0.452695       -12.3185
  56   2.0000      -0.442683       -12.0460
  57   2.0000      -0.430195       -11.7062
  58   2.0000      -0.429832       -11.6963
  59   2.0000      -0.426506       -11.6058
  60   2.0000      -0.423503       -11.5241
  61   2.0000      -0.413750       -11.2587
  62   2.0000      -0.403549       -10.9811
  63   2.0000      -0.345365        -9.3978
  64   2.0000      -0.331753        -9.0274
  65   2.0000      -0.329749        -8.9729
  66   2.0000      -0.295255        -8.0343
  67   0.0000       0.025523         0.6945
  68   0.0000       0.067703         1.8423
  69   0.0000       0.104318         2.8386
  70   0.0000       0.114516         3.1161
  71   0.0000       0.132451         3.6042

MULLIKEN ATOMIC CHARGES
-----------------------
   0 S :    0.118658
   1 C :   -0.103041
   2 C :   -0.058380
   3 C :    0.038550
   4 C :   -0.180644
   5 H :    0.015925
   6 C :   -0.023846
   7 H :    0.023270
   8 H :    0.050467
   9 C :   -0.075479
  10 H :    0.055727
  11 H :    0.042582
  12 C :   -0.065269
  13 H :    0.047774
  14 H :    0.023459
  15 H :    0.015182
  16 S :    0.111351
  17 C :   -0.066115
  18 C :   -0.051211
  19 C :   -0.040962
  20 C :   -0.128706
  21 H :    0.037139
  22 C :    0.051075
  23 H :    0.031394
  24 H :    0.010458
  25 C :   -0.089584
  26 H :    0.032557
  27 H :    0.012772
  28 C :   -0.018271
  29 H :    0.024633
  30 H :    0.030237
  31 H :    0.038182
  32 H :    0.041175
  33 H :    0.048944
Sum of atomic charges:   -0.0000000

LOEWDIN ATOMIC CHARGES
----------------------
   0 S :    0.439614
   1 C :   -0.193354
   2 C :   -0.058385
   3 C :   -0.064613
   4 C :   -0.212775
   5 H :    0.027282
   6 C :   -0.046641
   7 H :    0.027257
   8 H :    0.041107
   9 C :   -0.041500
  10 H :    0.033159
  11 H :    0.028386
  12 C :   -0.077903
  13 H :    0.028085
  14 H :    0.018709
  15 H :    0.027463
  16 S :    0.386538
  17 C :   -0.174157
  18 C :   -0.064371
  19 C :   -0.048506
  20 C :   -0.203429
  21 H :    0.040021
  22 C :   -0.047761
  23 H :    0.037519
  24 H :    0.031680
  25 C :   -0.045229
  26 H :    0.027006
  27 H :    0.018710
  28 C :   -0.057388
  29 H :    0.022530
  30 H :    0.017688
  31 H :    0.036288
  32 H :    0.023808
  33 H :    0.023163

  Mayer bond orders larger than 0.100000
B(  0-S ,  1-C ) :   1.1466 B(  0-S ,  4-C ) :   1.1824 B(  1-C ,  2-C ) :   1.5791
B(  1-C , 32-H ) :   0.9777 B(  2-C ,  3-C ) :   1.2390 B(  2-C ,  6-C ) :   1.0224
B(  3-C ,  4-C ) :   1.5695 B(  3-C ,  5-H ) :   0.9947 B(  4-C , 20-C ) :   1.0170
B(  6-C ,  7-H ) :   0.9464 B(  6-C ,  8-H ) :   0.9497 B(  6-C ,  9-C ) :   1.0619
B(  9-C , 10-H ) :   0.9592 B(  9-C , 11-H ) :   0.9566 B(  9-C , 12-C ) :   1.0604
B( 12-C , 13-H ) :   0.9753 B( 12-C , 14-H ) :   0.9771 B( 12-C , 15-H ) :   0.9720
B( 16-S , 17-C ) :   1.1460 B( 16-S , 20-C ) :   1.1180 B( 17-C , 18-C ) :   1.6290
B( 17-C , 33-H ) :   0.9593 B( 18-C , 19-C ) :   1.2407 B( 18-C , 21-H ) :   0.9838
B( 19-C , 20-C ) :   1.5915 B( 19-C , 22-C ) :   1.0436 B( 22-C , 23-H ) :   0.9447
B( 22-C , 24-H ) :   0.9119 B( 22-C , 25-C ) :   1.0632 B( 25-C , 26-H ) :   0.9503
B( 25-C , 27-H ) :   0.9541 B( 25-C , 28-C ) :   1.0793 B( 28-C , 29-H ) :   0.9724
B( 28-C , 30-H ) :   0.9789 B( 28-C , 31-H ) :   0.9728

Dispersion correction           -0.014846823
FINAL SINGLE POINT ENERGY     -1339.864212711102

DIPOLE MOMENT
-------------
                                X             Y             Z
Electronic contribution:      8.60533     -23.83027       0.66861
Nuclear contribution   :     -9.02430      24.27829      -0.62502
                        -----------------------------------------
Total Dipole Moment    :     -0.41896       0.44803       0.04359
                        -----------------------------------------
Magnitude (a.u.)       :      0.61495
Magnitude (Debye)      :      1.56307

Rotational constants in cm-1:     0.018401     0.008864     0.007106
Rotational constants in MHz :   551.649004   265.737698   213.019978

                             ****ORCA TERMINATED NORMALLY****
TOTAL RUN TIME: 0 days 0 hours 0 minutes 30 seconds 705 msec
