                         Program Version 4.2.1 -  RELEASE  -
|  1> ! wB97X-D3 SP def2-SVP
|  2> %pal
|  3> nprocs 16
|  4> end
|  5>
|  6> * xyz 0 1
|  7> S 	 -39.2062 	 31.5435 	 76.4008
|  8> C 	 -39.5439 	 33.2517 	 76.1321
|  9> C 	 -38.7079 	 34.0974 	 76.8999
| 10> C 	 -37.8012 	 33.3567 	 77.7606
| 11> C 	 -38.0604 	 31.992 	 77.702
| 12> H 	 -37.178 	 33.8524 	 78.5283
| 13> C 	 -38.7525 	 35.5555 	 77.0208
| 14> H 	 -39.2283 	 35.9372 	 76.1133
| 15> H 	 -37.7266 	 35.9456 	 76.9892
| 16> C 	 -39.3152 	 36.0883 	 78.3893
| 17> H 	 -40.4163 	 35.8719 	 78.4515
| 18> H 	 -38.8416 	 35.5278 	 79.2232
| 19> C 	 -39.216 	 37.6378 	 78.467
| 20> H 	 -38.2253 	 37.905 	 78.221
| 21> H 	 -39.8906 	 37.9811 	 77.708
| 22> H 	 -39.4935 	 37.9619 	 79.438
| 23> S 	 -36.4041 	 29.8677 	 77.4779
| 24> C 	 -35.7099 	 29.1294 	 78.912
| 25> C 	 -36.1969 	 29.7314 	 80.0714
| 26> C 	 -37.1976 	 30.676 	 79.7954
| 27> C 	 -37.3973 	 30.9571 	 78.4648
| 28> H 	 -36.0098 	 29.4108 	 81.1063
| 29> C 	 -37.8999 	 31.4607 	 80.9237
| 30> H 	 -37.6814 	 32.5045 	 80.8441
| 31> H 	 -37.527 	 31.171 	 81.9383
| 32> C 	 -39.4135 	 31.123 	 81.0828
| 33> H 	 -39.8788 	 31.0837 	 80.1556
| 34> H 	 -39.8297 	 31.9357 	 81.6485
| 35> C 	 -39.6647 	 29.8265 	 81.8354
| 36> H 	 -39.3924 	 29.0359 	 81.1459
| 37> H 	 -40.7181 	 29.7468 	 82.1215
| 38> H 	 -38.9669 	 29.7762 	 82.7457
| 39> H 	 -40.3107 	 33.6567 	 75.4901
| 40> H 	 -34.9523 	 28.3241 	 78.727
| 41> *
| 42>
| 43>                          ****END OF INPUT****

CARTESIAN COORDINATES (ANGSTROEM)
---------------------------------
  S    -39.206200   31.543500   76.400800
  C    -39.543900   33.251700   76.132100
  C    -38.707900   34.097400   76.899900
  C    -37.801200   33.356700   77.760600
  C    -38.060400   31.992000   77.702000
  H    -37.178000   33.852400   78.528300
  C    -38.752500   35.555500   77.020800
  H    -39.228300   35.937200   76.113300
  H    -37.726600   35.945600   76.989200
  C    -39.315200   36.088300   78.389300
  H    -40.416300   35.871900   78.451500
  H    -38.841600   35.527800   79.223200
  C    -39.216000   37.637800   78.467000
  H    -38.225300   37.905000   78.221000
  H    -39.890600   37.981100   77.708000
  H    -39.493500   37.961900   79.438000
  S    -36.404100   29.867700   77.477900
  C    -35.709900   29.129400   78.912000
  C    -36.196900   29.731400   80.071400
  C    -37.197600   30.676000   79.795400
  C    -37.397300   30.957100   78.464800
  H    -36.009800   29.410800   81.106300
  C    -37.899900   31.460700   80.923700
  H    -37.681400   32.504500   80.844100
  H    -37.527000   31.171000   81.938300
  C    -39.413500   31.123000   81.082800
  H    -39.878800   31.083700   80.155600
  H    -39.829700   31.935700   81.648500
  C    -39.664700   29.826500   81.835400
  H    -39.392400   29.035900   81.145900
  H    -40.718100   29.746800   82.121500
  H    -38.966900   29.776200   82.745700
  H    -40.310700   33.656700   75.490100
  H    -34.952300   28.324100   78.727000

 Total Charge           Charge          ....    0
 Multiplicity           Mult            ....    1
 Number of Electrons    NEL             ....  134
 Basis Dimension        Dim             ....  322

ORBITAL ENERGIES
----------------

  NO   OCC          E(Eh)            E(eV)
   0   2.0000     -88.970213     -2421.0026
   1   2.0000     -88.961797     -2420.7736
   2   2.0000     -10.334522      -281.2166
   3   2.0000     -10.325425      -280.9691
   4   2.0000     -10.323250      -280.9099
   5   2.0000     -10.317682      -280.7584
   6   2.0000     -10.302551      -280.3467
   7   2.0000     -10.301300      -280.3126
   8   2.0000     -10.300221      -280.2833
   9   2.0000     -10.297254      -280.2025
  10   2.0000     -10.296207      -280.1740
  11   2.0000     -10.292535      -280.0741
  12   2.0000     -10.291935      -280.0578
  13   2.0000     -10.278215      -279.6844
  14   2.0000     -10.274642      -279.5872
  15   2.0000     -10.273289      -279.5504
  16   2.0000      -8.083893      -219.9739
  17   2.0000      -8.076621      -219.7760
  18   2.0000      -6.042442      -164.4232
  19   2.0000      -6.038708      -164.3216
  20   2.0000      -6.035030      -164.2215
  21   2.0000      -6.034507      -164.2073
  22   2.0000      -6.030986      -164.1115
  23   2.0000      -6.027597      -164.0193
  24   2.0000      -1.003151       -27.2971
  25   2.0000      -0.978321       -26.6215
  26   2.0000      -0.911890       -24.8138
  27   2.0000      -0.905564       -24.6417
  28   2.0000      -0.867443       -23.6043
  29   2.0000      -0.851948       -23.1827
  30   2.0000      -0.847310       -23.0565
  31   2.0000      -0.810722       -22.0609
  32   2.0000      -0.778789       -21.1919
  33   2.0000      -0.767085       -20.8734
  34   2.0000      -0.705979       -19.2107
  35   2.0000      -0.698706       -19.0128
  36   2.0000      -0.686810       -18.6890
  37   2.0000      -0.666432       -18.1345
  38   2.0000      -0.637389       -17.3442
  39   2.0000      -0.618690       -16.8354
  40   2.0000      -0.599397       -16.3104
  41   2.0000      -0.569044       -15.4845
  42   2.0000      -0.556272       -15.1369
  43   2.0000      -0.552744       -15.0409
  44   2.0000      -0.549121       -14.9423
  45   2.0000      -0.530233       -14.4284
  46   2.0000      -0.514967       -14.0130
  47   2.0000      -0.507475       -13.8091
  48   2.0000      -0.504205       -13.7201
  49   2.0000      -0.494843       -13.4654
  50   2.0000      -0.484418       -13.1817
  51   2.0000      -0.479030       -13.0351
  52   2.0000      -0.467755       -12.7283
  53   2.0000      -0.463778       -12.6201
  54   2.0000      -0.460794       -12.5388
  55   2.0000      -0.445937       -12.1346
  56   2.0000      -0.442765       -12.0482
  57   2.0000      -0.438920       -11.9436
  58   2.0000      -0.433657       -11.8004
  59   2.0000      -0.428556       -11.6616
  60   2.0000      -0.421986       -11.4828
  61   2.0000      -0.416947       -11.3457
  62   2.0000      -0.410279       -11.1643
  63   2.0000      -0.342787        -9.3277
  64   2.0000      -0.332045        -9.0354
  65   2.0000      -0.325672        -8.8620
  66   2.0000      -0.292328        -7.9547
  67   0.0000       0.030833         0.8390
  68   0.0000       0.057644         1.5686
  69   0.0000       0.104444         2.8421
  70   0.0000       0.116540         3.1712
  71   0.0000       0.122814         3.3419

MULLIKEN ATOMIC CHARGES
-----------------------
   0 S :    0.112907
   1 C :   -0.105381
   2 C :   -0.094324
   3 C :    0.038159
   4 C :   -0.157938
   5 H :    0.035541
   6 C :    0.046721
   7 H :    0.018017
   8 H :    0.025838
   9 C :   -0.123768
  10 H :    0.034854
  11 H :    0.033958
  12 C :    0.018366
  13 H :    0.016298
  14 H :    0.028999
  15 H :    0.033000
  16 S :    0.089817
  17 C :   -0.118929
  18 C :   -0.012735
  19 C :   -0.046664
  20 C :   -0.158634
  21 H :    0.027595
  22 C :    0.052612
  23 H :    0.027560
  24 H :    0.005005
  25 C :   -0.038614
  26 H :    0.023091
  27 H :    0.019024
  28 C :   -0.070239
  29 H :    0.039178
  30 H :    0.045337
  31 H :    0.029994
  32 H :    0.042207
  33 H :    0.083149
Sum of atomic charges:    0.0000000

LOEWDIN ATOMIC CHARGES
----------------------
   0 S :    0.385743
   1 C :   -0.199158
   2 C :   -0.059379
   3 C :   -0.055269
   4 C :   -0.182392
   5 H :    0.038300
   6 C :   -0.042477
   7 H :    0.029374
   8 H :    0.033410
   9 C :   -0.037696
  10 H :    0.026977
  11 H :    0.022082
  12 C :   -0.049829
  13 H :    0.016173
  14 H :    0.027000
  15 H :    0.023168
  16 S :    0.395964
  17 C :   -0.182516
  18 C :   -0.077219
  19 C :   -0.061199
  20 C :   -0.197074
  21 H :    0.036948
  22 C :   -0.025204
  23 H :    0.024317
  24 H :    0.027573
  25 C :   -0.032958
  26 H :    0.015120
  27 H :    0.020292
  28 C :   -0.065811
  29 H :    0.026015
  30 H :    0.028649
  31 H :    0.027454
  32 H :    0.026312
  33 H :    0.037312

  Mayer bond orders larger than 0.100000
B(  0-S ,  1-C ) :   1.1171 B(  0-S ,  4-C ) :   1.1377 B(  1-C ,  2-C ) :   1.6272
B(  1-C , 32-H ) :   0.9670 B(  2-C ,  3-C ) :   1.2063 B(  2-C ,  6-C ) :   1.0581
B(  3-C ,  4-C ) :   1.5976 B(  3-C ,  5-H ) :   0.9824 B(  4-C , 20-C ) :   1.0225
B(  6-C ,  7-H ) :   0.9362 B(  6-C ,  8-H ) :   0.9315 B(  6-C ,  9-C ) :   1.0460
B(  9-C , 10-H ) :   0.9578 B(  9-C , 11-H ) :   0.9580 B(  9-C , 12-C ) :   1.0682
B( 12-C , 13-H ) :   0.9776 B( 12-C , 14-H ) :   0.9759 B( 12-C , 15-H ) :   0.9749
B( 16-S , 17-C ) :   1.1775 B( 16-S , 20-C ) :   1.1395 B( 17-C , 18-C ) :   1.5526
B( 17-C , 20-C ) :   0.1104 B( 17-C , 33-H ) :   0.9650 B( 18-C , 19-C ) :   1.2814
B( 18-C , 21-H ) :   0.9849 B( 19-C , 20-C ) :   1.6056 B( 19-C , 22-C ) :   1.0297
B( 22-C , 23-H ) :   0.9434 B( 22-C , 24-H ) :   0.9406 B( 22-C , 25-C ) :   1.0626
B( 25-C , 26-H ) :   0.9595 B( 25-C , 27-H ) :   0.9547 B( 25-C , 28-C ) :   1.0782
B( 28-C , 29-H ) :   0.9779 B( 28-C , 30-H ) :   0.9740 B( 28-C , 31-H ) :   0.9728

Dispersion correction           -0.014442571
FINAL SINGLE POINT ENERGY     -1339.877572874928

DIPOLE MOMENT
-------------
                                X             Y             Z
Electronic contribution:      9.13658     -18.38336     -18.08931
Nuclear contribution   :     -9.20658      18.92240      18.53335
                        -----------------------------------------
Total Dipole Moment    :     -0.06999       0.53904       0.44404
                        -----------------------------------------
Magnitude (a.u.)       :      0.70188
Magnitude (Debye)      :      1.78405

Rotational constants in cm-1:     0.018596     0.008558     0.007105
Rotational constants in MHz :   557.497832   256.562963   213.007631

                             ****ORCA TERMINATED NORMALLY****
TOTAL RUN TIME: 0 days 0 hours 0 minutes 28 seconds 491 msec
