                         Program Version 4.2.1 -  RELEASE  -
|  1> ! wB97X-D3 SP def2-SVP
|  2> %pal
|  3> nprocs 16
|  4> end
|  5>
|  6> * xyz 0 1
|  7> S 	 -8.28677 	 77.6838 	 51.5108
|  8> C 	 -6.60398 	 78.2316 	 51.3962
|  9> C 	 -5.6951 	 77.2913 	 50.8366
| 10> C 	 -6.45548 	 76.0526 	 50.7074
| 11> C 	 -7.83657 	 76.1548 	 50.8897
| 12> H 	 -6.13968 	 75.1151 	 50.3149
| 13> C 	 -4.25468 	 77.5666 	 50.3712
| 14> H 	 -4.25908 	 78.6166 	 50.1423
| 15> H 	 -4.1505 	 77.0599 	 49.4387
| 16> C 	 -3.03152 	 77.4091 	 51.4122
| 17> H 	 -3.19295 	 77.8889 	 52.3585
| 18> H 	 -2.93578 	 76.4349 	 51.7637
| 19> C 	 -1.56415 	 77.7367 	 50.9279
| 20> H 	 -0.881103 	 77.6808 	 51.7405
| 21> H 	 -1.31089 	 76.9776 	 50.183
| 22> H 	 -1.52335 	 78.7213 	 50.5623
| 23> S 	 -9.88376 	 74.792 	 51.8006
| 24> C 	 -10.9556 	 73.753 	 50.7924
| 25> C 	 -10.3036 	 73.6191 	 49.5738
| 26> C 	 -9.07273 	 74.3947 	 49.4339
| 27> C 	 -8.8343 	 75.1321 	 50.5609
| 28> H 	 -10.6825 	 72.8886 	 48.9158
| 29> C 	 -8.34423 	 74.428 	 48.0501
| 30> H 	 -7.70525 	 75.3427 	 47.9843
| 31> H 	 -9.18939 	 74.5347 	 47.4014
| 32> C 	 -7.64362 	 73.1681 	 47.5757
| 33> H 	 -7.31062 	 73.1887 	 46.5009
| 34> H 	 -8.3832 	 72.3682 	 47.5955
| 35> C 	 -6.38683 	 72.7402 	 48.4147
| 36> H 	 -6.03544 	 71.807 	 47.9417
| 37> H 	 -6.69816 	 72.5108 	 49.4682
| 38> H 	 -5.65036 	 73.5233 	 48.4689
| 39> H 	 -6.25953 	 79.1941 	 51.6217
| 40> H 	 -11.5785 	 73.0614 	 51.2166
| 41> *
| 42>
| 43>                          ****END OF INPUT****

CARTESIAN COORDINATES (ANGSTROEM)
---------------------------------
  S     -8.286770   77.683800   51.510800
  C     -6.603980   78.231600   51.396200
  C     -5.695100   77.291300   50.836600
  C     -6.455480   76.052600   50.707400
  C     -7.836570   76.154800   50.889700
  H     -6.139680   75.115100   50.314900
  C     -4.254680   77.566600   50.371200
  H     -4.259080   78.616600   50.142300
  H     -4.150500   77.059900   49.438700
  C     -3.031520   77.409100   51.412200
  H     -3.192950   77.888900   52.358500
  H     -2.935780   76.434900   51.763700
  C     -1.564150   77.736700   50.927900
  H     -0.881103   77.680800   51.740500
  H     -1.310890   76.977600   50.183000
  H     -1.523350   78.721300   50.562300
  S     -9.883760   74.792000   51.800600
  C    -10.955600   73.753000   50.792400
  C    -10.303600   73.619100   49.573800
  C     -9.072730   74.394700   49.433900
  C     -8.834300   75.132100   50.560900
  H    -10.682500   72.888600   48.915800
  C     -8.344230   74.428000   48.050100
  H     -7.705250   75.342700   47.984300
  H     -9.189390   74.534700   47.401400
  C     -7.643620   73.168100   47.575700
  H     -7.310620   73.188700   46.500900
  H     -8.383200   72.368200   47.595500
  C     -6.386830   72.740200   48.414700
  H     -6.035440   71.807000   47.941700
  H     -6.698160   72.510800   49.468200
  H     -5.650360   73.523300   48.468900
  H     -6.259530   79.194100   51.621700
  H    -11.578500   73.061400   51.216600

 Total Charge           Charge          ....    0
 Multiplicity           Mult            ....    1
 Number of Electrons    NEL             ....  134
 Basis Dimension        Dim             ....  322

ORBITAL ENERGIES
----------------

  NO   OCC          E(Eh)            E(eV)
   0   2.0000     -88.971535     -2421.0386
   1   2.0000     -88.959199     -2420.7029
   2   2.0000     -10.326818      -281.0070
   3   2.0000     -10.323374      -280.9133
   4   2.0000     -10.315541      -280.7001
   5   2.0000     -10.314231      -280.6645
   6   2.0000     -10.313863      -280.6545
   7   2.0000     -10.307305      -280.4760
   8   2.0000     -10.303808      -280.3809
   9   2.0000     -10.298085      -280.2251
  10   2.0000     -10.294563      -280.1293
  11   2.0000     -10.294367      -280.1240
  12   2.0000     -10.292754      -280.0801
  13   2.0000     -10.288071      -279.9526
  14   2.0000     -10.282508      -279.8013
  15   2.0000     -10.277928      -279.6766
  16   2.0000      -8.086116      -220.0344
  17   2.0000      -8.075533      -219.7464
  18   2.0000      -6.044593      -164.4817
  19   2.0000      -6.040630      -164.3739
  20   2.0000      -6.036928      -164.2732
  21   2.0000      -6.034021      -164.1941
  22   2.0000      -6.029670      -164.0757
  23   2.0000      -6.026312      -163.9843
  24   2.0000      -1.012828       -27.5605
  25   2.0000      -0.981880       -26.7183
  26   2.0000      -0.905541       -24.6410
  27   2.0000      -0.901442       -24.5295
  28   2.0000      -0.870713       -23.6933
  29   2.0000      -0.850176       -23.1345
  30   2.0000      -0.842289       -22.9198
  31   2.0000      -0.816983       -22.2312
  32   2.0000      -0.785048       -21.3622
  33   2.0000      -0.777005       -21.1434
  34   2.0000      -0.713469       -19.4145
  35   2.0000      -0.701604       -19.0916
  36   2.0000      -0.693313       -18.8660
  37   2.0000      -0.668399       -18.1881
  38   2.0000      -0.645129       -17.5548
  39   2.0000      -0.614384       -16.7182
  40   2.0000      -0.592653       -16.1269
  41   2.0000      -0.569041       -15.4844
  42   2.0000      -0.559892       -15.2354
  43   2.0000      -0.547518       -14.8987
  44   2.0000      -0.542024       -14.7492
  45   2.0000      -0.528257       -14.3746
  46   2.0000      -0.525167       -14.2905
  47   2.0000      -0.514894       -14.0110
  48   2.0000      -0.505513       -13.7557
  49   2.0000      -0.498577       -13.5670
  50   2.0000      -0.492962       -13.4142
  51   2.0000      -0.478978       -13.0337
  52   2.0000      -0.469078       -12.7642
  53   2.0000      -0.463528       -12.6132
  54   2.0000      -0.458121       -12.4661
  55   2.0000      -0.451301       -12.2805
  56   2.0000      -0.445072       -12.1110
  57   2.0000      -0.439346       -11.9552
  58   2.0000      -0.431855       -11.7514
  59   2.0000      -0.426291       -11.6000
  60   2.0000      -0.424168       -11.5422
  61   2.0000      -0.421427       -11.4676
  62   2.0000      -0.409858       -11.1528
  63   2.0000      -0.347149        -9.4464
  64   2.0000      -0.332909        -9.0589
  65   2.0000      -0.324360        -8.8263
  66   2.0000      -0.295852        -8.0505
  67   0.0000       0.033033         0.8989
  68   0.0000       0.065839         1.7916
  69   0.0000       0.105931         2.8825
  70   0.0000       0.112994         3.0747
  71   0.0000       0.124965         3.4005

MULLIKEN ATOMIC CHARGES
-----------------------
   0 S :    0.138466
   1 C :   -0.087220
   2 C :   -0.118095
   3 C :    0.058700
   4 C :   -0.165249
   5 H :   -0.026912
   6 C :    0.108779
   7 H :    0.018861
   8 H :    0.027778
   9 C :   -0.060446
  10 H :    0.018422
  11 H :    0.010402
  12 C :   -0.037290
  13 H :    0.029835
  14 H :    0.038593
  15 H :    0.025267
  16 S :    0.081972
  17 C :   -0.062253
  18 C :   -0.047220
  19 C :   -0.037748
  20 C :   -0.159854
  21 H :    0.013695
  22 C :    0.082458
  23 H :    0.038859
  24 H :    0.024767
  25 C :   -0.092723
  26 H :    0.039917
  27 H :    0.018837
  28 C :   -0.069090
  29 H :    0.040582
  30 H :    0.046329
  31 H :    0.039061
  32 H :    0.020525
  33 H :    0.041998
Sum of atomic charges:   -0.0000000

LOEWDIN ATOMIC CHARGES
----------------------
   0 S :    0.424508
   1 C :   -0.184290
   2 C :   -0.051592
   3 C :   -0.061058
   4 C :   -0.213797
   5 H :    0.020273
   6 C :   -0.023221
   7 H :    0.032279
   8 H :    0.030711
   9 C :   -0.036195
  10 H :    0.022725
  11 H :    0.014482
  12 C :   -0.053496
  13 H :    0.025374
  14 H :    0.027977
  15 H :    0.016090
  16 S :    0.420241
  17 C :   -0.167729
  18 C :   -0.053477
  19 C :   -0.064869
  20 C :   -0.220113
  21 H :    0.023001
  22 C :   -0.031993
  23 H :    0.033330
  24 H :    0.032091
  25 C :   -0.045323
  26 H :    0.030909
  27 H :    0.020004
  28 C :   -0.068904
  29 H :    0.030207
  30 H :    0.029534
  31 H :    0.017490
  32 H :    0.012054
  33 H :    0.012780

  Mayer bond orders larger than 0.100000
B(  0-S ,  1-C ) :   1.1475 B(  0-S ,  4-C ) :   1.1568 B(  1-C ,  2-C ) :   1.6105
B(  1-C , 32-H ) :   0.9687 B(  2-C ,  3-C ) :   1.2240 B(  2-C ,  6-C ) :   1.0209
B(  3-C ,  4-C ) :   1.5860 B(  3-C ,  5-H ) :   0.9954 B(  4-C , 20-C ) :   0.9977
B(  6-C ,  7-H ) :   0.9371 B(  6-C ,  8-H ) :   0.9440 B(  6-C ,  9-C ) :   1.0391
B(  9-C , 10-H ) :   0.9583 B(  9-C , 11-H ) :   0.9591 B(  9-C , 12-C ) :   1.0813
B( 12-C , 13-H ) :   0.9739 B( 12-C , 14-H ) :   0.9800 B( 12-C , 15-H ) :   0.9799
B( 16-S , 17-C ) :   1.1274 B( 16-S , 20-C ) :   1.1863 B( 17-C , 18-C ) :   1.6242
B( 17-C , 33-H ) :   0.9764 B( 18-C , 19-C ) :   1.2303 B( 18-C , 21-H ) :   0.9878
B( 19-C , 20-C ) :   1.5951 B( 19-C , 22-C ) :   1.0176 B( 22-C , 23-H ) :   0.9425
B( 22-C , 24-H ) :   0.9332 B( 22-C , 25-C ) :   1.0789 B( 25-C , 26-H ) :   0.9558
B( 25-C , 27-H ) :   0.9535 B( 25-C , 28-C ) :   1.0728 B( 28-C , 29-H ) :   0.9723
B( 28-C , 30-H ) :   0.9740 B( 28-C , 31-H ) :   0.9721

Dispersion correction           -0.014191694
FINAL SINGLE POINT ENERGY     -1339.849434537022

DIPOLE MOMENT
-------------
                                X             Y             Z
Electronic contribution:    -27.00624       5.33398      13.07508
Nuclear contribution   :     27.53361      -5.58486     -13.54582
                        -----------------------------------------
Total Dipole Moment    :      0.52738      -0.25088      -0.47075
                        -----------------------------------------
Magnitude (a.u.)       :      0.75011
Magnitude (Debye)      :      1.90664

Rotational constants in cm-1:     0.019604     0.008051     0.006201
Rotational constants in MHz :   587.707135   241.362417   185.903165

                             ****ORCA TERMINATED NORMALLY****
TOTAL RUN TIME: 0 days 0 hours 0 minutes 33 seconds 621 msec
