                         Program Version 4.2.1 -  RELEASE  -
|  1> ! wB97X-D3 SP def2-SVP
|  2> %pal
|  3> nprocs 16
|  4> end
|  5>
|  6> * xyz 0 1
|  7> S 	 -39.1175 	 26.5075 	 91.5781
|  8> C 	 -38.8965 	 24.7262 	 91.7624
|  9> C 	 -39.0575 	 24.0869 	 90.5627
| 10> C 	 -39.5045 	 24.957 	 89.5195
| 11> C 	 -39.7213 	 26.2278 	 89.9381
| 12> H 	 -40.0374 	 24.6441 	 88.6467
| 13> C 	 -39.005 	 22.5531 	 90.2983
| 14> H 	 -38.3627 	 21.9791 	 90.9696
| 15> H 	 -38.5604 	 22.3604 	 89.3563
| 16> C 	 -40.354 	 21.7747 	 90.4358
| 17> H 	 -40.1065 	 20.6977 	 90.3075
| 18> H 	 -40.8752 	 21.8056 	 91.3928
| 19> C 	 -41.3874 	 22.1528 	 89.3546
| 20> H 	 -41.5594 	 23.1855 	 89.3423
| 21> H 	 -41.0056 	 21.8565 	 88.3491
| 22> H 	 -42.4097 	 21.6659 	 89.4306
| 23> S 	 -41.8335 	 27.8695 	 90.4136
| 24> C 	 -42.886 	 28.2825 	 89.1158
| 25> C 	 -42.3641 	 27.9879 	 87.8771
| 26> C 	 -41.1 	 27.2391 	 87.8832
| 27> C 	 -40.6923 	 27.1241 	 89.252
| 28> H 	 -42.8052 	 28.2046 	 86.9361
| 29> C 	 -40.5574 	 26.6605 	 86.6273
| 30> H 	 -41.2437 	 26.7535 	 85.8314
| 31> H 	 -40.4261 	 25.5788 	 86.8163
| 32> C 	 -39.329 	 27.2219 	 86.0079
| 33> H 	 -39.0774 	 26.7003 	 85.1219
| 34> H 	 -38.5151 	 27.1905 	 86.7319
| 35> C 	 -39.4226 	 28.665 	 85.5849
| 36> H 	 -38.4981 	 28.9024 	 85.0817
| 37> H 	 -39.4822 	 29.329 	 86.4752
| 38> H 	 -40.2893 	 28.7518 	 84.8894
| 39> H 	 -38.5822 	 24.1553 	 92.6842
| 40> H 	 -43.7004 	 29.0694 	 89.2919
| 41> *
| 42>
| 43>                          ****END OF INPUT****

CARTESIAN COORDINATES (ANGSTROEM)
---------------------------------
  S    -39.117500   26.507500   91.578100
  C    -38.896500   24.726200   91.762400
  C    -39.057500   24.086900   90.562700
  C    -39.504500   24.957000   89.519500
  C    -39.721300   26.227800   89.938100
  H    -40.037400   24.644100   88.646700
  C    -39.005000   22.553100   90.298300
  H    -38.362700   21.979100   90.969600
  H    -38.560400   22.360400   89.356300
  C    -40.354000   21.774700   90.435800
  H    -40.106500   20.697700   90.307500
  H    -40.875200   21.805600   91.392800
  C    -41.387400   22.152800   89.354600
  H    -41.559400   23.185500   89.342300
  H    -41.005600   21.856500   88.349100
  H    -42.409700   21.665900   89.430600
  S    -41.833500   27.869500   90.413600
  C    -42.886000   28.282500   89.115800
  C    -42.364100   27.987900   87.877100
  C    -41.100000   27.239100   87.883200
  C    -40.692300   27.124100   89.252000
  H    -42.805200   28.204600   86.936100
  C    -40.557400   26.660500   86.627300
  H    -41.243700   26.753500   85.831400
  H    -40.426100   25.578800   86.816300
  C    -39.329000   27.221900   86.007900
  H    -39.077400   26.700300   85.121900
  H    -38.515100   27.190500   86.731900
  C    -39.422600   28.665000   85.584900
  H    -38.498100   28.902400   85.081700
  H    -39.482200   29.329000   86.475200
  H    -40.289300   28.751800   84.889400
  H    -38.582200   24.155300   92.684200
  H    -43.700400   29.069400   89.291900

 Total Charge           Charge          ....    0
 Multiplicity           Mult            ....    1
 Number of Electrons    NEL             ....  134
 Basis Dimension        Dim             ....  322

ORBITAL ENERGIES
----------------

  NO   OCC          E(Eh)            E(eV)
   0   2.0000     -88.969067     -2420.9714
   1   2.0000     -88.967024     -2420.9158
   2   2.0000     -10.338424      -281.3228
   3   2.0000     -10.331366      -281.1308
   4   2.0000     -10.322263      -280.8831
   5   2.0000     -10.319448      -280.8065
   6   2.0000     -10.312975      -280.6303
   7   2.0000     -10.305888      -280.4375
   8   2.0000     -10.297118      -280.1988
   9   2.0000     -10.295442      -280.1532
  10   2.0000     -10.292114      -280.0627
  11   2.0000     -10.290416      -280.0164
  12   2.0000     -10.288591      -279.9668
  13   2.0000     -10.277232      -279.6577
  14   2.0000     -10.276627      -279.6412
  15   2.0000     -10.276373      -279.6343
  16   2.0000      -8.082651      -219.9401
  17   2.0000      -8.081633      -219.9124
  18   2.0000      -6.041418      -164.3953
  19   2.0000      -6.040163      -164.3612
  20   2.0000      -6.037550      -164.2901
  21   2.0000      -6.036180      -164.2528
  22   2.0000      -6.032969      -164.1654
  23   2.0000      -6.032327      -164.1480
  24   2.0000      -1.003285       -27.3008
  25   2.0000      -0.979123       -26.6433
  26   2.0000      -0.924791       -25.1648
  27   2.0000      -0.904680       -24.6176
  28   2.0000      -0.864249       -23.5174
  29   2.0000      -0.856243       -23.2996
  30   2.0000      -0.842030       -22.9128
  31   2.0000      -0.811134       -22.0721
  32   2.0000      -0.788630       -21.4597
  33   2.0000      -0.775120       -21.0921
  34   2.0000      -0.705303       -19.1923
  35   2.0000      -0.700042       -19.0491
  36   2.0000      -0.679671       -18.4948
  37   2.0000      -0.664938       -18.0939
  38   2.0000      -0.634306       -17.2603
  39   2.0000      -0.617824       -16.8119
  40   2.0000      -0.601387       -16.3646
  41   2.0000      -0.568020       -15.4566
  42   2.0000      -0.563057       -15.3216
  43   2.0000      -0.558074       -15.1860
  44   2.0000      -0.536909       -14.6100
  45   2.0000      -0.535438       -14.5700
  46   2.0000      -0.515567       -14.0293
  47   2.0000      -0.512286       -13.9400
  48   2.0000      -0.500556       -13.6208
  49   2.0000      -0.496328       -13.5058
  50   2.0000      -0.486544       -13.2395
  51   2.0000      -0.480705       -13.0806
  52   2.0000      -0.470254       -12.7963
  53   2.0000      -0.466039       -12.6816
  54   2.0000      -0.452697       -12.3185
  55   2.0000      -0.447297       -12.1716
  56   2.0000      -0.443844       -12.0776
  57   2.0000      -0.435502       -11.8506
  58   2.0000      -0.430453       -11.7132
  59   2.0000      -0.427312       -11.6278
  60   2.0000      -0.422555       -11.4983
  61   2.0000      -0.416174       -11.3247
  62   2.0000      -0.411992       -11.2109
  63   2.0000      -0.353982        -9.6324
  64   2.0000      -0.334940        -9.1142
  65   2.0000      -0.329391        -8.9632
  66   2.0000      -0.286803        -7.8043
  67   0.0000       0.019539         0.5317
  68   0.0000       0.072248         1.9660
  69   0.0000       0.099823         2.7163
  70   0.0000       0.111605         3.0369
  71   0.0000       0.130621         3.5544

MULLIKEN ATOMIC CHARGES
-----------------------
   0 S :    0.092078
   1 C :   -0.142582
   2 C :   -0.073679
   3 C :    0.023410
   4 C :   -0.114375
   5 H :    0.010393
   6 C :    0.072416
   7 H :    0.019964
   8 H :    0.020043
   9 C :   -0.073624
  10 H :    0.032272
  11 H :    0.035470
  12 C :   -0.082348
  13 H :    0.037389
  14 H :    0.022203
  15 H :    0.041709
  16 S :    0.101071
  17 C :   -0.106068
  18 C :   -0.017297
  19 C :   -0.072535
  20 C :   -0.150779
  21 H :    0.003592
  22 C :    0.099329
  23 H :   -0.004491
  24 H :    0.036152
  25 C :   -0.051218
  26 H :    0.020510
  27 H :    0.025902
  28 C :   -0.067251
  29 H :    0.033073
  30 H :    0.049052
  31 H :    0.024924
  32 H :    0.067368
  33 H :    0.087926
Sum of atomic charges:   -0.0000000

LOEWDIN ATOMIC CHARGES
----------------------
   0 S :    0.361358
   1 C :   -0.185815
   2 C :   -0.059766
   3 C :   -0.067216
   4 C :   -0.179846
   5 H :    0.026532
   6 C :   -0.026496
   7 H :    0.031613
   8 H :    0.026749
   9 C :   -0.038857
  10 H :    0.027144
  11 H :    0.025364
  12 C :   -0.074486
  13 H :    0.014641
  14 H :    0.023115
  15 H :    0.033490
  16 S :    0.405319
  17 C :   -0.213818
  18 C :   -0.063467
  19 C :   -0.051048
  20 C :   -0.176477
  21 H :    0.022528
  22 C :   -0.034985
  23 H :    0.025279
  24 H :    0.037350
  25 C :   -0.037908
  26 H :    0.021256
  27 H :    0.023897
  28 C :   -0.063658
  29 H :    0.025917
  30 H :    0.030866
  31 H :    0.022668
  32 H :    0.043776
  33 H :    0.044981

  Mayer bond orders larger than 0.100000
B(  0-S ,  1-C ) :   1.0929 B(  0-S ,  4-C ) :   1.1295 B(  1-C ,  2-C ) :   1.6803
B(  1-C , 32-H ) :   0.9585 B(  2-C ,  3-C ) :   1.2089 B(  2-C ,  6-C ) :   1.0195
B(  3-C ,  4-C ) :   1.6213 B(  3-C ,  5-H ) :   0.9743 B(  4-C , 20-C ) :   1.0342
B(  6-C ,  7-H ) :   0.9434 B(  6-C ,  8-H ) :   0.9435 B(  6-C ,  9-C ) :   1.0640
B(  9-C , 10-H ) :   0.9568 B(  9-C , 11-H ) :   0.9598 B(  9-C , 12-C ) :   1.0750
B( 12-C , 13-H ) :   0.9737 B( 12-C , 14-H ) :   0.9761 B( 12-C , 15-H ) :   0.9715
B( 16-S , 17-C ) :   1.1489 B( 16-S , 20-C ) :   1.1486 B( 17-C , 18-C ) :   1.6090
B( 17-C , 33-H ) :   0.9517 B( 18-C , 19-C ) :   1.2494 B( 18-C , 21-H ) :   0.9892
B( 19-C , 20-C ) :   1.5670 B( 19-C , 22-C ) :   1.0405 B( 22-C , 23-H ) :   0.9210
B( 22-C , 24-H ) :   0.9232 B( 22-C , 25-C ) :   1.0895 B( 25-C , 26-H ) :   0.9516
B( 25-C , 27-H ) :   0.9511 B( 25-C , 28-C ) :   1.0864 B( 28-C , 29-H ) :   0.9727
B( 28-C , 30-H ) :   0.9728 B( 28-C , 31-H ) :   0.9738

Dispersion correction           -0.014827226
FINAL SINGLE POINT ENERGY     -1339.857060398684

DIPOLE MOMENT
-------------
                                X             Y             Z
Electronic contribution:     -0.82725      14.38931      19.27571
Nuclear contribution   :      0.71016     -14.89076     -19.76534
                        -----------------------------------------
Total Dipole Moment    :     -0.11709      -0.50145      -0.48963
                        -----------------------------------------
Magnitude (a.u.)       :      0.71056
Magnitude (Debye)      :      1.80611

Rotational constants in cm-1:     0.017529     0.009222     0.008035
Rotational constants in MHz :   525.494957   276.467690   240.873382

                             ****ORCA TERMINATED NORMALLY****
TOTAL RUN TIME: 0 days 0 hours 0 minutes 31 seconds 392 msec
