                         Program Version 4.2.1 -  RELEASE  -
|  1> ! wB97X-D3 SP def2-SVP
|  2> %pal
|  3> nprocs 16
|  4> end
|  5>
|  6> * xyz 0 1
|  7> S 	 -41.3374 	 30.1343 	 91.7817
|  8> C 	 -42.8935 	 29.8213 	 92.4224
|  9> C 	 -43.8834 	 30.1816 	 91.5172
| 10> C 	 -43.3543 	 30.4699 	 90.2084
| 11> C 	 -41.9792 	 30.1463 	 90.2078
| 12> H 	 -43.8421 	 30.789 	 89.2529
| 13> C 	 -45.3567 	 30.2597 	 91.8843
| 14> H 	 -45.846 	 29.317 	 91.5693
| 15> H 	 -45.6814 	 31.01 	 91.2139
| 16> C 	 -45.8316 	 30.5174 	 93.372
| 17> H 	 -46.9211 	 30.3958 	 93.3229
| 18> H 	 -45.3825 	 29.8458 	 94.0346
| 19> C 	 -45.5291 	 31.9173 	 93.9223
| 20> H 	 -45.2766 	 31.7453 	 95.0257
| 21> H 	 -44.6527 	 32.4324 	 93.5291
| 22> H 	 -46.3915 	 32.6539 	 93.8538
| 23> S 	 -39.9189 	 31.7087 	 89.3084
| 24> C 	 -39.2011 	 31.3354 	 87.7472
| 25> C 	 -39.6213 	 30.1403 	 87.2743
| 26> C 	 -40.6531 	 29.5875 	 88.06
| 27> C 	 -40.9478 	 30.3036 	 89.2004
| 28> H 	 -39.1489 	 29.8716 	 86.3371
| 29> C 	 -41.3574 	 28.3455 	 87.6781
| 30> H 	 -41.21 	 28.1028 	 86.5824
| 31> H 	 -42.4638 	 28.5318 	 87.719
| 32> C 	 -40.9924 	 27.1141 	 88.5112
| 33> H 	 -41.4606 	 26.2203 	 88.0506
| 34> H 	 -41.319 	 27.426 	 89.4763
| 35> C 	 -39.4685 	 26.8916 	 88.7018
| 36> H 	 -39.0894 	 27.9137 	 88.6897
| 37> H 	 -38.9733 	 26.4917 	 87.8369
| 38> H 	 -39.3691 	 26.4889 	 89.663
| 39> H 	 -43.0438 	 29.5794 	 93.4994
| 40> H 	 -38.4316 	 31.9704 	 87.2519
| 41> *
| 42>
| 43>                          ****END OF INPUT****

CARTESIAN COORDINATES (ANGSTROEM)
---------------------------------
  S    -41.337400   30.134300   91.781700
  C    -42.893500   29.821300   92.422400
  C    -43.883400   30.181600   91.517200
  C    -43.354300   30.469900   90.208400
  C    -41.979200   30.146300   90.207800
  H    -43.842100   30.789000   89.252900
  C    -45.356700   30.259700   91.884300
  H    -45.846000   29.317000   91.569300
  H    -45.681400   31.010000   91.213900
  C    -45.831600   30.517400   93.372000
  H    -46.921100   30.395800   93.322900
  H    -45.382500   29.845800   94.034600
  C    -45.529100   31.917300   93.922300
  H    -45.276600   31.745300   95.025700
  H    -44.652700   32.432400   93.529100
  H    -46.391500   32.653900   93.853800
  S    -39.918900   31.708700   89.308400
  C    -39.201100   31.335400   87.747200
  C    -39.621300   30.140300   87.274300
  C    -40.653100   29.587500   88.060000
  C    -40.947800   30.303600   89.200400
  H    -39.148900   29.871600   86.337100
  C    -41.357400   28.345500   87.678100
  H    -41.210000   28.102800   86.582400
  H    -42.463800   28.531800   87.719000
  C    -40.992400   27.114100   88.511200
  H    -41.460600   26.220300   88.050600
  H    -41.319000   27.426000   89.476300
  C    -39.468500   26.891600   88.701800
  H    -39.089400   27.913700   88.689700
  H    -38.973300   26.491700   87.836900
  H    -39.369100   26.488900   89.663000
  H    -43.043800   29.579400   93.499400
  H    -38.431600   31.970400   87.251900

 Total Charge           Charge          ....    0
 Multiplicity           Mult            ....    1
 Number of Electrons    NEL             ....  134
 Basis Dimension        Dim             ....  322

ORBITAL ENERGIES
----------------

  NO   OCC          E(Eh)            E(eV)
   0   2.0000     -88.964077     -2420.8356
   1   2.0000     -88.962992     -2420.8061
   2   2.0000     -10.327458      -281.0244
   3   2.0000     -10.321172      -280.8534
   4   2.0000     -10.316142      -280.7165
   5   2.0000     -10.311534      -280.5911
   6   2.0000     -10.307223      -280.4738
   7   2.0000     -10.306382      -280.4509
   8   2.0000     -10.297817      -280.2179
   9   2.0000     -10.292892      -280.0838
  10   2.0000     -10.290798      -280.0269
  11   2.0000     -10.289396      -279.9887
  12   2.0000     -10.286646      -279.9139
  13   2.0000     -10.285288      -279.8769
  14   2.0000     -10.276828      -279.6467
  15   2.0000     -10.260892      -279.2131
  16   2.0000      -8.080770      -219.8889
  17   2.0000      -8.078016      -219.8140
  18   2.0000      -6.039024      -164.3302
  19   2.0000      -6.036482      -164.2610
  20   2.0000      -6.035223      -164.2268
  21   2.0000      -6.032488      -164.1523
  22   2.0000      -6.031439      -164.1238
  23   2.0000      -6.028792      -164.0518
  24   2.0000      -1.017298       -27.6821
  25   2.0000      -0.991168       -26.9711
  26   2.0000      -0.909506       -24.7489
  27   2.0000      -0.908286       -24.7157
  28   2.0000      -0.871569       -23.7166
  29   2.0000      -0.851359       -23.1667
  30   2.0000      -0.843418       -22.9506
  31   2.0000      -0.814058       -22.1516
  32   2.0000      -0.783176       -21.3113
  33   2.0000      -0.769638       -20.9429
  34   2.0000      -0.706290       -19.2191
  35   2.0000      -0.704994       -19.1839
  36   2.0000      -0.679320       -18.4852
  37   2.0000      -0.660729       -17.9794
  38   2.0000      -0.640602       -17.4317
  39   2.0000      -0.606893       -16.5144
  40   2.0000      -0.591390       -16.0925
  41   2.0000      -0.577839       -15.7238
  42   2.0000      -0.556254       -15.1364
  43   2.0000      -0.545756       -14.8508
  44   2.0000      -0.544842       -14.8259
  45   2.0000      -0.539036       -14.6679
  46   2.0000      -0.521889       -14.2013
  47   2.0000      -0.515624       -14.0308
  48   2.0000      -0.501778       -13.6541
  49   2.0000      -0.493204       -13.4208
  50   2.0000      -0.484660       -13.1883
  51   2.0000      -0.479594       -13.0504
  52   2.0000      -0.475005       -12.9255
  53   2.0000      -0.467088       -12.7101
  54   2.0000      -0.457141       -12.4394
  55   2.0000      -0.447304       -12.1718
  56   2.0000      -0.436595       -11.8803
  57   2.0000      -0.433442       -11.7946
  58   2.0000      -0.429790       -11.6952
  59   2.0000      -0.422823       -11.5056
  60   2.0000      -0.418191       -11.3796
  61   2.0000      -0.415724       -11.3124
  62   2.0000      -0.399059       -10.8590
  63   2.0000      -0.342917        -9.3312
  64   2.0000      -0.328403        -8.9363
  65   2.0000      -0.327265        -8.9053
  66   2.0000      -0.294261        -8.0072
  67   0.0000       0.033617         0.9148
  68   0.0000       0.053033         1.4431
  69   0.0000       0.102501         2.7892
  70   0.0000       0.125677         3.4198
  71   0.0000       0.130531         3.5519

MULLIKEN ATOMIC CHARGES
-----------------------
   0 S :    0.112346
   1 C :   -0.127021
   2 C :   -0.107090
   3 C :    0.042337
   4 C :   -0.184547
   5 H :    0.042372
   6 C :    0.062735
   7 H :    0.045807
   8 H :    0.015576
   9 C :   -0.040737
  10 H :    0.040120
  11 H :    0.022897
  12 C :   -0.106635
  13 H :    0.035699
  14 H :    0.043637
  15 H :    0.047281
  16 S :    0.109273
  17 C :   -0.116643
  18 C :   -0.029815
  19 C :   -0.042942
  20 C :   -0.167608
  21 H :    0.018280
  22 C :    0.040285
  23 H :    0.018433
  24 H :    0.035297
  25 C :   -0.068256
  26 H :    0.039804
  27 H :    0.024310
  28 C :   -0.015251
  29 H :    0.023632
  30 H :    0.024500
  31 H :    0.034647
  32 H :    0.060116
  33 H :    0.067162
Sum of atomic charges:   -0.0000000

LOEWDIN ATOMIC CHARGES
----------------------
   0 S :    0.444771
   1 C :   -0.220599
   2 C :   -0.063107
   3 C :   -0.061196
   4 C :   -0.206798
   5 H :    0.044831
   6 C :   -0.033050
   7 H :    0.038170
   8 H :    0.025781
   9 C :   -0.035188
  10 H :    0.034088
  11 H :    0.014773
  12 C :   -0.081432
  13 H :    0.033967
  14 H :    0.024728
  15 H :    0.031484
  16 S :    0.397354
  17 C :   -0.181807
  18 C :   -0.076433
  19 C :   -0.067306
  20 C :   -0.213460
  21 H :    0.037252
  22 C :   -0.045031
  23 H :    0.027868
  24 H :    0.035843
  25 C :   -0.033357
  26 H :    0.026515
  27 H :    0.020903
  28 C :   -0.063197
  29 H :    0.029759
  30 H :    0.021486
  31 H :    0.023359
  32 H :    0.032126
  33 H :    0.036900

  Mayer bond orders larger than 0.100000
B(  0-S ,  1-C ) :   1.1505 B(  0-S ,  4-C ) :   1.1844 B(  1-C ,  2-C ) :   1.5860
B(  1-C ,  4-C ) :   0.1035 B(  1-C , 32-H ) :   0.9670 B(  2-C ,  3-C ) :   1.2382
B(  2-C ,  6-C ) :   1.0078 B(  3-C ,  4-C ) :   1.5492 B(  3-C ,  5-H ) :   0.9909
B(  4-C , 20-C ) :   1.0130 B(  6-C ,  7-H ) :   0.9367 B(  6-C ,  8-H ) :   0.9404
B(  6-C ,  9-C ) :   1.0783 B(  9-C , 10-H ) :   0.9559 B(  9-C , 11-H ) :   0.9629
B(  9-C , 12-C ) :   1.0599 B( 12-C , 13-H ) :   0.9801 B( 12-C , 14-H ) :   0.9801
B( 12-C , 15-H ) :   0.9784 B( 16-S , 17-C ) :   1.1486 B( 16-S , 20-C ) :   1.1413
B( 17-C , 18-C ) :   1.6362 B( 17-C , 33-H ) :   0.9595 B( 18-C , 19-C ) :   1.2061
B( 18-C , 21-H ) :   0.9982 B( 19-C , 20-C ) :   1.6136 B( 19-C , 22-C ) :   1.0519
B( 22-C , 23-H ) :   0.9352 B( 22-C , 24-H ) :   0.9311 B( 22-C , 25-C ) :   1.0664
B( 25-C , 26-H ) :   0.9571 B( 25-C , 27-H ) :   0.9578 B( 25-C , 28-C ) :   1.0775
B( 28-C , 29-H ) :   0.9701 B( 28-C , 30-H ) :   0.9735 B( 28-C , 31-H ) :   0.9750

Dispersion correction           -0.015103450
FINAL SINGLE POINT ENERGY     -1339.848073481641

DIPOLE MOMENT
-------------
                                X             Y             Z
Electronic contribution:     13.98105       9.64682      -3.22014
Nuclear contribution   :    -14.39674      -9.64844       3.06211
                        -----------------------------------------
Total Dipole Moment    :     -0.41568      -0.00162      -0.15802
                        -----------------------------------------
Magnitude (a.u.)       :      0.44471
Magnitude (Debye)      :      1.13036

Rotational constants in cm-1:     0.025825     0.007686     0.006835
Rotational constants in MHz :   774.217985   230.406541   204.912119

                             ****ORCA TERMINATED NORMALLY****
TOTAL RUN TIME: 0 days 0 hours 0 minutes 30 seconds 397 msec
