                         Program Version 4.2.1 -  RELEASE  -
|  1> ! wB97X-D3 SP def2-SVP
|  2> %pal
|  3> nprocs 16
|  4> end
|  5>
|  6> * xyz 0 1
|  7> S 	 -49.7457 	 35.9744 	 96.0446
|  8> C 	 -51.0686 	 34.9979 	 95.5012
|  9> C 	 -52.2714 	 35.7904 	 95.4121
| 10> C 	 -52.0542 	 37.1526 	 95.7785
| 11> C 	 -50.7149 	 37.4012 	 96.0181
| 12> H 	 -52.7301 	 37.9932 	 95.7823
| 13> C 	 -53.7224 	 35.3577 	 95.2308
| 14> H 	 -53.9405 	 34.8775 	 94.3208
| 15> H 	 -54.3324 	 36.2927 	 95.3102
| 16> C 	 -54.1361 	 34.2889 	 96.2514
| 17> H 	 -55.1123 	 33.8028 	 96.1545
| 18> H 	 -53.505 	 33.3636 	 96.1154
| 19> C 	 -53.9584 	 34.8423 	 97.6574
| 20> H 	 -52.9382 	 35.3284 	 97.826
| 21> H 	 -54.6692 	 35.6418 	 97.8107
| 22> H 	 -54.1795 	 34.0882 	 98.3932
| 23> S 	 -49.1554 	 39.379 	 94.8721
| 24> C 	 -48.7798 	 40.7675 	 95.8426
| 25> C 	 -49.568 	 40.8132 	 96.9802
| 26> C 	 -50.4256 	 39.6891 	 97.1633
| 27> C 	 -50.1458 	 38.7409 	 96.1814
| 28> H 	 -49.4891 	 41.7451 	 97.5169
| 29> C 	 -51.4466 	 39.6393 	 98.2695
| 30> H 	 -51.0237 	 39.761 	 99.2525
| 31> H 	 -51.9119 	 38.6594 	 98.3824
| 32> C 	 -52.6333 	 40.7129 	 98.1888
| 33> H 	 -52.2041 	 41.6339 	 97.9571
| 34> H 	 -53.0634 	 40.7983 	 99.2093
| 35> C 	 -53.7816 	 40.4515 	 97.2291
| 36> H 	 -53.3142 	 40.7691 	 96.2908
| 37> H 	 -54.6338 	 41.046 	 97.4516
| 38> H 	 -54.0492 	 39.4539 	 97.0554
| 39> H 	 -51.0345 	 33.9866 	 95.2052
| 40> H 	 -48.107 	 41.5941 	 95.548
| 41> *
| 42>
| 43>                          ****END OF INPUT****

CARTESIAN COORDINATES (ANGSTROEM)
---------------------------------
  S    -49.745700   35.974400   96.044600
  C    -51.068600   34.997900   95.501200
  C    -52.271400   35.790400   95.412100
  C    -52.054200   37.152600   95.778500
  C    -50.714900   37.401200   96.018100
  H    -52.730100   37.993200   95.782300
  C    -53.722400   35.357700   95.230800
  H    -53.940500   34.877500   94.320800
  H    -54.332400   36.292700   95.310200
  C    -54.136100   34.288900   96.251400
  H    -55.112300   33.802800   96.154500
  H    -53.505000   33.363600   96.115400
  C    -53.958400   34.842300   97.657400
  H    -52.938200   35.328400   97.826000
  H    -54.669200   35.641800   97.810700
  H    -54.179500   34.088200   98.393200
  S    -49.155400   39.379000   94.872100
  C    -48.779800   40.767500   95.842600
  C    -49.568000   40.813200   96.980200
  C    -50.425600   39.689100   97.163300
  C    -50.145800   38.740900   96.181400
  H    -49.489100   41.745100   97.516900
  C    -51.446600   39.639300   98.269500
  H    -51.023700   39.761000   99.252500
  H    -51.911900   38.659400   98.382400
  C    -52.633300   40.712900   98.188800
  H    -52.204100   41.633900   97.957100
  H    -53.063400   40.798300   99.209300
  C    -53.781600   40.451500   97.229100
  H    -53.314200   40.769100   96.290800
  H    -54.633800   41.046000   97.451600
  H    -54.049200   39.453900   97.055400
  H    -51.034500   33.986600   95.205200
  H    -48.107000   41.594100   95.548000

 Total Charge           Charge          ....    0
 Multiplicity           Mult            ....    1
 Number of Electrons    NEL             ....  134
 Basis Dimension        Dim             ....  322

ORBITAL ENERGIES
----------------

  NO   OCC          E(Eh)            E(eV)
   0   2.0000     -88.971960     -2421.0501
   1   2.0000     -88.966476     -2420.9009
   2   2.0000     -10.326060      -280.9864
   3   2.0000     -10.323374      -280.9133
   4   2.0000     -10.316645      -280.7302
   5   2.0000     -10.315949      -280.7113
   6   2.0000     -10.306907      -280.4652
   7   2.0000     -10.306642      -280.4580
   8   2.0000     -10.294089      -280.1164
   9   2.0000     -10.291860      -280.0557
  10   2.0000     -10.291348      -280.0418
  11   2.0000     -10.291258      -280.0394
  12   2.0000     -10.287426      -279.9351
  13   2.0000     -10.287246      -279.9302
  14   2.0000     -10.270951      -279.4868
  15   2.0000     -10.270839      -279.4837
  16   2.0000      -8.086821      -220.0536
  17   2.0000      -8.081298      -219.9033
  18   2.0000      -6.045190      -164.4980
  19   2.0000      -6.041173      -164.3887
  20   2.0000      -6.039724      -164.3492
  21   2.0000      -6.037868      -164.2987
  22   2.0000      -6.035930      -164.2460
  23   2.0000      -6.032007      -164.1392
  24   2.0000      -1.007255       -27.4088
  25   2.0000      -0.984284       -26.7837
  26   2.0000      -0.912362       -24.8266
  27   2.0000      -0.905682       -24.6449
  28   2.0000      -0.864604       -23.5271
  29   2.0000      -0.854309       -23.2469
  30   2.0000      -0.848235       -23.0817
  31   2.0000      -0.809125       -22.0174
  32   2.0000      -0.785951       -21.3868
  33   2.0000      -0.772570       -21.0227
  34   2.0000      -0.706274       -19.2187
  35   2.0000      -0.702146       -19.1064
  36   2.0000      -0.690107       -18.7788
  37   2.0000      -0.654295       -17.8043
  38   2.0000      -0.644948       -17.5499
  39   2.0000      -0.614851       -16.7309
  40   2.0000      -0.598985       -16.2992
  41   2.0000      -0.568976       -15.4826
  42   2.0000      -0.555023       -15.1029
  43   2.0000      -0.553863       -15.0714
  44   2.0000      -0.544796       -14.8246
  45   2.0000      -0.533543       -14.5184
  46   2.0000      -0.521306       -14.1855
  47   2.0000      -0.507012       -13.7965
  48   2.0000      -0.502084       -13.6624
  49   2.0000      -0.496696       -13.5158
  50   2.0000      -0.486338       -13.2339
  51   2.0000      -0.481351       -13.0982
  52   2.0000      -0.473716       -12.8905
  53   2.0000      -0.467297       -12.7158
  54   2.0000      -0.461172       -12.5491
  55   2.0000      -0.445264       -12.1162
  56   2.0000      -0.439434       -11.9576
  57   2.0000      -0.437180       -11.8963
  58   2.0000      -0.434760       -11.8304
  59   2.0000      -0.426213       -11.5978
  60   2.0000      -0.424351       -11.5472
  61   2.0000      -0.413354       -11.2479
  62   2.0000      -0.407228       -11.0812
  63   2.0000      -0.341309        -9.2875
  64   2.0000      -0.329740        -8.9727
  65   2.0000      -0.322594        -8.7782
  66   2.0000      -0.297050        -8.0831
  67   0.0000       0.031658         0.8615
  68   0.0000       0.061579         1.6757
  69   0.0000       0.107032         2.9125
  70   0.0000       0.112700         3.0667
  71   0.0000       0.131597         3.5809

MULLIKEN ATOMIC CHARGES
-----------------------
   0 S :    0.146577
   1 C :   -0.104698
   2 C :   -0.112315
   3 C :    0.044029
   4 C :   -0.186853
   5 H :    0.000602
   6 C :    0.104565
   7 H :    0.018238
   8 H :    0.031777
   9 C :   -0.098710
  10 H :    0.027190
  11 H :    0.023859
  12 C :   -0.062234
  13 H :    0.062723
  14 H :    0.015990
  15 H :    0.028309
  16 S :    0.125807
  17 C :   -0.111039
  18 C :   -0.047191
  19 C :    0.021508
  20 C :   -0.191601
  21 H :    0.016602
  22 C :    0.074190
  23 H :    0.026896
  24 H :    0.017499
  25 C :   -0.087259
  26 H :    0.014916
  27 H :    0.028164
  28 C :   -0.016246
  29 H :    0.029660
  30 H :    0.035318
  31 H :    0.020280
  32 H :    0.037485
  33 H :    0.065962
Sum of atomic charges:   -0.0000000

LOEWDIN ATOMIC CHARGES
----------------------
   0 S :    0.443949
   1 C :   -0.207614
   2 C :   -0.054299
   3 C :   -0.062147
   4 C :   -0.209732
   5 H :    0.030749
   6 C :   -0.027835
   7 H :    0.024525
   8 H :    0.034065
   9 C :   -0.047952
  10 H :    0.023699
  11 H :    0.024372
  12 C :   -0.071748
  13 H :    0.037261
  14 H :    0.018581
  15 H :    0.020833
  16 S :    0.410106
  17 C :   -0.196221
  18 C :   -0.074214
  19 C :   -0.055224
  20 C :   -0.198674
  21 H :    0.030327
  22 C :   -0.029983
  23 H :    0.033343
  24 H :    0.029338
  25 C :   -0.028190
  26 H :    0.012533
  27 H :    0.024337
  28 C :   -0.061136
  29 H :    0.032039
  30 H :    0.026407
  31 H :    0.012899
  32 H :    0.019723
  33 H :    0.035884

  Mayer bond orders larger than 0.100000
B(  0-S ,  1-C ) :   1.1586 B(  0-S ,  4-C ) :   1.1837 B(  1-C ,  2-C ) :   1.5557
B(  1-C ,  4-C ) :   0.1057 B(  1-C , 32-H ) :   0.9765 B(  2-C ,  3-C ) :   1.2614
B(  2-C ,  6-C ) :   1.0238 B(  3-C ,  4-C ) :   1.5528 B(  3-C ,  5-H ) :   0.9898
B(  4-C , 20-C ) :   1.0202 B(  6-C ,  7-H ) :   0.9310 B(  6-C ,  8-H ) :   0.9514
B(  6-C ,  9-C ) :   1.0645 B(  9-C , 10-H ) :   0.9561 B(  9-C , 11-H ) :   0.9523
B(  9-C , 12-C ) :   1.0735 B( 12-C , 13-H ) :   0.9718 B( 12-C , 14-H ) :   0.9746
B( 12-C , 15-H ) :   0.9729 B( 16-S , 17-C ) :   1.1478 B( 16-S , 20-C ) :   1.1601
B( 17-C , 18-C ) :   1.6266 B( 17-C , 33-H ) :   0.9631 B( 18-C , 19-C ) :   1.2164
B( 18-C , 21-H ) :   0.9902 B( 19-C , 20-C ) :   1.5814 B( 19-C , 22-C ) :   1.0569
B( 22-C , 23-H ) :   0.9342 B( 22-C , 24-H ) :   0.9337 B( 22-C , 25-C ) :   1.0613
B( 25-C , 26-H ) :   0.9634 B( 25-C , 27-H ) :   0.9603 B( 25-C , 28-C ) :   1.0700
B( 28-C , 29-H ) :   0.9781 B( 28-C , 30-H ) :   0.9707 B( 28-C , 31-H ) :   0.9723

Dispersion correction           -0.015811304
FINAL SINGLE POINT ENERGY     -1339.866464253998

DIPOLE MOMENT
-------------
                                X             Y             Z
Electronic contribution:     25.66416       0.45099     -11.25644
Nuclear contribution   :    -26.18528      -0.24910      11.45069
                        -----------------------------------------
Total Dipole Moment    :     -0.52113       0.20189       0.19425
                        -----------------------------------------
Magnitude (a.u.)       :      0.59167
Magnitude (Debye)      :      1.50389

Rotational constants in cm-1:     0.019361     0.009806     0.007344
Rotational constants in MHz :   580.437334   293.968121   220.154286

                             ****ORCA TERMINATED NORMALLY****
TOTAL RUN TIME: 0 days 0 hours 0 minutes 34 seconds 76 msec
