                         Program Version 4.2.1 -  RELEASE  -
|  1> ! wB97X-D3 SP def2-SVP
|  2> %pal
|  3> nprocs 16
|  4> end
|  5>
|  6> * xyz 0 1
|  7> S 	 -56.5127 	 54.0755 	 137.635
|  8> C 	 -55.0247 	 54.1485 	 136.757
|  9> C 	 -54.9024 	 53.0771 	 135.925
| 10> C 	 -56.052 	 52.3273 	 135.786
| 11> C 	 -57.035 	 52.6374 	 136.701
| 12> H 	 -56.1165 	 51.4694 	 135.099
| 13> C 	 -53.7172 	 52.9441 	 135.003
| 14> H 	 -53.2741 	 51.9349 	 135.223
| 15> H 	 -52.9752 	 53.7365 	 135.28
| 16> C 	 -53.9972 	 53.1663 	 133.497
| 17> H 	 -54.9986 	 52.7919 	 133.295
| 18> H 	 -53.9792 	 54.2511 	 133.309
| 19> C 	 -52.9412 	 52.6452 	 132.519
| 20> H 	 -52.6989 	 51.5887 	 132.704
| 21> H 	 -53.3647 	 52.7736 	 131.556
| 22> H 	 -52.0162 	 53.201 	 132.709
| 23> S 	 -59.0938 	 51.3507 	 135.414
| 24> C 	 -60.5888 	 51.1466 	 136.246
| 25> C 	 -60.4603 	 51.3387 	 137.615
| 26> C 	 -59.2089 	 51.8924 	 137.967
| 27> C 	 -58.3886 	 52.0561 	 136.831
| 28> H 	 -61.1723 	 51.1917 	 138.379
| 29> C 	 -58.6665 	 52.1207 	 139.383
| 30> H 	 -59.5508 	 52.0205 	 139.991
| 31> H 	 -58.3464 	 53.1852 	 139.404
| 32> C 	 -57.6823 	 51.0104 	 139.966
| 33> H 	 -56.7078 	 51.0568 	 139.553
| 34> H 	 -58.0328 	 50.0121 	 139.552
| 35> C 	 -57.4705 	 51.0656 	 141.508
| 36> H 	 -57.339 	 52.1075 	 141.756
| 37> H 	 -56.6143 	 50.5624 	 141.878
| 38> H 	 -58.4181 	 50.794 	 141.949
| 39> H 	 -54.0656 	 54.6529 	 136.913
| 40> H 	 -61.3924 	 50.589 	 135.815
| 41> *
| 42>
| 43>                          ****END OF INPUT****

CARTESIAN COORDINATES (ANGSTROEM)
---------------------------------
  S    -56.512700   54.075500  137.635000
  C    -55.024700   54.148500  136.757000
  C    -54.902400   53.077100  135.925000
  C    -56.052000   52.327300  135.786000
  C    -57.035000   52.637400  136.701000
  H    -56.116500   51.469400  135.099000
  C    -53.717200   52.944100  135.003000
  H    -53.274100   51.934900  135.223000
  H    -52.975200   53.736500  135.280000
  C    -53.997200   53.166300  133.497000
  H    -54.998600   52.791900  133.295000
  H    -53.979200   54.251100  133.309000
  C    -52.941200   52.645200  132.519000
  H    -52.698900   51.588700  132.704000
  H    -53.364700   52.773600  131.556000
  H    -52.016200   53.201000  132.709000
  S    -59.093800   51.350700  135.414000
  C    -60.588800   51.146600  136.246000
  C    -60.460300   51.338700  137.615000
  C    -59.208900   51.892400  137.967000
  C    -58.388600   52.056100  136.831000
  H    -61.172300   51.191700  138.379000
  C    -58.666500   52.120700  139.383000
  H    -59.550800   52.020500  139.991000
  H    -58.346400   53.185200  139.404000
  C    -57.682300   51.010400  139.966000
  H    -56.707800   51.056800  139.553000
  H    -58.032800   50.012100  139.552000
  C    -57.470500   51.065600  141.508000
  H    -57.339000   52.107500  141.756000
  H    -56.614300   50.562400  141.878000
  H    -58.418100   50.794000  141.949000
  H    -54.065600   54.652900  136.913000
  H    -61.392400   50.589000  135.815000

 Total Charge           Charge          ....    0
 Multiplicity           Mult            ....    1
 Number of Electrons    NEL             ....  134
 Basis Dimension        Dim             ....  322

ORBITAL ENERGIES
----------------

  NO   OCC          E(Eh)            E(eV)
   0   2.0000     -88.970083     -2420.9990
   1   2.0000     -88.969223     -2420.9756
   2   2.0000     -10.335296      -281.2377
   3   2.0000     -10.327404      -281.0230
   4   2.0000     -10.315971      -280.7118
   5   2.0000     -10.307198      -280.4731
   6   2.0000     -10.302394      -280.3424
   7   2.0000     -10.298014      -280.2232
   8   2.0000     -10.295247      -280.1479
   9   2.0000     -10.293961      -280.1129
  10   2.0000     -10.290460      -280.0176
  11   2.0000     -10.290107      -280.0081
  12   2.0000     -10.288364      -279.9606
  13   2.0000     -10.285571      -279.8846
  14   2.0000     -10.277239      -279.6579
  15   2.0000     -10.274188      -279.5749
  16   2.0000      -8.085408      -220.0151
  17   2.0000      -8.082936      -219.9479
  18   2.0000      -6.043773      -164.4594
  19   2.0000      -6.041615      -164.4007
  20   2.0000      -6.039914      -164.3544
  21   2.0000      -6.037589      -164.2912
  22   2.0000      -6.036231      -164.2542
  23   2.0000      -6.033579      -164.1820
  24   2.0000      -1.010239       -27.4900
  25   2.0000      -0.991113       -26.9696
  26   2.0000      -0.909254       -24.7421
  27   2.0000      -0.900085       -24.4925
  28   2.0000      -0.870415       -23.6852
  29   2.0000      -0.856231       -23.2992
  30   2.0000      -0.848872       -23.0990
  31   2.0000      -0.817035       -22.2327
  32   2.0000      -0.781995       -21.2792
  33   2.0000      -0.768153       -20.9025
  34   2.0000      -0.709775       -19.3140
  35   2.0000      -0.697897       -18.9908
  36   2.0000      -0.688496       -18.7349
  37   2.0000      -0.674001       -18.3405
  38   2.0000      -0.628138       -17.0925
  39   2.0000      -0.621204       -16.9038
  40   2.0000      -0.595890       -16.2150
  41   2.0000      -0.568789       -15.4775
  42   2.0000      -0.563100       -15.3227
  43   2.0000      -0.557519       -15.1709
  44   2.0000      -0.530214       -14.4279
  45   2.0000      -0.525386       -14.2965
  46   2.0000      -0.517063       -14.0700
  47   2.0000      -0.510983       -13.9045
  48   2.0000      -0.507488       -13.8094
  49   2.0000      -0.490308       -13.3420
  50   2.0000      -0.488394       -13.2899
  51   2.0000      -0.479796       -13.0559
  52   2.0000      -0.477116       -12.9830
  53   2.0000      -0.463744       -12.6191
  54   2.0000      -0.462616       -12.5884
  55   2.0000      -0.456065       -12.4102
  56   2.0000      -0.443503       -12.0683
  57   2.0000      -0.436296       -11.8722
  58   2.0000      -0.431240       -11.7346
  59   2.0000      -0.424162       -11.5420
  60   2.0000      -0.422175       -11.4880
  61   2.0000      -0.415039       -11.2938
  62   2.0000      -0.408500       -11.1158
  63   2.0000      -0.356543        -9.7020
  64   2.0000      -0.335260        -9.1229
  65   2.0000      -0.333851        -9.0846
  66   2.0000      -0.282066        -7.6754
  67   0.0000       0.018543         0.5046
  68   0.0000       0.078756         2.1431
  69   0.0000       0.106343         2.8937
  70   0.0000       0.117194         3.1890
  71   0.0000       0.127186         3.4609

MULLIKEN ATOMIC CHARGES
-----------------------
   0 S :    0.097986
   1 C :   -0.090557
   2 C :   -0.104510
   3 C :   -0.022126
   4 C :   -0.102055
   5 H :    0.023764
   6 C :    0.027588
   7 H :    0.038430
   8 H :    0.017695
   9 C :   -0.090253
  10 H :    0.027323
  11 H :    0.031293
  12 C :   -0.027746
  13 H :    0.028094
  14 H :    0.038374
  15 H :    0.033093
  16 S :    0.115984
  17 C :   -0.069956
  18 C :   -0.011578
  19 C :   -0.101359
  20 C :   -0.142329
  21 H :    0.001092
  22 C :    0.070260
  23 H :    0.003385
  24 H :    0.048628
  25 C :   -0.069092
  26 H :    0.023510
  27 H :    0.034191
  28 C :   -0.021275
  29 H :    0.023991
  30 H :    0.037810
  31 H :    0.028110
  32 H :    0.047907
  33 H :    0.054328
Sum of atomic charges:    0.0000000

LOEWDIN ATOMIC CHARGES
----------------------
   0 S :    0.406866
   1 C :   -0.214558
   2 C :   -0.074912
   3 C :   -0.077792
   4 C :   -0.166887
   5 H :    0.032720
   6 C :   -0.036777
   7 H :    0.032297
   8 H :    0.029346
   9 C :   -0.041757
  10 H :    0.018669
  11 H :    0.029194
  12 C :   -0.059205
  13 H :    0.022825
  14 H :    0.025626
  15 H :    0.027365
  16 S :    0.436575
  17 C :   -0.192838
  18 C :   -0.061570
  19 C :   -0.061525
  20 C :   -0.201695
  21 H :    0.025410
  22 C :   -0.036575
  23 H :    0.024718
  24 H :    0.027843
  25 C :   -0.037681
  26 H :    0.016549
  27 H :    0.029763
  28 C :   -0.058635
  29 H :    0.027118
  30 H :    0.024785
  31 H :    0.022931
  32 H :    0.037598
  33 H :    0.024205

  Mayer bond orders larger than 0.100000
B(  0-S ,  1-C ) :   1.1282 B(  0-S ,  4-C ) :   1.1390 B(  1-C ,  2-C ) :   1.6298
B(  1-C , 32-H ) :   0.9472 B(  2-C ,  3-C ) :   1.2723 B(  2-C ,  6-C ) :   1.0385
B(  3-C ,  4-C ) :   1.5626 B(  3-C ,  5-H ) :   0.9802 B(  4-C , 20-C ) :   1.0638
B(  6-C ,  7-H ) :   0.9366 B(  6-C ,  8-H ) :   0.9436 B(  6-C ,  9-C ) :   1.0513
B(  9-C , 10-H ) :   0.9626 B(  9-C , 11-H ) :   0.9559 B(  9-C , 12-C ) :   1.0759
B( 12-C , 13-H ) :   0.9776 B( 12-C , 14-H ) :   0.9738 B( 12-C , 15-H ) :   0.9759
B( 16-S , 17-C ) :   1.1729 B( 16-S , 20-C ) :   1.1692 B( 17-C , 18-C ) :   1.5483
B( 17-C , 20-C ) :   0.1007 B( 17-C , 33-H ) :   0.9684 B( 18-C , 19-C ) :   1.3124
B( 18-C , 21-H ) :   0.9908 B( 19-C , 20-C ) :   1.5145 B( 19-C , 22-C ) :   1.0438
B( 22-C , 23-H ) :   0.9309 B( 22-C , 24-H ) :   0.9262 B( 22-C , 25-C ) :   1.0372
B( 25-C , 26-H ) :   0.9577 B( 25-C , 27-H ) :   0.9587 B( 25-C , 28-C ) :   1.0733
B( 28-C , 29-H ) :   0.9736 B( 28-C , 30-H ) :   0.9764 B( 28-C , 31-H ) :   0.9782

Dispersion correction           -0.014020443
FINAL SINGLE POINT ENERGY     -1339.869513625767

DIPOLE MOMENT
-------------
                                X             Y             Z
Electronic contribution:    -14.78102       4.02223      -2.44542
Nuclear contribution   :     15.00467      -4.33047       2.50670
                        -----------------------------------------
Total Dipole Moment    :      0.22365      -0.30825       0.06128
                        -----------------------------------------
Magnitude (a.u.)       :      0.38573
Magnitude (Debye)      :      0.98046

Rotational constants in cm-1:     0.019886     0.008137     0.006455
Rotational constants in MHz :   596.167245   243.930378   193.530137

                             ****ORCA TERMINATED NORMALLY****
TOTAL RUN TIME: 0 days 0 hours 0 minutes 34 seconds 541 msec
