                         Program Version 4.2.1 -  RELEASE  -
|  1> ! wB97X-D3 SP def2-SVP
|  2> %pal
|  3> nprocs 16
|  4> end
|  5>
|  6> * xyz 0 1
|  7> S 	 -50.2132 	 8.04712 	 82.3565
|  8> C 	 -50.3142 	 9.73532 	 82.8218
|  9> C 	 -51.3718 	 9.94745 	 83.683
| 10> C 	 -52.3058 	 8.84082 	 83.6046
| 11> C 	 -51.8868 	 7.79024 	 82.8567
| 12> H 	 -53.2718 	 8.94557 	 84.0928
| 13> C 	 -51.7749 	 11.1991 	 84.4718
| 14> H 	 -52.8308 	 11.2819 	 84.2031
| 15> H 	 -51.3243 	 12.121 	 84.0431
| 16> C 	 -51.5084 	 10.9451 	 85.9712
| 17> H 	 -51.9053 	 11.8545 	 86.4876
| 18> H 	 -52.0199 	 10.0468 	 86.2225
| 19> C 	 -50.0475 	 10.7298 	 86.4274
| 20> H 	 -49.4593 	 11.5874 	 86.1465
| 21> H 	 -50.0968 	 10.7399 	 87.5281
| 22> H 	 -49.6257 	 9.829 	 86.0283
| 23> S 	 -51.556 	 5.0289 	 82.9949
| 24> C 	 -52.976 	 3.95086 	 82.7911
| 25> C 	 -54.1039 	 4.70606 	 82.5201
| 26> C 	 -53.8476 	 6.16264 	 82.4591
| 27> C 	 -52.5389 	 6.5225 	 82.7032
| 28> H 	 -55.0399 	 4.26015 	 82.4283
| 29> C 	 -54.7522 	 7.25567 	 82.0273
| 30> H 	 -54.2812 	 7.72388 	 81.2048
| 31> H 	 -54.8098 	 8.00639 	 82.7798
| 32> C 	 -56.1416 	 6.70123 	 81.6098
| 33> H 	 -56.632 	 6.43911 	 82.5342
| 34> H 	 -56.0673 	 5.73684 	 81.0574
| 35> C 	 -56.9258 	 7.68375 	 80.7956
| 36> H 	 -56.5911 	 8.73463 	 80.7654
| 37> H 	 -57.9146 	 7.73004 	 81.0224
| 38> H 	 -56.8819 	 7.29128 	 79.8035
| 39> H 	 -49.5747 	 10.5006 	 82.741
| 40> H 	 -52.9804 	 2.82439 	 82.9116
| 41> *
| 42>
| 43>                          ****END OF INPUT****

CARTESIAN COORDINATES (ANGSTROEM)
---------------------------------
  S    -50.213200    8.047120   82.356500
  C    -50.314200    9.735320   82.821800
  C    -51.371800    9.947450   83.683000
  C    -52.305800    8.840820   83.604600
  C    -51.886800    7.790240   82.856700
  H    -53.271800    8.945570   84.092800
  C    -51.774900   11.199100   84.471800
  H    -52.830800   11.281900   84.203100
  H    -51.324300   12.121000   84.043100
  C    -51.508400   10.945100   85.971200
  H    -51.905300   11.854500   86.487600
  H    -52.019900   10.046800   86.222500
  C    -50.047500   10.729800   86.427400
  H    -49.459300   11.587400   86.146500
  H    -50.096800   10.739900   87.528100
  H    -49.625700    9.829000   86.028300
  S    -51.556000    5.028900   82.994900
  C    -52.976000    3.950860   82.791100
  C    -54.103900    4.706060   82.520100
  C    -53.847600    6.162640   82.459100
  C    -52.538900    6.522500   82.703200
  H    -55.039900    4.260150   82.428300
  C    -54.752200    7.255670   82.027300
  H    -54.281200    7.723880   81.204800
  H    -54.809800    8.006390   82.779800
  C    -56.141600    6.701230   81.609800
  H    -56.632000    6.439110   82.534200
  H    -56.067300    5.736840   81.057400
  C    -56.925800    7.683750   80.795600
  H    -56.591100    8.734630   80.765400
  H    -57.914600    7.730040   81.022400
  H    -56.881900    7.291280   79.803500
  H    -49.574700   10.500600   82.741000
  H    -52.980400    2.824390   82.911600

 Total Charge           Charge          ....    0
 Multiplicity           Mult            ....    1
 Number of Electrons    NEL             ....  134
 Basis Dimension        Dim             ....  322

ORBITAL ENERGIES
----------------

  NO   OCC          E(Eh)            E(eV)
   0   2.0000     -88.966890     -2420.9121
   1   2.0000     -88.960188     -2420.7298
   2   2.0000     -10.330057      -281.0951
   3   2.0000     -10.326840      -281.0076
   4   2.0000     -10.325172      -280.9622
   5   2.0000     -10.313263      -280.6382
   6   2.0000     -10.302103      -280.3345
   7   2.0000     -10.301644      -280.3220
   8   2.0000     -10.298835      -280.2455
   9   2.0000     -10.297215      -280.2015
  10   2.0000     -10.295249      -280.1480
  11   2.0000     -10.290787      -280.0266
  12   2.0000     -10.283968      -279.8410
  13   2.0000     -10.282176      -279.7922
  14   2.0000     -10.276714      -279.6436
  15   2.0000     -10.264642      -279.3151
  16   2.0000      -8.081318      -219.9038
  17   2.0000      -8.073493      -219.6909
  18   2.0000      -6.040048      -164.3581
  19   2.0000      -6.036130      -164.2515
  20   2.0000      -6.032329      -164.1480
  21   2.0000      -6.031584      -164.1278
  22   2.0000      -6.028220      -164.0362
  23   2.0000      -6.023976      -163.9207
  24   2.0000      -1.005233       -27.3538
  25   2.0000      -0.975554       -26.5462
  26   2.0000      -0.912644       -24.8343
  27   2.0000      -0.910715       -24.7818
  28   2.0000      -0.872920       -23.7534
  29   2.0000      -0.851977       -23.1835
  30   2.0000      -0.842799       -22.9337
  31   2.0000      -0.816044       -22.2057
  32   2.0000      -0.784566       -21.3491
  33   2.0000      -0.772615       -21.0239
  34   2.0000      -0.711428       -19.3589
  35   2.0000      -0.704217       -19.1627
  36   2.0000      -0.694875       -18.9085
  37   2.0000      -0.650131       -17.6910
  38   2.0000      -0.636924       -17.3316
  39   2.0000      -0.626779       -17.0555
  40   2.0000      -0.594482       -16.1767
  41   2.0000      -0.573554       -15.6072
  42   2.0000      -0.571646       -15.5553
  43   2.0000      -0.550003       -14.9663
  44   2.0000      -0.545019       -14.8307
  45   2.0000      -0.528081       -14.3698
  46   2.0000      -0.516181       -14.0460
  47   2.0000      -0.514013       -13.9870
  48   2.0000      -0.504253       -13.7214
  49   2.0000      -0.501373       -13.6431
  50   2.0000      -0.494494       -13.4559
  51   2.0000      -0.481543       -13.1034
  52   2.0000      -0.472686       -12.8625
  53   2.0000      -0.462709       -12.5909
  54   2.0000      -0.456275       -12.4159
  55   2.0000      -0.455833       -12.4039
  56   2.0000      -0.446096       -12.1389
  57   2.0000      -0.441487       -12.0135
  58   2.0000      -0.430516       -11.7149
  59   2.0000      -0.426779       -11.6133
  60   2.0000      -0.418960       -11.4005
  61   2.0000      -0.411025       -11.1846
  62   2.0000      -0.402656       -10.9568
  63   2.0000      -0.355465        -9.6727
  64   2.0000      -0.329085        -8.9549
  65   2.0000      -0.323578        -8.8050
  66   2.0000      -0.287671        -7.8279
  67   0.0000       0.024437         0.6650
  68   0.0000       0.066239         1.8025
  69   0.0000       0.102423         2.7871
  70   0.0000       0.116768         3.1774
  71   0.0000       0.136898         3.7252

MULLIKEN ATOMIC CHARGES
-----------------------
   0 S :    0.106841
   1 C :   -0.090429
   2 C :   -0.133701
   3 C :    0.003482
   4 C :   -0.120490
   5 H :    0.019407
   6 C :    0.055971
   7 H :    0.030988
   8 H :    0.026633
   9 C :   -0.080804
  10 H :    0.039618
  11 H :    0.026843
  12 C :   -0.035823
  13 H :    0.022472
  14 H :    0.039755
  15 H :    0.047726
  16 S :    0.069567
  17 C :   -0.105289
  18 C :   -0.013558
  19 C :   -0.078602
  20 C :   -0.121020
  21 H :    0.001593
  22 C :    0.090616
  23 H :    0.034035
  24 H :    0.019065
  25 C :   -0.116292
  26 H :    0.023118
  27 H :    0.039440
  28 C :    0.021165
  29 H :    0.032604
  30 H :    0.003478
  31 H :    0.023156
  32 H :    0.034147
  33 H :    0.084288
Sum of atomic charges:   -0.0000000

LOEWDIN ATOMIC CHARGES
----------------------
   0 S :    0.392388
   1 C :   -0.191871
   2 C :   -0.060815
   3 C :   -0.058606
   4 C :   -0.187366
   5 H :    0.029723
   6 C :   -0.034600
   7 H :    0.032827
   8 H :    0.030121
   9 C :   -0.037935
  10 H :    0.029086
  11 H :    0.020954
  12 C :   -0.058553
  13 H :    0.020732
  14 H :    0.033145
  15 H :    0.024714
  16 S :    0.348562
  17 C :   -0.178175
  18 C :   -0.068520
  19 C :   -0.054726
  20 C :   -0.174120
  21 H :    0.020067
  22 C :   -0.025082
  23 H :    0.031423
  24 H :    0.026235
  25 C :   -0.040735
  26 H :    0.019758
  27 H :    0.028238
  28 C :   -0.061661
  29 H :    0.030298
  30 H :    0.012945
  31 H :    0.029662
  32 H :    0.024125
  33 H :    0.047763

  Mayer bond orders larger than 0.100000
B(  0-S ,  1-C ) :   1.1221 B(  0-S ,  4-C ) :   1.1163 B(  1-C ,  2-C ) :   1.6431
B(  1-C , 32-H ) :   0.9668 B(  2-C ,  3-C ) :   1.2229 B(  2-C ,  6-C ) :   1.0081
B(  3-C ,  4-C ) :   1.5846 B(  3-C ,  5-H ) :   0.9838 B(  4-C , 20-C ) :   1.0738
B(  6-C ,  7-H ) :   0.9470 B(  6-C ,  8-H ) :   0.9479 B(  6-C ,  9-C ) :   1.0561
B(  9-C , 10-H ) :   0.9577 B(  9-C , 11-H ) :   0.9566 B(  9-C , 12-C ) :   1.0789
B( 12-C , 13-H ) :   0.9758 B( 12-C , 14-H ) :   0.9730 B( 12-C , 15-H ) :   0.9743
B( 16-S , 17-C ) :   1.1332 B( 16-S , 20-C ) :   1.0967 B( 17-C , 18-C ) :   1.6314
B( 17-C , 33-H ) :   0.9565 B( 18-C , 19-C ) :   1.1987 B( 18-C , 21-H ) :   0.9970
B( 19-C , 20-C ) :   1.6394 B( 19-C , 22-C ) :   1.0445 B( 22-C , 23-H ) :   0.9355
B( 22-C , 24-H ) :   0.9152 B( 22-C , 25-C ) :   1.0773 B( 25-C , 26-H ) :   0.9560
B( 25-C , 27-H ) :   0.9622 B( 25-C , 28-C ) :   1.0675 B( 28-C , 29-H ) :   0.9764
B( 28-C , 30-H ) :   0.9676 B( 28-C , 31-H ) :   0.9754

Dispersion correction           -0.013993033
FINAL SINGLE POINT ENERGY     -1339.858895703464

DIPOLE MOMENT
-------------
                                X             Y             Z
Electronic contribution:     16.17790     -15.90846      -5.91714
Nuclear contribution   :    -16.81269      16.39045       6.16616
                        -----------------------------------------
Total Dipole Moment    :     -0.63478       0.48198       0.24902
                        -----------------------------------------
Magnitude (a.u.)       :      0.83503
Magnitude (Debye)      :      2.12247

Rotational constants in cm-1:     0.018632     0.008313     0.006701
Rotational constants in MHz :   558.575087   249.207140   200.902541

                             ****ORCA TERMINATED NORMALLY****
TOTAL RUN TIME: 0 days 0 hours 0 minutes 28 seconds 221 msec
