                         Program Version 4.2.1 -  RELEASE  -
|  1> ! wB97X-D3 SP def2-SVP
|  2> %pal
|  3> nprocs 16
|  4> end
|  5>
|  6> * xyz 0 1
|  7> S 	 -64.419 	 46.8701 	 126.617
|  8> C 	 -65.3327 	 45.6907 	 127.574
|  9> C 	 -66.3606 	 46.2867 	 128.254
| 10> C 	 -66.5091 	 47.6307 	 127.823
| 11> C 	 -65.6475 	 48.0195 	 126.827
| 12> H 	 -67.2684 	 48.3652 	 128.127
| 13> C 	 -67.2512 	 45.6126 	 129.32
| 14> H 	 -67.5346 	 46.3324 	 130.166
| 15> H 	 -66.6841 	 44.8401 	 129.79
| 16> C 	 -68.5579 	 45.0812 	 128.712
| 17> H 	 -69.045 	 46.033 	 128.248
| 18> H 	 -68.3842 	 44.3863 	 127.878
| 19> C 	 -69.3731 	 44.1392 	 129.624
| 20> H 	 -70.3122 	 43.8705 	 129.055
| 21> H 	 -68.888 	 43.1881 	 129.689
| 22> H 	 -69.4881 	 44.3984 	 130.668
| 23> S 	 -65.4881 	 49.0703 	 124.303
| 24> C 	 -65.2186 	 50.7534 	 124.182
| 25> C 	 -65.456 	 51.3496 	 125.34
| 26> C 	 -65.5154 	 50.4844 	 126.448
| 27> C 	 -65.5761 	 49.171 	 126.029
| 28> H 	 -65.5713 	 52.4363 	 125.317
| 29> C 	 -65.4241 	 51.0168 	 127.844
| 30> H 	 -66.2622 	 50.6581 	 128.494
| 31> H 	 -65.6874 	 52.109 	 127.794
| 32> C 	 -64.094 	 50.8635 	 128.484
| 33> H 	 -63.3073 	 51.4428 	 128.002
| 34> H 	 -63.7803 	 49.8012 	 128.413
| 35> C 	 -64.0697 	 51.1211 	 129.943
| 36> H 	 -64.495 	 52.0712 	 130.301
| 37> H 	 -63.1168 	 51.1487 	 130.417
| 38> H 	 -64.6861 	 50.2992 	 130.421
| 39> H 	 -64.9945 	 44.6878 	 127.868
| 40> H 	 -65.1961 	 51.26 	 123.217
| 41> *
| 42>
| 43>                          ****END OF INPUT****

CARTESIAN COORDINATES (ANGSTROEM)
---------------------------------
  S    -64.419000   46.870100  126.617000
  C    -65.332700   45.690700  127.574000
  C    -66.360600   46.286700  128.254000
  C    -66.509100   47.630700  127.823000
  C    -65.647500   48.019500  126.827000
  H    -67.268400   48.365200  128.127000
  C    -67.251200   45.612600  129.320000
  H    -67.534600   46.332400  130.166000
  H    -66.684100   44.840100  129.790000
  C    -68.557900   45.081200  128.712000
  H    -69.045000   46.033000  128.248000
  H    -68.384200   44.386300  127.878000
  C    -69.373100   44.139200  129.624000
  H    -70.312200   43.870500  129.055000
  H    -68.888000   43.188100  129.689000
  H    -69.488100   44.398400  130.668000
  S    -65.488100   49.070300  124.303000
  C    -65.218600   50.753400  124.182000
  C    -65.456000   51.349600  125.340000
  C    -65.515400   50.484400  126.448000
  C    -65.576100   49.171000  126.029000
  H    -65.571300   52.436300  125.317000
  C    -65.424100   51.016800  127.844000
  H    -66.262200   50.658100  128.494000
  H    -65.687400   52.109000  127.794000
  C    -64.094000   50.863500  128.484000
  H    -63.307300   51.442800  128.002000
  H    -63.780300   49.801200  128.413000
  C    -64.069700   51.121100  129.943000
  H    -64.495000   52.071200  130.301000
  H    -63.116800   51.148700  130.417000
  H    -64.686100   50.299200  130.421000
  H    -64.994500   44.687800  127.868000
  H    -65.196100   51.260000  123.217000

 Total Charge           Charge          ....    0
 Multiplicity           Mult            ....    1
 Number of Electrons    NEL             ....  134
 Basis Dimension        Dim             ....  322

ORBITAL ENERGIES
----------------

  NO   OCC          E(Eh)            E(eV)
   0   2.0000     -88.963112     -2420.8094
   1   2.0000     -88.962870     -2420.8028
   2   2.0000     -10.318165      -280.7716
   3   2.0000     -10.317659      -280.7578
   4   2.0000     -10.311690      -280.5953
   5   2.0000     -10.306458      -280.4530
   6   2.0000     -10.301509      -280.3183
   7   2.0000     -10.299070      -280.2519
   8   2.0000     -10.296846      -280.1914
   9   2.0000     -10.295293      -280.1492
  10   2.0000     -10.292922      -280.0847
  11   2.0000     -10.291704      -280.0515
  12   2.0000     -10.284144      -279.8458
  13   2.0000     -10.281976      -279.7868
  14   2.0000     -10.278751      -279.6990
  15   2.0000     -10.273221      -279.5486
  16   2.0000      -8.079037      -219.8418
  17   2.0000      -8.078647      -219.8312
  18   2.0000      -6.037387      -164.2857
  19   2.0000      -6.037092      -164.2776
  20   2.0000      -6.033452      -164.1786
  21   2.0000      -6.033096      -164.1689
  22   2.0000      -6.029748      -164.0778
  23   2.0000      -6.029341      -164.0667
  24   2.0000      -1.021698       -27.8018
  25   2.0000      -0.994404       -27.0591
  26   2.0000      -0.918700       -24.9991
  27   2.0000      -0.911667       -24.8077
  28   2.0000      -0.876872       -23.8609
  29   2.0000      -0.857272       -23.3276
  30   2.0000      -0.844339       -22.9756
  31   2.0000      -0.816082       -22.2067
  32   2.0000      -0.787119       -21.4186
  33   2.0000      -0.774293       -21.0696
  34   2.0000      -0.710182       -19.3250
  35   2.0000      -0.693357       -18.8672
  36   2.0000      -0.690854       -18.7991
  37   2.0000      -0.661842       -18.0096
  38   2.0000      -0.640841       -17.4382
  39   2.0000      -0.618907       -16.8413
  40   2.0000      -0.602693       -16.4001
  41   2.0000      -0.571769       -15.5586
  42   2.0000      -0.566221       -15.4077
  43   2.0000      -0.554508       -15.0889
  44   2.0000      -0.530080       -14.4242
  45   2.0000      -0.525088       -14.2884
  46   2.0000      -0.522079       -14.2065
  47   2.0000      -0.513004       -13.9596
  48   2.0000      -0.508767       -13.8443
  49   2.0000      -0.499264       -13.5857
  50   2.0000      -0.495495       -13.4831
  51   2.0000      -0.476725       -12.9724
  52   2.0000      -0.471873       -12.8403
  53   2.0000      -0.464086       -12.6284
  54   2.0000      -0.454560       -12.3692
  55   2.0000      -0.448130       -12.1943
  56   2.0000      -0.444152       -12.0860
  57   2.0000      -0.436074       -11.8662
  58   2.0000      -0.433297       -11.7906
  59   2.0000      -0.429184       -11.6787
  60   2.0000      -0.426381       -11.6024
  61   2.0000      -0.406947       -11.0736
  62   2.0000      -0.402693       -10.9578
  63   2.0000      -0.343270        -9.3409
  64   2.0000      -0.336793        -9.1646
  65   2.0000      -0.326014        -8.8713
  66   2.0000      -0.295357        -8.0371
  67   0.0000       0.030127         0.8198
  68   0.0000       0.075529         2.0552
  69   0.0000       0.105305         2.8655
  70   0.0000       0.119107         3.2411
  71   0.0000       0.145072         3.9476

MULLIKEN ATOMIC CHARGES
-----------------------
   0 S :    0.119541
   1 C :   -0.120692
   2 C :   -0.084848
   3 C :    0.034437
   4 C :   -0.195452
   5 H :    0.011089
   6 C :    0.064198
   7 H :    0.043664
   8 H :    0.008050
   9 C :   -0.109397
  10 H :    0.045926
  11 H :    0.032145
  12 C :   -0.033665
  13 H :    0.045911
  14 H :    0.019342
  15 H :    0.031026
  16 S :    0.126319
  17 C :   -0.094138
  18 C :   -0.040478
  19 C :   -0.008342
  20 C :   -0.164490
  21 H :    0.020043
  22 C :    0.063255
  23 H :    0.022225
  24 H :    0.016490
  25 C :   -0.042913
  26 H :    0.026162
  27 H :    0.035159
  28 C :   -0.051761
  29 H :    0.017370
  30 H :    0.026203
  31 H :    0.033085
  32 H :    0.045503
  33 H :    0.059033
Sum of atomic charges:    0.0000000

LOEWDIN ATOMIC CHARGES
----------------------
   0 S :    0.422818
   1 C :   -0.196211
   2 C :   -0.061106
   3 C :   -0.068393
   4 C :   -0.208009
   5 H :    0.031685
   6 C :   -0.032624
   7 H :    0.040154
   8 H :    0.020237
   9 C :   -0.051321
  10 H :    0.033759
  11 H :    0.028033
  12 C :   -0.071859
  13 H :    0.039320
  14 H :    0.023078
  15 H :    0.020351
  16 S :    0.429225
  17 C :   -0.196140
  18 C :   -0.075351
  19 C :   -0.054008
  20 C :   -0.214416
  21 H :    0.034588
  22 C :   -0.036954
  23 H :    0.031789
  24 H :    0.034563
  25 C :   -0.046823
  26 H :    0.025294
  27 H :    0.031770
  28 C :   -0.069122
  29 H :    0.020257
  30 H :    0.022522
  31 H :    0.031568
  32 H :    0.029053
  33 H :    0.032274

  Mayer bond orders larger than 0.100000
B(  0-S ,  1-C ) :   1.1295 B(  0-S ,  4-C ) :   1.1650 B(  1-C ,  2-C ) :   1.6301
B(  1-C ,  4-C ) :   0.1022 B(  1-C , 32-H ) :   0.9621 B(  2-C ,  3-C ) :   1.2304
B(  2-C ,  6-C ) :   1.0193 B(  3-C ,  4-C ) :   1.5824 B(  3-C ,  5-H ) :   0.9939
B(  4-C , 20-C ) :   1.0622 B(  6-C ,  7-H ) :   0.9439 B(  6-C ,  8-H ) :   0.9384
B(  6-C ,  9-C ) :   1.0599 B(  9-C , 10-H ) :   0.9583 B(  9-C , 11-H ) :   0.9575
B(  9-C , 12-C ) :   1.0662 B( 12-C , 13-H ) :   0.9725 B( 12-C , 14-H ) :   0.9722
B( 12-C , 15-H ) :   0.9763 B( 16-S , 17-C ) :   1.1549 B( 16-S , 20-C ) :   1.1551
B( 17-C , 18-C ) :   1.6284 B( 17-C , 33-H ) :   0.9603 B( 18-C , 19-C ) :   1.2503
B( 18-C , 21-H ) :   0.9853 B( 19-C , 20-C ) :   1.5685 B( 19-C , 22-C ) :   1.0497
B( 22-C , 23-H ) :   0.9290 B( 22-C , 24-H ) :   0.9196 B( 22-C , 25-C ) :   1.0686
B( 25-C , 26-H ) :   0.9467 B( 25-C , 27-H ) :   0.9546 B( 25-C , 28-C ) :   1.0893
B( 28-C , 29-H ) :   0.9712 B( 28-C , 30-H ) :   0.9714 B( 28-C , 31-H ) :   0.9735

Dispersion correction           -0.014222666
FINAL SINGLE POINT ENERGY     -1339.868053209181

DIPOLE MOMENT
-------------
                                X             Y             Z
Electronic contribution:      9.86672       1.35591     -23.75860
Nuclear contribution   :    -10.09164      -1.18668      24.19625
                        -----------------------------------------
Total Dipole Moment    :     -0.22492       0.16923       0.43765
                        -----------------------------------------
Magnitude (a.u.)       :      0.52035
Magnitude (Debye)      :      1.32264

Rotational constants in cm-1:     0.019517     0.008090     0.006867
Rotational constants in MHz :   585.107900   242.519952   205.855794

                             ****ORCA TERMINATED NORMALLY****
TOTAL RUN TIME: 0 days 0 hours 0 minutes 32 seconds 181 msec
