                         Program Version 4.2.1 -  RELEASE  -
|  1> ! wB97X-D3 SP def2-SVP
|  2> %pal
|  3> nprocs 16
|  4> end
|  5>
|  6> * xyz 0 1
|  7> S 	 -38.4524 	 53.6245 	 109.095
|  8> C 	 -37.1824 	 54.8807 	 108.924
|  9> C 	 -37.6143 	 55.9953 	 109.617
| 10> C 	 -38.999 	 55.9735 	 109.944
| 11> C 	 -39.5958 	 54.7674 	 109.682
| 12> H 	 -39.5049 	 56.8094 	 110.316
| 13> C 	 -36.8538 	 57.1935 	 110.039
| 14> H 	 -37.564 	 58.0184 	 110.089
| 15> H 	 -36.1533 	 57.3371 	 109.214
| 16> C 	 -36.045 	 57.0588 	 111.31
| 17> H 	 -35.206 	 56.442 	 111.148
| 18> H 	 -35.6214 	 57.9998 	 111.606
| 19> C 	 -36.8551 	 56.6473 	 112.572
| 20> H 	 -37.6653 	 57.2889 	 112.763
| 21> H 	 -37.3718 	 55.623 	 112.353
| 22> H 	 -36.1964 	 56.6637 	 113.426
| 23> S 	 -40.9583 	 52.9692 	 111.181
| 24> C 	 -42.7036 	 52.9908 	 111.393
| 25> C 	 -43.2116 	 53.9239 	 110.603
| 26> C 	 -42.2462 	 54.7238 	 109.821
| 27> C 	 -40.9451 	 54.3078 	 110.066
| 28> H 	 -44.2361 	 53.9877 	 110.674
| 29> C 	 -42.6664 	 55.8331 	 108.872
| 30> H 	 -42.2539 	 56.7951 	 109.1
| 31> H 	 -43.6262 	 56.0734 	 109.26
| 32> C 	 -42.828 	 55.5583 	 107.357
| 33> H 	 -41.8348 	 55.355 	 107.077
| 34> H 	 -43.0377 	 56.4763 	 106.829
| 35> C 	 -43.9284 	 54.5843 	 106.879
| 36> H 	 -44.0352 	 53.6871 	 107.455
| 37> H 	 -43.9167 	 54.3448 	 105.826
| 38> H 	 -44.852 	 55.0986 	 107.03
| 39> H 	 -36.1745 	 54.8088 	 108.525
| 40> H 	 -43.1884 	 52.2635 	 111.963
| 41> *
| 42>
| 43>                          ****END OF INPUT****

CARTESIAN COORDINATES (ANGSTROEM)
---------------------------------
  S    -38.452400   53.624500  109.095000
  C    -37.182400   54.880700  108.924000
  C    -37.614300   55.995300  109.617000
  C    -38.999000   55.973500  109.944000
  C    -39.595800   54.767400  109.682000
  H    -39.504900   56.809400  110.316000
  C    -36.853800   57.193500  110.039000
  H    -37.564000   58.018400  110.089000
  H    -36.153300   57.337100  109.214000
  C    -36.045000   57.058800  111.310000
  H    -35.206000   56.442000  111.148000
  H    -35.621400   57.999800  111.606000
  C    -36.855100   56.647300  112.572000
  H    -37.665300   57.288900  112.763000
  H    -37.371800   55.623000  112.353000
  H    -36.196400   56.663700  113.426000
  S    -40.958300   52.969200  111.181000
  C    -42.703600   52.990800  111.393000
  C    -43.211600   53.923900  110.603000
  C    -42.246200   54.723800  109.821000
  C    -40.945100   54.307800  110.066000
  H    -44.236100   53.987700  110.674000
  C    -42.666400   55.833100  108.872000
  H    -42.253900   56.795100  109.100000
  H    -43.626200   56.073400  109.260000
  C    -42.828000   55.558300  107.357000
  H    -41.834800   55.355000  107.077000
  H    -43.037700   56.476300  106.829000
  C    -43.928400   54.584300  106.879000
  H    -44.035200   53.687100  107.455000
  H    -43.916700   54.344800  105.826000
  H    -44.852000   55.098600  107.030000
  H    -36.174500   54.808800  108.525000
  H    -43.188400   52.263500  111.963000

 Total Charge           Charge          ....    0
 Multiplicity           Mult            ....    1
 Number of Electrons    NEL             ....  134
 Basis Dimension        Dim             ....  322

ORBITAL ENERGIES
----------------

  NO   OCC          E(Eh)            E(eV)
   0   2.0000     -88.967289     -2420.9230
   1   2.0000     -88.955963     -2420.6148
   2   2.0000     -10.330381      -281.1040
   3   2.0000     -10.329612      -281.0830
   4   2.0000     -10.317148      -280.7439
   5   2.0000     -10.309488      -280.5354
   6   2.0000     -10.308758      -280.5156
   7   2.0000     -10.296480      -280.1815
   8   2.0000     -10.288178      -279.9556
   9   2.0000     -10.287685      -279.9421
  10   2.0000     -10.286965      -279.9226
  11   2.0000     -10.285802      -279.8909
  12   2.0000     -10.280817      -279.7553
  13   2.0000     -10.280493      -279.7464
  14   2.0000     -10.276575      -279.6398
  15   2.0000     -10.271110      -279.4911
  16   2.0000      -8.081712      -219.9146
  17   2.0000      -8.071544      -219.6379
  18   2.0000      -6.040406      -164.3678
  19   2.0000      -6.036241      -164.2545
  20   2.0000      -6.032276      -164.1466
  21   2.0000      -6.030126      -164.0881
  22   2.0000      -6.025823      -163.9710
  23   2.0000      -6.022269      -163.8743
  24   2.0000      -1.009492       -27.4697
  25   2.0000      -0.986564       -26.8458
  26   2.0000      -0.918052       -24.9815
  27   2.0000      -0.904316       -24.6077
  28   2.0000      -0.872585       -23.7442
  29   2.0000      -0.848168       -23.0798
  30   2.0000      -0.841896       -22.9091
  31   2.0000      -0.822213       -22.3736
  32   2.0000      -0.785502       -21.3746
  33   2.0000      -0.778276       -21.1780
  34   2.0000      -0.714775       -19.4500
  35   2.0000      -0.707537       -19.2531
  36   2.0000      -0.696842       -18.9620
  37   2.0000      -0.665394       -18.1063
  38   2.0000      -0.639391       -17.3987
  39   2.0000      -0.618687       -16.8353
  40   2.0000      -0.594842       -16.1865
  41   2.0000      -0.575433       -15.6583
  42   2.0000      -0.555857       -15.1256
  43   2.0000      -0.553481       -15.0610
  44   2.0000      -0.552119       -15.0239
  45   2.0000      -0.539918       -14.6919
  46   2.0000      -0.514865       -14.0102
  47   2.0000      -0.511706       -13.9242
  48   2.0000      -0.509554       -13.8657
  49   2.0000      -0.493746       -13.4355
  50   2.0000      -0.489603       -13.3228
  51   2.0000      -0.478711       -13.0264
  52   2.0000      -0.473780       -12.8922
  53   2.0000      -0.471934       -12.8420
  54   2.0000      -0.459229       -12.4962
  55   2.0000      -0.449165       -12.2224
  56   2.0000      -0.446198       -12.1417
  57   2.0000      -0.435717       -11.8565
  58   2.0000      -0.428015       -11.6469
  59   2.0000      -0.425567       -11.5803
  60   2.0000      -0.418873       -11.3981
  61   2.0000      -0.406178       -11.0527
  62   2.0000      -0.403719       -10.9857
  63   2.0000      -0.349989        -9.5237
  64   2.0000      -0.328561        -8.9406
  65   2.0000      -0.324809        -8.8385
  66   2.0000      -0.299509        -8.1501
  67   0.0000       0.034485         0.9384
  68   0.0000       0.066667         1.8141
  69   0.0000       0.108623         2.9558
  70   0.0000       0.122869         3.3434
  71   0.0000       0.131867         3.5883

MULLIKEN ATOMIC CHARGES
-----------------------
   0 S :    0.110154
   1 C :   -0.112717
   2 C :   -0.118977
   3 C :    0.047651
   4 C :   -0.125430
   5 H :   -0.012187
   6 C :    0.082839
   7 H :    0.019997
   8 H :    0.020221
   9 C :   -0.029470
  10 H :    0.016047
  11 H :    0.018440
  12 C :   -0.074703
  13 H :    0.017317
  14 H :    0.060808
  15 H :    0.037594
  16 S :    0.071349
  17 C :   -0.070545
  18 C :   -0.000713
  19 C :   -0.052288
  20 C :   -0.139498
  21 H :   -0.011481
  22 C :    0.094271
  23 H :    0.016514
  24 H :   -0.018459
  25 C :   -0.020033
  26 H :    0.019515
  27 H :    0.018080
  28 C :   -0.030997
  29 H :    0.032131
  30 H :    0.036405
  31 H :    0.011879
  32 H :    0.046040
  33 H :    0.040245
Sum of atomic charges:   -0.0000000

LOEWDIN ATOMIC CHARGES
----------------------
   0 S :    0.408390
   1 C :   -0.193548
   2 C :   -0.060404
   3 C :   -0.058698
   4 C :   -0.197710
   5 H :    0.021789
   6 C :   -0.031497
   7 H :    0.028744
   8 H :    0.034062
   9 C :   -0.033390
  10 H :    0.017756
  11 H :    0.022744
  12 C :   -0.065721
  13 H :    0.014185
  14 H :    0.039794
  15 H :    0.025210
  16 S :    0.388483
  17 C :   -0.165704
  18 C :   -0.064289
  19 C :   -0.058655
  20 C :   -0.188321
  21 H :    0.020045
  22 C :   -0.038524
  23 H :    0.032464
  24 H :    0.024238
  25 C :   -0.030995
  26 H :    0.016969
  27 H :    0.026116
  28 C :   -0.061168
  29 H :    0.022636
  30 H :    0.029294
  31 H :    0.022221
  32 H :    0.032107
  33 H :    0.021375

  Mayer bond orders larger than 0.100000
B(  0-S ,  1-C ) :   1.1146 B(  0-S ,  4-C ) :   1.1644 B(  1-C ,  2-C ) :   1.6133
B(  1-C , 32-H ) :   0.9708 B(  2-C ,  3-C ) :   1.2331 B(  2-C ,  6-C ) :   1.0229
B(  3-C ,  4-C ) :   1.5641 B(  3-C ,  5-H ) :   1.0092 B(  4-C , 20-C ) :   1.0040
B(  6-C ,  7-H ) :   0.9416 B(  6-C ,  8-H ) :   0.9299 B(  6-C ,  9-C ) :   1.0850
B(  9-C , 10-H ) :   0.9537 B(  9-C , 11-H ) :   0.9526 B(  9-C , 12-C ) :   1.0771
B( 12-C , 13-H ) :   0.9753 B( 12-C , 14-H ) :   0.9713 B( 12-C , 15-H ) :   0.9748
B( 16-S , 17-C ) :   1.1268 B( 16-S , 20-C ) :   1.1491 B( 17-C , 18-C ) :   1.6540
B( 17-C , 33-H ) :   0.9766 B( 18-C , 19-C ) :   1.1889 B( 18-C , 21-H ) :   1.0030
B( 19-C , 20-C ) :   1.6285 B( 19-C , 22-C ) :   1.0390 B( 22-C , 23-H ) :   0.9302
B( 22-C , 24-H ) :   0.9145 B( 22-C , 25-C ) :   1.0645 B( 25-C , 26-H ) :   0.9615
B( 25-C , 27-H ) :   0.9521 B( 25-C , 28-C ) :   1.0664 B( 28-C , 29-H ) :   0.9804
B( 28-C , 30-H ) :   0.9746 B( 28-C , 31-H ) :   0.9728

Dispersion correction           -0.014611369
FINAL SINGLE POINT ENERGY     -1339.854147383250

DIPOLE MOMENT
-------------
                                X             Y             Z
Electronic contribution:      1.90981     -16.37140       2.94240
Nuclear contribution   :     -2.05759      16.97473      -2.89818
                        -----------------------------------------
Total Dipole Moment    :     -0.14777       0.60333       0.04423
                        -----------------------------------------
Magnitude (a.u.)       :      0.62274
Magnitude (Debye)      :      1.58287

Rotational constants in cm-1:     0.021342     0.008124     0.007298
Rotational constants in MHz :   639.814087   243.563269   218.778542

                             ****ORCA TERMINATED NORMALLY****
TOTAL RUN TIME: 0 days 0 hours 0 minutes 30 seconds 227 msec
