                         Program Version 4.2.1 -  RELEASE  -
|  1> ! wB97X-D3 SP def2-SVP
|  2> %pal
|  3> nprocs 16
|  4> end
|  5>
|  6> * xyz 0 1
|  7> S 	 -44.2337 	 30.2054 	 75.5666
|  8> C 	 -43.031 	 30.9617 	 74.5564
|  9> C 	 -41.9349 	 31.3979 	 75.2793
| 10> C 	 -42.1013 	 31.0977 	 76.6297
| 11> C 	 -43.2287 	 30.3538 	 76.9475
| 12> H 	 -41.4388 	 31.3748 	 77.4184
| 13> C 	 -40.7196 	 32.1551 	 74.7577
| 14> H 	 -40.4625 	 33.0911 	 75.295
| 15> H 	 -41.1381 	 32.6605 	 73.9012
| 16> C 	 -39.4297 	 31.3837 	 74.4125
| 17> H 	 -39.1367 	 30.8195 	 75.2667
| 18> H 	 -39.6671 	 30.7195 	 73.6349
| 19> C 	 -38.2537 	 32.2659 	 73.8995
| 20> H 	 -38.5362 	 32.8759 	 72.9867
| 21> H 	 -37.9111 	 32.7647 	 74.7518
| 22> H 	 -37.3714 	 31.6542 	 73.6263
| 23> S 	 -42.1571 	 29.6177 	 79.2942
| 24> C 	 -43.1192 	 29.0994 	 80.6362
| 25> C 	 -44.4575 	 29.1394 	 80.272
| 26> C 	 -44.7624 	 29.5556 	 78.9372
| 27> C 	 -43.6106 	 29.9928 	 78.3119
| 28> H 	 -45.1761 	 28.8818 	 81.0307
| 29> C 	 -46.1337 	 29.7563 	 78.4562
| 30> H 	 -46.9282 	 29.1457 	 78.8634
| 31> H 	 -46.1895 	 29.603 	 77.3813
| 32> C 	 -46.5444 	 31.2201 	 78.7225
| 33> H 	 -45.914 	 31.8262 	 78.2333
| 34> H 	 -46.248 	 31.3726 	 79.8122
| 35> C 	 -48.0086 	 31.503 	 78.503
| 36> H 	 -48.4125 	 31.1882 	 77.5404
| 37> H 	 -48.1935 	 32.5654 	 78.7931
| 38> H 	 -48.6522 	 30.9452 	 79.1458
| 39> H 	 -43.138 	 31.0965 	 73.4818
| 40> H 	 -42.7917 	 28.9592 	 81.6931
| 41> *
| 42>
| 43>                          ****END OF INPUT****

CARTESIAN COORDINATES (ANGSTROEM)
---------------------------------
  S    -44.233700   30.205400   75.566600
  C    -43.031000   30.961700   74.556400
  C    -41.934900   31.397900   75.279300
  C    -42.101300   31.097700   76.629700
  C    -43.228700   30.353800   76.947500
  H    -41.438800   31.374800   77.418400
  C    -40.719600   32.155100   74.757700
  H    -40.462500   33.091100   75.295000
  H    -41.138100   32.660500   73.901200
  C    -39.429700   31.383700   74.412500
  H    -39.136700   30.819500   75.266700
  H    -39.667100   30.719500   73.634900
  C    -38.253700   32.265900   73.899500
  H    -38.536200   32.875900   72.986700
  H    -37.911100   32.764700   74.751800
  H    -37.371400   31.654200   73.626300
  S    -42.157100   29.617700   79.294200
  C    -43.119200   29.099400   80.636200
  C    -44.457500   29.139400   80.272000
  C    -44.762400   29.555600   78.937200
  C    -43.610600   29.992800   78.311900
  H    -45.176100   28.881800   81.030700
  C    -46.133700   29.756300   78.456200
  H    -46.928200   29.145700   78.863400
  H    -46.189500   29.603000   77.381300
  C    -46.544400   31.220100   78.722500
  H    -45.914000   31.826200   78.233300
  H    -46.248000   31.372600   79.812200
  C    -48.008600   31.503000   78.503000
  H    -48.412500   31.188200   77.540400
  H    -48.193500   32.565400   78.793100
  H    -48.652200   30.945200   79.145800
  H    -43.138000   31.096500   73.481800
  H    -42.791700   28.959200   81.693100

 Total Charge           Charge          ....    0
 Multiplicity           Mult            ....    1
 Number of Electrons    NEL             ....  134
 Basis Dimension        Dim             ....  322

ORBITAL ENERGIES
----------------

  NO   OCC          E(Eh)            E(eV)
   0   2.0000     -88.971568     -2421.0394
   1   2.0000     -88.962618     -2420.7959
   2   2.0000     -10.330184      -281.0986
   3   2.0000     -10.327164      -281.0164
   4   2.0000     -10.317597      -280.7561
   5   2.0000     -10.315056      -280.6869
   6   2.0000     -10.303483      -280.3720
   7   2.0000     -10.300446      -280.2894
   8   2.0000     -10.292311      -280.0680
   9   2.0000     -10.291858      -280.0557
  10   2.0000     -10.287436      -279.9354
  11   2.0000     -10.285180      -279.8740
  12   2.0000     -10.282025      -279.7881
  13   2.0000     -10.281268      -279.7675
  14   2.0000     -10.277580      -279.6672
  15   2.0000     -10.276573      -279.6398
  16   2.0000      -8.086369      -220.0413
  17   2.0000      -8.077015      -219.7868
  18   2.0000      -6.044823      -164.4880
  19   2.0000      -6.040828      -164.3793
  20   2.0000      -6.037256      -164.2821
  21   2.0000      -6.035682      -164.2393
  22   2.0000      -6.031551      -164.1269
  23   2.0000      -6.027641      -164.0205
  24   2.0000      -1.012250       -27.5447
  25   2.0000      -0.987387       -26.8682
  26   2.0000      -0.917942       -24.9785
  27   2.0000      -0.909141       -24.7390
  28   2.0000      -0.869804       -23.6686
  29   2.0000      -0.857242       -23.3267
  30   2.0000      -0.849737       -23.1225
  31   2.0000      -0.808442       -21.9988
  32   2.0000      -0.785991       -21.3879
  33   2.0000      -0.774318       -21.0703
  34   2.0000      -0.709835       -19.3156
  35   2.0000      -0.705030       -19.1848
  36   2.0000      -0.694972       -18.9112
  37   2.0000      -0.671104       -18.2617
  38   2.0000      -0.636751       -17.3269
  39   2.0000      -0.619945       -16.8696
  40   2.0000      -0.601139       -16.3578
  41   2.0000      -0.571889       -15.5619
  42   2.0000      -0.565965       -15.4007
  43   2.0000      -0.561537       -15.2802
  44   2.0000      -0.530090       -14.4245
  45   2.0000      -0.520027       -14.1507
  46   2.0000      -0.518788       -14.1169
  47   2.0000      -0.514412       -13.9979
  48   2.0000      -0.507375       -13.8064
  49   2.0000      -0.503172       -13.6920
  50   2.0000      -0.492591       -13.4041
  51   2.0000      -0.479473       -13.0471
  52   2.0000      -0.472349       -12.8533
  53   2.0000      -0.465265       -12.6605
  54   2.0000      -0.459837       -12.5128
  55   2.0000      -0.456736       -12.4284
  56   2.0000      -0.444787       -12.1033
  57   2.0000      -0.435328       -11.8459
  58   2.0000      -0.430015       -11.7013
  59   2.0000      -0.427224       -11.6254
  60   2.0000      -0.418871       -11.3981
  61   2.0000      -0.414608       -11.2821
  62   2.0000      -0.410454       -11.1690
  63   2.0000      -0.358098        -9.7444
  64   2.0000      -0.337590        -9.1863
  65   2.0000      -0.328128        -8.9288
  66   2.0000      -0.282168        -7.6782
  67   0.0000       0.020396         0.5550
  68   0.0000       0.084229         2.2920
  69   0.0000       0.106258         2.8914
  70   0.0000       0.119285         3.2459
  71   0.0000       0.130550         3.5524

MULLIKEN ATOMIC CHARGES
-----------------------
   0 S :    0.105637
   1 C :   -0.129376
   2 C :   -0.043747
   3 C :   -0.016687
   4 C :   -0.090147
   5 H :    0.008321
   6 C :    0.045452
   7 H :    0.024973
   8 H :   -0.001532
   9 C :   -0.026130
  10 H :    0.025301
  11 H :    0.016755
  12 C :   -0.059854
  13 H :    0.050891
  14 H :    0.024430
  15 H :    0.035699
  16 S :    0.073553
  17 C :   -0.087723
  18 C :   -0.050204
  19 C :   -0.046692
  20 C :   -0.132228
  21 H :    0.011711
  22 C :    0.049951
  23 H :    0.016018
  24 H :    0.021335
  25 C :   -0.042685
  26 H :   -0.001138
  27 H :    0.023822
  28 C :   -0.009321
  29 H :    0.028071
  30 H :    0.043375
  31 H :    0.010551
  32 H :    0.047162
  33 H :    0.074457
Sum of atomic charges:    0.0000000

LOEWDIN ATOMIC CHARGES
----------------------
   0 S :    0.434060
   1 C :   -0.198431
   2 C :   -0.061577
   3 C :   -0.069627
   4 C :   -0.208402
   5 H :    0.019740
   6 C :   -0.040182
   7 H :    0.034146
   8 H :    0.026485
   9 C :   -0.030868
  10 H :    0.021774
  11 H :    0.017029
  12 C :   -0.065968
  13 H :    0.034908
  14 H :    0.017290
  15 H :    0.031663
  16 S :    0.401854
  17 C :   -0.202789
  18 C :   -0.069579
  19 C :   -0.061244
  20 C :   -0.168247
  21 H :    0.027012
  22 C :   -0.034718
  23 H :    0.029750
  24 H :    0.019030
  25 C :   -0.027510
  26 H :    0.005108
  27 H :    0.032202
  28 C :   -0.067522
  29 H :    0.026459
  30 H :    0.036830
  31 H :    0.019867
  32 H :    0.028613
  33 H :    0.042845

  Mayer bond orders larger than 0.100000
B(  0-S ,  1-C ) :   1.1519 B(  0-S ,  4-C ) :   1.1557 B(  1-C ,  2-C ) :   1.5815
B(  1-C , 32-H ) :   0.9657 B(  2-C ,  3-C ) :   1.2852 B(  2-C ,  6-C ) :   1.0145
B(  3-C ,  4-C ) :   1.5074 B(  3-C ,  5-H ) :   0.9963 B(  4-C , 20-C ) :   1.0643
B(  6-C ,  7-H ) :   0.9453 B(  6-C ,  8-H ) :   0.9296 B(  6-C ,  9-C ) :   1.0550
B(  9-C , 10-H ) :   0.9584 B(  9-C , 11-H ) :   0.9544 B(  9-C , 12-C ) :   1.0831
B( 12-C , 13-H ) :   0.9752 B( 12-C , 14-H ) :   0.9760 B( 12-C , 15-H ) :   0.9729
B( 16-S , 17-C ) :   1.1423 B( 16-S , 20-C ) :   1.1352 B( 17-C , 18-C ) :   1.6237
B( 17-C , 33-H ) :   0.9594 B( 18-C , 19-C ) :   1.2244 B( 18-C , 21-H ) :   0.9886
B( 19-C , 20-C ) :   1.5705 B( 19-C , 22-C ) :   1.0788 B( 22-C , 23-H ) :   0.9321
B( 22-C , 24-H ) :   0.9243 B( 22-C , 25-C ) :   1.0527 B( 25-C , 26-H ) :   0.9549
B( 25-C , 27-H ) :   0.9514 B( 25-C , 28-C ) :   1.0819 B( 28-C , 29-H ) :   0.9710
B( 28-C , 30-H ) :   0.9700 B( 28-C , 31-H ) :   0.9691

Dispersion correction           -0.013736692
FINAL SINGLE POINT ENERGY     -1339.868277903898

DIPOLE MOMENT
-------------
                                X             Y             Z
Electronic contribution:     -0.75488     -10.89499       6.50121
Nuclear contribution   :      0.66826      11.16186      -6.49013
                        -----------------------------------------
Total Dipole Moment    :     -0.08662       0.26687       0.01108
                        -----------------------------------------
Magnitude (a.u.)       :      0.28079
Magnitude (Debye)      :      0.71372

Rotational constants in cm-1:     0.022463     0.007577     0.006081
Rotational constants in MHz :   673.415106   227.141425   182.314944

                             ****ORCA TERMINATED NORMALLY****
TOTAL RUN TIME: 0 days 0 hours 0 minutes 27 seconds 711 msec
