                         Program Version 4.2.1 -  RELEASE  -
|  1> ! wB97X-D3 SP def2-SVP
|  2> %pal
|  3> nprocs 16
|  4> end
|  5>
|  6> * xyz 0 1
|  7> S 	 -0.70651 	 -22.3941 	 58.7491
|  8> C 	 -1.42882 	 -22.4544 	 57.1147
|  9> C 	 -2.11763 	 -21.2962 	 56.8492
| 10> C 	 -2.07375 	 -20.3597 	 57.9115
| 11> C 	 -1.23766 	 -20.7164 	 58.9551
| 12> H 	 -2.56208 	 -19.3824 	 57.9071
| 13> C 	 -2.88192 	 -21.0848 	 55.5212
| 14> H 	 -2.17034 	 -21.4367 	 54.8091
| 15> H 	 -2.95948 	 -19.9955 	 55.3478
| 16> C 	 -4.19632 	 -21.8341 	 55.3161
| 17> H 	 -4.52825 	 -21.6708 	 54.2719
| 18> H 	 -4.12047 	 -22.9141 	 55.5083
| 19> C 	 -5.31815 	 -21.1965 	 56.1976
| 20> H 	 -6.21684 	 -21.7372 	 56.045
| 21> H 	 -5.03768 	 -21.3993 	 57.2557
| 22> H 	 -5.53004 	 -20.2047 	 55.9358
| 23> S 	 -1.94433 	 -20.6186 	 61.5886
| 24> C 	 -1.77598 	 -19.1712 	 62.4899
| 25> C 	 -1.04507 	 -18.2211 	 61.7923
| 26> C 	 -0.850437 	 -18.5691 	 60.4398
| 27> C 	 -1.13969 	 -19.9498 	 60.1894
| 28> H 	 -0.692623 	 -17.3973 	 62.3527
| 29> C 	 -0.0850601 	 -17.6704 	 59.5014
| 30> H 	 -0.0334875 	 -18.2183 	 58.5646
| 31> H 	 0.961077 	 -17.6614 	 59.7639
| 32> C 	 -0.55332 	 -16.2807 	 59.368
| 33> H 	 0.0370463 	 -15.6774 	 58.7126
| 34> H 	 -0.610543 	 -15.8387 	 60.3599
| 35> C 	 -1.98102 	 -16.319 	 58.8015
| 36> H 	 -2.39496 	 -15.2858 	 58.6447
| 37> H 	 -2.72556 	 -16.8864 	 59.3986
| 38> H 	 -2.01149 	 -16.8407 	 57.8629
| 39> H 	 -1.48189 	 -23.2983 	 56.4075
| 40> H 	 -1.92416 	 -19.1359 	 63.506
| 41> *
| 42>
| 43>                          ****END OF INPUT****

CARTESIAN COORDINATES (ANGSTROEM)
---------------------------------
  S     -0.706510  -22.394100   58.749100
  C     -1.428820  -22.454400   57.114700
  C     -2.117630  -21.296200   56.849200
  C     -2.073750  -20.359700   57.911500
  C     -1.237660  -20.716400   58.955100
  H     -2.562080  -19.382400   57.907100
  C     -2.881920  -21.084800   55.521200
  H     -2.170340  -21.436700   54.809100
  H     -2.959480  -19.995500   55.347800
  C     -4.196320  -21.834100   55.316100
  H     -4.528250  -21.670800   54.271900
  H     -4.120470  -22.914100   55.508300
  C     -5.318150  -21.196500   56.197600
  H     -6.216840  -21.737200   56.045000
  H     -5.037680  -21.399300   57.255700
  H     -5.530040  -20.204700   55.935800
  S     -1.944330  -20.618600   61.588600
  C     -1.775980  -19.171200   62.489900
  C     -1.045070  -18.221100   61.792300
  C     -0.850437  -18.569100   60.439800
  C     -1.139690  -19.949800   60.189400
  H     -0.692623  -17.397300   62.352700
  C     -0.085060  -17.670400   59.501400
  H     -0.033487  -18.218300   58.564600
  H      0.961077  -17.661400   59.763900
  C     -0.553320  -16.280700   59.368000
  H      0.037046  -15.677400   58.712600
  H     -0.610543  -15.838700   60.359900
  C     -1.981020  -16.319000   58.801500
  H     -2.394960  -15.285800   58.644700
  H     -2.725560  -16.886400   59.398600
  H     -2.011490  -16.840700   57.862900
  H     -1.481890  -23.298300   56.407500
  H     -1.924160  -19.135900   63.506000

 Total Charge           Charge          ....    0
 Multiplicity           Mult            ....    1
 Number of Electrons    NEL             ....  134
 Basis Dimension        Dim             ....  322

ORBITAL ENERGIES
----------------

  NO   OCC          E(Eh)            E(eV)
   0   2.0000     -88.969790     -2420.9911
   1   2.0000     -88.964495     -2420.8470
   2   2.0000     -10.331072      -281.1228
   3   2.0000     -10.329263      -281.0735
   4   2.0000     -10.317763      -280.7606
   5   2.0000     -10.308439      -280.5069
   6   2.0000     -10.307000      -280.4677
   7   2.0000     -10.299577      -280.2657
   8   2.0000     -10.293590      -280.1028
   9   2.0000     -10.292007      -280.0597
  10   2.0000     -10.291931      -280.0577
  11   2.0000     -10.290062      -280.0068
  12   2.0000     -10.281408      -279.7713
  13   2.0000     -10.280877      -279.7569
  14   2.0000     -10.275616      -279.6137
  15   2.0000     -10.270821      -279.4832
  16   2.0000      -8.083250      -219.9564
  17   2.0000      -8.079996      -219.8679
  18   2.0000      -6.041898      -164.4084
  19   2.0000      -6.038316      -164.3109
  20   2.0000      -6.038007      -164.3025
  21   2.0000      -6.034251      -164.2003
  22   2.0000      -6.033853      -164.1895
  23   2.0000      -6.031041      -164.1130
  24   2.0000      -1.006392       -27.3853
  25   2.0000      -0.983689       -26.7675
  26   2.0000      -0.920399       -25.0453
  27   2.0000      -0.908898       -24.7324
  28   2.0000      -0.869744       -23.6669
  29   2.0000      -0.848158       -23.0795
  30   2.0000      -0.843203       -22.9447
  31   2.0000      -0.814187       -22.1552
  32   2.0000      -0.783486       -21.3197
  33   2.0000      -0.772868       -21.0308
  34   2.0000      -0.709749       -19.3132
  35   2.0000      -0.702334       -19.1115
  36   2.0000      -0.698137       -18.9973
  37   2.0000      -0.655452       -17.8358
  38   2.0000      -0.633967       -17.2511
  39   2.0000      -0.617775       -16.8105
  40   2.0000      -0.601817       -16.3763
  41   2.0000      -0.577003       -15.7011
  42   2.0000      -0.556647       -15.1471
  43   2.0000      -0.549800       -14.9608
  44   2.0000      -0.546792       -14.8790
  45   2.0000      -0.540250       -14.7010
  46   2.0000      -0.520987       -14.1768
  47   2.0000      -0.513231       -13.9657
  48   2.0000      -0.504332       -13.7236
  49   2.0000      -0.497355       -13.5337
  50   2.0000      -0.485481       -13.2106
  51   2.0000      -0.475873       -12.9492
  52   2.0000      -0.466867       -12.7041
  53   2.0000      -0.465543       -12.6681
  54   2.0000      -0.456510       -12.4223
  55   2.0000      -0.449115       -12.2210
  56   2.0000      -0.444687       -12.1005
  57   2.0000      -0.438785       -11.9399
  58   2.0000      -0.432044       -11.7565
  59   2.0000      -0.425726       -11.5846
  60   2.0000      -0.419330       -11.4105
  61   2.0000      -0.417491       -11.3605
  62   2.0000      -0.412010       -11.2114
  63   2.0000      -0.343508        -9.3473
  64   2.0000      -0.331938        -9.0325
  65   2.0000      -0.327678        -8.9166
  66   2.0000      -0.294223        -8.0062
  67   0.0000       0.028156         0.7662
  68   0.0000       0.062369         1.6972
  69   0.0000       0.111877         3.0443
  70   0.0000       0.116560         3.1718
  71   0.0000       0.129295         3.5183

MULLIKEN ATOMIC CHARGES
-----------------------
   0 S :    0.104864
   1 C :   -0.123678
   2 C :   -0.105920
   3 C :    0.037856
   4 C :   -0.155330
   5 H :    0.012438
   6 C :    0.072739
   7 H :    0.022927
   8 H :    0.024316
   9 C :   -0.077211
  10 H :    0.033492
  11 H :    0.035323
  12 C :   -0.037620
  13 H :    0.018535
  14 H :    0.047476
  15 H :    0.023728
  16 S :    0.112484
  17 C :   -0.066522
  18 C :   -0.031405
  19 C :   -0.061687
  20 C :   -0.142889
  21 H :    0.014461
  22 C :    0.068522
  23 H :    0.011856
  24 H :    0.031759
  25 C :   -0.021004
  26 H :    0.028989
  27 H :    0.028156
  28 C :   -0.093851
  29 H :    0.036143
  30 H :    0.046933
  31 H :    0.019641
  32 H :    0.053751
  33 H :    0.030729
Sum of atomic charges:    0.0000000

LOEWDIN ATOMIC CHARGES
----------------------
   0 S :    0.384800
   1 C :   -0.191212
   2 C :   -0.067047
   3 C :   -0.059124
   4 C :   -0.196391
   5 H :    0.033562
   6 C :   -0.032280
   7 H :    0.028592
   8 H :    0.031897
   9 C :   -0.037346
  10 H :    0.026640
  11 H :    0.025472
  12 C :   -0.060661
  13 H :    0.019818
  14 H :    0.033253
  15 H :    0.016636
  16 S :    0.432824
  17 C :   -0.184035
  18 C :   -0.066092
  19 C :   -0.049848
  20 C :   -0.204565
  21 H :    0.027877
  22 C :   -0.038275
  23 H :    0.028672
  24 H :    0.033655
  25 C :   -0.035990
  26 H :    0.025810
  27 H :    0.024691
  28 C :   -0.070704
  29 H :    0.027427
  30 H :    0.028287
  31 H :    0.016673
  32 H :    0.035682
  33 H :    0.011303

  Mayer bond orders larger than 0.100000
B(  0-S ,  1-C ) :   1.1245 B(  0-S ,  4-C ) :   1.1402 B(  1-C ,  2-C ) :   1.6272
B(  1-C , 32-H ) :   0.9621 B(  2-C ,  3-C ) :   1.2512 B(  2-C ,  6-C ) :   0.9991
B(  3-C ,  4-C ) :   1.5609 B(  3-C ,  5-H ) :   0.9908 B(  4-C , 20-C ) :   1.0274
B(  6-C ,  7-H ) :   0.9371 B(  6-C ,  8-H ) :   0.9448 B(  6-C ,  9-C ) :   1.0759
B(  9-C , 10-H ) :   0.9545 B(  9-C , 11-H ) :   0.9573 B(  9-C , 12-C ) :   1.0774
B( 12-C , 13-H ) :   0.9734 B( 12-C , 14-H ) :   0.9775 B( 12-C , 15-H ) :   0.9768
B( 16-S , 17-C ) :   1.1880 B( 16-S , 20-C ) :   1.1662 B( 17-C , 18-C ) :   1.5804
B( 17-C , 20-C ) :   0.1088 B( 17-C , 33-H ) :   0.9714 B( 18-C , 19-C ) :   1.2532
B( 18-C , 21-H ) :   0.9967 B( 19-C , 20-C ) :   1.5448 B( 19-C , 22-C ) :   1.0432
B( 22-C , 23-H ) :   0.9334 B( 22-C , 24-H ) :   0.9327 B( 22-C , 25-C ) :   1.0800
B( 25-C , 26-H ) :   0.9508 B( 25-C , 27-H ) :   0.9507 B( 25-C , 28-C ) :   1.0766
B( 28-C , 29-H ) :   0.9726 B( 28-C , 30-H ) :   0.9713 B( 28-C , 31-H ) :   0.9715

Dispersion correction           -0.015050487
FINAL SINGLE POINT ENERGY     -1339.875100347115

DIPOLE MOMENT
-------------
                                X             Y             Z
Electronic contribution:     10.80959     -15.30625      17.12598
Nuclear contribution   :    -10.97255      15.71509     -17.46198
                        -----------------------------------------
Total Dipole Moment    :     -0.16296       0.40884      -0.33600
                        -----------------------------------------
Magnitude (a.u.)       :      0.55372
Magnitude (Debye)      :      1.40744

Rotational constants in cm-1:     0.018707     0.008855     0.007419
Rotational constants in MHz :   560.822516   265.479973   222.405557

                             ****ORCA TERMINATED NORMALLY****
TOTAL RUN TIME: 0 days 0 hours 0 minutes 36 seconds 470 msec
