                         Program Version 4.2.1 -  RELEASE  -
|  1> ! wB97X-D3 SP def2-SVP
|  2> %pal
|  3> nprocs 16
|  4> end
|  5>
|  6> * xyz 0 1
|  7> S 	 -54.7421 	 55.2406 	 137.199
|  8> C 	 -53.41 	 55.4405 	 136.084
|  9> C 	 -53.7166 	 56.391 	 135.097
| 10> C 	 -55.1124 	 56.7559 	 135.168
| 11> C 	 -55.8165 	 56.1991 	 136.198
| 12> H 	 -55.6902 	 57.3022 	 134.45
| 13> C 	 -52.7926 	 56.8535 	 133.956
| 14> H 	 -52.9792 	 56.1908 	 133.079
| 15> H 	 -51.7897 	 56.6691 	 134.256
| 16> C 	 -53.1399 	 58.2696 	 133.476
| 17> H 	 -54.0932 	 58.246 	 132.997
| 18> H 	 -53.2357 	 58.9685 	 134.257
| 19> C 	 -52.0485 	 58.6544 	 132.43
| 20> H 	 -51.6403 	 57.7968 	 131.946
| 21> H 	 -52.4186 	 59.331 	 131.696
| 22> H 	 -51.193 	 59.2068 	 132.839
| 23> S 	 -58.1109 	 55.3402 	 134.989
| 24> C 	 -59.6622 	 55.8304 	 135.645
| 25> C 	 -59.391 	 56.7024 	 136.717
| 26> C 	 -58.0419 	 57.0006 	 137.029
| 27> C 	 -57.2255 	 56.1693 	 136.303
| 28> H 	 -60.2619 	 57.1608 	 137.187
| 29> C 	 -57.6756 	 58.0558 	 138.086
| 30> H 	 -58.3737 	 58.888 	 137.925
| 31> H 	 -56.678 	 58.5754 	 137.843
| 32> C 	 -57.7869 	 57.4839 	 139.469
| 33> H 	 -57.0931 	 58.0188 	 140.12
| 34> H 	 -57.5546 	 56.4272 	 139.512
| 35> C 	 -59.2168 	 57.6225 	 140.044
| 36> H 	 -59.9913 	 57.1931 	 139.362
| 37> H 	 -59.6774 	 58.6496 	 140.022
| 38> H 	 -59.353 	 57.2125 	 141.015
| 39> H 	 -52.4944 	 55.0306 	 136.153
| 40> H 	 -60.6233 	 55.6277 	 135.132
| 41> *
| 42>
| 43>                          ****END OF INPUT****

CARTESIAN COORDINATES (ANGSTROEM)
---------------------------------
  S    -54.742100   55.240600  137.199000
  C    -53.410000   55.440500  136.084000
  C    -53.716600   56.391000  135.097000
  C    -55.112400   56.755900  135.168000
  C    -55.816500   56.199100  136.198000
  H    -55.690200   57.302200  134.450000
  C    -52.792600   56.853500  133.956000
  H    -52.979200   56.190800  133.079000
  H    -51.789700   56.669100  134.256000
  C    -53.139900   58.269600  133.476000
  H    -54.093200   58.246000  132.997000
  H    -53.235700   58.968500  134.257000
  C    -52.048500   58.654400  132.430000
  H    -51.640300   57.796800  131.946000
  H    -52.418600   59.331000  131.696000
  H    -51.193000   59.206800  132.839000
  S    -58.110900   55.340200  134.989000
  C    -59.662200   55.830400  135.645000
  C    -59.391000   56.702400  136.717000
  C    -58.041900   57.000600  137.029000
  C    -57.225500   56.169300  136.303000
  H    -60.261900   57.160800  137.187000
  C    -57.675600   58.055800  138.086000
  H    -58.373700   58.888000  137.925000
  H    -56.678000   58.575400  137.843000
  C    -57.786900   57.483900  139.469000
  H    -57.093100   58.018800  140.120000
  H    -57.554600   56.427200  139.512000
  C    -59.216800   57.622500  140.044000
  H    -59.991300   57.193100  139.362000
  H    -59.677400   58.649600  140.022000
  H    -59.353000   57.212500  141.015000
  H    -52.494400   55.030600  136.153000
  H    -60.623300   55.627700  135.132000

 Total Charge           Charge          ....    0
 Multiplicity           Mult            ....    1
 Number of Electrons    NEL             ....  134
 Basis Dimension        Dim             ....  322

ORBITAL ENERGIES
----------------

  NO   OCC          E(Eh)            E(eV)
   0   2.0000     -88.963473     -2420.8192
   1   2.0000     -88.961884     -2420.7759
   2   2.0000     -10.323768      -280.9240
   3   2.0000     -10.321361      -280.8585
   4   2.0000     -10.317828      -280.7624
   5   2.0000     -10.307220      -280.4737
   6   2.0000     -10.303661      -280.3769
   7   2.0000     -10.302241      -280.3382
   8   2.0000     -10.300476      -280.2902
   9   2.0000     -10.295040      -280.1423
  10   2.0000     -10.293852      -280.1100
  11   2.0000     -10.288895      -279.9751
  12   2.0000     -10.286875      -279.9201
  13   2.0000     -10.283891      -279.8389
  14   2.0000     -10.279476      -279.7188
  15   2.0000     -10.274065      -279.5715
  16   2.0000      -8.077611      -219.8030
  17   2.0000      -8.076611      -219.7758
  18   2.0000      -6.036146      -164.2519
  19   2.0000      -6.035186      -164.2258
  20   2.0000      -6.032192      -164.1443
  21   2.0000      -6.031028      -164.1126
  22   2.0000      -6.028369      -164.0403
  23   2.0000      -6.027399      -164.0139
  24   2.0000      -1.005572       -27.3630
  25   2.0000      -0.979484       -26.6531
  26   2.0000      -0.911884       -24.8136
  27   2.0000      -0.911186       -24.7946
  28   2.0000      -0.872252       -23.7352
  29   2.0000      -0.845113       -22.9967
  30   2.0000      -0.842185       -22.9170
  31   2.0000      -0.807742       -21.9798
  32   2.0000      -0.783194       -21.3118
  33   2.0000      -0.771842       -21.0029
  34   2.0000      -0.717452       -19.5229
  35   2.0000      -0.704212       -19.1626
  36   2.0000      -0.694557       -18.8999
  37   2.0000      -0.663100       -18.0439
  38   2.0000      -0.643485       -17.5101
  39   2.0000      -0.613631       -16.6977
  40   2.0000      -0.599922       -16.3247
  41   2.0000      -0.572403       -15.5759
  42   2.0000      -0.560039       -15.2394
  43   2.0000      -0.548207       -14.9175
  44   2.0000      -0.539986       -14.6938
  45   2.0000      -0.528016       -14.3680
  46   2.0000      -0.521788       -14.1986
  47   2.0000      -0.507241       -13.8027
  48   2.0000      -0.503838       -13.7101
  49   2.0000      -0.494849       -13.4655
  50   2.0000      -0.488093       -13.2817
  51   2.0000      -0.478878       -13.0309
  52   2.0000      -0.469406       -12.7732
  53   2.0000      -0.468865       -12.7585
  54   2.0000      -0.458860       -12.4862
  55   2.0000      -0.447987       -12.1903
  56   2.0000      -0.446525       -12.1506
  57   2.0000      -0.442363       -12.0373
  58   2.0000      -0.428478       -11.6595
  59   2.0000      -0.426469       -11.6048
  60   2.0000      -0.417783       -11.3684
  61   2.0000      -0.411781       -11.2051
  62   2.0000      -0.410453       -11.1690
  63   2.0000      -0.335948        -9.1416
  64   2.0000      -0.325753        -8.8642
  65   2.0000      -0.323104        -8.7921
  66   2.0000      -0.302138        -8.2216
  67   0.0000       0.040288         1.0963
  68   0.0000       0.051556         1.4029
  69   0.0000       0.102285         2.7833
  70   0.0000       0.126653         3.4464
  71   0.0000       0.133778         3.6403

MULLIKEN ATOMIC CHARGES
-----------------------
   0 S :    0.109211
   1 C :   -0.072523
   2 C :   -0.089175
   3 C :    0.017033
   4 C :   -0.166838
   5 H :    0.005065
   6 C :    0.063086
   7 H :    0.048685
   8 H :    0.016088
   9 C :   -0.072008
  10 H :    0.033070
  11 H :    0.026507
  12 C :   -0.022613
  13 H :    0.022441
  14 H :    0.020446
  15 H :    0.032084
  16 S :    0.102834
  17 C :   -0.113461
  18 C :   -0.045547
  19 C :   -0.013045
  20 C :   -0.181573
  21 H :    0.020552
  22 C :    0.044187
  23 H :    0.028082
  24 H :    0.049679
  25 C :   -0.010845
  26 H :    0.034330
  27 H :    0.040419
  28 C :   -0.077514
  29 H :    0.018335
  30 H :    0.022175
  31 H :    0.036625
  32 H :   -0.004536
  33 H :    0.078745
Sum of atomic charges:   -0.0000000

LOEWDIN ATOMIC CHARGES
----------------------
   0 S :    0.401863
   1 C :   -0.179564
   2 C :   -0.057464
   3 C :   -0.060455
   4 C :   -0.203741
   5 H :    0.025712
   6 C :   -0.027623
   7 H :    0.040603
   8 H :    0.022247
   9 C :   -0.030115
  10 H :    0.022990
  11 H :    0.018708
  12 C :   -0.060372
  13 H :    0.020905
  14 H :    0.020854
  15 H :    0.028865
  16 S :    0.394305
  17 C :   -0.192586
  18 C :   -0.076448
  19 C :   -0.047262
  20 C :   -0.193423
  21 H :    0.025327
  22 C :   -0.032198
  23 H :    0.032798
  24 H :    0.042756
  25 C :   -0.036102
  26 H :    0.027499
  27 H :    0.029792
  28 C :   -0.074922
  29 H :    0.026308
  30 H :    0.027085
  31 H :    0.020710
  32 H :    0.002826
  33 H :    0.040124

  Mayer bond orders larger than 0.100000
B(  0-S ,  1-C ) :   1.1445 B(  0-S ,  4-C ) :   1.1314 B(  1-C ,  2-C ) :   1.6127
B(  1-C , 32-H ) :   0.9839 B(  2-C ,  3-C ) :   1.2094 B(  2-C ,  6-C ) :   1.0206
B(  3-C ,  4-C ) :   1.6131 B(  3-C ,  5-H ) :   0.9955 B(  4-C , 20-C ) :   1.0335
B(  6-C ,  7-H ) :   0.9323 B(  6-C ,  8-H ) :   0.9481 B(  6-C ,  9-C ) :   1.0693
B(  9-C , 10-H ) :   0.9475 B(  9-C , 11-H ) :   0.9672 B(  9-C , 12-C ) :   1.0744
B( 12-C , 13-H ) :   0.9739 B( 12-C , 14-H ) :   0.9746 B( 12-C , 15-H ) :   0.9757
B( 16-S , 17-C ) :   1.1542 B( 16-S , 20-C ) :   1.1407 B( 17-C , 18-C ) :   1.5921
B( 17-C , 20-C ) :   0.1063 B( 17-C , 33-H ) :   0.9664 B( 18-C , 19-C ) :   1.2528
B( 18-C , 21-H ) :   0.9772 B( 19-C , 20-C ) :   1.5887 B( 19-C , 22-C ) :   1.0430
B( 22-C , 23-H ) :   0.9380 B( 22-C , 24-H ) :   0.9355 B( 22-C , 25-C ) :   1.0473
B( 25-C , 26-H ) :   0.9545 B( 25-C , 27-H ) :   0.9558 B( 25-C , 28-C ) :   1.0758
B( 28-C , 29-H ) :   0.9682 B( 28-C , 30-H ) :   0.9731 B( 28-C , 31-H ) :   0.9741

Dispersion correction           -0.014217093
FINAL SINGLE POINT ENERGY     -1339.861923090475

DIPOLE MOMENT
-------------
                                X             Y             Z
Electronic contribution:     -5.17971     -16.51922      -0.00354
Nuclear contribution   :      5.18805      17.06204      -0.22540
                        -----------------------------------------
Total Dipole Moment    :      0.00834       0.54282      -0.22894
                        -----------------------------------------
Magnitude (a.u.)       :      0.58919
Magnitude (Debye)      :      1.49759

Rotational constants in cm-1:     0.021327     0.007343     0.006809
Rotational constants in MHz :   639.356113   220.136425   204.120715

                             ****ORCA TERMINATED NORMALLY****
TOTAL RUN TIME: 0 days 0 hours 0 minutes 36 seconds 487 msec
