                         Program Version 4.2.1 -  RELEASE  -
|  1> ! wB97X-D3 SP def2-SVP
|  2> %pal
|  3> nprocs 16
|  4> end
|  5>
|  6> * xyz 0 1
|  7> S 	 -0.162689 	 -13.5677 	 78.706
|  8> C 	 -0.228944 	 -14.1443 	 80.4019
|  9> C 	 0.96816 	 -13.8507 	 81.0111
| 10> C 	 1.96223 	 -13.2778 	 80.1585
| 11> C 	 1.55651 	 -13.1918 	 78.8412
| 12> H 	 2.94906 	 -12.9466 	 80.4851
| 13> C 	 1.19419 	 -14.0651 	 82.5022
| 14> H 	 2.28233 	 -13.8006 	 82.6355
| 15> H 	 1.25622 	 -15.1345 	 82.825
| 16> C 	 0.278216 	 -13.3346 	 83.5093
| 17> H 	 0.193621 	 -12.3428 	 83.1703
| 18> H 	 -0.729961 	 -13.7779 	 83.6531
| 19> C 	 0.960887 	 -13.2856 	 84.9089
| 20> H 	 1.13712 	 -14.2831 	 85.4152
| 21> H 	 1.89649 	 -12.7406 	 84.9944
| 22> H 	 0.329349 	 -12.7277 	 85.622
| 23> S 	 1.68234 	 -10.993 	 77.1765
| 24> C 	 3.13425 	 -10.8006 	 76.2002
| 25> C 	 4.10385 	 -11.6519 	 76.6435
| 26> C 	 3.70298 	 -12.6368 	 77.51
| 27> C 	 2.34431 	 -12.5041 	 77.8182
| 28> H 	 5.10113 	 -11.4676 	 76.2502
| 29> C 	 4.67614 	 -13.7622 	 77.768
| 30> H 	 5.06308 	 -14.0622 	 76.709
| 31> H 	 4.05142 	 -14.6684 	 78.1275
| 32> C 	 5.74332 	 -13.6172 	 78.7498
| 33> H 	 5.34337 	 -13.2213 	 79.6756
| 34> H 	 6.46653 	 -12.8962 	 78.392
| 35> C 	 6.4206 	 -14.9387 	 78.9727
| 36> H 	 6.93487 	 -15.2841 	 78.1514
| 37> H 	 5.65538 	 -15.6186 	 79.3521
| 38> H 	 7.06425 	 -14.8338 	 79.7486
| 39> H 	 -1.10825 	 -14.5693 	 80.8924
| 40> H 	 3.27426 	 -10.1669 	 75.3921
| 41> *
| 42>
| 43>                          ****END OF INPUT****

CARTESIAN COORDINATES (ANGSTROEM)
---------------------------------
  S     -0.162689  -13.567700   78.706000
  C     -0.228944  -14.144300   80.401900
  C      0.968160  -13.850700   81.011100
  C      1.962230  -13.277800   80.158500
  C      1.556510  -13.191800   78.841200
  H      2.949060  -12.946600   80.485100
  C      1.194190  -14.065100   82.502200
  H      2.282330  -13.800600   82.635500
  H      1.256220  -15.134500   82.825000
  C      0.278216  -13.334600   83.509300
  H      0.193621  -12.342800   83.170300
  H     -0.729961  -13.777900   83.653100
  C      0.960887  -13.285600   84.908900
  H      1.137120  -14.283100   85.415200
  H      1.896490  -12.740600   84.994400
  H      0.329349  -12.727700   85.622000
  S      1.682340  -10.993000   77.176500
  C      3.134250  -10.800600   76.200200
  C      4.103850  -11.651900   76.643500
  C      3.702980  -12.636800   77.510000
  C      2.344310  -12.504100   77.818200
  H      5.101130  -11.467600   76.250200
  C      4.676140  -13.762200   77.768000
  H      5.063080  -14.062200   76.709000
  H      4.051420  -14.668400   78.127500
  C      5.743320  -13.617200   78.749800
  H      5.343370  -13.221300   79.675600
  H      6.466530  -12.896200   78.392000
  C      6.420600  -14.938700   78.972700
  H      6.934870  -15.284100   78.151400
  H      5.655380  -15.618600   79.352100
  H      7.064250  -14.833800   79.748600
  H     -1.108250  -14.569300   80.892400
  H      3.274260  -10.166900   75.392100

 Total Charge           Charge          ....    0
 Multiplicity           Mult            ....    1
 Number of Electrons    NEL             ....  134
 Basis Dimension        Dim             ....  322

ORBITAL ENERGIES
----------------

  NO   OCC          E(Eh)            E(eV)
   0   2.0000     -88.967010     -2420.9154
   1   2.0000     -88.964253     -2420.8404
   2   2.0000     -10.330592      -281.1097
   3   2.0000     -10.328467      -281.0519
   4   2.0000     -10.319063      -280.7960
   5   2.0000     -10.308094      -280.4975
   6   2.0000     -10.301711      -280.3238
   7   2.0000     -10.297408      -280.2067
   8   2.0000     -10.297286      -280.2034
   9   2.0000     -10.297075      -280.1977
  10   2.0000     -10.296872      -280.1921
  11   2.0000     -10.291910      -280.0571
  12   2.0000     -10.284644      -279.8594
  13   2.0000     -10.283286      -279.8224
  14   2.0000     -10.279051      -279.7072
  15   2.0000     -10.262619      -279.2601
  16   2.0000      -8.080756      -219.8885
  17   2.0000      -8.078661      -219.8315
  18   2.0000      -6.039396      -164.3403
  19   2.0000      -6.037130      -164.2787
  20   2.0000      -6.035421      -164.2322
  21   2.0000      -6.033375      -164.1765
  22   2.0000      -6.031408      -164.1229
  23   2.0000      -6.029304      -164.0657
  24   2.0000      -1.006087       -27.3770
  25   2.0000      -0.983564       -26.7641
  26   2.0000      -0.923991       -25.1431
  27   2.0000      -0.906318       -24.6622
  28   2.0000      -0.868407       -23.6306
  29   2.0000      -0.859319       -23.3833
  30   2.0000      -0.844893       -22.9907
  31   2.0000      -0.812615       -22.1124
  32   2.0000      -0.782729       -21.2992
  33   2.0000      -0.770131       -20.9563
  34   2.0000      -0.710741       -19.3403
  35   2.0000      -0.704615       -19.1735
  36   2.0000      -0.694507       -18.8985
  37   2.0000      -0.660301       -17.9677
  38   2.0000      -0.639552       -17.4031
  39   2.0000      -0.616811       -16.7843
  40   2.0000      -0.602153       -16.3854
  41   2.0000      -0.579345       -15.7648
  42   2.0000      -0.565246       -15.3811
  43   2.0000      -0.560035       -15.2393
  44   2.0000      -0.530802       -14.4439
  45   2.0000      -0.523681       -14.2501
  46   2.0000      -0.519079       -14.1248
  47   2.0000      -0.510256       -13.8848
  48   2.0000      -0.504510       -13.7284
  49   2.0000      -0.502152       -13.6642
  50   2.0000      -0.491997       -13.3879
  51   2.0000      -0.475065       -12.9272
  52   2.0000      -0.472896       -12.8682
  53   2.0000      -0.461684       -12.5631
  54   2.0000      -0.456609       -12.4250
  55   2.0000      -0.450654       -12.2629
  56   2.0000      -0.444349       -12.0914
  57   2.0000      -0.440497       -11.9865
  58   2.0000      -0.434753       -11.8302
  59   2.0000      -0.427687       -11.6380
  60   2.0000      -0.423026       -11.5111
  61   2.0000      -0.412430       -11.2228
  62   2.0000      -0.409115       -11.1326
  63   2.0000      -0.343305        -9.3418
  64   2.0000      -0.331523        -9.0212
  65   2.0000      -0.329148        -8.9566
  66   2.0000      -0.292916        -7.9706
  67   0.0000       0.022583         0.6145
  68   0.0000       0.068174         1.8551
  69   0.0000       0.107195         2.9169
  70   0.0000       0.121626         3.3096
  71   0.0000       0.126185         3.4337

MULLIKEN ATOMIC CHARGES
-----------------------
   0 S :    0.096341
   1 C :   -0.124195
   2 C :   -0.066341
   3 C :    0.030832
   4 C :   -0.146020
   5 H :    0.015446
   6 C :    0.017643
   7 H :    0.014528
   8 H :    0.039521
   9 C :   -0.025859
  10 H :    0.027165
  11 H :    0.043003
  12 C :   -0.099641
  13 H :    0.038108
  14 H :    0.032113
  15 H :    0.029607
  16 S :    0.101646
  17 C :   -0.064855
  18 C :   -0.051674
  19 C :    0.027234
  20 C :   -0.151501
  21 H :    0.016733
  22 C :   -0.038583
  23 H :    0.046324
  24 H :    0.031052
  25 C :   -0.042945
  26 H :    0.015168
  27 H :    0.015830
  28 C :    0.045192
  29 H :    0.018599
  30 H :    0.023099
  31 H :    0.000372
  32 H :    0.058620
  33 H :    0.027438
Sum of atomic charges:    0.0000000

LOEWDIN ATOMIC CHARGES
----------------------
   0 S :    0.383987
   1 C :   -0.179932
   2 C :   -0.070007
   3 C :   -0.057200
   4 C :   -0.192915
   5 H :    0.032006
   6 C :   -0.044673
   7 H :    0.032210
   8 H :    0.035238
   9 C :   -0.034338
  10 H :    0.021219
  11 H :    0.030712
  12 C :   -0.076199
  13 H :    0.028975
  14 H :    0.022902
  15 H :    0.026520
  16 S :    0.392660
  17 C :   -0.169754
  18 C :   -0.070052
  19 C :   -0.066912
  20 C :   -0.185419
  21 H :    0.032370
  22 C :   -0.041685
  23 H :    0.041516
  24 H :    0.036218
  25 C :   -0.041323
  26 H :    0.022062
  27 H :    0.020748
  28 C :   -0.041159
  29 H :    0.017435
  30 H :    0.030089
  31 H :    0.014026
  32 H :    0.034857
  33 H :    0.015819

  Mayer bond orders larger than 0.100000
B(  0-S ,  1-C ) :   1.1236 B(  0-S ,  4-C ) :   1.1491 B(  1-C ,  2-C ) :   1.6070
B(  1-C , 32-H ) :   0.9744 B(  2-C ,  3-C ) :   1.2524 B(  2-C ,  6-C ) :   1.0161
B(  3-C ,  4-C ) :   1.5557 B(  3-C ,  5-H ) :   0.9883 B(  4-C , 20-C ) :   1.0381
B(  6-C ,  7-H ) :   0.9465 B(  6-C ,  8-H ) :   0.9382 B(  6-C ,  9-C ) :   1.0570
B(  9-C , 10-H ) :   0.9576 B(  9-C , 11-H ) :   0.9525 B(  9-C , 12-C ) :   1.0807
B( 12-C , 13-H ) :   0.9762 B( 12-C , 14-H ) :   0.9765 B( 12-C , 15-H ) :   0.9747
B( 16-S , 17-C ) :   1.1403 B( 16-S , 20-C ) :   1.1519 B( 17-C , 18-C ) :   1.6132
B( 17-C , 20-C ) :   0.1068 B( 17-C , 33-H ) :   0.9764 B( 18-C , 19-C ) :   1.2533
B( 18-C , 21-H ) :   0.9896 B( 19-C , 20-C ) :   1.5691 B( 19-C , 22-C ) :   1.0267
B( 22-C , 23-H ) :   0.9410 B( 22-C , 24-H ) :   0.9351 B( 22-C , 25-C ) :   1.0819
B( 25-C , 26-H ) :   0.9434 B( 25-C , 27-H ) :   0.9397 B( 25-C , 28-C ) :   1.1014
B( 28-C , 29-H ) :   0.9715 B( 28-C , 30-H ) :   0.9686 B( 28-C , 31-H ) :   0.9656

Dispersion correction           -0.013669877
FINAL SINGLE POINT ENERGY     -1339.856896930543

DIPOLE MOMENT
-------------
                                X             Y             Z
Electronic contribution:    -16.16591       9.78751     -22.53315
Nuclear contribution   :     16.71774      -9.84790      23.03290
                        -----------------------------------------
Total Dipole Moment    :      0.55183      -0.06039       0.49976
                        -----------------------------------------
Magnitude (a.u.)       :      0.74694
Magnitude (Debye)      :      1.89857

Rotational constants in cm-1:     0.017023     0.008331     0.006444
Rotational constants in MHz :   510.341833   249.744230   193.175778

                             ****ORCA TERMINATED NORMALLY****
TOTAL RUN TIME: 0 days 0 hours 0 minutes 35 seconds 5 msec
