                         Program Version 4.2.1 -  RELEASE  -
|  1> ! wB97X-D3 SP def2-SVP
|  2> %pal
|  3> nprocs 16
|  4> end
|  5>
|  6> * xyz 0 1
|  7> S 	 6.04072 	 26.7859 	 69.2357
|  8> C 	 4.34633 	 26.8259 	 68.722
|  9> C 	 4.34532 	 27.0442 	 67.3497
| 10> C 	 5.59905 	 27.4067 	 66.8088
| 11> C 	 6.55863 	 27.454 	 67.6578
| 12> H 	 5.83157 	 27.6845 	 65.837
| 13> C 	 3.14002 	 26.7435 	 66.4368
| 14> H 	 3.15004 	 27.3145 	 65.5492
| 15> H 	 2.21907 	 26.9835 	 66.975
| 16> C 	 3.05486 	 25.2434 	 66.0269
| 17> H 	 4.10553 	 25.0519 	 65.7643
| 18> H 	 2.85316 	 24.4466 	 66.774
| 19> C 	 2.18322 	 25.0659 	 64.7501
| 20> H 	 2.65215 	 24.2224 	 64.3106
| 21> H 	 1.16352 	 24.8052 	 65.0309
| 22> H 	 2.20676 	 25.9273 	 64.0945
| 23> S 	 8.65551 	 29.062 	 67.9982
| 24> C 	 9.96823 	 28.9494 	 66.8971
| 25> C 	 9.82106 	 27.8567 	 66.1111
| 26> C 	 8.66048 	 27.0616 	 66.2675
| 27> C 	 7.94714 	 27.6414 	 67.2738
| 28> H 	 10.5109 	 27.7212 	 65.2609
| 29> C 	 8.29495 	 25.8372 	 65.4859
| 30> H 	 7.32279 	 25.5547 	 65.9259
| 31> H 	 8.97225 	 24.9498 	 65.5433
| 32> C 	 8.17731 	 26.0944 	 63.9489
| 33> H 	 8.94804 	 26.5592 	 63.3724
| 34> H 	 7.35471 	 26.781 	 63.8486
| 35> C 	 7.70206 	 24.8083 	 63.2577
| 36> H 	 6.89827 	 24.3399 	 63.7827
| 37> H 	 8.53594 	 24.0712 	 63.2082
| 38> H 	 7.24248 	 24.9577 	 62.2782
| 39> H 	 3.46246 	 26.5756 	 69.3193
| 40> H 	 10.6745 	 29.6991 	 66.6531
| 41> *
| 42>
| 43>                          ****END OF INPUT****

CARTESIAN COORDINATES (ANGSTROEM)
---------------------------------
  S      6.040720   26.785900   69.235700
  C      4.346330   26.825900   68.722000
  C      4.345320   27.044200   67.349700
  C      5.599050   27.406700   66.808800
  C      6.558630   27.454000   67.657800
  H      5.831570   27.684500   65.837000
  C      3.140020   26.743500   66.436800
  H      3.150040   27.314500   65.549200
  H      2.219070   26.983500   66.975000
  C      3.054860   25.243400   66.026900
  H      4.105530   25.051900   65.764300
  H      2.853160   24.446600   66.774000
  C      2.183220   25.065900   64.750100
  H      2.652150   24.222400   64.310600
  H      1.163520   24.805200   65.030900
  H      2.206760   25.927300   64.094500
  S      8.655510   29.062000   67.998200
  C      9.968230   28.949400   66.897100
  C      9.821060   27.856700   66.111100
  C      8.660480   27.061600   66.267500
  C      7.947140   27.641400   67.273800
  H     10.510900   27.721200   65.260900
  C      8.294950   25.837200   65.485900
  H      7.322790   25.554700   65.925900
  H      8.972250   24.949800   65.543300
  C      8.177310   26.094400   63.948900
  H      8.948040   26.559200   63.372400
  H      7.354710   26.781000   63.848600
  C      7.702060   24.808300   63.257700
  H      6.898270   24.339900   63.782700
  H      8.535940   24.071200   63.208200
  H      7.242480   24.957700   62.278200
  H      3.462460   26.575600   69.319300
  H     10.674500   29.699100   66.653100

 Total Charge           Charge          ....    0
 Multiplicity           Mult            ....    1
 Number of Electrons    NEL             ....  134
 Basis Dimension        Dim             ....  322

ORBITAL ENERGIES
----------------

  NO   OCC          E(Eh)            E(eV)
   0   2.0000     -88.964033     -2420.8344
   1   2.0000     -88.959661     -2420.7154
   2   2.0000     -10.321519      -280.8628
   3   2.0000     -10.317131      -280.7434
   4   2.0000     -10.316454      -280.7250
   5   2.0000     -10.308582      -280.5108
   6   2.0000     -10.302909      -280.3564
   7   2.0000     -10.301913      -280.3293
   8   2.0000     -10.299616      -280.2668
   9   2.0000     -10.289611      -279.9945
  10   2.0000     -10.289581      -279.9937
  11   2.0000     -10.288861      -279.9742
  12   2.0000     -10.288784      -279.9721
  13   2.0000     -10.280149      -279.7371
  14   2.0000     -10.276971      -279.6506
  15   2.0000     -10.276577      -279.6399
  16   2.0000      -8.079846      -219.8638
  17   2.0000      -8.073854      -219.7007
  18   2.0000      -6.038217      -164.3082
  19   2.0000      -6.034226      -164.1996
  20   2.0000      -6.032545      -164.1539
  21   2.0000      -6.030637      -164.1020
  22   2.0000      -6.028685      -164.0489
  23   2.0000      -6.024183      -163.9264
  24   2.0000      -1.017713       -27.6934
  25   2.0000      -0.990920       -26.9643
  26   2.0000      -0.914549       -24.8861
  27   2.0000      -0.907080       -24.6829
  28   2.0000      -0.875921       -23.8350
  29   2.0000      -0.857812       -23.3422
  30   2.0000      -0.845853       -23.0168
  31   2.0000      -0.820073       -22.3153
  32   2.0000      -0.783347       -21.3160
  33   2.0000      -0.769294       -20.9336
  34   2.0000      -0.710343       -19.3294
  35   2.0000      -0.701870       -19.0988
  36   2.0000      -0.697822       -18.9887
  37   2.0000      -0.661052       -17.9881
  38   2.0000      -0.649847       -17.6832
  39   2.0000      -0.623622       -16.9696
  40   2.0000      -0.604660       -16.4536
  41   2.0000      -0.570018       -15.5110
  42   2.0000      -0.568906       -15.4807
  43   2.0000      -0.553984       -15.0747
  44   2.0000      -0.534297       -14.5390
  45   2.0000      -0.525853       -14.3092
  46   2.0000      -0.521523       -14.1914
  47   2.0000      -0.517469       -14.0810
  48   2.0000      -0.505135       -13.7454
  49   2.0000      -0.499351       -13.5880
  50   2.0000      -0.493889       -13.4394
  51   2.0000      -0.480960       -13.0876
  52   2.0000      -0.468988       -12.7618
  53   2.0000      -0.467564       -12.7231
  54   2.0000      -0.461927       -12.5697
  55   2.0000      -0.453882       -12.3507
  56   2.0000      -0.446860       -12.1597
  57   2.0000      -0.441511       -12.0141
  58   2.0000      -0.439007       -11.9460
  59   2.0000      -0.429269       -11.6810
  60   2.0000      -0.419725       -11.4213
  61   2.0000      -0.411952       -11.2098
  62   2.0000      -0.406127       -11.0513
  63   2.0000      -0.345602        -9.4043
  64   2.0000      -0.333069        -9.0633
  65   2.0000      -0.326299        -8.8790
  66   2.0000      -0.301491        -8.2040
  67   0.0000       0.039988         1.0881
  68   0.0000       0.063729         1.7342
  69   0.0000       0.109007         2.9662
  70   0.0000       0.120454         3.2777
  71   0.0000       0.126148         3.4327

MULLIKEN ATOMIC CHARGES
-----------------------
   0 S :    0.084225
   1 C :   -0.116617
   2 C :   -0.089269
   3 C :    0.030599
   4 C :   -0.102206
   5 H :   -0.019396
   6 C :    0.098880
   7 H :    0.006398
   8 H :    0.021118
   9 C :   -0.121644
  10 H :    0.019662
  11 H :    0.039543
  12 C :   -0.020943
  13 H :    0.027356
  14 H :    0.038325
  15 H :    0.031118
  16 S :    0.119772
  17 C :   -0.061921
  18 C :   -0.059611
  19 C :    0.022517
  20 C :   -0.210022
  21 H :    0.016183
  22 C :    0.053381
  23 H :    0.037339
  24 H :    0.046156
  25 C :   -0.077103
  26 H :    0.037064
  27 H :    0.010925
  28 C :   -0.049080
  29 H :    0.015654
  30 H :    0.036989
  31 H :    0.033556
  32 H :    0.057268
  33 H :    0.043783
Sum of atomic charges:    0.0000000

LOEWDIN ATOMIC CHARGES
----------------------
   0 S :    0.364007
   1 C :   -0.187968
   2 C :   -0.059800
   3 C :   -0.064885
   4 C :   -0.180088
   5 H :    0.024738
   6 C :   -0.026581
   7 H :    0.019817
   8 H :    0.027405
   9 C :   -0.043736
  10 H :    0.018520
  11 H :    0.029007
  12 C :   -0.059189
  13 H :    0.025113
  14 H :    0.026103
  15 H :    0.023086
  16 S :    0.424774
  17 C :   -0.193305
  18 C :   -0.071089
  19 C :   -0.057200
  20 C :   -0.189673
  21 H :    0.029945
  22 C :   -0.026512
  23 H :    0.037117
  24 H :    0.038221
  25 C :   -0.039524
  26 H :    0.022929
  27 H :    0.019004
  28 C :   -0.067104
  29 H :    0.020259
  30 H :    0.026848
  31 H :    0.027476
  32 H :    0.035628
  33 H :    0.026656

  Mayer bond orders larger than 0.100000
B(  0-S ,  1-C ) :   1.1163 B(  0-S ,  4-C ) :   1.1201 B(  1-C ,  2-C ) :   1.6295
B(  1-C , 32-H ) :   0.9721 B(  2-C ,  3-C ) :   1.1864 B(  2-C ,  6-C ) :   1.0427
B(  3-C ,  4-C ) :   1.6372 B(  3-C ,  5-H ) :   1.0249 B(  4-C , 20-C ) :   0.9831
B(  6-C ,  7-H ) :   0.9425 B(  6-C ,  8-H ) :   0.9373 B(  6-C ,  9-C ) :   1.0477
B(  9-C , 10-H ) :   0.9647 B(  9-C , 11-H ) :   0.9560 B(  9-C , 12-C ) :   1.0674
B( 12-C , 13-H ) :   0.9770 B( 12-C , 14-H ) :   0.9784 B( 12-C , 15-H ) :   0.9768
B( 16-S , 17-C ) :   1.1392 B( 16-S , 20-C ) :   1.1642 B( 17-C , 18-C ) :   1.6431
B( 17-C , 33-H ) :   0.9693 B( 18-C , 19-C ) :   1.2159 B( 18-C , 21-H ) :   0.9799
B( 19-C , 20-C ) :   1.6124 B( 19-C , 22-C ) :   1.0374 B( 22-C , 23-H ) :   0.9291
B( 22-C , 24-H ) :   0.9417 B( 22-C , 25-C ) :   1.0453 B( 25-C , 26-H ) :   0.9623
B( 25-C , 27-H ) :   0.9496 B( 25-C , 28-C ) :   1.0888 B( 28-C , 29-H ) :   0.9712
B( 28-C , 30-H ) :   0.9744 B( 28-C , 31-H ) :   0.9735

Dispersion correction           -0.014670077
FINAL SINGLE POINT ENERGY     -1339.852066469442

DIPOLE MOMENT
-------------
                                X             Y             Z
Electronic contribution:     13.72647      16.54765      25.58285
Nuclear contribution   :    -13.95905     -16.80904     -26.44206
                        -----------------------------------------
Total Dipole Moment    :     -0.23258      -0.26138      -0.85920
                        -----------------------------------------
Magnitude (a.u.)       :      0.92771
Magnitude (Debye)      :      2.35804

Rotational constants in cm-1:     0.017035     0.010042     0.006916
Rotational constants in MHz :   510.701059   301.043666   207.332939

                             ****ORCA TERMINATED NORMALLY****
TOTAL RUN TIME: 0 days 0 hours 0 minutes 36 seconds 79 msec
