                         Program Version 4.2.1 -  RELEASE  -
|  1> ! wB97X-D3 SP def2-SVP
|  2> %pal
|  3> nprocs 16
|  4> end
|  5>
|  6> * xyz 0 1
|  7> S 	 -3.06119 	 -23.6017 	 60.2309
|  8> C 	 -2.39599 	 -22.0275 	 60.5671
|  9> C 	 -2.20947 	 -21.2304 	 59.4273
| 10> C 	 -2.72048 	 -21.9397 	 58.3002
| 11> C 	 -3.27299 	 -23.1664 	 58.5436
| 12> H 	 -2.73389 	 -21.4864 	 57.3495
| 13> C 	 -1.43923 	 -19.8973 	 59.2701
| 14> H 	 -0.787829 	 -20.0667 	 58.4787
| 15> H 	 -0.763456 	 -19.7578 	 60.141
| 16> C 	 -2.38704 	 -18.7081 	 59.1283
| 17> H 	 -1.77211 	 -17.9121 	 58.5537
| 18> H 	 -3.14161 	 -18.9174 	 58.4028
| 19> C 	 -2.92105 	 -18.2795 	 60.537
| 20> H 	 -3.32535 	 -17.3096 	 60.5358
| 21> H 	 -3.59479 	 -18.9342 	 61.0922
| 22> H 	 -2.01171 	 -18.2882 	 61.0918
| 23> S 	 -3.81303 	 -25.8332 	 58.1841
| 24> C 	 -4.20886 	 -26.478 	 56.639
| 25> C 	 -4.35221 	 -25.4371 	 55.7469
| 26> C 	 -4.0899 	 -24.1394 	 56.2715
| 27> C 	 -3.7069 	 -24.1733 	 57.6329
| 28> H 	 -4.66684 	 -25.703 	 54.8191
| 29> C 	 -4.1569 	 -22.9165 	 55.388
| 30> H 	 -4.58807 	 -22.006 	 55.8676
| 31> H 	 -5.00102 	 -23.1198 	 54.7584
| 32> C 	 -2.93128 	 -22.5556 	 54.5891
| 33> H 	 -2.56239 	 -23.4823 	 54.0947
| 34> H 	 -2.16018 	 -22.3609 	 55.3016
| 35> C 	 -3.12838 	 -21.3719 	 53.5835
| 36> H 	 -3.19244 	 -20.5068 	 54.1299
| 37> H 	 -4.0247 	 -21.4629 	 52.9054
| 38> H 	 -2.23488 	 -21.0518 	 53.0066
| 39> H 	 -1.92435 	 -21.8486 	 61.4966
| 40> H 	 -4.48617 	 -27.4486 	 56.3224
| 41> *
| 42>
| 43>                          ****END OF INPUT****

CARTESIAN COORDINATES (ANGSTROEM)
---------------------------------
  S     -3.061190  -23.601700   60.230900
  C     -2.395990  -22.027500   60.567100
  C     -2.209470  -21.230400   59.427300
  C     -2.720480  -21.939700   58.300200
  C     -3.272990  -23.166400   58.543600
  H     -2.733890  -21.486400   57.349500
  C     -1.439230  -19.897300   59.270100
  H     -0.787829  -20.066700   58.478700
  H     -0.763456  -19.757800   60.141000
  C     -2.387040  -18.708100   59.128300
  H     -1.772110  -17.912100   58.553700
  H     -3.141610  -18.917400   58.402800
  C     -2.921050  -18.279500   60.537000
  H     -3.325350  -17.309600   60.535800
  H     -3.594790  -18.934200   61.092200
  H     -2.011710  -18.288200   61.091800
  S     -3.813030  -25.833200   58.184100
  C     -4.208860  -26.478000   56.639000
  C     -4.352210  -25.437100   55.746900
  C     -4.089900  -24.139400   56.271500
  C     -3.706900  -24.173300   57.632900
  H     -4.666840  -25.703000   54.819100
  C     -4.156900  -22.916500   55.388000
  H     -4.588070  -22.006000   55.867600
  H     -5.001020  -23.119800   54.758400
  C     -2.931280  -22.555600   54.589100
  H     -2.562390  -23.482300   54.094700
  H     -2.160180  -22.360900   55.301600
  C     -3.128380  -21.371900   53.583500
  H     -3.192440  -20.506800   54.129900
  H     -4.024700  -21.462900   52.905400
  H     -2.234880  -21.051800   53.006600
  H     -1.924350  -21.848600   61.496600
  H     -4.486170  -27.448600   56.322400

 Total Charge           Charge          ....    0
 Multiplicity           Mult            ....    1
 Number of Electrons    NEL             ....  134
 Basis Dimension        Dim             ....  322

ORBITAL ENERGIES
----------------

  NO   OCC          E(Eh)            E(eV)
   0   2.0000     -88.966347     -2420.8974
   1   2.0000     -88.965860     -2420.8841
   2   2.0000     -10.329425      -281.0779
   3   2.0000     -10.328591      -281.0553
   4   2.0000     -10.312258      -280.6108
   5   2.0000     -10.311845      -280.5996
   6   2.0000     -10.305107      -280.4162
   7   2.0000     -10.304267      -280.3934
   8   2.0000     -10.296381      -280.1788
   9   2.0000     -10.295016      -280.1416
  10   2.0000     -10.289498      -279.9915
  11   2.0000     -10.289139      -279.9817
  12   2.0000     -10.289040      -279.9790
  13   2.0000     -10.284734      -279.8618
  14   2.0000     -10.282733      -279.8074
  15   2.0000     -10.275592      -279.6131
  16   2.0000      -8.081336      -219.9043
  17   2.0000      -8.080906      -219.8926
  18   2.0000      -6.039946      -164.3553
  19   2.0000      -6.039393      -164.3402
  20   2.0000      -6.035668      -164.2389
  21   2.0000      -6.035533      -164.2352
  22   2.0000      -6.032122      -164.1424
  23   2.0000      -6.031522      -164.1261
  24   2.0000      -1.011147       -27.5147
  25   2.0000      -0.985621       -26.8201
  26   2.0000      -0.914449       -24.8834
  27   2.0000      -0.911339       -24.7988
  28   2.0000      -0.873650       -23.7732
  29   2.0000      -0.853706       -23.2305
  30   2.0000      -0.844727       -22.9862
  31   2.0000      -0.816173       -22.2092
  32   2.0000      -0.787967       -21.4417
  33   2.0000      -0.777859       -21.1666
  34   2.0000      -0.716736       -19.5034
  35   2.0000      -0.706530       -19.2257
  36   2.0000      -0.699129       -19.0243
  37   2.0000      -0.668589       -18.1932
  38   2.0000      -0.640977       -17.4419
  39   2.0000      -0.632111       -17.2006
  40   2.0000      -0.598291       -16.2803
  41   2.0000      -0.570567       -15.5259
  42   2.0000      -0.566060       -15.4033
  43   2.0000      -0.557547       -15.1716
  44   2.0000      -0.536980       -14.6120
  45   2.0000      -0.521576       -14.1928
  46   2.0000      -0.515591       -14.0299
  47   2.0000      -0.514712       -14.0060
  48   2.0000      -0.508125       -13.8268
  49   2.0000      -0.497731       -13.5440
  50   2.0000      -0.492882       -13.4120
  51   2.0000      -0.484965       -13.1966
  52   2.0000      -0.471566       -12.8320
  53   2.0000      -0.465117       -12.6565
  54   2.0000      -0.458253       -12.4697
  55   2.0000      -0.453480       -12.3398
  56   2.0000      -0.448403       -12.2017
  57   2.0000      -0.443718       -12.0742
  58   2.0000      -0.438744       -11.9388
  59   2.0000      -0.434115       -11.8129
  60   2.0000      -0.419445       -11.4137
  61   2.0000      -0.412507       -11.2249
  62   2.0000      -0.404244       -11.0000
  63   2.0000      -0.365364        -9.9421
  64   2.0000      -0.337949        -9.1961
  65   2.0000      -0.327031        -8.8990
  66   2.0000      -0.278960        -7.5909
  67   0.0000       0.016306         0.4437
  68   0.0000       0.084062         2.2874
  69   0.0000       0.101256         2.7553
  70   0.0000       0.116698         3.1755
  71   0.0000       0.133582         3.6350

MULLIKEN ATOMIC CHARGES
-----------------------
   0 S :    0.090967
   1 C :   -0.105678
   2 C :   -0.094198
   3 C :   -0.006834
   4 C :   -0.082532
   5 H :   -0.019724
   6 C :    0.070124
   7 H :    0.016968
   8 H :    0.025372
   9 C :   -0.079763
  10 H :    0.037379
  11 H :    0.023902
  12 C :   -0.007058
  13 H :    0.030104
  14 H :    0.046369
  15 H :    0.008800
  16 S :    0.095753
  17 C :   -0.056429
  18 C :   -0.013227
  19 C :   -0.047373
  20 C :   -0.106901
  21 H :   -0.026915
  22 C :    0.037095
  23 H :    0.022095
  24 H :    0.005092
  25 C :   -0.036044
  26 H :    0.025884
  27 H :    0.012885
  28 C :   -0.026228
  29 H :    0.002193
  30 H :    0.048418
  31 H :    0.033650
  32 H :    0.035141
  33 H :    0.040713
Sum of atomic charges:   -0.0000000

LOEWDIN ATOMIC CHARGES
----------------------
   0 S :    0.401717
   1 C :   -0.193767
   2 C :   -0.054254
   3 C :   -0.059752
   4 C :   -0.182696
   5 H :    0.019977
   6 C :   -0.024969
   7 H :    0.022784
   8 H :    0.032235
   9 C :   -0.039464
  10 H :    0.034450
  11 H :    0.016298
  12 C :   -0.057147
  13 H :    0.021158
  14 H :    0.032213
  15 H :    0.021786
  16 S :    0.415935
  17 C :   -0.191389
  18 C :   -0.059296
  19 C :   -0.056801
  20 C :   -0.190940
  21 H :    0.013404
  22 C :   -0.044466
  23 H :    0.031201
  24 H :    0.027524
  25 C :   -0.038843
  26 H :    0.027191
  27 H :    0.018598
  28 C :   -0.069860
  29 H :    0.013084
  30 H :    0.034319
  31 H :    0.035098
  32 H :    0.016083
  33 H :    0.028588

  Mayer bond orders larger than 0.100000
B(  0-S ,  1-C ) :   1.1499 B(  0-S ,  4-C ) :   1.1284 B(  1-C ,  2-C ) :   1.6027
B(  1-C , 32-H ) :   0.9687 B(  2-C ,  3-C ) :   1.2624 B(  2-C ,  6-C ) :   1.0038
B(  3-C ,  4-C ) :   1.5597 B(  3-C ,  5-H ) :   0.9916 B(  4-C , 20-C ) :   1.1182
B(  6-C ,  7-H ) :   0.9419 B(  6-C ,  8-H ) :   0.9477 B(  6-C ,  9-C ) :   1.0669
B(  9-C , 10-H ) :   0.9555 B(  9-C , 11-H ) :   0.9596 B(  9-C , 12-C ) :   1.0498
B( 12-C , 13-H ) :   0.9760 B( 12-C , 14-H ) :   0.9766 B( 12-C , 15-H ) :   0.9760
B( 16-S , 17-C ) :   1.1566 B( 16-S , 20-C ) :   1.1417 B( 17-C , 18-C ) :   1.5965
B( 17-C , 33-H ) :   0.9700 B( 18-C , 19-C ) :   1.2664 B( 18-C , 21-H ) :   1.0058
B( 19-C , 20-C ) :   1.5352 B( 19-C , 22-C ) :   1.0506 B( 22-C , 23-H ) :   0.9307
B( 22-C , 24-H ) :   0.9211 B( 22-C , 25-C ) :   1.0608 B( 25-C , 26-H ) :   0.9518
B( 25-C , 27-H ) :   0.9510 B( 25-C , 28-C ) :   1.0682 B( 28-C , 29-H ) :   0.9692
B( 28-C , 30-H ) :   0.9774 B( 28-C , 31-H ) :   0.9708

Dispersion correction           -0.014274078
FINAL SINGLE POINT ENERGY     -1339.860576819288

DIPOLE MOMENT
-------------
                                X             Y             Z
Electronic contribution:     -4.16779     -27.29710      13.27682
Nuclear contribution   :      4.35425      27.83426     -13.75116
                        -----------------------------------------
Total Dipole Moment    :      0.18646       0.53716      -0.47434
                        -----------------------------------------
Magnitude (a.u.)       :      0.74048
Magnitude (Debye)      :      1.88215

Rotational constants in cm-1:     0.017847     0.009426     0.006449
Rotational constants in MHz :   535.047561   282.586805   193.335879

                             ****ORCA TERMINATED NORMALLY****
TOTAL RUN TIME: 0 days 0 hours 0 minutes 33 seconds 147 msec
