                         Program Version 4.2.1 -  RELEASE  -
|  1> ! wB97X-D3 SP def2-SVP
|  2> %pal
|  3> nprocs 16
|  4> end
|  5>
|  6> * xyz 0 1
|  7> S 	 -40.0686 	 51.7168 	 105.655
|  8> C 	 -41.2555 	 52.7619 	 104.956
|  9> C 	 -41.4314 	 53.9218 	 105.763
| 10> C 	 -40.7122 	 53.8173 	 106.979
| 11> C 	 -40.0886 	 52.6308 	 107.191
| 12> H 	 -40.8482 	 54.5169 	 107.82
| 13> C 	 -42.2015 	 55.2093 	 105.518
| 14> H 	 -42.4013 	 55.7147 	 106.497
| 15> H 	 -43.1675 	 54.9071 	 105.063
| 16> C 	 -41.5583 	 56.1804 	 104.589
| 17> H 	 -40.5638 	 56.368 	 104.996
| 18> H 	 -41.4144 	 55.5869 	 103.635
| 19> C 	 -42.265 	 57.5576 	 104.362
| 20> H 	 -41.653 	 58.4168 	 104.093
| 21> H 	 -43.0715 	 57.2547 	 103.603
| 22> H 	 -42.7267 	 57.8788 	 105.283
| 23> S 	 -40.2015 	 51.7368 	 109.744
| 24> C 	 -38.7755 	 51.6312 	 110.732
| 25> C 	 -37.6872 	 51.8729 	 109.902
| 26> C 	 -37.9417 	 52.1057 	 108.555
| 27> C 	 -39.3298 	 52.2494 	 108.338
| 28> H 	 -36.7134 	 51.6323 	 110.372
| 29> C 	 -36.8153 	 52.1625 	 107.477
| 30> H 	 -37.1084 	 51.5764 	 106.663
| 31> H 	 -35.8658 	 51.767 	 107.886
| 32> C 	 -36.4998 	 53.5888 	 107.022
| 33> H 	 -36.002 	 54.1243 	 107.858
| 34> H 	 -37.4225 	 54.1254 	 106.801
| 35> C 	 -35.6584 	 53.5836 	 105.685
| 36> H 	 -34.6974 	 53.0593 	 105.863
| 37> H 	 -35.5614 	 54.6253 	 105.327
| 38> H 	 -36.0605 	 52.9988 	 104.821
| 39> H 	 -41.6641 	 52.743 	 103.99
| 40> H 	 -38.6845 	 51.3074 	 111.791
| 41> *
| 42>
| 43>                          ****END OF INPUT****

CARTESIAN COORDINATES (ANGSTROEM)
---------------------------------
  S    -40.068600   51.716800  105.655000
  C    -41.255500   52.761900  104.956000
  C    -41.431400   53.921800  105.763000
  C    -40.712200   53.817300  106.979000
  C    -40.088600   52.630800  107.191000
  H    -40.848200   54.516900  107.820000
  C    -42.201500   55.209300  105.518000
  H    -42.401300   55.714700  106.497000
  H    -43.167500   54.907100  105.063000
  C    -41.558300   56.180400  104.589000
  H    -40.563800   56.368000  104.996000
  H    -41.414400   55.586900  103.635000
  C    -42.265000   57.557600  104.362000
  H    -41.653000   58.416800  104.093000
  H    -43.071500   57.254700  103.603000
  H    -42.726700   57.878800  105.283000
  S    -40.201500   51.736800  109.744000
  C    -38.775500   51.631200  110.732000
  C    -37.687200   51.872900  109.902000
  C    -37.941700   52.105700  108.555000
  C    -39.329800   52.249400  108.338000
  H    -36.713400   51.632300  110.372000
  C    -36.815300   52.162500  107.477000
  H    -37.108400   51.576400  106.663000
  H    -35.865800   51.767000  107.886000
  C    -36.499800   53.588800  107.022000
  H    -36.002000   54.124300  107.858000
  H    -37.422500   54.125400  106.801000
  C    -35.658400   53.583600  105.685000
  H    -34.697400   53.059300  105.863000
  H    -35.561400   54.625300  105.327000
  H    -36.060500   52.998800  104.821000
  H    -41.664100   52.743000  103.990000
  H    -38.684500   51.307400  111.791000

 Total Charge           Charge          ....    0
 Multiplicity           Mult            ....    1
 Number of Electrons    NEL             ....  134
 Basis Dimension        Dim             ....  322

ORBITAL ENERGIES
----------------

  NO   OCC          E(Eh)            E(eV)
   0   2.0000     -88.969976     -2420.9961
   1   2.0000     -88.967186     -2420.9202
   2   2.0000     -10.327199      -281.0174
   3   2.0000     -10.324544      -280.9451
   4   2.0000     -10.318360      -280.7769
   5   2.0000     -10.317978      -280.7664
   6   2.0000     -10.304742      -280.4063
   7   2.0000     -10.304000      -280.3861
   8   2.0000     -10.295689      -280.1599
   9   2.0000     -10.292530      -280.0740
  10   2.0000     -10.290997      -280.0323
  11   2.0000     -10.290964      -280.0314
  12   2.0000     -10.289074      -279.9800
  13   2.0000     -10.287892      -279.9478
  14   2.0000     -10.286827      -279.9188
  15   2.0000     -10.283434      -279.8265
  16   2.0000      -8.084043      -219.9780
  17   2.0000      -8.082054      -219.9239
  18   2.0000      -6.042562      -164.4265
  19   2.0000      -6.040424      -164.3683
  20   2.0000      -6.038678      -164.3208
  21   2.0000      -6.036358      -164.2576
  22   2.0000      -6.034793      -164.2151
  23   2.0000      -6.033120      -164.1695
  24   2.0000      -1.010022       -27.4841
  25   2.0000      -0.986904       -26.8550
  26   2.0000      -0.914097       -24.8738
  27   2.0000      -0.902920       -24.5697
  28   2.0000      -0.872971       -23.7547
  29   2.0000      -0.849724       -23.1222
  30   2.0000      -0.843500       -22.9528
  31   2.0000      -0.811935       -22.0939
  32   2.0000      -0.780308       -21.2333
  33   2.0000      -0.769854       -20.9488
  34   2.0000      -0.708722       -19.2853
  35   2.0000      -0.695583       -18.9278
  36   2.0000      -0.691429       -18.8147
  37   2.0000      -0.658266       -17.9123
  38   2.0000      -0.640413       -17.4265
  39   2.0000      -0.621396       -16.9090
  40   2.0000      -0.593730       -16.1562
  41   2.0000      -0.570359       -15.5203
  42   2.0000      -0.565329       -15.3834
  43   2.0000      -0.562022       -15.2934
  44   2.0000      -0.527930       -14.3657
  45   2.0000      -0.518428       -14.1072
  46   2.0000      -0.513418       -13.9708
  47   2.0000      -0.511081       -13.9072
  48   2.0000      -0.504151       -13.7186
  49   2.0000      -0.497161       -13.5284
  50   2.0000      -0.493268       -13.4225
  51   2.0000      -0.480814       -13.0836
  52   2.0000      -0.473280       -12.8786
  53   2.0000      -0.465255       -12.6602
  54   2.0000      -0.457990       -12.4625
  55   2.0000      -0.456518       -12.4225
  56   2.0000      -0.440172       -11.9777
  57   2.0000      -0.431677       -11.7465
  58   2.0000      -0.427280       -11.6269
  59   2.0000      -0.425016       -11.5653
  60   2.0000      -0.421594       -11.4722
  61   2.0000      -0.411372       -11.1940
  62   2.0000      -0.407327       -11.0839
  63   2.0000      -0.341697        -9.2980
  64   2.0000      -0.334600        -9.1049
  65   2.0000      -0.323084        -8.7916
  66   2.0000      -0.298551        -8.1240
  67   0.0000       0.031126         0.8470
  68   0.0000       0.052599         1.4313
  69   0.0000       0.108738         2.9589
  70   0.0000       0.116983         3.1833
  71   0.0000       0.126771         3.4496

MULLIKEN ATOMIC CHARGES
-----------------------
   0 S :    0.115800
   1 C :   -0.078099
   2 C :   -0.105682
   3 C :    0.035020
   4 C :   -0.161775
   5 H :    0.027094
   6 C :    0.050218
   7 H :    0.027012
   8 H :    0.024904
   9 C :   -0.095033
  10 H :    0.020221
  11 H :    0.031082
  12 C :   -0.038460
  13 H :    0.047271
  14 H :    0.047008
  15 H :    0.022800
  16 S :    0.127770
  17 C :   -0.120794
  18 C :   -0.064684
  19 C :   -0.006526
  20 C :   -0.201775
  21 H :    0.024602
  22 C :    0.114181
  23 H :    0.009240
  24 H :    0.021836
  25 C :   -0.090497
  26 H :    0.037681
  27 H :    0.037866
  28 C :   -0.073892
  29 H :    0.029966
  30 H :    0.044574
  31 H :    0.038179
  32 H :    0.028069
  33 H :    0.074824
Sum of atomic charges:   -0.0000000

LOEWDIN ATOMIC CHARGES
----------------------
   0 S :    0.405651
   1 C :   -0.194820
   2 C :   -0.060329
   3 C :   -0.058462
   4 C :   -0.192745
   5 H :    0.037642
   6 C :   -0.037439
   7 H :    0.031033
   8 H :    0.030585
   9 C :   -0.050854
  10 H :    0.019369
  11 H :    0.026669
  12 C :   -0.069693
  13 H :    0.030220
  14 H :    0.038711
  15 H :    0.021725
  16 S :    0.437336
  17 C :   -0.208122
  18 C :   -0.083848
  19 C :   -0.053187
  20 C :   -0.213193
  21 H :    0.034275
  22 C :   -0.021282
  23 H :    0.016678
  24 H :    0.033108
  25 C :   -0.039599
  26 H :    0.028449
  27 H :    0.023217
  28 C :   -0.075709
  29 H :    0.024177
  30 H :    0.029184
  31 H :    0.029337
  32 H :    0.019203
  33 H :    0.042716

  Mayer bond orders larger than 0.100000
B(  0-S ,  1-C ) :   1.1528 B(  0-S ,  4-C ) :   1.1250 B(  1-C ,  2-C ) :   1.5833
B(  1-C ,  4-C ) :   0.1045 B(  1-C , 32-H ) :   0.9730 B(  2-C ,  3-C ) :   1.2668
B(  2-C ,  6-C ) :   1.0251 B(  3-C ,  4-C ) :   1.5924 B(  3-C ,  5-H ) :   0.9818
B(  4-C , 20-C ) :   1.0448 B(  6-C ,  7-H ) :   0.9382 B(  6-C ,  8-H ) :   0.9344
B(  6-C ,  9-C ) :   1.0716 B(  9-C , 10-H ) :   0.9517 B(  9-C , 11-H ) :   0.9598
B(  9-C , 12-C ) :   1.0604 B( 12-C , 13-H ) :   0.9772 B( 12-C , 14-H ) :   0.9771
B( 12-C , 15-H ) :   0.9741 B( 16-S , 17-C ) :   1.1700 B( 16-S , 20-C ) :   1.1848
B( 17-C , 18-C ) :   1.5687 B( 17-C , 20-C ) :   0.1216 B( 17-C , 33-H ) :   0.9641
B( 18-C , 19-C ) :   1.3067 B( 18-C , 21-H ) :   0.9781 B( 19-C , 20-C ) :   1.5127
B( 19-C , 22-C ) :   1.0320 B( 22-C , 23-H ) :   0.9371 B( 22-C , 24-H ) :   0.9350
B( 22-C , 25-C ) :   1.0625 B( 25-C , 26-H ) :   0.9545 B( 25-C , 27-H ) :   0.9623
B( 25-C , 28-C ) :   1.0694 B( 28-C , 29-H ) :   0.9744 B( 28-C , 30-H ) :   0.9760
B( 28-C , 31-H ) :   0.9764

Dispersion correction           -0.014399728
FINAL SINGLE POINT ENERGY     -1339.867034426929

DIPOLE MOMENT
-------------
                                X             Y             Z
Electronic contribution:     -6.63602     -20.74112      14.08991
Nuclear contribution   :      6.82122      21.10463     -14.17424
                        -----------------------------------------
Total Dipole Moment    :      0.18520       0.36351      -0.08433
                        -----------------------------------------
Magnitude (a.u.)       :      0.41659
Magnitude (Debye)      :      1.05888

Rotational constants in cm-1:     0.018314     0.008242     0.007005
Rotational constants in MHz :   549.044311   247.079804   210.009508

                             ****ORCA TERMINATED NORMALLY****
TOTAL RUN TIME: 0 days 0 hours 0 minutes 29 seconds 474 msec
