                         Program Version 4.2.1 -  RELEASE  -
|  1> ! wB97X-D3 SP def2-SVP
|  2> %pal
|  3> nprocs 16
|  4> end
|  5>
|  6> * xyz 0 1
|  7> S 	 -5.03203 	 -10.0002 	 82.5446
|  8> C 	 -5.34872 	 -9.37122 	 80.9819
|  9> C 	 -6.70304 	 -9.29337 	 80.7064
| 10> C 	 -7.47023 	 -9.45308 	 81.8849
| 11> C 	 -6.72753 	 -9.79401 	 82.9726
| 12> H 	 -8.57656 	 -9.40001 	 81.8863
| 13> C 	 -7.31054 	 -8.94808 	 79.3934
| 14> H 	 -8.16175 	 -9.65983 	 79.1965
| 15> H 	 -6.51548 	 -9.10088 	 78.6936
| 16> C 	 -7.92635 	 -7.57966 	 79.2762
| 17> H 	 -8.71325 	 -7.46799 	 80.0198
| 18> H 	 -7.19346 	 -6.763 	 79.4666
| 19> C 	 -8.58165 	 -7.31159 	 77.8884
| 20> H 	 -8.08302 	 -7.67358 	 76.9687
| 21> H 	 -9.58747 	 -7.59293 	 77.886
| 22> H 	 -8.72047 	 -6.24141 	 77.6258
| 23> S 	 -6.05948 	 -10.263 	 85.6159
| 24> C 	 -7.25946 	 -10.9389 	 86.658
| 25> C 	 -8.50491 	 -11.0717 	 86.0016
| 26> C 	 -8.486 	 -10.7125 	 84.604
| 27> C 	 -7.21597 	 -10.2395 	 84.2357
| 28> H 	 -9.44274 	 -11.4173 	 86.4552
| 29> C 	 -9.7762 	 -10.8194 	 83.7829
| 30> H 	 -10.3842 	 -11.5367 	 84.2893
| 31> H 	 -9.46897 	 -11.3269 	 82.8483
| 32> C 	 -10.6481 	 -9.50641 	 83.7184
| 33> H 	 -10.1629 	 -8.74299 	 83.0594
| 34> H 	 -10.8668 	 -9.01807 	 84.6903
| 35> C 	 -11.9817 	 -9.80337 	 83.042
| 36> H 	 -11.8914 	 -9.97749 	 81.9781
| 37> H 	 -12.7478 	 -9.00655 	 83.2096
| 38> H 	 -12.3184 	 -10.7424 	 83.3835
| 39> H 	 -4.56887 	 -9.2669 	 80.2065
| 40> H 	 -7.18765 	 -11.2022 	 87.7445
| 41> *
| 42>
| 43>                          ****END OF INPUT****

CARTESIAN COORDINATES (ANGSTROEM)
---------------------------------
  S     -5.032030  -10.000200   82.544600
  C     -5.348720   -9.371220   80.981900
  C     -6.703040   -9.293370   80.706400
  C     -7.470230   -9.453080   81.884900
  C     -6.727530   -9.794010   82.972600
  H     -8.576560   -9.400010   81.886300
  C     -7.310540   -8.948080   79.393400
  H     -8.161750   -9.659830   79.196500
  H     -6.515480   -9.100880   78.693600
  C     -7.926350   -7.579660   79.276200
  H     -8.713250   -7.467990   80.019800
  H     -7.193460   -6.763000   79.466600
  C     -8.581650   -7.311590   77.888400
  H     -8.083020   -7.673580   76.968700
  H     -9.587470   -7.592930   77.886000
  H     -8.720470   -6.241410   77.625800
  S     -6.059480  -10.263000   85.615900
  C     -7.259460  -10.938900   86.658000
  C     -8.504910  -11.071700   86.001600
  C     -8.486000  -10.712500   84.604000
  C     -7.215970  -10.239500   84.235700
  H     -9.442740  -11.417300   86.455200
  C     -9.776200  -10.819400   83.782900
  H    -10.384200  -11.536700   84.289300
  H     -9.468970  -11.326900   82.848300
  C    -10.648100   -9.506410   83.718400
  H    -10.162900   -8.742990   83.059400
  H    -10.866800   -9.018070   84.690300
  C    -11.981700   -9.803370   83.042000
  H    -11.891400   -9.977490   81.978100
  H    -12.747800   -9.006550   83.209600
  H    -12.318400  -10.742400   83.383500
  H     -4.568870   -9.266900   80.206500
  H     -7.187650  -11.202200   87.744500

 Total Charge           Charge          ....    0
 Multiplicity           Mult            ....    1
 Number of Electrons    NEL             ....  134
 Basis Dimension        Dim             ....  322

ORBITAL ENERGIES
----------------

  NO   OCC          E(Eh)            E(eV)
   0   2.0000     -88.969825     -2420.9920
   1   2.0000     -88.965268     -2420.8680
   2   2.0000     -10.328936      -281.0646
   3   2.0000     -10.324355      -280.9400
   4   2.0000     -10.323179      -280.9080
   5   2.0000     -10.311487      -280.5898
   6   2.0000     -10.306122      -280.4438
   7   2.0000     -10.302771      -280.3527
   8   2.0000     -10.299967      -280.2764
   9   2.0000     -10.297436      -280.2075
  10   2.0000     -10.295227      -280.1474
  11   2.0000     -10.290953      -280.0311
  12   2.0000     -10.290837      -280.0279
  13   2.0000     -10.289847      -280.0010
  14   2.0000     -10.278292      -279.6865
  15   2.0000     -10.277573      -279.6670
  16   2.0000      -8.083821      -219.9720
  17   2.0000      -8.080635      -219.8853
  18   2.0000      -6.042441      -164.4232
  19   2.0000      -6.039161      -164.3339
  20   2.0000      -6.038415      -164.3136
  21   2.0000      -6.035217      -164.2266
  22   2.0000      -6.034544      -164.2083
  23   2.0000      -6.031187      -164.1169
  24   2.0000      -1.009436       -27.4682
  25   2.0000      -0.980945       -26.6929
  26   2.0000      -0.915550       -24.9134
  27   2.0000      -0.909837       -24.7579
  28   2.0000      -0.869795       -23.6683
  29   2.0000      -0.857654       -23.3379
  30   2.0000      -0.848073       -23.0772
  31   2.0000      -0.810364       -22.0511
  32   2.0000      -0.784589       -21.3498
  33   2.0000      -0.769846       -20.9486
  34   2.0000      -0.709493       -19.3063
  35   2.0000      -0.703453       -19.1419
  36   2.0000      -0.692998       -18.8574
  37   2.0000      -0.664575       -18.0840
  38   2.0000      -0.635216       -17.2851
  39   2.0000      -0.624639       -16.9973
  40   2.0000      -0.590618       -16.0715
  41   2.0000      -0.572870       -15.5886
  42   2.0000      -0.564379       -15.3575
  43   2.0000      -0.553314       -15.0564
  44   2.0000      -0.535042       -14.5592
  45   2.0000      -0.522368       -14.2143
  46   2.0000      -0.513918       -13.9844
  47   2.0000      -0.509156       -13.8548
  48   2.0000      -0.503703       -13.7064
  49   2.0000      -0.500304       -13.6140
  50   2.0000      -0.495552       -13.4847
  51   2.0000      -0.476413       -12.9638
  52   2.0000      -0.471199       -12.8220
  53   2.0000      -0.467867       -12.7313
  54   2.0000      -0.456361       -12.4182
  55   2.0000      -0.454743       -12.3742
  56   2.0000      -0.447841       -12.1864
  57   2.0000      -0.438869       -11.9422
  58   2.0000      -0.435204       -11.8425
  59   2.0000      -0.425628       -11.5819
  60   2.0000      -0.422662       -11.5012
  61   2.0000      -0.420651       -11.4465
  62   2.0000      -0.416707       -11.3392
  63   2.0000      -0.359998        -9.7960
  64   2.0000      -0.332503        -9.0479
  65   2.0000      -0.330480        -8.9928
  66   2.0000      -0.277560        -7.5528
  67   0.0000       0.019974         0.5435
  68   0.0000       0.082780         2.2526
  69   0.0000       0.095076         2.5872
  70   0.0000       0.115756         3.1499
  71   0.0000       0.124639         3.3916

MULLIKEN ATOMIC CHARGES
-----------------------
   0 S :    0.105878
   1 C :   -0.121202
   2 C :   -0.091701
   3 C :   -0.037008
   4 C :   -0.072780
   5 H :    0.005883
   6 C :    0.083659
   7 H :    0.033879
   8 H :    0.009839
   9 C :   -0.069705
  10 H :    0.025574
  11 H :    0.037408
  12 C :   -0.052662
  13 H :    0.035904
  14 H :    0.016020
  15 H :    0.024315
  16 S :    0.112055
  17 C :   -0.096516
  18 C :   -0.045667
  19 C :   -0.062743
  20 C :   -0.148039
  21 H :    0.018854
  22 C :    0.048152
  23 H :    0.005819
  24 H :    0.048333
  25 C :   -0.078739
  26 H :    0.039999
  27 H :    0.045628
  28 C :   -0.024133
  29 H :    0.019789
  30 H :    0.047408
  31 H :    0.006462
  32 H :    0.053019
  33 H :    0.077017
Sum of atomic charges:    0.0000000

LOEWDIN ATOMIC CHARGES
----------------------
   0 S :    0.409392
   1 C :   -0.211065
   2 C :   -0.064457
   3 C :   -0.068809
   4 C :   -0.184493
   5 H :    0.034622
   6 C :   -0.033838
   7 H :    0.039537
   8 H :    0.026116
   9 C :   -0.038236
  10 H :    0.023775
  11 H :    0.028302
  12 C :   -0.075756
  13 H :    0.028440
  14 H :    0.016265
  15 H :    0.031520
  16 S :    0.397982
  17 C :   -0.207455
  18 C :   -0.074843
  19 C :   -0.053217
  20 C :   -0.182957
  21 H :    0.030094
  22 C :   -0.033071
  23 H :    0.025034
  24 H :    0.039353
  25 C :   -0.039022
  26 H :    0.024742
  27 H :    0.033736
  28 C :   -0.066645
  29 H :    0.022697
  30 H :    0.033079
  31 H :    0.014287
  32 H :    0.031095
  33 H :    0.043797

  Mayer bond orders larger than 0.100000
B(  0-S ,  1-C ) :   1.1388 B(  0-S ,  4-C ) :   1.1377 B(  1-C ,  2-C ) :   1.6046
B(  1-C , 32-H ) :   0.9601 B(  2-C ,  3-C ) :   1.2419 B(  2-C ,  6-C ) :   1.0456
B(  3-C ,  4-C ) :   1.5631 B(  3-C ,  5-H ) :   0.9873 B(  4-C , 20-C ) :   1.1101
B(  6-C ,  7-H ) :   0.9313 B(  6-C ,  8-H ) :   0.9310 B(  6-C ,  9-C ) :   1.0721
B(  9-C , 10-H ) :   0.9550 B(  9-C , 11-H ) :   0.9580 B(  9-C , 12-C ) :   1.0713
B( 12-C , 13-H ) :   0.9774 B( 12-C , 14-H ) :   0.9755 B( 12-C , 15-H ) :   0.9737
B( 16-S , 17-C ) :   1.1535 B( 16-S , 20-C ) :   1.1244 B( 17-C , 18-C ) :   1.5893
B( 17-C , 33-H ) :   0.9602 B( 18-C , 19-C ) :   1.2712 B( 18-C , 21-H ) :   0.9779
B( 19-C , 20-C ) :   1.5722 B( 19-C , 22-C ) :   1.0410 B( 22-C , 23-H ) :   0.9273
B( 22-C , 24-H ) :   0.9311 B( 22-C , 25-C ) :   1.0509 B( 25-C , 26-H ) :   0.9554
B( 25-C , 27-H ) :   0.9559 B( 25-C , 28-C ) :   1.0754 B( 28-C , 29-H ) :   0.9728
B( 28-C , 30-H ) :   0.9749 B( 28-C , 31-H ) :   0.9716

Dispersion correction           -0.013956910
FINAL SINGLE POINT ENERGY     -1339.880308671465

DIPOLE MOMENT
-------------
                                X             Y             Z
Electronic contribution:     26.32443      -8.48966      20.09331
Nuclear contribution   :    -27.07484       8.47854     -20.41695
                        -----------------------------------------
Total Dipole Moment    :     -0.75041      -0.01112      -0.32364
                        -----------------------------------------
Magnitude (a.u.)       :      0.81730
Magnitude (Debye)      :      2.07741

Rotational constants in cm-1:     0.017289     0.009472     0.006367
Rotational constants in MHz :   518.307961   283.965678   190.873272

                             ****ORCA TERMINATED NORMALLY****
TOTAL RUN TIME: 0 days 0 hours 0 minutes 34 seconds 105 msec
