                         Program Version 4.2.1 -  RELEASE  -
|  1> ! wB97X-D3 SP def2-SVP
|  2> %pal
|  3> nprocs 16
|  4> end
|  5>
|  6> * xyz 0 1
|  7> S 	 -99.0738 	 37.7419 	 124.753
|  8> C 	 -98.0164 	 37.492 	 126.106
|  9> C 	 -97.0455 	 38.4797 	 126.274
| 10> C 	 -97.2735 	 39.5187 	 125.363
| 11> C 	 -98.3083 	 39.3017 	 124.467
| 12> H 	 -96.5887 	 40.3089 	 125.21
| 13> C 	 -95.8477 	 38.3555 	 127.21
| 14> H 	 -94.9522 	 38.7331 	 126.635
| 15> H 	 -95.6677 	 37.3129 	 127.424
| 16> C 	 -95.9892 	 39.06 	 128.551
| 17> H 	 -95.9791 	 40.1338 	 128.325
| 18> H 	 -96.9103 	 38.787 	 129.12
| 19> C 	 -94.7919 	 38.6512 	 129.353
| 20> H 	 -93.9198 	 39.1856 	 129.1
| 21> H 	 -94.961 	 38.8559 	 130.471
| 22> H 	 -94.4862 	 37.5975 	 129.292
| 23> S 	 -97.9178 	 39.3058 	 121.742
| 24> C 	 -98.3365 	 40.7382 	 120.84
| 25> C 	 -98.7512 	 41.7566 	 121.644
| 26> C 	 -98.9243 	 41.3503 	 123.037
| 27> C 	 -98.4829 	 40.0102 	 123.229
| 28> H 	 -98.8741 	 42.8028 	 121.211
| 29> C 	 -99.215 	 42.3048 	 124.195
| 30> H 	 -98.5897 	 43.1679 	 124.021
| 31> H 	 -98.7068 	 41.9452 	 125.123
| 32> C 	 -100.668 	 42.6373 	 124.287
| 33> H 	 -101.043 	 43.1312 	 123.482
| 34> H 	 -100.676 	 43.2859 	 125.132
| 35> C 	 -101.548 	 41.4122 	 124.521
| 36> H 	 -102.617 	 41.7384 	 124.664
| 37> H 	 -101.255 	 40.6773 	 125.419
| 38> H 	 -101.634 	 40.8189 	 123.6
| 39> H 	 -97.8964 	 36.6211 	 126.79
| 40> H 	 -98.1253 	 40.7323 	 119.751
| 41> *
| 42>
| 43>                          ****END OF INPUT****

CARTESIAN COORDINATES (ANGSTROEM)
---------------------------------
  S    -99.073800   37.741900  124.753000
  C    -98.016400   37.492000  126.106000
  C    -97.045500   38.479700  126.274000
  C    -97.273500   39.518700  125.363000
  C    -98.308300   39.301700  124.467000
  H    -96.588700   40.308900  125.210000
  C    -95.847700   38.355500  127.210000
  H    -94.952200   38.733100  126.635000
  H    -95.667700   37.312900  127.424000
  C    -95.989200   39.060000  128.551000
  H    -95.979100   40.133800  128.325000
  H    -96.910300   38.787000  129.120000
  C    -94.791900   38.651200  129.353000
  H    -93.919800   39.185600  129.100000
  H    -94.961000   38.855900  130.471000
  H    -94.486200   37.597500  129.292000
  S    -97.917800   39.305800  121.742000
  C    -98.336500   40.738200  120.840000
  C    -98.751200   41.756600  121.644000
  C    -98.924300   41.350300  123.037000
  C    -98.482900   40.010200  123.229000
  H    -98.874100   42.802800  121.211000
  C    -99.215000   42.304800  124.195000
  H    -98.589700   43.167900  124.021000
  H    -98.706800   41.945200  125.123000
  C    -100.668000   42.637300  124.287000
  H    -101.043000   43.131200  123.482000
  H    -100.676000   43.285900  125.132000
  C    -101.548000   41.412200  124.521000
  H    -102.617000   41.738400  124.664000
  H    -101.255000   40.677300  125.419000
  H    -101.634000   40.818900  123.600000
  H    -97.896400   36.621100  126.790000
  H    -98.125300   40.732300  119.751000

 Total Charge           Charge          ....    0
 Multiplicity           Mult            ....    1
 Number of Electrons    NEL             ....  134
 Basis Dimension        Dim             ....  322

ORBITAL ENERGIES
----------------

  NO   OCC          E(Eh)            E(eV)
   0   2.0000     -88.971345     -2421.0334
   1   2.0000     -88.961300     -2420.7600
   2   2.0000     -10.324252      -280.9372
   3   2.0000     -10.321981      -280.8754
   4   2.0000     -10.316561      -280.7279
   5   2.0000     -10.314097      -280.6608
   6   2.0000     -10.304754      -280.4066
   7   2.0000     -10.300525      -280.2915
   8   2.0000     -10.296432      -280.1802
   9   2.0000     -10.295877      -280.1651
  10   2.0000     -10.289307      -279.9863
  11   2.0000     -10.289016      -279.9784
  12   2.0000     -10.286882      -279.9203
  13   2.0000     -10.281471      -279.7730
  14   2.0000     -10.278720      -279.6982
  15   2.0000     -10.271512      -279.5020
  16   2.0000      -8.085598      -220.0203
  17   2.0000      -8.076639      -219.7765
  18   2.0000      -6.043998      -164.4655
  19   2.0000      -6.040183      -164.3617
  20   2.0000      -6.036491      -164.2613
  21   2.0000      -6.035070      -164.2226
  22   2.0000      -6.031069      -164.1137
  23   2.0000      -6.027443      -164.0151
  24   2.0000      -1.005593       -27.3636
  25   2.0000      -0.981479       -26.7074
  26   2.0000      -0.918754       -25.0006
  27   2.0000      -0.912177       -24.8216
  28   2.0000      -0.869987       -23.6735
  29   2.0000      -0.853827       -23.2338
  30   2.0000      -0.839591       -22.8464
  31   2.0000      -0.809673       -22.0323
  32   2.0000      -0.779800       -21.2194
  33   2.0000      -0.765770       -20.8377
  34   2.0000      -0.705534       -19.1986
  35   2.0000      -0.697506       -18.9801
  36   2.0000      -0.691206       -18.8087
  37   2.0000      -0.648240       -17.6395
  38   2.0000      -0.637789       -17.3551
  39   2.0000      -0.622552       -16.9405
  40   2.0000      -0.599148       -16.3036
  41   2.0000      -0.574639       -15.6367
  42   2.0000      -0.559998       -15.2383
  43   2.0000      -0.550649       -14.9839
  44   2.0000      -0.541229       -14.7276
  45   2.0000      -0.522792       -14.2259
  46   2.0000      -0.518925       -14.1207
  47   2.0000      -0.504470       -13.7273
  48   2.0000      -0.497372       -13.5342
  49   2.0000      -0.494126       -13.4459
  50   2.0000      -0.485453       -13.2098
  51   2.0000      -0.470063       -12.7911
  52   2.0000      -0.464496       -12.6396
  53   2.0000      -0.460530       -12.5316
  54   2.0000      -0.458480       -12.4759
  55   2.0000      -0.449739       -12.2380
  56   2.0000      -0.440420       -11.9844
  57   2.0000      -0.439450       -11.9580
  58   2.0000      -0.435818       -11.8592
  59   2.0000      -0.428953       -11.6724
  60   2.0000      -0.417933       -11.3725
  61   2.0000      -0.416422       -11.3314
  62   2.0000      -0.405970       -11.0470
  63   2.0000      -0.343344        -9.3429
  64   2.0000      -0.328240        -8.9319
  65   2.0000      -0.322852        -8.7853
  66   2.0000      -0.295098        -8.0300
  67   0.0000       0.036061         0.9813
  68   0.0000       0.063377         1.7246
  69   0.0000       0.112976         3.0742
  70   0.0000       0.114153         3.1063
  71   0.0000       0.133833         3.6418

MULLIKEN ATOMIC CHARGES
-----------------------
   0 S :    0.134926
   1 C :   -0.115827
   2 C :   -0.095545
   3 C :    0.067743
   4 C :   -0.179109
   5 H :   -0.002599
   6 C :    0.020065
   7 H :    0.042290
   8 H :    0.012819
   9 C :   -0.051348
  10 H :    0.034478
  11 H :    0.043196
  12 C :   -0.053435
  13 H :    0.018262
  14 H :    0.039480
  15 H :    0.029116
  16 S :    0.110070
  17 C :   -0.120412
  18 C :   -0.040187
  19 C :   -0.062512
  20 C :   -0.168061
  21 H :    0.046832
  22 C :    0.057053
  23 H :    0.017158
  24 H :    0.026953
  25 C :    0.026788
  26 H :    0.006744
  27 H :    0.016699
  28 C :   -0.117126
  29 H :    0.032849
  30 H :    0.058165
  31 H :    0.042724
  32 H :    0.048828
  33 H :    0.072926
Sum of atomic charges:    0.0000000

LOEWDIN ATOMIC CHARGES
----------------------
   0 S :    0.421011
   1 C :   -0.210480
   2 C :   -0.068925
   3 C :   -0.050684
   4 C :   -0.200146
   5 H :    0.024182
   6 C :   -0.031143
   7 H :    0.039872
   8 H :    0.024362
   9 C :   -0.042875
  10 H :    0.028261
  11 H :    0.031670
  12 C :   -0.071610
  13 H :    0.018141
  14 H :    0.033414
  15 H :    0.025140
  16 S :    0.407948
  17 C :   -0.193916
  18 C :   -0.083739
  19 C :   -0.050196
  20 C :   -0.213377
  21 H :    0.044550
  22 C :   -0.034500
  23 H :    0.029258
  24 H :    0.035536
  25 C :   -0.032979
  26 H :    0.014224
  27 H :    0.023547
  28 C :   -0.079383
  29 H :    0.027604
  30 H :    0.040060
  31 H :    0.025591
  32 H :    0.034932
  33 H :    0.034652

  Mayer bond orders larger than 0.100000
B(  0-S ,  1-C ) :   1.1539 B(  0-S ,  4-C ) :   1.1465 B(  1-C ,  2-C ) :   1.6082
B(  1-C , 32-H ) :   0.9533 B(  2-C ,  3-C ) :   1.2820 B(  2-C ,  6-C ) :   1.0125
B(  3-C ,  4-C ) :   1.5557 B(  3-C ,  5-H ) :   0.9907 B(  4-C , 20-C ) :   1.0471
B(  6-C ,  7-H ) :   0.9438 B(  6-C ,  8-H ) :   0.9442 B(  6-C ,  9-C ) :   1.0636
B(  9-C , 10-H ) :   0.9522 B(  9-C , 11-H ) :   0.9581 B(  9-C , 12-C ) :   1.0800
B( 12-C , 13-H ) :   0.9720 B( 12-C , 14-H ) :   0.9737 B( 12-C , 15-H ) :   0.9728
B( 16-S , 17-C ) :   1.1558 B( 16-S , 20-C ) :   1.1541 B( 17-C , 18-C ) :   1.6158
B( 17-C , 33-H ) :   0.9640 B( 18-C , 19-C ) :   1.2354 B( 18-C , 21-H ) :   0.9778
B( 19-C , 20-C ) :   1.5712 B( 19-C , 22-C ) :   1.0299 B( 22-C , 23-H ) :   0.9358
B( 22-C , 24-H ) :   0.9358 B( 22-C , 25-C ) :   1.0699 B( 25-C , 26-H ) :   0.9532
B( 25-C , 27-H ) :   0.9501 B( 25-C , 28-C ) :   1.0765 B( 28-C , 29-H ) :   0.9724
B( 28-C , 30-H ) :   0.9729 B( 28-C , 31-H ) :   0.9695

Dispersion correction           -0.014676909
FINAL SINGLE POINT ENERGY     -1339.868287495572

DIPOLE MOMENT
-------------
                                X             Y             Z
Electronic contribution:     -3.63618     -10.27027     -20.98709
Nuclear contribution   :      4.10542      10.66363      21.25464
                        -----------------------------------------
Total Dipole Moment    :      0.46924       0.39336       0.26755
                        -----------------------------------------
Magnitude (a.u.)       :      0.66821
Magnitude (Debye)      :      1.69845

Rotational constants in cm-1:     0.020776     0.007737     0.007045
Rotational constants in MHz :   622.836568   231.940104   211.210028

                             ****ORCA TERMINATED NORMALLY****
TOTAL RUN TIME: 0 days 0 hours 0 minutes 33 seconds 788 msec
