                         Program Version 4.2.1 -  RELEASE  -
|  1> ! wB97X-D3 SP def2-SVP
|  2> %pal
|  3> nprocs 16
|  4> end
|  5>
|  6> * xyz 0 1
|  7> S 	 -74.7195 	 47.1197 	 125.676
|  8> C 	 -74.6648 	 45.3863 	 125.348
|  9> C 	 -73.9218 	 44.6697 	 126.279
| 10> C 	 -73.235 	 45.5357 	 127.141
| 11> C 	 -73.543 	 46.8807 	 126.921
| 12> H 	 -72.5374 	 45.2337 	 127.916
| 13> C 	 -73.765 	 43.1715 	 126.253
| 14> H 	 -74.8487 	 42.8496 	 126.143
| 15> H 	 -73.4345 	 42.943 	 127.325
| 16> C 	 -72.8032 	 42.5912 	 125.216
| 17> H 	 -71.8484 	 43.0612 	 125.481
| 18> H 	 -72.7278 	 41.5613 	 125.339
| 19> C 	 -73.0906 	 42.9398 	 123.848
| 20> H 	 -72.7744 	 43.9217 	 123.646
| 21> H 	 -72.4639 	 42.3301 	 123.181
| 22> H 	 -74.107 	 42.7961 	 123.54
| 23> S 	 -71.1469 	 48.0843 	 127.326
| 24> C 	 -71.0627 	 49.629 	 128.221
| 25> C 	 -72.319 	 50.0822 	 128.707
| 26> C 	 -73.3303 	 49.1289 	 128.362
| 27> C 	 -72.8979 	 48.0274 	 127.567
| 28> H 	 -72.3691 	 51.0076 	 129.277
| 29> C 	 -74.793 	 49.299 	 128.803
| 30> H 	 -74.7426 	 49.4744 	 129.919
| 31> H 	 -75.3761 	 48.3649 	 128.722
| 32> C 	 -75.6557 	 50.3857 	 128.142
| 33> H 	 -75.1739 	 51.3987 	 128.465
| 34> H 	 -76.6376 	 50.3165 	 128.548
| 35> C 	 -75.6495 	 50.3022 	 126.633
| 36> H 	 -74.6656 	 50.3282 	 126.183
| 37> H 	 -76.1567 	 51.171 	 126.228
| 38> H 	 -76.1415 	 49.4216 	 126.19
| 39> H 	 -75.2221 	 44.9657 	 124.528
| 40> H 	 -70.1693 	 50.1601 	 128.498
| 41> *
| 42>
| 43>                          ****END OF INPUT****

CARTESIAN COORDINATES (ANGSTROEM)
---------------------------------
  S    -74.719500   47.119700  125.676000
  C    -74.664800   45.386300  125.348000
  C    -73.921800   44.669700  126.279000
  C    -73.235000   45.535700  127.141000
  C    -73.543000   46.880700  126.921000
  H    -72.537400   45.233700  127.916000
  C    -73.765000   43.171500  126.253000
  H    -74.848700   42.849600  126.143000
  H    -73.434500   42.943000  127.325000
  C    -72.803200   42.591200  125.216000
  H    -71.848400   43.061200  125.481000
  H    -72.727800   41.561300  125.339000
  C    -73.090600   42.939800  123.848000
  H    -72.774400   43.921700  123.646000
  H    -72.463900   42.330100  123.181000
  H    -74.107000   42.796100  123.540000
  S    -71.146900   48.084300  127.326000
  C    -71.062700   49.629000  128.221000
  C    -72.319000   50.082200  128.707000
  C    -73.330300   49.128900  128.362000
  C    -72.897900   48.027400  127.567000
  H    -72.369100   51.007600  129.277000
  C    -74.793000   49.299000  128.803000
  H    -74.742600   49.474400  129.919000
  H    -75.376100   48.364900  128.722000
  C    -75.655700   50.385700  128.142000
  H    -75.173900   51.398700  128.465000
  H    -76.637600   50.316500  128.548000
  C    -75.649500   50.302200  126.633000
  H    -74.665600   50.328200  126.183000
  H    -76.156700   51.171000  126.228000
  H    -76.141500   49.421600  126.190000
  H    -75.222100   44.965700  124.528000
  H    -70.169300   50.160100  128.498000

 Total Charge           Charge          ....    0
 Multiplicity           Mult            ....    1
 Number of Electrons    NEL             ....  134
 Basis Dimension        Dim             ....  322

ORBITAL ENERGIES
----------------

  NO   OCC          E(Eh)            E(eV)
   0   2.0000     -88.969774     -2420.9906
   1   2.0000     -88.968176     -2420.9472
   2   2.0000     -10.329175      -281.0711
   3   2.0000     -10.328827      -281.0617
   4   2.0000     -10.321732      -280.8686
   5   2.0000     -10.311855      -280.5998
   6   2.0000     -10.309497      -280.5357
   7   2.0000     -10.301179      -280.3093
   8   2.0000     -10.298947      -280.2486
   9   2.0000     -10.297779      -280.2168
  10   2.0000     -10.293863      -280.1103
  11   2.0000     -10.290993      -280.0322
  12   2.0000     -10.288352      -279.9603
  13   2.0000     -10.277842      -279.6743
  14   2.0000     -10.268120      -279.4098
  15   2.0000     -10.265578      -279.3406
  16   2.0000      -8.084029      -219.9776
  17   2.0000      -8.081622      -219.9121
  18   2.0000      -6.042303      -164.4194
  19   2.0000      -6.040133      -164.3604
  20   2.0000      -6.038631      -164.3195
  21   2.0000      -6.036271      -164.2553
  22   2.0000      -6.035022      -164.2213
  23   2.0000      -6.032489      -164.1524
  24   2.0000      -1.003207       -27.2986
  25   2.0000      -0.975437       -26.5430
  26   2.0000      -0.922691       -25.1077
  27   2.0000      -0.902172       -24.5493
  28   2.0000      -0.869319       -23.6554
  29   2.0000      -0.855566       -23.2811
  30   2.0000      -0.840266       -22.8648
  31   2.0000      -0.809220       -22.0200
  32   2.0000      -0.785894       -21.3853
  33   2.0000      -0.768018       -20.8988
  34   2.0000      -0.707559       -19.2537
  35   2.0000      -0.698590       -19.0096
  36   2.0000      -0.682986       -18.5850
  37   2.0000      -0.659027       -17.9330
  38   2.0000      -0.639685       -17.4067
  39   2.0000      -0.614250       -16.7146
  40   2.0000      -0.587360       -15.9829
  41   2.0000      -0.575953       -15.6725
  42   2.0000      -0.554015       -15.0755
  43   2.0000      -0.548495       -14.9253
  44   2.0000      -0.543868       -14.7994
  45   2.0000      -0.541701       -14.7404
  46   2.0000      -0.525045       -14.2872
  47   2.0000      -0.512337       -13.9414
  48   2.0000      -0.494490       -13.4557
  49   2.0000      -0.491653       -13.3786
  50   2.0000      -0.486975       -13.2513
  51   2.0000      -0.477718       -12.9994
  52   2.0000      -0.466492       -12.6939
  53   2.0000      -0.461343       -12.5538
  54   2.0000      -0.457814       -12.4577
  55   2.0000      -0.452053       -12.3010
  56   2.0000      -0.448821       -12.2130
  57   2.0000      -0.430297       -11.7090
  58   2.0000      -0.428138       -11.6502
  59   2.0000      -0.425482       -11.5779
  60   2.0000      -0.418611       -11.3910
  61   2.0000      -0.416230       -11.3262
  62   2.0000      -0.403180       -10.9711
  63   2.0000      -0.337968        -9.1966
  64   2.0000      -0.335592        -9.1319
  65   2.0000      -0.326612        -8.8876
  66   2.0000      -0.289662        -7.8821
  67   0.0000       0.030843         0.8393
  68   0.0000       0.059826         1.6280
  69   0.0000       0.098815         2.6889
  70   0.0000       0.114135         3.1058
  71   0.0000       0.129820         3.5326

MULLIKEN ATOMIC CHARGES
-----------------------
   0 S :    0.126421
   1 C :   -0.137051
   2 C :   -0.083745
   3 C :    0.015978
   4 C :   -0.148906
   5 H :    0.016454
   6 C :    0.011191
   7 H :    0.042100
   8 H :    0.032856
   9 C :    0.002428
  10 H :    0.019818
  11 H :    0.020804
  12 C :   -0.018317
  13 H :    0.027985
  14 H :    0.023579
  15 H :    0.018745
  16 S :    0.111023
  17 C :   -0.098319
  18 C :   -0.045201
  19 C :   -0.017123
  20 C :   -0.169428
  21 H :    0.032873
  22 C :    0.004877
  23 H :    0.037057
  24 H :    0.029177
  25 C :   -0.049095
  26 H :    0.030347
  27 H :    0.030831
  28 C :   -0.061131
  29 H :    0.038811
  30 H :    0.026931
  31 H :    0.034414
  32 H :    0.041182
  33 H :    0.052437
Sum of atomic charges:    0.0000000

LOEWDIN ATOMIC CHARGES
----------------------
   0 S :    0.436561
   1 C :   -0.192341
   2 C :   -0.068490
   3 C :   -0.064707
   4 C :   -0.206089
   5 H :    0.033473
   6 C :   -0.037275
   7 H :    0.036530
   8 H :    0.037282
   9 C :   -0.035986
  10 H :    0.032219
  11 H :    0.017696
  12 C :   -0.059355
  13 H :    0.022761
  14 H :    0.031940
  15 H :    0.018759
  16 S :    0.396863
  17 C :   -0.176010
  18 C :   -0.069233
  19 C :   -0.056989
  20 C :   -0.199454
  21 H :    0.037788
  22 C :   -0.045314
  23 H :    0.036210
  24 H :    0.027996
  25 C :   -0.039591
  26 H :    0.028759
  27 H :    0.022241
  28 C :   -0.077830
  29 H :    0.024730
  30 H :    0.026493
  31 H :    0.015737
  32 H :    0.020164
  33 H :    0.024462

  Mayer bond orders larger than 0.100000
B(  0-S ,  1-C ) :   1.1491 B(  0-S ,  4-C ) :   1.1683 B(  1-C ,  2-C ) :   1.5817
B(  1-C , 32-H ) :   0.9705 B(  2-C ,  3-C ) :   1.2668 B(  2-C ,  6-C ) :   1.0013
B(  3-C ,  4-C ) :   1.5431 B(  3-C ,  5-H ) :   0.9953 B(  4-C , 20-C ) :   1.0302
B(  6-C ,  7-H ) :   0.9407 B(  6-C ,  8-H ) :   0.9428 B(  6-C ,  9-C ) :   1.0682
B(  9-C , 10-H ) :   0.9441 B(  9-C , 11-H ) :   0.9542 B(  9-C , 12-C ) :   1.1080
B( 12-C , 13-H ) :   0.9638 B( 12-C , 14-H ) :   0.9624 B( 12-C , 15-H ) :   0.9715
B( 16-S , 17-C ) :   1.1587 B( 16-S , 20-C ) :   1.1375 B( 17-C , 18-C ) :   1.6034
B( 17-C , 20-C ) :   0.1074 B( 17-C , 33-H ) :   0.9662 B( 18-C , 19-C ) :   1.2366
B( 18-C , 21-H ) :   0.9903 B( 19-C , 20-C ) :   1.5715 B( 19-C , 22-C ) :   1.0407
B( 22-C , 23-H ) :   0.9385 B( 22-C , 24-H ) :   0.9413 B( 22-C , 25-C ) :   1.0691
B( 25-C , 26-H ) :   0.9536 B( 25-C , 27-H ) :   0.9542 B( 25-C , 28-C ) :   1.0790
B( 28-C , 29-H ) :   0.9705 B( 28-C , 30-H ) :   0.9689 B( 28-C , 31-H ) :   0.9679

Dispersion correction           -0.015478153
FINAL SINGLE POINT ENERGY     -1339.876817713187

DIPOLE MOMENT
-------------
                                X             Y             Z
Electronic contribution:      8.32163       6.53566       3.43591
Nuclear contribution   :     -8.38628      -6.73896      -3.35036
                        -----------------------------------------
Total Dipole Moment    :     -0.06465      -0.20331       0.08555
                        -----------------------------------------
Magnitude (a.u.)       :      0.22985
Magnitude (Debye)      :      0.58423

Rotational constants in cm-1:     0.024224     0.008287     0.006845
Rotational constants in MHz :   726.230781   248.434816   205.217671

                             ****ORCA TERMINATED NORMALLY****
TOTAL RUN TIME: 0 days 0 hours 0 minutes 34 seconds 519 msec
