                         Program Version 4.2.1 -  RELEASE  -
|  1> ! wB97X-D3 SP def2-SVP
|  2> %pal
|  3> nprocs 16
|  4> end
|  5>
|  6> * xyz 0 1
|  7> S 	 -1.09728 	 -15.5843 	 85.064
|  8> C 	 -2.09483 	 -16.5764 	 84.0613
|  9> C 	 -2.1593 	 -16.0879 	 82.7945
| 10> C 	 -1.11008 	 -15.1439 	 82.5767
| 11> C 	 -0.395535 	 -14.812 	 83.7266
| 12> H 	 -0.945897 	 -14.6449 	 81.6706
| 13> C 	 -3.1224 	 -16.447 	 81.6904
| 14> H 	 -2.72012 	 -16.0209 	 80.706
| 15> H 	 -4.06682 	 -15.9344 	 81.8504
| 16> C 	 -3.21393 	 -17.9045 	 81.386
| 17> H 	 -2.24111 	 -18.48 	 81.516
| 18> H 	 -3.80597 	 -18.3231 	 82.1175
| 19> C 	 -3.73162 	 -18.2595 	 79.9918
| 20> H 	 -3.21778 	 -17.7733 	 79.1425
| 21> H 	 -3.75364 	 -19.3042 	 79.8434
| 22> H 	 -4.75219 	 -17.9342 	 79.8317
| 23> S 	 1.93691 	 -13.8602 	 84.7533
| 24> C 	 2.11316 	 -12.1797 	 85.0702
| 25> C 	 1.33303 	 -11.4795 	 84.1558
| 26> C 	 0.339556 	 -12.3109 	 83.4998
| 27> C 	 0.46234 	 -13.6687 	 83.9189
| 28> H 	 1.44722 	 -10.4025 	 83.9766
| 29> C 	 -0.807449 	 -11.7807 	 82.7698
| 30> H 	 -1.68307 	 -12.0889 	 83.3155
| 31> H 	 -0.979834 	 -12.1136 	 81.7544
| 32> C 	 -0.916699 	 -10.2365 	 82.7199
| 33> H 	 -0.794881 	 -9.89402 	 83.749
| 34> H 	 -1.98291 	 -10.0513 	 82.5056
| 35> C 	 0.0561902 	 -9.50836 	 81.6971
| 36> H 	 0.993117 	 -10.0169 	 81.6969
| 37> H 	 0.233617 	 -8.49843 	 82.0759
| 38> H 	 -0.4128 	 -9.46282 	 80.7445
| 39> H 	 -2.81923 	 -17.3294 	 84.4063
| 40> H 	 2.96763 	 -11.8119 	 85.5332
| 41> *
| 42>
| 43>                          ****END OF INPUT****

CARTESIAN COORDINATES (ANGSTROEM)
---------------------------------
  S     -1.097280  -15.584300   85.064000
  C     -2.094830  -16.576400   84.061300
  C     -2.159300  -16.087900   82.794500
  C     -1.110080  -15.143900   82.576700
  C     -0.395535  -14.812000   83.726600
  H     -0.945897  -14.644900   81.670600
  C     -3.122400  -16.447000   81.690400
  H     -2.720120  -16.020900   80.706000
  H     -4.066820  -15.934400   81.850400
  C     -3.213930  -17.904500   81.386000
  H     -2.241110  -18.480000   81.516000
  H     -3.805970  -18.323100   82.117500
  C     -3.731620  -18.259500   79.991800
  H     -3.217780  -17.773300   79.142500
  H     -3.753640  -19.304200   79.843400
  H     -4.752190  -17.934200   79.831700
  S      1.936910  -13.860200   84.753300
  C      2.113160  -12.179700   85.070200
  C      1.333030  -11.479500   84.155800
  C      0.339556  -12.310900   83.499800
  C      0.462340  -13.668700   83.918900
  H      1.447220  -10.402500   83.976600
  C     -0.807449  -11.780700   82.769800
  H     -1.683070  -12.088900   83.315500
  H     -0.979834  -12.113600   81.754400
  C     -0.916699  -10.236500   82.719900
  H     -0.794881   -9.894020   83.749000
  H     -1.982910  -10.051300   82.505600
  C      0.056190   -9.508360   81.697100
  H      0.993117  -10.016900   81.696900
  H      0.233617   -8.498430   82.075900
  H     -0.412800   -9.462820   80.744500
  H     -2.819230  -17.329400   84.406300
  H      2.967630  -11.811900   85.533200

 Total Charge           Charge          ....    0
 Multiplicity           Mult            ....    1
 Number of Electrons    NEL             ....  134
 Basis Dimension        Dim             ....  322

ORBITAL ENERGIES
----------------

  NO   OCC          E(Eh)            E(eV)
   0   2.0000     -88.964539     -2420.8482
   1   2.0000     -88.960219     -2420.7306
   2   2.0000     -10.321910      -280.8734
   3   2.0000     -10.321373      -280.8588
   4   2.0000     -10.310132      -280.5529
   5   2.0000     -10.309857      -280.5455
   6   2.0000     -10.303821      -280.3812
   7   2.0000     -10.298170      -280.2275
   8   2.0000     -10.296510      -280.1823
   9   2.0000     -10.295292      -280.1491
  10   2.0000     -10.287737      -279.9436
  11   2.0000     -10.287479      -279.9365
  12   2.0000     -10.283267      -279.8219
  13   2.0000     -10.283200      -279.8201
  14   2.0000     -10.278262      -279.6857
  15   2.0000     -10.276096      -279.6268
  16   2.0000      -8.080639      -219.8854
  17   2.0000      -8.076494      -219.7726
  18   2.0000      -6.039031      -164.3304
  19   2.0000      -6.034972      -164.2199
  20   2.0000      -6.034713      -164.2129
  21   2.0000      -6.031391      -164.1225
  22   2.0000      -6.030874      -164.1084
  23   2.0000      -6.027375      -164.0132
  24   2.0000      -1.015450       -27.6318
  25   2.0000      -0.991670       -26.9847
  26   2.0000      -0.919656       -25.0251
  27   2.0000      -0.911202       -24.7951
  28   2.0000      -0.873376       -23.7658
  29   2.0000      -0.851478       -23.1699
  30   2.0000      -0.840593       -22.8737
  31   2.0000      -0.814638       -22.1674
  32   2.0000      -0.788152       -21.4467
  33   2.0000      -0.777119       -21.1465
  34   2.0000      -0.710144       -19.3240
  35   2.0000      -0.706126       -19.2147
  36   2.0000      -0.696118       -18.9423
  37   2.0000      -0.653589       -17.7850
  38   2.0000      -0.640027       -17.4160
  39   2.0000      -0.619580       -16.8596
  40   2.0000      -0.606265       -16.4973
  41   2.0000      -0.576302       -15.6820
  42   2.0000      -0.566959       -15.4277
  43   2.0000      -0.553163       -15.0523
  44   2.0000      -0.533642       -14.5211
  45   2.0000      -0.529842       -14.4177
  46   2.0000      -0.522339       -14.2136
  47   2.0000      -0.513690       -13.9782
  48   2.0000      -0.503173       -13.6920
  49   2.0000      -0.499890       -13.6027
  50   2.0000      -0.493702       -13.4343
  51   2.0000      -0.483885       -13.1672
  52   2.0000      -0.476877       -12.9765
  53   2.0000      -0.473171       -12.8756
  54   2.0000      -0.461566       -12.5598
  55   2.0000      -0.450793       -12.2667
  56   2.0000      -0.443768       -12.0755
  57   2.0000      -0.440747       -11.9933
  58   2.0000      -0.431649       -11.7458
  59   2.0000      -0.425401       -11.5757
  60   2.0000      -0.420739       -11.4489
  61   2.0000      -0.413740       -11.2584
  62   2.0000      -0.408970       -11.1286
  63   2.0000      -0.339722        -9.2443
  64   2.0000      -0.330924        -9.0049
  65   2.0000      -0.320931        -8.7330
  66   2.0000      -0.293184        -7.9779
  67   0.0000       0.023916         0.6508
  68   0.0000       0.071188         1.9371
  69   0.0000       0.107662         2.9296
  70   0.0000       0.120082         3.2676
  71   0.0000       0.142286         3.8718

MULLIKEN ATOMIC CHARGES
-----------------------
   0 S :    0.129852
   1 C :   -0.122043
   2 C :   -0.097863
   3 C :    0.030423
   4 C :   -0.121015
   5 H :   -0.015109
   6 C :    0.068083
   7 H :    0.019493
   8 H :    0.045928
   9 C :   -0.074598
  10 H :    0.043530
  11 H :    0.007487
  12 C :   -0.035482
  13 H :    0.032899
  14 H :    0.026704
  15 H :    0.015593
  16 S :    0.115539
  17 C :   -0.055588
  18 C :   -0.066253
  19 C :   -0.013730
  20 C :   -0.188061
  21 H :    0.032619
  22 C :    0.055130
  23 H :    0.035257
  24 H :    0.028157
  25 C :   -0.122125
  26 H :    0.027070
  27 H :    0.027072
  28 C :   -0.026430
  29 H :    0.034328
  30 H :    0.035786
  31 H :    0.037200
  32 H :    0.051162
  33 H :    0.038987
Sum of atomic charges:    0.0000000

LOEWDIN ATOMIC CHARGES
----------------------
   0 S :    0.448195
   1 C :   -0.209304
   2 C :   -0.063317
   3 C :   -0.053304
   4 C :   -0.219638
   5 H :    0.018788
   6 C :   -0.032925
   7 H :    0.034517
   8 H :    0.034772
   9 C :   -0.044729
  10 H :    0.037095
  11 H :    0.011402
  12 C :   -0.063697
  13 H :    0.027722
  14 H :    0.022473
  15 H :    0.022156
  16 S :    0.440671
  17 C :   -0.189895
  18 C :   -0.071923
  19 C :   -0.054357
  20 C :   -0.220605
  21 H :    0.034055
  22 C :   -0.042032
  23 H :    0.040960
  24 H :    0.027431
  25 C :   -0.041335
  26 H :    0.019239
  27 H :    0.025396
  28 C :   -0.060800
  29 H :    0.021551
  30 H :    0.029998
  31 H :    0.024297
  32 H :    0.032490
  33 H :    0.014654

  Mayer bond orders larger than 0.100000
B(  0-S ,  1-C ) :   1.1505 B(  0-S ,  4-C ) :   1.1834 B(  1-C ,  2-C ) :   1.5914
B(  1-C , 32-H ) :   0.9680 B(  2-C ,  3-C ) :   1.2776 B(  2-C ,  6-C ) :   1.0153
B(  3-C ,  4-C ) :   1.5181 B(  3-C ,  5-H ) :   1.0132 B(  4-C , 20-C ) :   1.0529
B(  6-C ,  7-H ) :   0.9510 B(  6-C ,  8-H ) :   0.9285 B(  6-C ,  9-C ) :   1.0573
B(  9-C , 10-H ) :   0.9596 B(  9-C , 11-H ) :   0.9449 B(  9-C , 12-C ) :   1.0972
B( 12-C , 13-H ) :   0.9737 B( 12-C , 14-H ) :   0.9737 B( 12-C , 15-H ) :   0.9704
B( 16-S , 17-C ) :   1.1748 B( 16-S , 20-C ) :   1.1818 B( 17-C , 18-C ) :   1.5524
B( 17-C , 20-C ) :   0.1058 B( 17-C , 33-H ) :   0.9736 B( 18-C , 19-C ) :   1.2840
B( 18-C , 21-H ) :   0.9782 B( 19-C , 20-C ) :   1.5103 B( 19-C , 22-C ) :   1.0597
B( 22-C , 23-H ) :   0.9187 B( 22-C , 24-H ) :   0.9249 B( 22-C , 25-C ) :   1.0976
B( 25-C , 26-H ) :   0.9535 B( 25-C , 27-H ) :   0.9586 B( 25-C , 28-C ) :   1.0540
B( 28-C , 29-H ) :   0.9813 B( 28-C , 30-H ) :   0.9771 B( 28-C , 31-H ) :   0.9764

Dispersion correction           -0.013891914
FINAL SINGLE POINT ENERGY     -1339.858259747798

DIPOLE MOMENT
-------------
                                X             Y             Z
Electronic contribution:     15.42442      -4.87170      21.54987
Nuclear contribution   :    -15.97752       5.14049     -22.05658
                        -----------------------------------------
Total Dipole Moment    :     -0.55310       0.26879      -0.50671
                        -----------------------------------------
Magnitude (a.u.)       :      0.79682
Magnitude (Debye)      :      2.02536

Rotational constants in cm-1:     0.021069     0.007483     0.005993
Rotational constants in MHz :   631.631494   224.339582   179.666254

                             ****ORCA TERMINATED NORMALLY****
TOTAL RUN TIME: 0 days 0 hours 0 minutes 33 seconds 742 msec
