                         Program Version 4.2.1 -  RELEASE  -
|  1> ! wB97X-D3 SP def2-SVP
|  2> %pal
|  3> nprocs 16
|  4> end
|  5>
|  6> * xyz 0 1
|  7> S 	 -28.5911 	 66.7936 	 108.642
|  8> C 	 -29.3338 	 66.3693 	 107.17
|  9> C 	 -30.6957 	 66.5283 	 107.256
| 10> C 	 -31.1274 	 66.9537 	 108.563
| 11> C 	 -30.1173 	 66.9473 	 109.504
| 12> H 	 -32.1419 	 67.228 	 108.69
| 13> C 	 -31.6839 	 66.5106 	 106.068
| 14> H 	 -32.4906 	 65.8091 	 106.32
| 15> H 	 -31.2415 	 66.1549 	 105.178
| 16> C 	 -32.2439 	 67.9138 	 105.86
| 17> H 	 -32.7776 	 68.373 	 106.696
| 18> H 	 -31.4851 	 68.5988 	 105.718
| 19> C 	 -33.3728 	 67.809 	 104.789
| 20> H 	 -32.924 	 67.6624 	 103.815
| 21> H 	 -34.147 	 67.0377 	 105.018
| 22> H 	 -33.8357 	 68.7717 	 104.703
| 23> S 	 -29.6061 	 66.5452 	 112.184
| 24> C 	 -30.14 	 67.7026 	 113.3
| 25> C 	 -30.8793 	 68.6909 	 112.695
| 26> C 	 -30.8378 	 68.6246 	 111.267
| 27> C 	 -30.2474 	 67.4549 	 110.841
| 28> H 	 -31.312 	 69.4912 	 113.25
| 29> C 	 -31.485 	 69.6891 	 110.441
| 30> H 	 -32.1118 	 70.2286 	 111.032
| 31> H 	 -32.0928 	 69.2361 	 109.648
| 32> C 	 -30.57 	 70.6233 	 109.67
| 33> H 	 -29.7456 	 70.0737 	 109.153
| 34> H 	 -30.0228 	 71.2527 	 110.333
| 35> C 	 -31.2417 	 71.4413 	 108.565
| 36> H 	 -30.6116 	 72.0905 	 107.937
| 37> H 	 -31.9887 	 72.0236 	 109.005
| 38> H 	 -31.8879 	 70.8451 	 107.987
| 39> H 	 -28.884 	 66.1856 	 106.186
| 40> H 	 -30.0554 	 67.6866 	 114.329
| 41> *
| 42>
| 43>                          ****END OF INPUT****

CARTESIAN COORDINATES (ANGSTROEM)
---------------------------------
  S    -28.591100   66.793600  108.642000
  C    -29.333800   66.369300  107.170000
  C    -30.695700   66.528300  107.256000
  C    -31.127400   66.953700  108.563000
  C    -30.117300   66.947300  109.504000
  H    -32.141900   67.228000  108.690000
  C    -31.683900   66.510600  106.068000
  H    -32.490600   65.809100  106.320000
  H    -31.241500   66.154900  105.178000
  C    -32.243900   67.913800  105.860000
  H    -32.777600   68.373000  106.696000
  H    -31.485100   68.598800  105.718000
  C    -33.372800   67.809000  104.789000
  H    -32.924000   67.662400  103.815000
  H    -34.147000   67.037700  105.018000
  H    -33.835700   68.771700  104.703000
  S    -29.606100   66.545200  112.184000
  C    -30.140000   67.702600  113.300000
  C    -30.879300   68.690900  112.695000
  C    -30.837800   68.624600  111.267000
  C    -30.247400   67.454900  110.841000
  H    -31.312000   69.491200  113.250000
  C    -31.485000   69.689100  110.441000
  H    -32.111800   70.228600  111.032000
  H    -32.092800   69.236100  109.648000
  C    -30.570000   70.623300  109.670000
  H    -29.745600   70.073700  109.153000
  H    -30.022800   71.252700  110.333000
  C    -31.241700   71.441300  108.565000
  H    -30.611600   72.090500  107.937000
  H    -31.988700   72.023600  109.005000
  H    -31.887900   70.845100  107.987000
  H    -28.884000   66.185600  106.186000
  H    -30.055400   67.686600  114.329000

 Total Charge           Charge          ....    0
 Multiplicity           Mult            ....    1
 Number of Electrons    NEL             ....  134
 Basis Dimension        Dim             ....  322

ORBITAL ENERGIES
----------------

  NO   OCC          E(Eh)            E(eV)
   0   2.0000     -88.965529     -2420.8751
   1   2.0000     -88.964343     -2420.8428
   2   2.0000     -10.326214      -280.9906
   3   2.0000     -10.320595      -280.8377
   4   2.0000     -10.309790      -280.5436
   5   2.0000     -10.307407      -280.4788
   6   2.0000     -10.299402      -280.2610
   7   2.0000     -10.295606      -280.1577
   8   2.0000     -10.291599      -280.0486
   9   2.0000     -10.290815      -280.0273
  10   2.0000     -10.287750      -279.9439
  11   2.0000     -10.283664      -279.8327
  12   2.0000     -10.283280      -279.8223
  13   2.0000     -10.280718      -279.7526
  14   2.0000     -10.280375      -279.7432
  15   2.0000     -10.269255      -279.4406
  16   2.0000      -8.081377      -219.9054
  17   2.0000      -8.079493      -219.8542
  18   2.0000      -6.039760      -164.3502
  19   2.0000      -6.038053      -164.3038
  20   2.0000      -6.035657      -164.2386
  21   2.0000      -6.033960      -164.1924
  22   2.0000      -6.032279      -164.1466
  23   2.0000      -6.030130      -164.0882
  24   2.0000      -1.012747       -27.5583
  25   2.0000      -0.990841       -26.9622
  26   2.0000      -0.915948       -24.9242
  27   2.0000      -0.914136       -24.8749
  28   2.0000      -0.874647       -23.8004
  29   2.0000      -0.856295       -23.3010
  30   2.0000      -0.845069       -22.9955
  31   2.0000      -0.815348       -22.1867
  32   2.0000      -0.787521       -21.4295
  33   2.0000      -0.772374       -21.0174
  34   2.0000      -0.716086       -19.4857
  35   2.0000      -0.705988       -19.2109
  36   2.0000      -0.697387       -18.9769
  37   2.0000      -0.667882       -18.1740
  38   2.0000      -0.637937       -17.3591
  39   2.0000      -0.629087       -17.1183
  40   2.0000      -0.602557       -16.3964
  41   2.0000      -0.572521       -15.5791
  42   2.0000      -0.568368       -15.4661
  43   2.0000      -0.562029       -15.2936
  44   2.0000      -0.528516       -14.3816
  45   2.0000      -0.527639       -14.3578
  46   2.0000      -0.516181       -14.0460
  47   2.0000      -0.511431       -13.9168
  48   2.0000      -0.506967       -13.7953
  49   2.0000      -0.503507       -13.7011
  50   2.0000      -0.494644       -13.4600
  51   2.0000      -0.491229       -13.3670
  52   2.0000      -0.470110       -12.7923
  53   2.0000      -0.469409       -12.7733
  54   2.0000      -0.461688       -12.5632
  55   2.0000      -0.457264       -12.4428
  56   2.0000      -0.448017       -12.1912
  57   2.0000      -0.444474       -12.0948
  58   2.0000      -0.436040       -11.8653
  59   2.0000      -0.428304       -11.6547
  60   2.0000      -0.423999       -11.5376
  61   2.0000      -0.409458       -11.1419
  62   2.0000      -0.406730       -11.0677
  63   2.0000      -0.344077        -9.3628
  64   2.0000      -0.331772        -9.0280
  65   2.0000      -0.324917        -8.8414
  66   2.0000      -0.295882        -8.0514
  67   0.0000       0.033317         0.9066
  68   0.0000       0.071381         1.9424
  69   0.0000       0.114752         3.1226
  70   0.0000       0.123698         3.3660
  71   0.0000       0.130699         3.5565

MULLIKEN ATOMIC CHARGES
-----------------------
   0 S :    0.113746
   1 C :   -0.107409
   2 C :   -0.120622
   3 C :    0.016035
   4 C :   -0.102265
   5 H :    0.004171
   6 C :    0.103417
   7 H :    0.029867
   8 H :    0.006156
   9 C :   -0.091117
  10 H :    0.027689
  11 H :    0.017849
  12 C :   -0.038274
  13 H :    0.026180
  14 H :    0.046004
  15 H :    0.022574
  16 S :    0.132655
  17 C :   -0.046002
  18 C :   -0.044713
  19 C :   -0.034387
  20 C :   -0.189182
  21 H :    0.006698
  22 C :    0.145667
  23 H :   -0.015247
  24 H :    0.000761
  25 C :   -0.076570
  26 H :    0.032693
  27 H :    0.013491
  28 C :    0.008494
  29 H :    0.045651
  30 H :   -0.004645
  31 H :   -0.004319
  32 H :    0.049464
  33 H :    0.025490
Sum of atomic charges:   -0.0000000

LOEWDIN ATOMIC CHARGES
----------------------
   0 S :    0.421241
   1 C :   -0.219624
   2 C :   -0.067151
   3 C :   -0.050043
   4 C :   -0.197088
   5 H :    0.022212
   6 C :   -0.021385
   7 H :    0.032136
   8 H :    0.021765
   9 C :   -0.034889
  10 H :    0.022676
  11 H :    0.015877
  12 C :   -0.062240
  13 H :    0.021434
  14 H :    0.032617
  15 H :    0.021248
  16 S :    0.438555
  17 C :   -0.189665
  18 C :   -0.068692
  19 C :   -0.045676
  20 C :   -0.208819
  21 H :    0.025579
  22 C :   -0.021349
  23 H :    0.015317
  24 H :    0.030843
  25 C :   -0.035583
  26 H :    0.027968
  27 H :    0.016408
  28 C :   -0.062373
  29 H :    0.032979
  30 H :    0.016059
  31 H :    0.016365
  32 H :    0.036410
  33 H :    0.016889

  Mayer bond orders larger than 0.100000
B(  0-S ,  1-C ) :   1.1453 B(  0-S ,  4-C ) :   1.1489 B(  1-C ,  2-C ) :   1.6107
B(  1-C , 32-H ) :   0.9621 B(  2-C ,  3-C ) :   1.2603 B(  2-C ,  6-C ) :   1.0256
B(  3-C ,  4-C ) :   1.5377 B(  3-C ,  5-H ) :   1.0055 B(  4-C , 20-C ) :   1.0476
B(  6-C ,  7-H ) :   0.9384 B(  6-C ,  8-H ) :   0.9452 B(  6-C ,  9-C ) :   1.0561
B(  9-C , 10-H ) :   0.9553 B(  9-C , 11-H ) :   0.9581 B(  9-C , 12-C ) :   1.0739
B( 12-C , 13-H ) :   0.9762 B( 12-C , 14-H ) :   0.9749 B( 12-C , 15-H ) :   0.9743
B( 16-S , 17-C ) :   1.1724 B( 16-S , 20-C ) :   1.1446 B( 17-C , 18-C ) :   1.5952
B( 17-C , 33-H ) :   0.9734 B( 18-C , 19-C ) :   1.2587 B( 18-C , 21-H ) :   0.9899
B( 19-C , 20-C ) :   1.5810 B( 19-C , 22-C ) :   1.0563 B( 22-C , 23-H ) :   0.9166
B( 22-C , 24-H ) :   0.9280 B( 22-C , 25-C ) :   1.0546 B( 25-C , 26-H ) :   0.9591
B( 25-C , 27-H ) :   0.9516 B( 25-C , 28-C ) :   1.0808 B( 28-C , 29-H ) :   0.9741
B( 28-C , 30-H ) :   0.9643 B( 28-C , 31-H ) :   0.9666

Dispersion correction           -0.015410836
FINAL SINGLE POINT ENERGY     -1339.868288053777

DIPOLE MOMENT
-------------
                                X             Y             Z
Electronic contribution:     17.99937     -17.09607      20.61392
Nuclear contribution   :    -18.55574      17.63309     -20.96091
                        -----------------------------------------
Total Dipole Moment    :     -0.55636       0.53703      -0.34699
                        -----------------------------------------
Magnitude (a.u.)       :      0.84755
Magnitude (Debye)      :      2.15430

Rotational constants in cm-1:     0.019471     0.009333     0.007398
Rotational constants in MHz :   583.711502   279.796645   221.799109

                             ****ORCA TERMINATED NORMALLY****
TOTAL RUN TIME: 0 days 0 hours 0 minutes 32 seconds 278 msec
