                         Program Version 4.2.1 -  RELEASE  -
|  1> ! wB97X-D3 SP def2-SVP
|  2> %pal
|  3> nprocs 16
|  4> end
|  5>
|  6> * xyz 0 1
|  7> S 	 -23.6168 	 58.4941 	 112.532
|  8> C 	 -22.9699 	 59.7452 	 111.53
|  9> C 	 -23.8593 	 60.0751 	 110.532
| 10> C 	 -25.0867 	 59.3732 	 110.727
| 11> C 	 -25.0942 	 58.3941 	 111.702
| 12> H 	 -25.9643 	 59.4032 	 110.147
| 13> C 	 -23.6295 	 61.0165 	 109.343
| 14> H 	 -22.7446 	 61.5573 	 109.579
| 15> H 	 -24.433 	 61.7395 	 109.369
| 16> C 	 -23.3581 	 60.4928 	 107.894
| 17> H 	 -24.3006 	 60.1817 	 107.451
| 18> H 	 -22.9886 	 61.2899 	 107.317
| 19> C 	 -22.3016 	 59.3876 	 107.79
| 20> H 	 -22.3007 	 59.1635 	 106.741
| 21> H 	 -21.351 	 59.6767 	 108.199
| 22> H 	 -22.7144 	 58.4846 	 108.226
| 23> S 	 -25.4914 	 55.6637 	 111.554
| 24> C 	 -26.9998 	 54.958 	 112.162
| 25> C 	 -27.9564 	 55.9416 	 112.471
| 26> C 	 -27.4046 	 57.257 	 112.257
| 27> C 	 -26.0611 	 57.326 	 111.941
| 28> H 	 -28.966 	 55.6666 	 112.726
| 29> C 	 -28.3524 	 58.4522 	 112.447
| 30> H 	 -27.8207 	 59.4299 	 112.672
| 31> H 	 -28.9128 	 58.1705 	 113.362
| 32> C 	 -29.491 	 58.6892 	 111.362
| 33> H 	 -30.1585 	 59.4968 	 111.642
| 34> H 	 -30.0168 	 57.7078 	 111.446
| 35> C 	 -28.8803 	 59.0981 	 110.081
| 36> H 	 -28.4704 	 60.0465 	 110.253
| 37> H 	 -29.635 	 59.194 	 109.355
| 38> H 	 -28.1153 	 58.3613 	 109.752
| 39> H 	 -21.962 	 60.1052 	 111.545
| 40> H 	 -27.1566 	 53.8975 	 112.115
| 41> *
| 42>
| 43>                          ****END OF INPUT****

CARTESIAN COORDINATES (ANGSTROEM)
---------------------------------
  S    -23.616800   58.494100  112.532000
  C    -22.969900   59.745200  111.530000
  C    -23.859300   60.075100  110.532000
  C    -25.086700   59.373200  110.727000
  C    -25.094200   58.394100  111.702000
  H    -25.964300   59.403200  110.147000
  C    -23.629500   61.016500  109.343000
  H    -22.744600   61.557300  109.579000
  H    -24.433000   61.739500  109.369000
  C    -23.358100   60.492800  107.894000
  H    -24.300600   60.181700  107.451000
  H    -22.988600   61.289900  107.317000
  C    -22.301600   59.387600  107.790000
  H    -22.300700   59.163500  106.741000
  H    -21.351000   59.676700  108.199000
  H    -22.714400   58.484600  108.226000
  S    -25.491400   55.663700  111.554000
  C    -26.999800   54.958000  112.162000
  C    -27.956400   55.941600  112.471000
  C    -27.404600   57.257000  112.257000
  C    -26.061100   57.326000  111.941000
  H    -28.966000   55.666600  112.726000
  C    -28.352400   58.452200  112.447000
  H    -27.820700   59.429900  112.672000
  H    -28.912800   58.170500  113.362000
  C    -29.491000   58.689200  111.362000
  H    -30.158500   59.496800  111.642000
  H    -30.016800   57.707800  111.446000
  C    -28.880300   59.098100  110.081000
  H    -28.470400   60.046500  110.253000
  H    -29.635000   59.194000  109.355000
  H    -28.115300   58.361300  109.752000
  H    -21.962000   60.105200  111.545000
  H    -27.156600   53.897500  112.115000

 Total Charge           Charge          ....    0
 Multiplicity           Mult            ....    1
 Number of Electrons    NEL             ....  134
 Basis Dimension        Dim             ....  322

ORBITAL ENERGIES
----------------

  NO   OCC          E(Eh)            E(eV)
   0   2.0000     -88.964424     -2420.8450
   1   2.0000     -88.963333     -2420.8154
   2   2.0000     -10.332661      -281.1660
   3   2.0000     -10.325516      -280.9716
   4   2.0000     -10.324719      -280.9499
   5   2.0000     -10.310988      -280.5762
   6   2.0000     -10.310783      -280.5707
   7   2.0000     -10.301914      -280.3293
   8   2.0000     -10.301186      -280.3095
   9   2.0000     -10.296179      -280.1733
  10   2.0000     -10.289548      -279.9928
  11   2.0000     -10.288702      -279.9698
  12   2.0000     -10.286343      -279.9056
  13   2.0000     -10.283745      -279.8349
  14   2.0000     -10.271592      -279.5042
  15   2.0000     -10.267856      -279.4026
  16   2.0000      -8.079370      -219.8508
  17   2.0000      -8.078359      -219.8233
  18   2.0000      -6.037769      -164.2961
  19   2.0000      -6.036965      -164.2742
  20   2.0000      -6.033498      -164.1798
  21   2.0000      -6.033012      -164.1666
  22   2.0000      -6.030330      -164.0936
  23   2.0000      -6.029017      -164.0579
  24   2.0000      -1.009944       -27.4820
  25   2.0000      -0.982063       -26.7233
  26   2.0000      -0.909600       -24.7515
  27   2.0000      -0.907646       -24.6983
  28   2.0000      -0.870906       -23.6986
  29   2.0000      -0.851760       -23.1776
  30   2.0000      -0.846815       -23.0430
  31   2.0000      -0.814905       -22.1747
  32   2.0000      -0.785242       -21.3675
  33   2.0000      -0.774181       -21.0665
  34   2.0000      -0.708054       -19.2671
  35   2.0000      -0.696480       -18.9522
  36   2.0000      -0.689165       -18.7531
  37   2.0000      -0.662887       -18.0381
  38   2.0000      -0.646156       -17.5828
  39   2.0000      -0.616952       -16.7881
  40   2.0000      -0.592396       -16.1199
  41   2.0000      -0.570414       -15.5217
  42   2.0000      -0.559354       -15.2208
  43   2.0000      -0.556020       -15.1301
  44   2.0000      -0.547946       -14.9104
  45   2.0000      -0.545271       -14.8376
  46   2.0000      -0.522358       -14.2141
  47   2.0000      -0.514697       -14.0056
  48   2.0000      -0.506113       -13.7720
  49   2.0000      -0.499218       -13.5844
  50   2.0000      -0.486989       -13.2516
  51   2.0000      -0.478830       -13.0296
  52   2.0000      -0.469010       -12.7624
  53   2.0000      -0.467944       -12.7334
  54   2.0000      -0.459892       -12.5143
  55   2.0000      -0.446497       -12.1498
  56   2.0000      -0.439115       -11.9489
  57   2.0000      -0.433561       -11.7978
  58   2.0000      -0.431791       -11.7496
  59   2.0000      -0.423741       -11.5306
  60   2.0000      -0.417472       -11.3600
  61   2.0000      -0.415580       -11.3085
  62   2.0000      -0.411595       -11.2001
  63   2.0000      -0.340526        -9.2662
  64   2.0000      -0.330928        -9.0050
  65   2.0000      -0.324542        -8.8312
  66   2.0000      -0.300912        -8.1882
  67   0.0000       0.032610         0.8874
  68   0.0000       0.063171         1.7190
  69   0.0000       0.105087         2.8596
  70   0.0000       0.121675         3.3110
  71   0.0000       0.128884         3.5071

MULLIKEN ATOMIC CHARGES
-----------------------
   0 S :    0.122654
   1 C :   -0.109925
   2 C :   -0.106875
   3 C :    0.068624
   4 C :   -0.173438
   5 H :   -0.038046
   6 C :    0.093627
   7 H :   -0.001886
   8 H :    0.029680
   9 C :   -0.064301
  10 H :    0.024864
  11 H :    0.021554
  12 C :   -0.027459
  13 H :    0.025739
  14 H :    0.033634
  15 H :    0.037039
  16 S :    0.090421
  17 C :   -0.090139
  18 C :   -0.027135
  19 C :   -0.017984
  20 C :   -0.149482
  21 H :    0.026334
  22 C :   -0.007981
  23 H :    0.039718
  24 H :    0.028994
  25 C :   -0.080700
  26 H :    0.033206
  27 H :    0.027215
  28 C :   -0.003526
  29 H :    0.019437
  30 H :    0.021366
  31 H :    0.054647
  32 H :    0.039775
  33 H :    0.060350
Sum of atomic charges:    0.0000000

LOEWDIN ATOMIC CHARGES
----------------------
   0 S :    0.442906
   1 C :   -0.201651
   2 C :   -0.065330
   3 C :   -0.059392
   4 C :   -0.220200
   5 H :    0.018330
   6 C :   -0.030370
   7 H :    0.023004
   8 H :    0.031544
   9 C :   -0.031021
  10 H :    0.020973
  11 H :    0.019169
  12 C :   -0.057288
  13 H :    0.027386
  14 H :    0.021973
  15 H :    0.028114
  16 S :    0.377558
  17 C :   -0.163338
  18 C :   -0.070508
  19 C :   -0.054548
  20 C :   -0.187491
  21 H :    0.032691
  22 C :   -0.039979
  23 H :    0.031228
  24 H :    0.031201
  25 C :   -0.037541
  26 H :    0.025928
  27 H :    0.022759
  28 C :   -0.059454
  29 H :    0.020589
  30 H :    0.020245
  31 H :    0.031475
  32 H :    0.026262
  33 H :    0.024776

  Mayer bond orders larger than 0.100000
B(  0-S ,  1-C ) :   1.1595 B(  0-S ,  4-C ) :   1.1719 B(  1-C ,  2-C ) :   1.5898
B(  1-C , 32-H ) :   0.9674 B(  2-C ,  3-C ) :   1.2482 B(  2-C ,  6-C ) :   1.0236
B(  3-C ,  4-C ) :   1.5634 B(  3-C ,  5-H ) :   1.0044 B(  4-C , 20-C ) :   1.0201
B(  6-C ,  7-H ) :   0.9333 B(  6-C ,  8-H ) :   0.9405 B(  6-C ,  9-C ) :   1.0680
B(  9-C , 10-H ) :   0.9569 B(  9-C , 11-H ) :   0.9568 B(  9-C , 12-C ) :   1.0837
B( 12-C , 13-H ) :   0.9713 B( 12-C , 14-H ) :   0.9777 B( 12-C , 15-H ) :   0.9721
B( 16-S , 17-C ) :   1.1630 B( 16-S , 20-C ) :   1.1206 B( 17-C , 18-C ) :   1.6001
B( 17-C , 20-C ) :   0.1013 B( 17-C , 33-H ) :   0.9695 B( 18-C , 19-C ) :   1.2180
B( 18-C , 21-H ) :   0.9926 B( 19-C , 20-C ) :   1.6232 B( 19-C , 22-C ) :   1.0360
B( 22-C , 23-H ) :   0.9450 B( 22-C , 24-H ) :   0.9394 B( 22-C , 25-C ) :   1.0638
B( 25-C , 26-H ) :   0.9552 B( 25-C , 27-H ) :   0.9553 B( 25-C , 28-C ) :   1.0821
B( 28-C , 29-H ) :   0.9654 B( 28-C , 30-H ) :   0.9656 B( 28-C , 31-H ) :   0.9692

Dispersion correction           -0.015015840
FINAL SINGLE POINT ENERGY     -1339.868952734053

DIPOLE MOMENT
-------------
                                X             Y             Z
Electronic contribution:      7.97197     -14.18000      16.67273
Nuclear contribution   :     -8.38664      14.43474     -17.14998
                        -----------------------------------------
Total Dipole Moment    :     -0.41467       0.25474      -0.47724
                        -----------------------------------------
Magnitude (a.u.)       :      0.68162
Magnitude (Debye)      :      1.73254

Rotational constants in cm-1:     0.019271     0.008793     0.007472
Rotational constants in MHz :   577.729443   263.613925   223.996192

                             ****ORCA TERMINATED NORMALLY****
TOTAL RUN TIME: 0 days 0 hours 0 minutes 30 seconds 732 msec
