                         Program Version 4.2.1 -  RELEASE  -
|  1> ! wB97X-D3 SP def2-SVP
|  2> %pal
|  3> nprocs 16
|  4> end
|  5>
|  6> * xyz 0 1
|  7> S 	 -78.7573 	 43.4891 	 118.583
|  8> C 	 -79.4087 	 41.8257 	 118.58
|  9> C 	 -78.3791 	 40.9563 	 118.893
| 10> C 	 -77.1021 	 41.5497 	 119.053
| 11> C 	 -77.1357 	 42.8919 	 119.026
| 12> H 	 -76.1793 	 41.017 	 119.429
| 13> C 	 -78.6308 	 39.5121 	 119.28
| 14> H 	 -79.6526 	 39.4289 	 119.654
| 15> H 	 -77.9658 	 39.2797 	 120.099
| 16> C 	 -78.3813 	 38.4192 	 118.23
| 17> H 	 -78.8293 	 37.4108 	 118.43
| 18> H 	 -78.7002 	 38.687 	 117.294
| 19> C 	 -76.8902 	 38.3011 	 118.019
| 20> H 	 -76.4271 	 39.2563 	 117.804
| 21> H 	 -76.3247 	 37.8787 	 118.854
| 22> H 	 -76.5991 	 37.7718 	 117.086
| 23> S 	 -75.9922 	 45.304 	 118.339
| 24> C 	 -74.658 	 45.9432 	 119.192
| 25> C 	 -74.2413 	 45.0326 	 120.197
| 26> C 	 -74.9353 	 43.7879 	 120.156
| 27> C 	 -76.0035 	 43.8382 	 119.297
| 28> H 	 -73.4964 	 45.3253 	 120.893
| 29> C 	 -74.7471 	 42.6934 	 121.23
| 30> H 	 -75.6783 	 42.2265 	 121.369
| 31> H 	 -74.4892 	 43.2767 	 122.11
| 32> C 	 -73.701 	 41.6788 	 120.896
| 33> H 	 -74.0342 	 41.1141 	 119.998
| 34> H 	 -73.5104 	 41.0512 	 121.762
| 35> C 	 -72.338 	 42.3948 	 120.513
| 36> H 	 -71.5184 	 41.6147 	 120.329
| 37> H 	 -72.0225 	 43.1861 	 121.22
| 38> H 	 -72.4548 	 42.9301 	 119.587
| 39> H 	 -80.4179 	 41.5587 	 118.44
| 40> H 	 -74.3079 	 46.9717 	 118.994
| 41> *
| 42>
| 43>                          ****END OF INPUT****

CARTESIAN COORDINATES (ANGSTROEM)
---------------------------------
  S    -78.757300   43.489100  118.583000
  C    -79.408700   41.825700  118.580000
  C    -78.379100   40.956300  118.893000
  C    -77.102100   41.549700  119.053000
  C    -77.135700   42.891900  119.026000
  H    -76.179300   41.017000  119.429000
  C    -78.630800   39.512100  119.280000
  H    -79.652600   39.428900  119.654000
  H    -77.965800   39.279700  120.099000
  C    -78.381300   38.419200  118.230000
  H    -78.829300   37.410800  118.430000
  H    -78.700200   38.687000  117.294000
  C    -76.890200   38.301100  118.019000
  H    -76.427100   39.256300  117.804000
  H    -76.324700   37.878700  118.854000
  H    -76.599100   37.771800  117.086000
  S    -75.992200   45.304000  118.339000
  C    -74.658000   45.943200  119.192000
  C    -74.241300   45.032600  120.197000
  C    -74.935300   43.787900  120.156000
  C    -76.003500   43.838200  119.297000
  H    -73.496400   45.325300  120.893000
  C    -74.747100   42.693400  121.230000
  H    -75.678300   42.226500  121.369000
  H    -74.489200   43.276700  122.110000
  C    -73.701000   41.678800  120.896000
  H    -74.034200   41.114100  119.998000
  H    -73.510400   41.051200  121.762000
  C    -72.338000   42.394800  120.513000
  H    -71.518400   41.614700  120.329000
  H    -72.022500   43.186100  121.220000
  H    -72.454800   42.930100  119.587000
  H    -80.417900   41.558700  118.440000
  H    -74.307900   46.971700  118.994000

 Total Charge           Charge          ....    0
 Multiplicity           Mult            ....    1
 Number of Electrons    NEL             ....  134
 Basis Dimension        Dim             ....  322

ORBITAL ENERGIES
----------------

  NO   OCC          E(Eh)            E(eV)
   0   2.0000     -88.967635     -2420.9324
   1   2.0000     -88.965686     -2420.8794
   2   2.0000     -10.335176      -281.2344
   3   2.0000     -10.329514      -281.0804
   4   2.0000     -10.321611      -280.8653
   5   2.0000     -10.316580      -280.7284
   6   2.0000     -10.304636      -280.4034
   7   2.0000     -10.302547      -280.3465
   8   2.0000     -10.297761      -280.2163
   9   2.0000     -10.295236      -280.1476
  10   2.0000     -10.292836      -280.0823
  11   2.0000     -10.290266      -280.0124
  12   2.0000     -10.288717      -279.9702
  13   2.0000     -10.283654      -279.8324
  14   2.0000     -10.280617      -279.7498
  15   2.0000     -10.272854      -279.5386
  16   2.0000      -8.081317      -219.9038
  17   2.0000      -8.081234      -219.9016
  18   2.0000      -6.039958      -164.3556
  19   2.0000      -6.039629      -164.3467
  20   2.0000      -6.035977      -164.2473
  21   2.0000      -6.035586      -164.2367
  22   2.0000      -6.032334      -164.1482
  23   2.0000      -6.031756      -164.1324
  24   2.0000      -1.009011       -27.4566
  25   2.0000      -0.987126       -26.8611
  26   2.0000      -0.915882       -24.9224
  27   2.0000      -0.914429       -24.8829
  28   2.0000      -0.867482       -23.6054
  29   2.0000      -0.850026       -23.1304
  30   2.0000      -0.842263       -22.9192
  31   2.0000      -0.816682       -22.2230
  32   2.0000      -0.785045       -21.3621
  33   2.0000      -0.771354       -20.9896
  34   2.0000      -0.707328       -19.2474
  35   2.0000      -0.704400       -19.1677
  36   2.0000      -0.691214       -18.8089
  37   2.0000      -0.669313       -18.2129
  38   2.0000      -0.642649       -17.4874
  39   2.0000      -0.618947       -16.8424
  40   2.0000      -0.593412       -16.1476
  41   2.0000      -0.574240       -15.6259
  42   2.0000      -0.566784       -15.4230
  43   2.0000      -0.550293       -14.9742
  44   2.0000      -0.543483       -14.7889
  45   2.0000      -0.540806       -14.7161
  46   2.0000      -0.516559       -14.0563
  47   2.0000      -0.513099       -13.9621
  48   2.0000      -0.506616       -13.7857
  49   2.0000      -0.494434       -13.4542
  50   2.0000      -0.491068       -13.3626
  51   2.0000      -0.480754       -13.0820
  52   2.0000      -0.473139       -12.8748
  53   2.0000      -0.465030       -12.6541
  54   2.0000      -0.458484       -12.4760
  55   2.0000      -0.445294       -12.1171
  56   2.0000      -0.442315       -12.0360
  57   2.0000      -0.434667       -11.8279
  58   2.0000      -0.431128       -11.7316
  59   2.0000      -0.428902       -11.6710
  60   2.0000      -0.423871       -11.5341
  61   2.0000      -0.417640       -11.3646
  62   2.0000      -0.413755       -11.2588
  63   2.0000      -0.354514        -9.6468
  64   2.0000      -0.334252        -9.0955
  65   2.0000      -0.332624        -9.0512
  66   2.0000      -0.291584        -7.9344
  67   0.0000       0.025591         0.6964
  68   0.0000       0.074024         2.0143
  69   0.0000       0.102219         2.7815
  70   0.0000       0.115454         3.1417
  71   0.0000       0.127731         3.4757

MULLIKEN ATOMIC CHARGES
-----------------------
   0 S :    0.092539
   1 C :   -0.097911
   2 C :   -0.095845
   3 C :    0.003744
   4 C :   -0.105008
   5 H :    0.028144
   6 C :    0.056802
   7 H :    0.022343
   8 H :    0.019990
   9 C :    0.011037
  10 H :    0.038586
  11 H :    0.002016
  12 C :   -0.104026
  13 H :    0.025214
  14 H :    0.028348
  15 H :    0.029409
  16 S :    0.108924
  17 C :   -0.111839
  18 C :   -0.035314
  19 C :   -0.066599
  20 C :   -0.150950
  21 H :    0.011164
  22 C :    0.085115
  23 H :    0.020330
  24 H :    0.024948
  25 C :   -0.063327
  26 H :    0.047172
  27 H :    0.040960
  28 C :   -0.100817
  29 H :    0.047973
  30 H :    0.032804
  31 H :    0.044578
  32 H :    0.034912
  33 H :    0.074583
Sum of atomic charges:    0.0000000

LOEWDIN ATOMIC CHARGES
----------------------
   0 S :    0.371380
   1 C :   -0.174679
   2 C :   -0.060014
   3 C :   -0.082168
   4 C :   -0.169515
   5 H :    0.041986
   6 C :   -0.025916
   7 H :    0.029555
   8 H :    0.028402
   9 C :   -0.035844
  10 H :    0.031019
  11 H :    0.013447
  12 C :   -0.074419
  13 H :    0.023457
  14 H :    0.019962
  15 H :    0.028340
  16 S :    0.423628
  17 C :   -0.203183
  18 C :   -0.067676
  19 C :   -0.058661
  20 C :   -0.193098
  21 H :    0.024265
  22 C :   -0.023301
  23 H :    0.021991
  24 H :    0.032197
  25 C :   -0.037509
  26 H :    0.027171
  27 H :    0.025814
  28 C :   -0.074641
  29 H :    0.033475
  30 H :    0.023277
  31 H :    0.023332
  32 H :    0.022545
  33 H :    0.035381

  Mayer bond orders larger than 0.100000
B(  0-S ,  1-C ) :   1.1107 B(  0-S ,  4-C ) :   1.1399 B(  1-C ,  2-C ) :   1.6336
B(  1-C , 32-H ) :   0.9772 B(  2-C ,  3-C ) :   1.2191 B(  2-C ,  6-C ) :   1.0176
B(  3-C ,  4-C ) :   1.6087 B(  3-C ,  5-H ) :   0.9703 B(  4-C , 20-C ) :   1.0160
B(  6-C ,  7-H ) :   0.9447 B(  6-C ,  8-H ) :   0.9475 B(  6-C ,  9-C ) :   1.0619
B(  9-C , 10-H ) :   0.9574 B(  9-C , 11-H ) :   0.9503 B(  9-C , 12-C ) :   1.0754
B( 12-C , 13-H ) :   0.9700 B( 12-C , 14-H ) :   0.9766 B( 12-C , 15-H ) :   0.9710
B( 16-S , 17-C ) :   1.1790 B( 16-S , 20-C ) :   1.1571 B( 17-C , 18-C ) :   1.5666
B( 17-C , 20-C ) :   0.1022 B( 17-C , 33-H ) :   0.9679 B( 18-C , 19-C ) :   1.2514
B( 18-C , 21-H ) :   0.9967 B( 19-C , 20-C ) :   1.5990 B( 19-C , 22-C ) :   1.0126
B( 22-C , 23-H ) :   0.9405 B( 22-C , 24-H ) :   0.9390 B( 22-C , 25-C ) :   1.0783
B( 25-C , 26-H ) :   0.9457 B( 25-C , 27-H ) :   0.9559 B( 25-C , 28-C ) :   1.0751
B( 28-C , 29-H ) :   0.9744 B( 28-C , 30-H ) :   0.9761 B( 28-C , 31-H ) :   0.9681

Dispersion correction           -0.014958609
FINAL SINGLE POINT ENERGY     -1339.877566930655

DIPOLE MOMENT
-------------
                                X             Y             Z
Electronic contribution:    -12.55541      24.70690      -6.54994
Nuclear contribution   :     12.75696     -25.07149       6.93819
                        -----------------------------------------
Total Dipole Moment    :      0.20156      -0.36459       0.38826
                        -----------------------------------------
Magnitude (a.u.)       :      0.56947
Magnitude (Debye)      :      1.44747

Rotational constants in cm-1:     0.018768     0.009646     0.006927
Rotational constants in MHz :   562.662573   289.178669   207.673056

                             ****ORCA TERMINATED NORMALLY****
TOTAL RUN TIME: 0 days 0 hours 0 minutes 33 seconds 507 msec
