                         Program Version 4.2.1 -  RELEASE  -
|  1> ! wB97X-D3 SP def2-SVP
|  2> %pal
|  3> nprocs 16
|  4> end
|  5>
|  6> * xyz 0 1
|  7> S 	 -107.198 	 41.0885 	 132.25
|  8> C 	 -106.313 	 41.7482 	 133.598
|  9> C 	 -105.988 	 43.0752 	 133.298
| 10> C 	 -106.379 	 43.428 	 132.012
| 11> C 	 -107.003 	 42.4614 	 131.256
| 12> H 	 -106.168 	 44.4364 	 131.519
| 13> C 	 -105.464 	 44.013 	 134.222
| 14> H 	 -105.804 	 43.8317 	 135.286
| 15> H 	 -105.725 	 45.0535 	 133.965
| 16> C 	 -103.924 	 44.021 	 134.443
| 17> H 	 -103.707 	 44.6524 	 135.235
| 18> H 	 -103.669 	 43.0059 	 134.671
| 19> C 	 -103.187 	 44.4523 	 133.21
| 20> H 	 -103.317 	 45.4857 	 133.096
| 21> H 	 -102.2 	 44.2519 	 133.258
| 22> H 	 -103.465 	 43.8774 	 132.328
| 23> S 	 -109.116 	 43.2064 	 129.615
| 24> C 	 -108.91 	 43.1217 	 127.908
| 25> C 	 -107.676 	 42.5474 	 127.623
| 26> C 	 -106.812 	 42.3134 	 128.767
| 27> C 	 -107.494 	 42.5533 	 129.92
| 28> H 	 -107.318 	 42.4465 	 126.574
| 29> C 	 -105.389 	 41.812 	 128.668
| 30> H 	 -105.264 	 41.4569 	 127.614
| 31> H 	 -105.318 	 40.9757 	 129.382
| 32> C 	 -104.309 	 42.8484 	 129.058
| 33> H 	 -103.444 	 42.457 	 128.669
| 34> H 	 -104.201 	 43.0647 	 130.137
| 35> C 	 -104.421 	 44.2466 	 128.472
| 36> H 	 -104.448 	 44.1364 	 127.317
| 37> H 	 -103.49 	 44.8208 	 128.744
| 38> H 	 -105.344 	 44.7009 	 128.855
| 39> H 	 -105.999 	 41.2966 	 134.544
| 40> H 	 -109.612 	 43.36 	 127.108
| 41> *
| 42>
| 43>                          ****END OF INPUT****

CARTESIAN COORDINATES (ANGSTROEM)
---------------------------------
  S    -107.198000   41.088500  132.250000
  C    -106.313000   41.748200  133.598000
  C    -105.988000   43.075200  133.298000
  C    -106.379000   43.428000  132.012000
  C    -107.003000   42.461400  131.256000
  H    -106.168000   44.436400  131.519000
  C    -105.464000   44.013000  134.222000
  H    -105.804000   43.831700  135.286000
  H    -105.725000   45.053500  133.965000
  C    -103.924000   44.021000  134.443000
  H    -103.707000   44.652400  135.235000
  H    -103.669000   43.005900  134.671000
  C    -103.187000   44.452300  133.210000
  H    -103.317000   45.485700  133.096000
  H    -102.200000   44.251900  133.258000
  H    -103.465000   43.877400  132.328000
  S    -109.116000   43.206400  129.615000
  C    -108.910000   43.121700  127.908000
  C    -107.676000   42.547400  127.623000
  C    -106.812000   42.313400  128.767000
  C    -107.494000   42.553300  129.920000
  H    -107.318000   42.446500  126.574000
  C    -105.389000   41.812000  128.668000
  H    -105.264000   41.456900  127.614000
  H    -105.318000   40.975700  129.382000
  C    -104.309000   42.848400  129.058000
  H    -103.444000   42.457000  128.669000
  H    -104.201000   43.064700  130.137000
  C    -104.421000   44.246600  128.472000
  H    -104.448000   44.136400  127.317000
  H    -103.490000   44.820800  128.744000
  H    -105.344000   44.700900  128.855000
  H    -105.999000   41.296600  134.544000
  H    -109.612000   43.360000  127.108000

 Total Charge           Charge          ....    0
 Multiplicity           Mult            ....    1
 Number of Electrons    NEL             ....  134
 Basis Dimension        Dim             ....  322

ORBITAL ENERGIES
----------------

  NO   OCC          E(Eh)            E(eV)
   0   2.0000     -88.968418     -2420.9537
   1   2.0000     -88.965464     -2420.8733
   2   2.0000     -10.321052      -280.8501
   3   2.0000     -10.320492      -280.8349
   4   2.0000     -10.319229      -280.8005
   5   2.0000     -10.316456      -280.7250
   6   2.0000     -10.301551      -280.3194
   7   2.0000     -10.297622      -280.2125
   8   2.0000     -10.296405      -280.1794
   9   2.0000     -10.292958      -280.0856
  10   2.0000     -10.292098      -280.0622
  11   2.0000     -10.287211      -279.9293
  12   2.0000     -10.283975      -279.8412
  13   2.0000     -10.277652      -279.6691
  14   2.0000     -10.276087      -279.6265
  15   2.0000     -10.259666      -279.1797
  16   2.0000      -8.083475      -219.9625
  17   2.0000      -8.080233      -219.8743
  18   2.0000      -6.041813      -164.4061
  19   2.0000      -6.038782      -164.3236
  20   2.0000      -6.037660      -164.2931
  21   2.0000      -6.034690      -164.2123
  22   2.0000      -6.034643      -164.2110
  23   2.0000      -6.030976      -164.1112
  24   2.0000      -1.014837       -27.6151
  25   2.0000      -0.989458       -26.9245
  26   2.0000      -0.924265       -25.1505
  27   2.0000      -0.910050       -24.7637
  28   2.0000      -0.874569       -23.7982
  29   2.0000      -0.853417       -23.2227
  30   2.0000      -0.847999       -23.0752
  31   2.0000      -0.813835       -22.1456
  32   2.0000      -0.785872       -21.3847
  33   2.0000      -0.775037       -21.0898
  34   2.0000      -0.709508       -19.3067
  35   2.0000      -0.708370       -19.2757
  36   2.0000      -0.684915       -18.6375
  37   2.0000      -0.660154       -17.9637
  38   2.0000      -0.638756       -17.3814
  39   2.0000      -0.613009       -16.6808
  40   2.0000      -0.591354       -16.0916
  41   2.0000      -0.580978       -15.8092
  42   2.0000      -0.563779       -15.3412
  43   2.0000      -0.554463       -15.0877
  44   2.0000      -0.548312       -14.9203
  45   2.0000      -0.546135       -14.8611
  46   2.0000      -0.516947       -14.0668
  47   2.0000      -0.513994       -13.9865
  48   2.0000      -0.509825       -13.8730
  49   2.0000      -0.503933       -13.7127
  50   2.0000      -0.485349       -13.2070
  51   2.0000      -0.479586       -13.0502
  52   2.0000      -0.472595       -12.8600
  53   2.0000      -0.465058       -12.6549
  54   2.0000      -0.463205       -12.6044
  55   2.0000      -0.445012       -12.1094
  56   2.0000      -0.438924       -11.9437
  57   2.0000      -0.436415       -11.8755
  58   2.0000      -0.430672       -11.7192
  59   2.0000      -0.427828       -11.6418
  60   2.0000      -0.417712       -11.3665
  61   2.0000      -0.414761       -11.2862
  62   2.0000      -0.412254       -11.2180
  63   2.0000      -0.333930        -9.0867
  64   2.0000      -0.327001        -8.8981
  65   2.0000      -0.320160        -8.7120
  66   2.0000      -0.313252        -8.5240
  67   0.0000       0.044222         1.2034
  68   0.0000       0.050995         1.3876
  69   0.0000       0.110778         3.0144
  70   0.0000       0.121977         3.3192
  71   0.0000       0.132020         3.5924

MULLIKEN ATOMIC CHARGES
-----------------------
   0 S :    0.134146
   1 C :   -0.118567
   2 C :   -0.055116
   3 C :    0.017549
   4 C :   -0.200256
   5 H :    0.031867
   6 C :    0.003172
   7 H :    0.033240
   8 H :    0.023585
   9 C :   -0.028312
  10 H :    0.014995
  11 H :    0.007165
  12 C :    0.010617
  13 H :    0.015733
  14 H :   -0.000130
  15 H :    0.021089
  16 S :    0.125856
  17 C :   -0.090949
  18 C :   -0.052597
  19 C :   -0.054953
  20 C :   -0.187153
  21 H :    0.025599
  22 C :    0.112966
  23 H :    0.025622
  24 H :    0.040999
  25 C :   -0.060562
  26 H :    0.007239
  27 H :    0.050601
  28 C :   -0.102067
  29 H :    0.033115
  30 H :    0.048345
  31 H :    0.051193
  32 H :    0.050726
  33 H :    0.065242
Sum of atomic charges:   -0.0000000

LOEWDIN ATOMIC CHARGES
----------------------
   0 S :    0.445391
   1 C :   -0.203061
   2 C :   -0.079351
   3 C :   -0.066129
   4 C :   -0.222562
   5 H :    0.040841
   6 C :   -0.038364
   7 H :    0.038686
   8 H :    0.031285
   9 C :   -0.022262
  10 H :    0.014386
  11 H :    0.016652
  12 C :   -0.055498
  13 H :    0.019454
  14 H :    0.012392
  15 H :    0.027527
  16 S :    0.410761
  17 C :   -0.197739
  18 C :   -0.081149
  19 C :   -0.050986
  20 C :   -0.206678
  21 H :    0.031748
  22 C :   -0.026622
  23 H :    0.035802
  24 H :    0.040051
  25 C :   -0.041796
  26 H :    0.012963
  27 H :    0.027951
  28 C :   -0.071293
  29 H :    0.027819
  30 H :    0.033071
  31 H :    0.023456
  32 H :    0.035096
  33 H :    0.038160

  Mayer bond orders larger than 0.100000
B(  0-S ,  1-C ) :   1.1669 B(  0-S ,  4-C ) :   1.1800 B(  1-C ,  2-C ) :   1.5360
B(  1-C ,  4-C ) :   0.1124 B(  1-C , 32-H ) :   0.9677 B(  2-C ,  3-C ) :   1.2926
B(  2-C ,  6-C ) :   1.0515 B(  3-C ,  4-C ) :   1.5397 B(  3-C ,  5-H ) :   0.9828
B(  4-C , 20-C ) :   1.0221 B(  6-C ,  7-H ) :   0.9364 B(  6-C ,  8-H ) :   0.9418
B(  6-C ,  9-C ) :   1.0739 B(  9-C , 10-H ) :   0.9560 B(  9-C , 11-H ) :   0.9519
B(  9-C , 12-C ) :   1.0938 B( 12-C , 13-H ) :   0.9705 B( 12-C , 14-H ) :   0.9595
B( 12-C , 15-H ) :   0.9699 B( 16-S , 17-C ) :   1.1569 B( 16-S , 20-C ) :   1.1331
B( 17-C , 18-C ) :   1.6205 B( 17-C , 33-H ) :   0.9641 B( 18-C , 19-C ) :   1.2368
B( 18-C , 21-H ) :   0.9750 B( 19-C , 20-C ) :   1.6190 B( 19-C , 22-C ) :   1.0408
B( 22-C , 23-H ) :   0.9300 B( 22-C , 24-H ) :   0.9245 B( 22-C , 25-C ) :   1.0732
B( 25-C , 26-H ) :   0.9503 B( 25-C , 27-H ) :   0.9471 B( 25-C , 28-C ) :   1.0839
B( 28-C , 29-H ) :   0.9747 B( 28-C , 30-H ) :   0.9723 B( 28-C , 31-H ) :   0.9684

Dispersion correction           -0.016589052
FINAL SINGLE POINT ENERGY     -1339.867933534739

DIPOLE MOMENT
-------------
                                X             Y             Z
Electronic contribution:    -25.21375     -11.09487      -1.81514
Nuclear contribution   :     25.80926      11.30909       1.80477
                        -----------------------------------------
Total Dipole Moment    :      0.59551       0.21422      -0.01038
                        -----------------------------------------
Magnitude (a.u.)       :      0.63295
Magnitude (Debye)      :      1.60883

Rotational constants in cm-1:     0.020451     0.009854     0.007964
Rotational constants in MHz :   613.100335   295.409195   238.739777

                             ****ORCA TERMINATED NORMALLY****
TOTAL RUN TIME: 0 days 0 hours 0 minutes 36 seconds 774 msec
