                         Program Version 4.2.1 -  RELEASE  -
|  1> ! wB97X-D3 SP def2-SVP
|  2> %pal
|  3> nprocs 16
|  4> end
|  5>
|  6> * xyz 0 1
|  7> S 	 -100.903 	 56.3611 	 117.334
|  8> C 	 -100.367 	 56.3663 	 115.699
|  9> C 	 -101.305 	 56.9038 	 114.824
| 10> C 	 -102.549 	 57.2104 	 115.534
| 11> C 	 -102.533 	 56.9028 	 116.902
| 12> H 	 -103.459 	 57.5546 	 115.112
| 13> C 	 -101.11 	 57.1205 	 113.294
| 14> H 	 -100.074 	 56.9993 	 113.083
| 15> H 	 -101.235 	 58.1893 	 113.123
| 16> C 	 -101.941 	 56.2268 	 112.354
| 17> H 	 -101.898 	 56.7372 	 111.369
| 18> H 	 -101.461 	 55.2757 	 112.323
| 19> C 	 -103.388 	 56.0348 	 112.763
| 20> H 	 -103.651 	 55.6799 	 113.728
| 21> H 	 -103.964 	 56.9536 	 112.614
| 22> H 	 -103.828 	 55.3975 	 111.997
| 23> S 	 -103.325 	 57.982 	 119.297
| 24> C 	 -104.997 	 58.0057 	 119.877
| 25> C 	 -105.787 	 57.5258 	 118.876
| 26> C 	 -105.065 	 57.1395 	 117.667
| 27> C 	 -103.676 	 57.0795 	 117.823
| 28> H 	 -106.842 	 57.5198 	 119.143
| 29> C 	 -105.863 	 56.5992 	 116.432
| 30> H 	 -106.282 	 55.5928 	 116.657
| 31> H 	 -105.075 	 56.4377 	 115.699
| 32> C 	 -106.925 	 57.5707 	 115.816
| 33> H 	 -107.682 	 57.8364 	 116.618
| 34> H 	 -107.471 	 56.9205 	 115.081
| 35> C 	 -106.458 	 58.8926 	 115.128
| 36> H 	 -105.857 	 58.7974 	 114.212
| 37> H 	 -105.826 	 59.6271 	 115.681
| 38> H 	 -107.382 	 59.3934 	 114.852
| 39> H 	 -99.3941 	 56.0982 	 115.316
| 40> H 	 -105.375 	 58.7024 	 120.606
| 41> *
| 42>
| 43>                          ****END OF INPUT****

CARTESIAN COORDINATES (ANGSTROEM)
---------------------------------
  S    -100.903000   56.361100  117.334000
  C    -100.367000   56.366300  115.699000
  C    -101.305000   56.903800  114.824000
  C    -102.549000   57.210400  115.534000
  C    -102.533000   56.902800  116.902000
  H    -103.459000   57.554600  115.112000
  C    -101.110000   57.120500  113.294000
  H    -100.074000   56.999300  113.083000
  H    -101.235000   58.189300  113.123000
  C    -101.941000   56.226800  112.354000
  H    -101.898000   56.737200  111.369000
  H    -101.461000   55.275700  112.323000
  C    -103.388000   56.034800  112.763000
  H    -103.651000   55.679900  113.728000
  H    -103.964000   56.953600  112.614000
  H    -103.828000   55.397500  111.997000
  S    -103.325000   57.982000  119.297000
  C    -104.997000   58.005700  119.877000
  C    -105.787000   57.525800  118.876000
  C    -105.065000   57.139500  117.667000
  C    -103.676000   57.079500  117.823000
  H    -106.842000   57.519800  119.143000
  C    -105.863000   56.599200  116.432000
  H    -106.282000   55.592800  116.657000
  H    -105.075000   56.437700  115.699000
  C    -106.925000   57.570700  115.816000
  H    -107.682000   57.836400  116.618000
  H    -107.471000   56.920500  115.081000
  C    -106.458000   58.892600  115.128000
  H    -105.857000   58.797400  114.212000
  H    -105.826000   59.627100  115.681000
  H    -107.382000   59.393400  114.852000
  H    -99.394100   56.098200  115.316000
  H    -105.375000   58.702400  120.606000

 Total Charge           Charge          ....    0
 Multiplicity           Mult            ....    1
 Number of Electrons    NEL             ....  134
 Basis Dimension        Dim             ....  322

ORBITAL ENERGIES
----------------

  NO   OCC          E(Eh)            E(eV)
   0   2.0000     -88.970517     -2421.0109
   1   2.0000     -88.957777     -2420.6642
   2   2.0000     -10.337954      -281.3100
   3   2.0000     -10.336760      -281.2775
   4   2.0000     -10.315464      -280.6981
   5   2.0000     -10.314900      -280.6827
   6   2.0000     -10.313514      -280.6450
   7   2.0000     -10.307495      -280.4812
   8   2.0000     -10.304443      -280.3981
   9   2.0000     -10.298331      -280.2318
  10   2.0000     -10.297347      -280.2050
  11   2.0000     -10.296665      -280.1865
  12   2.0000     -10.293068      -280.0886
  13   2.0000     -10.290158      -280.0094
  14   2.0000     -10.286422      -279.9078
  15   2.0000     -10.274668      -279.5879
  16   2.0000      -8.084904      -220.0014
  17   2.0000      -8.072550      -219.6652
  18   2.0000      -6.043588      -164.4544
  19   2.0000      -6.039393      -164.3402
  20   2.0000      -6.035552      -164.2357
  21   2.0000      -6.031166      -164.1164
  22   2.0000      -6.027036      -164.0040
  23   2.0000      -6.023162      -163.8986
  24   2.0000      -1.002329       -27.2748
  25   2.0000      -0.981330       -26.7033
  26   2.0000      -0.911201       -24.7950
  27   2.0000      -0.896200       -24.3869
  28   2.0000      -0.873555       -23.7706
  29   2.0000      -0.845365       -23.0036
  30   2.0000      -0.836390       -22.7593
  31   2.0000      -0.820507       -22.3271
  32   2.0000      -0.787356       -21.4251
  33   2.0000      -0.775777       -21.1100
  34   2.0000      -0.707506       -19.2522
  35   2.0000      -0.701067       -19.0770
  36   2.0000      -0.694045       -18.8859
  37   2.0000      -0.655094       -17.8260
  38   2.0000      -0.639111       -17.3911
  39   2.0000      -0.617386       -16.7999
  40   2.0000      -0.587949       -15.9989
  41   2.0000      -0.577089       -15.7034
  42   2.0000      -0.556524       -15.1438
  43   2.0000      -0.544436       -14.8148
  44   2.0000      -0.539385       -14.6774
  45   2.0000      -0.528787       -14.3890
  46   2.0000      -0.522905       -14.2290
  47   2.0000      -0.514678       -14.0051
  48   2.0000      -0.507284       -13.8039
  49   2.0000      -0.500994       -13.6327
  50   2.0000      -0.495829       -13.4922
  51   2.0000      -0.478009       -13.0073
  52   2.0000      -0.471012       -12.8169
  53   2.0000      -0.468090       -12.7374
  54   2.0000      -0.454181       -12.3589
  55   2.0000      -0.443744       -12.0749
  56   2.0000      -0.437935       -11.9168
  57   2.0000      -0.434883       -11.8338
  58   2.0000      -0.433215       -11.7884
  59   2.0000      -0.428622       -11.6634
  60   2.0000      -0.420519       -11.4429
  61   2.0000      -0.416067       -11.3218
  62   2.0000      -0.402803       -10.9608
  63   2.0000      -0.358428        -9.7533
  64   2.0000      -0.329436        -8.9644
  65   2.0000      -0.323160        -8.7936
  66   2.0000      -0.292258        -7.9528
  67   0.0000       0.023276         0.6334
  68   0.0000       0.071951         1.9579
  69   0.0000       0.104583         2.8458
  70   0.0000       0.123718         3.3665
  71   0.0000       0.125713         3.4208

MULLIKEN ATOMIC CHARGES
-----------------------
   0 S :    0.128753
   1 C :   -0.101003
   2 C :   -0.125665
   3 C :    0.024537
   4 C :   -0.150305
   5 H :   -0.008901
   6 C :    0.088434
   7 H :    0.001103
   8 H :    0.033434
   9 C :   -0.043877
  10 H :    0.037624
  11 H :    0.028892
  12 C :   -0.062816
  13 H :    0.057694
  14 H :    0.019650
  15 H :    0.026786
  16 S :    0.060964
  17 C :   -0.083368
  18 C :   -0.051525
  19 C :   -0.071957
  20 C :   -0.092539
  21 H :    0.030015
  22 C :    0.061851
  23 H :    0.051944
  24 H :   -0.007010
  25 C :   -0.094753
  26 H :    0.042012
  27 H :    0.041568
  28 C :   -0.073776
  29 H :    0.033354
  30 H :    0.049101
  31 H :    0.037631
  32 H :    0.042135
  33 H :    0.070016
Sum of atomic charges:    0.0000000

LOEWDIN ATOMIC CHARGES
----------------------
   0 S :    0.414666
   1 C :   -0.205851
   2 C :   -0.060614
   3 C :   -0.055413
   4 C :   -0.194641
   5 H :    0.019873
   6 C :   -0.032161
   7 H :    0.023840
   8 H :    0.032438
   9 C :   -0.033011
  10 H :    0.034257
  11 H :    0.022632
  12 C :   -0.068935
  13 H :    0.020559
  14 H :    0.024035
  15 H :    0.030094
  16 S :    0.382573
  17 C :   -0.183090
  18 C :   -0.074185
  19 C :   -0.060126
  20 C :   -0.185273
  21 H :    0.035045
  22 C :   -0.038077
  23 H :    0.038904
  24 H :    0.021837
  25 C :   -0.044071
  26 H :    0.028717
  27 H :    0.032907
  28 C :   -0.079374
  29 H :    0.023680
  30 H :    0.033001
  31 H :    0.030637
  32 H :    0.029912
  33 H :    0.035216

  Mayer bond orders larger than 0.100000
B(  0-S ,  1-C ) :   1.1439 B(  0-S ,  4-C ) :   1.1397 B(  1-C ,  2-C ) :   1.6281
B(  1-C , 32-H ) :   0.9618 B(  2-C ,  3-C ) :   1.2300 B(  2-C ,  6-C ) :   1.0144
B(  3-C ,  4-C ) :   1.5710 B(  3-C ,  5-H ) :   0.9892 B(  4-C , 20-C ) :   1.0410
B(  6-C ,  7-H ) :   0.9371 B(  6-C ,  8-H ) :   0.9413 B(  6-C ,  9-C ) :   1.0662
B(  9-C , 10-H ) :   0.9509 B(  9-C , 11-H ) :   0.9545 B(  9-C , 12-C ) :   1.1038
B( 12-C , 13-H ) :   0.9657 B( 12-C , 14-H ) :   0.9697 B( 12-C , 15-H ) :   0.9646
B( 16-S , 17-C ) :   1.1422 B( 16-S , 20-C ) :   1.1361 B( 17-C , 18-C ) :   1.6416
B( 17-C , 33-H ) :   0.9616 B( 18-C , 19-C ) :   1.2132 B( 18-C , 21-H ) :   0.9881
B( 19-C , 20-C ) :   1.5974 B( 19-C , 22-C ) :   1.0271 B( 22-C , 23-H ) :   0.9442
B( 22-C , 24-H ) :   0.9368 B( 22-C , 25-C ) :   1.0605 B( 25-C , 26-H ) :   0.9591
B( 25-C , 27-H ) :   0.9548 B( 25-C , 28-C ) :   1.0661 B( 28-C , 29-H ) :   0.9721
B( 28-C , 30-H ) :   0.9752 B( 28-C , 31-H ) :   0.9725

Dispersion correction           -0.015469791
FINAL SINGLE POINT ENERGY     -1339.863456160100

DIPOLE MOMENT
-------------
                                X             Y             Z
Electronic contribution:     15.16316      -1.04479      26.58710
Nuclear contribution   :    -15.63400       1.20850     -27.38871
                        -----------------------------------------
Total Dipole Moment    :     -0.47084       0.16370      -0.80161
                        -----------------------------------------
Magnitude (a.u.)       :      0.94397
Magnitude (Debye)      :      2.39937

Rotational constants in cm-1:     0.017516     0.010546     0.007081
Rotational constants in MHz :   525.124249   316.168903   212.273704

                             ****ORCA TERMINATED NORMALLY****
TOTAL RUN TIME: 0 days 0 hours 0 minutes 37 seconds 563 msec
