                         Program Version 4.2.1 -  RELEASE  -
|  1> ! wB97X-D3 SP def2-SVP
|  2> %pal
|  3> nprocs 16
|  4> end
|  5>
|  6> * xyz 0 1
|  7> S 	 -30.9332 	 61.8189 	 110.15
|  8> C 	 -29.5502 	 62.9668 	 109.972
|  9> C 	 -29.6928 	 63.6235 	 108.761
| 10> C 	 -30.7658 	 63.1471 	 107.89
| 11> C 	 -31.5585 	 62.235 	 108.532
| 12> H 	 -31.0407 	 63.501 	 106.908
| 13> C 	 -28.9359 	 64.819 	 108.338
| 14> H 	 -28.9937 	 64.9055 	 107.209
| 15> H 	 -27.8878 	 64.7566 	 108.541
| 16> C 	 -29.4495 	 66.2257 	 108.805
| 17> H 	 -29.4613 	 66.211 	 109.869
| 18> H 	 -28.7916 	 67.0656 	 108.593
| 19> C 	 -30.8981 	 66.5856 	 108.423
| 20> H 	 -31.6012 	 65.9008 	 108.9
| 21> H 	 -31.033 	 67.6013 	 108.693
| 22> H 	 -31.1385 	 66.4537 	 107.394
| 23> S 	 -34.3296 	 62.2952 	 108.845
| 24> C 	 -35.4159 	 61.6783 	 107.615
| 25> C 	 -34.6296 	 61.1236 	 106.638
| 26> C 	 -33.2674 	 61.0222 	 106.938
| 27> C 	 -32.8501 	 61.7295 	 108.065
| 28> H 	 -35.0921 	 60.6147 	 105.788
| 29> C 	 -32.361 	 60.3166 	 106.007
| 30> H 	 -31.7339 	 61.0963 	 105.685
| 31> H 	 -32.8528 	 59.9851 	 105.114
| 32> C 	 -31.6194 	 59.0713 	 106.467
| 33> H 	 -32.225 	 58.1353 	 106.568
| 34> H 	 -31.2956 	 59.2754 	 107.516
| 35> C 	 -30.4188 	 58.6919 	 105.576
| 36> H 	 -29.6597 	 59.5397 	 105.463
| 37> H 	 -30.8997 	 58.5699 	 104.537
| 38> H 	 -29.9258 	 57.7927 	 105.923
| 39> H 	 -28.7398 	 63.1737 	 110.715
| 40> H 	 -36.4739 	 61.6483 	 107.635
| 41> *
| 42>
| 43>                          ****END OF INPUT****

CARTESIAN COORDINATES (ANGSTROEM)
---------------------------------
  S    -30.933200   61.818900  110.150000
  C    -29.550200   62.966800  109.972000
  C    -29.692800   63.623500  108.761000
  C    -30.765800   63.147100  107.890000
  C    -31.558500   62.235000  108.532000
  H    -31.040700   63.501000  106.908000
  C    -28.935900   64.819000  108.338000
  H    -28.993700   64.905500  107.209000
  H    -27.887800   64.756600  108.541000
  C    -29.449500   66.225700  108.805000
  H    -29.461300   66.211000  109.869000
  H    -28.791600   67.065600  108.593000
  C    -30.898100   66.585600  108.423000
  H    -31.601200   65.900800  108.900000
  H    -31.033000   67.601300  108.693000
  H    -31.138500   66.453700  107.394000
  S    -34.329600   62.295200  108.845000
  C    -35.415900   61.678300  107.615000
  C    -34.629600   61.123600  106.638000
  C    -33.267400   61.022200  106.938000
  C    -32.850100   61.729500  108.065000
  H    -35.092100   60.614700  105.788000
  C    -32.361000   60.316600  106.007000
  H    -31.733900   61.096300  105.685000
  H    -32.852800   59.985100  105.114000
  C    -31.619400   59.071300  106.467000
  H    -32.225000   58.135300  106.568000
  H    -31.295600   59.275400  107.516000
  C    -30.418800   58.691900  105.576000
  H    -29.659700   59.539700  105.463000
  H    -30.899700   58.569900  104.537000
  H    -29.925800   57.792700  105.923000
  H    -28.739800   63.173700  110.715000
  H    -36.473900   61.648300  107.635000

 Total Charge           Charge          ....    0
 Multiplicity           Mult            ....    1
 Number of Electrons    NEL             ....  134
 Basis Dimension        Dim             ....  322

ORBITAL ENERGIES
----------------

  NO   OCC          E(Eh)            E(eV)
   0   2.0000     -88.968681     -2420.9609
   1   2.0000     -88.963331     -2420.8153
   2   2.0000     -10.337900      -281.3086
   3   2.0000     -10.329308      -281.0748
   4   2.0000     -10.327068      -281.0138
   5   2.0000     -10.318283      -280.7748
   6   2.0000     -10.307673      -280.4860
   7   2.0000     -10.301611      -280.3211
   8   2.0000     -10.300162      -280.2816
   9   2.0000     -10.292572      -280.0751
  10   2.0000     -10.290102      -280.0079
  11   2.0000     -10.286925      -279.9215
  12   2.0000     -10.286585      -279.9122
  13   2.0000     -10.284344      -279.8512
  14   2.0000     -10.279387      -279.7164
  15   2.0000     -10.268398      -279.4173
  16   2.0000      -8.081955      -219.9212
  17   2.0000      -8.077847      -219.8094
  18   2.0000      -6.040746      -164.3771
  19   2.0000      -6.036602      -164.2643
  20   2.0000      -6.036406      -164.2590
  21   2.0000      -6.032539      -164.1537
  22   2.0000      -6.032143      -164.1430
  23   2.0000      -6.028763      -164.0510
  24   2.0000      -1.006575       -27.3903
  25   2.0000      -0.983085       -26.7511
  26   2.0000      -0.910649       -24.7800
  27   2.0000      -0.908926       -24.7331
  28   2.0000      -0.870426       -23.6855
  29   2.0000      -0.849067       -23.1043
  30   2.0000      -0.844678       -22.9849
  31   2.0000      -0.819928       -22.3114
  32   2.0000      -0.780632       -21.2421
  33   2.0000      -0.770378       -20.9631
  34   2.0000      -0.708420       -19.2771
  35   2.0000      -0.704310       -19.1652
  36   2.0000      -0.689445       -18.7608
  37   2.0000      -0.664954       -18.0943
  38   2.0000      -0.642773       -17.4907
  39   2.0000      -0.615439       -16.7469
  40   2.0000      -0.598221       -16.2784
  41   2.0000      -0.571571       -15.5532
  42   2.0000      -0.561192       -15.2708
  43   2.0000      -0.553995       -15.0750
  44   2.0000      -0.542314       -14.7571
  45   2.0000      -0.529480       -14.4079
  46   2.0000      -0.516773       -14.0621
  47   2.0000      -0.513552       -13.9745
  48   2.0000      -0.510271       -13.8852
  49   2.0000      -0.501848       -13.6560
  50   2.0000      -0.491546       -13.3756
  51   2.0000      -0.482534       -13.1304
  52   2.0000      -0.476389       -12.9632
  53   2.0000      -0.464783       -12.6474
  54   2.0000      -0.457145       -12.4396
  55   2.0000      -0.444560       -12.0971
  56   2.0000      -0.438694       -11.9375
  57   2.0000      -0.430414       -11.7122
  58   2.0000      -0.428717       -11.6660
  59   2.0000      -0.427612       -11.6359
  60   2.0000      -0.414884       -11.2896
  61   2.0000      -0.409093       -11.1320
  62   2.0000      -0.402041       -10.9401
  63   2.0000      -0.343965        -9.3598
  64   2.0000      -0.329318        -8.9612
  65   2.0000      -0.326961        -8.8971
  66   2.0000      -0.303026        -8.2458
  67   0.0000       0.029154         0.7933
  68   0.0000       0.056251         1.5307
  69   0.0000       0.109921         2.9911
  70   0.0000       0.115653         3.1471
  71   0.0000       0.127927         3.4811

MULLIKEN ATOMIC CHARGES
-----------------------
   0 S :    0.100417
   1 C :   -0.125748
   2 C :   -0.080421
   3 C :    0.060252
   4 C :   -0.168753
   5 H :    0.021470
   6 C :    0.036756
   7 H :    0.027568
   8 H :    0.022901
   9 C :   -0.061002
  10 H :    0.011470
  11 H :    0.029602
  12 C :   -0.037586
  13 H :    0.042387
  14 H :    0.030045
  15 H :    0.013127
  16 S :    0.097261
  17 C :   -0.074022
  18 C :   -0.039541
  19 C :   -0.057864
  20 C :   -0.137800
  21 H :    0.022397
  22 C :    0.115933
  23 H :    0.010514
  24 H :   -0.002521
  25 C :   -0.087305
  26 H :    0.035997
  27 H :    0.029492
  28 C :   -0.080276
  29 H :    0.044586
  30 H :    0.033149
  31 H :    0.045474
  32 H :    0.072366
  33 H :    0.049674
Sum of atomic charges:   -0.0000000

LOEWDIN ATOMIC CHARGES
----------------------
   0 S :    0.370960
   1 C :   -0.185515
   2 C :   -0.063331
   3 C :   -0.050238
   4 C :   -0.180606
   5 H :    0.034862
   6 C :   -0.039503
   7 H :    0.033852
   8 H :    0.026851
   9 C :   -0.036229
  10 H :    0.017465
  11 H :    0.024503
  12 C :   -0.061009
  13 H :    0.029850
  14 H :    0.024570
  15 H :    0.015754
  16 S :    0.405621
  17 C :   -0.173990
  18 C :   -0.078593
  19 C :   -0.056757
  20 C :   -0.203525
  21 H :    0.032941
  22 C :   -0.034191
  23 H :    0.029127
  24 H :    0.025325
  25 C :   -0.046016
  26 H :    0.028992
  27 H :    0.021694
  28 C :   -0.071213
  29 H :    0.030173
  30 H :    0.030031
  31 H :    0.025341
  32 H :    0.044714
  33 H :    0.028090

  Mayer bond orders larger than 0.100000
B(  0-S ,  1-C ) :   1.1037 B(  0-S ,  4-C ) :   1.1343 B(  1-C ,  2-C ) :   1.6424
B(  1-C , 32-H ) :   0.9654 B(  2-C ,  3-C ) :   1.1865 B(  2-C ,  6-C ) :   1.0396
B(  3-C ,  4-C ) :   1.6195 B(  3-C ,  5-H ) :   0.9905 B(  4-C , 20-C ) :   1.0183
B(  6-C ,  7-H ) :   0.9448 B(  6-C ,  8-H ) :   0.9387 B(  6-C ,  9-C ) :   1.0622
B(  9-C , 10-H ) :   0.9525 B(  9-C , 11-H ) :   0.9600 B(  9-C , 12-C ) :   1.0795
B( 12-C , 13-H ) :   0.9723 B( 12-C , 14-H ) :   0.9728 B( 12-C , 15-H ) :   0.9773
B( 16-S , 17-C ) :   1.1712 B( 16-S , 20-C ) :   1.1375 B( 17-C , 18-C ) :   1.5634
B( 17-C , 20-C ) :   0.1094 B( 17-C , 33-H ) :   0.9748 B( 18-C , 19-C ) :   1.3047
B( 18-C , 21-H ) :   0.9838 B( 19-C , 20-C ) :   1.5490 B( 19-C , 22-C ) :   1.0462
B( 22-C , 23-H ) :   0.9246 B( 22-C , 24-H ) :   0.9246 B( 22-C , 25-C ) :   1.0534
B( 25-C , 26-H ) :   0.9545 B( 25-C , 27-H ) :   0.9589 B( 25-C , 28-C ) :   1.0741
B( 28-C , 29-H ) :   0.9761 B( 28-C , 30-H ) :   0.9732 B( 28-C , 31-H ) :   0.9740

Dispersion correction           -0.014813938
FINAL SINGLE POINT ENERGY     -1339.867138196907

DIPOLE MOMENT
-------------
                                X             Y             Z
Electronic contribution:    -12.20879      -4.22437      14.14078
Nuclear contribution   :     12.37170       4.42588     -14.60394
                        -----------------------------------------
Total Dipole Moment    :      0.16292       0.20151      -0.46317
                        -----------------------------------------
Magnitude (a.u.)       :      0.53073
Magnitude (Debye)      :      1.34900

Rotational constants in cm-1:     0.017612     0.009110     0.007615
Rotational constants in MHz :   527.984816   273.115830   228.289568

                             ****ORCA TERMINATED NORMALLY****
TOTAL RUN TIME: 0 days 0 hours 0 minutes 30 seconds 651 msec
