                         Program Version 4.2.1 -  RELEASE  -
|  1> ! wB97X-D3 SP def2-SVP
|  2> %pal
|  3> nprocs 16
|  4> end
|  5>
|  6> * xyz 0 1
|  7> S 	 -31.6893 	 78.099 	 158.017
|  8> C 	 -30.7127 	 79.499 	 158.515
|  9> C 	 -29.7089 	 79.1236 	 159.421
| 10> C 	 -29.6587 	 77.7126 	 159.543
| 11> C 	 -30.6109 	 76.9955 	 158.841
| 12> H 	 -28.8351 	 77.2214 	 160.115
| 13> C 	 -28.5496 	 79.9939 	 159.82
| 14> H 	 -28.3461 	 79.7401 	 160.821
| 15> H 	 -28.9081 	 81.0364 	 159.904
| 16> C 	 -27.2987 	 79.8228 	 158.844
| 17> H 	 -26.9143 	 78.824 	 158.704
| 18> H 	 -27.7686 	 80.1362 	 157.895
| 19> C 	 -26.1849 	 80.8209 	 159.204
| 20> H 	 -26.5206 	 81.8193 	 159.374
| 21> H 	 -25.8452 	 80.4976 	 160.21
| 22> H 	 -25.3427 	 80.7615 	 158.491
| 23> S 	 -29.3784 	 74.6547 	 158.208
| 24> C 	 -30.283 	 73.1896 	 158.116
| 25> C 	 -31.4731 	 73.3723 	 158.773
| 26> C 	 -31.8202 	 74.7354 	 158.933
| 27> C 	 -30.7692 	 75.5497 	 158.809
| 28> H 	 -32.0843 	 72.6224 	 159.123
| 29> C 	 -33.1868 	 75.139 	 159.397
| 30> H 	 -33.0895 	 76.1963 	 159.527
| 31> H 	 -33.3671 	 74.7361 	 160.374
| 32> C 	 -34.3876 	 74.825 	 158.503
| 33> H 	 -35.356 	 75.3008 	 158.796
| 34> H 	 -34.6414 	 73.7728 	 158.392
| 35> C 	 -34.2453 	 75.4123 	 157.156
| 36> H 	 -33.4774 	 74.8401 	 156.618
| 37> H 	 -33.9442 	 76.5044 	 157.217
| 38> H 	 -35.2484 	 75.3636 	 156.661
| 39> H 	 -30.7762 	 80.4818 	 157.99
| 40> H 	 -29.891 	 72.2113 	 157.862
| 41> *
| 42>
| 43>                          ****END OF INPUT****

CARTESIAN COORDINATES (ANGSTROEM)
---------------------------------
  S    -31.689300   78.099000  158.017000
  C    -30.712700   79.499000  158.515000
  C    -29.708900   79.123600  159.421000
  C    -29.658700   77.712600  159.543000
  C    -30.610900   76.995500  158.841000
  H    -28.835100   77.221400  160.115000
  C    -28.549600   79.993900  159.820000
  H    -28.346100   79.740100  160.821000
  H    -28.908100   81.036400  159.904000
  C    -27.298700   79.822800  158.844000
  H    -26.914300   78.824000  158.704000
  H    -27.768600   80.136200  157.895000
  C    -26.184900   80.820900  159.204000
  H    -26.520600   81.819300  159.374000
  H    -25.845200   80.497600  160.210000
  H    -25.342700   80.761500  158.491000
  S    -29.378400   74.654700  158.208000
  C    -30.283000   73.189600  158.116000
  C    -31.473100   73.372300  158.773000
  C    -31.820200   74.735400  158.933000
  C    -30.769200   75.549700  158.809000
  H    -32.084300   72.622400  159.123000
  C    -33.186800   75.139000  159.397000
  H    -33.089500   76.196300  159.527000
  H    -33.367100   74.736100  160.374000
  C    -34.387600   74.825000  158.503000
  H    -35.356000   75.300800  158.796000
  H    -34.641400   73.772800  158.392000
  C    -34.245300   75.412300  157.156000
  H    -33.477400   74.840100  156.618000
  H    -33.944200   76.504400  157.217000
  H    -35.248400   75.363600  156.661000
  H    -30.776200   80.481800  157.990000
  H    -29.891000   72.211300  157.862000

 Total Charge           Charge          ....    0
 Multiplicity           Mult            ....    1
 Number of Electrons    NEL             ....  134
 Basis Dimension        Dim             ....  322

ORBITAL ENERGIES
----------------

  NO   OCC          E(Eh)            E(eV)
   0   2.0000     -88.969656     -2420.9874
   1   2.0000     -88.961983     -2420.7786
   2   2.0000     -10.331181      -281.1257
   3   2.0000     -10.321595      -280.8649
   4   2.0000     -10.320630      -280.8386
   5   2.0000     -10.315550      -280.7004
   6   2.0000     -10.301626      -280.3215
   7   2.0000     -10.295680      -280.1597
   8   2.0000     -10.294241      -280.1205
   9   2.0000     -10.293659      -280.1047
  10   2.0000     -10.293418      -280.0982
  11   2.0000     -10.284889      -279.8661
  12   2.0000     -10.283003      -279.8147
  13   2.0000     -10.280942      -279.7587
  14   2.0000     -10.279946      -279.7316
  15   2.0000     -10.271984      -279.5149
  16   2.0000      -8.083204      -219.9552
  17   2.0000      -8.077377      -219.7966
  18   2.0000      -6.041824      -164.4064
  19   2.0000      -6.037768      -164.2960
  20   2.0000      -6.036050      -164.2493
  21   2.0000      -6.034036      -164.1945
  22   2.0000      -6.031857      -164.1352
  23   2.0000      -6.027839      -164.0258
  24   2.0000      -1.013572       -27.5807
  25   2.0000      -0.987004       -26.8578
  26   2.0000      -0.915733       -24.9184
  27   2.0000      -0.909169       -24.7397
  28   2.0000      -0.870327       -23.6828
  29   2.0000      -0.855006       -23.2659
  30   2.0000      -0.848630       -23.0924
  31   2.0000      -0.812633       -22.1129
  32   2.0000      -0.782674       -21.2977
  33   2.0000      -0.770827       -20.9753
  34   2.0000      -0.706675       -19.2296
  35   2.0000      -0.700516       -19.0620
  36   2.0000      -0.689831       -18.7713
  37   2.0000      -0.668816       -18.1994
  38   2.0000      -0.633715       -17.2442
  39   2.0000      -0.619737       -16.8639
  40   2.0000      -0.596703       -16.2371
  41   2.0000      -0.568822       -15.4784
  42   2.0000      -0.561720       -15.2852
  43   2.0000      -0.556801       -15.1513
  44   2.0000      -0.551162       -14.9979
  45   2.0000      -0.529689       -14.4136
  46   2.0000      -0.522286       -14.2121
  47   2.0000      -0.508958       -13.8495
  48   2.0000      -0.504771       -13.7355
  49   2.0000      -0.501082       -13.6351
  50   2.0000      -0.496459       -13.5093
  51   2.0000      -0.471382       -12.8269
  52   2.0000      -0.468942       -12.7606
  53   2.0000      -0.462171       -12.5763
  54   2.0000      -0.458272       -12.4702
  55   2.0000      -0.447878       -12.1874
  56   2.0000      -0.443068       -12.0565
  57   2.0000      -0.438055       -11.9201
  58   2.0000      -0.432183       -11.7603
  59   2.0000      -0.429008       -11.6739
  60   2.0000      -0.418002       -11.3744
  61   2.0000      -0.412428       -11.2227
  62   2.0000      -0.402869       -10.9626
  63   2.0000      -0.349016        -9.4972
  64   2.0000      -0.332082        -9.0364
  65   2.0000      -0.327447        -8.9103
  66   2.0000      -0.292394        -7.9565
  67   0.0000       0.034177         0.9300
  68   0.0000       0.062608         1.7036
  69   0.0000       0.101340         2.7576
  70   0.0000       0.114349         3.1116
  71   0.0000       0.128904         3.5077

MULLIKEN ATOMIC CHARGES
-----------------------
   0 S :    0.107016
   1 C :   -0.147943
   2 C :   -0.071660
   3 C :   -0.011694
   4 C :   -0.132200
   5 H :    0.027078
   6 C :    0.051130
   7 H :    0.012027
   8 H :    0.026382
   9 C :   -0.066727
  10 H :    0.040624
  11 H :    0.026890
  12 C :   -0.031249
  13 H :    0.024492
  14 H :    0.021819
  15 H :    0.047593
  16 S :    0.099211
  17 C :   -0.077785
  18 C :    0.009728
  19 C :   -0.104339
  20 C :   -0.124835
  21 H :   -0.012580
  22 C :    0.112950
  23 H :    0.003173
  24 H :    0.028630
  25 C :   -0.066525
  26 H :    0.027006
  27 H :    0.024767
  28 C :   -0.096916
  29 H :    0.044632
  30 H :    0.039329
  31 H :    0.038071
  32 H :    0.072204
  33 H :    0.059702
Sum of atomic charges:    0.0000000

LOEWDIN ATOMIC CHARGES
----------------------
   0 S :    0.410823
   1 C :   -0.197515
   2 C :   -0.065579
   3 C :   -0.070343
   4 C :   -0.192735
   5 H :    0.036314
   6 C :   -0.030059
   7 H :    0.020038
   8 H :    0.034052
   9 C :   -0.031167
  10 H :    0.025714
  11 H :    0.025282
  12 C :   -0.065775
  13 H :    0.020147
  14 H :    0.026770
  15 H :    0.030426
  16 S :    0.409109
  17 C :   -0.185885
  18 C :   -0.056260
  19 C :   -0.063793
  20 C :   -0.190376
  21 H :    0.016871
  22 C :   -0.027955
  23 H :    0.020497
  24 H :    0.032853
  25 C :   -0.050880
  26 H :    0.031158
  27 H :    0.020649
  28 C :   -0.074389
  29 H :    0.023640
  30 H :    0.020814
  31 H :    0.029480
  32 H :    0.037055
  33 H :    0.031018

  Mayer bond orders larger than 0.100000
B(  0-S ,  1-C ) :   1.1412 B(  0-S ,  4-C ) :   1.1406 B(  1-C ,  2-C ) :   1.5844
B(  1-C , 32-H ) :   0.9623 B(  2-C ,  3-C ) :   1.2543 B(  2-C ,  6-C ) :   1.0478
B(  3-C ,  4-C ) :   1.5632 B(  3-C ,  5-H ) :   0.9879 B(  4-C , 20-C ) :   1.0169
B(  6-C ,  7-H ) :   0.9316 B(  6-C ,  8-H ) :   0.9438 B(  6-C ,  9-C ) :   1.0350
B(  9-C , 10-H ) :   0.9611 B(  9-C , 11-H ) :   0.9576 B(  9-C , 12-C ) :   1.0776
B( 12-C , 13-H ) :   0.9753 B( 12-C , 14-H ) :   0.9740 B( 12-C , 15-H ) :   0.9746
B( 16-S , 17-C ) :   1.1549 B( 16-S , 20-C ) :   1.1243 B( 17-C , 18-C ) :   1.6030
B( 17-C , 33-H ) :   0.9666 B( 18-C , 19-C ) :   1.2138 B( 18-C , 21-H ) :   1.0008
B( 19-C , 20-C ) :   1.6450 B( 19-C , 22-C ) :   1.0442 B( 22-C , 23-H ) :   0.9275
B( 22-C , 24-H ) :   0.9308 B( 22-C , 25-C ) :   1.0703 B( 25-C , 26-H ) :   0.9585
B( 25-C , 27-H ) :   0.9528 B( 25-C , 28-C ) :   1.0770 B( 28-C , 29-H ) :   0.9707
B( 28-C , 30-H ) :   0.9704 B( 28-C , 31-H ) :   0.9735

Dispersion correction           -0.014895465
FINAL SINGLE POINT ENERGY     -1339.869164111845

DIPOLE MOMENT
-------------
                                X             Y             Z
Electronic contribution:     -0.37796      -9.42331      -1.96998
Nuclear contribution   :      0.49262       9.46121       2.17374
                        -----------------------------------------
Total Dipole Moment    :      0.11467       0.03790       0.20376
                        -----------------------------------------
Magnitude (a.u.)       :      0.23686
Magnitude (Debye)      :      0.60206

Rotational constants in cm-1:     0.024901     0.007890     0.006433
Rotational constants in MHz :   746.514906   236.538066   192.847087

                             ****ORCA TERMINATED NORMALLY****
TOTAL RUN TIME: 0 days 0 hours 0 minutes 32 seconds 774 msec
