                         Program Version 4.2.1 -  RELEASE  -
|  1> ! wB97X-D3 SP def2-SVP
|  2> %pal
|  3> nprocs 16
|  4> end
|  5>
|  6> * xyz 0 1
|  7> S 	 -102.123 	 44.2772 	 123.118
|  8> C 	 -103.716 	 44.0954 	 123.76
|  9> C 	 -104.647 	 44.5825 	 122.847
| 10> C 	 -104.04 	 45.0377 	 121.671
| 11> C 	 -102.654 	 44.8947 	 121.622
| 12> H 	 -104.514 	 45.5425 	 120.773
| 13> C 	 -106.167 	 44.6948 	 123.074
| 14> H 	 -106.717 	 43.7559 	 122.751
| 15> H 	 -106.496 	 45.5854 	 122.461
| 16> C 	 -106.665 	 44.8428 	 124.559
| 17> H 	 -106.551 	 43.906 	 125.184
| 18> H 	 -106.127 	 45.6755 	 124.988
| 19> C 	 -108.196 	 45.2045 	 124.635
| 20> H 	 -108.343 	 45.3632 	 125.679
| 21> H 	 -108.571 	 46.0693 	 124.178
| 22> H 	 -108.82 	 44.2876 	 124.391
| 23> S 	 -101.201 	 47.1916 	 120.934
| 24> C 	 -100.409 	 47.2255 	 119.456
| 25> C 	 -100.691 	 46.0874 	 118.664
| 26> C 	 -101.478 	 45.1235 	 119.37
| 27> C 	 -101.757 	 45.5162 	 120.673
| 28> H 	 -100.388 	 45.9121 	 117.602
| 29> C 	 -101.922 	 43.8107 	 118.772
| 30> H 	 -102.537 	 43.3627 	 119.579
| 31> H 	 -101.106 	 43.0769 	 118.644
| 32> C 	 -102.801 	 43.7035 	 117.497
| 33> H 	 -103.229 	 42.688 	 117.434
| 34> H 	 -102.05 	 43.925 	 116.733
| 35> C 	 -104.02 	 44.7309 	 117.476
| 36> H 	 -103.639 	 45.7648 	 117.465
| 37> H 	 -104.695 	 44.6057 	 118.26
| 38> H 	 -104.582 	 44.6072 	 116.575
| 39> H 	 -103.902 	 43.7415 	 124.798
| 40> H 	 -100.141 	 48.1422 	 118.902
| 41> *
| 42>
| 43>                          ****END OF INPUT****

CARTESIAN COORDINATES (ANGSTROEM)
---------------------------------
  S    -102.123000   44.277200  123.118000
  C    -103.716000   44.095400  123.760000
  C    -104.647000   44.582500  122.847000
  C    -104.040000   45.037700  121.671000
  C    -102.654000   44.894700  121.622000
  H    -104.514000   45.542500  120.773000
  C    -106.167000   44.694800  123.074000
  H    -106.717000   43.755900  122.751000
  H    -106.496000   45.585400  122.461000
  C    -106.665000   44.842800  124.559000
  H    -106.551000   43.906000  125.184000
  H    -106.127000   45.675500  124.988000
  C    -108.196000   45.204500  124.635000
  H    -108.343000   45.363200  125.679000
  H    -108.571000   46.069300  124.178000
  H    -108.820000   44.287600  124.391000
  S    -101.201000   47.191600  120.934000
  C    -100.409000   47.225500  119.456000
  C    -100.691000   46.087400  118.664000
  C    -101.478000   45.123500  119.370000
  C    -101.757000   45.516200  120.673000
  H    -100.388000   45.912100  117.602000
  C    -101.922000   43.810700  118.772000
  H    -102.537000   43.362700  119.579000
  H    -101.106000   43.076900  118.644000
  C    -102.801000   43.703500  117.497000
  H    -103.229000   42.688000  117.434000
  H    -102.050000   43.925000  116.733000
  C    -104.020000   44.730900  117.476000
  H    -103.639000   45.764800  117.465000
  H    -104.695000   44.605700  118.260000
  H    -104.582000   44.607200  116.575000
  H    -103.902000   43.741500  124.798000
  H    -100.141000   48.142200  118.902000

 Total Charge           Charge          ....    0
 Multiplicity           Mult            ....    1
 Number of Electrons    NEL             ....  134
 Basis Dimension        Dim             ....  322

ORBITAL ENERGIES
----------------

  NO   OCC          E(Eh)            E(eV)
   0   2.0000     -88.968516     -2420.9564
   1   2.0000     -88.964734     -2420.8535
   2   2.0000     -10.325380      -280.9679
   3   2.0000     -10.322344      -280.8853
   4   2.0000     -10.317337      -280.7490
   5   2.0000     -10.316734      -280.7326
   6   2.0000     -10.303683      -280.3775
   7   2.0000     -10.303317      -280.3675
   8   2.0000     -10.302299      -280.3398
   9   2.0000     -10.297668      -280.2138
  10   2.0000     -10.297271      -280.2030
  11   2.0000     -10.295912      -280.1660
  12   2.0000     -10.293740      -280.1069
  13   2.0000     -10.287895      -279.9479
  14   2.0000     -10.279211      -279.7115
  15   2.0000     -10.273053      -279.5440
  16   2.0000      -8.083892      -219.9739
  17   2.0000      -8.080578      -219.8837
  18   2.0000      -6.042222      -164.4172
  19   2.0000      -6.038808      -164.3243
  20   2.0000      -6.038293      -164.3103
  21   2.0000      -6.034798      -164.2152
  22   2.0000      -6.034661      -164.2115
  23   2.0000      -6.031829      -164.1344
  24   2.0000      -1.011933       -27.5361
  25   2.0000      -0.989081       -26.9143
  26   2.0000      -0.904283       -24.6068
  27   2.0000      -0.901676       -24.5359
  28   2.0000      -0.867366       -23.6022
  29   2.0000      -0.850044       -23.1309
  30   2.0000      -0.845279       -23.0012
  31   2.0000      -0.806273       -21.9398
  32   2.0000      -0.784677       -21.3521
  33   2.0000      -0.771901       -21.0045
  34   2.0000      -0.704590       -19.1729
  35   2.0000      -0.699972       -19.0472
  36   2.0000      -0.689464       -18.7613
  37   2.0000      -0.651326       -17.7235
  38   2.0000      -0.642322       -17.4785
  39   2.0000      -0.608091       -16.5470
  40   2.0000      -0.590528       -16.0691
  41   2.0000      -0.568068       -15.4579
  42   2.0000      -0.564227       -15.3534
  43   2.0000      -0.552555       -15.0358
  44   2.0000      -0.537944       -14.6382
  45   2.0000      -0.515164       -14.0183
  46   2.0000      -0.514924       -14.0118
  47   2.0000      -0.509114       -13.8537
  48   2.0000      -0.500766       -13.6265
  49   2.0000      -0.499921       -13.6035
  50   2.0000      -0.489568       -13.3218
  51   2.0000      -0.479242       -13.0408
  52   2.0000      -0.475215       -12.9312
  53   2.0000      -0.467386       -12.7182
  54   2.0000      -0.458524       -12.4771
  55   2.0000      -0.446048       -12.1376
  56   2.0000      -0.443890       -12.0789
  57   2.0000      -0.432917       -11.7803
  58   2.0000      -0.432587       -11.7713
  59   2.0000      -0.423289       -11.5183
  60   2.0000      -0.419834       -11.4243
  61   2.0000      -0.416662       -11.3379
  62   2.0000      -0.405332       -11.0296
  63   2.0000      -0.336240        -9.1495
  64   2.0000      -0.330577        -8.9955
  65   2.0000      -0.323602        -8.8056
  66   2.0000      -0.306135        -8.3303
  67   0.0000       0.041139         1.1194
  68   0.0000       0.049005         1.3335
  69   0.0000       0.112304         3.0559
  70   0.0000       0.127805         3.4778
  71   0.0000       0.131739         3.5848

MULLIKEN ATOMIC CHARGES
-----------------------
   0 S :    0.124101
   1 C :   -0.149939
   2 C :   -0.052296
   3 C :    0.006554
   4 C :   -0.204589
   5 H :    0.037113
   6 C :    0.033596
   7 H :    0.051612
   8 H :    0.041476
   9 C :   -0.128315
  10 H :    0.048834
  11 H :    0.035187
  12 C :   -0.042331
  13 H :    0.021660
  14 H :    0.030276
  15 H :    0.039209
  16 S :    0.135395
  17 C :   -0.086938
  18 C :   -0.071228
  19 C :   -0.020239
  20 C :   -0.167589
  21 H :    0.034670
  22 C :    0.024940
  23 H :    0.025594
  24 H :    0.043747
  25 C :   -0.083505
  26 H :    0.045111
  27 H :    0.032552
  28 C :   -0.038126
  29 H :    0.038738
  30 H :    0.022375
  31 H :    0.025793
  32 H :    0.069037
  33 H :    0.077525
Sum of atomic charges:    0.0000000

LOEWDIN ATOMIC CHARGES
----------------------
   0 S :    0.448020
   1 C :   -0.212491
   2 C :   -0.075622
   3 C :   -0.068151
   4 C :   -0.227183
   5 H :    0.042182
   6 C :   -0.040026
   7 H :    0.039688
   8 H :    0.037298
   9 C :   -0.043398
  10 H :    0.031981
  11 H :    0.020232
  12 C :   -0.064809
  13 H :    0.024540
  14 H :    0.016529
  15 H :    0.031903
  16 S :    0.436004
  17 C :   -0.221057
  18 C :   -0.080651
  19 C :   -0.051209
  20 C :   -0.203102
  21 H :    0.036765
  22 C :   -0.046333
  23 H :    0.031182
  24 H :    0.035949
  25 C :   -0.033156
  26 H :    0.031461
  27 H :    0.021280
  28 C :   -0.062482
  29 H :    0.029486
  30 H :    0.014470
  31 H :    0.023224
  32 H :    0.037311
  33 H :    0.040165

  Mayer bond orders larger than 0.100000
B(  0-S ,  1-C ) :   1.1769 B(  0-S ,  4-C ) :   1.1834 B(  1-C ,  2-C ) :   1.5475
B(  1-C ,  4-C ) :   0.1040 B(  1-C , 32-H ) :   0.9666 B(  2-C ,  3-C ) :   1.2985
B(  2-C ,  6-C ) :   1.0073 B(  3-C ,  4-C ) :   1.5355 B(  3-C ,  5-H ) :   0.9840
B(  4-C , 20-C ) :   1.0190 B(  6-C ,  7-H ) :   0.9374 B(  6-C ,  8-H ) :   0.9514
B(  6-C ,  9-C ) :   1.0630 B(  9-C , 10-H ) :   0.9513 B(  9-C , 11-H ) :   0.9622
B(  9-C , 12-C ) :   1.0822 B( 12-C , 13-H ) :   0.9737 B( 12-C , 14-H ) :   0.9783
B( 12-C , 15-H ) :   0.9754 B( 16-S , 17-C ) :   1.1935 B( 16-S , 20-C ) :   1.1488
B( 17-C , 18-C ) :   1.5625 B( 17-C , 33-H ) :   0.9553 B( 18-C , 19-C ) :   1.2791
B( 18-C , 21-H ) :   0.9822 B( 19-C , 20-C ) :   1.5787 B( 19-C , 22-C ) :   1.0430
B( 22-C , 23-H ) :   0.9256 B( 22-C , 24-H ) :   0.9414 B( 22-C , 25-C ) :   1.0618
B( 25-C , 26-H ) :   0.9578 B( 25-C , 27-H ) :   0.9602 B( 25-C , 28-C ) :   1.0748
B( 28-C , 29-H ) :   0.9730 B( 28-C , 30-H ) :   0.9773 B( 28-C , 31-H ) :   0.9744

Dispersion correction           -0.014594210
FINAL SINGLE POINT ENERGY     -1339.869470711069

DIPOLE MOMENT
-------------
                                X             Y             Z
Electronic contribution:     24.15849       6.31568       5.73600
Nuclear contribution   :    -24.78848      -6.31574      -5.93726
                        -----------------------------------------
Total Dipole Moment    :     -0.62999      -0.00006      -0.20126
                        -----------------------------------------
Magnitude (a.u.)       :      0.66136
Magnitude (Debye)      :      1.68103

Rotational constants in cm-1:     0.020716     0.007520     0.006583
Rotational constants in MHz :   621.036797   225.454732   197.353952

                             ****ORCA TERMINATED NORMALLY****
TOTAL RUN TIME: 0 days 0 hours 0 minutes 31 seconds 481 msec
