                         Program Version 4.2.1 -  RELEASE  -
|  1> ! wB97X-D3 SP def2-SVP
|  2> %pal
|  3> nprocs 16
|  4> end
|  5>
|  6> * xyz 0 1
|  7> S 	 -37.1764 	 53.2319 	 109.445
|  8> C 	 -38.0002 	 54.5977 	 110.111
|  9> C 	 -38.7926 	 54.2058 	 111.191
| 10> C 	 -38.5423 	 52.8223 	 111.533
| 11> C 	 -37.7281 	 52.1342 	 110.668
| 12> H 	 -38.9539 	 52.1665 	 112.307
| 13> C 	 -39.5223 	 55.1551 	 112.12
| 14> H 	 -39.8406 	 56.0734 	 111.574
| 15> H 	 -38.7535 	 55.5877 	 112.773
| 16> C 	 -40.6435 	 54.6107 	 112.959
| 17> H 	 -40.2218 	 53.8779 	 113.706
| 18> H 	 -41.0249 	 55.4133 	 113.609
| 19> C 	 -41.7862 	 54.1388 	 112.148
| 20> H 	 -42.1239 	 55.0198 	 111.492
| 21> H 	 -41.6217 	 53.2673 	 111.482
| 22> H 	 -42.6722 	 53.8529 	 112.701
| 23> S 	 -35.8039 	 50.0657 	 110.991
| 24> C 	 -36.3923 	 48.3996 	 110.911
| 25> C 	 -37.7579 	 48.3444 	 110.966
| 26> C 	 -38.3529 	 49.6369 	 110.827
| 27> C 	 -37.4603 	 50.7005 	 110.698
| 28> H 	 -38.2045 	 47.4017 	 111.079
| 29> C 	 -39.852 	 49.7242 	 110.92
| 30> H 	 -40.2904 	 48.9541 	 110.244
| 31> H 	 -39.985 	 50.6861 	 110.463
| 32> C 	 -40.4955 	 49.5829 	 112.314
| 33> H 	 -40.1526 	 50.3458 	 112.955
| 34> H 	 -40.4408 	 48.5977 	 112.802
| 35> C 	 -41.996 	 49.8775 	 112.153
| 36> H 	 -42.2609 	 49.0973 	 111.382
| 37> H 	 -42.1232 	 50.901 	 111.78
| 38> H 	 -42.6116 	 49.7931 	 113.091
| 39> H 	 -37.9585 	 55.5862 	 109.81
| 40> H 	 -35.7845 	 47.521 	 110.706
| 41> *
| 42>
| 43>                          ****END OF INPUT****

CARTESIAN COORDINATES (ANGSTROEM)
---------------------------------
  S    -37.176400   53.231900  109.445000
  C    -38.000200   54.597700  110.111000
  C    -38.792600   54.205800  111.191000
  C    -38.542300   52.822300  111.533000
  C    -37.728100   52.134200  110.668000
  H    -38.953900   52.166500  112.307000
  C    -39.522300   55.155100  112.120000
  H    -39.840600   56.073400  111.574000
  H    -38.753500   55.587700  112.773000
  C    -40.643500   54.610700  112.959000
  H    -40.221800   53.877900  113.706000
  H    -41.024900   55.413300  113.609000
  C    -41.786200   54.138800  112.148000
  H    -42.123900   55.019800  111.492000
  H    -41.621700   53.267300  111.482000
  H    -42.672200   53.852900  112.701000
  S    -35.803900   50.065700  110.991000
  C    -36.392300   48.399600  110.911000
  C    -37.757900   48.344400  110.966000
  C    -38.352900   49.636900  110.827000
  C    -37.460300   50.700500  110.698000
  H    -38.204500   47.401700  111.079000
  C    -39.852000   49.724200  110.920000
  H    -40.290400   48.954100  110.244000
  H    -39.985000   50.686100  110.463000
  C    -40.495500   49.582900  112.314000
  H    -40.152600   50.345800  112.955000
  H    -40.440800   48.597700  112.802000
  C    -41.996000   49.877500  112.153000
  H    -42.260900   49.097300  111.382000
  H    -42.123200   50.901000  111.780000
  H    -42.611600   49.793100  113.091000
  H    -37.958500   55.586200  109.810000
  H    -35.784500   47.521000  110.706000

 Total Charge           Charge          ....    0
 Multiplicity           Mult            ....    1
 Number of Electrons    NEL             ....  134
 Basis Dimension        Dim             ....  322

ORBITAL ENERGIES
----------------

  NO   OCC          E(Eh)            E(eV)
   0   2.0000     -88.966047     -2420.8892
   1   2.0000     -88.962884     -2420.8032
   2   2.0000     -10.331018      -281.1213
   3   2.0000     -10.326787      -281.0062
   4   2.0000     -10.318625      -280.7841
   5   2.0000     -10.312458      -280.6162
   6   2.0000     -10.306848      -280.4636
   7   2.0000     -10.304289      -280.3940
   8   2.0000     -10.295969      -280.1676
   9   2.0000     -10.294984      -280.1408
  10   2.0000     -10.290957      -280.0312
  11   2.0000     -10.290940      -280.0307
  12   2.0000     -10.288174      -279.9555
  13   2.0000     -10.287649      -279.9412
  14   2.0000     -10.284818      -279.8641
  15   2.0000     -10.282353      -279.7971
  16   2.0000      -8.081253      -219.9021
  17   2.0000      -8.076825      -219.7816
  18   2.0000      -6.039726      -164.3493
  19   2.0000      -6.035548      -164.2356
  20   2.0000      -6.035538      -164.2353
  21   2.0000      -6.032152      -164.1432
  22   2.0000      -6.031569      -164.1273
  23   2.0000      -6.027281      -164.0106
  24   2.0000      -1.006685       -27.3933
  25   2.0000      -0.983708       -26.7681
  26   2.0000      -0.920153       -25.0386
  27   2.0000      -0.911899       -24.8140
  28   2.0000      -0.875181       -23.8149
  29   2.0000      -0.851324       -23.1657
  30   2.0000      -0.845305       -23.0019
  31   2.0000      -0.819435       -22.2980
  32   2.0000      -0.783176       -21.3113
  33   2.0000      -0.766605       -20.8604
  34   2.0000      -0.708340       -19.2749
  35   2.0000      -0.698435       -19.0054
  36   2.0000      -0.694674       -18.9030
  37   2.0000      -0.660458       -17.9720
  38   2.0000      -0.646833       -17.6012
  39   2.0000      -0.619949       -16.8697
  40   2.0000      -0.591048       -16.0832
  41   2.0000      -0.579916       -15.7803
  42   2.0000      -0.572273       -15.5723
  43   2.0000      -0.562481       -15.3059
  44   2.0000      -0.540675       -14.7125
  45   2.0000      -0.526763       -14.3340
  46   2.0000      -0.521842       -14.2000
  47   2.0000      -0.517515       -14.0823
  48   2.0000      -0.505751       -13.7622
  49   2.0000      -0.504262       -13.7217
  50   2.0000      -0.486333       -13.2338
  51   2.0000      -0.481500       -13.1023
  52   2.0000      -0.470389       -12.7999
  53   2.0000      -0.461950       -12.5703
  54   2.0000      -0.454252       -12.3608
  55   2.0000      -0.447952       -12.1894
  56   2.0000      -0.442009       -12.0277
  57   2.0000      -0.436265       -11.8714
  58   2.0000      -0.430433       -11.7127
  59   2.0000      -0.428390       -11.6571
  60   2.0000      -0.422530       -11.4976
  61   2.0000      -0.414287       -11.2733
  62   2.0000      -0.410231       -11.1630
  63   2.0000      -0.340408        -9.2630
  64   2.0000      -0.327763        -8.9189
  65   2.0000      -0.326746        -8.8912
  66   2.0000      -0.302011        -8.2181
  67   0.0000       0.026969         0.7339
  68   0.0000       0.068583         1.8662
  69   0.0000       0.108719         2.9584
  70   0.0000       0.118082         3.2132
  71   0.0000       0.123015         3.3474

MULLIKEN ATOMIC CHARGES
-----------------------
   0 S :    0.126052
   1 C :   -0.079668
   2 C :   -0.075974
   3 C :    0.021968
   4 C :   -0.180580
   5 H :    0.002136
   6 C :    0.033815
   7 H :    0.018475
   8 H :    0.045487
   9 C :   -0.064035
  10 H :    0.037194
  11 H :    0.030893
  12 C :   -0.071053
  13 H :    0.032594
  14 H :    0.047699
  15 H :    0.031309
  16 S :    0.090381
  17 C :   -0.093890
  18 C :   -0.010465
  19 C :   -0.036298
  20 C :   -0.135411
  21 H :    0.002874
  22 C :    0.029158
  23 H :    0.029958
  24 H :    0.027781
  25 C :   -0.030448
  26 H :    0.016707
  27 H :    0.039273
  28 C :   -0.077655
  29 H :    0.033317
  30 H :    0.027214
  31 H :    0.046542
  32 H :    0.019910
  33 H :    0.064740
Sum of atomic charges:    0.0000000

LOEWDIN ATOMIC CHARGES
----------------------
   0 S :    0.428227
   1 C :   -0.188601
   2 C :   -0.062352
   3 C :   -0.064022
   4 C :   -0.210946
   5 H :    0.031804
   6 C :   -0.040130
   7 H :    0.030888
   8 H :    0.039474
   9 C :   -0.054206
  10 H :    0.028425
  11 H :    0.032655
  12 C :   -0.073993
  13 H :    0.036184
  14 H :    0.024675
  15 H :    0.023927
  16 S :    0.372475
  17 C :   -0.167905
  18 C :   -0.067937
  19 C :   -0.048231
  20 C :   -0.193526
  21 H :    0.025903
  22 C :   -0.035200
  23 H :    0.034093
  24 H :    0.030171
  25 C :   -0.034758
  26 H :    0.012814
  27 H :    0.028782
  28 C :   -0.068476
  29 H :    0.029045
  30 H :    0.021473
  31 H :    0.028988
  32 H :    0.016951
  33 H :    0.033331

  Mayer bond orders larger than 0.100000
B(  0-S ,  1-C ) :   1.1568 B(  0-S ,  4-C ) :   1.1517 B(  1-C ,  2-C ) :   1.5875
B(  1-C , 32-H ) :   0.9808 B(  2-C ,  3-C ) :   1.2196 B(  2-C ,  6-C ) :   1.0234
B(  3-C ,  4-C ) :   1.5856 B(  3-C ,  5-H ) :   0.9917 B(  4-C , 20-C ) :   1.0358
B(  6-C ,  7-H ) :   0.9366 B(  6-C ,  8-H ) :   0.9357 B(  6-C ,  9-C ) :   1.0961
B(  9-C , 10-H ) :   0.9415 B(  9-C , 11-H ) :   0.9463 B(  9-C , 12-C ) :   1.0813
B( 12-C , 13-H ) :   0.9653 B( 12-C , 14-H ) :   0.9689 B( 12-C , 15-H ) :   0.9734
B( 16-S , 17-C ) :   1.1508 B( 16-S , 20-C ) :   1.1112 B( 17-C , 18-C ) :   1.6234
B( 17-C , 33-H ) :   0.9625 B( 18-C , 19-C ) :   1.2152 B( 18-C , 21-H ) :   1.0033
B( 19-C , 20-C ) :   1.6026 B( 19-C , 22-C ) :   1.0503 B( 22-C , 23-H ) :   0.9300
B( 22-C , 24-H ) :   0.9310 B( 22-C , 25-C ) :   1.0671 B( 25-C , 26-H ) :   0.9499
B( 25-C , 27-H ) :   0.9531 B( 25-C , 28-C ) :   1.0743 B( 28-C , 29-H ) :   0.9738
B( 28-C , 30-H ) :   0.9756 B( 28-C , 31-H ) :   0.9726

Dispersion correction           -0.015675339
FINAL SINGLE POINT ENERGY     -1339.871371624532

DIPOLE MOMENT
-------------
                                X             Y             Z
Electronic contribution:     29.31250      -3.18992     -12.42927
Nuclear contribution   :    -29.93480       3.20195      12.84878
                        -----------------------------------------
Total Dipole Moment    :     -0.62229       0.01202       0.41951
                        -----------------------------------------
Magnitude (a.u.)       :      0.75059
Magnitude (Debye)      :      1.90784

Rotational constants in cm-1:     0.017148     0.010747     0.007238
Rotational constants in MHz :   514.094776   322.184548   216.989593

                             ****ORCA TERMINATED NORMALLY****
TOTAL RUN TIME: 0 days 0 hours 0 minutes 32 seconds 816 msec
