                         Program Version 4.2.1 -  RELEASE  -
|  1> ! wB97X-D3 SP def2-SVP
|  2> %pal
|  3> nprocs 16
|  4> end
|  5>
|  6> * xyz 0 1
|  7> S 	 13.351 	 -9.35476 	 80.4559
|  8> C 	 12.3959 	 -7.91854 	 80.0251
|  9> C 	 13.0225 	 -7.24614 	 78.9825
| 10> C 	 14.4119 	 -7.70395 	 78.7613
| 11> C 	 14.7833 	 -8.78659 	 79.5546
| 12> H 	 15.0535 	 -7.38467 	 77.9465
| 13> C 	 12.5149 	 -6.03748 	 78.2507
| 14> H 	 11.4343 	 -5.88608 	 78.5773
| 15> H 	 12.6252 	 -6.39889 	 77.2656
| 16> C 	 13.107 	 -4.72186 	 78.4205
| 17> H 	 12.9351 	 -4.38083 	 79.4646
| 18> H 	 14.2059 	 -4.76436 	 78.3305
| 19> C 	 12.4184 	 -3.70641 	 77.4753
| 20> H 	 11.3305 	 -3.83431 	 77.4447
| 21> H 	 12.7781 	 -2.7009 	 77.656
| 22> H 	 12.8071 	 -3.97849 	 76.506
| 23> S 	 16.0787 	 -11.2348 	 79.1023
| 24> C 	 17.7133 	 -11.3311 	 79.4565
| 25> C 	 18.3263 	 -10.1564 	 79.8094
| 26> C 	 17.3839 	 -9.06388 	 79.7526
| 27> C 	 16.0856 	 -9.50803 	 79.5367
| 28> H 	 19.3431 	 -10.1133 	 80.1243
| 29> C 	 17.8259 	 -7.68968 	 80.1062
| 30> H 	 17.3004 	 -7.03707 	 79.3459
| 31> H 	 18.9286 	 -7.53811 	 79.9901
| 32> C 	 17.3982 	 -7.26433 	 81.5073
| 33> H 	 17.7278 	 -7.97391 	 82.176
| 34> H 	 16.2828 	 -7.19336 	 81.4227
| 35> C 	 18.1357 	 -5.91664 	 81.7835
| 36> H 	 17.9262 	 -5.22498 	 80.964
| 37> H 	 19.2055 	 -6.01811 	 81.7383
| 38> H 	 17.8564 	 -5.41822 	 82.6739
| 39> H 	 11.3831 	 -7.65071 	 80.2107
| 40> H 	 18.3287 	 -12.2098 	 79.3477
| 41> *
| 42>
| 43>                          ****END OF INPUT****

CARTESIAN COORDINATES (ANGSTROEM)
---------------------------------
  S     13.351000   -9.354760   80.455900
  C     12.395900   -7.918540   80.025100
  C     13.022500   -7.246140   78.982500
  C     14.411900   -7.703950   78.761300
  C     14.783300   -8.786590   79.554600
  H     15.053500   -7.384670   77.946500
  C     12.514900   -6.037480   78.250700
  H     11.434300   -5.886080   78.577300
  H     12.625200   -6.398890   77.265600
  C     13.107000   -4.721860   78.420500
  H     12.935100   -4.380830   79.464600
  H     14.205900   -4.764360   78.330500
  C     12.418400   -3.706410   77.475300
  H     11.330500   -3.834310   77.444700
  H     12.778100   -2.700900   77.656000
  H     12.807100   -3.978490   76.506000
  S     16.078700  -11.234800   79.102300
  C     17.713300  -11.331100   79.456500
  C     18.326300  -10.156400   79.809400
  C     17.383900   -9.063880   79.752600
  C     16.085600   -9.508030   79.536700
  H     19.343100  -10.113300   80.124300
  C     17.825900   -7.689680   80.106200
  H     17.300400   -7.037070   79.345900
  H     18.928600   -7.538110   79.990100
  C     17.398200   -7.264330   81.507300
  H     17.727800   -7.973910   82.176000
  H     16.282800   -7.193360   81.422700
  C     18.135700   -5.916640   81.783500
  H     17.926200   -5.224980   80.964000
  H     19.205500   -6.018110   81.738300
  H     17.856400   -5.418220   82.673900
  H     11.383100   -7.650710   80.210700
  H     18.328700  -12.209800   79.347700

 Total Charge           Charge          ....    0
 Multiplicity           Mult            ....    1
 Number of Electrons    NEL             ....  134
 Basis Dimension        Dim             ....  322

ORBITAL ENERGIES
----------------

  NO   OCC          E(Eh)            E(eV)
   0   2.0000     -88.967582     -2420.9310
   1   2.0000     -88.966780     -2420.9092
   2   2.0000     -10.338477      -281.3243
   3   2.0000     -10.329456      -281.0788
   4   2.0000     -10.315568      -280.7009
   5   2.0000     -10.310454      -280.5617
   6   2.0000     -10.304818      -280.4084
   7   2.0000     -10.304238      -280.3926
   8   2.0000     -10.299368      -280.2601
   9   2.0000     -10.291798      -280.0541
  10   2.0000     -10.289292      -279.9859
  11   2.0000     -10.288589      -279.9667
  12   2.0000     -10.286649      -279.9139
  13   2.0000     -10.281221      -279.7662
  14   2.0000     -10.280975      -279.7596
  15   2.0000     -10.272357      -279.5250
  16   2.0000      -8.083268      -219.9569
  17   2.0000      -8.080242      -219.8746
  18   2.0000      -6.041611      -164.4006
  19   2.0000      -6.039092      -164.3320
  20   2.0000      -6.037760      -164.2958
  21   2.0000      -6.035005      -164.2208
  22   2.0000      -6.034031      -164.1943
  23   2.0000      -6.030608      -164.1012
  24   2.0000      -1.005158       -27.3517
  25   2.0000      -0.980908       -26.6919
  26   2.0000      -0.923394       -25.1268
  27   2.0000      -0.914945       -24.8969
  28   2.0000      -0.867972       -23.6187
  29   2.0000      -0.852715       -23.2035
  30   2.0000      -0.842590       -22.9281
  31   2.0000      -0.814017       -22.1505
  32   2.0000      -0.781001       -21.2521
  33   2.0000      -0.771501       -20.9936
  34   2.0000      -0.710762       -19.3408
  35   2.0000      -0.701035       -19.0761
  36   2.0000      -0.692095       -18.8329
  37   2.0000      -0.662274       -18.0214
  38   2.0000      -0.636549       -17.3214
  39   2.0000      -0.619988       -16.8707
  40   2.0000      -0.597360       -16.2550
  41   2.0000      -0.574575       -15.6350
  42   2.0000      -0.573901       -15.6166
  43   2.0000      -0.566171       -15.4063
  44   2.0000      -0.528978       -14.3942
  45   2.0000      -0.523401       -14.2425
  46   2.0000      -0.511016       -13.9054
  47   2.0000      -0.508262       -13.8305
  48   2.0000      -0.503107       -13.6902
  49   2.0000      -0.502268       -13.6674
  50   2.0000      -0.490563       -13.3489
  51   2.0000      -0.487834       -13.2746
  52   2.0000      -0.471828       -12.8391
  53   2.0000      -0.462805       -12.5936
  54   2.0000      -0.454150       -12.3580
  55   2.0000      -0.453114       -12.3299
  56   2.0000      -0.449263       -12.2251
  57   2.0000      -0.439011       -11.9461
  58   2.0000      -0.436080       -11.8663
  59   2.0000      -0.427710       -11.6386
  60   2.0000      -0.420358       -11.4385
  61   2.0000      -0.414149       -11.2696
  62   2.0000      -0.406881       -11.0718
  63   2.0000      -0.344893        -9.3850
  64   2.0000      -0.331447        -9.0191
  65   2.0000      -0.323893        -8.8136
  66   2.0000      -0.295718        -8.0469
  67   0.0000       0.031216         0.8494
  68   0.0000       0.063688         1.7330
  69   0.0000       0.108348         2.9483
  70   0.0000       0.116497         3.1700
  71   0.0000       0.128057         3.4846

MULLIKEN ATOMIC CHARGES
-----------------------
   0 S :    0.101258
   1 C :   -0.081316
   2 C :   -0.110191
   3 C :    0.019917
   4 C :   -0.152070
   5 H :    0.026000
   6 C :    0.040882
   7 H :    0.022188
   8 H :    0.024104
   9 C :   -0.071902
  10 H :    0.026229
  11 H :    0.026194
  12 C :   -0.024221
  13 H :    0.038343
  14 H :    0.038460
  15 H :    0.017125
  16 S :    0.127988
  17 C :   -0.067646
  18 C :   -0.040769
  19 C :   -0.019644
  20 C :   -0.179965
  21 H :    0.010217
  22 C :    0.004995
  23 H :    0.029926
  24 H :    0.023973
  25 C :   -0.038435
  26 H :    0.017233
  27 H :    0.059661
  28 C :   -0.019522
  29 H :    0.015439
  30 H :    0.021238
  31 H :    0.028907
  32 H :    0.035869
  33 H :    0.049533
Sum of atomic charges:    0.0000000

LOEWDIN ATOMIC CHARGES
----------------------
   0 S :    0.377427
   1 C :   -0.193285
   2 C :   -0.055340
   3 C :   -0.069033
   4 C :   -0.181694
   5 H :    0.030948
   6 C :   -0.041867
   7 H :    0.036759
   8 H :    0.029068
   9 C :   -0.045426
  10 H :    0.024971
  11 H :    0.022385
  12 C :   -0.057511
  13 H :    0.028411
  14 H :    0.027095
  15 H :    0.023147
  16 S :    0.426955
  17 C :   -0.200229
  18 C :   -0.073881
  19 C :   -0.046284
  20 C :   -0.201848
  21 H :    0.028716
  22 C :   -0.040271
  23 H :    0.035278
  24 H :    0.029942
  25 C :   -0.024843
  26 H :    0.012587
  27 H :    0.037804
  28 C :   -0.061666
  29 H :    0.025327
  30 H :    0.022072
  31 H :    0.018682
  32 H :    0.027069
  33 H :    0.028537

  Mayer bond orders larger than 0.100000
B(  0-S ,  1-C ) :   1.1078 B(  0-S ,  4-C ) :   1.1295 B(  1-C ,  2-C ) :   1.6528
B(  1-C , 32-H ) :   0.9629 B(  2-C ,  3-C ) :   1.1923 B(  2-C ,  6-C ) :   1.0258
B(  3-C ,  4-C ) :   1.6064 B(  3-C ,  5-H ) :   0.9849 B(  4-C , 20-C ) :   1.0369
B(  6-C ,  7-H ) :   0.9373 B(  6-C ,  8-H ) :   0.9299 B(  6-C ,  9-C ) :   1.0845
B(  9-C , 10-H ) :   0.9513 B(  9-C , 11-H ) :   0.9504 B(  9-C , 12-C ) :   1.0681
B( 12-C , 13-H ) :   0.9740 B( 12-C , 14-H ) :   0.9734 B( 12-C , 15-H ) :   0.9758
B( 16-S , 17-C ) :   1.1753 B( 16-S , 20-C ) :   1.1333 B( 17-C , 18-C ) :   1.6112
B( 17-C , 33-H ) :   0.9606 B( 18-C , 19-C ) :   1.2342 B( 18-C , 21-H ) :   0.9964
B( 19-C , 20-C ) :   1.5997 B( 19-C , 22-C ) :   1.0512 B( 22-C , 23-H ) :   0.9208
B( 22-C , 24-H ) :   0.9420 B( 22-C , 25-C ) :   1.0615 B( 25-C , 26-H ) :   0.9585
B( 25-C , 27-H ) :   0.9519 B( 25-C , 28-C ) :   1.0799 B( 28-C , 29-H ) :   0.9708
B( 28-C , 30-H ) :   0.9737 B( 28-C , 31-H ) :   0.9750

Dispersion correction           -0.014066416
FINAL SINGLE POINT ENERGY     -1339.862996166076

DIPOLE MOMENT
-------------
                                X             Y             Z
Electronic contribution:     -2.99272     -30.11245       1.15652
Nuclear contribution   :      3.27402      30.65464      -1.39879
                        -----------------------------------------
Total Dipole Moment    :      0.28130       0.54219      -0.24227
                        -----------------------------------------
Magnitude (a.u.)       :      0.65711
Magnitude (Debye)      :      1.67025

Rotational constants in cm-1:     0.018018     0.008535     0.006754
Rotational constants in MHz :   540.164373   255.885642   202.472955

                             ****ORCA TERMINATED NORMALLY****
TOTAL RUN TIME: 0 days 0 hours 0 minutes 30 seconds 113 msec
