                         Program Version 4.2.1 -  RELEASE  -
|  1> ! wB97X-D3 SP def2-SVP
|  2> %pal
|  3> nprocs 16
|  4> end
|  5>
|  6> * xyz 0 1
|  7> S 	 -45.2485 	 31.9856 	 91.7974
|  8> C 	 -46.1631 	 30.5797 	 91.3681
|  9> C 	 -47.5053 	 30.6864 	 91.7144
| 10> C 	 -47.7724 	 32.0052 	 92.2165
| 11> C 	 -46.6858 	 32.7953 	 92.3744
| 12> H 	 -48.7244 	 32.3494 	 92.5192
| 13> C 	 -48.4118 	 29.4748 	 91.5137
| 14> H 	 -47.7065 	 28.6279 	 91.3366
| 15> H 	 -49.019 	 29.8545 	 90.6681
| 16> C 	 -49.1422 	 29.0801 	 92.821
| 17> H 	 -48.5007 	 29.0239 	 93.7167
| 18> H 	 -49.9887 	 29.7603 	 93.1445
| 19> C 	 -49.7081 	 27.5807 	 92.7311
| 20> H 	 -49.0304 	 26.8284 	 92.4541
| 21> H 	 -50.3345 	 27.3458 	 93.6292
| 22> H 	 -50.4865 	 27.6737 	 91.9753
| 23> S 	 -45.6562 	 35.3397 	 92.1463
| 24> C 	 -46.2835 	 36.6166 	 93.2944
| 25> C 	 -47.1709 	 36.1007 	 94.2699
| 26> C 	 -47.3642 	 34.6915 	 94.0815
| 27> C 	 -46.7126 	 34.098 	 92.9977
| 28> H 	 -47.6579 	 36.7596 	 95.0014
| 29> C 	 -48.322 	 34.0031 	 95.0641
| 30> H 	 -48.6203 	 33.0811 	 94.6744
| 31> H 	 -49.152 	 34.6962 	 95.0635
| 32> C 	 -47.6184 	 33.7107 	 96.3851
| 33> H 	 -47.2716 	 34.6888 	 96.8508
| 34> H 	 -46.8429 	 33.0199 	 96.1327
| 35> C 	 -48.4899 	 33.0926 	 97.3794
| 36> H 	 -47.945 	 32.6835 	 98.2688
| 37> H 	 -49.0683 	 32.2293 	 96.9424
| 38> H 	 -49.2679 	 33.8198 	 97.6211
| 39> H 	 -45.8203 	 29.6571 	 90.9443
| 40> H 	 -45.9915 	 37.6791 	 93.3475
| 41> *
| 42>
| 43>                          ****END OF INPUT****

CARTESIAN COORDINATES (ANGSTROEM)
---------------------------------
  S    -45.248500   31.985600   91.797400
  C    -46.163100   30.579700   91.368100
  C    -47.505300   30.686400   91.714400
  C    -47.772400   32.005200   92.216500
  C    -46.685800   32.795300   92.374400
  H    -48.724400   32.349400   92.519200
  C    -48.411800   29.474800   91.513700
  H    -47.706500   28.627900   91.336600
  H    -49.019000   29.854500   90.668100
  C    -49.142200   29.080100   92.821000
  H    -48.500700   29.023900   93.716700
  H    -49.988700   29.760300   93.144500
  C    -49.708100   27.580700   92.731100
  H    -49.030400   26.828400   92.454100
  H    -50.334500   27.345800   93.629200
  H    -50.486500   27.673700   91.975300
  S    -45.656200   35.339700   92.146300
  C    -46.283500   36.616600   93.294400
  C    -47.170900   36.100700   94.269900
  C    -47.364200   34.691500   94.081500
  C    -46.712600   34.098000   92.997700
  H    -47.657900   36.759600   95.001400
  C    -48.322000   34.003100   95.064100
  H    -48.620300   33.081100   94.674400
  H    -49.152000   34.696200   95.063500
  C    -47.618400   33.710700   96.385100
  H    -47.271600   34.688800   96.850800
  H    -46.842900   33.019900   96.132700
  C    -48.489900   33.092600   97.379400
  H    -47.945000   32.683500   98.268800
  H    -49.068300   32.229300   96.942400
  H    -49.267900   33.819800   97.621100
  H    -45.820300   29.657100   90.944300
  H    -45.991500   37.679100   93.347500

 Total Charge           Charge          ....    0
 Multiplicity           Mult            ....    1
 Number of Electrons    NEL             ....  134
 Basis Dimension        Dim             ....  322

ORBITAL ENERGIES
----------------

  NO   OCC          E(Eh)            E(eV)
   0   2.0000     -88.967306     -2420.9235
   1   2.0000     -88.965731     -2420.8806
   2   2.0000     -10.334642      -281.2199
   3   2.0000     -10.330198      -281.0990
   4   2.0000     -10.327045      -281.0132
   5   2.0000     -10.309149      -280.5262
   6   2.0000     -10.308919      -280.5200
   7   2.0000     -10.305663      -280.4314
   8   2.0000     -10.302719      -280.3512
   9   2.0000     -10.301311      -280.3129
  10   2.0000     -10.300378      -280.2875
  11   2.0000     -10.289572      -279.9935
  12   2.0000     -10.286551      -279.9113
  13   2.0000     -10.283059      -279.8163
  14   2.0000     -10.281783      -279.7815
  15   2.0000     -10.278601      -279.6949
  16   2.0000      -8.082254      -219.9293
  17   2.0000      -8.078037      -219.8146
  18   2.0000      -6.040826      -164.3792
  19   2.0000      -6.036863      -164.2714
  20   2.0000      -6.036778      -164.2691
  21   2.0000      -6.032975      -164.1656
  22   2.0000      -6.032880      -164.1630
  23   2.0000      -6.028523      -164.0444
  24   2.0000      -1.005238       -27.3539
  25   2.0000      -0.972491       -26.4628
  26   2.0000      -0.917118       -24.9561
  27   2.0000      -0.907783       -24.7020
  28   2.0000      -0.868217       -23.6254
  29   2.0000      -0.852742       -23.2043
  30   2.0000      -0.844516       -22.9804
  31   2.0000      -0.815720       -22.1969
  32   2.0000      -0.779825       -21.2201
  33   2.0000      -0.766838       -20.8667
  34   2.0000      -0.709728       -19.3127
  35   2.0000      -0.694111       -18.8877
  36   2.0000      -0.688964       -18.7477
  37   2.0000      -0.664241       -18.0749
  38   2.0000      -0.642311       -17.4782
  39   2.0000      -0.621060       -16.8999
  40   2.0000      -0.589227       -16.0337
  41   2.0000      -0.576778       -15.6949
  42   2.0000      -0.571020       -15.5382
  43   2.0000      -0.562447       -15.3050
  44   2.0000      -0.530311       -14.4305
  45   2.0000      -0.526910       -14.3379
  46   2.0000      -0.517730       -14.0881
  47   2.0000      -0.509892       -13.8749
  48   2.0000      -0.504983       -13.7413
  49   2.0000      -0.501898       -13.6573
  50   2.0000      -0.491024       -13.3615
  51   2.0000      -0.481745       -13.1090
  52   2.0000      -0.470488       -12.8026
  53   2.0000      -0.465848       -12.6764
  54   2.0000      -0.451568       -12.2878
  55   2.0000      -0.450486       -12.2584
  56   2.0000      -0.442882       -12.0514
  57   2.0000      -0.436458       -11.8766
  58   2.0000      -0.431429       -11.7398
  59   2.0000      -0.429095       -11.6763
  60   2.0000      -0.418810       -11.3964
  61   2.0000      -0.411237       -11.1903
  62   2.0000      -0.404921       -11.0185
  63   2.0000      -0.350949        -9.5498
  64   2.0000      -0.331762        -9.0277
  65   2.0000      -0.329260        -8.9596
  66   2.0000      -0.287013        -7.8100
  67   0.0000       0.024596         0.6693
  68   0.0000       0.069971         1.9040
  69   0.0000       0.095839         2.6079
  70   0.0000       0.121035         3.2935
  71   0.0000       0.130549         3.5524

MULLIKEN ATOMIC CHARGES
-----------------------
   0 S :    0.123942
   1 C :   -0.110858
   2 C :   -0.125473
   3 C :    0.025772
   4 C :   -0.116752
   5 H :   -0.005669
   6 C :    0.090413
   7 H :    0.029179
   8 H :    0.065184
   9 C :   -0.128127
  10 H :    0.042835
  11 H :    0.041979
  12 C :   -0.060105
  13 H :    0.039971
  14 H :    0.039010
  15 H :    0.021448
  16 S :    0.070747
  17 C :   -0.094698
  18 C :   -0.051102
  19 C :   -0.059824
  20 C :   -0.139810
  21 H :    0.037699
  22 C :    0.097286
  23 H :   -0.014288
  24 H :    0.024727
  25 C :   -0.068187
  26 H :    0.035690
  27 H :    0.032590
  28 C :   -0.037827
  29 H :    0.050223
  30 H :    0.018896
  31 H :    0.022093
  32 H :    0.035296
  33 H :    0.067738
Sum of atomic charges:   -0.0000000

LOEWDIN ATOMIC CHARGES
----------------------
   0 S :    0.410792
   1 C :   -0.207606
   2 C :   -0.061390
   3 C :   -0.061591
   4 C :   -0.198065
   5 H :    0.022236
   6 C :   -0.030989
   7 H :    0.039002
   8 H :    0.045397
   9 C :   -0.046958
  10 H :    0.026339
  11 H :    0.028741
  12 C :   -0.069366
  13 H :    0.016277
  14 H :    0.032557
  15 H :    0.023138
  16 S :    0.335181
  17 C :   -0.160516
  18 C :   -0.073607
  19 C :   -0.047533
  20 C :   -0.167108
  21 H :    0.038901
  22 C :   -0.021039
  23 H :    0.015243
  24 H :    0.028486
  25 C :   -0.041699
  26 H :    0.030771
  27 H :    0.027382
  28 C :   -0.072539
  29 H :    0.033139
  30 H :    0.024297
  31 H :    0.023774
  32 H :    0.023568
  33 H :    0.034783

  Mayer bond orders larger than 0.100000
B(  0-S ,  1-C ) :   1.1312 B(  0-S ,  4-C ) :   1.1365 B(  1-C ,  2-C ) :   1.6279
B(  1-C , 32-H ) :   0.9649 B(  2-C ,  3-C ) :   1.2256 B(  2-C ,  6-C ) :   1.0083
B(  3-C ,  4-C ) :   1.5815 B(  3-C ,  5-H ) :   1.0051 B(  4-C , 20-C ) :   1.0610
B(  6-C ,  7-H ) :   0.9432 B(  6-C ,  8-H ) :   0.9351 B(  6-C ,  9-C ) :   1.0492
B(  9-C , 10-H ) :   0.9650 B(  9-C , 11-H ) :   0.9556 B(  9-C , 12-C ) :   1.0746
B( 12-C , 13-H ) :   0.9800 B( 12-C , 14-H ) :   0.9757 B( 12-C , 15-H ) :   0.9760
B( 16-S , 17-C ) :   1.1365 B( 16-S , 20-C ) :   1.0882 B( 17-C , 18-C ) :   1.6401
B( 17-C , 20-C ) :   0.1049 B( 17-C , 33-H ) :   0.9602 B( 18-C , 19-C ) :   1.2111
B( 18-C , 21-H ) :   0.9813 B( 19-C , 20-C ) :   1.6351 B( 19-C , 22-C ) :   1.0316
B( 22-C , 23-H ) :   0.9268 B( 22-C , 24-H ) :   0.9352 B( 22-C , 25-C ) :   1.0711
B( 25-C , 26-H ) :   0.9531 B( 25-C , 27-H ) :   0.9489 B( 25-C , 28-C ) :   1.1030
B( 28-C , 29-H ) :   0.9707 B( 28-C , 30-H ) :   0.9658 B( 28-C , 31-H ) :   0.9697

Dispersion correction           -0.013631270
FINAL SINGLE POINT ENERGY     -1339.855203662211

DIPOLE MOMENT
-------------
                                X             Y             Z
Electronic contribution:     20.69184      17.65319     -16.71106
Nuclear contribution   :    -21.34499     -17.93569      17.13789
                        -----------------------------------------
Total Dipole Moment    :     -0.65315      -0.28250       0.42683
                        -----------------------------------------
Magnitude (a.u.)       :      0.82982
Magnitude (Debye)      :      2.10923

Rotational constants in cm-1:     0.017261     0.008846     0.006367
Rotational constants in MHz :   517.485446   265.182014   190.866672

                             ****ORCA TERMINATED NORMALLY****
TOTAL RUN TIME: 0 days 0 hours 0 minutes 29 seconds 942 msec
