                         Program Version 4.2.1 -  RELEASE  -
|  1> ! wB97X-D3 SP def2-SVP
|  2> %pal
|  3> nprocs 16
|  4> end
|  5>
|  6> * xyz 0 1
|  7> S 	 7.77273 	 78.4529 	 46.4704
|  8> C 	 7.55903 	 76.7553 	 46.1929
|  9> C 	 7.64854 	 76.033 	 47.3633
| 10> C 	 8.07327 	 76.8117 	 48.4574
| 11> C 	 8.19582 	 78.1473 	 48.1932
| 12> H 	 8.3155 	 76.3502 	 49.3254
| 13> C 	 7.55662 	 74.4992 	 47.5426
| 14> H 	 7.65091 	 74.2905 	 48.5792
| 15> H 	 8.45417 	 74.0849 	 47.0548
| 16> C 	 6.27131 	 73.7472 	 47.0512
| 17> H 	 5.40206 	 74.2936 	 47.096
| 18> H 	 6.4799 	 73.5749 	 46.0615
| 19> C 	 6.10726 	 72.3797 	 47.7715
| 20> H 	 5.60193 	 71.4653 	 47.2821
| 21> H 	 7.01349 	 71.9895 	 48.0963
| 22> H 	 5.57993 	 72.6227 	 48.7262
| 23> S 	 9.43284 	 80.6199 	 48.3097
| 24> C 	 9.5704 	 81.4618 	 49.8202
| 25> C 	 9.08144 	 80.6983 	 50.8457
| 26> C 	 8.48872 	 79.4857 	 50.4387
| 27> C 	 8.59484 	 79.2619 	 49.0534
| 28> H 	 9.19862 	 81.054 	 51.8195
| 29> C 	 7.77889 	 78.5013 	 51.4295
| 30> H 	 8.00703 	 79.1024 	 52.4363
| 31> H 	 8.28718 	 77.4936 	 51.4828
| 32> C 	 6.24451 	 78.4758 	 51.4115
| 33> H 	 5.96611 	 77.9847 	 52.2985
| 34> H 	 5.93793 	 77.7933 	 50.6622
| 35> C 	 5.46141 	 79.8277 	 51.3353
| 36> H 	 5.54527 	 80.4401 	 52.2425
| 37> H 	 4.39975 	 79.587 	 51.2333
| 38> H 	 5.71916 	 80.4783 	 50.4545
| 39> H 	 7.29823 	 76.25 	 45.2014
| 40> H 	 10.1114 	 82.4171 	 49.9268
| 41> *
| 42>
| 43>                          ****END OF INPUT****

CARTESIAN COORDINATES (ANGSTROEM)
---------------------------------
  S      7.772730   78.452900   46.470400
  C      7.559030   76.755300   46.192900
  C      7.648540   76.033000   47.363300
  C      8.073270   76.811700   48.457400
  C      8.195820   78.147300   48.193200
  H      8.315500   76.350200   49.325400
  C      7.556620   74.499200   47.542600
  H      7.650910   74.290500   48.579200
  H      8.454170   74.084900   47.054800
  C      6.271310   73.747200   47.051200
  H      5.402060   74.293600   47.096000
  H      6.479900   73.574900   46.061500
  C      6.107260   72.379700   47.771500
  H      5.601930   71.465300   47.282100
  H      7.013490   71.989500   48.096300
  H      5.579930   72.622700   48.726200
  S      9.432840   80.619900   48.309700
  C      9.570400   81.461800   49.820200
  C      9.081440   80.698300   50.845700
  C      8.488720   79.485700   50.438700
  C      8.594840   79.261900   49.053400
  H      9.198620   81.054000   51.819500
  C      7.778890   78.501300   51.429500
  H      8.007030   79.102400   52.436300
  H      8.287180   77.493600   51.482800
  C      6.244510   78.475800   51.411500
  H      5.966110   77.984700   52.298500
  H      5.937930   77.793300   50.662200
  C      5.461410   79.827700   51.335300
  H      5.545270   80.440100   52.242500
  H      4.399750   79.587000   51.233300
  H      5.719160   80.478300   50.454500
  H      7.298230   76.250000   45.201400
  H     10.111400   82.417100   49.926800

 Total Charge           Charge          ....    0
 Multiplicity           Mult            ....    1
 Number of Electrons    NEL             ....  134
 Basis Dimension        Dim             ....  322

ORBITAL ENERGIES
----------------

  NO   OCC          E(Eh)            E(eV)
   0   2.0000     -88.967452     -2420.9274
   1   2.0000     -88.965246     -2420.8674
   2   2.0000     -10.334305      -281.2107
   3   2.0000     -10.329710      -281.0857
   4   2.0000     -10.317186      -280.7449
   5   2.0000     -10.316850      -280.7358
   6   2.0000     -10.308812      -280.5170
   7   2.0000     -10.306155      -280.4447
   8   2.0000     -10.297909      -280.2204
   9   2.0000     -10.294878      -280.1379
  10   2.0000     -10.288669      -279.9689
  11   2.0000     -10.284675      -279.8602
  12   2.0000     -10.283491      -279.8280
  13   2.0000     -10.281291      -279.7682
  14   2.0000     -10.280799      -279.7548
  15   2.0000     -10.278742      -279.6988
  16   2.0000      -8.081596      -219.9114
  17   2.0000      -8.080111      -219.8710
  18   2.0000      -6.040224      -164.3628
  19   2.0000      -6.038530      -164.3167
  20   2.0000      -6.036232      -164.2542
  21   2.0000      -6.034500      -164.2071
  22   2.0000      -6.032213      -164.1449
  23   2.0000      -6.031057      -164.1134
  24   2.0000      -1.006059       -27.3762
  25   2.0000      -0.985543       -26.8180
  26   2.0000      -0.907609       -24.6973
  27   2.0000      -0.900111       -24.4933
  28   2.0000      -0.869258       -23.6537
  29   2.0000      -0.854402       -23.2495
  30   2.0000      -0.843731       -22.9591
  31   2.0000      -0.812724       -22.1154
  32   2.0000      -0.779611       -21.2143
  33   2.0000      -0.769264       -20.9327
  34   2.0000      -0.716934       -19.5088
  35   2.0000      -0.708660       -19.2836
  36   2.0000      -0.688083       -18.7237
  37   2.0000      -0.665349       -18.1051
  38   2.0000      -0.636666       -17.3246
  39   2.0000      -0.625708       -17.0264
  40   2.0000      -0.583843       -15.8872
  41   2.0000      -0.569584       -15.4992
  42   2.0000      -0.565919       -15.3994
  43   2.0000      -0.551879       -15.0174
  44   2.0000      -0.542658       -14.7665
  45   2.0000      -0.522045       -14.2056
  46   2.0000      -0.514896       -14.0110
  47   2.0000      -0.503008       -13.6875
  48   2.0000      -0.500104       -13.6085
  49   2.0000      -0.493886       -13.4393
  50   2.0000      -0.485430       -13.2092
  51   2.0000      -0.482837       -13.1386
  52   2.0000      -0.472210       -12.8495
  53   2.0000      -0.466245       -12.6872
  54   2.0000      -0.460169       -12.5218
  55   2.0000      -0.452393       -12.3102
  56   2.0000      -0.442601       -12.0438
  57   2.0000      -0.440678       -11.9915
  58   2.0000      -0.437097       -11.8940
  59   2.0000      -0.424760       -11.5583
  60   2.0000      -0.421848       -11.4791
  61   2.0000      -0.417074       -11.3492
  62   2.0000      -0.398488       -10.8434
  63   2.0000      -0.358107        -9.7446
  64   2.0000      -0.335787        -9.1372
  65   2.0000      -0.331864        -9.0305
  66   2.0000      -0.283796        -7.7225
  67   0.0000       0.020040         0.5453
  68   0.0000       0.079900         2.1742
  69   0.0000       0.103114         2.8059
  70   0.0000       0.122596         3.3360
  71   0.0000       0.133341         3.6284

MULLIKEN ATOMIC CHARGES
-----------------------
   0 S :    0.103634
   1 C :   -0.145216
   2 C :   -0.088802
   3 C :    0.045022
   4 C :   -0.098226
   5 H :   -0.045414
   6 C :    0.034155
   7 H :    0.005112
   8 H :    0.050189
   9 C :    0.009430
  10 H :    0.020379
  11 H :    0.009302
  12 C :   -0.092062
  13 H :    0.053021
  14 H :    0.012815
  15 H :    0.036243
  16 S :    0.099295
  17 C :   -0.103465
  18 C :   -0.013855
  19 C :   -0.040261
  20 C :   -0.135820
  21 H :   -0.003965
  22 C :   -0.015609
  23 H :    0.024122
  24 H :    0.062052
  25 C :   -0.010677
  26 H :    0.015317
  27 H :    0.020293
  28 C :   -0.075550
  29 H :    0.032775
  30 H :    0.034924
  31 H :    0.057975
  32 H :    0.072835
  33 H :    0.070034
Sum of atomic charges:    0.0000000

LOEWDIN ATOMIC CHARGES
----------------------
   0 S :    0.391312
   1 C :   -0.214463
   2 C :   -0.066936
   3 C :   -0.054426
   4 C :   -0.166825
   5 H :    0.012132
   6 C :   -0.021873
   7 H :    0.018304
   8 H :    0.039112
   9 C :   -0.025464
  10 H :    0.015490
  11 H :    0.013000
  12 C :   -0.073079
  13 H :    0.038533
  14 H :    0.011639
  15 H :    0.030959
  16 S :    0.408747
  17 C :   -0.191357
  18 C :   -0.071048
  19 C :   -0.061361
  20 C :   -0.195760
  21 H :    0.023350
  22 C :   -0.039339
  23 H :    0.038401
  24 H :    0.036635
  25 C :   -0.039179
  26 H :    0.021100
  27 H :    0.018388
  28 C :   -0.068384
  29 H :    0.024276
  30 H :    0.029739
  31 H :    0.035213
  32 H :    0.045765
  33 H :    0.037398

  Mayer bond orders larger than 0.100000
B(  0-S ,  1-C ) :   1.1356 B(  0-S ,  4-C ) :   1.1374 B(  1-C ,  2-C ) :   1.6127
B(  1-C , 32-H ) :   0.9579 B(  2-C ,  3-C ) :   1.2652 B(  2-C ,  6-C ) :   1.0112
B(  3-C ,  4-C ) :   1.5542 B(  3-C ,  5-H ) :   1.0141 B(  4-C , 20-C ) :   1.0726
B(  6-C ,  7-H ) :   0.9515 B(  6-C ,  8-H ) :   0.9400 B(  6-C ,  9-C ) :   1.0479
B(  9-C , 10-H ) :   0.9703 B(  9-C , 11-H ) :   0.9534 B(  9-C , 12-C ) :   1.0703
B( 12-C , 13-H ) :   0.9760 B( 12-C , 14-H ) :   0.9763 B( 12-C , 15-H ) :   0.9770
B( 16-S , 17-C ) :   1.1637 B( 16-S , 20-C ) :   1.1526 B( 17-C , 18-C ) :   1.5830
B( 17-C , 20-C ) :   0.1031 B( 17-C , 33-H ) :   0.9634 B( 18-C , 19-C ) :   1.2775
B( 18-C , 21-H ) :   0.9993 B( 19-C , 20-C ) :   1.5462 B( 19-C , 22-C ) :   1.0145
B( 22-C , 23-H ) :   0.9387 B( 22-C , 24-H ) :   0.9424 B( 22-C , 25-C ) :   1.0644
B( 25-C , 26-H ) :   0.9519 B( 25-C , 27-H ) :   0.9528 B( 25-C , 28-C ) :   1.0772
B( 28-C , 29-H ) :   0.9767 B( 28-C , 30-H ) :   0.9734 B( 28-C , 31-H ) :   0.9723

Dispersion correction           -0.014203626
FINAL SINGLE POINT ENERGY     -1339.858393456904

DIPOLE MOMENT
-------------
                                X             Y             Z
Electronic contribution:     14.75884      21.24773     -12.79129
Nuclear contribution   :    -14.86503     -21.71886      13.24457
                        -----------------------------------------
Total Dipole Moment    :     -0.10619      -0.47113       0.45328
                        -----------------------------------------
Magnitude (a.u.)       :      0.66235
Magnitude (Debye)      :      1.68355

Rotational constants in cm-1:     0.021033     0.007992     0.006443
Rotational constants in MHz :   630.565766   239.590707   193.151728

                             ****ORCA TERMINATED NORMALLY****
TOTAL RUN TIME: 0 days 0 hours 0 minutes 32 seconds 246 msec
