                         Program Version 4.2.1 -  RELEASE  -
|  1> ! wB97X-D3 SP def2-SVP
|  2> %pal
|  3> nprocs 16
|  4> end
|  5>
|  6> * xyz 0 1
|  7> S 	 40.2189 	 16.4771 	 47.3572
|  8> C 	 39.7824 	 16.2967 	 45.7043
|  9> C 	 39.9828 	 17.445 	 44.9768
| 10> C 	 40.4161 	 18.5131 	 45.8233
| 11> C 	 40.4797 	 18.1762 	 47.1641
| 12> H 	 40.4915 	 19.4998 	 45.6369
| 13> C 	 39.6034 	 17.7189 	 43.5038
| 14> H 	 38.7048 	 17.1245 	 43.3388
| 15> H 	 40.4544 	 17.1876 	 42.9881
| 16> C 	 39.423 	 19.1709 	 43.0639
| 17> H 	 40.3362 	 19.7913 	 43.3144
| 18> H 	 39.3735 	 19.0987 	 41.9701
| 19> C 	 38.2354 	 20.0068 	 43.4804
| 20> H 	 37.8574 	 20.6989 	 42.7929
| 21> H 	 37.4717 	 19.3918 	 43.8563
| 22> H 	 38.5387 	 20.578 	 44.3705
| 23> S 	 42.2999 	 19.6227 	 48.5044
| 24> C 	 41.8273 	 20.686 	 49.8451
| 25> C 	 40.4759 	 20.5001 	 50.0992
| 26> C 	 39.8119 	 19.5072 	 49.2847
| 27> C 	 40.6594 	 19.129 	 48.271
| 28> H 	 40.043 	 21.1615 	 50.8203
| 29> C 	 38.3198 	 19.1095 	 49.3608
| 30> H 	 38.2879 	 18.4932 	 50.2445
| 31> H 	 38.0462 	 18.3639 	 48.5953
| 32> C 	 37.2665 	 20.22 	 49.3419
| 33> H 	 37.4332 	 20.7681 	 50.2692
| 34> H 	 36.1767 	 20.0503 	 49.4407
| 35> C 	 37.4305 	 21.0697 	 48.1561
| 36> H 	 38.4772 	 21.3799 	 47.985
| 37> H 	 36.7199 	 21.9374 	 48.2026
| 38> H 	 37.1821 	 20.4915 	 47.2649
| 39> H 	 39.4745 	 15.2837 	 45.2747
| 40> H 	 42.4158 	 21.2824 	 50.5264
| 41> *
| 42>
| 43>                          ****END OF INPUT****

CARTESIAN COORDINATES (ANGSTROEM)
---------------------------------
  S     40.218900   16.477100   47.357200
  C     39.782400   16.296700   45.704300
  C     39.982800   17.445000   44.976800
  C     40.416100   18.513100   45.823300
  C     40.479700   18.176200   47.164100
  H     40.491500   19.499800   45.636900
  C     39.603400   17.718900   43.503800
  H     38.704800   17.124500   43.338800
  H     40.454400   17.187600   42.988100
  C     39.423000   19.170900   43.063900
  H     40.336200   19.791300   43.314400
  H     39.373500   19.098700   41.970100
  C     38.235400   20.006800   43.480400
  H     37.857400   20.698900   42.792900
  H     37.471700   19.391800   43.856300
  H     38.538700   20.578000   44.370500
  S     42.299900   19.622700   48.504400
  C     41.827300   20.686000   49.845100
  C     40.475900   20.500100   50.099200
  C     39.811900   19.507200   49.284700
  C     40.659400   19.129000   48.271000
  H     40.043000   21.161500   50.820300
  C     38.319800   19.109500   49.360800
  H     38.287900   18.493200   50.244500
  H     38.046200   18.363900   48.595300
  C     37.266500   20.220000   49.341900
  H     37.433200   20.768100   50.269200
  H     36.176700   20.050300   49.440700
  C     37.430500   21.069700   48.156100
  H     38.477200   21.379900   47.985000
  H     36.719900   21.937400   48.202600
  H     37.182100   20.491500   47.264900
  H     39.474500   15.283700   45.274700
  H     42.415800   21.282400   50.526400

 Total Charge           Charge          ....    0
 Multiplicity           Mult            ....    1
 Number of Electrons    NEL             ....  134
 Basis Dimension        Dim             ....  322

ORBITAL ENERGIES
----------------

  NO   OCC          E(Eh)            E(eV)
   0   2.0000     -88.965695     -2420.8796
   1   2.0000     -88.965093     -2420.8633
   2   2.0000     -10.325021      -280.9581
   3   2.0000     -10.323472      -280.9159
   4   2.0000     -10.317929      -280.7651
   5   2.0000     -10.314578      -280.6739
   6   2.0000     -10.309118      -280.5254
   7   2.0000     -10.300781      -280.2985
   8   2.0000     -10.300298      -280.2853
   9   2.0000     -10.295536      -280.1558
  10   2.0000     -10.292859      -280.0829
  11   2.0000     -10.291849      -280.0555
  12   2.0000     -10.283386      -279.8252
  13   2.0000     -10.282218      -279.7934
  14   2.0000     -10.271383      -279.4985
  15   2.0000     -10.269439      -279.4456
  16   2.0000      -8.080459      -219.8805
  17   2.0000      -8.080240      -219.8745
  18   2.0000      -6.038832      -164.3250
  19   2.0000      -6.038773      -164.3234
  20   2.0000      -6.034814      -164.2156
  21   2.0000      -6.034742      -164.2137
  22   2.0000      -6.031395      -164.1226
  23   2.0000      -6.030992      -164.1116
  24   2.0000      -1.009551       -27.4713
  25   2.0000      -0.986194       -26.8357
  26   2.0000      -0.912580       -24.8326
  27   2.0000      -0.910632       -24.7795
  28   2.0000      -0.870973       -23.7004
  29   2.0000      -0.851151       -23.1610
  30   2.0000      -0.847118       -23.0513
  31   2.0000      -0.818269       -22.2662
  32   2.0000      -0.786239       -21.3946
  33   2.0000      -0.774573       -21.0772
  34   2.0000      -0.707553       -19.2535
  35   2.0000      -0.695691       -18.9307
  36   2.0000      -0.686851       -18.6902
  37   2.0000      -0.658193       -17.9103
  38   2.0000      -0.646054       -17.5800
  39   2.0000      -0.618680       -16.8352
  40   2.0000      -0.591998       -16.1091
  41   2.0000      -0.565851       -15.3976
  42   2.0000      -0.561769       -15.2865
  43   2.0000      -0.555564       -15.1177
  44   2.0000      -0.544025       -14.8037
  45   2.0000      -0.536688       -14.6040
  46   2.0000      -0.519263       -14.1299
  47   2.0000      -0.516361       -14.0509
  48   2.0000      -0.497391       -13.5347
  49   2.0000      -0.496337       -13.5060
  50   2.0000      -0.490144       -13.3375
  51   2.0000      -0.485757       -13.2181
  52   2.0000      -0.471177       -12.8214
  53   2.0000      -0.461426       -12.5560
  54   2.0000      -0.456416       -12.4197
  55   2.0000      -0.451282       -12.2800
  56   2.0000      -0.443328       -12.0636
  57   2.0000      -0.439702       -11.9649
  58   2.0000      -0.436762       -11.8849
  59   2.0000      -0.422407       -11.4943
  60   2.0000      -0.420322       -11.4375
  61   2.0000      -0.405192       -11.0258
  62   2.0000      -0.399302       -10.8655
  63   2.0000      -0.337112        -9.1733
  64   2.0000      -0.334320        -9.0973
  65   2.0000      -0.323035        -8.7902
  66   2.0000      -0.304120        -8.2755
  67   0.0000       0.039673         1.0796
  68   0.0000       0.065249         1.7755
  69   0.0000       0.116696         3.1755
  70   0.0000       0.125226         3.4076
  71   0.0000       0.129574         3.5259

MULLIKEN ATOMIC CHARGES
-----------------------
   0 S :    0.131522
   1 C :   -0.178761
   2 C :   -0.073174
   3 C :    0.080096
   4 C :   -0.176544
   5 H :   -0.044243
   6 C :    0.073255
   7 H :    0.030417
   8 H :    0.053960
   9 C :   -0.121380
  10 H :    0.043767
  11 H :    0.033327
  12 C :    0.005371
  13 H :    0.032483
  14 H :    0.014811
  15 H :    0.023945
  16 S :    0.117664
  17 C :   -0.083827
  18 C :   -0.054881
  19 C :   -0.026384
  20 C :   -0.193239
  21 H :    0.016041
  22 C :    0.083069
  23 H :    0.029656
  24 H :    0.027957
  25 C :   -0.060282
  26 H :    0.014754
  27 H :    0.032119
  28 C :   -0.058064
  29 H :    0.042899
  30 H :    0.036310
  31 H :    0.022959
  32 H :    0.071234
  33 H :    0.053162
Sum of atomic charges:   -0.0000000

LOEWDIN ATOMIC CHARGES
----------------------
   0 S :    0.427891
   1 C :   -0.224389
   2 C :   -0.067690
   3 C :   -0.052091
   4 C :   -0.206315
   5 H :    0.009152
   6 C :   -0.032733
   7 H :    0.031321
   8 H :    0.047126
   9 C :   -0.052498
  10 H :    0.031638
  11 H :    0.030506
  12 C :   -0.060474
  13 H :    0.023055
  14 H :    0.020745
  15 H :    0.029312
  16 S :    0.410894
  17 C :   -0.185666
  18 C :   -0.066888
  19 C :   -0.053867
  20 C :   -0.202000
  21 H :    0.026967
  22 C :   -0.030316
  23 H :    0.033125
  24 H :    0.030557
  25 C :   -0.054382
  26 H :    0.018584
  27 H :    0.033313
  28 C :   -0.069116
  29 H :    0.027008
  30 H :    0.029666
  31 H :    0.023869
  32 H :    0.041321
  33 H :    0.032376

  Mayer bond orders larger than 0.100000
B(  0-S ,  1-C ) :   1.1524 B(  0-S ,  4-C ) :   1.1593 B(  1-C ,  2-C ) :   1.6124
B(  1-C , 32-H ) :   0.9601 B(  2-C ,  3-C ) :   1.2454 B(  2-C ,  6-C ) :   0.9828
B(  3-C ,  4-C ) :   1.5779 B(  3-C ,  5-H ) :   1.0014 B(  4-C , 20-C ) :   1.0001
B(  6-C ,  7-H ) :   0.9450 B(  6-C ,  8-H ) :   0.9324 B(  6-C ,  9-C ) :   1.0956
B(  9-C , 10-H ) :   0.9518 B(  9-C , 11-H ) :   0.9520 B(  9-C , 12-C ) :   1.0688
B( 12-C , 13-H ) :   0.9741 B( 12-C , 14-H ) :   0.9734 B( 12-C , 15-H ) :   0.9724
B( 16-S , 17-C ) :   1.1295 B( 16-S , 20-C ) :   1.1665 B( 17-C , 18-C ) :   1.6483
B( 17-C , 33-H ) :   0.9674 B( 18-C , 19-C ) :   1.2002 B( 18-C , 21-H ) :   0.9897
B( 19-C , 20-C ) :   1.6043 B( 19-C , 22-C ) :   1.0323 B( 22-C , 23-H ) :   0.9282
B( 22-C , 24-H ) :   0.9387 B( 22-C , 25-C ) :   1.0584 B( 25-C , 26-H ) :   0.9498
B( 25-C , 27-H ) :   0.9541 B( 25-C , 28-C ) :   1.0882 B( 28-C , 29-H ) :   0.9705
B( 28-C , 30-H ) :   0.9699 B( 28-C , 31-H ) :   0.9706

Dispersion correction           -0.015712774
FINAL SINGLE POINT ENERGY     -1339.861453747014

DIPOLE MOMENT
-------------
                                X             Y             Z
Electronic contribution:     19.52078     -11.89388      11.87007
Nuclear contribution   :    -20.02401      12.11009     -12.05399
                        -----------------------------------------
Total Dipole Moment    :     -0.50323       0.21621      -0.18392
                        -----------------------------------------
Magnitude (a.u.)       :      0.57777
Magnitude (Debye)      :      1.46856

Rotational constants in cm-1:     0.017576     0.009689     0.008403
Rotational constants in MHz :   526.902916   290.471616   251.906242

                             ****ORCA TERMINATED NORMALLY****
TOTAL RUN TIME: 0 days 0 hours 0 minutes 34 seconds 874 msec
