                         Program Version 4.2.1 -  RELEASE  -
|  1> ! wB97X-D3 SP def2-SVP
|  2> %pal
|  3> nprocs 16
|  4> end
|  5>
|  6> * xyz 0 1
|  7> S 	 40.6953 	 31.2003 	 53.6732
|  8> C 	 41.0097 	 32.9294 	 53.9629
|  9> C 	 39.9307 	 33.6724 	 53.5709
| 10> C 	 38.948 	 32.8863 	 52.9287
| 11> C 	 39.1604 	 31.5084 	 52.8442
| 12> H 	 38.0191 	 33.3254 	 52.5583
| 13> C 	 39.8253 	 35.2241 	 53.5793
| 14> H 	 40.0202 	 35.6532 	 54.5669
| 15> H 	 38.853 	 35.4773 	 53.1933
| 16> C 	 40.7656 	 35.9398 	 52.5779
| 17> H 	 40.5821 	 36.993 	 52.4913
| 18> H 	 41.8075 	 35.974 	 52.7977
| 19> C 	 40.6901 	 35.391 	 51.1456
| 20> H 	 39.82 	 35.7193 	 50.6374
| 21> H 	 41.5494 	 35.7042 	 50.533
| 22> H 	 40.6046 	 34.2747 	 51.0985
| 23> S 	 39.1244 	 29.219 	 51.4516
| 24> C 	 37.6351 	 28.7711 	 50.6619
| 25> C 	 36.5624 	 29.5719 	 51.0183
| 26> C 	 36.9194 	 30.6068 	 51.8706
| 27> C 	 38.3167 	 30.5697 	 52.1246
| 28> H 	 35.5738 	 29.2968 	 50.6991
| 29> C 	 35.7613 	 31.5314 	 52.3181
| 30> H 	 35.8875 	 32.5357 	 51.8529
| 31> H 	 35.817 	 31.4913 	 53.4744
| 32> C 	 34.3464 	 31.2097 	 51.6935
| 33> H 	 33.9508 	 30.2225 	 52.0022
| 34> H 	 34.4098 	 31.1708 	 50.6038
| 35> C 	 33.2113 	 32.1792 	 52.0985
| 36> H 	 32.3383 	 31.7639 	 51.6212
| 37> H 	 33.4414 	 33.2018 	 51.7175
| 38> H 	 33.0782 	 32.2329 	 53.1162
| 39> H 	 41.8487 	 33.2804 	 54.4581
| 40> H 	 37.6443 	 27.8838 	 49.9953
| 41> *
| 42>
| 43>                          ****END OF INPUT****

CARTESIAN COORDINATES (ANGSTROEM)
---------------------------------
  S     40.695300   31.200300   53.673200
  C     41.009700   32.929400   53.962900
  C     39.930700   33.672400   53.570900
  C     38.948000   32.886300   52.928700
  C     39.160400   31.508400   52.844200
  H     38.019100   33.325400   52.558300
  C     39.825300   35.224100   53.579300
  H     40.020200   35.653200   54.566900
  H     38.853000   35.477300   53.193300
  C     40.765600   35.939800   52.577900
  H     40.582100   36.993000   52.491300
  H     41.807500   35.974000   52.797700
  C     40.690100   35.391000   51.145600
  H     39.820000   35.719300   50.637400
  H     41.549400   35.704200   50.533000
  H     40.604600   34.274700   51.098500
  S     39.124400   29.219000   51.451600
  C     37.635100   28.771100   50.661900
  C     36.562400   29.571900   51.018300
  C     36.919400   30.606800   51.870600
  C     38.316700   30.569700   52.124600
  H     35.573800   29.296800   50.699100
  C     35.761300   31.531400   52.318100
  H     35.887500   32.535700   51.852900
  H     35.817000   31.491300   53.474400
  C     34.346400   31.209700   51.693500
  H     33.950800   30.222500   52.002200
  H     34.409800   31.170800   50.603800
  C     33.211300   32.179200   52.098500
  H     32.338300   31.763900   51.621200
  H     33.441400   33.201800   51.717500
  H     33.078200   32.232900   53.116200
  H     41.848700   33.280400   54.458100
  H     37.644300   27.883800   49.995300

 Total Charge           Charge          ....    0
 Multiplicity           Mult            ....    1
 Number of Electrons    NEL             ....  134
 Basis Dimension        Dim             ....  322

ORBITAL ENERGIES
----------------

  NO   OCC          E(Eh)            E(eV)
   0   2.0000     -88.970339     -2421.0060
   1   2.0000     -88.964894     -2420.8578
   2   2.0000     -10.331250      -281.1276
   3   2.0000     -10.330098      -281.0963
   4   2.0000     -10.317337      -280.7490
   5   2.0000     -10.312248      -280.6105
   6   2.0000     -10.309923      -280.5473
   7   2.0000     -10.306991      -280.4675
   8   2.0000     -10.299039      -280.2511
   9   2.0000     -10.297534      -280.2102
  10   2.0000     -10.296825      -280.1909
  11   2.0000     -10.289360      -279.9877
  12   2.0000     -10.288689      -279.9695
  13   2.0000     -10.279343      -279.7151
  14   2.0000     -10.279089      -279.7082
  15   2.0000     -10.268564      -279.4218
  16   2.0000      -8.085903      -220.0286
  17   2.0000      -8.078687      -219.8323
  18   2.0000      -6.044047      -164.4669
  19   2.0000      -6.040396      -164.3675
  20   2.0000      -6.037362      -164.2850
  21   2.0000      -6.036911      -164.2727
  22   2.0000      -6.033317      -164.1749
  23   2.0000      -6.029344      -164.0668
  24   2.0000      -1.009301       -27.4645
  25   2.0000      -0.983523       -26.7630
  26   2.0000      -0.910436       -24.7742
  27   2.0000      -0.905003       -24.6264
  28   2.0000      -0.868851       -23.6426
  29   2.0000      -0.858333       -23.3564
  30   2.0000      -0.839280       -22.8380
  31   2.0000      -0.809165       -22.0185
  32   2.0000      -0.782714       -21.2987
  33   2.0000      -0.774308       -21.0700
  34   2.0000      -0.709247       -19.2996
  35   2.0000      -0.703783       -19.1509
  36   2.0000      -0.693227       -18.8637
  37   2.0000      -0.657651       -17.8956
  38   2.0000      -0.636801       -17.3282
  39   2.0000      -0.616689       -16.7810
  40   2.0000      -0.597981       -16.2719
  41   2.0000      -0.573889       -15.6163
  42   2.0000      -0.567690       -15.4476
  43   2.0000      -0.552042       -15.0218
  44   2.0000      -0.539473       -14.6798
  45   2.0000      -0.532311       -14.4849
  46   2.0000      -0.516127       -14.0445
  47   2.0000      -0.508496       -13.8369
  48   2.0000      -0.501852       -13.6561
  49   2.0000      -0.496922       -13.5219
  50   2.0000      -0.485692       -13.2164
  51   2.0000      -0.476431       -12.9644
  52   2.0000      -0.469775       -12.7832
  53   2.0000      -0.466611       -12.6971
  54   2.0000      -0.460948       -12.5430
  55   2.0000      -0.455541       -12.3959
  56   2.0000      -0.437185       -11.8964
  57   2.0000      -0.434129       -11.8133
  58   2.0000      -0.433821       -11.8049
  59   2.0000      -0.427551       -11.6342
  60   2.0000      -0.422996       -11.5103
  61   2.0000      -0.414993       -11.2925
  62   2.0000      -0.406306       -11.0561
  63   2.0000      -0.357312        -9.7230
  64   2.0000      -0.338933        -9.2228
  65   2.0000      -0.329988        -8.9794
  66   2.0000      -0.278269        -7.5721
  67   0.0000       0.019167         0.5216
  68   0.0000       0.080105         2.1798
  69   0.0000       0.102065         2.7773
  70   0.0000       0.128103         3.4859
  71   0.0000       0.137811         3.7500

MULLIKEN ATOMIC CHARGES
-----------------------
   0 S :    0.090209
   1 C :   -0.110132
   2 C :   -0.067109
   3 C :   -0.022526
   4 C :   -0.105681
   5 H :   -0.003800
   6 C :    0.109471
   7 H :    0.039498
   8 H :    0.015105
   9 C :   -0.056543
  10 H :    0.019189
  11 H :    0.013875
  12 C :   -0.087984
  13 H :    0.013771
  14 H :    0.034473
  15 H :    0.053833
  16 S :    0.124097
  17 C :   -0.106364
  18 C :   -0.030990
  19 C :   -0.030818
  20 C :   -0.169445
  21 H :    0.015594
  22 C :    0.033339
  23 H :    0.053786
  24 H :    0.070126
  25 C :   -0.160045
  26 H :    0.032946
  27 H :    0.043089
  28 C :    0.014739
  29 H :    0.033666
  30 H :    0.030938
  31 H :    0.021332
  32 H :    0.023643
  33 H :    0.064720
Sum of atomic charges:    0.0000000

LOEWDIN ATOMIC CHARGES
----------------------
   0 S :    0.376944
   1 C :   -0.172171
   2 C :   -0.064721
   3 C :   -0.075572
   4 C :   -0.187872
   5 H :    0.025920
   6 C :   -0.018232
   7 H :    0.034172
   8 H :    0.027835
   9 C :   -0.043464
  10 H :    0.023199
  11 H :    0.016709
  12 C :   -0.071348
  13 H :    0.013864
  14 H :    0.028297
  15 H :    0.033225
  16 S :    0.437139
  17 C :   -0.191303
  18 C :   -0.070878
  19 C :   -0.059037
  20 C :   -0.208694
  21 H :    0.032399
  22 C :   -0.038390
  23 H :    0.037188
  24 H :    0.050038
  25 C :   -0.047207
  26 H :    0.021284
  27 H :    0.025230
  28 C :   -0.050322
  29 H :    0.030062
  30 H :    0.026825
  31 H :    0.013777
  32 H :    0.014984
  33 H :    0.030123

  Mayer bond orders larger than 0.100000
B(  0-S ,  1-C ) :   1.1296 B(  0-S ,  4-C ) :   1.1367 B(  1-C ,  2-C ) :   1.5881
B(  1-C , 32-H ) :   0.9830 B(  2-C ,  3-C ) :   1.2701 B(  2-C ,  6-C ) :   1.0210
B(  3-C ,  4-C ) :   1.5532 B(  3-C ,  5-H ) :   0.9866 B(  4-C , 20-C ) :   1.0931
B(  6-C ,  7-H ) :   0.9410 B(  6-C ,  8-H ) :   0.9434 B(  6-C ,  9-C ) :   1.0653
B(  9-C , 10-H ) :   0.9559 B(  9-C , 11-H ) :   0.9602 B(  9-C , 12-C ) :   1.0702
B( 12-C , 13-H ) :   0.9780 B( 12-C , 14-H ) :   0.9751 B( 12-C , 15-H ) :   0.9741
B( 16-S , 17-C ) :   1.1733 B( 16-S , 20-C ) :   1.1722 B( 17-C , 18-C ) :   1.5463
B( 17-C , 20-C ) :   0.1080 B( 17-C , 33-H ) :   0.9623 B( 18-C , 19-C ) :   1.3123
B( 18-C , 21-H ) :   0.9832 B( 19-C , 20-C ) :   1.5289 B( 19-C , 22-C ) :   1.0155
B( 22-C , 23-H ) :   0.9276 B( 22-C , 24-H ) :   0.9348 B( 22-C , 25-C ) :   1.0796
B( 25-C , 26-H ) :   0.9485 B( 25-C , 27-H ) :   0.9484 B( 25-C , 28-C ) :   1.0797
B( 28-C , 29-H ) :   0.9712 B( 28-C , 30-H ) :   0.9730 B( 28-C , 31-H ) :   0.9760

Dispersion correction           -0.013798131
FINAL SINGLE POINT ENERGY     -1339.865008116152

DIPOLE MOMENT
-------------
                                X             Y             Z
Electronic contribution:     16.22851     -21.79624       4.60357
Nuclear contribution   :    -16.83419      22.18053      -4.77017
                        -----------------------------------------
Total Dipole Moment    :     -0.60568       0.38430      -0.16660
                        -----------------------------------------
Magnitude (a.u.)       :      0.73641
Magnitude (Debye)      :      1.87180

Rotational constants in cm-1:     0.017052     0.008629     0.006547
Rotational constants in MHz :   511.207662   258.703303   196.285380

                             ****ORCA TERMINATED NORMALLY****
TOTAL RUN TIME: 0 days 0 hours 0 minutes 34 seconds 331 msec
