                         Program Version 4.2.1 -  RELEASE  -
|  1> ! wB97X-D3 SP def2-SVP
|  2> %pal
|  3> nprocs 16
|  4> end
|  5>
|  6> * xyz 0 1
|  7> S 	 -1.07284 	 -17.3585 	 89.4836
|  8> C 	 -2.27023 	 -18.0603 	 90.5377
|  9> C 	 -3.19988 	 -18.702 	 89.7937
| 10> C 	 -2.90909 	 -18.601 	 88.3939
| 11> C 	 -1.78029 	 -17.8693 	 88.0392
| 12> H 	 -3.42227 	 -19.0258 	 87.5865
| 13> C 	 -4.4072 	 -19.4771 	 90.2927
| 14> H 	 -4.11006 	 -19.8878 	 91.2323
| 15> H 	 -4.63716 	 -20.2878 	 89.5734
| 16> C 	 -5.54653 	 -18.5098 	 90.442
| 17> H 	 -5.31533 	 -17.603 	 90.8921
| 18> H 	 -5.73581 	 -18.1385 	 89.4138
| 19> C 	 -6.85902 	 -19.0839 	 90.9548
| 20> H 	 -6.71309 	 -19.3136 	 92.0387
| 21> H 	 -7.59717 	 -18.3083 	 90.7875
| 22> H 	 -7.17835 	 -19.9292 	 90.3707
| 23> S 	 -0.346792 	 -16.0434 	 86.6792
| 24> C 	 -0.265333 	 -16.1293 	 84.8776
| 25> C 	 -1.11843 	 -17.081 	 84.3761
| 26> C 	 -1.6189 	 -17.9274 	 85.4124
| 27> C 	 -1.30262 	 -17.4867 	 86.7214
| 28> H 	 -1.24645 	 -17.1729 	 83.3242
| 29> C 	 -2.58941 	 -19.0389 	 85.1034
| 30> H 	 -2.39652 	 -19.7227 	 85.8633
| 31> H 	 -2.27627 	 -19.5886 	 84.1709
| 32> C 	 -4.09318 	 -18.7173 	 84.9506
| 33> H 	 -4.53619 	 -18.2944 	 85.8428
| 34> H 	 -4.65634 	 -19.5989 	 84.6928
| 35> C 	 -4.29543 	 -17.7137 	 83.8398
| 36> H 	 -5.22124 	 -17.4121 	 83.999
| 37> H 	 -4.10095 	 -17.884 	 82.7586
| 38> H 	 -3.57123 	 -16.8972 	 84.0629
| 39> H 	 -2.1939 	 -18.0225 	 91.6368
| 40> H 	 0.388136 	 -15.4814 	 84.2862
| 41> *
| 42>
| 43>                          ****END OF INPUT****

CARTESIAN COORDINATES (ANGSTROEM)
---------------------------------
  S     -1.072840  -17.358500   89.483600
  C     -2.270230  -18.060300   90.537700
  C     -3.199880  -18.702000   89.793700
  C     -2.909090  -18.601000   88.393900
  C     -1.780290  -17.869300   88.039200
  H     -3.422270  -19.025800   87.586500
  C     -4.407200  -19.477100   90.292700
  H     -4.110060  -19.887800   91.232300
  H     -4.637160  -20.287800   89.573400
  C     -5.546530  -18.509800   90.442000
  H     -5.315330  -17.603000   90.892100
  H     -5.735810  -18.138500   89.413800
  C     -6.859020  -19.083900   90.954800
  H     -6.713090  -19.313600   92.038700
  H     -7.597170  -18.308300   90.787500
  H     -7.178350  -19.929200   90.370700
  S     -0.346792  -16.043400   86.679200
  C     -0.265333  -16.129300   84.877600
  C     -1.118430  -17.081000   84.376100
  C     -1.618900  -17.927400   85.412400
  C     -1.302620  -17.486700   86.721400
  H     -1.246450  -17.172900   83.324200
  C     -2.589410  -19.038900   85.103400
  H     -2.396520  -19.722700   85.863300
  H     -2.276270  -19.588600   84.170900
  C     -4.093180  -18.717300   84.950600
  H     -4.536190  -18.294400   85.842800
  H     -4.656340  -19.598900   84.692800
  C     -4.295430  -17.713700   83.839800
  H     -5.221240  -17.412100   83.999000
  H     -4.100950  -17.884000   82.758600
  H     -3.571230  -16.897200   84.062900
  H     -2.193900  -18.022500   91.636800
  H      0.388136  -15.481400   84.286200

 Total Charge           Charge          ....    0
 Multiplicity           Mult            ....    1
 Number of Electrons    NEL             ....  134
 Basis Dimension        Dim             ....  322

ORBITAL ENERGIES
----------------

  NO   OCC          E(Eh)            E(eV)
   0   2.0000     -88.967362     -2420.9250
   1   2.0000     -88.962270     -2420.7864
   2   2.0000     -10.333488      -281.1885
   3   2.0000     -10.327256      -281.0189
   4   2.0000     -10.323010      -280.9034
   5   2.0000     -10.314065      -280.6600
   6   2.0000     -10.307042      -280.4689
   7   2.0000     -10.299639      -280.2674
   8   2.0000     -10.296516      -280.1824
   9   2.0000     -10.290946      -280.0309
  10   2.0000     -10.288078      -279.9528
  11   2.0000     -10.286749      -279.9167
  12   2.0000     -10.286506      -279.9100
  13   2.0000     -10.278198      -279.6840
  14   2.0000     -10.277490      -279.6647
  15   2.0000     -10.265127      -279.3283
  16   2.0000      -8.081741      -219.9153
  17   2.0000      -8.078460      -219.8261
  18   2.0000      -6.040292      -164.3647
  19   2.0000      -6.036968      -164.2742
  20   2.0000      -6.036368      -164.2579
  21   2.0000      -6.032592      -164.1552
  22   2.0000      -6.032395      -164.1498
  23   2.0000      -6.029291      -164.0654
  24   2.0000      -1.015389       -27.6301
  25   2.0000      -0.987325       -26.8665
  26   2.0000      -0.921702       -25.0808
  27   2.0000      -0.913895       -24.8683
  28   2.0000      -0.877443       -23.8764
  29   2.0000      -0.853427       -23.2229
  30   2.0000      -0.846224       -23.0269
  31   2.0000      -0.819887       -22.3103
  32   2.0000      -0.786657       -21.4060
  33   2.0000      -0.775289       -21.0967
  34   2.0000      -0.710259       -19.3271
  35   2.0000      -0.701459       -19.0877
  36   2.0000      -0.692379       -18.8406
  37   2.0000      -0.671819       -18.2811
  38   2.0000      -0.644752       -17.5446
  39   2.0000      -0.621573       -16.9139
  40   2.0000      -0.592417       -16.1205
  41   2.0000      -0.576207       -15.6794
  42   2.0000      -0.568356       -15.4657
  43   2.0000      -0.560870       -15.2620
  44   2.0000      -0.551752       -15.0139
  45   2.0000      -0.531720       -14.4688
  46   2.0000      -0.524994       -14.2858
  47   2.0000      -0.512152       -13.9364
  48   2.0000      -0.510327       -13.8867
  49   2.0000      -0.504078       -13.7167
  50   2.0000      -0.498016       -13.5517
  51   2.0000      -0.482360       -13.1257
  52   2.0000      -0.470992       -12.8164
  53   2.0000      -0.469965       -12.7884
  54   2.0000      -0.459994       -12.5171
  55   2.0000      -0.447615       -12.1802
  56   2.0000      -0.444270       -12.0892
  57   2.0000      -0.440720       -11.9926
  58   2.0000      -0.436990       -11.8911
  59   2.0000      -0.427377       -11.6295
  60   2.0000      -0.412369       -11.2211
  61   2.0000      -0.409988       -11.1563
  62   2.0000      -0.408971       -11.1287
  63   2.0000      -0.362644        -9.8680
  64   2.0000      -0.333428        -9.0730
  65   2.0000      -0.327767        -8.9190
  66   2.0000      -0.284571        -7.7436
  67   0.0000       0.017794         0.4842
  68   0.0000       0.089782         2.4431
  69   0.0000       0.095743         2.6053
  70   0.0000       0.120112         3.2684
  71   0.0000       0.135399         3.6844

MULLIKEN ATOMIC CHARGES
-----------------------
   0 S :    0.092627
   1 C :   -0.140646
   2 C :   -0.084582
   3 C :    0.015354
   4 C :   -0.114662
   5 H :   -0.040627
   6 C :    0.124319
   7 H :    0.009323
   8 H :    0.031351
   9 C :   -0.093999
  10 H :    0.010749
  11 H :    0.008982
  12 C :   -0.001708
  13 H :    0.040320
  14 H :    0.031871
  15 H :    0.025247
  16 S :    0.089761
  17 C :   -0.100288
  18 C :   -0.009525
  19 C :   -0.088376
  20 C :   -0.088461
  21 H :    0.017502
  22 C :    0.041892
  23 H :    0.014648
  24 H :    0.027254
  25 C :   -0.034439
  26 H :    0.032301
  27 H :    0.028204
  28 C :   -0.031302
  29 H :   -0.003375
  30 H :    0.035426
  31 H :    0.033650
  32 H :    0.058806
  33 H :    0.062404
Sum of atomic charges:   -0.0000000

LOEWDIN ATOMIC CHARGES
----------------------
   0 S :    0.426816
   1 C :   -0.201964
   2 C :   -0.059672
   3 C :   -0.070599
   4 C :   -0.210775
   5 H :    0.015325
   6 C :   -0.021838
   7 H :    0.022383
   8 H :    0.035524
   9 C :   -0.045226
  10 H :    0.015966
  11 H :    0.026083
  12 C :   -0.060281
  13 H :    0.029584
  14 H :    0.028060
  15 H :    0.022018
  16 S :    0.392009
  17 C :   -0.165613
  18 C :   -0.064912
  19 C :   -0.058879
  20 C :   -0.191415
  21 H :    0.031767
  22 C :   -0.039890
  23 H :    0.018451
  24 H :    0.037686
  25 C :   -0.028494
  26 H :    0.023878
  27 H :    0.024012
  28 C :   -0.063769
  29 H :    0.005277
  30 H :    0.028375
  31 H :    0.033211
  32 H :    0.036565
  33 H :    0.030337

  Mayer bond orders larger than 0.100000
B(  0-S ,  1-C ) :   1.1415 B(  0-S ,  4-C ) :   1.1671 B(  1-C ,  2-C ) :   1.5936
B(  1-C , 32-H ) :   0.9707 B(  2-C ,  3-C ) :   1.2586 B(  2-C ,  6-C ) :   1.0150
B(  3-C ,  4-C ) :   1.5377 B(  3-C ,  5-H ) :   1.0016 B(  4-C , 20-C ) :   1.0683
B(  6-C ,  7-H ) :   0.9340 B(  6-C ,  8-H ) :   0.9386 B(  6-C ,  9-C ) :   1.0672
B(  9-C , 10-H ) :   0.9556 B(  9-C , 11-H ) :   0.9470 B(  9-C , 12-C ) :   1.0875
B( 12-C , 13-H ) :   0.9739 B( 12-C , 14-H ) :   0.9726 B( 12-C , 15-H ) :   0.9716
B( 16-S , 17-C ) :   1.1404 B( 16-S , 20-C ) :   1.1463 B( 17-C , 18-C ) :   1.6056
B( 17-C , 33-H ) :   0.9671 B( 18-C , 19-C ) :   1.2385 B( 18-C , 21-H ) :   0.9923
B( 19-C , 20-C ) :   1.5579 B( 19-C , 22-C ) :   1.0553 B( 22-C , 23-H ) :   0.9282
B( 22-C , 24-H ) :   0.9312 B( 22-C , 25-C ) :   1.0711 B( 25-C , 26-H ) :   0.9505
B( 25-C , 27-H ) :   0.9530 B( 25-C , 28-C ) :   1.0734 B( 28-C , 29-H ) :   0.9667
B( 28-C , 30-H ) :   0.9758 B( 28-C , 31-H ) :   0.9699

Dispersion correction           -0.014476776
FINAL SINGLE POINT ENERGY     -1339.859200553270

DIPOLE MOMENT
-------------
                                X             Y             Z
Electronic contribution:     27.06929      10.94145       3.44005
Nuclear contribution   :    -27.65659     -11.19611      -3.66595
                        -----------------------------------------
Total Dipole Moment    :     -0.58730      -0.25466      -0.22590
                        -----------------------------------------
Magnitude (a.u.)       :      0.67882
Magnitude (Debye)      :      1.72543

Rotational constants in cm-1:     0.019621     0.009016     0.006631
Rotational constants in MHz :   588.223823   270.297469   198.807278

                             ****ORCA TERMINATED NORMALLY****
TOTAL RUN TIME: 0 days 0 hours 0 minutes 37 seconds 134 msec
