                         Program Version 4.2.1 -  RELEASE  -
|  1> ! wB97X-D3 SP def2-SVP
|  2> %pal
|  3> nprocs 16
|  4> end
|  5>
|  6> * xyz 0 1
|  7> S 	 20.9643 	 1.29669 	 84.7865
|  8> C 	 22.2885 	 1.82804 	 83.8292
|  9> C 	 21.8566 	 2.86949 	 82.9995
| 10> C 	 20.4505 	 2.89002 	 82.9151
| 11> C 	 19.7162 	 2.01197 	 83.7391
| 12> H 	 19.8871 	 3.57567 	 82.3713
| 13> C 	 22.7326 	 3.81923 	 82.2409
| 14> H 	 22.3014 	 3.99709 	 81.2741
| 15> H 	 23.7067 	 3.36482 	 82.0222
| 16> C 	 23.1033 	 5.07098 	 83.0747
| 17> H 	 22.2026 	 5.54994 	 83.3242
| 18> H 	 23.5838 	 4.97524 	 84.0624
| 19> C 	 23.937 	 6.08156 	 82.1912
| 20> H 	 23.4019 	 6.43582 	 81.3414
| 21> H 	 24.179 	 7.00907 	 82.6935
| 22> H 	 24.8629 	 5.7632 	 81.7809
| 23> S 	 17.7992 	 2.4431 	 85.5988
| 24> C 	 16.1954 	 2.09634 	 85.3159
| 25> C 	 15.993 	 1.90823 	 83.9649
| 26> C 	 17.1882 	 1.77144 	 83.1753
| 27> C 	 18.3074 	 1.87636 	 83.9871
| 28> H 	 14.9947 	 1.95025 	 83.6254
| 29> C 	 17.1568 	 1.66803 	 81.6039
| 30> H 	 17.6927 	 2.52622 	 81.3069
| 31> H 	 16.1512 	 1.95101 	 81.2722
| 32> C 	 17.7894 	 0.35923 	 80.9962
| 33> H 	 17.3863 	 -0.36326 	 81.719
| 34> H 	 18.9391 	 0.39476 	 81.0952
| 35> C 	 17.2968 	 -0.040293 	 79.5723
| 36> H 	 16.2267 	 0.151223 	 79.4537
| 37> H 	 17.5533 	 -1.07419 	 79.266
| 38> H 	 17.7699 	 0.629146 	 78.8728
| 39> H 	 23.3582 	 1.64068 	 84.0876
| 40> H 	 15.3767 	 2.24319 	 86.0602
| 41> *
| 42>
| 43>                          ****END OF INPUT****

CARTESIAN COORDINATES (ANGSTROEM)
---------------------------------
  S     20.964300    1.296690   84.786500
  C     22.288500    1.828040   83.829200
  C     21.856600    2.869490   82.999500
  C     20.450500    2.890020   82.915100
  C     19.716200    2.011970   83.739100
  H     19.887100    3.575670   82.371300
  C     22.732600    3.819230   82.240900
  H     22.301400    3.997090   81.274100
  H     23.706700    3.364820   82.022200
  C     23.103300    5.070980   83.074700
  H     22.202600    5.549940   83.324200
  H     23.583800    4.975240   84.062400
  C     23.937000    6.081560   82.191200
  H     23.401900    6.435820   81.341400
  H     24.179000    7.009070   82.693500
  H     24.862900    5.763200   81.780900
  S     17.799200    2.443100   85.598800
  C     16.195400    2.096340   85.315900
  C     15.993000    1.908230   83.964900
  C     17.188200    1.771440   83.175300
  C     18.307400    1.876360   83.987100
  H     14.994700    1.950250   83.625400
  C     17.156800    1.668030   81.603900
  H     17.692700    2.526220   81.306900
  H     16.151200    1.951010   81.272200
  C     17.789400    0.359230   80.996200
  H     17.386300   -0.363260   81.719000
  H     18.939100    0.394760   81.095200
  C     17.296800   -0.040293   79.572300
  H     16.226700    0.151223   79.453700
  H     17.553300   -1.074190   79.266000
  H     17.769900    0.629146   78.872800
  H     23.358200    1.640680   84.087600
  H     15.376700    2.243190   86.060200

 Total Charge           Charge          ....    0
 Multiplicity           Mult            ....    1
 Number of Electrons    NEL             ....  134
 Basis Dimension        Dim             ....  322

ORBITAL ENERGIES
----------------

  NO   OCC          E(Eh)            E(eV)
   0   2.0000     -88.962522     -2420.7933
   1   2.0000     -88.961634     -2420.7691
   2   2.0000     -10.331340      -281.1301
   3   2.0000     -10.327569      -281.0274
   4   2.0000     -10.317266      -280.7471
   5   2.0000     -10.314249      -280.6650
   6   2.0000     -10.310676      -280.5678
   7   2.0000     -10.300372      -280.2874
   8   2.0000     -10.296767      -280.1893
   9   2.0000     -10.296146      -280.1724
  10   2.0000     -10.293476      -280.0997
  11   2.0000     -10.290917      -280.0301
  12   2.0000     -10.290599      -280.0214
  13   2.0000     -10.289240      -279.9844
  14   2.0000     -10.281278      -279.7678
  15   2.0000     -10.273081      -279.5447
  16   2.0000      -8.077889      -219.8105
  17   2.0000      -8.077297      -219.7944
  18   2.0000      -6.036258      -164.2549
  19   2.0000      -6.035754      -164.2412
  20   2.0000      -6.032260      -164.1461
  21   2.0000      -6.031735      -164.1319
  22   2.0000      -6.028591      -164.0463
  23   2.0000      -6.028148      -164.0342
  24   2.0000      -1.009952       -27.4822
  25   2.0000      -0.988930       -26.9102
  26   2.0000      -0.910067       -24.7642
  27   2.0000      -0.899228       -24.4692
  28   2.0000      -0.870569       -23.6894
  29   2.0000      -0.849172       -23.1072
  30   2.0000      -0.844192       -22.9716
  31   2.0000      -0.811896       -22.0928
  32   2.0000      -0.785498       -21.3745
  33   2.0000      -0.772671       -21.0255
  34   2.0000      -0.714265       -19.4361
  35   2.0000      -0.704618       -19.1736
  36   2.0000      -0.691495       -18.8165
  37   2.0000      -0.660628       -17.9766
  38   2.0000      -0.642755       -17.4903
  39   2.0000      -0.621678       -16.9167
  40   2.0000      -0.592179       -16.1140
  41   2.0000      -0.569059       -15.4849
  42   2.0000      -0.557920       -15.1818
  43   2.0000      -0.552509       -15.0345
  44   2.0000      -0.526290       -14.3211
  45   2.0000      -0.519681       -14.1412
  46   2.0000      -0.518601       -14.1119
  47   2.0000      -0.514184       -13.9917
  48   2.0000      -0.506097       -13.7716
  49   2.0000      -0.500404       -13.6167
  50   2.0000      -0.491689       -13.3795
  51   2.0000      -0.484527       -13.1846
  52   2.0000      -0.468763       -12.7557
  53   2.0000      -0.463622       -12.6158
  54   2.0000      -0.461276       -12.5520
  55   2.0000      -0.447638       -12.1808
  56   2.0000      -0.444640       -12.0993
  57   2.0000      -0.442189       -12.0326
  58   2.0000      -0.432880       -11.7793
  59   2.0000      -0.426455       -11.6044
  60   2.0000      -0.424047       -11.5389
  61   2.0000      -0.410341       -11.1660
  62   2.0000      -0.407670       -11.0933
  63   2.0000      -0.344427        -9.3723
  64   2.0000      -0.329248        -8.9593
  65   2.0000      -0.322938        -8.7876
  66   2.0000      -0.291159        -7.9228
  67   0.0000       0.024001         0.6531
  68   0.0000       0.059341         1.6148
  69   0.0000       0.106622         2.9013
  70   0.0000       0.124447         3.3864
  71   0.0000       0.135251         3.6804

MULLIKEN ATOMIC CHARGES
-----------------------
   0 S :    0.104641
   1 C :   -0.113328
   2 C :   -0.103198
   3 C :    0.062072
   4 C :   -0.171014
   5 H :   -0.018832
   6 C :    0.075953
   7 H :    0.025290
   8 H :    0.018662
   9 C :   -0.051345
  10 H :    0.013179
  11 H :    0.040536
  12 C :   -0.031866
  13 H :    0.012918
  14 H :    0.022767
  15 H :    0.017693
  16 S :    0.106030
  17 C :   -0.087818
  18 C :   -0.056864
  19 C :   -0.043311
  20 C :   -0.158597
  21 H :    0.000490
  22 C :    0.110969
  23 H :    0.011222
  24 H :    0.010535
  25 C :   -0.112119
  26 H :    0.044049
  27 H :    0.065561
  28 C :   -0.041943
  29 H :    0.030816
  30 H :    0.048251
  31 H :    0.024275
  32 H :    0.068960
  33 H :    0.075366
Sum of atomic charges:    0.0000000

LOEWDIN ATOMIC CHARGES
----------------------
   0 S :    0.413976
   1 C :   -0.207577
   2 C :   -0.070609
   3 C :   -0.055456
   4 C :   -0.197535
   5 H :    0.016294
   6 C :   -0.028794
   7 H :    0.030207
   8 H :    0.032121
   9 C :   -0.030459
  10 H :    0.017125
  11 H :    0.031818
  12 C :   -0.067557
  13 H :    0.020557
  14 H :    0.025750
  15 H :    0.017822
  16 S :    0.430474
  17 C :   -0.214529
  18 C :   -0.078643
  19 C :   -0.047688
  20 C :   -0.196965
  21 H :    0.021937
  22 C :   -0.026213
  23 H :    0.021514
  24 H :    0.029671
  25 C :   -0.046431
  26 H :    0.027116
  27 H :    0.039723
  28 C :   -0.068587
  29 H :    0.025965
  30 H :    0.032333
  31 H :    0.021882
  32 H :    0.039069
  33 H :    0.041688

  Mayer bond orders larger than 0.100000
B(  0-S ,  1-C ) :   1.1766 B(  0-S ,  4-C ) :   1.1559 B(  1-C ,  2-C ) :   1.5419
B(  1-C ,  4-C ) :   0.1177 B(  1-C , 32-H ) :   0.9628 B(  2-C ,  3-C ) :   1.2935
B(  2-C ,  6-C ) :   1.0364 B(  3-C ,  4-C ) :   1.5102 B(  3-C ,  5-H ) :   1.0054
B(  4-C , 20-C ) :   1.0688 B(  6-C ,  7-H ) :   0.9469 B(  6-C ,  8-H ) :   0.9410
B(  6-C ,  9-C ) :   1.0430 B(  9-C , 10-H ) :   0.9556 B(  9-C , 11-H ) :   0.9612
B(  9-C , 12-C ) :   1.0746 B( 12-C , 13-H ) :   0.9745 B( 12-C , 14-H ) :   0.9745
B( 12-C , 15-H ) :   0.9780 B( 16-S , 17-C ) :   1.1778 B( 16-S , 20-C ) :   1.1578
B( 17-C , 18-C ) :   1.5801 B( 17-C , 33-H ) :   0.9618 B( 18-C , 19-C ) :   1.2487
B( 18-C , 21-H ) :   0.9996 B( 19-C , 20-C ) :   1.5742 B( 19-C , 22-C ) :   1.0269
B( 22-C , 23-H ) :   0.9295 B( 22-C , 24-H ) :   0.9385 B( 22-C , 25-C ) :   1.0336
B( 25-C , 26-H ) :   0.9662 B( 25-C , 27-H ) :   0.9533 B( 25-C , 28-C ) :   1.0763
B( 28-C , 29-H ) :   0.9756 B( 28-C , 30-H ) :   0.9762 B( 28-C , 31-H ) :   0.9760

Dispersion correction           -0.013720121
FINAL SINGLE POINT ENERGY     -1339.849382610749

DIPOLE MOMENT
-------------
                                X             Y             Z
Electronic contribution:     -7.21484      -7.81178      23.12316
Nuclear contribution   :      7.16304       8.36767     -23.63320
                        -----------------------------------------
Total Dipole Moment    :     -0.05180       0.55588      -0.51004
                        -----------------------------------------
Magnitude (a.u.)       :      0.75619
Magnitude (Debye)      :      1.92209

Rotational constants in cm-1:     0.017380     0.007922     0.006570
Rotational constants in MHz :   521.040491   237.484637   196.963703

                             ****ORCA TERMINATED NORMALLY****
TOTAL RUN TIME: 0 days 0 hours 0 minutes 33 seconds 844 msec
