                         Program Version 4.2.1 -  RELEASE  -
|  1> ! wB97X-D3 SP def2-SVP
|  2> %pal
|  3> nprocs 16
|  4> end
|  5>
|  6> * xyz 0 1
|  7> S 	 -15.2172 	 48.1478 	 31.6684
|  8> C 	 -13.5229 	 48.7368 	 31.6947
|  9> C 	 -12.7592 	 48.1636 	 32.64
| 10> C 	 -13.5374 	 47.2704 	 33.4552
| 11> C 	 -14.8006 	 46.9403 	 32.941
| 12> H 	 -13.2194 	 46.8061 	 34.3743
| 13> C 	 -11.283 	 48.6213 	 32.8842
| 14> H 	 -10.9078 	 48.2171 	 33.7769
| 15> H 	 -11.3378 	 49.631 	 33.1106
| 16> C 	 -10.3386 	 48.3533 	 31.6957
| 17> H 	 -10.5312 	 49.0845 	 30.8747
| 18> H 	 -9.28106 	 48.5545 	 32.0479
| 19> C 	 -10.4293 	 46.8814 	 31.048
| 20> H 	 -10.0539 	 46.1068 	 31.7519
| 21> H 	 -11.4379 	 46.5745 	 30.8251
| 22> H 	 -9.88511 	 46.7487 	 30.1391
| 23> S 	 -17.1948 	 47.0097 	 34.2224
| 24> C 	 -18.0867 	 45.5119 	 34.3877
| 25> C 	 -17.2695 	 44.4227 	 34.204
| 26> C 	 -16.0007 	 44.7183 	 33.6801
| 27> C 	 -15.8341 	 46.127 	 33.5791
| 28> H 	 -17.6474 	 43.4346 	 34.493
| 29> C 	 -15.0923 	 43.573 	 33.1699
| 30> H 	 -14.6394 	 43.9691 	 32.2811
| 31> H 	 -15.8119 	 42.8201 	 32.8178
| 32> C 	 -14.0926 	 43.1441 	 34.2827
| 33> H 	 -14.6665 	 43.1386 	 35.2329
| 34> H 	 -13.2783 	 43.8786 	 34.4065
| 35> C 	 -13.5064 	 41.8011 	 33.8971
| 36> H 	 -12.7956 	 41.3593 	 34.5811
| 37> H 	 -12.9849 	 41.7377 	 32.9468
| 38> H 	 -14.3125 	 40.9878 	 33.8947
| 39> H 	 -13.226 	 49.3336 	 30.823
| 40> H 	 -19.039 	 45.449 	 34.9398
| 41> *
| 42>
| 43>                          ****END OF INPUT****

CARTESIAN COORDINATES (ANGSTROEM)
---------------------------------
  S    -15.217200   48.147800   31.668400
  C    -13.522900   48.736800   31.694700
  C    -12.759200   48.163600   32.640000
  C    -13.537400   47.270400   33.455200
  C    -14.800600   46.940300   32.941000
  H    -13.219400   46.806100   34.374300
  C    -11.283000   48.621300   32.884200
  H    -10.907800   48.217100   33.776900
  H    -11.337800   49.631000   33.110600
  C    -10.338600   48.353300   31.695700
  H    -10.531200   49.084500   30.874700
  H     -9.281060   48.554500   32.047900
  C    -10.429300   46.881400   31.048000
  H    -10.053900   46.106800   31.751900
  H    -11.437900   46.574500   30.825100
  H     -9.885110   46.748700   30.139100
  S    -17.194800   47.009700   34.222400
  C    -18.086700   45.511900   34.387700
  C    -17.269500   44.422700   34.204000
  C    -16.000700   44.718300   33.680100
  C    -15.834100   46.127000   33.579100
  H    -17.647400   43.434600   34.493000
  C    -15.092300   43.573000   33.169900
  H    -14.639400   43.969100   32.281100
  H    -15.811900   42.820100   32.817800
  C    -14.092600   43.144100   34.282700
  H    -14.666500   43.138600   35.232900
  H    -13.278300   43.878600   34.406500
  C    -13.506400   41.801100   33.897100
  H    -12.795600   41.359300   34.581100
  H    -12.984900   41.737700   32.946800
  H    -14.312500   40.987800   33.894700
  H    -13.226000   49.333600   30.823000
  H    -19.039000   45.449000   34.939800

 Total Charge           Charge          ....    0
 Multiplicity           Mult            ....    1
 Number of Electrons    NEL             ....  134
 Basis Dimension        Dim             ....  322

ORBITAL ENERGIES
----------------

  NO   OCC          E(Eh)            E(eV)
   0   2.0000     -88.965018     -2420.8612
   1   2.0000     -88.960869     -2420.7483
   2   2.0000     -10.332779      -281.1692
   3   2.0000     -10.326834      -281.0074
   4   2.0000     -10.314206      -280.6638
   5   2.0000     -10.314063      -280.6599
   6   2.0000     -10.303931      -280.3842
   7   2.0000     -10.302830      -280.3542
   8   2.0000     -10.302583      -280.3475
   9   2.0000     -10.299247      -280.2568
  10   2.0000     -10.294550      -280.1290
  11   2.0000     -10.293507      -280.1006
  12   2.0000     -10.290396      -280.0159
  13   2.0000     -10.289998      -280.0051
  14   2.0000     -10.280541      -279.7478
  15   2.0000     -10.278797      -279.7003
  16   2.0000      -8.079838      -219.8636
  17   2.0000      -8.074623      -219.7217
  18   2.0000      -6.038239      -164.3088
  19   2.0000      -6.034397      -164.2043
  20   2.0000      -6.033180      -164.1712
  21   2.0000      -6.030631      -164.1018
  22   2.0000      -6.029467      -164.0701
  23   2.0000      -6.025172      -163.9533
  24   2.0000      -1.001148       -27.2426
  25   2.0000      -0.978629       -26.6299
  26   2.0000      -0.907125       -24.6841
  27   2.0000      -0.902793       -24.5663
  28   2.0000      -0.863125       -23.4868
  29   2.0000      -0.849221       -23.1085
  30   2.0000      -0.835582       -22.7373
  31   2.0000      -0.809628       -22.0311
  32   2.0000      -0.786712       -21.4075
  33   2.0000      -0.770451       -20.9650
  34   2.0000      -0.705943       -19.2097
  35   2.0000      -0.702348       -19.1119
  36   2.0000      -0.693610       -18.8741
  37   2.0000      -0.656421       -17.8621
  38   2.0000      -0.640419       -17.4267
  39   2.0000      -0.609730       -16.5916
  40   2.0000      -0.590056       -16.0562
  41   2.0000      -0.569812       -15.5054
  42   2.0000      -0.559635       -15.2285
  43   2.0000      -0.552038       -15.0217
  44   2.0000      -0.532815       -14.4986
  45   2.0000      -0.521503       -14.1908
  46   2.0000      -0.514121       -13.9899
  47   2.0000      -0.509411       -13.8618
  48   2.0000      -0.503080       -13.6895
  49   2.0000      -0.489998       -13.3335
  50   2.0000      -0.486402       -13.2357
  51   2.0000      -0.472688       -12.8625
  52   2.0000      -0.469865       -12.7857
  53   2.0000      -0.463529       -12.6133
  54   2.0000      -0.454589       -12.3700
  55   2.0000      -0.447667       -12.1816
  56   2.0000      -0.441697       -12.0192
  57   2.0000      -0.439439       -11.9577
  58   2.0000      -0.435202       -11.8424
  59   2.0000      -0.422090       -11.4857
  60   2.0000      -0.421155       -11.4602
  61   2.0000      -0.418838       -11.3972
  62   2.0000      -0.416044       -11.3211
  63   2.0000      -0.338402        -9.2084
  64   2.0000      -0.333145        -9.0653
  65   2.0000      -0.325236        -8.8501
  66   2.0000      -0.295648        -8.0450
  67   0.0000       0.029401         0.8000
  68   0.0000       0.057219         1.5570
  69   0.0000       0.108970         2.9652
  70   0.0000       0.122599         3.3361
  71   0.0000       0.132405         3.6029

MULLIKEN ATOMIC CHARGES
-----------------------
   0 S :    0.080106
   1 C :   -0.146549
   2 C :   -0.090521
   3 C :    0.032959
   4 C :   -0.155277
   5 H :    0.014892
   6 C :    0.158219
   7 H :   -0.001343
   8 H :    0.023540
   9 C :   -0.119150
  10 H :    0.038752
  11 H :    0.043010
  12 C :   -0.057573
  13 H :    0.030792
  14 H :    0.040918
  15 H :    0.031151
  16 S :    0.116678
  17 C :   -0.104170
  18 C :   -0.053623
  19 C :   -0.041172
  20 C :   -0.195951
  21 H :    0.023230
  22 C :    0.083524
  23 H :    0.029334
  24 H :    0.031365
  25 C :   -0.055575
  26 H :    0.039847
  27 H :    0.038745
  28 C :   -0.057210
  29 H :    0.024391
  30 H :    0.034096
  31 H :    0.029331
  32 H :    0.067240
  33 H :    0.065991
Sum of atomic charges:    0.0000000

LOEWDIN ATOMIC CHARGES
----------------------
   0 S :    0.356743
   1 C :   -0.173372
   2 C :   -0.066371
   3 C :   -0.052617
   4 C :   -0.183980
   5 H :    0.028032
   6 C :   -0.017501
   7 H :    0.021570
   8 H :    0.028179
   9 C :   -0.040215
  10 H :    0.024458
  11 H :    0.031413
  12 C :   -0.069798
  13 H :    0.027519
  14 H :    0.024865
  15 H :    0.022377
  16 S :    0.413400
  17 C :   -0.194565
  18 C :   -0.077472
  19 C :   -0.053531
  20 C :   -0.209171
  21 H :    0.033457
  22 C :   -0.021860
  23 H :    0.030030
  24 H :    0.034041
  25 C :   -0.037986
  26 H :    0.030363
  27 H :    0.028812
  28 C :   -0.076976
  29 H :    0.021349
  30 H :    0.026402
  31 H :    0.030604
  32 H :    0.028998
  33 H :    0.032802

  Mayer bond orders larger than 0.100000
B(  0-S ,  1-C ) :   1.1299 B(  0-S ,  4-C ) :   1.1292 B(  1-C ,  2-C ) :   1.6393
B(  1-C , 32-H ) :   0.9631 B(  2-C ,  3-C ) :   1.2159 B(  2-C ,  6-C ) :   0.9964
B(  3-C ,  4-C ) :   1.6049 B(  3-C ,  5-H ) :   0.9880 B(  4-C , 20-C ) :   1.0314
B(  6-C ,  7-H ) :   0.9388 B(  6-C ,  8-H ) :   0.9408 B(  6-C ,  9-C ) :   1.0662
B(  9-C , 10-H ) :   0.9600 B(  9-C , 11-H ) :   0.9597 B(  9-C , 12-C ) :   1.0633
B( 12-C , 13-H ) :   0.9783 B( 12-C , 14-H ) :   0.9739 B( 12-C , 15-H ) :   0.9787
B( 16-S , 17-C ) :   1.1506 B( 16-S , 20-C ) :   1.1724 B( 17-C , 18-C ) :   1.6103
B( 17-C , 20-C ) :   0.1053 B( 17-C , 33-H ) :   0.9601 B( 18-C , 19-C ) :   1.2667
B( 18-C , 21-H ) :   0.9824 B( 19-C , 20-C ) :   1.5640 B( 19-C , 22-C ) :   1.0196
B( 22-C , 23-H ) :   0.9283 B( 22-C , 24-H ) :   0.9512 B( 22-C , 25-C ) :   1.0452
B( 25-C , 26-H ) :   0.9618 B( 25-C , 27-H ) :   0.9506 B( 25-C , 28-C ) :   1.0797
B( 28-C , 29-H ) :   0.9734 B( 28-C , 30-H ) :   0.9721 B( 28-C , 31-H ) :   0.9749

Dispersion correction           -0.014298346
FINAL SINGLE POINT ENERGY     -1339.868158370220

DIPOLE MOMENT
-------------
                                X             Y             Z
Electronic contribution:    -24.27961      15.63028       1.80941
Nuclear contribution   :     24.82929     -15.95950      -1.61463
                        -----------------------------------------
Total Dipole Moment    :      0.54968      -0.32921       0.19478
                        -----------------------------------------
Magnitude (a.u.)       :      0.66968
Magnitude (Debye)      :      1.70219

Rotational constants in cm-1:     0.017489     0.009137     0.006546
Rotational constants in MHz :   524.296805   273.908899   196.247994

                             ****ORCA TERMINATED NORMALLY****
TOTAL RUN TIME: 0 days 0 hours 0 minutes 33 seconds 462 msec
