                         Program Version 4.2.1 -  RELEASE  -
|  1> ! wB97X-D3 SP def2-SVP
|  2> %pal
|  3> nprocs 16
|  4> end
|  5>
|  6> * xyz 0 1
|  7> S 	 -43.5423 	 63.2241 	 140.669
|  8> C 	 -42.497 	 62.4426 	 141.815
|  9> C 	 -41.8213 	 61.3397 	 141.252
| 10> C 	 -42.2878 	 61.0223 	 139.963
| 11> C 	 -43.0109 	 62.0239 	 139.413
| 12> H 	 -41.9719 	 60.2149 	 139.358
| 13> C 	 -40.934 	 60.3951 	 141.976
| 14> H 	 -40.0447 	 60.986 	 142.384
| 15> H 	 -40.553 	 59.6838 	 141.239
| 16> C 	 -41.6073 	 59.6255 	 143.082
| 17> H 	 -42.0115 	 60.2405 	 143.901
| 18> H 	 -42.5287 	 59.2295 	 142.752
| 19> C 	 -40.7048 	 58.5583 	 143.76
| 20> H 	 -41.1458 	 58.11 	 144.707
| 21> H 	 -40.3465 	 57.7621 	 143.119
| 22> H 	 -39.8747 	 59.1471 	 144.125
| 23> S 	 -45.1366 	 62.5007 	 137.895
| 24> C 	 -44.9613 	 62.566 	 136.149
| 25> C 	 -43.7479 	 61.9901 	 135.812
| 26> C 	 -42.8753 	 61.6871 	 136.85
| 27> C 	 -43.4552 	 61.9751 	 138.042
| 28> H 	 -43.4769 	 61.9872 	 134.715
| 29> C 	 -41.5295 	 61.2324 	 136.581
| 30> H 	 -40.8365 	 61.6902 	 137.357
| 31> H 	 -41.2104 	 61.475 	 135.581
| 32> C 	 -41.394 	 59.7105 	 136.729
| 33> H 	 -41.7939 	 59.1724 	 135.892
| 34> H 	 -41.947 	 59.4744 	 137.623
| 35> C 	 -39.8941 	 59.2489 	 136.877
| 36> H 	 -39.8333 	 58.145 	 136.883
| 37> H 	 -39.6007 	 59.4886 	 137.881
| 38> H 	 -39.2365 	 59.7625 	 136.023
| 39> H 	 -42.2751 	 62.6126 	 142.824
| 40> H 	 -45.7485 	 62.83 	 135.454
| 41> *
| 42>
| 43>                          ****END OF INPUT****

CARTESIAN COORDINATES (ANGSTROEM)
---------------------------------
  S    -43.542300   63.224100  140.669000
  C    -42.497000   62.442600  141.815000
  C    -41.821300   61.339700  141.252000
  C    -42.287800   61.022300  139.963000
  C    -43.010900   62.023900  139.413000
  H    -41.971900   60.214900  139.358000
  C    -40.934000   60.395100  141.976000
  H    -40.044700   60.986000  142.384000
  H    -40.553000   59.683800  141.239000
  C    -41.607300   59.625500  143.082000
  H    -42.011500   60.240500  143.901000
  H    -42.528700   59.229500  142.752000
  C    -40.704800   58.558300  143.760000
  H    -41.145800   58.110000  144.707000
  H    -40.346500   57.762100  143.119000
  H    -39.874700   59.147100  144.125000
  S    -45.136600   62.500700  137.895000
  C    -44.961300   62.566000  136.149000
  C    -43.747900   61.990100  135.812000
  C    -42.875300   61.687100  136.850000
  C    -43.455200   61.975100  138.042000
  H    -43.476900   61.987200  134.715000
  C    -41.529500   61.232400  136.581000
  H    -40.836500   61.690200  137.357000
  H    -41.210400   61.475000  135.581000
  C    -41.394000   59.710500  136.729000
  H    -41.793900   59.172400  135.892000
  H    -41.947000   59.474400  137.623000
  C    -39.894100   59.248900  136.877000
  H    -39.833300   58.145000  136.883000
  H    -39.600700   59.488600  137.881000
  H    -39.236500   59.762500  136.023000
  H    -42.275100   62.612600  142.824000
  H    -45.748500   62.830000  135.454000

 Total Charge           Charge          ....    0
 Multiplicity           Mult            ....    1
 Number of Electrons    NEL             ....  134
 Basis Dimension        Dim             ....  322

ORBITAL ENERGIES
----------------

  NO   OCC          E(Eh)            E(eV)
   0   2.0000     -88.974069     -2421.1075
   1   2.0000     -88.961600     -2420.7682
   2   2.0000     -10.327754      -281.0325
   3   2.0000     -10.322763      -280.8967
   4   2.0000     -10.315791      -280.7069
   5   2.0000     -10.311645      -280.5941
   6   2.0000     -10.296528      -280.1828
   7   2.0000     -10.295108      -280.1441
   8   2.0000     -10.294774      -280.1350
   9   2.0000     -10.293431      -280.0985
  10   2.0000     -10.293298      -280.0949
  11   2.0000     -10.291895      -280.0567
  12   2.0000     -10.287412      -279.9347
  13   2.0000     -10.286004      -279.8964
  14   2.0000     -10.283805      -279.8366
  15   2.0000     -10.282758      -279.8081
  16   2.0000      -8.087238      -220.0649
  17   2.0000      -8.076424      -219.7707
  18   2.0000      -6.045990      -164.5198
  19   2.0000      -6.042028      -164.4119
  20   2.0000      -6.037751      -164.2956
  21   2.0000      -6.034880      -164.2174
  22   2.0000      -6.031006      -164.1120
  23   2.0000      -6.027145      -164.0070
  24   2.0000      -1.012100       -27.5406
  25   2.0000      -0.987050       -26.8590
  26   2.0000      -0.918404       -24.9910
  27   2.0000      -0.914373       -24.8814
  28   2.0000      -0.871838       -23.7239
  29   2.0000      -0.856578       -23.3087
  30   2.0000      -0.851032       -23.1578
  31   2.0000      -0.813468       -22.1356
  32   2.0000      -0.780454       -21.2372
  33   2.0000      -0.768938       -20.9239
  34   2.0000      -0.713047       -19.4030
  35   2.0000      -0.703767       -19.1505
  36   2.0000      -0.696082       -18.9413
  37   2.0000      -0.671616       -18.2756
  38   2.0000      -0.642295       -17.4777
  39   2.0000      -0.620772       -16.8921
  40   2.0000      -0.600646       -16.3444
  41   2.0000      -0.575922       -15.6716
  42   2.0000      -0.568154       -15.4602
  43   2.0000      -0.555179       -15.1072
  44   2.0000      -0.526851       -14.3364
  45   2.0000      -0.524145       -14.2627
  46   2.0000      -0.517524       -14.0825
  47   2.0000      -0.515237       -14.0203
  48   2.0000      -0.507326       -13.8050
  49   2.0000      -0.501267       -13.6402
  50   2.0000      -0.495744       -13.4899
  51   2.0000      -0.481782       -13.1100
  52   2.0000      -0.470635       -12.8066
  53   2.0000      -0.466773       -12.7015
  54   2.0000      -0.458055       -12.4643
  55   2.0000      -0.444582       -12.0977
  56   2.0000      -0.442768       -12.0483
  57   2.0000      -0.440643       -11.9905
  58   2.0000      -0.432753       -11.7758
  59   2.0000      -0.427730       -11.6391
  60   2.0000      -0.423625       -11.5274
  61   2.0000      -0.423438       -11.5223
  62   2.0000      -0.413132       -11.2419
  63   2.0000      -0.354031        -9.6337
  64   2.0000      -0.333052        -9.0628
  65   2.0000      -0.330498        -8.9933
  66   2.0000      -0.284350        -7.7375
  67   0.0000       0.019891         0.5413
  68   0.0000       0.072276         1.9667
  69   0.0000       0.100052         2.7225
  70   0.0000       0.119285         3.2459
  71   0.0000       0.128775         3.5042

MULLIKEN ATOMIC CHARGES
-----------------------
   0 S :    0.134291
   1 C :   -0.074381
   2 C :   -0.099285
   3 C :    0.020693
   4 C :   -0.095779
   5 H :   -0.025151
   6 C :    0.060141
   7 H :    0.042073
   8 H :    0.017166
   9 C :   -0.058445
  10 H :    0.018230
  11 H :    0.012110
  12 C :   -0.056702
  13 H :    0.042268
  14 H :    0.038919
  15 H :    0.022277
  16 S :    0.086237
  17 C :   -0.094498
  18 C :   -0.068764
  19 C :    0.004298
  20 C :   -0.188279
  21 H :    0.032998
  22 C :    0.068848
  23 H :    0.041053
  24 H :    0.013263
  25 C :   -0.085143
  26 H :    0.026988
  27 H :    0.030843
  28 C :   -0.066204
  29 H :    0.039576
  30 H :    0.024598
  31 H :    0.059333
  32 H :    0.018096
  33 H :    0.058332
Sum of atomic charges:   -0.0000000

LOEWDIN ATOMIC CHARGES
----------------------
   0 S :    0.393876
   1 C :   -0.197034
   2 C :   -0.060641
   3 C :   -0.057030
   4 C :   -0.174000
   5 H :    0.023290
   6 C :   -0.038392
   7 H :    0.039804
   8 H :    0.029932
   9 C :   -0.044434
  10 H :    0.025935
  11 H :    0.016804
  12 C :   -0.068677
  13 H :    0.034741
  14 H :    0.021820
  15 H :    0.023330
  16 S :    0.388975
  17 C :   -0.185094
  18 C :   -0.074165
  19 C :   -0.068210
  20 C :   -0.175561
  21 H :    0.038606
  22 C :   -0.029869
  23 H :    0.041926
  24 H :    0.027686
  25 C :   -0.034548
  26 H :    0.020741
  27 H :    0.015481
  28 C :   -0.072382
  29 H :    0.027904
  30 H :    0.017112
  31 H :    0.042439
  32 H :    0.019699
  33 H :    0.029935

  Mayer bond orders larger than 0.100000
B(  0-S ,  1-C ) :   1.1273 B(  0-S ,  4-C ) :   1.1166 B(  1-C ,  2-C ) :   1.5986
B(  1-C , 32-H ) :   0.9686 B(  2-C ,  3-C ) :   1.2473 B(  2-C ,  6-C ) :   1.0426
B(  3-C ,  4-C ) :   1.5728 B(  3-C ,  5-H ) :   0.9883 B(  4-C , 20-C ) :   1.0711
B(  6-C ,  7-H ) :   0.9250 B(  6-C ,  8-H ) :   0.9393 B(  6-C ,  9-C ) :   1.0682
B(  9-C , 10-H ) :   0.9498 B(  9-C , 11-H ) :   0.9528 B(  9-C , 12-C ) :   1.0729
B( 12-C , 13-H ) :   0.9749 B( 12-C , 14-H ) :   0.9785 B( 12-C , 15-H ) :   0.9738
B( 16-S , 17-C ) :   1.1396 B( 16-S , 20-C ) :   1.1374 B( 17-C , 18-C ) :   1.6154
B( 17-C , 20-C ) :   0.1034 B( 17-C , 33-H ) :   0.9692 B( 18-C , 19-C ) :   1.2447
B( 18-C , 21-H ) :   0.9751 B( 19-C , 20-C ) :   1.5862 B( 19-C , 22-C ) :   1.0693
B( 22-C , 23-H ) :   0.9292 B( 22-C , 24-H ) :   0.9201 B( 22-C , 25-C ) :   1.0566
B( 25-C , 26-H ) :   0.9482 B( 25-C , 27-H ) :   0.9573 B( 25-C , 28-C ) :   1.0758
B( 28-C , 29-H ) :   0.9743 B( 28-C , 30-H ) :   0.9756 B( 28-C , 31-H ) :   0.9702

Dispersion correction           -0.014410153
FINAL SINGLE POINT ENERGY     -1339.859175192153

DIPOLE MOMENT
-------------
                                X             Y             Z
Electronic contribution:    -22.02928      21.43579      -5.56075
Nuclear contribution   :     22.47848     -21.90258       5.45705
                        -----------------------------------------
Total Dipole Moment    :      0.44919      -0.46680      -0.10370
                        -----------------------------------------
Magnitude (a.u.)       :      0.65607
Magnitude (Debye)      :      1.66760

Rotational constants in cm-1:     0.018530     0.009084     0.006560
Rotational constants in MHz :   555.514540   272.342860   196.672377

                             ****ORCA TERMINATED NORMALLY****
TOTAL RUN TIME: 0 days 0 hours 0 minutes 36 seconds 405 msec
