                         Program Version 4.2.1 -  RELEASE  -
|  1> ! wB97X-D3 SP def2-SVP
|  2> %pal
|  3> nprocs 16
|  4> end
|  5>
|  6> * xyz 0 1
|  7> S 	 39.9087 	 12.2138 	 89.59
|  8> C 	 41.3938 	 13.037 	 89.3353
|  9> C 	 41.9928 	 12.7518 	 88.1008
| 10> C 	 41.3625 	 11.5441 	 87.5723
| 11> C 	 40.2528 	 11.0659 	 88.2837
| 12> H 	 41.6355 	 10.8887 	 86.7057
| 13> C 	 43.2005 	 13.4849 	 87.431
| 14> H 	 43.8115 	 12.7708 	 86.8909
| 15> H 	 43.868 	 13.8029 	 88.1515
| 16> C 	 42.8921 	 14.6138 	 86.4615
| 17> H 	 42.6947 	 15.5378 	 87.0576
| 18> H 	 43.7553 	 14.8308 	 85.8589
| 19> C 	 41.6382 	 14.5352 	 85.6137
| 20> H 	 40.7869 	 14.7717 	 86.2417
| 21> H 	 41.6521 	 15.2604 	 84.8383
| 22> H 	 41.4851 	 13.534 	 85.2057
| 23> S 	 40.3777 	 8.30414 	 88.4159
| 24> C 	 38.9307 	 7.38589 	 88.1229
| 25> C 	 37.8875 	 8.18116 	 87.7851
| 26> C 	 38.1567 	 9.58443 	 87.8874
| 27> C 	 39.542 	 9.7815 	 88.1252
| 28> H 	 36.9215 	 7.75284 	 87.4624
| 29> C 	 37.1588 	 10.6368 	 87.5591
| 30> H 	 37.4621 	 11.5975 	 87.9605
| 31> H 	 36.2565 	 10.305 	 88.0158
| 32> C 	 36.9204 	 10.8594 	 86.0309
| 33> H 	 37.8877 	 10.9921 	 85.4664
| 34> H 	 36.339 	 11.6971 	 85.7707
| 35> C 	 36.4031 	 9.60341 	 85.2395
| 36> H 	 35.3023 	 9.6507 	 85.3443
| 37> H 	 36.7606 	 8.61898 	 85.5999
| 38> H 	 36.6786 	 9.74833 	 84.1568
| 39> H 	 41.6782 	 13.8302 	 90.0028
| 40> H 	 38.8265 	 6.30205 	 88.0363
| 41> *
| 42>
| 43>                          ****END OF INPUT****

CARTESIAN COORDINATES (ANGSTROEM)
---------------------------------
  S     39.908700   12.213800   89.590000
  C     41.393800   13.037000   89.335300
  C     41.992800   12.751800   88.100800
  C     41.362500   11.544100   87.572300
  C     40.252800   11.065900   88.283700
  H     41.635500   10.888700   86.705700
  C     43.200500   13.484900   87.431000
  H     43.811500   12.770800   86.890900
  H     43.868000   13.802900   88.151500
  C     42.892100   14.613800   86.461500
  H     42.694700   15.537800   87.057600
  H     43.755300   14.830800   85.858900
  C     41.638200   14.535200   85.613700
  H     40.786900   14.771700   86.241700
  H     41.652100   15.260400   84.838300
  H     41.485100   13.534000   85.205700
  S     40.377700    8.304140   88.415900
  C     38.930700    7.385890   88.122900
  C     37.887500    8.181160   87.785100
  C     38.156700    9.584430   87.887400
  C     39.542000    9.781500   88.125200
  H     36.921500    7.752840   87.462400
  C     37.158800   10.636800   87.559100
  H     37.462100   11.597500   87.960500
  H     36.256500   10.305000   88.015800
  C     36.920400   10.859400   86.030900
  H     37.887700   10.992100   85.466400
  H     36.339000   11.697100   85.770700
  C     36.403100    9.603410   85.239500
  H     35.302300    9.650700   85.344300
  H     36.760600    8.618980   85.599900
  H     36.678600    9.748330   84.156800
  H     41.678200   13.830200   90.002800
  H     38.826500    6.302050   88.036300

 Total Charge           Charge          ....    0
 Multiplicity           Mult            ....    1
 Number of Electrons    NEL             ....  134
 Basis Dimension        Dim             ....  322

ORBITAL ENERGIES
----------------

  NO   OCC          E(Eh)            E(eV)
   0   2.0000     -88.969564     -2420.9849
   1   2.0000     -88.965183     -2420.8657
   2   2.0000     -10.330367      -281.1036
   3   2.0000     -10.327685      -281.0306
   4   2.0000     -10.316920      -280.7377
   5   2.0000     -10.313536      -280.6456
   6   2.0000     -10.313388      -280.6415
   7   2.0000     -10.303231      -280.3652
   8   2.0000     -10.302471      -280.3445
   9   2.0000     -10.292746      -280.0799
  10   2.0000     -10.290734      -280.0251
  11   2.0000     -10.289239      -279.9844
  12   2.0000     -10.286423      -279.9078
  13   2.0000     -10.283391      -279.8253
  14   2.0000     -10.281874      -279.7840
  15   2.0000     -10.269128      -279.4372
  16   2.0000      -8.084545      -219.9916
  17   2.0000      -8.080054      -219.8695
  18   2.0000      -6.043040      -164.4395
  19   2.0000      -6.038988      -164.3292
  20   2.0000      -6.038472      -164.3152
  21   2.0000      -6.035333      -164.2298
  22   2.0000      -6.034602      -164.2099
  23   2.0000      -6.030842      -164.1076
  24   2.0000      -1.005749       -27.3678
  25   2.0000      -0.984154       -26.7802
  26   2.0000      -0.910249       -24.7691
  27   2.0000      -0.906465       -24.6662
  28   2.0000      -0.868670       -23.6377
  29   2.0000      -0.845964       -23.0198
  30   2.0000      -0.841672       -22.9031
  31   2.0000      -0.815628       -22.1944
  32   2.0000      -0.789896       -21.4942
  33   2.0000      -0.772382       -21.0176
  34   2.0000      -0.703409       -19.1407
  35   2.0000      -0.694989       -18.9116
  36   2.0000      -0.686211       -18.6727
  37   2.0000      -0.659957       -17.9583
  38   2.0000      -0.641289       -17.4504
  39   2.0000      -0.608612       -16.5612
  40   2.0000      -0.591310       -16.0904
  41   2.0000      -0.573851       -15.6153
  42   2.0000      -0.555803       -15.1242
  43   2.0000      -0.550377       -14.9765
  44   2.0000      -0.545546       -14.8451
  45   2.0000      -0.538749       -14.6601
  46   2.0000      -0.523110       -14.2345
  47   2.0000      -0.506831       -13.7916
  48   2.0000      -0.495022       -13.4702
  49   2.0000      -0.493703       -13.4343
  50   2.0000      -0.485223       -13.2036
  51   2.0000      -0.481393       -13.0994
  52   2.0000      -0.470369       -12.7994
  53   2.0000      -0.467348       -12.7172
  54   2.0000      -0.464178       -12.6309
  55   2.0000      -0.447566       -12.1789
  56   2.0000      -0.442721       -12.0471
  57   2.0000      -0.439769       -11.9667
  58   2.0000      -0.431754       -11.7486
  59   2.0000      -0.427448       -11.6315
  60   2.0000      -0.423637       -11.5277
  61   2.0000      -0.404762       -11.0141
  62   2.0000      -0.401697       -10.9307
  63   2.0000      -0.342499        -9.3199
  64   2.0000      -0.332944        -9.0599
  65   2.0000      -0.326927        -8.8961
  66   2.0000      -0.294032        -8.0010
  67   0.0000       0.036050         0.9810
  68   0.0000       0.058831         1.6009
  69   0.0000       0.106082         2.8866
  70   0.0000       0.119593         3.2543
  71   0.0000       0.130343         3.5468

MULLIKEN ATOMIC CHARGES
-----------------------
   0 S :    0.115797
   1 C :   -0.127262
   2 C :   -0.090941
   3 C :    0.004480
   4 C :   -0.176210
   5 H :    0.031797
   6 C :    0.130089
   7 H :    0.016485
   8 H :    0.007072
   9 C :   -0.099233
  10 H :    0.022911
  11 H :    0.027476
  12 C :   -0.018084
  13 H :    0.033012
  14 H :    0.024801
  15 H :    0.024784
  16 S :    0.137399
  17 C :   -0.089741
  18 C :   -0.059248
  19 C :   -0.060083
  20 C :   -0.166940
  21 H :    0.033014
  22 C :    0.135090
  23 H :    0.019590
  24 H :    0.019215
  25 C :   -0.073465
  26 H :    0.032033
  27 H :    0.026455
  28 C :   -0.108184
  29 H :    0.031405
  30 H :    0.043598
  31 H :    0.045129
  32 H :    0.050682
  33 H :    0.057079
Sum of atomic charges:   -0.0000000

LOEWDIN ATOMIC CHARGES
----------------------
   0 S :    0.408917
   1 C :   -0.195672
   2 C :   -0.059984
   3 C :   -0.066173
   4 C :   -0.198651
   5 H :    0.038660
   6 C :   -0.025220
   7 H :    0.031312
   8 H :    0.023795
   9 C :   -0.043420
  10 H :    0.026403
  11 H :    0.021540
  12 C :   -0.060537
  13 H :    0.028083
  14 H :    0.022360
  15 H :    0.022106
  16 S :    0.433698
  17 C :   -0.199167
  18 C :   -0.075758
  19 C :   -0.053909
  20 C :   -0.212908
  21 H :    0.034454
  22 C :   -0.027749
  23 H :    0.027095
  24 H :    0.028068
  25 C :   -0.036478
  26 H :    0.031005
  27 H :    0.017042
  28 C :   -0.076507
  29 H :    0.021514
  30 H :    0.025113
  31 H :    0.032147
  32 H :    0.023723
  33 H :    0.035096

  Mayer bond orders larger than 0.100000
B(  0-S ,  1-C ) :   1.1714 B(  0-S ,  4-C ) :   1.1271 B(  1-C ,  2-C ) :   1.5965
B(  1-C , 32-H ) :   0.9704 B(  2-C ,  3-C ) :   1.2121 B(  2-C ,  6-C ) :   1.0171
B(  3-C ,  4-C ) :   1.6067 B(  3-C ,  5-H ) :   0.9827 B(  4-C , 20-C ) :   1.0339
B(  6-C ,  7-H ) :   0.9379 B(  6-C ,  8-H ) :   0.9395 B(  6-C ,  9-C ) :   1.0719
B(  9-C , 10-H ) :   0.9565 B(  9-C , 11-H ) :   0.9582 B(  9-C , 12-C ) :   1.0920
B( 12-C , 13-H ) :   0.9687 B( 12-C , 14-H ) :   0.9719 B( 12-C , 15-H ) :   0.9761
B( 16-S , 17-C ) :   1.1483 B( 16-S , 20-C ) :   1.1651 B( 17-C , 18-C ) :   1.6244
B( 17-C , 33-H ) :   0.9603 B( 18-C , 19-C ) :   1.2533 B( 18-C , 21-H ) :   0.9734
B( 19-C , 20-C ) :   1.5524 B( 19-C , 22-C ) :   1.0642 B( 22-C , 23-H ) :   0.9221
B( 22-C , 24-H ) :   0.9287 B( 22-C , 25-C ) :   1.0600 B( 25-C , 26-H ) :   0.9640
B( 25-C , 27-H ) :   0.9627 B( 25-C , 28-C ) :   1.0588 B( 28-C , 29-H ) :   0.9796
B( 28-C , 30-H ) :   0.9705 B( 28-C , 31-H ) :   0.9787

Dispersion correction           -0.014912047
FINAL SINGLE POINT ENERGY     -1339.871203773692

DIPOLE MOMENT
-------------
                                X             Y             Z
Electronic contribution:      4.20020     -12.62022      19.14162
Nuclear contribution   :     -4.18943      12.85382     -19.52221
                        -----------------------------------------
Total Dipole Moment    :      0.01077       0.23360      -0.38059
                        -----------------------------------------
Magnitude (a.u.)       :      0.44669
Magnitude (Debye)      :      1.13540

Rotational constants in cm-1:     0.020334     0.008299     0.007178
Rotational constants in MHz :   609.606341   248.788993   215.197798

                             ****ORCA TERMINATED NORMALLY****
TOTAL RUN TIME: 0 days 0 hours 0 minutes 30 seconds 426 msec
