                         Program Version 4.2.1 -  RELEASE  -
|  1> ! wB97X-D3 SP def2-SVP
|  2> %pal
|  3> nprocs 16
|  4> end
|  5>
|  6> * xyz 0 1
|  7> S 	 -42.5439 	 35.4432 	 78.4601
|  8> C 	 -41.9487 	 36.9248 	 79.1254
|  9> C 	 -41.6176 	 36.8845 	 80.495
| 10> C 	 -42.1249 	 35.6619 	 81.0145
| 11> C 	 -42.4773 	 34.7522 	 80.0767
| 12> H 	 -42.0031 	 35.3913 	 82.0912
| 13> C 	 -41.1427 	 38.0247 	 81.349
| 14> H 	 -41.8258 	 38.7983 	 81.5395
| 15> H 	 -40.3849 	 38.5938 	 80.8236
| 16> C 	 -40.4499 	 37.6418 	 82.6257
| 17> H 	 -41.1586 	 37.2592 	 83.2979
| 18> H 	 -39.6546 	 36.8962 	 82.371
| 19> C 	 -39.8085 	 38.8228 	 83.3997
| 20> H 	 -39.4087 	 38.5135 	 84.3853
| 21> H 	 -38.9574 	 39.1357 	 82.7691
| 22> H 	 -40.4377 	 39.7172 	 83.6541
| 23> S 	 -42.242 	 32.2147 	 79.1301
| 24> C 	 -42.725 	 30.8655 	 80.1141
| 25> C 	 -43.1433 	 31.2473 	 81.3245
| 26> C 	 -43.2338 	 32.6787 	 81.4841
| 27> C 	 -42.7722 	 33.3605 	 80.3584
| 28> H 	 -43.4786 	 30.5914 	 82.0165
| 29> C 	 -43.7259 	 33.2767 	 82.7613
| 30> H 	 -44.6318 	 32.7522 	 83.0277
| 31> H 	 -44.0797 	 34.2851 	 82.7062
| 32> C 	 -42.714 	 33.1669 	 83.9403
| 33> H 	 -41.7099 	 33.5863 	 83.6178
| 34> H 	 -42.5732 	 32.0673 	 84.1564
| 35> C 	 -43.1572 	 34.0735 	 85.1
| 36> H 	 -44.2594 	 33.9067 	 85.187
| 37> H 	 -42.8846 	 35.0693 	 84.9574
| 38> H 	 -42.5247 	 33.6887 	 85.9355
| 39> H 	 -41.6766 	 37.8153 	 78.6031
| 40> H 	 -42.5266 	 29.8355 	 79.7902
| 41> *
| 42>
| 43>                          ****END OF INPUT****

CARTESIAN COORDINATES (ANGSTROEM)
---------------------------------
  S    -42.543900   35.443200   78.460100
  C    -41.948700   36.924800   79.125400
  C    -41.617600   36.884500   80.495000
  C    -42.124900   35.661900   81.014500
  C    -42.477300   34.752200   80.076700
  H    -42.003100   35.391300   82.091200
  C    -41.142700   38.024700   81.349000
  H    -41.825800   38.798300   81.539500
  H    -40.384900   38.593800   80.823600
  C    -40.449900   37.641800   82.625700
  H    -41.158600   37.259200   83.297900
  H    -39.654600   36.896200   82.371000
  C    -39.808500   38.822800   83.399700
  H    -39.408700   38.513500   84.385300
  H    -38.957400   39.135700   82.769100
  H    -40.437700   39.717200   83.654100
  S    -42.242000   32.214700   79.130100
  C    -42.725000   30.865500   80.114100
  C    -43.143300   31.247300   81.324500
  C    -43.233800   32.678700   81.484100
  C    -42.772200   33.360500   80.358400
  H    -43.478600   30.591400   82.016500
  C    -43.725900   33.276700   82.761300
  H    -44.631800   32.752200   83.027700
  H    -44.079700   34.285100   82.706200
  C    -42.714000   33.166900   83.940300
  H    -41.709900   33.586300   83.617800
  H    -42.573200   32.067300   84.156400
  C    -43.157200   34.073500   85.100000
  H    -44.259400   33.906700   85.187000
  H    -42.884600   35.069300   84.957400
  H    -42.524700   33.688700   85.935500
  H    -41.676600   37.815300   78.603100
  H    -42.526600   29.835500   79.790200

 Total Charge           Charge          ....    0
 Multiplicity           Mult            ....    1
 Number of Electrons    NEL             ....  134
 Basis Dimension        Dim             ....  322

ORBITAL ENERGIES
----------------

  NO   OCC          E(Eh)            E(eV)
   0   2.0000     -88.973016     -2421.0788
   1   2.0000     -88.959265     -2420.7047
   2   2.0000     -10.325299      -280.9657
   3   2.0000     -10.324898      -280.9548
   4   2.0000     -10.311960      -280.6027
   5   2.0000     -10.311749      -280.5970
   6   2.0000     -10.301340      -280.3137
   7   2.0000     -10.300458      -280.2897
   8   2.0000     -10.295783      -280.1625
   9   2.0000     -10.290737      -280.0252
  10   2.0000     -10.288422      -279.9622
  11   2.0000     -10.287350      -279.9330
  12   2.0000     -10.286414      -279.9076
  13   2.0000     -10.286215      -279.9021
  14   2.0000     -10.282757      -279.8081
  15   2.0000     -10.282414      -279.7987
  16   2.0000      -8.087486      -220.0717
  17   2.0000      -8.074606      -219.7212
  18   2.0000      -6.045971      -164.5192
  19   2.0000      -6.042214      -164.4170
  20   2.0000      -6.038114      -164.3054
  21   2.0000      -6.033184      -164.1713
  22   2.0000      -6.029080      -164.0596
  23   2.0000      -6.025223      -163.9547
  24   2.0000      -1.009325       -27.4651
  25   2.0000      -0.986256       -26.8374
  26   2.0000      -0.920109       -25.0375
  27   2.0000      -0.910558       -24.7775
  28   2.0000      -0.872483       -23.7415
  29   2.0000      -0.855252       -23.2726
  30   2.0000      -0.847876       -23.0719
  31   2.0000      -0.817271       -22.2391
  32   2.0000      -0.784480       -21.3468
  33   2.0000      -0.771185       -20.9850
  34   2.0000      -0.710176       -19.3249
  35   2.0000      -0.694121       -18.8880
  36   2.0000      -0.689463       -18.7612
  37   2.0000      -0.667114       -18.1531
  38   2.0000      -0.640828       -17.4378
  39   2.0000      -0.623841       -16.9756
  40   2.0000      -0.604907       -16.4603
  41   2.0000      -0.581608       -15.8264
  42   2.0000      -0.569094       -15.4858
  43   2.0000      -0.563573       -15.3356
  44   2.0000      -0.531119       -14.4525
  45   2.0000      -0.526136       -14.3169
  46   2.0000      -0.514883       -14.0107
  47   2.0000      -0.509631       -13.8678
  48   2.0000      -0.500877       -13.6296
  49   2.0000      -0.500338       -13.6149
  50   2.0000      -0.488267       -13.2864
  51   2.0000      -0.484036       -13.1713
  52   2.0000      -0.476502       -12.9663
  53   2.0000      -0.465236       -12.6597
  54   2.0000      -0.458687       -12.4815
  55   2.0000      -0.456017       -12.4089
  56   2.0000      -0.442675       -12.0458
  57   2.0000      -0.436683       -11.8828
  58   2.0000      -0.434612       -11.8264
  59   2.0000      -0.432195       -11.7606
  60   2.0000      -0.426395       -11.6028
  61   2.0000      -0.416064       -11.3217
  62   2.0000      -0.405606       -11.0371
  63   2.0000      -0.359237        -9.7753
  64   2.0000      -0.335742        -9.1360
  65   2.0000      -0.326368        -8.8809
  66   2.0000      -0.281529        -7.6608
  67   0.0000       0.027913         0.7596
  68   0.0000       0.077957         2.1213
  69   0.0000       0.106570         2.8999
  70   0.0000       0.118536         3.2255
  71   0.0000       0.121435         3.3044

MULLIKEN ATOMIC CHARGES
-----------------------
   0 S :    0.136963
   1 C :   -0.091986
   2 C :   -0.080899
   3 C :   -0.029771
   4 C :   -0.100992
   5 H :    0.016066
   6 C :    0.096063
   7 H :    0.023584
   8 H :    0.003263
   9 C :   -0.114145
  10 H :    0.026780
  11 H :    0.047741
  12 C :   -0.075070
  13 H :    0.037369
  14 H :    0.034682
  15 H :    0.042234
  16 S :    0.074410
  17 C :   -0.078347
  18 C :    0.017879
  19 C :   -0.052787
  20 C :   -0.126691
  21 H :   -0.026270
  22 C :    0.057845
  23 H :    0.018930
  24 H :    0.012860
  25 C :   -0.137499
  26 H :    0.038586
  27 H :    0.042304
  28 C :   -0.022386
  29 H :    0.043513
  30 H :    0.029878
  31 H :    0.042367
  32 H :    0.029985
  33 H :    0.063540
Sum of atomic charges:    0.0000000

LOEWDIN ATOMIC CHARGES
----------------------
   0 S :    0.416058
   1 C :   -0.197001
   2 C :   -0.058295
   3 C :   -0.065641
   4 C :   -0.192191
   5 H :    0.036126
   6 C :   -0.035655
   7 H :    0.027521
   8 H :    0.030583
   9 C :   -0.041142
  10 H :    0.012082
  11 H :    0.034758
  12 C :   -0.071652
  13 H :    0.029224
  14 H :    0.025918
  15 H :    0.029795
  16 S :    0.389328
  17 C :   -0.181147
  18 C :   -0.059782
  19 C :   -0.055298
  20 C :   -0.183884
  21 H :    0.013854
  22 C :   -0.040962
  23 H :    0.029800
  24 H :    0.024344
  25 C :   -0.044447
  26 H :    0.025055
  27 H :    0.027039
  28 C :   -0.062631
  29 H :    0.031191
  30 H :    0.015535
  31 H :    0.036636
  32 H :    0.021410
  33 H :    0.033474

  Mayer bond orders larger than 0.100000
B(  0-S ,  1-C ) :   1.1431 B(  0-S ,  4-C ) :   1.1293 B(  1-C ,  2-C ) :   1.6153
B(  1-C , 32-H ) :   0.9640 B(  2-C ,  3-C ) :   1.2509 B(  2-C ,  6-C ) :   1.0251
B(  3-C ,  4-C ) :   1.5924 B(  3-C ,  5-H ) :   0.9731 B(  4-C , 20-C ) :   1.0576
B(  6-C ,  7-H ) :   0.9335 B(  6-C ,  8-H ) :   0.9292 B(  6-C ,  9-C ) :   1.0726
B(  9-C , 10-H ) :   0.9456 B(  9-C , 11-H ) :   0.9592 B(  9-C , 12-C ) :   1.0828
B( 12-C , 13-H ) :   0.9740 B( 12-C , 14-H ) :   0.9753 B( 12-C , 15-H ) :   0.9739
B( 16-S , 17-C ) :   1.1405 B( 16-S , 20-C ) :   1.1285 B( 17-C , 18-C ) :   1.6231
B( 17-C , 33-H ) :   0.9649 B( 18-C , 19-C ) :   1.2206 B( 18-C , 21-H ) :   1.0081
B( 19-C , 20-C ) :   1.6111 B( 19-C , 22-C ) :   1.0594 B( 22-C , 23-H ) :   0.9176
B( 22-C , 24-H ) :   0.9382 B( 22-C , 25-C ) :   1.0526 B( 25-C , 26-H ) :   0.9552
B( 25-C , 27-H ) :   0.9564 B( 25-C , 28-C ) :   1.0679 B( 28-C , 29-H ) :   0.9723
B( 28-C , 30-H ) :   0.9764 B( 28-C , 31-H ) :   0.9720

Dispersion correction           -0.014252735
FINAL SINGLE POINT ENERGY     -1339.869867733279

DIPOLE MOMENT
-------------
                                X             Y             Z
Electronic contribution:     -5.62641     -13.87694     -30.15211
Nuclear contribution   :      5.75848      14.10649      30.89096
                        -----------------------------------------
Total Dipole Moment    :      0.13207       0.22955       0.73885
                        -----------------------------------------
Magnitude (a.u.)       :      0.78488
Magnitude (Debye)      :      1.99501

Rotational constants in cm-1:     0.016502     0.010012     0.006712
Rotational constants in MHz :   494.731027   300.155673   201.210303

                             ****ORCA TERMINATED NORMALLY****
TOTAL RUN TIME: 0 days 0 hours 0 minutes 29 seconds 551 msec
