                         Program Version 4.2.1 -  RELEASE  -
|  1> ! wB97X-D3 SP def2-SVP
|  2> %pal
|  3> nprocs 16
|  4> end
|  5>
|  6> * xyz 0 1
|  7> S 	 -0.651619 	 -20.8898 	 63.6865
|  8> C 	 -0.357815 	 -21.2992 	 62.0314
|  9> C 	 -1.4287 	 -21.0267 	 61.1942
| 10> C 	 -2.49478 	 -20.4793 	 61.9693
| 11> C 	 -2.25357 	 -20.3891 	 63.3379
| 12> H 	 -3.42237 	 -20.2163 	 61.5667
| 13> C 	 -1.33204 	 -21.148 	 59.7014
| 14> H 	 -0.280153 	 -21.1382 	 59.3345
| 15> H 	 -1.862 	 -20.2611 	 59.4202
| 16> C 	 -2.01286 	 -22.3056 	 58.9651
| 17> H 	 -2.0866 	 -22.0516 	 57.9044
| 18> H 	 -1.4081 	 -23.2804 	 59.043
| 19> C 	 -3.36352 	 -22.6429 	 59.4661
| 20> H 	 -4.07589 	 -21.8639 	 59.1226
| 21> H 	 -3.72223 	 -23.5606 	 58.9922
| 22> H 	 -3.4118 	 -22.9116 	 60.5125
| 23> S 	 -3.42619 	 -21.0255 	 65.6919
| 24> C 	 -4.72851 	 -20.0366 	 66.3011
| 25> C 	 -4.96686 	 -18.9321 	 65.4938
| 26> C 	 -3.95628 	 -18.7698 	 64.4914
| 27> C 	 -3.18817 	 -19.9379 	 64.3504
| 28> H 	 -5.70214 	 -18.08 	 65.756
| 29> C 	 -4.00948 	 -17.5904 	 63.519
| 30> H 	 -5.00608 	 -17.6399 	 63.0278
| 31> H 	 -3.3063 	 -17.8002 	 62.8352
| 32> C 	 -3.67188 	 -16.2632 	 64.3062
| 33> H 	 -2.62444 	 -16.2284 	 64.6359
| 34> H 	 -4.23893 	 -16.2022 	 65.2026
| 35> C 	 -3.89622 	 -14.9801 	 63.524
| 36> H 	 -4.85226 	 -15.0984 	 63.1132
| 37> H 	 -3.18143 	 -14.8892 	 62.6462
| 38> H 	 -3.82546 	 -14.0588 	 64.1149
| 39> H 	 0.591931 	 -21.6347 	 61.72
| 40> H 	 -5.18325 	 -20.2479 	 67.2026
| 41> *
| 42>
| 43>                          ****END OF INPUT****

CARTESIAN COORDINATES (ANGSTROEM)
---------------------------------
  S     -0.651619  -20.889800   63.686500
  C     -0.357815  -21.299200   62.031400
  C     -1.428700  -21.026700   61.194200
  C     -2.494780  -20.479300   61.969300
  C     -2.253570  -20.389100   63.337900
  H     -3.422370  -20.216300   61.566700
  C     -1.332040  -21.148000   59.701400
  H     -0.280153  -21.138200   59.334500
  H     -1.862000  -20.261100   59.420200
  C     -2.012860  -22.305600   58.965100
  H     -2.086600  -22.051600   57.904400
  H     -1.408100  -23.280400   59.043000
  C     -3.363520  -22.642900   59.466100
  H     -4.075890  -21.863900   59.122600
  H     -3.722230  -23.560600   58.992200
  H     -3.411800  -22.911600   60.512500
  S     -3.426190  -21.025500   65.691900
  C     -4.728510  -20.036600   66.301100
  C     -4.966860  -18.932100   65.493800
  C     -3.956280  -18.769800   64.491400
  C     -3.188170  -19.937900   64.350400
  H     -5.702140  -18.080000   65.756000
  C     -4.009480  -17.590400   63.519000
  H     -5.006080  -17.639900   63.027800
  H     -3.306300  -17.800200   62.835200
  C     -3.671880  -16.263200   64.306200
  H     -2.624440  -16.228400   64.635900
  H     -4.238930  -16.202200   65.202600
  C     -3.896220  -14.980100   63.524000
  H     -4.852260  -15.098400   63.113200
  H     -3.181430  -14.889200   62.646200
  H     -3.825460  -14.058800   64.114900
  H      0.591931  -21.634700   61.720000
  H     -5.183250  -20.247900   67.202600

 Total Charge           Charge          ....    0
 Multiplicity           Mult            ....    1
 Number of Electrons    NEL             ....  134
 Basis Dimension        Dim             ....  322

ORBITAL ENERGIES
----------------

  NO   OCC          E(Eh)            E(eV)
   0   2.0000     -88.965594     -2420.8769
   1   2.0000     -88.964115     -2420.8366
   2   2.0000     -10.325746      -280.9778
   3   2.0000     -10.325254      -280.9644
   4   2.0000     -10.313359      -280.6408
   5   2.0000     -10.308226      -280.5011
   6   2.0000     -10.303672      -280.3772
   7   2.0000     -10.300539      -280.2919
   8   2.0000     -10.300402      -280.2882
   9   2.0000     -10.292672      -280.0779
  10   2.0000     -10.290741      -280.0253
  11   2.0000     -10.289108      -279.9809
  12   2.0000     -10.288252      -279.9576
  13   2.0000     -10.284755      -279.8624
  14   2.0000     -10.275268      -279.6043
  15   2.0000     -10.272250      -279.5221
  16   2.0000      -8.081397      -219.9060
  17   2.0000      -8.079296      -219.8488
  18   2.0000      -6.039673      -164.3479
  19   2.0000      -6.037689      -164.2939
  20   2.0000      -6.035690      -164.2395
  21   2.0000      -6.033735      -164.1863
  22   2.0000      -6.032419      -164.1505
  23   2.0000      -6.030163      -164.0891
  24   2.0000      -1.009834       -27.4790
  25   2.0000      -0.985705       -26.8224
  26   2.0000      -0.918010       -24.9803
  27   2.0000      -0.906850       -24.6767
  28   2.0000      -0.870744       -23.6942
  29   2.0000      -0.854034       -23.2394
  30   2.0000      -0.848252       -23.0821
  31   2.0000      -0.815175       -22.1820
  32   2.0000      -0.785810       -21.3830
  33   2.0000      -0.771953       -21.0059
  34   2.0000      -0.702921       -19.1275
  35   2.0000      -0.699944       -19.0464
  36   2.0000      -0.695791       -18.9334
  37   2.0000      -0.658867       -17.9287
  38   2.0000      -0.644700       -17.5432
  39   2.0000      -0.615537       -16.7496
  40   2.0000      -0.596770       -16.2389
  41   2.0000      -0.575233       -15.6529
  42   2.0000      -0.562549       -15.3077
  43   2.0000      -0.549816       -14.9613
  44   2.0000      -0.545202       -14.8357
  45   2.0000      -0.529588       -14.4108
  46   2.0000      -0.519732       -14.1426
  47   2.0000      -0.514783       -14.0080
  48   2.0000      -0.509982       -13.8773
  49   2.0000      -0.499746       -13.5988
  50   2.0000      -0.490535       -13.3481
  51   2.0000      -0.479524       -13.0485
  52   2.0000      -0.470858       -12.8127
  53   2.0000      -0.462442       -12.5837
  54   2.0000      -0.458031       -12.4637
  55   2.0000      -0.450355       -12.2548
  56   2.0000      -0.445086       -12.1114
  57   2.0000      -0.434455       -11.8221
  58   2.0000      -0.433334       -11.7916
  59   2.0000      -0.424332       -11.5467
  60   2.0000      -0.421930       -11.4813
  61   2.0000      -0.417800       -11.3689
  62   2.0000      -0.410076       -11.1587
  63   2.0000      -0.342608        -9.3228
  64   2.0000      -0.331060        -9.0086
  65   2.0000      -0.329315        -8.9611
  66   2.0000      -0.291780        -7.9397
  67   0.0000       0.033664         0.9160
  68   0.0000       0.070121         1.9081
  69   0.0000       0.111731         3.0404
  70   0.0000       0.116764         3.1773
  71   0.0000       0.128870         3.5067

MULLIKEN ATOMIC CHARGES
-----------------------
   0 S :    0.123751
   1 C :   -0.117969
   2 C :   -0.087792
   3 C :    0.053108
   4 C :   -0.162334
   5 H :   -0.017983
   6 C :    0.095249
   7 H :    0.035847
   8 H :    0.017103
   9 C :   -0.089770
  10 H :    0.033396
  11 H :    0.033908
  12 C :   -0.060505
  13 H :    0.030457
  14 H :    0.022940
  15 H :    0.049485
  16 S :    0.106978
  17 C :   -0.065297
  18 C :   -0.047264
  19 C :   -0.081929
  20 C :   -0.163299
  21 H :    0.054215
  22 C :    0.130227
  23 H :    0.044945
  24 H :   -0.012497
  25 C :   -0.092506
  26 H :    0.034735
  27 H :    0.017919
  28 C :   -0.030887
  29 H :    0.011317
  30 H :    0.033478
  31 H :    0.041675
  32 H :    0.027505
  33 H :    0.031793
Sum of atomic charges:    0.0000000

LOEWDIN ATOMIC CHARGES
----------------------
   0 S :    0.429888
   1 C :   -0.191462
   2 C :   -0.063621
   3 C :   -0.054932
   4 C :   -0.213687
   5 H :    0.018317
   6 C :   -0.032700
   7 H :    0.038727
   8 H :    0.031232
   9 C :   -0.048077
  10 H :    0.026942
  11 H :    0.028728
  12 C :   -0.073543
  13 H :    0.026173
  14 H :    0.027648
  15 H :    0.028426
  16 S :    0.411953
  17 C :   -0.173077
  18 C :   -0.079424
  19 C :   -0.052782
  20 C :   -0.205869
  21 H :    0.045556
  22 C :   -0.015803
  23 H :    0.039043
  24 H :    0.010332
  25 C :   -0.035666
  26 H :    0.029841
  27 H :    0.015953
  28 C :   -0.066611
  29 H :    0.013885
  30 H :    0.029734
  31 H :    0.028465
  32 H :    0.015068
  33 H :    0.011340

  Mayer bond orders larger than 0.100000
B(  0-S ,  1-C ) :   1.1568 B(  0-S ,  4-C ) :   1.1714 B(  1-C ,  2-C ) :   1.5792
B(  1-C , 32-H ) :   0.9757 B(  2-C ,  3-C ) :   1.2591 B(  2-C ,  6-C ) :   1.0099
B(  3-C ,  4-C ) :   1.5441 B(  3-C ,  5-H ) :   1.0051 B(  4-C , 20-C ) :   1.0368
B(  6-C ,  7-H ) :   0.9447 B(  6-C ,  8-H ) :   0.9297 B(  6-C ,  9-C ) :   1.0733
B(  9-C , 10-H ) :   0.9530 B(  9-C , 11-H ) :   0.9526 B(  9-C , 12-C ) :   1.1064
B( 12-C , 13-H ) :   0.9730 B( 12-C , 14-H ) :   0.9676 B( 12-C , 15-H ) :   0.9641
B( 16-S , 17-C ) :   1.1602 B( 16-S , 20-C ) :   1.1498 B( 17-C , 18-C ) :   1.5965
B( 17-C , 20-C ) :   0.1043 B( 17-C , 33-H ) :   0.9802 B( 18-C , 19-C ) :   1.2469
B( 18-C , 21-H ) :   0.9674 B( 19-C , 20-C ) :   1.5767 B( 19-C , 22-C ) :   1.0457
B( 22-C , 23-H ) :   0.9428 B( 22-C , 24-H ) :   0.9217 B( 22-C , 25-C ) :   1.0465
B( 25-C , 26-H ) :   0.9531 B( 25-C , 27-H ) :   0.9644 B( 25-C , 28-C ) :   1.0856
B( 28-C , 29-H ) :   0.9739 B( 28-C , 30-H ) :   0.9735 B( 28-C , 31-H ) :   0.9737

Dispersion correction           -0.013914502
FINAL SINGLE POINT ENERGY     -1339.871655966910

DIPOLE MOMENT
-------------
                                X             Y             Z
Electronic contribution:      7.40523     -11.68456      19.75469
Nuclear contribution   :     -7.60245      11.96604     -20.21060
                        -----------------------------------------
Total Dipole Moment    :     -0.19722       0.28147      -0.45592
                        -----------------------------------------
Magnitude (a.u.)       :      0.57095
Magnitude (Debye)      :      1.45124

Rotational constants in cm-1:     0.017788     0.008162     0.006964
Rotational constants in MHz :   533.272929   244.693407   208.781826

                             ****ORCA TERMINATED NORMALLY****
TOTAL RUN TIME: 0 days 0 hours 0 minutes 33 seconds 838 msec
