                         Program Version 4.2.1 -  RELEASE  -
|  1> ! wB97X-D3 SP def2-SVP
|  2> %pal
|  3> nprocs 16
|  4> end
|  5>
|  6> * xyz 0 1
|  7> S 	 -41.7416 	 35.5331 	 82.3753
|  8> C 	 -41.8149 	 36.9203 	 81.3628
|  9> C 	 -42.3876 	 36.6298 	 80.1303
| 10> C 	 -42.6126 	 35.21 	 79.9596
| 11> C 	 -42.1495 	 34.4658 	 81.0575
| 12> H 	 -42.978 	 34.7137 	 79.0983
| 13> C 	 -42.6997 	 37.7586 	 79.1078
| 14> H 	 -42.8652 	 38.7043 	 79.6123
| 15> H 	 -43.5719 	 37.3968 	 78.5767
| 16> C 	 -41.5503 	 37.875 	 78.115
| 17> H 	 -40.6574 	 38.0996 	 78.6443
| 18> H 	 -41.4294 	 36.9172 	 77.5863
| 19> C 	 -41.8686 	 38.9725 	 77.0183
| 20> H 	 -41.3855 	 38.8503 	 76.1178
| 21> H 	 -42.9137 	 38.9084 	 76.6887
| 22> H 	 -41.6904 	 39.9897 	 77.3331
| 23> S 	 -43.9052 	 32.3873 	 81.8656
| 24> C 	 -43.5472 	 30.7687 	 81.3759
| 25> C 	 -42.2314 	 30.6729 	 80.9024
| 26> C 	 -41.5869 	 31.9537 	 80.688
| 27> C 	 -42.3536 	 33.032 	 81.1602
| 28> H 	 -41.7407 	 29.7472 	 80.8346
| 29> C 	 -40.2175 	 32.0616 	 80.0243
| 30> H 	 -40.0974 	 33.0349 	 79.5621
| 31> H 	 -40.193 	 31.4371 	 79.1635
| 32> C 	 -39.0712 	 31.7689 	 80.9507
| 33> H 	 -39.0823 	 30.7566 	 81.3161
| 34> H 	 -39.2611 	 32.3781 	 81.8514
| 35> C 	 -37.7887 	 32.1361 	 80.2707
| 36> H 	 -36.9386 	 32.2164 	 81.0007
| 37> H 	 -37.8574 	 33.1659 	 79.8155
| 38> H 	 -37.4455 	 31.545 	 79.348
| 39> H 	 -41.7028 	 37.8731 	 81.8493
| 40> H 	 -44.1241 	 29.9302 	 81.6648
| 41> *
| 42>
| 43>                          ****END OF INPUT****

CARTESIAN COORDINATES (ANGSTROEM)
---------------------------------
  S    -41.741600   35.533100   82.375300
  C    -41.814900   36.920300   81.362800
  C    -42.387600   36.629800   80.130300
  C    -42.612600   35.210000   79.959600
  C    -42.149500   34.465800   81.057500
  H    -42.978000   34.713700   79.098300
  C    -42.699700   37.758600   79.107800
  H    -42.865200   38.704300   79.612300
  H    -43.571900   37.396800   78.576700
  C    -41.550300   37.875000   78.115000
  H    -40.657400   38.099600   78.644300
  H    -41.429400   36.917200   77.586300
  C    -41.868600   38.972500   77.018300
  H    -41.385500   38.850300   76.117800
  H    -42.913700   38.908400   76.688700
  H    -41.690400   39.989700   77.333100
  S    -43.905200   32.387300   81.865600
  C    -43.547200   30.768700   81.375900
  C    -42.231400   30.672900   80.902400
  C    -41.586900   31.953700   80.688000
  C    -42.353600   33.032000   81.160200
  H    -41.740700   29.747200   80.834600
  C    -40.217500   32.061600   80.024300
  H    -40.097400   33.034900   79.562100
  H    -40.193000   31.437100   79.163500
  C    -39.071200   31.768900   80.950700
  H    -39.082300   30.756600   81.316100
  H    -39.261100   32.378100   81.851400
  C    -37.788700   32.136100   80.270700
  H    -36.938600   32.216400   81.000700
  H    -37.857400   33.165900   79.815500
  H    -37.445500   31.545000   79.348000
  H    -41.702800   37.873100   81.849300
  H    -44.124100   29.930200   81.664800

 Total Charge           Charge          ....    0
 Multiplicity           Mult            ....    1
 Number of Electrons    NEL             ....  134
 Basis Dimension        Dim             ....  322

ORBITAL ENERGIES
----------------

  NO   OCC          E(Eh)            E(eV)
   0   2.0000     -88.965648     -2420.8784
   1   2.0000     -88.962510     -2420.7930
   2   2.0000     -10.329778      -281.0875
   3   2.0000     -10.328740      -281.0593
   4   2.0000     -10.317117      -280.7430
   5   2.0000     -10.312373      -280.6139
   6   2.0000     -10.307016      -280.4682
   7   2.0000     -10.306460      -280.4530
   8   2.0000     -10.298755      -280.2434
   9   2.0000     -10.293398      -280.0976
  10   2.0000     -10.292472      -280.0724
  11   2.0000     -10.287229      -279.9297
  12   2.0000     -10.286135      -279.9000
  13   2.0000     -10.283047      -279.8159
  14   2.0000     -10.281637      -279.7776
  15   2.0000     -10.272535      -279.5299
  16   2.0000      -8.081106      -219.8981
  17   2.0000      -8.076650      -219.7768
  18   2.0000      -6.039430      -164.3413
  19   2.0000      -6.035503      -164.2344
  20   2.0000      -6.035218      -164.2266
  21   2.0000      -6.032036      -164.1400
  22   2.0000      -6.031219      -164.1178
  23   2.0000      -6.027397      -164.0138
  24   2.0000      -1.001837       -27.2614
  25   2.0000      -0.978129       -26.6162
  26   2.0000      -0.914814       -24.8933
  27   2.0000      -0.909373       -24.7453
  28   2.0000      -0.868055       -23.6210
  29   2.0000      -0.845966       -23.0199
  30   2.0000      -0.844785       -22.9878
  31   2.0000      -0.809159       -22.0183
  32   2.0000      -0.781244       -21.2587
  33   2.0000      -0.768381       -20.9087
  34   2.0000      -0.705623       -19.2010
  35   2.0000      -0.700361       -19.0578
  36   2.0000      -0.696032       -18.9400
  37   2.0000      -0.658805       -17.9270
  38   2.0000      -0.652482       -17.7549
  39   2.0000      -0.614560       -16.7230
  40   2.0000      -0.597804       -16.2671
  41   2.0000      -0.572305       -15.5732
  42   2.0000      -0.565573       -15.3900
  43   2.0000      -0.557665       -15.1748
  44   2.0000      -0.524591       -14.2748
  45   2.0000      -0.517116       -14.0715
  46   2.0000      -0.515792       -14.0354
  47   2.0000      -0.511367       -13.9150
  48   2.0000      -0.505710       -13.7611
  49   2.0000      -0.501216       -13.6388
  50   2.0000      -0.495757       -13.4902
  51   2.0000      -0.476431       -12.9644
  52   2.0000      -0.474174       -12.9029
  53   2.0000      -0.460741       -12.5374
  54   2.0000      -0.457643       -12.4531
  55   2.0000      -0.447003       -12.1636
  56   2.0000      -0.443704       -12.0738
  57   2.0000      -0.437075       -11.8934
  58   2.0000      -0.434112       -11.8128
  59   2.0000      -0.432345       -11.7647
  60   2.0000      -0.417059       -11.3487
  61   2.0000      -0.415702       -11.3118
  62   2.0000      -0.411865       -11.2074
  63   2.0000      -0.334632        -9.1058
  64   2.0000      -0.325172        -8.8484
  65   2.0000      -0.320142        -8.7115
  66   2.0000      -0.308240        -8.3876
  67   0.0000       0.040348         1.0979
  68   0.0000       0.047583         1.2948
  69   0.0000       0.113102         3.0777
  70   0.0000       0.119340         3.2474
  71   0.0000       0.128424         3.4946

MULLIKEN ATOMIC CHARGES
-----------------------
   0 S :    0.114993
   1 C :   -0.120304
   2 C :   -0.101133
   3 C :    0.055681
   4 C :   -0.180596
   5 H :    0.007497
   6 C :    0.088615
   7 H :    0.027256
   8 H :    0.022760
   9 C :   -0.069967
  10 H :    0.025384
  11 H :    0.029855
  12 C :   -0.017575
  13 H :    0.012260
  14 H :    0.017252
  15 H :    0.030122
  16 S :    0.100886
  17 C :   -0.078227
  18 C :   -0.018685
  19 C :   -0.040690
  20 C :   -0.175388
  21 H :    0.005960
  22 C :    0.082387
  23 H :    0.014179
  24 H :    0.011145
  25 C :   -0.036433
  26 H :    0.024764
  27 H :    0.032766
  28 C :   -0.084001
  29 H :    0.042124
  30 H :    0.028069
  31 H :    0.042607
  32 H :    0.052901
  33 H :    0.053538
Sum of atomic charges:   -0.0000000

LOEWDIN ATOMIC CHARGES
----------------------
   0 S :    0.424503
   1 C :   -0.206322
   2 C :   -0.058320
   3 C :   -0.045786
   4 C :   -0.209905
   5 H :    0.027668
   6 C :   -0.022766
   7 H :    0.028701
   8 H :    0.029278
   9 C :   -0.031055
  10 H :    0.018954
  11 H :    0.026649
  12 C :   -0.064997
  13 H :    0.014292
  14 H :    0.026819
  15 H :    0.023482
  16 S :    0.384668
  17 C :   -0.182167
  18 C :   -0.068795
  19 C :   -0.042907
  20 C :   -0.189540
  21 H :    0.021686
  22 C :   -0.029810
  23 H :    0.029357
  24 H :    0.024497
  25 C :   -0.042424
  26 H :    0.022225
  27 H :    0.032367
  28 C :   -0.080190
  29 H :    0.029813
  30 H :    0.029160
  31 H :    0.032965
  32 H :    0.024387
  33 H :    0.023511

  Mayer bond orders larger than 0.100000
B(  0-S ,  1-C ) :   1.1622 B(  0-S ,  4-C ) :   1.1647 B(  1-C ,  2-C ) :   1.5793
B(  1-C , 32-H ) :   0.9719 B(  2-C ,  3-C ) :   1.2577 B(  2-C ,  6-C ) :   1.0203
B(  3-C ,  4-C ) :   1.5498 B(  3-C ,  5-H ) :   1.0007 B(  4-C , 20-C ) :   1.0424
B(  6-C ,  7-H ) :   0.9472 B(  6-C ,  8-H ) :   0.9351 B(  6-C ,  9-C ) :   1.0710
B(  9-C , 10-H ) :   0.9599 B(  9-C , 11-H ) :   0.9591 B(  9-C , 12-C ) :   1.0694
B( 12-C , 13-H ) :   0.9761 B( 12-C , 14-H ) :   0.9731 B( 12-C , 15-H ) :   0.9778
B( 16-S , 17-C ) :   1.1678 B( 16-S , 20-C ) :   1.1194 B( 17-C , 18-C ) :   1.6005
B( 17-C , 33-H ) :   0.9684 B( 18-C , 19-C ) :   1.2394 B( 18-C , 21-H ) :   0.9935
B( 19-C , 20-C ) :   1.6100 B( 19-C , 22-C ) :   1.0446 B( 22-C , 23-H ) :   0.9312
B( 22-C , 24-H ) :   0.9297 B( 22-C , 25-C ) :   1.0653 B( 25-C , 26-H ) :   0.9511
B( 25-C , 27-H ) :   0.9488 B( 25-C , 28-C ) :   1.0852 B( 28-C , 29-H ) :   0.9729
B( 28-C , 30-H ) :   0.9705 B( 28-C , 31-H ) :   0.9716

Dispersion correction           -0.013826167
FINAL SINGLE POINT ENERGY     -1339.876297083135

DIPOLE MOMENT
-------------
                                X             Y             Z
Electronic contribution:    -15.92034      -8.55826      19.19028
Nuclear contribution   :     16.12134       8.65672     -19.62330
                        -----------------------------------------
Total Dipole Moment    :      0.20100       0.09846      -0.43302
                        -----------------------------------------
Magnitude (a.u.)       :      0.48744
Magnitude (Debye)      :      1.23898

Rotational constants in cm-1:     0.017783     0.007812     0.006640
Rotational constants in MHz :   533.110130   234.209123   199.069982

                             ****ORCA TERMINATED NORMALLY****
TOTAL RUN TIME: 0 days 0 hours 0 minutes 29 seconds 594 msec
