                         Program Version 4.2.1 -  RELEASE  -
|  1> ! wB97X-D3 SP def2-SVP
|  2> %pal
|  3> nprocs 16
|  4> end
|  5>
|  6> * xyz 0 1
|  7> S 	 -29.6341 	 29.0484 	 40.0405
|  8> C 	 -28.4991 	 29.7411 	 38.8752
|  9> C 	 -27.5083 	 30.3864 	 39.5535
| 10> C 	 -27.8277 	 30.4456 	 40.9486
| 11> C 	 -28.9452 	 29.8155 	 41.3918
| 12> H 	 -27.0752 	 30.9016 	 41.717
| 13> C 	 -26.3947 	 31.1893 	 38.9116
| 14> H 	 -25.8376 	 31.5289 	 39.7585
| 15> H 	 -26.7999 	 31.9502 	 38.2569
| 16> C 	 -25.3619 	 30.452 	 38.0657
| 17> H 	 -25.7811 	 29.7807 	 37.327
| 18> H 	 -24.7499 	 31.2266 	 37.6047
| 19> C 	 -24.2937 	 29.6252 	 38.8403
| 20> H 	 -24.6551 	 28.7254 	 39.3521
| 21> H 	 -23.5303 	 29.256 	 38.1721
| 22> H 	 -23.7995 	 30.1652 	 39.5969
| 23> S 	 -29.7968 	 28.0638 	 43.335
| 24> C 	 -30.1776 	 28.7674 	 44.8975
| 25> C 	 -30.0175 	 30.0815 	 45.0119
| 26> C 	 -29.7214 	 30.6728 	 43.7243
| 27> C 	 -29.5144 	 29.6881 	 42.7335
| 28> H 	 -30.3731 	 30.4427 	 45.9183
| 29> C 	 -29.4099 	 32.1614 	 43.6221
| 30> H 	 -30.3691 	 32.6678 	 43.4556
| 31> H 	 -28.7845 	 32.4701 	 42.7335
| 32> C 	 -28.7151 	 32.8953 	 44.8575
| 33> H 	 -29.4039 	 33.05 	 45.6481
| 34> H 	 -28.4515 	 33.9401 	 44.6324
| 35> C 	 -27.3978 	 32.3233 	 45.3014
| 36> H 	 -26.6441 	 32.0621 	 44.5057
| 37> H 	 -27.5417 	 31.478 	 45.9396
| 38> H 	 -26.7791 	 33.0392 	 45.7867
| 39> H 	 -28.3776 	 29.6717 	 37.7624
| 40> H 	 -30.5953 	 28.1496 	 45.6988
| 41> *
| 42>
| 43>                          ****END OF INPUT****

CARTESIAN COORDINATES (ANGSTROEM)
---------------------------------
  S    -29.634100   29.048400   40.040500
  C    -28.499100   29.741100   38.875200
  C    -27.508300   30.386400   39.553500
  C    -27.827700   30.445600   40.948600
  C    -28.945200   29.815500   41.391800
  H    -27.075200   30.901600   41.717000
  C    -26.394700   31.189300   38.911600
  H    -25.837600   31.528900   39.758500
  H    -26.799900   31.950200   38.256900
  C    -25.361900   30.452000   38.065700
  H    -25.781100   29.780700   37.327000
  H    -24.749900   31.226600   37.604700
  C    -24.293700   29.625200   38.840300
  H    -24.655100   28.725400   39.352100
  H    -23.530300   29.256000   38.172100
  H    -23.799500   30.165200   39.596900
  S    -29.796800   28.063800   43.335000
  C    -30.177600   28.767400   44.897500
  C    -30.017500   30.081500   45.011900
  C    -29.721400   30.672800   43.724300
  C    -29.514400   29.688100   42.733500
  H    -30.373100   30.442700   45.918300
  C    -29.409900   32.161400   43.622100
  H    -30.369100   32.667800   43.455600
  H    -28.784500   32.470100   42.733500
  C    -28.715100   32.895300   44.857500
  H    -29.403900   33.050000   45.648100
  H    -28.451500   33.940100   44.632400
  C    -27.397800   32.323300   45.301400
  H    -26.644100   32.062100   44.505700
  H    -27.541700   31.478000   45.939600
  H    -26.779100   33.039200   45.786700
  H    -28.377600   29.671700   37.762400
  H    -30.595300   28.149600   45.698800

 Total Charge           Charge          ....    0
 Multiplicity           Mult            ....    1
 Number of Electrons    NEL             ....  134
 Basis Dimension        Dim             ....  322

ORBITAL ENERGIES
----------------

  NO   OCC          E(Eh)            E(eV)
   0   2.0000     -88.966573     -2420.9035
   1   2.0000     -88.963134     -2420.8100
   2   2.0000     -10.332224      -281.1541
   3   2.0000     -10.324304      -280.9386
   4   2.0000     -10.314687      -280.6769
   5   2.0000     -10.314150      -280.6623
   6   2.0000     -10.314017      -280.6587
   7   2.0000     -10.298523      -280.2371
   8   2.0000     -10.295248      -280.1479
   9   2.0000     -10.295003      -280.1413
  10   2.0000     -10.290234      -280.0115
  11   2.0000     -10.288186      -279.9558
  12   2.0000     -10.287939      -279.9491
  13   2.0000     -10.287860      -279.9469
  14   2.0000     -10.272250      -279.5221
  15   2.0000     -10.270881      -279.4849
  16   2.0000      -8.081497      -219.9087
  17   2.0000      -8.078499      -219.8271
  18   2.0000      -6.039947      -164.3553
  19   2.0000      -6.037130      -164.2786
  20   2.0000      -6.036180      -164.2528
  21   2.0000      -6.032812      -164.1612
  22   2.0000      -6.032109      -164.1420
  23   2.0000      -6.029154      -164.0616
  24   2.0000      -1.011864       -27.5342
  25   2.0000      -0.989059       -26.9137
  26   2.0000      -0.915391       -24.9091
  27   2.0000      -0.902050       -24.5460
  28   2.0000      -0.874289       -23.7906
  29   2.0000      -0.851164       -23.1613
  30   2.0000      -0.842778       -22.9332
  31   2.0000      -0.818006       -22.2591
  32   2.0000      -0.788029       -21.4434
  33   2.0000      -0.774903       -21.0862
  34   2.0000      -0.710377       -19.3303
  35   2.0000      -0.705606       -19.2005
  36   2.0000      -0.693074       -18.8595
  37   2.0000      -0.656918       -17.8757
  38   2.0000      -0.629299       -17.1241
  39   2.0000      -0.615223       -16.7411
  40   2.0000      -0.594838       -16.1864
  41   2.0000      -0.579684       -15.7740
  42   2.0000      -0.557523       -15.1710
  43   2.0000      -0.548405       -14.9229
  44   2.0000      -0.547438       -14.8966
  45   2.0000      -0.541864       -14.7449
  46   2.0000      -0.516451       -14.0533
  47   2.0000      -0.507966       -13.8225
  48   2.0000      -0.504532       -13.7290
  49   2.0000      -0.495563       -13.4850
  50   2.0000      -0.488691       -13.2979
  51   2.0000      -0.474515       -12.9122
  52   2.0000      -0.469010       -12.7624
  53   2.0000      -0.463967       -12.6252
  54   2.0000      -0.459287       -12.4978
  55   2.0000      -0.447879       -12.1874
  56   2.0000      -0.443329       -12.0636
  57   2.0000      -0.438464       -11.9312
  58   2.0000      -0.433872       -11.8062
  59   2.0000      -0.424474       -11.5505
  60   2.0000      -0.419767       -11.4224
  61   2.0000      -0.410717       -11.1762
  62   2.0000      -0.406979       -11.0745
  63   2.0000      -0.352128        -9.5819
  64   2.0000      -0.331422        -9.0184
  65   2.0000      -0.327479        -8.9112
  66   2.0000      -0.296197        -8.0599
  67   0.0000       0.033188         0.9031
  68   0.0000       0.072407         1.9703
  69   0.0000       0.107105         2.9145
  70   0.0000       0.117473         3.1966
  71   0.0000       0.131981         3.5914

MULLIKEN ATOMIC CHARGES
-----------------------
   0 S :    0.105286
   1 C :   -0.125722
   2 C :   -0.112294
   3 C :   -0.014378
   4 C :   -0.139638
   5 H :    0.039747
   6 C :    0.095699
   7 H :    0.007204
   8 H :    0.047620
   9 C :   -0.077718
  10 H :    0.029910
  11 H :    0.030804
  12 C :   -0.058922
  13 H :    0.034130
  14 H :    0.028686
  15 H :    0.013492
  16 S :    0.108942
  17 C :   -0.101719
  18 C :    0.000408
  19 C :   -0.008406
  20 C :   -0.146822
  21 H :    0.002524
  22 C :    0.037833
  23 H :    0.038418
  24 H :    0.040088
  25 C :   -0.072201
  26 H :    0.017799
  27 H :    0.024294
  28 C :   -0.038822
  29 H :    0.027075
  30 H :    0.033993
  31 H :    0.015983
  32 H :    0.059232
  33 H :    0.057476
Sum of atomic charges:    0.0000000

LOEWDIN ATOMIC CHARGES
----------------------
   0 S :    0.419336
   1 C :   -0.200731
   2 C :   -0.075794
   3 C :   -0.081718
   4 C :   -0.215873
   5 H :    0.040123
   6 C :   -0.027117
   7 H :    0.028734
   8 H :    0.038142
   9 C :   -0.036666
  10 H :    0.020653
  11 H :    0.028150
  12 C :   -0.067664
  13 H :    0.026216
  14 H :    0.025989
  15 H :    0.014551
  16 S :    0.395642
  17 C :   -0.168327
  18 C :   -0.069605
  19 C :   -0.044278
  20 C :   -0.195873
  21 H :    0.028278
  22 C :   -0.037267
  23 H :    0.036426
  24 H :    0.036720
  25 C :   -0.044179
  26 H :    0.016769
  27 H :    0.030916
  28 C :   -0.071212
  29 H :    0.032958
  30 H :    0.020860
  31 H :    0.022440
  32 H :    0.043735
  33 H :    0.029668

  Mayer bond orders larger than 0.100000
B(  0-S ,  1-C ) :   1.1373 B(  0-S ,  4-C ) :   1.1526 B(  1-C ,  2-C ) :   1.6166
B(  1-C , 32-H ) :   0.9600 B(  2-C ,  3-C ) :   1.2633 B(  2-C ,  6-C ) :   1.0132
B(  3-C ,  4-C ) :   1.5935 B(  3-C ,  5-H ) :   0.9697 B(  4-C , 20-C ) :   1.0139
B(  6-C ,  7-H ) :   0.9364 B(  6-C ,  8-H ) :   0.9433 B(  6-C ,  9-C ) :   1.0764
B(  9-C , 10-H ) :   0.9589 B(  9-C , 11-H ) :   0.9550 B(  9-C , 12-C ) :   1.0786
B( 12-C , 13-H ) :   0.9767 B( 12-C , 14-H ) :   0.9753 B( 12-C , 15-H ) :   0.9742
B( 16-S , 17-C ) :   1.1386 B( 16-S , 20-C ) :   1.1392 B( 17-C , 18-C ) :   1.6797
B( 17-C , 33-H ) :   0.9576 B( 18-C , 19-C ) :   1.1897 B( 18-C , 21-H ) :   0.9903
B( 19-C , 20-C ) :   1.6195 B( 19-C , 22-C ) :   1.0333 B( 22-C , 23-H ) :   0.9267
B( 22-C , 24-H ) :   0.9470 B( 22-C , 25-C ) :   1.0759 B( 25-C , 26-H ) :   0.9491
B( 25-C , 27-H ) :   0.9578 B( 25-C , 28-C ) :   1.0802 B( 28-C , 29-H ) :   0.9697
B( 28-C , 30-H ) :   0.9745 B( 28-C , 31-H ) :   0.9719

Dispersion correction           -0.014156187
FINAL SINGLE POINT ENERGY     -1339.854745582026

DIPOLE MOMENT
-------------
                                X             Y             Z
Electronic contribution:    -21.10843     -16.94229      -0.32583
Nuclear contribution   :     21.51084      17.49939       0.52756
                        -----------------------------------------
Total Dipole Moment    :      0.40241       0.55710       0.20172
                        -----------------------------------------
Magnitude (a.u.)       :      0.71623
Magnitude (Debye)      :      1.82051

Rotational constants in cm-1:     0.019336     0.008217     0.006652
Rotational constants in MHz :   579.679367   246.342991   199.420180

                             ****ORCA TERMINATED NORMALLY****
TOTAL RUN TIME: 0 days 0 hours 0 minutes 33 seconds 507 msec
