                         Program Version 4.2.1 -  RELEASE  -
|  1> ! wB97X-D3 SP def2-SVP
|  2> %pal
|  3> nprocs 16
|  4> end
|  5>
|  6> * xyz 0 1
|  7> S 	 -26.245 	 -7.39393 	 88.6002
|  8> C 	 -27.9667 	 -7.06251 	 88.3308
|  9> C 	 -28.1949 	 -5.69209 	 88.3795
| 10> C 	 -27.0344 	 -4.88464 	 88.6361
| 11> C 	 -25.9009 	 -5.59031 	 88.6938
| 12> H 	 -27.0257 	 -3.82833 	 88.6891
| 13> C 	 -29.4933 	 -5.07353 	 88.0026
| 14> H 	 -29.5165 	 -4.15844 	 88.5856
| 15> H 	 -30.3763 	 -5.65224 	 88.3511
| 16> C 	 -29.7306 	 -4.46504 	 86.5412
| 17> H 	 -29.3675 	 -5.21618 	 85.844
| 18> H 	 -30.7793 	 -4.4251 	 86.2723
| 19> C 	 -29.0481 	 -3.11357 	 86.2434
| 20> H 	 -28.0763 	 -2.89104 	 86.6212
| 21> H 	 -28.8761 	 -2.889 	 85.1808
| 22> H 	 -29.7223 	 -2.35281 	 86.5591
| 23> S 	 -23.392 	 -6.0517 	 89.8487
| 24> C 	 -22.2671 	 -4.68425 	 89.9363
| 25> C 	 -22.6548 	 -3.62349 	 89.1503
| 26> C 	 -23.9041 	 -3.82567 	 88.5078
| 27> C 	 -24.5314 	 -5.04966 	 88.8587
| 28> H 	 -22.0611 	 -2.65198 	 89.169
| 29> C 	 -24.4698 	 -2.74438 	 87.6486
| 30> H 	 -25.1129 	 -3.23052 	 86.8984
| 31> H 	 -23.5576 	 -2.54843 	 87.1346
| 32> C 	 -25.0327 	 -1.50834 	 88.339
| 33> H 	 -24.2781 	 -1.23981 	 89.0758
| 34> H 	 -26.0084 	 -1.69934 	 88.8026
| 35> C 	 -25.1932 	 -0.515022 	 87.2819
| 36> H 	 -25.6192 	 0.442591 	 87.6073
| 37> H 	 -25.8126 	 -0.935379 	 86.5484
| 38> H 	 -24.2434 	 -0.240095 	 86.7854
| 39> H 	 -28.73 	 -7.8037 	 88.0525
| 40> H 	 -21.3626 	 -4.67633 	 90.596
| 41> *
| 42>
| 43>                          ****END OF INPUT****

CARTESIAN COORDINATES (ANGSTROEM)
---------------------------------
  S    -26.245000   -7.393930   88.600200
  C    -27.966700   -7.062510   88.330800
  C    -28.194900   -5.692090   88.379500
  C    -27.034400   -4.884640   88.636100
  C    -25.900900   -5.590310   88.693800
  H    -27.025700   -3.828330   88.689100
  C    -29.493300   -5.073530   88.002600
  H    -29.516500   -4.158440   88.585600
  H    -30.376300   -5.652240   88.351100
  C    -29.730600   -4.465040   86.541200
  H    -29.367500   -5.216180   85.844000
  H    -30.779300   -4.425100   86.272300
  C    -29.048100   -3.113570   86.243400
  H    -28.076300   -2.891040   86.621200
  H    -28.876100   -2.889000   85.180800
  H    -29.722300   -2.352810   86.559100
  S    -23.392000   -6.051700   89.848700
  C    -22.267100   -4.684250   89.936300
  C    -22.654800   -3.623490   89.150300
  C    -23.904100   -3.825670   88.507800
  C    -24.531400   -5.049660   88.858700
  H    -22.061100   -2.651980   89.169000
  C    -24.469800   -2.744380   87.648600
  H    -25.112900   -3.230520   86.898400
  H    -23.557600   -2.548430   87.134600
  C    -25.032700   -1.508340   88.339000
  H    -24.278100   -1.239810   89.075800
  H    -26.008400   -1.699340   88.802600
  C    -25.193200   -0.515022   87.281900
  H    -25.619200    0.442591   87.607300
  H    -25.812600   -0.935379   86.548400
  H    -24.243400   -0.240095   86.785400
  H    -28.730000   -7.803700   88.052500
  H    -21.362600   -4.676330   90.596000

 Total Charge           Charge          ....    0
 Multiplicity           Mult            ....    1
 Number of Electrons    NEL             ....  134
 Basis Dimension        Dim             ....  322

ORBITAL ENERGIES
----------------

  NO   OCC          E(Eh)            E(eV)
   0   2.0000     -88.965467     -2420.8734
   1   2.0000     -88.965046     -2420.8620
   2   2.0000     -10.336614      -281.2736
   3   2.0000     -10.335991      -281.2566
   4   2.0000     -10.324951      -280.9562
   5   2.0000     -10.319121      -280.7975
   6   2.0000     -10.307388      -280.4783
   7   2.0000     -10.301625      -280.3215
   8   2.0000     -10.300379      -280.2876
   9   2.0000     -10.293434      -280.0986
  10   2.0000     -10.292675      -280.0779
  11   2.0000     -10.290742      -280.0253
  12   2.0000     -10.289464      -279.9906
  13   2.0000     -10.288672      -279.9690
  14   2.0000     -10.277704      -279.6706
  15   2.0000     -10.274408      -279.5808
  16   2.0000      -8.079087      -219.8431
  17   2.0000      -8.078228      -219.8198
  18   2.0000      -6.037697      -164.2941
  19   2.0000      -6.037076      -164.2772
  20   2.0000      -6.033810      -164.1883
  21   2.0000      -6.033134      -164.1699
  22   2.0000      -6.029745      -164.0777
  23   2.0000      -6.028534      -164.0448
  24   2.0000      -0.997949       -27.1556
  25   2.0000      -0.978189       -26.6179
  26   2.0000      -0.927162       -25.2294
  27   2.0000      -0.902475       -24.5576
  28   2.0000      -0.867207       -23.5979
  29   2.0000      -0.860903       -23.4264
  30   2.0000      -0.846335       -23.0299
  31   2.0000      -0.818587       -22.2749
  32   2.0000      -0.780760       -21.2455
  33   2.0000      -0.767153       -20.8753
  34   2.0000      -0.711592       -19.3634
  35   2.0000      -0.709424       -19.3044
  36   2.0000      -0.696057       -18.9407
  37   2.0000      -0.661551       -18.0017
  38   2.0000      -0.639890       -17.4123
  39   2.0000      -0.618821       -16.8390
  40   2.0000      -0.596519       -16.2321
  41   2.0000      -0.576956       -15.6998
  42   2.0000      -0.564897       -15.3716
  43   2.0000      -0.545428       -14.8418
  44   2.0000      -0.540087       -14.6965
  45   2.0000      -0.535896       -14.5825
  46   2.0000      -0.518271       -14.1029
  47   2.0000      -0.512395       -13.9430
  48   2.0000      -0.508784       -13.8447
  49   2.0000      -0.498096       -13.5539
  50   2.0000      -0.489289       -13.3142
  51   2.0000      -0.481226       -13.0948
  52   2.0000      -0.473325       -12.8798
  53   2.0000      -0.462788       -12.5931
  54   2.0000      -0.454662       -12.3720
  55   2.0000      -0.453195       -12.3321
  56   2.0000      -0.440704       -11.9922
  57   2.0000      -0.439616       -11.9626
  58   2.0000      -0.437035       -11.8923
  59   2.0000      -0.431709       -11.7474
  60   2.0000      -0.426996       -11.6191
  61   2.0000      -0.415182       -11.2977
  62   2.0000      -0.405863       -11.0441
  63   2.0000      -0.358332        -9.7507
  64   2.0000      -0.334289        -9.0965
  65   2.0000      -0.325303        -8.8519
  66   2.0000      -0.283806        -7.7228
  67   0.0000       0.021058         0.5730
  68   0.0000       0.068324         1.8592
  69   0.0000       0.093241         2.5372
  70   0.0000       0.115318         3.1380
  71   0.0000       0.122867         3.3434

MULLIKEN ATOMIC CHARGES
-----------------------
   0 S :    0.082625
   1 C :   -0.116789
   2 C :   -0.072840
   3 C :    0.027326
   4 C :   -0.085787
   5 H :   -0.024453
   6 C :    0.032673
   7 H :    0.013987
   8 H :    0.035371
   9 C :   -0.038686
  10 H :    0.023150
  11 H :    0.029320
  12 C :   -0.055061
  13 H :    0.017453
  14 H :    0.028391
  15 H :    0.027446
  16 S :    0.084785
  17 C :   -0.104434
  18 C :   -0.063597
  19 C :   -0.045406
  20 C :   -0.142992
  21 H :    0.048744
  22 C :    0.004275
  23 H :    0.031224
  24 H :    0.020049
  25 C :   -0.013700
  26 H :    0.023058
  27 H :    0.040645
  28 C :   -0.010673
  29 H :    0.029967
  30 H :    0.012383
  31 H :    0.024807
  32 H :    0.061506
  33 H :    0.075232
Sum of atomic charges:   -0.0000000

LOEWDIN ATOMIC CHARGES
----------------------
   0 S :    0.346937
   1 C :   -0.186991
   2 C :   -0.064372
   3 C :   -0.059474
   4 C :   -0.151848
   5 H :    0.025015
   6 C :   -0.040337
   7 H :    0.028225
   8 H :    0.035375
   9 C :   -0.035681
  10 H :    0.021076
  11 H :    0.027335
  12 C :   -0.072031
  13 H :    0.017932
  14 H :    0.032907
  15 H :    0.022993
  16 S :    0.367454
  17 C :   -0.176891
  18 C :   -0.088008
  19 C :   -0.055039
  20 C :   -0.176529
  21 H :    0.046096
  22 C :   -0.037962
  23 H :    0.032341
  24 H :    0.033465
  25 C :   -0.033511
  26 H :    0.026253
  27 H :    0.027119
  28 C :   -0.060063
  29 H :    0.024699
  30 H :    0.018399
  31 H :    0.027901
  32 H :    0.037688
  33 H :    0.039525

  Mayer bond orders larger than 0.100000
B(  0-S ,  1-C ) :   1.1084 B(  0-S ,  4-C ) :   1.1065 B(  1-C ,  2-C ) :   1.6407
B(  1-C , 32-H ) :   0.9665 B(  2-C ,  3-C ) :   1.1885 B(  2-C ,  6-C ) :   1.0501
B(  3-C ,  4-C ) :   1.6224 B(  3-C ,  5-H ) :   1.0011 B(  4-C , 20-C ) :   1.0583
B(  6-C ,  7-H ) :   0.9379 B(  6-C ,  8-H ) :   0.9438 B(  6-C ,  9-C ) :   1.0387
B(  9-C , 10-H ) :   0.9614 B(  9-C , 11-H ) :   0.9586 B(  9-C , 12-C ) :   1.0704
B( 12-C , 13-H ) :   0.9779 B( 12-C , 14-H ) :   0.9715 B( 12-C , 15-H ) :   0.9746
B( 16-S , 17-C ) :   1.1507 B( 16-S , 20-C ) :   1.1148 B( 17-C , 18-C ) :   1.6258
B( 17-C , 33-H ) :   0.9587 B( 18-C , 19-C ) :   1.2372 B( 18-C , 21-H ) :   0.9750
B( 19-C , 20-C ) :   1.5914 B( 19-C , 22-C ) :   1.0222 B( 22-C , 23-H ) :   0.9307
B( 22-C , 24-H ) :   0.9351 B( 22-C , 25-C ) :   1.0619 B( 25-C , 26-H ) :   0.9476
B( 25-C , 27-H ) :   0.9455 B( 25-C , 28-C ) :   1.0930 B( 28-C , 29-H ) :   0.9694
B( 28-C , 30-H ) :   0.9662 B( 28-C , 31-H ) :   0.9711

Dispersion correction           -0.015031666
FINAL SINGLE POINT ENERGY     -1339.861504837523

DIPOLE MOMENT
-------------
                                X             Y             Z
Electronic contribution:     14.66775     -26.44594      13.42562
Nuclear contribution   :    -14.91483      27.30021     -13.69606
                        -----------------------------------------
Total Dipole Moment    :     -0.24708       0.85428      -0.27044
                        -----------------------------------------
Magnitude (a.u.)       :      0.92950
Magnitude (Debye)      :      2.36261

Rotational constants in cm-1:     0.016050     0.010947     0.006765
Rotational constants in MHz :   481.153402   328.185091   202.813579

                             ****ORCA TERMINATED NORMALLY****
TOTAL RUN TIME: 0 days 0 hours 0 minutes 35 seconds 418 msec
