                         Program Version 4.2.1 -  RELEASE  -
|  1> ! wB97X-D3 SP def2-SVP
|  2> %pal
|  3> nprocs 16
|  4> end
|  5>
|  6> * xyz 0 1
|  7> S 	 -78.5721 	 45.6458 	 138.85
|  8> C 	 -78.2954 	 44.111 	 139.512
|  9> C 	 -77.4063 	 43.3741 	 138.728
| 10> C 	 -77.0531 	 44.0984 	 137.527
| 11> C 	 -77.5564 	 45.3853 	 137.438
| 12> H 	 -76.4574 	 43.6762 	 136.747
| 13> C 	 -77.1089 	 41.9447 	 138.866
| 14> H 	 -77.3377 	 41.4626 	 137.928
| 15> H 	 -77.6258 	 41.3897 	 139.567
| 16> C 	 -75.719 	 41.5382 	 139.148
| 17> H 	 -75.3985 	 41.8179 	 140.243
| 18> H 	 -75.8188 	 40.4004 	 139.096
| 19> C 	 -74.6615 	 41.9934 	 138.131
| 20> H 	 -74.7903 	 41.6022 	 137.102
| 21> H 	 -74.4579 	 43.0778 	 138.189
| 22> H 	 -73.6847 	 41.603 	 138.561
| 23> S 	 -77.9992 	 48.0386 	 136.784
| 24> C 	 -77.3264 	 48.718 	 135.275
| 25> C 	 -76.5085 	 47.7803 	 134.637
| 26> C 	 -76.5781 	 46.5126 	 135.257
| 27> C 	 -77.3356 	 46.4213 	 136.452
| 28> H 	 -75.9528 	 48.1032 	 133.82
| 29> C 	 -75.8968 	 45.3737 	 134.499
| 30> H 	 -75.3333 	 44.8594 	 135.308
| 31> H 	 -75.2394 	 45.799 	 133.707
| 32> C 	 -76.9289 	 44.3696 	 133.914
| 33> H 	 -77.4136 	 43.8008 	 134.722
| 34> H 	 -76.2891 	 43.6532 	 133.382
| 35> C 	 -78.03 	 44.9306 	 132.896
| 36> H 	 -78.7891 	 44.1931 	 132.505
| 37> H 	 -77.456 	 45.2218 	 131.98
| 38> H 	 -78.6074 	 45.8113 	 133.325
| 39> H 	 -78.7274 	 43.737 	 140.447
| 40> H 	 -77.2605 	 49.6934 	 134.949
| 41> *
| 42>
| 43>                          ****END OF INPUT****

CARTESIAN COORDINATES (ANGSTROEM)
---------------------------------
  S    -78.572100   45.645800  138.850000
  C    -78.295400   44.111000  139.512000
  C    -77.406300   43.374100  138.728000
  C    -77.053100   44.098400  137.527000
  C    -77.556400   45.385300  137.438000
  H    -76.457400   43.676200  136.747000
  C    -77.108900   41.944700  138.866000
  H    -77.337700   41.462600  137.928000
  H    -77.625800   41.389700  139.567000
  C    -75.719000   41.538200  139.148000
  H    -75.398500   41.817900  140.243000
  H    -75.818800   40.400400  139.096000
  C    -74.661500   41.993400  138.131000
  H    -74.790300   41.602200  137.102000
  H    -74.457900   43.077800  138.189000
  H    -73.684700   41.603000  138.561000
  S    -77.999200   48.038600  136.784000
  C    -77.326400   48.718000  135.275000
  C    -76.508500   47.780300  134.637000
  C    -76.578100   46.512600  135.257000
  C    -77.335600   46.421300  136.452000
  H    -75.952800   48.103200  133.820000
  C    -75.896800   45.373700  134.499000
  H    -75.333300   44.859400  135.308000
  H    -75.239400   45.799000  133.707000
  C    -76.928900   44.369600  133.914000
  H    -77.413600   43.800800  134.722000
  H    -76.289100   43.653200  133.382000
  C    -78.030000   44.930600  132.896000
  H    -78.789100   44.193100  132.505000
  H    -77.456000   45.221800  131.980000
  H    -78.607400   45.811300  133.325000
  H    -78.727400   43.737000  140.447000
  H    -77.260500   49.693400  134.949000

 Total Charge           Charge          ....    0
 Multiplicity           Mult            ....    1
 Number of Electrons    NEL             ....  134
 Basis Dimension        Dim             ....  322

ORBITAL ENERGIES
----------------

  NO   OCC          E(Eh)            E(eV)
   0   2.0000     -88.969264     -2420.9768
   1   2.0000     -88.966535     -2420.9025
   2   2.0000     -10.336461      -281.2694
   3   2.0000     -10.335246      -281.2363
   4   2.0000     -10.317041      -280.7409
   5   2.0000     -10.315369      -280.6955
   6   2.0000     -10.305975      -280.4398
   7   2.0000     -10.300316      -280.2859
   8   2.0000     -10.300064      -280.2790
   9   2.0000     -10.296609      -280.1850
  10   2.0000     -10.294641      -280.1314
  11   2.0000     -10.294225      -280.1201
  12   2.0000     -10.291037      -280.0334
  13   2.0000     -10.290398      -280.0160
  14   2.0000     -10.285717      -279.8886
  15   2.0000     -10.277249      -279.6582
  16   2.0000      -8.082576      -219.9381
  17   2.0000      -8.082054      -219.9239
  18   2.0000      -6.041336      -164.3931
  19   2.0000      -6.040656      -164.3746
  20   2.0000      -6.037223      -164.2812
  21   2.0000      -6.036316      -164.2565
  22   2.0000      -6.033217      -164.1722
  23   2.0000      -6.032813      -164.1612
  24   2.0000      -1.008320       -27.4378
  25   2.0000      -0.983030       -26.7496
  26   2.0000      -0.924813       -25.1654
  27   2.0000      -0.900262       -24.4974
  28   2.0000      -0.874871       -23.8065
  29   2.0000      -0.846594       -23.0370
  30   2.0000      -0.837106       -22.7788
  31   2.0000      -0.817912       -22.2565
  32   2.0000      -0.787823       -21.4378
  33   2.0000      -0.771260       -20.9871
  34   2.0000      -0.712745       -19.3948
  35   2.0000      -0.693556       -18.8726
  36   2.0000      -0.686596       -18.6832
  37   2.0000      -0.668526       -18.1915
  38   2.0000      -0.642262       -17.4768
  39   2.0000      -0.624679       -16.9984
  40   2.0000      -0.584033       -15.8923
  41   2.0000      -0.579339       -15.7646
  42   2.0000      -0.562014       -15.2932
  43   2.0000      -0.550329       -14.9752
  44   2.0000      -0.538987       -14.6666
  45   2.0000      -0.534366       -14.5408
  46   2.0000      -0.522514       -14.2183
  47   2.0000      -0.513976       -13.9860
  48   2.0000      -0.510232       -13.8841
  49   2.0000      -0.495173       -13.4743
  50   2.0000      -0.491333       -13.3698
  51   2.0000      -0.480264       -13.0686
  52   2.0000      -0.468569       -12.7504
  53   2.0000      -0.466277       -12.6881
  54   2.0000      -0.463899       -12.6233
  55   2.0000      -0.446874       -12.1601
  56   2.0000      -0.441237       -12.0067
  57   2.0000      -0.431030       -11.7289
  58   2.0000      -0.427563       -11.6346
  59   2.0000      -0.424511       -11.5515
  60   2.0000      -0.417640       -11.3646
  61   2.0000      -0.407665       -11.0931
  62   2.0000      -0.403771       -10.9872
  63   2.0000      -0.367047        -9.9879
  64   2.0000      -0.335004        -9.1159
  65   2.0000      -0.324757        -8.8371
  66   2.0000      -0.278162        -7.5692
  67   0.0000       0.013493         0.3672
  68   0.0000       0.087700         2.3865
  69   0.0000       0.092317         2.5121
  70   0.0000       0.108923         2.9639
  71   0.0000       0.134528         3.6607

MULLIKEN ATOMIC CHARGES
-----------------------
   0 S :    0.105716
   1 C :   -0.110910
   2 C :   -0.068532
   3 C :   -0.020544
   4 C :   -0.090488
   5 H :   -0.006648
   6 C :    0.113804
   7 H :    0.017307
   8 H :   -0.004570
   9 C :   -0.143163
  10 H :    0.041869
  11 H :    0.036118
  12 C :   -0.077489
  13 H :    0.046186
  14 H :    0.050356
  15 H :    0.035433
  16 S :    0.089118
  17 C :   -0.047676
  18 C :   -0.034560
  19 C :   -0.072396
  20 C :   -0.100084
  21 H :    0.000082
  22 C :    0.043916
  23 H :    0.042493
  24 H :    0.032008
  25 C :   -0.078912
  26 H :    0.040838
  27 H :    0.029618
  28 C :   -0.101993
  29 H :    0.048572
  30 H :    0.031796
  31 H :    0.066931
  32 H :    0.057104
  33 H :    0.028701
Sum of atomic charges:   -0.0000000

LOEWDIN ATOMIC CHARGES
----------------------
   0 S :    0.421685
   1 C :   -0.210116
   2 C :   -0.064068
   3 C :   -0.063796
   4 C :   -0.186547
   5 H :    0.021076
   6 C :   -0.042561
   7 H :    0.034319
   8 H :    0.023231
   9 C :   -0.046840
  10 H :    0.031327
  11 H :    0.030734
  12 C :   -0.083523
  13 H :    0.027185
  14 H :    0.029797
  15 H :    0.035312
  16 S :    0.384744
  17 C :   -0.162458
  18 C :   -0.061948
  19 C :   -0.056470
  20 C :   -0.189475
  21 H :    0.023879
  22 C :   -0.032372
  23 H :    0.035076
  24 H :    0.033325
  25 C :   -0.043098
  26 H :    0.022704
  27 H :    0.023524
  28 C :   -0.081802
  29 H :    0.033157
  30 H :    0.025825
  31 H :    0.036199
  32 H :    0.035779
  33 H :    0.016196

  Mayer bond orders larger than 0.100000
B(  0-S ,  1-C ) :   1.1554 B(  0-S ,  4-C ) :   1.1420 B(  1-C ,  2-C ) :   1.5866
B(  1-C , 32-H ) :   0.9665 B(  2-C ,  3-C ) :   1.2562 B(  2-C ,  6-C ) :   1.0293
B(  3-C ,  4-C ) :   1.5406 B(  3-C ,  5-H ) :   0.9863 B(  4-C , 20-C ) :   1.1150
B(  6-C ,  7-H ) :   0.9347 B(  6-C ,  8-H ) :   0.9358 B(  6-C ,  9-C ) :   1.0768
B(  9-C , 10-H ) :   0.9494 B(  9-C , 11-H ) :   0.9563 B(  9-C , 12-C ) :   1.0922
B( 12-C , 13-H ) :   0.9681 B( 12-C , 14-H ) :   0.9647 B( 12-C , 15-H ) :   0.9684
B( 16-S , 17-C ) :   1.1518 B( 16-S , 20-C ) :   1.1227 B( 17-C , 18-C ) :   1.6033
B( 17-C , 20-C ) :   0.1069 B( 17-C , 33-H ) :   0.9696 B( 18-C , 19-C ) :   1.2661
B( 18-C , 21-H ) :   0.9992 B( 19-C , 20-C ) :   1.5412 B( 19-C , 22-C ) :   1.0356
B( 22-C , 23-H ) :   0.9273 B( 22-C , 24-H ) :   0.9408 B( 22-C , 25-C ) :   1.0703
B( 25-C , 26-H ) :   0.9536 B( 25-C , 27-H ) :   0.9601 B( 25-C , 28-C ) :   1.0560
B( 28-C , 29-H ) :   0.9768 B( 28-C , 30-H ) :   0.9769 B( 28-C , 31-H ) :   0.9750

Dispersion correction           -0.015163076
FINAL SINGLE POINT ENERGY     -1339.860241796666

DIPOLE MOMENT
-------------
                                X             Y             Z
Electronic contribution:    -12.07679      22.25770      11.18521
Nuclear contribution   :     12.47448     -22.75514     -11.50413
                        -----------------------------------------
Total Dipole Moment    :      0.39769      -0.49744      -0.31892
                        -----------------------------------------
Magnitude (a.u.)       :      0.71226
Magnitude (Debye)      :      1.81041

Rotational constants in cm-1:     0.019258     0.009598     0.007348
Rotational constants in MHz :   577.331756   287.755269   220.272979

                             ****ORCA TERMINATED NORMALLY****
TOTAL RUN TIME: 0 days 0 hours 0 minutes 36 seconds 588 msec
