                         Program Version 4.2.1 -  RELEASE  -
|  1> ! wB97X-D3 SP def2-SVP
|  2> %pal
|  3> nprocs 16
|  4> end
|  5>
|  6> * xyz 0 1
|  7> S 	 -15.4438 	 47.1052 	 31.1166
|  8> C 	 -13.9688 	 47.3357 	 30.1965
|  9> C 	 -13.1546 	 46.203 	 30.3541
| 10> C 	 -13.7616 	 45.2297 	 31.2063
| 11> C 	 -15.0277 	 45.5325 	 31.6638
| 12> H 	 -13.3368 	 44.2886 	 31.5561
| 13> C 	 -11.8069 	 45.9848 	 29.685
| 14> H 	 -11.4479 	 46.9549 	 29.2572
| 15> H 	 -11.9625 	 45.357 	 28.7763
| 16> C 	 -10.7217 	 45.3706 	 30.6085
| 17> H 	 -11.0352 	 44.5196 	 31.142
| 18> H 	 -9.8677 	 45.0981 	 30.0257
| 19> C 	 -10.2155 	 46.4992 	 31.5221
| 20> H 	 -9.90903 	 47.3868 	 30.9075
| 21> H 	 -10.9696 	 46.7492 	 32.2709
| 22> H 	 -9.25766 	 46.2607 	 32.017
| 23> S 	 -16.4129 	 45.2959 	 34.0943
| 24> C 	 -17.4075 	 43.8691 	 34.4029
| 25> C 	 -17.3287 	 43.0209 	 33.3034
| 26> C 	 -16.4182 	 43.4102 	 32.2845
| 27> C 	 -15.8999 	 44.7258 	 32.5212
| 28> H 	 -17.7659 	 42.0438 	 33.3889
| 29> C 	 -16.4034 	 42.646 	 31.0108
| 30> H 	 -15.4354 	 42.7296 	 30.5961
| 31> H 	 -17.0188 	 43.2186 	 30.2
| 32> C 	 -16.8659 	 41.2254 	 31.044
| 33> H 	 -17.9332 	 41.2837 	 31.2583
| 34> H 	 -16.3824 	 40.6517 	 31.8389
| 35> C 	 -16.5621 	 40.6232 	 29.6453
| 36> H 	 -15.491 	 40.9605 	 29.2313
| 37> H 	 -17.2996 	 40.9886 	 28.8838
| 38> H 	 -16.6681 	 39.5446 	 29.5392
| 39> H 	 -13.7112 	 48.1288 	 29.5468
| 40> H 	 -18.0243 	 43.6148 	 35.2374
| 41> *
| 42>
| 43>                          ****END OF INPUT****

CARTESIAN COORDINATES (ANGSTROEM)
---------------------------------
  S    -15.443800   47.105200   31.116600
  C    -13.968800   47.335700   30.196500
  C    -13.154600   46.203000   30.354100
  C    -13.761600   45.229700   31.206300
  C    -15.027700   45.532500   31.663800
  H    -13.336800   44.288600   31.556100
  C    -11.806900   45.984800   29.685000
  H    -11.447900   46.954900   29.257200
  H    -11.962500   45.357000   28.776300
  C    -10.721700   45.370600   30.608500
  H    -11.035200   44.519600   31.142000
  H     -9.867700   45.098100   30.025700
  C    -10.215500   46.499200   31.522100
  H     -9.909030   47.386800   30.907500
  H    -10.969600   46.749200   32.270900
  H     -9.257660   46.260700   32.017000
  S    -16.412900   45.295900   34.094300
  C    -17.407500   43.869100   34.402900
  C    -17.328700   43.020900   33.303400
  C    -16.418200   43.410200   32.284500
  C    -15.899900   44.725800   32.521200
  H    -17.765900   42.043800   33.388900
  C    -16.403400   42.646000   31.010800
  H    -15.435400   42.729600   30.596100
  H    -17.018800   43.218600   30.200000
  C    -16.865900   41.225400   31.044000
  H    -17.933200   41.283700   31.258300
  H    -16.382400   40.651700   31.838900
  C    -16.562100   40.623200   29.645300
  H    -15.491000   40.960500   29.231300
  H    -17.299600   40.988600   28.883800
  H    -16.668100   39.544600   29.539200
  H    -13.711200   48.128800   29.546800
  H    -18.024300   43.614800   35.237400

 Total Charge           Charge          ....    0
 Multiplicity           Mult            ....    1
 Number of Electrons    NEL             ....  134
 Basis Dimension        Dim             ....  322

ORBITAL ENERGIES
----------------

  NO   OCC          E(Eh)            E(eV)
   0   2.0000     -88.970693     -2421.0156
   1   2.0000     -88.965885     -2420.8848
   2   2.0000     -10.332779      -281.1692
   3   2.0000     -10.328557      -281.0543
   4   2.0000     -10.319165      -280.7987
   5   2.0000     -10.314415      -280.6695
   6   2.0000     -10.304692      -280.4049
   7   2.0000     -10.304432      -280.3979
   8   2.0000     -10.299039      -280.2511
   9   2.0000     -10.294049      -280.1153
  10   2.0000     -10.292940      -280.0851
  11   2.0000     -10.290509      -280.0190
  12   2.0000     -10.290207      -280.0108
  13   2.0000     -10.288078      -279.9528
  14   2.0000     -10.283417      -279.8260
  15   2.0000     -10.277962      -279.6776
  16   2.0000      -8.084551      -219.9918
  17   2.0000      -8.080910      -219.8927
  18   2.0000      -6.043073      -164.4404
  19   2.0000      -6.039392      -164.3402
  20   2.0000      -6.038953      -164.3283
  21   2.0000      -6.035564      -164.2361
  22   2.0000      -6.035130      -164.2242
  23   2.0000      -6.031906      -164.1365
  24   2.0000      -1.006134       -27.3783
  25   2.0000      -0.983434       -26.7606
  26   2.0000      -0.917276       -24.9603
  27   2.0000      -0.911035       -24.7905
  28   2.0000      -0.868860       -23.6429
  29   2.0000      -0.847427       -23.0596
  30   2.0000      -0.841773       -22.9058
  31   2.0000      -0.815180       -22.1822
  32   2.0000      -0.776017       -21.1165
  33   2.0000      -0.765705       -20.8359
  34   2.0000      -0.711982       -19.3740
  35   2.0000      -0.706803       -19.2331
  36   2.0000      -0.696144       -18.9430
  37   2.0000      -0.646687       -17.5972
  38   2.0000      -0.643829       -17.5195
  39   2.0000      -0.621288       -16.9061
  40   2.0000      -0.602043       -16.3824
  41   2.0000      -0.574024       -15.6200
  42   2.0000      -0.569935       -15.5087
  43   2.0000      -0.550933       -14.9916
  44   2.0000      -0.540118       -14.6973
  45   2.0000      -0.525418       -14.2973
  46   2.0000      -0.515397       -14.0247
  47   2.0000      -0.509926       -13.8758
  48   2.0000      -0.508066       -13.8252
  49   2.0000      -0.493093       -13.4177
  50   2.0000      -0.478235       -13.0134
  51   2.0000      -0.475607       -12.9419
  52   2.0000      -0.467021       -12.7083
  53   2.0000      -0.464069       -12.6280
  54   2.0000      -0.457676       -12.4540
  55   2.0000      -0.447775       -12.1846
  56   2.0000      -0.442377       -12.0377
  57   2.0000      -0.437662       -11.9094
  58   2.0000      -0.433706       -11.8017
  59   2.0000      -0.426612       -11.6087
  60   2.0000      -0.424251       -11.5445
  61   2.0000      -0.420397       -11.4396
  62   2.0000      -0.414041       -11.2666
  63   2.0000      -0.342720        -9.3259
  64   2.0000      -0.330010        -8.9800
  65   2.0000      -0.327803        -8.9200
  66   2.0000      -0.293707        -7.9922
  67   0.0000       0.029680         0.8076
  68   0.0000       0.063805         1.7362
  69   0.0000       0.117512         3.1977
  70   0.0000       0.123557         3.3622
  71   0.0000       0.128426         3.4947

MULLIKEN ATOMIC CHARGES
-----------------------
   0 S :    0.118352
   1 C :   -0.101501
   2 C :   -0.094092
   3 C :    0.032515
   4 C :   -0.181609
   5 H :    0.013521
   6 C :    0.037510
   7 H :    0.017630
   8 H :    0.048891
   9 C :   -0.036795
  10 H :    0.029984
  11 H :    0.021174
  12 C :   -0.080179
  13 H :    0.028422
  14 H :    0.051249
  15 H :    0.030824
  16 S :    0.124012
  17 C :   -0.080082
  18 C :   -0.059067
  19 C :   -0.010460
  20 C :   -0.153598
  21 H :    0.023560
  22 C :    0.037445
  23 H :   -0.004119
  24 H :    0.053653
  25 C :   -0.075307
  26 H :    0.043445
  27 H :    0.040275
  28 C :   -0.081912
  29 H :    0.048731
  30 H :    0.036705
  31 H :    0.036663
  32 H :    0.033963
  33 H :    0.050193
Sum of atomic charges:    0.0000000

LOEWDIN ATOMIC CHARGES
----------------------
   0 S :    0.425667
   1 C :   -0.196712
   2 C :   -0.063287
   3 C :   -0.069883
   4 C :   -0.209217
   5 H :    0.030804
   6 C :   -0.032757
   7 H :    0.030261
   8 H :    0.035691
   9 C :   -0.034594
  10 H :    0.017398
  11 H :    0.023780
  12 C :   -0.067561
  13 H :    0.028136
  14 H :    0.027247
  15 H :    0.024038
  16 S :    0.415671
  17 C :   -0.182978
  18 C :   -0.075169
  19 C :   -0.053796
  20 C :   -0.207502
  21 H :    0.028874
  22 C :   -0.041949
  23 H :    0.018920
  24 H :    0.050085
  25 C :   -0.045131
  26 H :    0.028143
  27 H :    0.025705
  28 C :   -0.075609
  29 H :    0.039058
  30 H :    0.030291
  31 H :    0.022324
  32 H :    0.023646
  33 H :    0.030405

  Mayer bond orders larger than 0.100000
B(  0-S ,  1-C ) :   1.1463 B(  0-S ,  4-C ) :   1.1698 B(  1-C ,  2-C ) :   1.5845
B(  1-C ,  4-C ) :   0.1017 B(  1-C , 32-H ) :   0.9753 B(  2-C ,  3-C ) :   1.2482
B(  2-C ,  6-C ) :   1.0184 B(  3-C ,  4-C ) :   1.5724 B(  3-C ,  5-H ) :   0.9902
B(  4-C , 20-C ) :   1.0312 B(  6-C ,  7-H ) :   0.9457 B(  6-C ,  8-H ) :   0.9380
B(  6-C ,  9-C ) :   1.0725 B(  9-C , 10-H ) :   0.9578 B(  9-C , 11-H ) :   0.9524
B(  9-C , 12-C ) :   1.0730 B( 12-C , 13-H ) :   0.9736 B( 12-C , 14-H ) :   0.9784
B( 12-C , 15-H ) :   0.9759 B( 16-S , 17-C ) :   1.1578 B( 16-S , 20-C ) :   1.1625
B( 17-C , 18-C ) :   1.5903 B( 17-C , 20-C ) :   0.1091 B( 17-C , 33-H ) :   0.9669
B( 18-C , 19-C ) :   1.2838 B( 18-C , 21-H ) :   0.9744 B( 19-C , 20-C ) :   1.5310
B( 19-C , 22-C ) :   1.0551 B( 22-C , 23-H ) :   0.9210 B( 22-C , 24-H ) :   0.9237
B( 22-C , 25-C ) :   1.0713 B( 25-C , 26-H ) :   0.9392 B( 25-C , 27-H ) :   0.9599
B( 25-C , 28-C ) :   1.0709 B( 28-C , 29-H ) :   0.9743 B( 28-C , 30-H ) :   0.9721
B( 28-C , 31-H ) :   0.9743

Dispersion correction           -0.013753405
FINAL SINGLE POINT ENERGY     -1339.877217451706

DIPOLE MOMENT
-------------
                                X             Y             Z
Electronic contribution:    -14.55931      15.57201      13.09694
Nuclear contribution   :     14.80407     -16.12439     -13.43419
                        -----------------------------------------
Total Dipole Moment    :      0.24476      -0.55238      -0.33724
                        -----------------------------------------
Magnitude (a.u.)       :      0.69193
Magnitude (Debye)      :      1.75873

Rotational constants in cm-1:     0.017443     0.008314     0.006797
Rotational constants in MHz :   522.930391   249.259626   203.779408

                             ****ORCA TERMINATED NORMALLY****
TOTAL RUN TIME: 0 days 0 hours 0 minutes 33 seconds 359 msec
