                         Program Version 4.2.1 -  RELEASE  -
|  1> ! wB97X-D3 SP def2-SVP
|  2> %pal
|  3> nprocs 16
|  4> end
|  5>
|  6> * xyz 0 1
|  7> S 	 -5.83249 	 -13.7227 	 78.0511
|  8> C 	 -5.98045 	 -12.0585 	 77.4737
|  9> C 	 -6.09748 	 -11.1702 	 78.5259
| 10> C 	 -5.99843 	 -11.8061 	 79.7864
| 11> C 	 -5.83293 	 -13.2097 	 79.744
| 12> H 	 -6.13929 	 -11.3493 	 80.7921
| 13> C 	 -6.34309 	 -9.65569 	 78.5306
| 14> H 	 -7.27899 	 -9.43371 	 79.1211
| 15> H 	 -6.67703 	 -9.49845 	 77.4381
| 16> C 	 -5.14656 	 -8.74667 	 78.8099
| 17> H 	 -4.97435 	 -8.72843 	 79.9223
| 18> H 	 -4.24995 	 -9.26359 	 78.4051
| 19> C 	 -5.39431 	 -7.26219 	 78.471
| 20> H 	 -4.58727 	 -6.69716 	 78.9169
| 21> H 	 -5.49204 	 -7.03184 	 77.3859
| 22> H 	 -6.34266 	 -6.89705 	 78.9321
| 23> S 	 -6.88835 	 -15.1764 	 81.3533
| 24> C 	 -6.01658 	 -15.7028 	 82.7758
| 25> C 	 -4.8105 	 -14.9899 	 82.8816
| 26> C 	 -4.61605 	 -14.0996 	 81.7638
| 27> C 	 -5.65769 	 -14.1077 	 80.8572
| 28> H 	 -4.14266 	 -15.1918 	 83.6789
| 29> C 	 -3.41171 	 -13.2145 	 81.5941
| 30> H 	 -3.19858 	 -12.9864 	 80.5097
| 31> H 	 -2.58118 	 -13.8393 	 81.9477
| 32> C 	 -3.41517 	 -11.8071 	 82.337
| 33> H 	 -4.32089 	 -11.2744 	 81.9702
| 34> H 	 -2.52007 	 -11.2121 	 82.0638
| 35> C 	 -3.24506 	 -11.9171 	 83.8781
| 36> H 	 -4.2 	 -12.1131 	 84.4456
| 37> H 	 -2.83361 	 -10.9567 	 84.2246
| 38> H 	 -2.58093 	 -12.7154 	 84.1764
| 39> H 	 -6.05471 	 -11.6593 	 76.4483
| 40> H 	 -6.2592 	 -16.4707 	 83.455
| 41> *
| 42>
| 43>                          ****END OF INPUT****

CARTESIAN COORDINATES (ANGSTROEM)
---------------------------------
  S     -5.832490  -13.722700   78.051100
  C     -5.980450  -12.058500   77.473700
  C     -6.097480  -11.170200   78.525900
  C     -5.998430  -11.806100   79.786400
  C     -5.832930  -13.209700   79.744000
  H     -6.139290  -11.349300   80.792100
  C     -6.343090   -9.655690   78.530600
  H     -7.278990   -9.433710   79.121100
  H     -6.677030   -9.498450   77.438100
  C     -5.146560   -8.746670   78.809900
  H     -4.974350   -8.728430   79.922300
  H     -4.249950   -9.263590   78.405100
  C     -5.394310   -7.262190   78.471000
  H     -4.587270   -6.697160   78.916900
  H     -5.492040   -7.031840   77.385900
  H     -6.342660   -6.897050   78.932100
  S     -6.888350  -15.176400   81.353300
  C     -6.016580  -15.702800   82.775800
  C     -4.810500  -14.989900   82.881600
  C     -4.616050  -14.099600   81.763800
  C     -5.657690  -14.107700   80.857200
  H     -4.142660  -15.191800   83.678900
  C     -3.411710  -13.214500   81.594100
  H     -3.198580  -12.986400   80.509700
  H     -2.581180  -13.839300   81.947700
  C     -3.415170  -11.807100   82.337000
  H     -4.320890  -11.274400   81.970200
  H     -2.520070  -11.212100   82.063800
  C     -3.245060  -11.917100   83.878100
  H     -4.200000  -12.113100   84.445600
  H     -2.833610  -10.956700   84.224600
  H     -2.580930  -12.715400   84.176400
  H     -6.054710  -11.659300   76.448300
  H     -6.259200  -16.470700   83.455000

 Total Charge           Charge          ....    0
 Multiplicity           Mult            ....    1
 Number of Electrons    NEL             ....  134
 Basis Dimension        Dim             ....  322

ORBITAL ENERGIES
----------------

  NO   OCC          E(Eh)            E(eV)
   0   2.0000     -88.971055     -2421.0255
   1   2.0000     -88.966705     -2420.9071
   2   2.0000     -10.331897      -281.1452
   3   2.0000     -10.321019      -280.8492
   4   2.0000     -10.319499      -280.8078
   5   2.0000     -10.318278      -280.7746
   6   2.0000     -10.303362      -280.3687
   7   2.0000     -10.301553      -280.3195
   8   2.0000     -10.301358      -280.3142
   9   2.0000     -10.297676      -280.2140
  10   2.0000     -10.296847      -280.1915
  11   2.0000     -10.295957      -280.1672
  12   2.0000     -10.294347      -280.1234
  13   2.0000     -10.292238      -280.0660
  14   2.0000     -10.287462      -279.9361
  15   2.0000     -10.281173      -279.7649
  16   2.0000      -8.084707      -219.9961
  17   2.0000      -8.082071      -219.9243
  18   2.0000      -6.043327      -164.4473
  19   2.0000      -6.040523      -164.3710
  20   2.0000      -6.039271      -164.3369
  21   2.0000      -6.036319      -164.2566
  22   2.0000      -6.035493      -164.2341
  23   2.0000      -6.033010      -164.1666
  24   2.0000      -1.007910       -27.4266
  25   2.0000      -0.982951       -26.7475
  26   2.0000      -0.908029       -24.7087
  27   2.0000      -0.898474       -24.4487
  28   2.0000      -0.871308       -23.7095
  29   2.0000      -0.847381       -23.0584
  30   2.0000      -0.845267       -23.0009
  31   2.0000      -0.812340       -22.1049
  32   2.0000      -0.779433       -21.2094
  33   2.0000      -0.768978       -20.9249
  34   2.0000      -0.709227       -19.2990
  35   2.0000      -0.697133       -18.9699
  36   2.0000      -0.691183       -18.8081
  37   2.0000      -0.665771       -18.1165
  38   2.0000      -0.637396       -17.3444
  39   2.0000      -0.614451       -16.7201
  40   2.0000      -0.585540       -15.9334
  41   2.0000      -0.571703       -15.5568
  42   2.0000      -0.557740       -15.1769
  43   2.0000      -0.547057       -14.8862
  44   2.0000      -0.540990       -14.7211
  45   2.0000      -0.525765       -14.3068
  46   2.0000      -0.518566       -14.1109
  47   2.0000      -0.508015       -13.8238
  48   2.0000      -0.501666       -13.6510
  49   2.0000      -0.497873       -13.5478
  50   2.0000      -0.487764       -13.2727
  51   2.0000      -0.480048       -13.0628
  52   2.0000      -0.470702       -12.8085
  53   2.0000      -0.468123       -12.7383
  54   2.0000      -0.460739       -12.5373
  55   2.0000      -0.443375       -12.0648
  56   2.0000      -0.438929       -11.9439
  57   2.0000      -0.437602       -11.9078
  58   2.0000      -0.434181       -11.8147
  59   2.0000      -0.425013       -11.5652
  60   2.0000      -0.416364       -11.3298
  61   2.0000      -0.413041       -11.2394
  62   2.0000      -0.407699       -11.0941
  63   2.0000      -0.338961        -9.2236
  64   2.0000      -0.333929        -9.0867
  65   2.0000      -0.323676        -8.8077
  66   2.0000      -0.303630        -8.2622
  67   0.0000       0.033569         0.9135
  68   0.0000       0.061014         1.6603
  69   0.0000       0.114001         3.1021
  70   0.0000       0.120741         3.2855
  71   0.0000       0.131857         3.5880

MULLIKEN ATOMIC CHARGES
-----------------------
   0 S :    0.122596
   1 C :   -0.115168
   2 C :   -0.105309
   3 C :    0.030299
   4 C :   -0.190334
   5 H :    0.039862
   6 C :    0.016348
   7 H :    0.049340
   8 H :    0.017946
   9 C :   -0.072455
  10 H :    0.031658
  11 H :    0.043826
  12 C :   -0.055256
  13 H :    0.039604
  14 H :    0.043002
  15 H :    0.034636
  16 S :    0.125652
  17 C :   -0.082018
  18 C :   -0.028225
  19 C :   -0.020120
  20 C :   -0.157415
  21 H :    0.008404
  22 C :    0.026616
  23 H :    0.047380
  24 H :    0.022750
  25 C :   -0.067409
  26 H :    0.025341
  27 H :    0.036579
  28 C :   -0.069468
  29 H :    0.043907
  30 H :    0.035015
  31 H :    0.026463
  32 H :    0.052236
  33 H :    0.043720
Sum of atomic charges:    0.0000000

LOEWDIN ATOMIC CHARGES
----------------------
   0 S :    0.402890
   1 C :   -0.199146
   2 C :   -0.075232
   3 C :   -0.059352
   4 C :   -0.193692
   5 H :    0.036484
   6 C :   -0.042591
   7 H :    0.037683
   8 H :    0.030863
   9 C :   -0.049650
  10 H :    0.028691
  11 H :    0.031687
  12 C :   -0.067711
  13 H :    0.027273
  14 H :    0.027203
  15 H :    0.031237
  16 S :    0.433897
  17 C :   -0.180924
  18 C :   -0.064174
  19 C :   -0.055692
  20 C :   -0.230028
  21 H :    0.025642
  22 C :   -0.039235
  23 H :    0.039370
  24 H :    0.028176
  25 C :   -0.039669
  26 H :    0.023207
  27 H :    0.028836
  28 C :   -0.074859
  29 H :    0.029552
  30 H :    0.027179
  31 H :    0.020786
  32 H :    0.037678
  33 H :    0.023623

  Mayer bond orders larger than 0.100000
B(  0-S ,  1-C ) :   1.1390 B(  0-S ,  4-C ) :   1.1461 B(  1-C ,  2-C ) :   1.6180
B(  1-C ,  4-C ) :   0.1064 B(  1-C , 32-H ) :   0.9582 B(  2-C ,  3-C ) :   1.2507
B(  2-C ,  6-C ) :   1.0158 B(  3-C ,  4-C ) :   1.5714 B(  3-C ,  5-H ) :   0.9772
B(  4-C , 20-C ) :   1.0309 B(  6-C ,  7-H ) :   0.9408 B(  6-C ,  8-H ) :   0.9427
B(  6-C ,  9-C ) :   1.0540 B(  9-C , 10-H ) :   0.9510 B(  9-C , 11-H ) :   0.9557
B(  9-C , 12-C ) :   1.0737 B( 12-C , 13-H ) :   0.9760 B( 12-C , 14-H ) :   0.9773
B( 12-C , 15-H ) :   0.9719 B( 16-S , 17-C ) :   1.1691 B( 16-S , 20-C ) :   1.1539
B( 17-C , 18-C ) :   1.5836 B( 17-C , 33-H ) :   0.9740 B( 18-C , 19-C ) :   1.2537
B( 18-C , 21-H ) :   0.9958 B( 19-C , 20-C ) :   1.5754 B( 19-C , 22-C ) :   1.0502
B( 22-C , 23-H ) :   0.9316 B( 22-C , 24-H ) :   0.9379 B( 22-C , 25-C ) :   1.0686
B( 25-C , 26-H ) :   0.9515 B( 25-C , 27-H ) :   0.9598 B( 25-C , 28-C ) :   1.0630
B( 28-C , 29-H ) :   0.9753 B( 28-C , 30-H ) :   0.9780 B( 28-C , 31-H ) :   0.9752

Dispersion correction           -0.015044258
FINAL SINGLE POINT ENERGY     -1339.883947375581

DIPOLE MOMENT
-------------
                                X             Y             Z
Electronic contribution:    -12.10276     -27.80560      -7.05163
Nuclear contribution   :     12.37335      28.36894       7.34518
                        -----------------------------------------
Total Dipole Moment    :      0.27059       0.56334       0.29355
                        -----------------------------------------
Magnitude (a.u.)       :      0.69047
Magnitude (Debye)      :      1.75502

Rotational constants in cm-1:     0.018477     0.009012     0.006735
Rotational constants in MHz :   553.914799   270.167142   201.910150

                             ****ORCA TERMINATED NORMALLY****
TOTAL RUN TIME: 0 days 0 hours 0 minutes 34 seconds 93 msec
