                         Program Version 4.2.1 -  RELEASE  -
|  1> ! wB97X-D3 SP def2-SVP
|  2> %pal
|  3> nprocs 16
|  4> end
|  5>
|  6> * xyz 0 1
|  7> S 	 -19.7964 	 3.45316 	 81.974
|  8> C 	 -18.3852 	 3.8504 	 82.8915
|  9> C 	 -18.0779 	 2.85186 	 83.7738
| 10> C 	 -19.0009 	 1.80865 	 83.7276
| 11> C 	 -20.0556 	 1.97171 	 82.8874
| 12> H 	 -18.866 	 0.798871 	 84.1635
| 13> C 	 -16.7542 	 2.8885 	 84.5142
| 14> H 	 -17.0238 	 3.12419 	 85.5797
| 15> H 	 -16.1668 	 3.70636 	 84.1451
| 16> C 	 -15.8466 	 1.65262 	 84.478
| 17> H 	 -16.536 	 0.817722 	 84.837
| 18> H 	 -15.3353 	 1.48374 	 83.5342
| 19> C 	 -14.7699 	 1.68838 	 85.5207
| 20> H 	 -14.1044 	 0.783753 	 85.52
| 21> H 	 -14.1647 	 2.5763 	 85.4247
| 22> H 	 -15.1349 	 1.63783 	 86.558
| 23> S 	 -22.7853 	 1.47003 	 82.8584
| 24> C 	 -23.3801 	 -0.145482 	 82.6882
| 25> C 	 -22.3142 	 -0.977471 	 82.3036
| 26> C 	 -21.0341 	 -0.367322 	 82.1962
| 27> C 	 -21.1368 	 1.01431 	 82.6147
| 28> H 	 -22.5324 	 -2.05514 	 82.0984
| 29> C 	 -19.7547 	 -1.06018 	 81.8683
| 30> H 	 -18.9872 	 -0.308586 	 81.752
| 31> H 	 -19.8822 	 -1.56011 	 80.9193
| 32> C 	 -19.3078 	 -2.04885 	 82.9098
| 33> H 	 -20.0803 	 -2.8567 	 83.0284
| 34> H 	 -19.2615 	 -1.4498 	 83.8661
| 35> C 	 -17.9321 	 -2.61038 	 82.6797
| 36> H 	 -17.7131 	 -3.1712 	 83.5913
| 37> H 	 -17.2182 	 -1.78556 	 82.6418
| 38> H 	 -17.8807 	 -3.27757 	 81.8623
| 39> H 	 -17.8152 	 4.8148 	 82.8246
| 40> H 	 -24.3392 	 -0.410265 	 83.0987
| 41> *
| 42>
| 43>                          ****END OF INPUT****

CARTESIAN COORDINATES (ANGSTROEM)
---------------------------------
  S    -19.796400    3.453160   81.974000
  C    -18.385200    3.850400   82.891500
  C    -18.077900    2.851860   83.773800
  C    -19.000900    1.808650   83.727600
  C    -20.055600    1.971710   82.887400
  H    -18.866000    0.798871   84.163500
  C    -16.754200    2.888500   84.514200
  H    -17.023800    3.124190   85.579700
  H    -16.166800    3.706360   84.145100
  C    -15.846600    1.652620   84.478000
  H    -16.536000    0.817722   84.837000
  H    -15.335300    1.483740   83.534200
  C    -14.769900    1.688380   85.520700
  H    -14.104400    0.783753   85.520000
  H    -14.164700    2.576300   85.424700
  H    -15.134900    1.637830   86.558000
  S    -22.785300    1.470030   82.858400
  C    -23.380100   -0.145482   82.688200
  C    -22.314200   -0.977471   82.303600
  C    -21.034100   -0.367322   82.196200
  C    -21.136800    1.014310   82.614700
  H    -22.532400   -2.055140   82.098400
  C    -19.754700   -1.060180   81.868300
  H    -18.987200   -0.308586   81.752000
  H    -19.882200   -1.560110   80.919300
  C    -19.307800   -2.048850   82.909800
  H    -20.080300   -2.856700   83.028400
  H    -19.261500   -1.449800   83.866100
  C    -17.932100   -2.610380   82.679700
  H    -17.713100   -3.171200   83.591300
  H    -17.218200   -1.785560   82.641800
  H    -17.880700   -3.277570   81.862300
  H    -17.815200    4.814800   82.824600
  H    -24.339200   -0.410265   83.098700

 Total Charge           Charge          ....    0
 Multiplicity           Mult            ....    1
 Number of Electrons    NEL             ....  134
 Basis Dimension        Dim             ....  322

ORBITAL ENERGIES
----------------

  NO   OCC          E(Eh)            E(eV)
   0   2.0000     -88.966348     -2420.8974
   1   2.0000     -88.963744     -2420.8266
   2   2.0000     -10.330106      -281.0965
   3   2.0000     -10.327455      -281.0243
   4   2.0000     -10.318343      -280.7764
   5   2.0000     -10.313284      -280.6387
   6   2.0000     -10.307866      -280.4913
   7   2.0000     -10.301030      -280.3053
   8   2.0000     -10.295162      -280.1456
   9   2.0000     -10.293981      -280.1135
  10   2.0000     -10.292787      -280.0810
  11   2.0000     -10.291195      -280.0376
  12   2.0000     -10.289900      -280.0024
  13   2.0000     -10.285249      -279.8759
  14   2.0000     -10.279981      -279.7325
  15   2.0000     -10.275259      -279.6040
  16   2.0000      -8.081706      -219.9144
  17   2.0000      -8.078795      -219.8352
  18   2.0000      -6.039999      -164.3567
  19   2.0000      -6.037226      -164.2813
  20   2.0000      -6.035897      -164.2451
  21   2.0000      -6.033244      -164.1729
  22   2.0000      -6.032896      -164.1634
  23   2.0000      -6.029629      -164.0745
  24   2.0000      -1.009608       -27.4728
  25   2.0000      -0.988248       -26.8916
  26   2.0000      -0.919865       -25.0308
  27   2.0000      -0.914827       -24.8937
  28   2.0000      -0.870883       -23.6979
  29   2.0000      -0.855960       -23.2919
  30   2.0000      -0.849046       -23.1037
  31   2.0000      -0.816928       -22.2297
  32   2.0000      -0.785545       -21.3758
  33   2.0000      -0.769458       -20.9380
  34   2.0000      -0.705901       -19.2086
  35   2.0000      -0.694161       -18.8891
  36   2.0000      -0.687334       -18.7033
  37   2.0000      -0.654358       -17.8060
  38   2.0000      -0.640950       -17.4411
  39   2.0000      -0.622865       -16.9490
  40   2.0000      -0.600931       -16.3522
  41   2.0000      -0.577228       -15.7072
  42   2.0000      -0.573327       -15.6010
  43   2.0000      -0.565032       -15.3753
  44   2.0000      -0.531907       -14.4739
  45   2.0000      -0.523566       -14.2470
  46   2.0000      -0.519518       -14.1368
  47   2.0000      -0.514036       -13.9876
  48   2.0000      -0.507602       -13.8126
  49   2.0000      -0.499775       -13.5996
  50   2.0000      -0.497110       -13.5270
  51   2.0000      -0.484875       -13.1941
  52   2.0000      -0.473339       -12.8802
  53   2.0000      -0.466649       -12.6982
  54   2.0000      -0.464145       -12.6300
  55   2.0000      -0.446212       -12.1421
  56   2.0000      -0.441363       -12.0101
  57   2.0000      -0.433141       -11.7864
  58   2.0000      -0.430906       -11.7256
  59   2.0000      -0.427947       -11.6450
  60   2.0000      -0.419104       -11.4044
  61   2.0000      -0.416921       -11.3450
  62   2.0000      -0.413551       -11.2533
  63   2.0000      -0.341860        -9.3025
  64   2.0000      -0.331262        -9.0141
  65   2.0000      -0.328166        -8.9298
  66   2.0000      -0.294602        -8.0165
  67   0.0000       0.033170         0.9026
  68   0.0000       0.060585         1.6486
  69   0.0000       0.113718         3.0944
  70   0.0000       0.121561         3.3079
  71   0.0000       0.130694         3.5564

MULLIKEN ATOMIC CHARGES
-----------------------
   0 S :    0.113746
   1 C :   -0.152757
   2 C :   -0.055363
   3 C :    0.015409
   4 C :   -0.152879
   5 H :    0.008082
   6 C :    0.064659
   7 H :    0.039799
   8 H :    0.007384
   9 C :   -0.079289
  10 H :    0.036685
  11 H :    0.043363
  12 C :   -0.067346
  13 H :    0.037178
  14 H :    0.027060
  15 H :    0.025895
  16 S :    0.122954
  17 C :   -0.107021
  18 C :   -0.062991
  19 C :   -0.016719
  20 C :   -0.190794
  21 H :    0.036066
  22 C :    0.106358
  23 H :    0.020201
  24 H :    0.023027
  25 C :   -0.137642
  26 H :    0.034096
  27 H :    0.030319
  28 C :    0.004520
  29 H :    0.031515
  30 H :    0.029999
  31 H :    0.027738
  32 H :    0.067689
  33 H :    0.069062
Sum of atomic charges:   -0.0000000

LOEWDIN ATOMIC CHARGES
----------------------
   0 S :    0.408341
   1 C :   -0.206626
   2 C :   -0.075619
   3 C :   -0.070936
   4 C :   -0.194815
   5 H :    0.033317
   6 C :   -0.030351
   7 H :    0.038334
   8 H :    0.022912
   9 C :   -0.045348
  10 H :    0.031465
  11 H :    0.027948
  12 C :   -0.071563
  13 H :    0.031783
  14 H :    0.019437
  15 H :    0.024428
  16 S :    0.437041
  17 C :   -0.200747
  18 C :   -0.075044
  19 C :   -0.048514
  20 C :   -0.213644
  21 H :    0.036359
  22 C :   -0.035924
  23 H :    0.029782
  24 H :    0.031587
  25 C :   -0.044408
  26 H :    0.025584
  27 H :    0.025175
  28 C :   -0.058213
  29 H :    0.031370
  30 H :    0.027234
  31 H :    0.018814
  32 H :    0.040645
  33 H :    0.030196

  Mayer bond orders larger than 0.100000
B(  0-S ,  1-C ) :   1.1503 B(  0-S ,  4-C ) :   1.1574 B(  1-C ,  2-C ) :   1.6028
B(  1-C , 32-H ) :   0.9584 B(  2-C ,  3-C ) :   1.2577 B(  2-C ,  6-C ) :   1.0170
B(  3-C ,  4-C ) :   1.5797 B(  3-C ,  5-H ) :   0.9898 B(  4-C , 20-C ) :   1.0221
B(  6-C ,  7-H ) :   0.9352 B(  6-C ,  8-H ) :   0.9412 B(  6-C ,  9-C ) :   1.0652
B(  9-C , 10-H ) :   0.9503 B(  9-C , 11-H ) :   0.9575 B(  9-C , 12-C ) :   1.0880
B( 12-C , 13-H ) :   0.9724 B( 12-C , 14-H ) :   0.9737 B( 12-C , 15-H ) :   0.9734
B( 16-S , 17-C ) :   1.1794 B( 16-S , 20-C ) :   1.1885 B( 17-C , 18-C ) :   1.5502
B( 17-C , 20-C ) :   0.1152 B( 17-C , 33-H ) :   0.9720 B( 18-C , 19-C ) :   1.2835
B( 18-C , 21-H ) :   0.9815 B( 19-C , 20-C ) :   1.5055 B( 19-C , 22-C ) :   1.0636
B( 22-C , 23-H ) :   0.9224 B( 22-C , 24-H ) :   0.9179 B( 22-C , 25-C ) :   1.0731
B( 25-C , 26-H ) :   0.9488 B( 25-C , 27-H ) :   0.9500 B( 25-C , 28-C ) :   1.0927
B( 28-C , 29-H ) :   0.9714 B( 28-C , 30-H ) :   0.9693 B( 28-C , 31-H ) :   0.9728

Dispersion correction           -0.014485900
FINAL SINGLE POINT ENERGY     -1339.883339065356

DIPOLE MOMENT
-------------
                                X             Y             Z
Electronic contribution:    -27.36877      16.22255      -9.79784
Nuclear contribution   :     27.91874     -16.74207      10.04676
                        -----------------------------------------
Total Dipole Moment    :      0.54998      -0.51951       0.24893
                        -----------------------------------------
Magnitude (a.u.)       :      0.79645
Magnitude (Debye)      :      2.02441

Rotational constants in cm-1:     0.017514     0.009398     0.006722
Rotational constants in MHz :   525.053208   281.759824   201.512766

                             ****ORCA TERMINATED NORMALLY****
TOTAL RUN TIME: 0 days 0 hours 0 minutes 34 seconds 615 msec
