                         Program Version 4.2.1 -  RELEASE  -
|  1> ! wB97X-D3 SP def2-SVP
|  2> %pal
|  3> nprocs 16
|  4> end
|  5>
|  6> * xyz 0 1
|  7> S 	 -27.8745 	 58.0943 	 118.128
|  8> C 	 -29.3585 	 57.0918 	 118.185
|  9> C 	 -30.4737 	 57.9209 	 118.146
| 10> C 	 -30.1296 	 59.282 	 117.914
| 11> C 	 -28.802 	 59.5434 	 117.93
| 12> H 	 -30.8888 	 60.0481 	 117.787
| 13> C 	 -31.9366 	 57.44 	 118.04
| 14> H 	 -32.4623 	 58.0035 	 118.782
| 15> H 	 -32.0409 	 56.4525 	 118.524
| 16> C 	 -32.6255 	 57.6791 	 116.642
| 17> H 	 -33.7225 	 57.6294 	 116.836
| 18> H 	 -32.286 	 58.6449 	 116.309
| 19> C 	 -32.1788 	 56.642 	 115.555
| 20> H 	 -32.7178 	 55.6838 	 115.717
| 21> H 	 -32.406 	 57.0348 	 114.535
| 22> H 	 -31.1232 	 56.3654 	 115.558
| 23> S 	 -26.9531 	 61.1565 	 116.668
| 24> C 	 -26.7769 	 62.8143 	 117.192
| 25> C 	 -27.6666 	 63.2088 	 118.205
| 26> C 	 -28.4746 	 62.0421 	 118.534
| 27> C 	 -28.1924 	 60.8483 	 117.87
| 28> H 	 -27.6191 	 64.2249 	 118.611
| 29> C 	 -29.4586 	 62.1204 	 119.669
| 30> H 	 -30.378 	 61.6707 	 119.218
| 31> H 	 -29.722 	 63.1139 	 120.069
| 32> C 	 -29.1169 	 61.2999 	 120.931
| 33> H 	 -28.2402 	 61.7292 	 121.321
| 34> H 	 -28.8631 	 60.2909 	 120.626
| 35> C 	 -30.2126 	 61.2348 	 122.014
| 36> H 	 -30.9973 	 60.5714 	 121.618
| 37> H 	 -30.6663 	 62.2593 	 122.138
| 38> H 	 -29.9129 	 60.7658 	 122.98
| 39> H 	 -29.3278 	 56.0164 	 118.466
| 40> H 	 -26.0886 	 63.5487 	 116.889
| 41> *
| 42>
| 43>                          ****END OF INPUT****

CARTESIAN COORDINATES (ANGSTROEM)
---------------------------------
  S    -27.874500   58.094300  118.128000
  C    -29.358500   57.091800  118.185000
  C    -30.473700   57.920900  118.146000
  C    -30.129600   59.282000  117.914000
  C    -28.802000   59.543400  117.930000
  H    -30.888800   60.048100  117.787000
  C    -31.936600   57.440000  118.040000
  H    -32.462300   58.003500  118.782000
  H    -32.040900   56.452500  118.524000
  C    -32.625500   57.679100  116.642000
  H    -33.722500   57.629400  116.836000
  H    -32.286000   58.644900  116.309000
  C    -32.178800   56.642000  115.555000
  H    -32.717800   55.683800  115.717000
  H    -32.406000   57.034800  114.535000
  H    -31.123200   56.365400  115.558000
  S    -26.953100   61.156500  116.668000
  C    -26.776900   62.814300  117.192000
  C    -27.666600   63.208800  118.205000
  C    -28.474600   62.042100  118.534000
  C    -28.192400   60.848300  117.870000
  H    -27.619100   64.224900  118.611000
  C    -29.458600   62.120400  119.669000
  H    -30.378000   61.670700  119.218000
  H    -29.722000   63.113900  120.069000
  C    -29.116900   61.299900  120.931000
  H    -28.240200   61.729200  121.321000
  H    -28.863100   60.290900  120.626000
  C    -30.212600   61.234800  122.014000
  H    -30.997300   60.571400  121.618000
  H    -30.666300   62.259300  122.138000
  H    -29.912900   60.765800  122.980000
  H    -29.327800   56.016400  118.466000
  H    -26.088600   63.548700  116.889000

 Total Charge           Charge          ....    0
 Multiplicity           Mult            ....    1
 Number of Electrons    NEL             ....  134
 Basis Dimension        Dim             ....  322

ORBITAL ENERGIES
----------------

  NO   OCC          E(Eh)            E(eV)
   0   2.0000     -88.969235     -2420.9760
   1   2.0000     -88.967317     -2420.9238
   2   2.0000     -10.328948      -281.0650
   3   2.0000     -10.326371      -280.9948
   4   2.0000     -10.322882      -280.8999
   5   2.0000     -10.317403      -280.7508
   6   2.0000     -10.308945      -280.5207
   7   2.0000     -10.305444      -280.4254
   8   2.0000     -10.301415      -280.3157
   9   2.0000     -10.298366      -280.2328
  10   2.0000     -10.296236      -280.1748
  11   2.0000     -10.292342      -280.0689
  12   2.0000     -10.289281      -279.9856
  13   2.0000     -10.282817      -279.8097
  14   2.0000     -10.281994      -279.7873
  15   2.0000     -10.274718      -279.5893
  16   2.0000      -8.083663      -219.9677
  17   2.0000      -8.081854      -219.9184
  18   2.0000      -6.042204      -164.4167
  19   2.0000      -6.040429      -164.3684
  20   2.0000      -6.038164      -164.3068
  21   2.0000      -6.036367      -164.2579
  22   2.0000      -6.034457      -164.2059
  23   2.0000      -6.032557      -164.1542
  24   2.0000      -1.009293       -27.4643
  25   2.0000      -0.982957       -26.7476
  26   2.0000      -0.905152       -24.6304
  27   2.0000      -0.904633       -24.6163
  28   2.0000      -0.868793       -23.6411
  29   2.0000      -0.848338       -23.0845
  30   2.0000      -0.842332       -22.9210
  31   2.0000      -0.815758       -22.1979
  32   2.0000      -0.781952       -21.2780
  33   2.0000      -0.766574       -20.8596
  34   2.0000      -0.710855       -19.3433
  35   2.0000      -0.696894       -18.9634
  36   2.0000      -0.687720       -18.7138
  37   2.0000      -0.663669       -18.0593
  38   2.0000      -0.641567       -17.4579
  39   2.0000      -0.627657       -17.0794
  40   2.0000      -0.590295       -16.0627
  41   2.0000      -0.573089       -15.5945
  42   2.0000      -0.561515       -15.2796
  43   2.0000      -0.543953       -14.8017
  44   2.0000      -0.536200       -14.5907
  45   2.0000      -0.519236       -14.1291
  46   2.0000      -0.517682       -14.0869
  47   2.0000      -0.506195       -13.7743
  48   2.0000      -0.502937       -13.6856
  49   2.0000      -0.496695       -13.5158
  50   2.0000      -0.488195       -13.2845
  51   2.0000      -0.483717       -13.1626
  52   2.0000      -0.474747       -12.9185
  53   2.0000      -0.463602       -12.6153
  54   2.0000      -0.457231       -12.4419
  55   2.0000      -0.449203       -12.2234
  56   2.0000      -0.438358       -11.9283
  57   2.0000      -0.436008       -11.8644
  58   2.0000      -0.428081       -11.6487
  59   2.0000      -0.424564       -11.5530
  60   2.0000      -0.417491       -11.3605
  61   2.0000      -0.416680       -11.3384
  62   2.0000      -0.410467       -11.1694
  63   2.0000      -0.347488        -9.4556
  64   2.0000      -0.333954        -9.0873
  65   2.0000      -0.330250        -8.9866
  66   2.0000      -0.293975        -7.9995
  67   0.0000       0.027117         0.7379
  68   0.0000       0.068056         1.8519
  69   0.0000       0.110996         3.0203
  70   0.0000       0.114052         3.1035
  71   0.0000       0.134251         3.6532

MULLIKEN ATOMIC CHARGES
-----------------------
   0 S :    0.104133
   1 C :   -0.138658
   2 C :   -0.096220
   3 C :    0.006718
   4 C :   -0.137725
   5 H :    0.026109
   6 C :    0.056160
   7 H :    0.013705
   8 H :    0.017734
   9 C :   -0.054154
  10 H :    0.049077
  11 H :    0.031363
  12 C :   -0.075392
  13 H :    0.032090
  14 H :    0.041784
  15 H :    0.042312
  16 S :    0.118598
  17 C :   -0.066196
  18 C :   -0.052870
  19 C :   -0.026100
  20 C :   -0.145181
  21 H :    0.036385
  22 C :    0.037552
  23 H :    0.012590
  24 H :    0.016954
  25 C :   -0.043558
  26 H :    0.012795
  27 H :    0.029576
  28 C :   -0.066402
  29 H :    0.028321
  30 H :    0.033425
  31 H :    0.047741
  32 H :    0.071644
  33 H :    0.035691
Sum of atomic charges:   -0.0000000

LOEWDIN ATOMIC CHARGES
----------------------
   0 S :    0.395570
   1 C :   -0.191751
   2 C :   -0.061758
   3 C :   -0.066371
   4 C :   -0.198411
   5 H :    0.031948
   6 C :   -0.037137
   7 H :    0.026219
   8 H :    0.030253
   9 C :   -0.031128
  10 H :    0.032891
  11 H :    0.022214
  12 C :   -0.072850
  13 H :    0.026372
  14 H :    0.029655
  15 H :    0.026856
  16 S :    0.412564
  17 C :   -0.176843
  18 C :   -0.071026
  19 C :   -0.047542
  20 C :   -0.208858
  21 H :    0.041091
  22 C :   -0.038905
  23 H :    0.029065
  24 H :    0.026913
  25 C :   -0.036765
  26 H :    0.013907
  27 H :    0.022030
  28 C :   -0.071169
  29 H :    0.025310
  30 H :    0.026859
  31 H :    0.032252
  32 H :    0.037907
  33 H :    0.020637

  Mayer bond orders larger than 0.100000
B(  0-S ,  1-C ) :   1.1227 B(  0-S ,  4-C ) :   1.1503 B(  1-C ,  2-C ) :   1.6117
B(  1-C , 32-H ) :   0.9635 B(  2-C ,  3-C ) :   1.2344 B(  2-C ,  6-C ) :   1.0306
B(  3-C ,  4-C ) :   1.5821 B(  3-C ,  5-H ) :   0.9900 B(  4-C , 20-C ) :   1.0368
B(  6-C ,  7-H ) :   0.9312 B(  6-C ,  8-H ) :   0.9444 B(  6-C ,  9-C ) :   1.0535
B(  9-C , 10-H ) :   0.9581 B(  9-C , 11-H ) :   0.9591 B(  9-C , 12-C ) :   1.0643
B( 12-C , 13-H ) :   0.9776 B( 12-C , 14-H ) :   0.9774 B( 12-C , 15-H ) :   0.9783
B( 16-S , 17-C ) :   1.1685 B( 16-S , 20-C ) :   1.1204 B( 17-C , 18-C ) :   1.6122
B( 17-C , 33-H ) :   0.9664 B( 18-C , 19-C ) :   1.2318 B( 18-C , 21-H ) :   0.9911
B( 19-C , 20-C ) :   1.5939 B( 19-C , 22-C ) :   1.0484 B( 22-C , 23-H ) :   0.9270
B( 22-C , 24-H ) :   0.9411 B( 22-C , 25-C ) :   1.0601 B( 25-C , 26-H ) :   0.9548
B( 25-C , 27-H ) :   0.9546 B( 25-C , 28-C ) :   1.0787 B( 28-C , 29-H ) :   0.9754
B( 28-C , 30-H ) :   0.9741 B( 28-C , 31-H ) :   0.9740

Dispersion correction           -0.014985635
FINAL SINGLE POINT ENERGY     -1339.879656908954

DIPOLE MOMENT
-------------
                                X             Y             Z
Electronic contribution:     22.71723       3.00472      -8.89585
Nuclear contribution   :    -23.24129      -2.86830       9.16392
                        -----------------------------------------
Total Dipole Moment    :     -0.52406       0.13643       0.26807
                        -----------------------------------------
Magnitude (a.u.)       :      0.60424
Magnitude (Debye)      :      1.53587

Rotational constants in cm-1:     0.018251     0.009062     0.007505
Rotational constants in MHz :   547.147897   271.682214   224.998281

                             ****ORCA TERMINATED NORMALLY****
TOTAL RUN TIME: 0 days 0 hours 0 minutes 31 seconds 386 msec
