                         Program Version 4.2.1 -  RELEASE  -
|  1> ! wB97X-D3 SP def2-SVP
|  2> %pal
|  3> nprocs 16
|  4> end
|  5>
|  6> * xyz 0 1
|  7> S 	 -7.96498 	 47.6132 	 32.0472
|  8> C 	 -6.23427 	 47.0428 	 32.0651
|  9> C 	 -5.3377 	 48.126 	 31.9863
| 10> C 	 -6.02181 	 49.3936 	 31.9443
| 11> C 	 -7.35963 	 49.2439 	 32.1257
| 12> H 	 -5.5885 	 50.3779 	 31.8645
| 13> C 	 -3.83436 	 48.0563 	 31.7704
| 14> H 	 -3.76435 	 48.3179 	 30.6794
| 15> H 	 -3.55284 	 47.0095 	 31.9072
| 16> C 	 -2.97775 	 48.755 	 32.7317
| 17> H 	 -3.07691 	 49.8343 	 32.7482
| 18> H 	 -3.30675 	 48.3867 	 33.7396
| 19> C 	 -1.4869 	 48.4796 	 32.5573
| 20> H 	 -1.28422 	 47.4399 	 32.6617
| 21> H 	 -1.01042 	 48.9059 	 31.57
| 22> H 	 -0.904642 	 48.829 	 33.4273
| 23> S 	 -8.77989 	 50.9297 	 30.5795
| 24> C 	 -9.55723 	 52.3245 	 31.2941
| 25> C 	 -9.43495 	 52.3209 	 32.7099
| 26> C 	 -8.62739 	 51.2544 	 33.2397
| 27> C 	 -8.27856 	 50.3894 	 32.161
| 28> H 	 -9.90129 	 53.0361 	 33.3278
| 29> C 	 -8.34743 	 51.1063 	 34.7689
| 30> H 	 -9.039 	 50.2869 	 35.0614
| 31> H 	 -8.67887 	 51.9471 	 35.2633
| 32> C 	 -6.89167 	 50.917 	 35.2955
| 33> H 	 -6.38148 	 50.1415 	 34.8656
| 34> H 	 -6.94726 	 50.6838 	 36.3452
| 35> C 	 -6.0367 	 52.2094 	 35.1633
| 36> H 	 -6.47823 	 53.1733 	 35.5131
| 37> H 	 -5.78247 	 52.5866 	 34.1878
| 38> H 	 -5.0599 	 52.1637 	 35.673
| 39> H 	 -5.972 	 45.989 	 32.0514
| 40> H 	 -10.0251 	 53.112 	 30.8133
| 41> *
| 42>
| 43>                          ****END OF INPUT****

CARTESIAN COORDINATES (ANGSTROEM)
---------------------------------
  S     -7.964980   47.613200   32.047200
  C     -6.234270   47.042800   32.065100
  C     -5.337700   48.126000   31.986300
  C     -6.021810   49.393600   31.944300
  C     -7.359630   49.243900   32.125700
  H     -5.588500   50.377900   31.864500
  C     -3.834360   48.056300   31.770400
  H     -3.764350   48.317900   30.679400
  H     -3.552840   47.009500   31.907200
  C     -2.977750   48.755000   32.731700
  H     -3.076910   49.834300   32.748200
  H     -3.306750   48.386700   33.739600
  C     -1.486900   48.479600   32.557300
  H     -1.284220   47.439900   32.661700
  H     -1.010420   48.905900   31.570000
  H     -0.904642   48.829000   33.427300
  S     -8.779890   50.929700   30.579500
  C     -9.557230   52.324500   31.294100
  C     -9.434950   52.320900   32.709900
  C     -8.627390   51.254400   33.239700
  C     -8.278560   50.389400   32.161000
  H     -9.901290   53.036100   33.327800
  C     -8.347430   51.106300   34.768900
  H     -9.039000   50.286900   35.061400
  H     -8.678870   51.947100   35.263300
  C     -6.891670   50.917000   35.295500
  H     -6.381480   50.141500   34.865600
  H     -6.947260   50.683800   36.345200
  C     -6.036700   52.209400   35.163300
  H     -6.478230   53.173300   35.513100
  H     -5.782470   52.586600   34.187800
  H     -5.059900   52.163700   35.673000
  H     -5.972000   45.989000   32.051400
  H    -10.025100   53.112000   30.813300

 Total Charge           Charge          ....    0
 Multiplicity           Mult            ....    1
 Number of Electrons    NEL             ....  134
 Basis Dimension        Dim             ....  322

ORBITAL ENERGIES
----------------

  NO   OCC          E(Eh)            E(eV)
   0   2.0000     -88.969283     -2420.9773
   1   2.0000     -88.966240     -2420.8945
   2   2.0000     -10.323951      -280.9290
   3   2.0000     -10.322752      -280.8964
   4   2.0000     -10.320012      -280.8218
   5   2.0000     -10.313279      -280.6386
   6   2.0000     -10.310028      -280.5501
   7   2.0000     -10.305753      -280.4338
   8   2.0000     -10.295096      -280.1438
   9   2.0000     -10.292890      -280.0838
  10   2.0000     -10.292866      -280.0831
  11   2.0000     -10.289390      -279.9885
  12   2.0000     -10.287913      -279.9483
  13   2.0000     -10.285887      -279.8932
  14   2.0000     -10.283738      -279.8347
  15   2.0000     -10.277610      -279.6680
  16   2.0000      -8.083612      -219.9663
  17   2.0000      -8.080082      -219.8702
  18   2.0000      -6.042009      -164.4114
  19   2.0000      -6.038620      -164.3192
  20   2.0000      -6.038095      -164.3049
  21   2.0000      -6.034965      -164.2198
  22   2.0000      -6.034611      -164.2101
  23   2.0000      -6.030625      -164.1016
  24   2.0000      -0.999898       -27.2086
  25   2.0000      -0.973861       -26.5001
  26   2.0000      -0.919804       -25.0291
  27   2.0000      -0.901879       -24.5414
  28   2.0000      -0.862999       -23.4834
  29   2.0000      -0.847746       -23.0683
  30   2.0000      -0.845041       -22.9947
  31   2.0000      -0.807834       -21.9823
  32   2.0000      -0.784120       -21.3370
  33   2.0000      -0.770937       -20.9783
  34   2.0000      -0.714631       -19.4461
  35   2.0000      -0.699027       -19.0215
  36   2.0000      -0.687971       -18.7206
  37   2.0000      -0.662707       -18.0332
  38   2.0000      -0.640083       -17.4175
  39   2.0000      -0.618423       -16.8282
  40   2.0000      -0.591549       -16.0969
  41   2.0000      -0.575133       -15.6502
  42   2.0000      -0.556724       -15.1492
  43   2.0000      -0.549782       -14.9603
  44   2.0000      -0.539738       -14.6870
  45   2.0000      -0.522368       -14.2144
  46   2.0000      -0.513631       -13.9766
  47   2.0000      -0.510875       -13.9016
  48   2.0000      -0.502400       -13.6710
  49   2.0000      -0.491364       -13.3707
  50   2.0000      -0.482818       -13.1381
  51   2.0000      -0.477066       -12.9816
  52   2.0000      -0.470172       -12.7940
  53   2.0000      -0.459664       -12.5081
  54   2.0000      -0.457990       -12.4625
  55   2.0000      -0.449149       -12.2220
  56   2.0000      -0.439674       -11.9641
  57   2.0000      -0.438386       -11.9291
  58   2.0000      -0.434668       -11.8279
  59   2.0000      -0.429047       -11.6750
  60   2.0000      -0.420838       -11.4516
  61   2.0000      -0.418358       -11.3841
  62   2.0000      -0.415861       -11.3161
  63   2.0000      -0.337359        -9.1800
  64   2.0000      -0.327145        -8.9021
  65   2.0000      -0.313604        -8.5336
  66   2.0000      -0.305534        -8.3140
  67   0.0000       0.046965         1.2780
  68   0.0000       0.049773         1.3544
  69   0.0000       0.104789         2.8515
  70   0.0000       0.117604         3.2002
  71   0.0000       0.126128         3.4321

MULLIKEN ATOMIC CHARGES
-----------------------
   0 S :    0.102637
   1 C :   -0.130772
   2 C :   -0.097633
   3 C :    0.049992
   4 C :   -0.166915
   5 H :    0.020193
   6 C :    0.083385
   7 H :    0.054997
   8 H :    0.005495
   9 C :   -0.080731
  10 H :    0.029781
  11 H :    0.032878
  12 C :   -0.063351
  13 H :    0.016020
  14 H :    0.054728
  15 H :    0.032615
  16 S :    0.134975
  17 C :   -0.065887
  18 C :   -0.034613
  19 C :   -0.025819
  20 C :   -0.212928
  21 H :    0.000644
  22 C :    0.093579
  23 H :    0.052838
  24 H :   -0.006734
  25 C :    0.014465
  26 H :    0.022838
  27 H :    0.025752
  28 C :   -0.090918
  29 H :    0.017113
  30 H :    0.020557
  31 H :    0.033195
  32 H :    0.048122
  33 H :    0.029502
Sum of atomic charges:   -0.0000000

LOEWDIN ATOMIC CHARGES
----------------------
   0 S :    0.377741
   1 C :   -0.185189
   2 C :   -0.054838
   3 C :   -0.059628
   4 C :   -0.200360
   5 H :    0.034400
   6 C :   -0.038470
   7 H :    0.043057
   8 H :    0.030048
   9 C :   -0.049440
  10 H :    0.020421
  11 H :    0.034676
  12 C :   -0.073728
  13 H :    0.017078
  14 H :    0.039024
  15 H :    0.030434
  16 S :    0.426061
  17 C :   -0.186382
  18 C :   -0.063134
  19 C :   -0.048675
  20 C :   -0.211091
  21 H :    0.020727
  22 C :   -0.019859
  23 H :    0.043865
  24 H :    0.017771
  25 C :   -0.022299
  26 H :    0.014061
  27 H :    0.029318
  28 C :   -0.079746
  29 H :    0.026156
  30 H :    0.020599
  31 H :    0.028296
  32 H :    0.025285
  33 H :    0.013821

  Mayer bond orders larger than 0.100000
B(  0-S ,  1-C ) :   1.1093 B(  0-S ,  4-C ) :   1.1521 B(  1-C ,  2-C ) :   1.6378
B(  1-C , 32-H ) :   0.9699 B(  2-C ,  3-C ) :   1.1917 B(  2-C ,  6-C ) :   1.0261
B(  3-C ,  4-C ) :   1.6212 B(  3-C ,  5-H ) :   0.9949 B(  4-C , 20-C ) :   0.9873
B(  6-C ,  7-H ) :   0.9336 B(  6-C ,  8-H ) :   0.9334 B(  6-C ,  9-C ) :   1.0662
B(  9-C , 10-H ) :   0.9523 B(  9-C , 11-H ) :   0.9473 B(  9-C , 12-C ) :   1.0955
B( 12-C , 13-H ) :   0.9700 B( 12-C , 14-H ) :   0.9720 B( 12-C , 15-H ) :   0.9712
B( 16-S , 17-C ) :   1.1569 B( 16-S , 20-C ) :   1.1767 B( 17-C , 18-C ) :   1.5873
B( 17-C , 20-C ) :   0.1090 B( 17-C , 33-H ) :   0.9768 B( 18-C , 19-C ) :   1.2687
B( 18-C , 21-H ) :   0.9872 B( 19-C , 20-C ) :   1.5720 B( 19-C , 22-C ) :   1.0210
B( 22-C , 23-H ) :   0.9366 B( 22-C , 24-H ) :   0.9336 B( 22-C , 25-C ) :   1.0708
B( 25-C , 26-H ) :   0.9584 B( 25-C , 27-H ) :   0.9506 B( 25-C , 28-C ) :   1.0610
B( 28-C , 29-H ) :   0.9737 B( 28-C , 30-H ) :   0.9772 B( 28-C , 31-H ) :   0.9766

Dispersion correction           -0.014936827
FINAL SINGLE POINT ENERGY     -1339.856724877772

DIPOLE MOMENT
-------------
                                X             Y             Z
Electronic contribution:    -24.83524      -5.20603     -15.49617
Nuclear contribution   :     25.33661       5.42241      15.83306
                        -----------------------------------------
Total Dipole Moment    :      0.50137       0.21638       0.33689
                        -----------------------------------------
Magnitude (a.u.)       :      0.64162
Magnitude (Debye)      :      1.63088

Rotational constants in cm-1:     0.017953     0.009054     0.007433
Rotational constants in MHz :   538.207852   271.430529   222.848995

                             ****ORCA TERMINATED NORMALLY****
TOTAL RUN TIME: 0 days 0 hours 0 minutes 32 seconds 698 msec
