                         Program Version 4.2.1 -  RELEASE  -
|  1> ! wB97X-D3 SP def2-SVP
|  2> %pal
|  3> nprocs 16
|  4> end
|  5>
|  6> * xyz 0 1
|  7> S 	 -78.9681 	 49.2726 	 135.589
|  8> C 	 -78.3274 	 47.8507 	 136.477
|  9> C 	 -77.0104 	 48.0052 	 136.875
| 10> C 	 -76.5972 	 49.3062 	 136.56
| 11> C 	 -77.481 	 50.0764 	 135.823
| 12> H 	 -75.6216 	 49.5978 	 136.885
| 13> C 	 -76.104 	 47.0845 	 137.725
| 14> H 	 -76.6325 	 46.1652 	 138.104
| 15> H 	 -75.7008 	 47.6354 	 138.647
| 16> C 	 -74.789 	 46.7088 	 137.065
| 17> H 	 -74.9565 	 46.3135 	 136.075
| 18> H 	 -74.3618 	 47.6449 	 136.865
| 19> C 	 -73.9118 	 45.862 	 137.974
| 20> H 	 -73.0113 	 45.3936 	 137.443
| 21> H 	 -73.5823 	 46.3192 	 138.927
| 22> H 	 -74.4908 	 44.9938 	 138.279
| 23> S 	 -78.5901 	 52.5292 	 135.338
| 24> C 	 -77.8173 	 53.8587 	 134.668
| 25> C 	 -76.4945 	 53.5565 	 134.683
| 26> C 	 -76.1682 	 52.1925 	 134.934
| 27> C 	 -77.2563 	 51.4189 	 135.291
| 28> H 	 -75.7997 	 54.2766 	 134.418
| 29> C 	 -74.7734 	 51.6976 	 134.842
| 30> H 	 -74.307 	 52.003 	 133.918
| 31> H 	 -74.9165 	 50.6884 	 134.63
| 32> C 	 -73.7757 	 51.9527 	 135.985
| 33> H 	 -73.1163 	 51.1433 	 135.791
| 34> H 	 -74.3738 	 51.6316 	 136.794
| 35> C 	 -73.1387 	 53.3475 	 136.094
| 36> H 	 -73.8433 	 54.1587 	 135.956
| 37> H 	 -72.4895 	 53.5743 	 135.245
| 38> H 	 -72.7608 	 53.5831 	 137.099
| 39> H 	 -78.8764 	 46.9809 	 136.662
| 40> H 	 -78.2585 	 54.8535 	 134.632
| 41> *
| 42>
| 43>                          ****END OF INPUT****

CARTESIAN COORDINATES (ANGSTROEM)
---------------------------------
  S    -78.968100   49.272600  135.589000
  C    -78.327400   47.850700  136.477000
  C    -77.010400   48.005200  136.875000
  C    -76.597200   49.306200  136.560000
  C    -77.481000   50.076400  135.823000
  H    -75.621600   49.597800  136.885000
  C    -76.104000   47.084500  137.725000
  H    -76.632500   46.165200  138.104000
  H    -75.700800   47.635400  138.647000
  C    -74.789000   46.708800  137.065000
  H    -74.956500   46.313500  136.075000
  H    -74.361800   47.644900  136.865000
  C    -73.911800   45.862000  137.974000
  H    -73.011300   45.393600  137.443000
  H    -73.582300   46.319200  138.927000
  H    -74.490800   44.993800  138.279000
  S    -78.590100   52.529200  135.338000
  C    -77.817300   53.858700  134.668000
  C    -76.494500   53.556500  134.683000
  C    -76.168200   52.192500  134.934000
  C    -77.256300   51.418900  135.291000
  H    -75.799700   54.276600  134.418000
  C    -74.773400   51.697600  134.842000
  H    -74.307000   52.003000  133.918000
  H    -74.916500   50.688400  134.630000
  C    -73.775700   51.952700  135.985000
  H    -73.116300   51.143300  135.791000
  H    -74.373800   51.631600  136.794000
  C    -73.138700   53.347500  136.094000
  H    -73.843300   54.158700  135.956000
  H    -72.489500   53.574300  135.245000
  H    -72.760800   53.583100  137.099000
  H    -78.876400   46.980900  136.662000
  H    -78.258500   54.853500  134.632000

 Total Charge           Charge          ....    0
 Multiplicity           Mult            ....    1
 Number of Electrons    NEL             ....  134
 Basis Dimension        Dim             ....  322

ORBITAL ENERGIES
----------------

  NO   OCC          E(Eh)            E(eV)
   0   2.0000     -88.972774     -2421.0723
   1   2.0000     -88.955961     -2420.6148
   2   2.0000     -10.332640      -281.1654
   3   2.0000     -10.326119      -280.9880
   4   2.0000     -10.316080      -280.7148
   5   2.0000     -10.310785      -280.5707
   6   2.0000     -10.306509      -280.4544
   7   2.0000     -10.303999      -280.3861
   8   2.0000     -10.296492      -280.1818
   9   2.0000     -10.291148      -280.0364
  10   2.0000     -10.288918      -279.9757
  11   2.0000     -10.283547      -279.8295
  12   2.0000     -10.283280      -279.8223
  13   2.0000     -10.282777      -279.8086
  14   2.0000     -10.282435      -279.7993
  15   2.0000     -10.276536      -279.6388
  16   2.0000      -8.087341      -220.0677
  17   2.0000      -8.072950      -219.6761
  18   2.0000      -6.045833      -164.5155
  19   2.0000      -6.041936      -164.4094
  20   2.0000      -6.038046      -164.3036
  21   2.0000      -6.031244      -164.1185
  22   2.0000      -6.027015      -164.0034
  23   2.0000      -6.023882      -163.9182
  24   2.0000      -1.018377       -27.7114
  25   2.0000      -0.994656       -27.0660
  26   2.0000      -0.919957       -25.0333
  27   2.0000      -0.915380       -24.9088
  28   2.0000      -0.876823       -23.8596
  29   2.0000      -0.855531       -23.2802
  30   2.0000      -0.844643       -22.9839
  31   2.0000      -0.815124       -22.1807
  32   2.0000      -0.788820       -21.4649
  33   2.0000      -0.780577       -21.2406
  34   2.0000      -0.716339       -19.4926
  35   2.0000      -0.705644       -19.2015
  36   2.0000      -0.699804       -19.0426
  37   2.0000      -0.666255       -18.1297
  38   2.0000      -0.641154       -17.4467
  39   2.0000      -0.632815       -17.2198
  40   2.0000      -0.603128       -16.4119
  41   2.0000      -0.576818       -15.6960
  42   2.0000      -0.567512       -15.4428
  43   2.0000      -0.555788       -15.1238
  44   2.0000      -0.538223       -14.6458
  45   2.0000      -0.527077       -14.3425
  46   2.0000      -0.518128       -14.0990
  47   2.0000      -0.512175       -13.9370
  48   2.0000      -0.507341       -13.8054
  49   2.0000      -0.500537       -13.6203
  50   2.0000      -0.496819       -13.5191
  51   2.0000      -0.489279       -13.3140
  52   2.0000      -0.477268       -12.9871
  53   2.0000      -0.471829       -12.8391
  54   2.0000      -0.463830       -12.6215
  55   2.0000      -0.456421       -12.4199
  56   2.0000      -0.440149       -11.9770
  57   2.0000      -0.436623       -11.8811
  58   2.0000      -0.432844       -11.7783
  59   2.0000      -0.426756       -11.6126
  60   2.0000      -0.420863       -11.4523
  61   2.0000      -0.419639       -11.4189
  62   2.0000      -0.405341       -11.0299
  63   2.0000      -0.358162        -9.7461
  64   2.0000      -0.338034        -9.1984
  65   2.0000      -0.322485        -8.7753
  66   2.0000      -0.290510        -7.9052
  67   0.0000       0.023930         0.6512
  68   0.0000       0.081267         2.2114
  69   0.0000       0.105409         2.8683
  70   0.0000       0.117786         3.2051
  71   0.0000       0.133869         3.6427

MULLIKEN ATOMIC CHARGES
-----------------------
   0 S :    0.126710
   1 C :   -0.117449
   2 C :   -0.030480
   3 C :   -0.004463
   4 C :   -0.105395
   5 H :   -0.013184
   6 C :   -0.000097
   7 H :    0.030131
   8 H :    0.043674
   9 C :   -0.042480
  10 H :    0.027337
  11 H :    0.005216
  12 C :   -0.055926
  13 H :    0.048682
  14 H :    0.038385
  15 H :    0.022144
  16 S :    0.075907
  17 C :   -0.071664
  18 C :   -0.017776
  19 C :   -0.084114
  20 C :   -0.100853
  21 H :   -0.012285
  22 C :    0.042312
  23 H :    0.005981
  24 H :   -0.000516
  25 C :   -0.006210
  26 H :    0.021302
  27 H :    0.015670
  28 C :   -0.020043
  29 H :    0.012127
  30 H :    0.032144
  31 H :    0.043006
  32 H :    0.021054
  33 H :    0.071150
Sum of atomic charges:    0.0000000

LOEWDIN ATOMIC CHARGES
----------------------
   0 S :    0.419958
   1 C :   -0.171964
   2 C :   -0.059597
   3 C :   -0.063139
   4 C :   -0.203591
   5 H :    0.021195
   6 C :   -0.032743
   7 H :    0.029136
   8 H :    0.041236
   9 C :   -0.044264
  10 H :    0.024704
  11 H :    0.013743
  12 C :   -0.071519
  13 H :    0.038029
  14 H :    0.028999
  15 H :    0.023680
  16 S :    0.430797
  17 C :   -0.204356
  18 C :   -0.070594
  19 C :   -0.063511
  20 C :   -0.198583
  21 H :    0.014917
  22 C :   -0.035813
  23 H :    0.025653
  24 H :    0.023751
  25 C :   -0.031811
  26 H :    0.025149
  27 H :    0.017377
  28 C :   -0.069600
  29 H :    0.025216
  30 H :    0.030678
  31 H :    0.034337
  32 H :    0.014129
  33 H :    0.038401

  Mayer bond orders larger than 0.100000
B(  0-S ,  1-C ) :   1.1361 B(  0-S ,  4-C ) :   1.1651 B(  1-C ,  2-C ) :   1.6048
B(  1-C ,  4-C ) :   0.1010 B(  1-C , 32-H ) :   0.9730 B(  2-C ,  3-C ) :   1.2674
B(  2-C ,  6-C ) :   1.0181 B(  3-C ,  4-C ) :   1.5364 B(  3-C ,  5-H ) :   0.9951
B(  4-C , 20-C ) :   1.0331 B(  6-C ,  7-H ) :   0.9485 B(  6-C ,  8-H ) :   0.9491
B(  6-C ,  9-C ) :   1.0414 B(  9-C , 10-H ) :   0.9517 B(  9-C , 11-H ) :   0.9534
B(  9-C , 12-C ) :   1.0819 B( 12-C , 13-H ) :   0.9734 B( 12-C , 14-H ) :   0.9722
B( 12-C , 15-H ) :   0.9727 B( 16-S , 17-C ) :   1.1794 B( 16-S , 20-C ) :   1.1580
B( 17-C , 18-C ) :   1.5549 B( 17-C , 33-H ) :   0.9676 B( 18-C , 19-C ) :   1.2776
B( 18-C , 21-H ) :   1.0017 B( 19-C , 20-C ) :   1.5587 B( 19-C , 22-C ) :   1.0578
B( 22-C , 23-H ) :   0.9243 B( 22-C , 24-H ) :   0.9242 B( 22-C , 25-C ) :   1.0580
B( 25-C , 26-H ) :   0.9559 B( 25-C , 27-H ) :   0.9494 B( 25-C , 28-C ) :   1.0712
B( 28-C , 29-H ) :   0.9701 B( 28-C , 30-H ) :   0.9721 B( 28-C , 31-H ) :   0.9722

Dispersion correction           -0.014150866
FINAL SINGLE POINT ENERGY     -1339.855731703291

DIPOLE MOMENT
-------------
                                X             Y             Z
Electronic contribution:    -29.36843       8.84729      -8.59551
Nuclear contribution   :     30.04247      -8.93875       8.82450
                        -----------------------------------------
Total Dipole Moment    :      0.67404      -0.09146       0.22898
                        -----------------------------------------
Magnitude (a.u.)       :      0.71773
Magnitude (Debye)      :      1.82432

Rotational constants in cm-1:     0.017779     0.009276     0.006315
Rotational constants in MHz :   533.014003   278.075063   189.323459

                             ****ORCA TERMINATED NORMALLY****
TOTAL RUN TIME: 0 days 0 hours 0 minutes 35 seconds 862 msec
