                         Program Version 4.2.1 -  RELEASE  -
|  1> ! wB97X-D3 SP def2-SVP
|  2> %pal
|  3> nprocs 16
|  4> end
|  5>
|  6> * xyz 0 1
|  7> S 	 -2.16939 	 30.5288 	 55.6693
|  8> C 	 -0.503943 	 30.4646 	 56.1844
|  9> C 	 0.334541 	 30.43 	 55.1017
| 10> C 	 -0.406411 	 30.2199 	 53.868
| 11> C 	 -1.7623 	 30.2797 	 54.0682
| 12> H 	 -0.0719732 	 30.083 	 52.8375
| 13> C 	 1.83261 	 30.2628 	 55.1227
| 14> H 	 2.385 	 31.0601 	 55.7124
| 15> H 	 2.18204 	 30.5961 	 54.1148
| 16> C 	 2.51809 	 28.8943 	 55.2063
| 17> H 	 3.63503 	 29.0259 	 55.2254
| 18> H 	 2.25078 	 28.4706 	 56.2276
| 19> C 	 2.29677 	 27.9052 	 53.9192
| 20> H 	 1.22292 	 27.642 	 53.828
| 21> H 	 2.61049 	 28.4308 	 52.9582
| 22> H 	 2.9899 	 26.9556 	 54.0576
| 23> S 	 -4.24899 	 29.1606 	 53.1891
| 24> C 	 -4.77228 	 29.479 	 51.575
| 25> C 	 -4.00395 	 30.4609 	 50.9423
| 26> C 	 -2.82419 	 30.8237 	 51.7468
| 27> C 	 -2.78845 	 30.2171 	 53.0233
| 28> H 	 -4.16616 	 30.8014 	 49.9381
| 29> C 	 -1.68168 	 31.6911 	 51.1925
| 30> H 	 -1.52726 	 31.4209 	 50.1317
| 31> H 	 -0.758738 	 31.4935 	 51.655
| 32> C 	 -2.03176 	 33.1733 	 51.3291
| 33> H 	 -3.07935 	 33.2659 	 51.4435
| 34> H 	 -1.78703 	 33.811 	 50.4651
| 35> C 	 -1.41742 	 33.7905 	 52.5385
| 36> H 	 -1.73139 	 34.8309 	 52.3825
| 37> H 	 -0.338683 	 33.7532 	 52.6131
| 38> H 	 -1.8729 	 33.4444 	 53.4452
| 39> H 	 -0.0940616 	 30.5643 	 57.1696
| 40> H 	 -5.66339 	 29.125 	 51.1425
| 41> *
| 42>
| 43>                          ****END OF INPUT****

CARTESIAN COORDINATES (ANGSTROEM)
---------------------------------
  S     -2.169390   30.528800   55.669300
  C     -0.503943   30.464600   56.184400
  C      0.334541   30.430000   55.101700
  C     -0.406411   30.219900   53.868000
  C     -1.762300   30.279700   54.068200
  H     -0.071973   30.083000   52.837500
  C      1.832610   30.262800   55.122700
  H      2.385000   31.060100   55.712400
  H      2.182040   30.596100   54.114800
  C      2.518090   28.894300   55.206300
  H      3.635030   29.025900   55.225400
  H      2.250780   28.470600   56.227600
  C      2.296770   27.905200   53.919200
  H      1.222920   27.642000   53.828000
  H      2.610490   28.430800   52.958200
  H      2.989900   26.955600   54.057600
  S     -4.248990   29.160600   53.189100
  C     -4.772280   29.479000   51.575000
  C     -4.003950   30.460900   50.942300
  C     -2.824190   30.823700   51.746800
  C     -2.788450   30.217100   53.023300
  H     -4.166160   30.801400   49.938100
  C     -1.681680   31.691100   51.192500
  H     -1.527260   31.420900   50.131700
  H     -0.758738   31.493500   51.655000
  C     -2.031760   33.173300   51.329100
  H     -3.079350   33.265900   51.443500
  H     -1.787030   33.811000   50.465100
  C     -1.417420   33.790500   52.538500
  H     -1.731390   34.830900   52.382500
  H     -0.338683   33.753200   52.613100
  H     -1.872900   33.444400   53.445200
  H     -0.094062   30.564300   57.169600
  H     -5.663390   29.125000   51.142500

 Total Charge           Charge          ....    0
 Multiplicity           Mult            ....    1
 Number of Electrons    NEL             ....  134
 Basis Dimension        Dim             ....  322

ORBITAL ENERGIES
----------------

  NO   OCC          E(Eh)            E(eV)
   0   2.0000     -88.968665     -2420.9605
   1   2.0000     -88.967250     -2420.9219
   2   2.0000     -10.333793      -281.1968
   3   2.0000     -10.325211      -280.9633
   4   2.0000     -10.320234      -280.8278
   5   2.0000     -10.313013      -280.6313
   6   2.0000     -10.312592      -280.6199
   7   2.0000     -10.304732      -280.4060
   8   2.0000     -10.303777      -280.3800
   9   2.0000     -10.301428      -280.3161
  10   2.0000     -10.300994      -280.3043
  11   2.0000     -10.298266      -280.2301
  12   2.0000     -10.294079      -280.1161
  13   2.0000     -10.286963      -279.9225
  14   2.0000     -10.275762      -279.6177
  15   2.0000     -10.265485      -279.3380
  16   2.0000      -8.084892      -220.0011
  17   2.0000      -8.081404      -219.9062
  18   2.0000      -6.043328      -164.4473
  19   2.0000      -6.040040      -164.3578
  20   2.0000      -6.039127      -164.3330
  21   2.0000      -6.035897      -164.2451
  22   2.0000      -6.035686      -164.2394
  23   2.0000      -6.032165      -164.1435
  24   2.0000      -1.013409       -27.5763
  25   2.0000      -0.981140       -26.6982
  26   2.0000      -0.913715       -24.8634
  27   2.0000      -0.906055       -24.6550
  28   2.0000      -0.867326       -23.6012
  29   2.0000      -0.849113       -23.1055
  30   2.0000      -0.839603       -22.8468
  31   2.0000      -0.812626       -22.1127
  32   2.0000      -0.781560       -21.2673
  33   2.0000      -0.772198       -21.0126
  34   2.0000      -0.701662       -19.0932
  35   2.0000      -0.700031       -19.0488
  36   2.0000      -0.693381       -18.8678
  37   2.0000      -0.659271       -17.9397
  38   2.0000      -0.643315       -17.5055
  39   2.0000      -0.614109       -16.7108
  40   2.0000      -0.597836       -16.2679
  41   2.0000      -0.573038       -15.5932
  42   2.0000      -0.558788       -15.2054
  43   2.0000      -0.542119       -14.7518
  44   2.0000      -0.539110       -14.6699
  45   2.0000      -0.529428       -14.4065
  46   2.0000      -0.519382       -14.1331
  47   2.0000      -0.507576       -13.8119
  48   2.0000      -0.504649       -13.7322
  49   2.0000      -0.499429       -13.5902
  50   2.0000      -0.486112       -13.2278
  51   2.0000      -0.477625       -12.9968
  52   2.0000      -0.468627       -12.7520
  53   2.0000      -0.467611       -12.7243
  54   2.0000      -0.464644       -12.6436
  55   2.0000      -0.449197       -12.2233
  56   2.0000      -0.442443       -12.0395
  57   2.0000      -0.439368       -11.9558
  58   2.0000      -0.431166       -11.7326
  59   2.0000      -0.417227       -11.3533
  60   2.0000      -0.412835       -11.2338
  61   2.0000      -0.409621       -11.1464
  62   2.0000      -0.405200       -11.0260
  63   2.0000      -0.351065        -9.5530
  64   2.0000      -0.333206        -9.0670
  65   2.0000      -0.327979        -8.9247
  66   2.0000      -0.294769        -8.0211
  67   0.0000       0.030396         0.8271
  68   0.0000       0.071106         1.9349
  69   0.0000       0.105231         2.8635
  70   0.0000       0.115696         3.1483
  71   0.0000       0.130295         3.5455

MULLIKEN ATOMIC CHARGES
-----------------------
   0 S :    0.126395
   1 C :   -0.097470
   2 C :   -0.067591
   3 C :    0.001149
   4 C :   -0.144139
   5 H :    0.024343
   6 C :    0.020186
   7 H :    0.040871
   8 H :    0.006237
   9 C :   -0.078243
  10 H :    0.039613
  11 H :    0.039202
  12 C :   -0.126852
  13 H :    0.064500
  14 H :    0.043733
  15 H :    0.061535
  16 S :    0.102373
  17 C :   -0.064843
  18 C :   -0.021536
  19 C :   -0.078436
  20 C :   -0.147762
  21 H :    0.018790
  22 C :    0.105579
  23 H :    0.026305
  24 H :   -0.010076
  25 C :   -0.068497
  26 H :    0.020829
  27 H :    0.024290
  28 C :   -0.035060
  29 H :    0.023602
  30 H :    0.031961
  31 H :    0.032774
  32 H :    0.038724
  33 H :    0.047517
Sum of atomic charges:   -0.0000000

LOEWDIN ATOMIC CHARGES
----------------------
   0 S :    0.444469
   1 C :   -0.195313
   2 C :   -0.063964
   3 C :   -0.068160
   4 C :   -0.217653
   5 H :    0.032749
   6 C :   -0.056284
   7 H :    0.039372
   8 H :    0.030914
   9 C :   -0.046412
  10 H :    0.030321
  11 H :    0.025751
  12 C :   -0.083567
  13 H :    0.028542
  14 H :    0.028993
  15 H :    0.041580
  16 S :    0.389146
  17 C :   -0.178379
  18 C :   -0.069608
  19 C :   -0.040729
  20 C :   -0.194320
  21 H :    0.029141
  22 C :   -0.028293
  23 H :    0.033863
  24 H :    0.016168
  25 C :   -0.040068
  26 H :    0.021749
  27 H :    0.023455
  28 C :   -0.058293
  29 H :    0.029509
  30 H :    0.020507
  31 H :    0.023012
  32 H :    0.028968
  33 H :    0.022833

  Mayer bond orders larger than 0.100000
B(  0-S ,  1-C ) :   1.1324 B(  0-S ,  4-C ) :   1.1718 B(  1-C ,  2-C ) :   1.6207
B(  1-C , 32-H ) :   0.9735 B(  2-C ,  3-C ) :   1.2108 B(  2-C ,  6-C ) :   1.0405
B(  3-C ,  4-C ) :   1.5816 B(  3-C ,  5-H ) :   0.9877 B(  4-C , 20-C ) :   1.0263
B(  6-C ,  7-H ) :   0.9386 B(  6-C ,  8-H ) :   0.9317 B(  6-C ,  9-C ) :   1.0635
B(  9-C , 10-H ) :   0.9531 B(  9-C , 11-H ) :   0.9586 B(  9-C , 12-C ) :   1.0533
B( 12-C , 13-H ) :   0.9758 B( 12-C , 14-H ) :   0.9721 B( 12-C , 15-H ) :   0.9744
B( 16-S , 17-C ) :   1.1654 B( 16-S , 20-C ) :   1.1125 B( 17-C , 18-C ) :   1.6072
B( 17-C , 33-H ) :   0.9705 B( 18-C , 19-C ) :   1.2331 B( 18-C , 21-H ) :   0.9887
B( 19-C , 20-C ) :   1.6008 B( 19-C , 22-C ) :   1.0487 B( 22-C , 23-H ) :   0.9338
B( 22-C , 24-H ) :   0.9411 B( 22-C , 25-C ) :   1.0455 B( 25-C , 26-H ) :   0.9569
B( 25-C , 27-H ) :   0.9564 B( 25-C , 28-C ) :   1.0944 B( 28-C , 29-H ) :   0.9726
B( 28-C , 30-H ) :   0.9750 B( 28-C , 31-H ) :   0.9723

Dispersion correction           -0.015409114
FINAL SINGLE POINT ENERGY     -1339.863127881143

DIPOLE MOMENT
-------------
                                X             Y             Z
Electronic contribution:    -22.53110      -6.79034       7.71784
Nuclear contribution   :     22.97199       7.00661      -8.15012
                        -----------------------------------------
Total Dipole Moment    :      0.44089       0.21627      -0.43227
                        -----------------------------------------
Magnitude (a.u.)       :      0.65423
Magnitude (Debye)      :      1.66293

Rotational constants in cm-1:     0.018766     0.008912     0.007997
Rotational constants in MHz :   562.595609   267.168881   239.740967

                             ****ORCA TERMINATED NORMALLY****
TOTAL RUN TIME: 0 days 0 hours 0 minutes 36 seconds 446 msec
