                         Program Version 4.2.1 -  RELEASE  -
|  1> ! wB97X-D3 SP def2-SVP
|  2> %pal
|  3> nprocs 16
|  4> end
|  5>
|  6> * xyz 0 1
|  7> S 	 9.80355 	 -9.54758 	 93.6765
|  8> C 	 9.37144 	 -8.33763 	 94.8685
|  9> C 	 9.77933 	 -7.06295 	 94.4428
| 10> C 	 10.3522 	 -7.09968 	 93.151
| 11> C 	 10.3997 	 -8.35701 	 92.5199
| 12> H 	 10.707 	 -6.22703 	 92.5676
| 13> C 	 9.809 	 -5.80432 	 95.3147
| 14> H 	 8.82749 	 -5.31476 	 95.0972
| 15> H 	 10.6496 	 -5.17772 	 94.9698
| 16> C 	 9.93771 	 -6.10693 	 96.8279
| 17> H 	 9.09142 	 -6.62256 	 97.2265
| 18> H 	 10.8082 	 -6.75672 	 96.9953
| 19> C 	 10.3142 	 -4.81455 	 97.6512
| 20> H 	 9.56945 	 -4.04766 	 97.8895
| 21> H 	 10.8108 	 -5.04537 	 98.5677
| 22> H 	 11.0628 	 -4.22245 	 97.2251
| 23> S 	 12.3615 	 -8.81097 	 90.5646
| 24> C 	 11.8408 	 -8.89134 	 88.879
| 25> C 	 10.468 	 -8.9307 	 88.8372
| 26> C 	 9.84535 	 -8.78587 	 90.1004
| 27> C 	 10.6767 	 -8.57914 	 91.1311
| 28> H 	 9.98775 	 -8.87987 	 87.8807
| 29> C 	 8.32178 	 -8.70325 	 90.283
| 30> H 	 8.17236 	 -8.12194 	 91.1714
| 31> H 	 7.97167 	 -9.61746 	 90.7284
| 32> C 	 7.48761 	 -8.21313 	 89.1682
| 33> H 	 7.59977 	 -8.8768 	 88.3344
| 34> H 	 7.88938 	 -7.20559 	 88.9269
| 35> C 	 6.07462 	 -8.13082 	 89.6455
| 36> H 	 5.67001 	 -9.10571 	 89.6475
| 37> H 	 5.54118 	 -7.53276 	 88.9285
| 38> H 	 5.9245 	 -7.7234 	 90.6368
| 39> H 	 8.99976 	 -8.5185 	 95.8948
| 40> H 	 12.5596 	 -8.79602 	 88.0623
| 41> *
| 42>
| 43>                          ****END OF INPUT****

CARTESIAN COORDINATES (ANGSTROEM)
---------------------------------
  S      9.803550   -9.547580   93.676500
  C      9.371440   -8.337630   94.868500
  C      9.779330   -7.062950   94.442800
  C     10.352200   -7.099680   93.151000
  C     10.399700   -8.357010   92.519900
  H     10.707000   -6.227030   92.567600
  C      9.809000   -5.804320   95.314700
  H      8.827490   -5.314760   95.097200
  H     10.649600   -5.177720   94.969800
  C      9.937710   -6.106930   96.827900
  H      9.091420   -6.622560   97.226500
  H     10.808200   -6.756720   96.995300
  C     10.314200   -4.814550   97.651200
  H      9.569450   -4.047660   97.889500
  H     10.810800   -5.045370   98.567700
  H     11.062800   -4.222450   97.225100
  S     12.361500   -8.810970   90.564600
  C     11.840800   -8.891340   88.879000
  C     10.468000   -8.930700   88.837200
  C      9.845350   -8.785870   90.100400
  C     10.676700   -8.579140   91.131100
  H      9.987750   -8.879870   87.880700
  C      8.321780   -8.703250   90.283000
  H      8.172360   -8.121940   91.171400
  H      7.971670   -9.617460   90.728400
  C      7.487610   -8.213130   89.168200
  H      7.599770   -8.876800   88.334400
  H      7.889380   -7.205590   88.926900
  C      6.074620   -8.130820   89.645500
  H      5.670010   -9.105710   89.647500
  H      5.541180   -7.532760   88.928500
  H      5.924500   -7.723400   90.636800
  H      8.999760   -8.518500   95.894800
  H     12.559600   -8.796020   88.062300

 Total Charge           Charge          ....    0
 Multiplicity           Mult            ....    1
 Number of Electrons    NEL             ....  134
 Basis Dimension        Dim             ....  322

ORBITAL ENERGIES
----------------

  NO   OCC          E(Eh)            E(eV)
   0   2.0000     -88.968960     -2420.9685
   1   2.0000     -88.957028     -2420.6438
   2   2.0000     -10.328966      -281.0655
   3   2.0000     -10.320624      -280.8385
   4   2.0000     -10.320101      -280.8242
   5   2.0000     -10.318874      -280.7908
   6   2.0000     -10.303017      -280.3593
   7   2.0000     -10.301210      -280.3102
   8   2.0000     -10.297817      -280.2178
   9   2.0000     -10.296340      -280.1777
  10   2.0000     -10.295855      -280.1644
  11   2.0000     -10.290303      -280.0134
  12   2.0000     -10.279037      -279.7068
  13   2.0000     -10.276233      -279.6305
  14   2.0000     -10.274799      -279.5915
  15   2.0000     -10.268078      -279.4086
  16   2.0000      -8.082801      -219.9442
  17   2.0000      -8.071463      -219.6357
  18   2.0000      -6.041337      -164.3931
  19   2.0000      -6.037223      -164.2812
  20   2.0000      -6.033775      -164.1874
  21   2.0000      -6.030051      -164.0860
  22   2.0000      -6.026041      -163.9769
  23   2.0000      -6.022121      -163.8703
  24   2.0000      -1.004282       -27.3279
  25   2.0000      -0.982103       -26.7244
  26   2.0000      -0.919318       -25.0159
  27   2.0000      -0.908085       -24.7102
  28   2.0000      -0.870623       -23.6909
  29   2.0000      -0.848028       -23.0760
  30   2.0000      -0.847524       -23.0623
  31   2.0000      -0.811583       -22.0843
  32   2.0000      -0.782557       -21.2945
  33   2.0000      -0.772367       -21.0172
  34   2.0000      -0.718009       -19.5380
  35   2.0000      -0.706069       -19.2131
  36   2.0000      -0.699508       -19.0346
  37   2.0000      -0.653608       -17.7856
  38   2.0000      -0.636759       -17.3271
  39   2.0000      -0.609732       -16.5916
  40   2.0000      -0.598865       -16.2959
  41   2.0000      -0.575931       -15.6719
  42   2.0000      -0.572238       -15.5714
  43   2.0000      -0.564420       -15.3586
  44   2.0000      -0.535577       -14.5738
  45   2.0000      -0.518405       -14.1065
  46   2.0000      -0.516017       -14.0415
  47   2.0000      -0.512758       -13.9529
  48   2.0000      -0.507932       -13.8215
  49   2.0000      -0.499675       -13.5968
  50   2.0000      -0.489160       -13.3107
  51   2.0000      -0.481231       -13.0950
  52   2.0000      -0.473628       -12.8881
  53   2.0000      -0.466510       -12.6944
  54   2.0000      -0.454438       -12.3659
  55   2.0000      -0.449580       -12.2337
  56   2.0000      -0.441602       -12.0166
  57   2.0000      -0.435834       -11.8597
  58   2.0000      -0.434154       -11.8139
  59   2.0000      -0.429119       -11.6769
  60   2.0000      -0.420386       -11.4393
  61   2.0000      -0.418059       -11.3760
  62   2.0000      -0.407277       -11.0826
  63   2.0000      -0.333785        -9.0828
  64   2.0000      -0.328809        -8.9473
  65   2.0000      -0.318735        -8.6732
  66   2.0000      -0.310525        -8.4498
  67   0.0000       0.035555         0.9675
  68   0.0000       0.056028         1.5246
  69   0.0000       0.116129         3.1600
  70   0.0000       0.127241         3.4624
  71   0.0000       0.134001         3.6464

MULLIKEN ATOMIC CHARGES
-----------------------
   0 S :    0.127176
   1 C :   -0.138391
   2 C :   -0.094990
   3 C :    0.026559
   4 C :   -0.197599
   5 H :    0.026156
   6 C :    0.068676
   7 H :    0.053417
   8 H :    0.038193
   9 C :   -0.091948
  10 H :    0.037706
  11 H :    0.041075
  12 C :   -0.029859
  13 H :    0.031618
  14 H :    0.018484
  15 H :    0.003708
  16 S :    0.079856
  17 C :   -0.102428
  18 C :   -0.032692
  19 C :   -0.000770
  20 C :   -0.176305
  21 H :    0.016082
  22 C :    0.077059
  23 H :    0.007908
  24 H :    0.007910
  25 C :   -0.064417
  26 H :    0.031270
  27 H :    0.031168
  28 C :    0.004774
  29 H :    0.018376
  30 H :    0.025025
  31 H :    0.027837
  32 H :    0.061231
  33 H :    0.068134
Sum of atomic charges:   -0.0000000

LOEWDIN ATOMIC CHARGES
----------------------
   0 S :    0.409874
   1 C :   -0.206278
   2 C :   -0.071683
   3 C :   -0.056862
   4 C :   -0.204053
   5 H :    0.037314
   6 C :   -0.030966
   7 H :    0.041710
   8 H :    0.035002
   9 C :   -0.035389
  10 H :    0.020106
  11 H :    0.031725
  12 C :   -0.070838
  13 H :    0.026486
  14 H :    0.024633
  15 H :    0.018323
  16 S :    0.369649
  17 C :   -0.167975
  18 C :   -0.077422
  19 C :   -0.048174
  20 C :   -0.194933
  21 H :    0.029378
  22 C :   -0.037376
  23 H :    0.029256
  24 H :    0.028202
  25 C :   -0.040300
  26 H :    0.021800
  27 H :    0.028461
  28 C :   -0.051912
  29 H :    0.022448
  30 H :    0.025054
  31 H :    0.026470
  32 H :    0.035282
  33 H :    0.032987

  Mayer bond orders larger than 0.100000
B(  0-S ,  1-C ) :   1.1565 B(  0-S ,  4-C ) :   1.1455 B(  1-C ,  2-C ) :   1.5747
B(  1-C ,  4-C ) :   0.1081 B(  1-C , 32-H ) :   0.9597 B(  2-C ,  3-C ) :   1.2862
B(  2-C ,  6-C ) :   1.0017 B(  3-C ,  4-C ) :   1.5532 B(  3-C ,  5-H ) :   0.9852
B(  4-C , 20-C ) :   1.0360 B(  6-C ,  7-H ) :   0.9277 B(  6-C ,  8-H ) :   0.9542
B(  6-C ,  9-C ) :   1.0746 B(  9-C , 10-H ) :   0.9522 B(  9-C , 11-H ) :   0.9620
B(  9-C , 12-C ) :   1.0717 B( 12-C , 13-H ) :   0.9770 B( 12-C , 14-H ) :   0.9754
B( 12-C , 15-H ) :   0.9715 B( 16-S , 17-C ) :   1.1604 B( 16-S , 20-C ) :   1.1075
B( 17-C , 18-C ) :   1.6019 B( 17-C , 33-H ) :   0.9665 B( 18-C , 19-C ) :   1.2250
B( 18-C , 21-H ) :   0.9933 B( 19-C , 20-C ) :   1.6489 B( 19-C , 22-C ) :   1.0183
B( 22-C , 23-H ) :   0.9213 B( 22-C , 24-H ) :   0.9130 B( 22-C , 25-C ) :   1.0767
B( 25-C , 26-H ) :   0.9425 B( 25-C , 27-H ) :   0.9551 B( 25-C , 28-C ) :   1.0929
B( 28-C , 29-H ) :   0.9700 B( 28-C , 30-H ) :   0.9703 B( 28-C , 31-H ) :   0.9732

Dispersion correction           -0.013851872
FINAL SINGLE POINT ENERGY     -1339.871225818780

DIPOLE MOMENT
-------------
                                X             Y             Z
Electronic contribution:     15.85045     -15.35195      -8.35876
Nuclear contribution   :    -16.23661      15.88145       8.42179
                        -----------------------------------------
Total Dipole Moment    :     -0.38616       0.52949       0.06303
                        -----------------------------------------
Magnitude (a.u.)       :      0.65838
Magnitude (Debye)      :      1.67346

Rotational constants in cm-1:     0.020107     0.007283     0.006175
Rotational constants in MHz :   602.779272   218.330479   185.127154

                             ****ORCA TERMINATED NORMALLY****
TOTAL RUN TIME: 0 days 0 hours 0 minutes 32 seconds 989 msec
