                         Program Version 4.2.1 -  RELEASE  -
|  1> ! wB97X-D3 SP def2-SVP
|  2> %pal
|  3> nprocs 16
|  4> end
|  5>
|  6> * xyz 0 1
|  7> S 	 -34.8271 	 35.6511 	 41.8606
|  8> C 	 -35.1608 	 35.7808 	 43.5689
|  9> C 	 -34.0664 	 36.1926 	 44.2852
| 10> C 	 -32.9292 	 36.3397 	 43.4434
| 11> C 	 -33.1565 	 35.9747 	 42.1299
| 12> H 	 -31.9754 	 36.7319 	 43.7647
| 13> C 	 -34.098 	 36.3749 	 45.8351
| 14> H 	 -35.1192 	 36.6607 	 46.0922
| 15> H 	 -33.5231 	 37.2504 	 46.0933
| 16> C 	 -33.7022 	 35.153 	 46.6991
| 17> H 	 -32.8545 	 34.6413 	 46.2777
| 18> H 	 -33.3412 	 35.4336 	 47.7127
| 19> C 	 -34.8894 	 34.1864 	 46.7798
| 20> H 	 -35.2437 	 33.8755 	 45.829
| 21> H 	 -34.7828 	 33.3039 	 47.3885
| 22> H 	 -35.6266 	 34.7872 	 47.2788
| 23> S 	 -32.0426 	 37.1135 	 39.9363
| 24> C 	 -30.7979 	 36.2788 	 39.0598
| 25> C 	 -30.6488 	 34.9752 	 39.4965
| 26> C 	 -31.4402 	 34.7212 	 40.6774
| 27> C 	 -32.1959 	 35.8255 	 41.0567
| 28> H 	 -29.8493 	 34.4039 	 39.1419
| 29> C 	 -31.3055 	 33.3984 	 41.4018
| 30> H 	 -31.2264 	 32.764 	 40.6193
| 31> H 	 -32.1184 	 33.163 	 42.0978
| 32> C 	 -29.9836 	 33.3823 	 42.2735
| 33> H 	 -29.1521 	 33.6079 	 41.5697
| 34> H 	 -30.0419 	 32.4021 	 42.6769
| 35> C 	 -29.9597 	 34.3356 	 43.4851
| 36> H 	 -30.131 	 35.3396 	 43.0553
| 37> H 	 -28.9973 	 34.316 	 43.9903
| 38> H 	 -30.7911 	 34.1645 	 44.1227
| 39> H 	 -36.108 	 35.2923 	 43.9632
| 40> H 	 -30.2927 	 36.6689 	 38.2202
| 41> *
| 42>
| 43>                          ****END OF INPUT****

CARTESIAN COORDINATES (ANGSTROEM)
---------------------------------
  S    -34.827100   35.651100   41.860600
  C    -35.160800   35.780800   43.568900
  C    -34.066400   36.192600   44.285200
  C    -32.929200   36.339700   43.443400
  C    -33.156500   35.974700   42.129900
  H    -31.975400   36.731900   43.764700
  C    -34.098000   36.374900   45.835100
  H    -35.119200   36.660700   46.092200
  H    -33.523100   37.250400   46.093300
  C    -33.702200   35.153000   46.699100
  H    -32.854500   34.641300   46.277700
  H    -33.341200   35.433600   47.712700
  C    -34.889400   34.186400   46.779800
  H    -35.243700   33.875500   45.829000
  H    -34.782800   33.303900   47.388500
  H    -35.626600   34.787200   47.278800
  S    -32.042600   37.113500   39.936300
  C    -30.797900   36.278800   39.059800
  C    -30.648800   34.975200   39.496500
  C    -31.440200   34.721200   40.677400
  C    -32.195900   35.825500   41.056700
  H    -29.849300   34.403900   39.141900
  C    -31.305500   33.398400   41.401800
  H    -31.226400   32.764000   40.619300
  H    -32.118400   33.163000   42.097800
  C    -29.983600   33.382300   42.273500
  H    -29.152100   33.607900   41.569700
  H    -30.041900   32.402100   42.676900
  C    -29.959700   34.335600   43.485100
  H    -30.131000   35.339600   43.055300
  H    -28.997300   34.316000   43.990300
  H    -30.791100   34.164500   44.122700
  H    -36.108000   35.292300   43.963200
  H    -30.292700   36.668900   38.220200

 Total Charge           Charge          ....    0
 Multiplicity           Mult            ....    1
 Number of Electrons    NEL             ....  134
 Basis Dimension        Dim             ....  322

ORBITAL ENERGIES
----------------

  NO   OCC          E(Eh)            E(eV)
   0   2.0000     -88.963309     -2420.8147
   1   2.0000     -88.963119     -2420.8095
   2   2.0000     -10.324618      -280.9471
   3   2.0000     -10.318628      -280.7841
   4   2.0000     -10.315750      -280.7058
   5   2.0000     -10.313881      -280.6550
   6   2.0000     -10.302964      -280.3579
   7   2.0000     -10.302254      -280.3386
   8   2.0000     -10.295573      -280.1568
   9   2.0000     -10.294165      -280.1185
  10   2.0000     -10.290415      -280.0164
  11   2.0000     -10.289481      -279.9910
  12   2.0000     -10.286024      -279.8969
  13   2.0000     -10.283494      -279.8281
  14   2.0000     -10.272546      -279.5302
  15   2.0000     -10.271640      -279.5055
  16   2.0000      -8.079009      -219.8410
  17   2.0000      -8.078890      -219.8378
  18   2.0000      -6.037341      -164.2844
  19   2.0000      -6.037262      -164.2823
  20   2.0000      -6.033358      -164.1760
  21   2.0000      -6.033132      -164.1699
  22   2.0000      -6.029912      -164.0823
  23   2.0000      -6.029864      -164.0810
  24   2.0000      -1.011187       -27.5158
  25   2.0000      -0.987749       -26.8780
  26   2.0000      -0.910175       -24.7671
  27   2.0000      -0.907838       -24.7035
  28   2.0000      -0.870708       -23.6932
  29   2.0000      -0.848597       -23.0915
  30   2.0000      -0.845424       -23.0052
  31   2.0000      -0.814409       -22.1612
  32   2.0000      -0.785719       -21.3805
  33   2.0000      -0.774173       -21.0663
  34   2.0000      -0.709512       -19.3068
  35   2.0000      -0.695822       -18.9343
  36   2.0000      -0.688825       -18.7439
  37   2.0000      -0.664068       -18.0702
  38   2.0000      -0.643555       -17.5120
  39   2.0000      -0.620550       -16.8860
  40   2.0000      -0.599237       -16.3061
  41   2.0000      -0.572606       -15.5814
  42   2.0000      -0.558469       -15.1967
  43   2.0000      -0.549556       -14.9542
  44   2.0000      -0.545034       -14.8311
  45   2.0000      -0.541558       -14.7366
  46   2.0000      -0.522041       -14.2054
  47   2.0000      -0.511711       -13.9244
  48   2.0000      -0.499796       -13.6002
  49   2.0000      -0.492463       -13.4006
  50   2.0000      -0.489031       -13.3072
  51   2.0000      -0.475829       -12.9480
  52   2.0000      -0.470728       -12.8092
  53   2.0000      -0.463624       -12.6158
  54   2.0000      -0.461656       -12.5623
  55   2.0000      -0.450263       -12.2523
  56   2.0000      -0.445090       -12.1115
  57   2.0000      -0.439785       -11.9672
  58   2.0000      -0.437240       -11.8979
  59   2.0000      -0.427500       -11.6329
  60   2.0000      -0.426270       -11.5994
  61   2.0000      -0.417243       -11.3538
  62   2.0000      -0.404778       -11.0146
  63   2.0000      -0.336370        -9.1531
  64   2.0000      -0.330914        -9.0046
  65   2.0000      -0.319887        -8.7046
  66   2.0000      -0.308929        -8.4064
  67   0.0000       0.046811         1.2738
  68   0.0000       0.053715         1.4617
  69   0.0000       0.118876         3.2348
  70   0.0000       0.120915         3.2903
  71   0.0000       0.134266         3.6536

MULLIKEN ATOMIC CHARGES
-----------------------
   0 S :    0.122686
   1 C :   -0.166727
   2 C :   -0.090674
   3 C :    0.050417
   4 C :   -0.176083
   5 H :    0.011370
   6 C :    0.076765
   7 H :    0.015686
   8 H :    0.022676
   9 C :   -0.051153
  10 H :    0.024957
  11 H :    0.032062
  12 C :   -0.036032
  13 H :    0.024285
  14 H :    0.029564
  15 H :    0.016240
  16 S :    0.118911
  17 C :   -0.079573
  18 C :   -0.024116
  19 C :   -0.048961
  20 C :   -0.194906
  21 H :    0.007757
  22 C :    0.125967
  23 H :    0.001142
  24 H :    0.031006
  25 C :   -0.088413
  26 H :    0.032876
  27 H :    0.025964
  28 C :   -0.040246
  29 H :    0.032138
  30 H :    0.043590
  31 H :    0.028071
  32 H :    0.080493
  33 H :    0.042263
Sum of atomic charges:   -0.0000000

LOEWDIN ATOMIC CHARGES
----------------------
   0 S :    0.419870
   1 C :   -0.209358
   2 C :   -0.066756
   3 C :   -0.056211
   4 C :   -0.206971
   5 H :    0.030664
   6 C :   -0.023680
   7 H :    0.028462
   8 H :    0.028967
   9 C :   -0.037641
  10 H :    0.018385
  11 H :    0.027808
  12 C :   -0.060438
  13 H :    0.018359
  14 H :    0.023932
  15 H :    0.022289
  16 S :    0.427706
  17 C :   -0.176414
  18 C :   -0.069510
  19 C :   -0.045938
  20 C :   -0.229920
  21 H :    0.022649
  22 C :   -0.017801
  23 H :    0.016629
  24 H :    0.032553
  25 C :   -0.029197
  26 H :    0.024740
  27 H :    0.017803
  28 C :   -0.063751
  29 H :    0.025874
  30 H :    0.028918
  31 H :    0.018216
  32 H :    0.039282
  33 H :    0.020479

  Mayer bond orders larger than 0.100000
B(  0-S ,  1-C ) :   1.1516 B(  0-S ,  4-C ) :   1.1710 B(  1-C ,  2-C ) :   1.6127
B(  1-C , 32-H ) :   0.9532 B(  2-C ,  3-C ) :   1.2517 B(  2-C ,  6-C ) :   1.0163
B(  3-C ,  4-C ) :   1.5831 B(  3-C ,  5-H ) :   0.9961 B(  4-C , 20-C ) :   0.9996
B(  6-C ,  7-H ) :   0.9472 B(  6-C ,  8-H ) :   0.9399 B(  6-C ,  9-C ) :   1.0527
B(  9-C , 10-H ) :   0.9591 B(  9-C , 11-H ) :   0.9567 B(  9-C , 12-C ) :   1.0704
B( 12-C , 13-H ) :   0.9769 B( 12-C , 14-H ) :   0.9734 B( 12-C , 15-H ) :   0.9770
B( 16-S , 17-C ) :   1.1719 B( 16-S , 20-C ) :   1.1551 B( 17-C , 18-C ) :   1.6089
B( 17-C , 33-H ) :   0.9721 B( 18-C , 19-C ) :   1.2366 B( 18-C , 21-H ) :   0.9915
B( 19-C , 20-C ) :   1.6009 B( 19-C , 22-C ) :   1.0445 B( 22-C , 23-H ) :   0.9218
B( 22-C , 24-H ) :   0.9353 B( 22-C , 25-C ) :   1.0724 B( 25-C , 26-H ) :   0.9576
B( 25-C , 27-H ) :   0.9585 B( 25-C , 28-C ) :   1.0783 B( 28-C , 29-H ) :   0.9708
B( 28-C , 30-H ) :   0.9699 B( 28-C , 31-H ) :   0.9722

Dispersion correction           -0.016049365
FINAL SINGLE POINT ENERGY     -1339.876615509503

DIPOLE MOMENT
-------------
                                X             Y             Z
Electronic contribution:     -6.54691      12.56435     -24.05436
Nuclear contribution   :      6.87471     -12.91331      24.47171
                        -----------------------------------------
Total Dipole Moment    :      0.32780      -0.34895       0.41735
                        -----------------------------------------
Magnitude (a.u.)       :      0.63514
Magnitude (Debye)      :      1.61440

Rotational constants in cm-1:     0.021953     0.009065     0.007387
Rotational constants in MHz :   658.129173   271.753989   221.469222

                             ****ORCA TERMINATED NORMALLY****
TOTAL RUN TIME: 0 days 0 hours 0 minutes 36 seconds 403 msec
