                         Program Version 4.2.1 -  RELEASE  -
|  1> ! wB97X-D3 SP def2-SVP
|  2> %pal
|  3> nprocs 16
|  4> end
|  5>
|  6> * xyz 0 1
|  7> S 	 4.05881 	 -2.65059 	 75.6355
|  8> C 	 3.38145 	 -3.78611 	 76.823
|  9> C 	 2.55973 	 -3.13592 	 77.7427
| 10> C 	 2.5079 	 -1.72042 	 77.4352
| 11> C 	 3.2282 	 -1.31851 	 76.3757
| 12> H 	 2.00537 	 -1.01489 	 78.0252
| 13> C 	 1.79092 	 -3.77602 	 78.9127
| 14> H 	 2.42281 	 -3.79745 	 79.849
| 15> H 	 1.52459 	 -4.86435 	 78.6811
| 16> C 	 0.438922 	 -3.12771 	 79.3702
| 17> H 	 -0.0471942 	 -3.65837 	 80.2376
| 18> H 	 0.635407 	 -2.1699 	 79.8219
| 19> C 	 -0.56655 	 -2.98196 	 78.1541
| 20> H 	 -1.52581 	 -2.60712 	 78.5679
| 21> H 	 -0.360504 	 -2.22561 	 77.4323
| 22> H 	 -0.900989 	 -3.94481 	 77.6933
| 23> S 	 5.15608 	 0.40864 	 75.5154
| 24> C 	 4.77761 	 2.04121 	 75.0894
| 25> C 	 3.47185 	 2.36435 	 75.5437
| 26> C 	 2.71401 	 1.22673 	 76.0628
| 27> C 	 3.51108 	 0.0873915 	 76.0414
| 28> H 	 3.10858 	 3.35199 	 75.5119
| 29> C 	 1.26104 	 1.37869 	 76.3806
| 30> H 	 0.891684 	 0.35087 	 76.5863
| 31> H 	 0.870761 	 1.75566 	 75.4221
| 32> C 	 0.877325 	 2.35785 	 77.4907
| 33> H 	 -0.208508 	 2.30955 	 77.5605
| 34> H 	 1.11059 	 3.40122 	 77.2719
| 35> C 	 1.45138 	 1.85502 	 78.8007
| 36> H 	 1.0136 	 0.864696 	 79.0857
| 37> H 	 1.36987 	 2.57148 	 79.6365
| 38> H 	 2.56137 	 1.7569 	 78.7741
| 39> H 	 3.50098 	 -4.86957 	 76.8896
| 40> H 	 5.47486 	 2.76486 	 74.684
| 41> *
| 42>
| 43>                          ****END OF INPUT****

CARTESIAN COORDINATES (ANGSTROEM)
---------------------------------
  S      4.058810   -2.650590   75.635500
  C      3.381450   -3.786110   76.823000
  C      2.559730   -3.135920   77.742700
  C      2.507900   -1.720420   77.435200
  C      3.228200   -1.318510   76.375700
  H      2.005370   -1.014890   78.025200
  C      1.790920   -3.776020   78.912700
  H      2.422810   -3.797450   79.849000
  H      1.524590   -4.864350   78.681100
  C      0.438922   -3.127710   79.370200
  H     -0.047194   -3.658370   80.237600
  H      0.635407   -2.169900   79.821900
  C     -0.566550   -2.981960   78.154100
  H     -1.525810   -2.607120   78.567900
  H     -0.360504   -2.225610   77.432300
  H     -0.900989   -3.944810   77.693300
  S      5.156080    0.408640   75.515400
  C      4.777610    2.041210   75.089400
  C      3.471850    2.364350   75.543700
  C      2.714010    1.226730   76.062800
  C      3.511080    0.087391   76.041400
  H      3.108580    3.351990   75.511900
  C      1.261040    1.378690   76.380600
  H      0.891684    0.350870   76.586300
  H      0.870761    1.755660   75.422100
  C      0.877325    2.357850   77.490700
  H     -0.208508    2.309550   77.560500
  H      1.110590    3.401220   77.271900
  C      1.451380    1.855020   78.800700
  H      1.013600    0.864696   79.085700
  H      1.369870    2.571480   79.636500
  H      2.561370    1.756900   78.774100
  H      3.500980   -4.869570   76.889600
  H      5.474860    2.764860   74.684000

 Total Charge           Charge          ....    0
 Multiplicity           Mult            ....    1
 Number of Electrons    NEL             ....  134
 Basis Dimension        Dim             ....  322

ORBITAL ENERGIES
----------------

  NO   OCC          E(Eh)            E(eV)
   0   2.0000     -88.968287     -2420.9502
   1   2.0000     -88.965284     -2420.8685
   2   2.0000     -10.328675      -281.0575
   3   2.0000     -10.325307      -280.9659
   4   2.0000     -10.319608      -280.8108
   5   2.0000     -10.317776      -280.7610
   6   2.0000     -10.307447      -280.4799
   7   2.0000     -10.307308      -280.4761
   8   2.0000     -10.304510      -280.4000
   9   2.0000     -10.300230      -280.2835
  10   2.0000     -10.295782      -280.1625
  11   2.0000     -10.295423      -280.1527
  12   2.0000     -10.291479      -280.0454
  13   2.0000     -10.285745      -279.8894
  14   2.0000     -10.284320      -279.8506
  15   2.0000     -10.282652      -279.8052
  16   2.0000      -8.082571      -219.9379
  17   2.0000      -8.080197      -219.8733
  18   2.0000      -6.041299      -164.3921
  19   2.0000      -6.038719      -164.3219
  20   2.0000      -6.037162      -164.2795
  21   2.0000      -6.034648      -164.2111
  22   2.0000      -6.033088      -164.1687
  23   2.0000      -6.030967      -164.1109
  24   2.0000      -1.006511       -27.3886
  25   2.0000      -0.980493       -26.6806
  26   2.0000      -0.917393       -24.9635
  27   2.0000      -0.901306       -24.5258
  28   2.0000      -0.865206       -23.5434
  29   2.0000      -0.851614       -23.1736
  30   2.0000      -0.839063       -22.8321
  31   2.0000      -0.811762       -22.0892
  32   2.0000      -0.781601       -21.2684
  33   2.0000      -0.774065       -21.0634
  34   2.0000      -0.711722       -19.3669
  35   2.0000      -0.700072       -19.0499
  36   2.0000      -0.692299       -18.8384
  37   2.0000      -0.661406       -17.9978
  38   2.0000      -0.636677       -17.3249
  39   2.0000      -0.624384       -16.9904
  40   2.0000      -0.594378       -16.1738
  41   2.0000      -0.562812       -15.3149
  42   2.0000      -0.556614       -15.1462
  43   2.0000      -0.547755       -14.9052
  44   2.0000      -0.543782       -14.7971
  45   2.0000      -0.533540       -14.5184
  46   2.0000      -0.521959       -14.2032
  47   2.0000      -0.504267       -13.7218
  48   2.0000      -0.499155       -13.5827
  49   2.0000      -0.498199       -13.5567
  50   2.0000      -0.492531       -13.4024
  51   2.0000      -0.477670       -12.9981
  52   2.0000      -0.465867       -12.6769
  53   2.0000      -0.463077       -12.6010
  54   2.0000      -0.460488       -12.5305
  55   2.0000      -0.451422       -12.2838
  56   2.0000      -0.444227       -12.0880
  57   2.0000      -0.435998       -11.8641
  58   2.0000      -0.431940       -11.7537
  59   2.0000      -0.429467       -11.6864
  60   2.0000      -0.422131       -11.4868
  61   2.0000      -0.417360       -11.3570
  62   2.0000      -0.413787       -11.2597
  63   2.0000      -0.353530        -9.6201
  64   2.0000      -0.329750        -8.9730
  65   2.0000      -0.325548        -8.8586
  66   2.0000      -0.288154        -7.8411
  67   0.0000       0.029342         0.7984
  68   0.0000       0.077286         2.1031
  69   0.0000       0.104721         2.8496
  70   0.0000       0.113895         3.0992
  71   0.0000       0.120405         3.2764

MULLIKEN ATOMIC CHARGES
-----------------------
   0 S :    0.111043
   1 C :   -0.126288
   2 C :   -0.063101
   3 C :    0.039532
   4 C :   -0.104758
   5 H :   -0.052945
   6 C :    0.018445
   7 H :    0.056732
   8 H :    0.040841
   9 C :   -0.092680
  10 H :    0.041997
  11 H :    0.025737
  12 C :   -0.065684
  13 H :    0.019618
  14 H :    0.040427
  15 H :    0.042684
  16 S :    0.108179
  17 C :   -0.095923
  18 C :   -0.033032
  19 C :   -0.056153
  20 C :   -0.152206
  21 H :    0.001591
  22 C :    0.047720
  23 H :    0.026836
  24 H :    0.041777
  25 C :   -0.035167
  26 H :    0.033396
  27 H :    0.032944
  28 C :   -0.092843
  29 H :    0.047967
  30 H :    0.033434
  31 H :    0.048428
  32 H :    0.048018
  33 H :    0.063434
Sum of atomic charges:   -0.0000000

LOEWDIN ATOMIC CHARGES
----------------------
   0 S :    0.399526
   1 C :   -0.191513
   2 C :   -0.058339
   3 C :   -0.061610
   4 C :   -0.195330
   5 H :    0.014758
   6 C :   -0.043341
   7 H :    0.040071
   8 H :    0.036713
   9 C :   -0.045852
  10 H :    0.035372
  11 H :    0.017585
  12 C :   -0.075493
  13 H :    0.027651
  14 H :    0.020910
  15 H :    0.031857
  16 S :    0.409413
  17 C :   -0.195465
  18 C :   -0.063331
  19 C :   -0.060270
  20 C :   -0.190165
  21 H :    0.019038
  22 C :   -0.033606
  23 H :    0.032794
  24 H :    0.039296
  25 C :   -0.039154
  26 H :    0.028998
  27 H :    0.024635
  28 C :   -0.075801
  29 H :    0.027709
  30 H :    0.027216
  31 H :    0.031717
  32 H :    0.032947
  33 H :    0.031060

  Mayer bond orders larger than 0.100000
B(  0-S ,  1-C ) :   1.1232 B(  0-S ,  4-C ) :   1.1317 B(  1-C ,  2-C ) :   1.6395
B(  1-C , 32-H ) :   0.9639 B(  2-C ,  3-C ) :   1.2269 B(  2-C ,  6-C ) :   1.0093
B(  3-C ,  4-C ) :   1.5968 B(  3-C ,  5-H ) :   0.9953 B(  4-C , 20-C ) :   1.0339
B(  6-C ,  7-H ) :   0.9396 B(  6-C ,  8-H ) :   0.9493 B(  6-C ,  9-C ) :   1.0734
B(  9-C , 10-H ) :   0.9573 B(  9-C , 11-H ) :   0.9501 B(  9-C , 12-C ) :   1.0691
B( 12-C , 13-H ) :   0.9717 B( 12-C , 14-H ) :   0.9758 B( 12-C , 15-H ) :   0.9768
B( 16-S , 17-C ) :   1.1536 B( 16-S , 20-C ) :   1.1441 B( 17-C , 18-C ) :   1.5991
B( 17-C , 33-H ) :   0.9709 B( 18-C , 19-C ) :   1.2277 B( 18-C , 21-H ) :   0.9950
B( 19-C , 20-C ) :   1.5922 B( 19-C , 22-C ) :   1.0349 B( 22-C , 23-H ) :   0.9348
B( 22-C , 24-H ) :   0.9293 B( 22-C , 25-C ) :   1.0777 B( 25-C , 26-H ) :   0.9523
B( 25-C , 27-H ) :   0.9531 B( 25-C , 28-C ) :   1.0751 B( 28-C , 29-H ) :   0.9652
B( 28-C , 30-H ) :   0.9700 B( 28-C , 31-H ) :   0.9718

Dispersion correction           -0.015628443
FINAL SINGLE POINT ENERGY     -1339.883514834795

DIPOLE MOMENT
-------------
                                X             Y             Z
Electronic contribution:     24.48461      -2.77712     -17.62347
Nuclear contribution   :    -25.06143       3.05916      18.11950
                        -----------------------------------------
Total Dipole Moment    :     -0.57683       0.28203       0.49603
                        -----------------------------------------
Magnitude (a.u.)       :      0.81137
Magnitude (Debye)      :      2.06234

Rotational constants in cm-1:     0.017877     0.010737     0.007265
Rotational constants in MHz :   535.943056   321.878235   217.807209

                             ****ORCA TERMINATED NORMALLY****
TOTAL RUN TIME: 0 days 0 hours 0 minutes 34 seconds 259 msec
