                         Program Version 4.2.1 -  RELEASE  -
|  1> ! wB97X-D3 SP def2-SVP
|  2> %pal
|  3> nprocs 16
|  4> end
|  5>
|  6> * xyz 0 1
|  7> S 	 -41.3941 	 38.052 	 94.4756
|  8> C 	 -41.6513 	 39.8149 	 94.4785
|  9> C 	 -41.475 	 40.3576 	 95.7037
| 10> C 	 -40.8188 	 39.4882 	 96.6212
| 11> C 	 -40.6767 	 38.1236 	 96.1552
| 12> H 	 -40.4187 	 39.7459 	 97.5811
| 13> C 	 -41.8452 	 41.7586 	 96.1632
| 14> H 	 -41.8709 	 42.3498 	 95.2682
| 15> H 	 -41.0033 	 42.1222 	 96.7027
| 16> C 	 -43.1194 	 41.7941 	 97.064
| 17> H 	 -43.8294 	 41.1053 	 96.7101
| 18> H 	 -42.8537 	 41.3689 	 98.0101
| 19> C 	 -43.6854 	 43.1921 	 97.1926
| 20> H 	 -43.0454 	 44.0238 	 97.6549
| 21> H 	 -43.9607 	 43.5768 	 96.2588
| 22> H 	 -44.6019 	 43.1484 	 97.8223
| 23> S 	 -40.4275 	 35.3389 	 96.1183
| 24> C 	 -39.4475 	 34.7448 	 97.3648
| 25> C 	 -38.7258 	 35.6661 	 98.1088
| 26> C 	 -38.9495 	 36.9694 	 97.6257
| 27> C 	 -39.9948 	 36.9887 	 96.7112
| 28> H 	 -38.0317 	 35.4111 	 98.8886
| 29> C 	 -38.1582 	 38.0771 	 98.1903
| 30> H 	 -37.9785 	 38.9278 	 97.5036
| 31> H 	 -37.1906 	 37.6753 	 98.3662
| 32> C 	 -38.6662 	 38.4777 	 99.5648
| 33> H 	 -38.8054 	 37.5946 	 100.279
| 34> H 	 -39.7205 	 38.8769 	 99.4942
| 35> C 	 -37.7572 	 39.5182 	 100.193
| 36> H 	 -36.734 	 39.1945 	 100.563
| 37> H 	 -38.2372 	 39.9719 	 101.044
| 38> H 	 -37.6987 	 40.4064 	 99.548
| 39> H 	 -42.2347 	 40.2861 	 93.68
| 40> H 	 -39.2768 	 33.6739 	 97.6287
| 41> *
| 42>
| 43>                          ****END OF INPUT****

CARTESIAN COORDINATES (ANGSTROEM)
---------------------------------
  S    -41.394100   38.052000   94.475600
  C    -41.651300   39.814900   94.478500
  C    -41.475000   40.357600   95.703700
  C    -40.818800   39.488200   96.621200
  C    -40.676700   38.123600   96.155200
  H    -40.418700   39.745900   97.581100
  C    -41.845200   41.758600   96.163200
  H    -41.870900   42.349800   95.268200
  H    -41.003300   42.122200   96.702700
  C    -43.119400   41.794100   97.064000
  H    -43.829400   41.105300   96.710100
  H    -42.853700   41.368900   98.010100
  C    -43.685400   43.192100   97.192600
  H    -43.045400   44.023800   97.654900
  H    -43.960700   43.576800   96.258800
  H    -44.601900   43.148400   97.822300
  S    -40.427500   35.338900   96.118300
  C    -39.447500   34.744800   97.364800
  C    -38.725800   35.666100   98.108800
  C    -38.949500   36.969400   97.625700
  C    -39.994800   36.988700   96.711200
  H    -38.031700   35.411100   98.888600
  C    -38.158200   38.077100   98.190300
  H    -37.978500   38.927800   97.503600
  H    -37.190600   37.675300   98.366200
  C    -38.666200   38.477700   99.564800
  H    -38.805400   37.594600  100.279000
  H    -39.720500   38.876900   99.494200
  C    -37.757200   39.518200  100.193000
  H    -36.734000   39.194500  100.563000
  H    -38.237200   39.971900  101.044000
  H    -37.698700   40.406400   99.548000
  H    -42.234700   40.286100   93.680000
  H    -39.276800   33.673900   97.628700

 Total Charge           Charge          ....    0
 Multiplicity           Mult            ....    1
 Number of Electrons    NEL             ....  134
 Basis Dimension        Dim             ....  322

ORBITAL ENERGIES
----------------

  NO   OCC          E(Eh)            E(eV)
   0   2.0000     -88.972812     -2421.0733
   1   2.0000     -88.960696     -2420.7436
   2   2.0000     -10.338589      -281.3273
   3   2.0000     -10.327852      -281.0352
   4   2.0000     -10.318411      -280.7782
   5   2.0000     -10.310977      -280.5759
   6   2.0000     -10.300903      -280.3018
   7   2.0000     -10.299539      -280.2647
   8   2.0000     -10.296699      -280.1874
   9   2.0000     -10.296118      -280.1716
  10   2.0000     -10.290409      -280.0163
  11   2.0000     -10.290273      -280.0126
  12   2.0000     -10.287181      -279.9284
  13   2.0000     -10.284083      -279.8441
  14   2.0000     -10.283600      -279.8310
  15   2.0000     -10.281275      -279.7677
  16   2.0000      -8.087645      -220.0760
  17   2.0000      -8.074081      -219.7069
  18   2.0000      -6.046058      -164.5216
  19   2.0000      -6.042485      -164.4244
  20   2.0000      -6.038156      -164.3066
  21   2.0000      -6.032837      -164.1618
  22   2.0000      -6.028978      -164.0568
  23   2.0000      -6.024495      -163.9348
  24   2.0000      -1.005680       -27.3659
  25   2.0000      -0.976728       -26.5781
  26   2.0000      -0.922137       -25.0926
  27   2.0000      -0.908815       -24.7301
  28   2.0000      -0.868434       -23.6313
  29   2.0000      -0.861002       -23.4291
  30   2.0000      -0.841519       -22.8989
  31   2.0000      -0.807814       -21.9817
  32   2.0000      -0.787537       -21.4300
  33   2.0000      -0.770347       -20.9622
  34   2.0000      -0.711636       -19.3646
  35   2.0000      -0.704833       -19.1795
  36   2.0000      -0.694653       -18.9025
  37   2.0000      -0.666980       -18.1495
  38   2.0000      -0.634678       -17.2705
  39   2.0000      -0.617406       -16.8005
  40   2.0000      -0.600809       -16.3489
  41   2.0000      -0.568236       -15.4625
  42   2.0000      -0.565887       -15.3986
  43   2.0000      -0.550105       -14.9691
  44   2.0000      -0.528374       -14.3778
  45   2.0000      -0.526535       -14.3277
  46   2.0000      -0.517152       -14.0724
  47   2.0000      -0.509510       -13.8645
  48   2.0000      -0.506959       -13.7951
  49   2.0000      -0.496108       -13.4998
  50   2.0000      -0.494285       -13.4502
  51   2.0000      -0.479732       -13.0542
  52   2.0000      -0.473142       -12.8748
  53   2.0000      -0.465833       -12.6760
  54   2.0000      -0.460520       -12.5314
  55   2.0000      -0.456697       -12.4273
  56   2.0000      -0.444061       -12.0835
  57   2.0000      -0.439583       -11.9617
  58   2.0000      -0.435206       -11.8425
  59   2.0000      -0.427170       -11.6239
  60   2.0000      -0.420687       -11.4475
  61   2.0000      -0.416449       -11.3322
  62   2.0000      -0.414029       -11.2663
  63   2.0000      -0.357145        -9.7184
  64   2.0000      -0.337085        -9.1725
  65   2.0000      -0.325964        -8.8699
  66   2.0000      -0.273187        -7.4338
  67   0.0000       0.014396         0.3917
  68   0.0000       0.071401         1.9429
  69   0.0000       0.096645         2.6298
  70   0.0000       0.123381         3.3574
  71   0.0000       0.126014         3.4290

MULLIKEN ATOMIC CHARGES
-----------------------
   0 S :    0.059662
   1 C :   -0.128828
   2 C :   -0.093122
   3 C :    0.017164
   4 C :   -0.130946
   5 H :   -0.015993
   6 C :    0.089237
   7 H :    0.009035
   8 H :    0.015406
   9 C :   -0.021066
  10 H :    0.024296
  11 H :    0.017558
  12 C :   -0.052758
  13 H :    0.039529
  14 H :    0.018511
  15 H :    0.036516
  16 S :    0.132044
  17 C :   -0.076465
  18 C :   -0.046793
  19 C :   -0.041368
  20 C :   -0.130787
  21 H :    0.013354
  22 C :    0.084318
  23 H :    0.041584
  24 H :    0.007895
  25 C :   -0.133641
  26 H :    0.041915
  27 H :    0.038805
  28 C :   -0.027041
  29 H :    0.048880
  30 H :    0.021088
  31 H :    0.024056
  32 H :    0.055095
  33 H :    0.062862
Sum of atomic charges:   -0.0000000

LOEWDIN ATOMIC CHARGES
----------------------
   0 S :    0.343490
   1 C :   -0.191961
   2 C :   -0.065342
   3 C :   -0.068099
   4 C :   -0.154289
   5 H :    0.020468
   6 C :   -0.022087
   7 H :    0.024546
   8 H :    0.026216
   9 C :   -0.030296
  10 H :    0.023030
  11 H :    0.022886
  12 C :   -0.068010
  13 H :    0.033852
  14 H :    0.015164
  15 H :    0.031104
  16 S :    0.410443
  17 C :   -0.198243
  18 C :   -0.071930
  19 C :   -0.042891
  20 C :   -0.189803
  21 H :    0.030448
  22 C :   -0.035503
  23 H :    0.037253
  24 H :    0.029865
  25 C :   -0.046317
  26 H :    0.032831
  27 H :    0.027183
  28 C :   -0.075236
  29 H :    0.033164
  30 H :    0.024597
  31 H :    0.026746
  32 H :    0.029918
  33 H :    0.036801

  Mayer bond orders larger than 0.100000
B(  0-S ,  1-C ) :   1.1118 B(  0-S ,  4-C ) :   1.1238 B(  1-C ,  2-C ) :   1.6506
B(  1-C ,  4-C ) :   0.1015 B(  1-C , 32-H ) :   0.9582 B(  2-C ,  3-C ) :   1.2241
B(  2-C ,  6-C ) :   1.0231 B(  3-C ,  4-C ) :   1.5499 B(  3-C ,  5-H ) :   0.9881
B(  4-C , 20-C ) :   1.1275 B(  6-C ,  7-H ) :   0.9458 B(  6-C ,  8-H ) :   0.9351
B(  6-C ,  9-C ) :   1.0488 B(  9-C , 10-H ) :   0.9565 B(  9-C , 11-H ) :   0.9497
B(  9-C , 12-C ) :   1.0868 B( 12-C , 13-H ) :   0.9741 B( 12-C , 14-H ) :   0.9758
B( 12-C , 15-H ) :   0.9729 B( 16-S , 17-C ) :   1.1670 B( 16-S , 20-C ) :   1.1058
B( 17-C , 18-C ) :   1.6137 B( 17-C , 33-H ) :   0.9557 B( 18-C , 19-C ) :   1.2394
B( 18-C , 21-H ) :   0.9897 B( 19-C , 20-C ) :   1.5745 B( 19-C , 22-C ) :   1.0589
B( 22-C , 23-H ) :   0.9310 B( 22-C , 24-H ) :   0.9177 B( 22-C , 25-C ) :   1.0569
B( 25-C , 26-H ) :   0.9516 B( 25-C , 27-H ) :   0.9490 B( 25-C , 28-C ) :   1.0857
B( 28-C , 29-H ) :   0.9731 B( 28-C , 30-H ) :   0.9690 B( 28-C , 31-H ) :   0.9677

Dispersion correction           -0.014028637
FINAL SINGLE POINT ENERGY     -1339.866227495328

DIPOLE MOMENT
-------------
                                X             Y             Z
Electronic contribution:     -1.23359     -25.69527     -19.03544
Nuclear contribution   :      1.46872      26.09208      19.70558
                        -----------------------------------------
Total Dipole Moment    :      0.23513       0.39681       0.67015
                        -----------------------------------------
Magnitude (a.u.)       :      0.81354
Magnitude (Debye)      :      2.06785

Rotational constants in cm-1:     0.017351     0.008942     0.006371
Rotational constants in MHz :   520.182202   268.072166   190.987473

                             ****ORCA TERMINATED NORMALLY****
TOTAL RUN TIME: 0 days 0 hours 0 minutes 30 seconds 299 msec
