                         Program Version 4.2.1 -  RELEASE  -
|  1> ! wB97X-D3 SP def2-SVP
|  2> %pal
|  3> nprocs 16
|  4> end
|  5>
|  6> * xyz 0 1
|  7> S 	 2.56719 	 25.0642 	 37.0257
|  8> C 	 1.71483 	 26.3012 	 37.8927
|  9> C 	 0.956785 	 25.7663 	 38.9466
| 10> C 	 1.1402 	 24.3741 	 39.1529
| 11> C 	 2.00345 	 23.8247 	 38.1849
| 12> H 	 0.826662 	 23.7092 	 39.9382
| 13> C 	 -0.0107904 	 26.5827 	 39.796
| 14> H 	 0.496979 	 27.2643 	 40.4648
| 15> H 	 -0.436108 	 25.8122 	 40.4703
| 16> C 	 -1.24091 	 27.2248 	 39.1225
| 17> H 	 -0.728248 	 28.0818 	 38.6439
| 18> H 	 -1.61784 	 26.5728 	 38.323
| 19> C 	 -2.20926 	 28.0237 	 40.0762
| 20> H 	 -1.65909 	 28.921 	 40.4713
| 21> H 	 -3.20359 	 28.1963 	 39.544
| 22> H 	 -2.41982 	 27.3084 	 40.8268
| 23> S 	 4.2343 	 22.3504 	 39.0486
| 24> C 	 4.2487 	 20.6184 	 38.8283
| 25> C 	 3.09942 	 20.2791 	 38.1797
| 26> C 	 2.21069 	 21.3245 	 37.8355
| 27> C 	 2.69231 	 22.572 	 38.1894
| 28> H 	 2.99404 	 19.2375 	 38.0385
| 29> C 	 0.943619 	 21.1739 	 36.9879
| 30> H 	 1.07235 	 20.1987 	 36.5361
| 31> H 	 0.854335 	 22.0007 	 36.2655
| 32> C 	 -0.290404 	 21.0328 	 37.878
| 33> H 	 -0.578165 	 21.9739 	 38.2596
| 34> H 	 -0.0752111 	 20.2736 	 38.6538
| 35> C 	 -1.45469 	 20.395 	 37.0857
| 36> H 	 -1.6879 	 20.9644 	 36.1904
| 37> H 	 -2.34081 	 20.3473 	 37.702
| 38> H 	 -1.22435 	 19.3918 	 36.867
| 39> H 	 1.74679 	 27.38 	 37.588
| 40> H 	 5.02835 	 19.9769 	 39.1935
| 41> *
| 42>
| 43>                          ****END OF INPUT****

CARTESIAN COORDINATES (ANGSTROEM)
---------------------------------
  S      2.567190   25.064200   37.025700
  C      1.714830   26.301200   37.892700
  C      0.956785   25.766300   38.946600
  C      1.140200   24.374100   39.152900
  C      2.003450   23.824700   38.184900
  H      0.826662   23.709200   39.938200
  C     -0.010790   26.582700   39.796000
  H      0.496979   27.264300   40.464800
  H     -0.436108   25.812200   40.470300
  C     -1.240910   27.224800   39.122500
  H     -0.728248   28.081800   38.643900
  H     -1.617840   26.572800   38.323000
  C     -2.209260   28.023700   40.076200
  H     -1.659090   28.921000   40.471300
  H     -3.203590   28.196300   39.544000
  H     -2.419820   27.308400   40.826800
  S      4.234300   22.350400   39.048600
  C      4.248700   20.618400   38.828300
  C      3.099420   20.279100   38.179700
  C      2.210690   21.324500   37.835500
  C      2.692310   22.572000   38.189400
  H      2.994040   19.237500   38.038500
  C      0.943619   21.173900   36.987900
  H      1.072350   20.198700   36.536100
  H      0.854335   22.000700   36.265500
  C     -0.290404   21.032800   37.878000
  H     -0.578165   21.973900   38.259600
  H     -0.075211   20.273600   38.653800
  C     -1.454690   20.395000   37.085700
  H     -1.687900   20.964400   36.190400
  H     -2.340810   20.347300   37.702000
  H     -1.224350   19.391800   36.867000
  H      1.746790   27.380000   37.588000
  H      5.028350   19.976900   39.193500

 Total Charge           Charge          ....    0
 Multiplicity           Mult            ....    1
 Number of Electrons    NEL             ....  134
 Basis Dimension        Dim             ....  322

ORBITAL ENERGIES
----------------

  NO   OCC          E(Eh)            E(eV)
   0   2.0000     -88.968259     -2420.9494
   1   2.0000     -88.958214     -2420.6761
   2   2.0000     -10.329879      -281.0903
   3   2.0000     -10.321584      -280.8646
   4   2.0000     -10.320100      -280.8242
   5   2.0000     -10.315664      -280.7035
   6   2.0000     -10.306460      -280.4530
   7   2.0000     -10.301893      -280.3288
   8   2.0000     -10.299674      -280.2684
   9   2.0000     -10.291436      -280.0442
  10   2.0000     -10.290753      -280.0256
  11   2.0000     -10.289261      -279.9850
  12   2.0000     -10.288978      -279.9773
  13   2.0000     -10.287058      -279.9251
  14   2.0000     -10.280220      -279.7390
  15   2.0000     -10.269005      -279.4338
  16   2.0000      -8.082585      -219.9383
  17   2.0000      -8.072910      -219.6750
  18   2.0000      -6.040942      -164.3824
  19   2.0000      -6.037000      -164.2751
  20   2.0000      -6.033684      -164.1849
  21   2.0000      -6.031385      -164.1223
  22   2.0000      -6.027308      -164.0114
  23   2.0000      -6.023792      -163.9157
  24   2.0000      -1.004211       -27.3260
  25   2.0000      -0.981976       -26.7209
  26   2.0000      -0.909736       -24.7552
  27   2.0000      -0.906599       -24.6698
  28   2.0000      -0.870389       -23.6845
  29   2.0000      -0.851279       -23.1645
  30   2.0000      -0.845533       -23.0081
  31   2.0000      -0.812755       -22.1162
  32   2.0000      -0.780424       -21.2364
  33   2.0000      -0.767662       -20.8891
  34   2.0000      -0.705495       -19.1975
  35   2.0000      -0.697407       -18.9774
  36   2.0000      -0.691725       -18.8228
  37   2.0000      -0.658920       -17.9301
  38   2.0000      -0.646795       -17.6002
  39   2.0000      -0.612701       -16.6724
  40   2.0000      -0.595217       -16.1967
  41   2.0000      -0.573539       -15.6068
  42   2.0000      -0.566327       -15.4105
  43   2.0000      -0.565431       -15.3862
  44   2.0000      -0.528532       -14.3821
  45   2.0000      -0.520817       -14.1722
  46   2.0000      -0.515852       -14.0370
  47   2.0000      -0.512549       -13.9472
  48   2.0000      -0.508322       -13.8321
  49   2.0000      -0.500259       -13.6127
  50   2.0000      -0.489904       -13.3310
  51   2.0000      -0.478700       -13.0261
  52   2.0000      -0.475884       -12.9495
  53   2.0000      -0.463994       -12.6259
  54   2.0000      -0.461173       -12.5492
  55   2.0000      -0.444361       -12.0917
  56   2.0000      -0.442465       -12.0401
  57   2.0000      -0.436541       -11.8789
  58   2.0000      -0.430759       -11.7216
  59   2.0000      -0.429291       -11.6816
  60   2.0000      -0.427177       -11.6241
  61   2.0000      -0.405941       -11.0462
  62   2.0000      -0.391548       -10.6546
  63   2.0000      -0.342414        -9.3176
  64   2.0000      -0.326092        -8.8734
  65   2.0000      -0.317581        -8.6418
  66   2.0000      -0.308726        -8.4009
  67   0.0000       0.034233         0.9315
  68   0.0000       0.052274         1.4224
  69   0.0000       0.114659         3.1200
  70   0.0000       0.121138         3.2963
  71   0.0000       0.134105         3.6492

MULLIKEN ATOMIC CHARGES
-----------------------
   0 S :    0.115502
   1 C :   -0.132063
   2 C :   -0.099581
   3 C :    0.074374
   4 C :   -0.222554
   5 H :    0.025638
   6 C :    0.055262
   7 H :    0.032941
   8 H :    0.008336
   9 C :   -0.106091
  10 H :    0.020958
  11 H :    0.045660
  12 C :   -0.051980
  13 H :    0.054843
  14 H :    0.057023
  15 H :    0.022457
  16 S :    0.097893
  17 C :   -0.099483
  18 C :   -0.024536
  19 C :   -0.019199
  20 C :   -0.158363
  21 H :   -0.001179
  22 C :    0.102476
  23 H :    0.006741
  24 H :    0.042648
  25 C :   -0.084323
  26 H :    0.023474
  27 H :    0.030746
  28 C :   -0.020843
  29 H :    0.028945
  30 H :    0.025000
  31 H :    0.016306
  32 H :    0.073683
  33 H :    0.059290
Sum of atomic charges:   -0.0000000

LOEWDIN ATOMIC CHARGES
----------------------
   0 S :    0.409123
   1 C :   -0.202787
   2 C :   -0.069966
   3 C :   -0.045460
   4 C :   -0.189270
   5 H :    0.037599
   6 C :   -0.038953
   7 H :    0.028211
   8 H :    0.024511
   9 C :   -0.052272
  10 H :    0.022255
  11 H :    0.027778
  12 C :   -0.065854
  13 H :    0.036897
  14 H :    0.041434
  15 H :    0.014755
  16 S :    0.391290
  17 C :   -0.176847
  18 C :   -0.079566
  19 C :   -0.050844
  20 C :   -0.210206
  21 H :    0.023924
  22 C :   -0.022724
  23 H :    0.028019
  24 H :    0.034499
  25 C :   -0.032620
  26 H :    0.013956
  27 H :    0.028381
  28 C :   -0.059140
  29 H :    0.023218
  30 H :    0.023730
  31 H :    0.015874
  32 H :    0.039326
  33 H :    0.031728

  Mayer bond orders larger than 0.100000
B(  0-S ,  1-C ) :   1.1631 B(  0-S ,  4-C ) :   1.1577 B(  1-C ,  2-C ) :   1.5738
B(  1-C ,  4-C ) :   0.1058 B(  1-C , 32-H ) :   0.9658 B(  2-C ,  3-C ) :   1.2590
B(  2-C ,  6-C ) :   1.0144 B(  3-C ,  4-C ) :   1.5663 B(  3-C ,  5-H ) :   0.9892
B(  4-C , 20-C ) :   1.0273 B(  6-C ,  7-H ) :   0.9408 B(  6-C ,  8-H ) :   0.9409
B(  6-C ,  9-C ) :   1.0503 B(  9-C , 10-H ) :   0.9605 B(  9-C , 11-H ) :   0.9627
B(  9-C , 12-C ) :   1.0537 B( 12-C , 13-H ) :   0.9756 B( 12-C , 14-H ) :   0.9738
B( 12-C , 15-H ) :   0.9814 B( 16-S , 17-C ) :   1.1639 B( 16-S , 20-C ) :   1.1326
B( 17-C , 18-C ) :   1.5977 B( 17-C , 33-H ) :   0.9707 B( 18-C , 19-C ) :   1.2468
B( 18-C , 21-H ) :   0.9990 B( 19-C , 20-C ) :   1.5874 B( 19-C , 22-C ) :   1.0336
B( 22-C , 23-H ) :   0.9343 B( 22-C , 24-H ) :   0.9334 B( 22-C , 25-C ) :   1.0681
B( 25-C , 26-H ) :   0.9535 B( 25-C , 27-H ) :   0.9587 B( 25-C , 28-C ) :   1.0896
B( 28-C , 29-H ) :   0.9722 B( 28-C , 30-H ) :   0.9736 B( 28-C , 31-H ) :   0.9759

Dispersion correction           -0.014086999
FINAL SINGLE POINT ENERGY     -1339.864939337694

DIPOLE MOMENT
-------------
                                X             Y             Z
Electronic contribution:     28.07650      -2.81096      -3.35535
Nuclear contribution   :    -28.56297       2.71000       3.55248
                        -----------------------------------------
Total Dipole Moment    :     -0.48647      -0.10096       0.19713
                        -----------------------------------------
Magnitude (a.u.)       :      0.53451
Magnitude (Debye)      :      1.35863

Rotational constants in cm-1:     0.018758     0.008013     0.006452
Rotational constants in MHz :   562.351121   240.238186   193.434869

                             ****ORCA TERMINATED NORMALLY****
TOTAL RUN TIME: 0 days 0 hours 0 minutes 32 seconds 593 msec
