                         Program Version 4.2.1 -  RELEASE  -
|  1> ! wB97X-D3 SP def2-SVP
|  2> %pal
|  3> nprocs 16
|  4> end
|  5>
|  6> * xyz 0 1
|  7> S 	 -79.8164 	 42.4573 	 127.297
|  8> C 	 -81.1743 	 41.3992 	 127.229
|  9> C 	 -82.002 	 41.5124 	 128.336
| 10> C 	 -81.6907 	 42.7132 	 129.057
| 11> C 	 -80.5343 	 43.3562 	 128.556
| 12> H 	 -82.188 	 43.1211 	 129.9
| 13> C 	 -82.998 	 40.5119 	 128.815
| 14> H 	 -82.6907 	 40.4188 	 129.882
| 15> H 	 -82.8252 	 39.6445 	 128.202
| 16> C 	 -84.4487 	 40.9297 	 128.699
| 17> H 	 -84.6469 	 41.8013 	 129.339
| 18> H 	 -84.6606 	 41.1495 	 127.691
| 19> C 	 -85.4904 	 39.9014 	 129.141
| 20> H 	 -85.4469 	 38.8516 	 128.584
| 21> H 	 -85.3298 	 39.5816 	 130.156
| 22> H 	 -86.5268 	 40.2143 	 129.099
| 23> S 	 -79.1836 	 45.8241 	 127.899
| 24> C 	 -78.5839 	 46.7338 	 129.253
| 25> C 	 -78.8253 	 46.1383 	 130.446
| 26> C 	 -79.5919 	 44.9792 	 130.351
| 27> C 	 -79.8378 	 44.6085 	 129.029
| 28> H 	 -78.3994 	 46.5651 	 131.365
| 29> C 	 -79.8798 	 44.1869 	 131.649
| 30> H 	 -78.9088 	 44.0299 	 132.157
| 31> H 	 -80.2111 	 43.1945 	 131.408
| 32> C 	 -80.9872 	 44.6644 	 132.508
| 33> H 	 -81.7585 	 44.9874 	 131.879
| 34> H 	 -80.5971 	 45.5298 	 133.096
| 35> C 	 -81.6085 	 43.5623 	 133.462
| 36> H 	 -82.1788 	 42.8543 	 132.859
| 37> H 	 -82.2008 	 44.0337 	 134.268
| 38> H 	 -80.7964 	 43.041 	 133.993
| 39> H 	 -81.1383 	 40.4605 	 126.642
| 40> H 	 -78.1065 	 47.6452 	 129.083
| 41> *
| 42>
| 43>                          ****END OF INPUT****

CARTESIAN COORDINATES (ANGSTROEM)
---------------------------------
  S    -79.816400   42.457300  127.297000
  C    -81.174300   41.399200  127.229000
  C    -82.002000   41.512400  128.336000
  C    -81.690700   42.713200  129.057000
  C    -80.534300   43.356200  128.556000
  H    -82.188000   43.121100  129.900000
  C    -82.998000   40.511900  128.815000
  H    -82.690700   40.418800  129.882000
  H    -82.825200   39.644500  128.202000
  C    -84.448700   40.929700  128.699000
  H    -84.646900   41.801300  129.339000
  H    -84.660600   41.149500  127.691000
  C    -85.490400   39.901400  129.141000
  H    -85.446900   38.851600  128.584000
  H    -85.329800   39.581600  130.156000
  H    -86.526800   40.214300  129.099000
  S    -79.183600   45.824100  127.899000
  C    -78.583900   46.733800  129.253000
  C    -78.825300   46.138300  130.446000
  C    -79.591900   44.979200  130.351000
  C    -79.837800   44.608500  129.029000
  H    -78.399400   46.565100  131.365000
  C    -79.879800   44.186900  131.649000
  H    -78.908800   44.029900  132.157000
  H    -80.211100   43.194500  131.408000
  C    -80.987200   44.664400  132.508000
  H    -81.758500   44.987400  131.879000
  H    -80.597100   45.529800  133.096000
  C    -81.608500   43.562300  133.462000
  H    -82.178800   42.854300  132.859000
  H    -82.200800   44.033700  134.268000
  H    -80.796400   43.041000  133.993000
  H    -81.138300   40.460500  126.642000
  H    -78.106500   47.645200  129.083000

 Total Charge           Charge          ....    0
 Multiplicity           Mult            ....    1
 Number of Electrons    NEL             ....  134
 Basis Dimension        Dim             ....  322

ORBITAL ENERGIES
----------------

  NO   OCC          E(Eh)            E(eV)
   0   2.0000     -88.968763     -2420.9631
   1   2.0000     -88.965988     -2420.8876
   2   2.0000     -10.333391      -281.1859
   3   2.0000     -10.332159      -281.1523
   4   2.0000     -10.311529      -280.5910
   5   2.0000     -10.309591      -280.5382
   6   2.0000     -10.302352      -280.3412
   7   2.0000     -10.301172      -280.3091
   8   2.0000     -10.294018      -280.1145
   9   2.0000     -10.293964      -280.1130
  10   2.0000     -10.289837      -280.0007
  11   2.0000     -10.288024      -279.9514
  12   2.0000     -10.287607      -279.9400
  13   2.0000     -10.285347      -279.8785
  14   2.0000     -10.284697      -279.8608
  15   2.0000     -10.284589      -279.8579
  16   2.0000      -8.083192      -219.9548
  17   2.0000      -8.081921      -219.9203
  18   2.0000      -6.041640      -164.4014
  19   2.0000      -6.040220      -164.3627
  20   2.0000      -6.037786      -164.2965
  21   2.0000      -6.036297      -164.2560
  22   2.0000      -6.033997      -164.1934
  23   2.0000      -6.032805      -164.1610
  24   2.0000      -1.008199       -27.4345
  25   2.0000      -0.989921       -26.9371
  26   2.0000      -0.918936       -25.0055
  27   2.0000      -0.913298       -24.8521
  28   2.0000      -0.865780       -23.5591
  29   2.0000      -0.852458       -23.1966
  30   2.0000      -0.848140       -23.0791
  31   2.0000      -0.813004       -22.1230
  32   2.0000      -0.785533       -21.3754
  33   2.0000      -0.774066       -21.0634
  34   2.0000      -0.706564       -19.2266
  35   2.0000      -0.698634       -19.0108
  36   2.0000      -0.693141       -18.8613
  37   2.0000      -0.660378       -17.9698
  38   2.0000      -0.639578       -17.4038
  39   2.0000      -0.622696       -16.9444
  40   2.0000      -0.604126       -16.4391
  41   2.0000      -0.577057       -15.7025
  42   2.0000      -0.572163       -15.5694
  43   2.0000      -0.560457       -15.2508
  44   2.0000      -0.527692       -14.3592
  45   2.0000      -0.521816       -14.1993
  46   2.0000      -0.513181       -13.9644
  47   2.0000      -0.508701       -13.8425
  48   2.0000      -0.507022       -13.7968
  49   2.0000      -0.502618       -13.6769
  50   2.0000      -0.486648       -13.2424
  51   2.0000      -0.480470       -13.0742
  52   2.0000      -0.474951       -12.9241
  53   2.0000      -0.463914       -12.6237
  54   2.0000      -0.460186       -12.5223
  55   2.0000      -0.453669       -12.3450
  56   2.0000      -0.449078       -12.2200
  57   2.0000      -0.441953       -12.0262
  58   2.0000      -0.438031       -11.9194
  59   2.0000      -0.423014       -11.5108
  60   2.0000      -0.421479       -11.4690
  61   2.0000      -0.418669       -11.3926
  62   2.0000      -0.413794       -11.2599
  63   2.0000      -0.347604        -9.4588
  64   2.0000      -0.338022        -9.1980
  65   2.0000      -0.328394        -8.9360
  66   2.0000      -0.290492        -7.9047
  67   0.0000       0.029646         0.8067
  68   0.0000       0.073565         2.0018
  69   0.0000       0.099832         2.7166
  70   0.0000       0.117773         3.2048
  71   0.0000       0.129181         3.5152

MULLIKEN ATOMIC CHARGES
-----------------------
   0 S :    0.120585
   1 C :   -0.123666
   2 C :   -0.119701
   3 C :    0.041122
   4 C :   -0.162571
   5 H :   -0.013894
   6 C :    0.092939
   7 H :    0.041435
   8 H :    0.010692
   9 C :   -0.044608
  10 H :    0.031140
  11 H :    0.024440
  12 C :   -0.073973
  13 H :    0.031975
  14 H :    0.016779
  15 H :    0.040375
  16 S :    0.112099
  17 C :   -0.077979
  18 C :   -0.022109
  19 C :   -0.028735
  20 C :   -0.154813
  21 H :    0.025649
  22 C :    0.067115
  23 H :    0.038186
  24 H :   -0.006110
  25 C :   -0.061983
  26 H :    0.023358
  27 H :    0.029347
  28 C :   -0.067002
  29 H :    0.038231
  30 H :    0.045035
  31 H :    0.034130
  32 H :    0.056005
  33 H :    0.036508
Sum of atomic charges:    0.0000000

LOEWDIN ATOMIC CHARGES
----------------------
   0 S :    0.438569
   1 C :   -0.224042
   2 C :   -0.057824
   3 C :   -0.068148
   4 C :   -0.195062
   5 H :    0.020641
   6 C :   -0.027636
   7 H :    0.041861
   8 H :    0.029066
   9 C :   -0.037729
  10 H :    0.028565
  11 H :    0.021744
  12 C :   -0.075591
  13 H :    0.032140
  14 H :    0.017673
  15 H :    0.025935
  16 S :    0.398716
  17 C :   -0.171325
  18 C :   -0.073584
  19 C :   -0.053158
  20 C :   -0.195928
  21 H :    0.037651
  22 C :   -0.033603
  23 H :    0.034708
  24 H :    0.021643
  25 C :   -0.039300
  26 H :    0.017289
  27 H :    0.024731
  28 C :   -0.064513
  29 H :    0.022991
  30 H :    0.031689
  31 H :    0.026228
  32 H :    0.029573
  33 H :    0.016032

  Mayer bond orders larger than 0.100000
B(  0-S ,  1-C ) :   1.1435 B(  0-S ,  4-C ) :   1.1985 B(  1-C ,  2-C ) :   1.6045
B(  1-C , 32-H ) :   0.9571 B(  2-C ,  3-C ) :   1.2429 B(  2-C ,  6-C ) :   1.0267
B(  3-C ,  4-C ) :   1.5459 B(  3-C ,  5-H ) :   1.0014 B(  4-C , 20-C ) :   1.0173
B(  6-C ,  7-H ) :   0.9329 B(  6-C ,  8-H ) :   0.9304 B(  6-C ,  9-C ) :   1.0789
B(  9-C , 10-H ) :   0.9519 B(  9-C , 11-H ) :   0.9540 B(  9-C , 12-C ) :   1.0846
B( 12-C , 13-H ) :   0.9723 B( 12-C , 14-H ) :   0.9725 B( 12-C , 15-H ) :   0.9758
B( 16-S , 17-C ) :   1.1580 B( 16-S , 20-C ) :   1.1432 B( 17-C , 18-C ) :   1.5972
B( 17-C , 33-H ) :   0.9751 B( 18-C , 19-C ) :   1.2540 B( 18-C , 21-H ) :   0.9912
B( 19-C , 20-C ) :   1.5882 B( 19-C , 22-C ) :   1.0379 B( 22-C , 23-H ) :   0.9361
B( 22-C , 24-H ) :   0.9270 B( 22-C , 25-C ) :   1.0617 B( 25-C , 26-H ) :   0.9528
B( 25-C , 27-H ) :   0.9526 B( 25-C , 28-C ) :   1.0839 B( 28-C , 29-H ) :   0.9739
B( 28-C , 30-H ) :   0.9761 B( 28-C , 31-H ) :   0.9764

Dispersion correction           -0.014001009
FINAL SINGLE POINT ENERGY     -1339.876637537180

DIPOLE MOMENT
-------------
                                X             Y             Z
Electronic contribution:     21.37566      13.38636     -20.99358
Nuclear contribution   :    -21.54224     -13.54746      21.64864
                        -----------------------------------------
Total Dipole Moment    :     -0.16658      -0.16110       0.65506
                        -----------------------------------------
Magnitude (a.u.)       :      0.69484
Magnitude (Debye)      :      1.76614

Rotational constants in cm-1:     0.017795     0.008701     0.006317
Rotational constants in MHz :   533.485326   260.861649   189.383289

                             ****ORCA TERMINATED NORMALLY****
TOTAL RUN TIME: 0 days 0 hours 0 minutes 33 seconds 562 msec
