                         Program Version 4.2.1 -  RELEASE  -
|  1> ! wB97X-D3 SP def2-SVP
|  2> %pal
|  3> nprocs 16
|  4> end
|  5>
|  6> * xyz 0 1
|  7> S 	 -43.9378 	 26.8614 	 89.1656
|  8> C 	 -44.4956 	 28.2749 	 88.2323
|  9> C 	 -44.0706 	 28.1424 	 86.8876
| 10> C 	 -43.3711 	 26.9303 	 86.6583
| 11> C 	 -43.1426 	 26.1991 	 87.7775
| 12> H 	 -42.9253 	 26.5934 	 85.7477
| 13> C 	 -44.328 	 29.1667 	 85.7297
| 14> H 	 -43.6026 	 28.9866 	 84.9545
| 15> H 	 -44.2179 	 30.1973 	 85.9643
| 16> C 	 -45.6984 	 28.9187 	 85.0515
| 17> H 	 -45.6915 	 29.4477 	 84.0654
| 18> H 	 -45.8973 	 27.8258 	 85.0103
| 19> C 	 -46.9696 	 29.3759 	 85.8178
| 20> H 	 -47.9327 	 29.1374 	 85.2989
| 21> H 	 -46.9131 	 28.7165 	 86.7047
| 22> H 	 -46.9612 	 30.4532 	 86.1889
| 23> S 	 -43.3201 	 23.5307 	 88.4707
| 24> C 	 -41.8528 	 22.657 	 88.6972
| 25> C 	 -40.786 	 23.3134 	 88.1508
| 26> C 	 -41.1245 	 24.6321 	 87.7076
| 27> C 	 -42.4188 	 24.9468 	 87.887
| 28> H 	 -39.8511 	 22.8602 	 88.3345
| 29> C 	 -40.051 	 25.5776 	 87.2529
| 30> H 	 -39.1178 	 25.5286 	 87.7651
| 31> H 	 -40.3991 	 26.5937 	 87.2999
| 32> C 	 -39.5915 	 25.3642 	 85.7709
| 33> H 	 -39.268 	 24.3896 	 85.5662
| 34> H 	 -38.7545 	 25.9834 	 85.5342
| 35> C 	 -40.6866 	 25.6432 	 84.7131
| 36> H 	 -41.5356 	 24.9774 	 84.8681
| 37> H 	 -40.2819 	 25.4577 	 83.7141
| 38> H 	 -40.9096 	 26.7337 	 84.7749
| 39> H 	 -44.9289 	 29.1767 	 88.6855
| 40> H 	 -41.8038 	 21.6822 	 89.0395
| 41> *
| 42>
| 43>                          ****END OF INPUT****

CARTESIAN COORDINATES (ANGSTROEM)
---------------------------------
  S    -43.937800   26.861400   89.165600
  C    -44.495600   28.274900   88.232300
  C    -44.070600   28.142400   86.887600
  C    -43.371100   26.930300   86.658300
  C    -43.142600   26.199100   87.777500
  H    -42.925300   26.593400   85.747700
  C    -44.328000   29.166700   85.729700
  H    -43.602600   28.986600   84.954500
  H    -44.217900   30.197300   85.964300
  C    -45.698400   28.918700   85.051500
  H    -45.691500   29.447700   84.065400
  H    -45.897300   27.825800   85.010300
  C    -46.969600   29.375900   85.817800
  H    -47.932700   29.137400   85.298900
  H    -46.913100   28.716500   86.704700
  H    -46.961200   30.453200   86.188900
  S    -43.320100   23.530700   88.470700
  C    -41.852800   22.657000   88.697200
  C    -40.786000   23.313400   88.150800
  C    -41.124500   24.632100   87.707600
  C    -42.418800   24.946800   87.887000
  H    -39.851100   22.860200   88.334500
  C    -40.051000   25.577600   87.252900
  H    -39.117800   25.528600   87.765100
  H    -40.399100   26.593700   87.299900
  C    -39.591500   25.364200   85.770900
  H    -39.268000   24.389600   85.566200
  H    -38.754500   25.983400   85.534200
  C    -40.686600   25.643200   84.713100
  H    -41.535600   24.977400   84.868100
  H    -40.281900   25.457700   83.714100
  H    -40.909600   26.733700   84.774900
  H    -44.928900   29.176700   88.685500
  H    -41.803800   21.682200   89.039500

 Total Charge           Charge          ....    0
 Multiplicity           Mult            ....    1
 Number of Electrons    NEL             ....  134
 Basis Dimension        Dim             ....  322

ORBITAL ENERGIES
----------------

  NO   OCC          E(Eh)            E(eV)
   0   2.0000     -88.967032     -2420.9160
   1   2.0000     -88.961444     -2420.7640
   2   2.0000     -10.325076      -280.9596
   3   2.0000     -10.323291      -280.9110
   4   2.0000     -10.322521      -280.8901
   5   2.0000     -10.310089      -280.5518
   6   2.0000     -10.309405      -280.5332
   7   2.0000     -10.301782      -280.3257
   8   2.0000     -10.294461      -280.1265
   9   2.0000     -10.291184      -280.0373
  10   2.0000     -10.288982      -279.9774
  11   2.0000     -10.288404      -279.9617
  12   2.0000     -10.287001      -279.9235
  13   2.0000     -10.282087      -279.7898
  14   2.0000     -10.279360      -279.7156
  15   2.0000     -10.278891      -279.7028
  16   2.0000      -8.081538      -219.9098
  17   2.0000      -8.076794      -219.7807
  18   2.0000      -6.040026      -164.3575
  19   2.0000      -6.036002      -164.2480
  20   2.0000      -6.035277      -164.2282
  21   2.0000      -6.032387      -164.1496
  22   2.0000      -6.031292      -164.1198
  23   2.0000      -6.027461      -164.0155
  24   2.0000      -1.011733       -27.5306
  25   2.0000      -0.986222       -26.8365
  26   2.0000      -0.909480       -24.7482
  27   2.0000      -0.905876       -24.6502
  28   2.0000      -0.868716       -23.6390
  29   2.0000      -0.850321       -23.1384
  30   2.0000      -0.844800       -22.9882
  31   2.0000      -0.814441       -22.1621
  32   2.0000      -0.784963       -21.3599
  33   2.0000      -0.777671       -21.1615
  34   2.0000      -0.706224       -19.2173
  35   2.0000      -0.697812       -18.9884
  36   2.0000      -0.683110       -18.5884
  37   2.0000      -0.662872       -18.0377
  38   2.0000      -0.647488       -17.6190
  39   2.0000      -0.622718       -16.9450
  40   2.0000      -0.603325       -16.4173
  41   2.0000      -0.574303       -15.6276
  42   2.0000      -0.552459       -15.0332
  43   2.0000      -0.550426       -14.9779
  44   2.0000      -0.540787       -14.7156
  45   2.0000      -0.537111       -14.6155
  46   2.0000      -0.525042       -14.2871
  47   2.0000      -0.512433       -13.9440
  48   2.0000      -0.504037       -13.7155
  49   2.0000      -0.494160       -13.4468
  50   2.0000      -0.490574       -13.3492
  51   2.0000      -0.483895       -13.1675
  52   2.0000      -0.467647       -12.7253
  53   2.0000      -0.465680       -12.6718
  54   2.0000      -0.459575       -12.5057
  55   2.0000      -0.443209       -12.0603
  56   2.0000      -0.439453       -11.9581
  57   2.0000      -0.437103       -11.8942
  58   2.0000      -0.431788       -11.7495
  59   2.0000      -0.422544       -11.4980
  60   2.0000      -0.421241       -11.4625
  61   2.0000      -0.419803       -11.4234
  62   2.0000      -0.403730       -10.9861
  63   2.0000      -0.342449        -9.3185
  64   2.0000      -0.336626        -9.1601
  65   2.0000      -0.327461        -8.9107
  66   2.0000      -0.301598        -8.2069
  67   0.0000       0.034690         0.9440
  68   0.0000       0.064324         1.7503
  69   0.0000       0.114142         3.1059
  70   0.0000       0.120527         3.2797
  71   0.0000       0.129400         3.5212

MULLIKEN ATOMIC CHARGES
-----------------------
   0 S :    0.117653
   1 C :   -0.134087
   2 C :   -0.102405
   3 C :    0.065513
   4 C :   -0.161879
   5 H :   -0.022472
   6 C :    0.111401
   7 H :    0.017882
   8 H :    0.022903
   9 C :   -0.107989
  10 H :    0.041180
  11 H :    0.042253
  12 C :   -0.096656
  13 H :    0.050126
  14 H :    0.031400
  15 H :    0.036988
  16 S :    0.100084
  17 C :   -0.069608
  18 C :   -0.023076
  19 C :    0.003790
  20 C :   -0.177617
  21 H :    0.008729
  22 C :    0.099443
  23 H :    0.021918
  24 H :    0.021395
  25 C :   -0.068900
  26 H :    0.009938
  27 H :    0.019822
  28 C :   -0.086542
  29 H :    0.057693
  30 H :    0.032154
  31 H :    0.040850
  32 H :    0.065599
  33 H :    0.032516
Sum of atomic charges:    0.0000000

LOEWDIN ATOMIC CHARGES
----------------------
   0 S :    0.408348
   1 C :   -0.196311
   2 C :   -0.055784
   3 C :   -0.062087
   4 C :   -0.197761
   5 H :    0.028433
   6 C :   -0.024279
   7 H :    0.030525
   8 H :    0.024865
   9 C :   -0.045222
  10 H :    0.024415
  11 H :    0.032350
  12 C :   -0.084042
  13 H :    0.031642
  14 H :    0.025250
  15 H :    0.024252
  16 S :    0.394883
  17 C :   -0.170415
  18 C :   -0.068097
  19 C :   -0.053187
  20 C :   -0.190088
  21 H :    0.027416
  22 C :   -0.022022
  23 H :    0.029749
  24 H :    0.028506
  25 C :   -0.031320
  26 H :    0.012319
  27 H :    0.019615
  28 C :   -0.068426
  29 H :    0.025114
  30 H :    0.026163
  31 H :    0.025683
  32 H :    0.033907
  33 H :    0.015608

  Mayer bond orders larger than 0.100000
B(  0-S ,  1-C ) :   1.1385 B(  0-S ,  4-C ) :   1.1586 B(  1-C ,  2-C ) :   1.5904
B(  1-C ,  4-C ) :   0.1022 B(  1-C , 32-H ) :   0.9675 B(  2-C ,  3-C ) :   1.2390
B(  2-C ,  6-C ) :   1.0175 B(  3-C ,  4-C ) :   1.5878 B(  3-C ,  5-H ) :   0.9915
B(  4-C , 20-C ) :   1.0149 B(  6-C ,  7-H ) :   0.9389 B(  6-C ,  8-H ) :   0.9476
B(  6-C ,  9-C ) :   1.0613 B(  9-C , 10-H ) :   0.9577 B(  9-C , 11-H ) :   0.9590
B(  9-C , 12-C ) :   1.0665 B( 12-C , 13-H ) :   0.9742 B( 12-C , 14-H ) :   0.9744
B( 12-C , 15-H ) :   0.9752 B( 16-S , 17-C ) :   1.1525 B( 16-S , 20-C ) :   1.1259
B( 17-C , 18-C ) :   1.6449 B( 17-C , 33-H ) :   0.9719 B( 18-C , 19-C ) :   1.1896
B( 18-C , 21-H ) :   0.9987 B( 19-C , 20-C ) :   1.6466 B( 19-C , 22-C ) :   1.0578
B( 22-C , 23-H ) :   0.9368 B( 22-C , 24-H ) :   0.9328 B( 22-C , 25-C ) :   1.0631
B( 25-C , 26-H ) :   0.9579 B( 25-C , 27-H ) :   0.9577 B( 25-C , 28-C ) :   1.0822
B( 28-C , 29-H ) :   0.9669 B( 28-C , 30-H ) :   0.9690 B( 28-C , 31-H ) :   0.9696

Dispersion correction           -0.015357591
FINAL SINGLE POINT ENERGY     -1339.877871433757

DIPOLE MOMENT
-------------
                                X             Y             Z
Electronic contribution:     -2.09273     -13.76645      20.56887
Nuclear contribution   :      2.61014      13.93208     -20.94298
                        -----------------------------------------
Total Dipole Moment    :      0.51741       0.16563      -0.37411
                        -----------------------------------------
Magnitude (a.u.)       :      0.65962
Magnitude (Debye)      :      1.67662

Rotational constants in cm-1:     0.021355     0.008687     0.007058
Rotational constants in MHz :   640.200050   260.422686   211.585071

                             ****ORCA TERMINATED NORMALLY****
TOTAL RUN TIME: 0 days 0 hours 0 minutes 29 seconds 346 msec
