                         Program Version 4.2.1 -  RELEASE  -
|  1> ! wB97X-D3 SP def2-SVP
|  2> %pal
|  3> nprocs 16
|  4> end
|  5>
|  6> * xyz 0 1
|  7> S 	 12.1037 	 -12.7501 	 94.4096
|  8> C 	 12.3394 	 -12.4572 	 92.6946
|  9> C 	 11.1835 	 -11.9748 	 92.1311
| 10> C 	 10.1244 	 -11.8862 	 93.1396
| 11> C 	 10.459 	 -12.3039 	 94.4465
| 12> H 	 9.10186 	 -11.4585 	 93.0799
| 13> C 	 10.8802 	 -11.6064 	 90.6796
| 14> H 	 10.9539 	 -10.5474 	 90.5943
| 15> H 	 9.84765 	 -11.8856 	 90.3847
| 16> C 	 11.842 	 -12.19 	 89.6191
| 17> H 	 11.6385 	 -11.6761 	 88.6652
| 18> H 	 12.8993 	 -11.985 	 89.8414
| 19> C 	 11.5948 	 -13.6471 	 89.5738
| 20> H 	 10.9232 	 -13.8556 	 88.6827
| 21> H 	 12.4863 	 -14.1416 	 89.1454
| 22> H 	 11.465 	 -14.1027 	 90.5757
| 23> S 	 9.73215 	 -10.6699 	 96.6989
| 24> C 	 8.57762 	 -11.3242 	 97.8212
| 25> C 	 8.09931 	 -12.5433 	 97.3542
| 26> C 	 8.70064 	 -12.9618 	 96.1548
| 27> C 	 9.7186 	 -12.1574 	 95.6676
| 28> H 	 7.33812 	 -13.0159 	 97.9297
| 29> C 	 8.19148 	 -14.1938 	 95.3957
| 30> H 	 8.02253 	 -15.05 	 96.0453
| 31> H 	 8.99375 	 -14.5199 	 94.743
| 32> C 	 6.78179 	 -13.8126 	 94.6537
| 33> H 	 7.02407 	 -13.089 	 93.8988
| 34> H 	 6.1198 	 -13.2653 	 95.2952
| 35> C 	 5.86906 	 -14.9574 	 94.1565
| 36> H 	 6.38173 	 -15.7526 	 93.7056
| 37> H 	 5.16255 	 -14.5232 	 93.411
| 38> H 	 5.39707 	 -15.3762 	 95.04
| 39> H 	 13.2891 	 -12.6894 	 92.1818
| 40> H 	 8.25531 	 -10.8535 	 98.7155
| 41> *
| 42>
| 43>                          ****END OF INPUT****

CARTESIAN COORDINATES (ANGSTROEM)
---------------------------------
  S     12.103700  -12.750100   94.409600
  C     12.339400  -12.457200   92.694600
  C     11.183500  -11.974800   92.131100
  C     10.124400  -11.886200   93.139600
  C     10.459000  -12.303900   94.446500
  H      9.101860  -11.458500   93.079900
  C     10.880200  -11.606400   90.679600
  H     10.953900  -10.547400   90.594300
  H      9.847650  -11.885600   90.384700
  C     11.842000  -12.190000   89.619100
  H     11.638500  -11.676100   88.665200
  H     12.899300  -11.985000   89.841400
  C     11.594800  -13.647100   89.573800
  H     10.923200  -13.855600   88.682700
  H     12.486300  -14.141600   89.145400
  H     11.465000  -14.102700   90.575700
  S      9.732150  -10.669900   96.698900
  C      8.577620  -11.324200   97.821200
  C      8.099310  -12.543300   97.354200
  C      8.700640  -12.961800   96.154800
  C      9.718600  -12.157400   95.667600
  H      7.338120  -13.015900   97.929700
  C      8.191480  -14.193800   95.395700
  H      8.022530  -15.050000   96.045300
  H      8.993750  -14.519900   94.743000
  C      6.781790  -13.812600   94.653700
  H      7.024070  -13.089000   93.898800
  H      6.119800  -13.265300   95.295200
  C      5.869060  -14.957400   94.156500
  H      6.381730  -15.752600   93.705600
  H      5.162550  -14.523200   93.411000
  H      5.397070  -15.376200   95.040000
  H     13.289100  -12.689400   92.181800
  H      8.255310  -10.853500   98.715500

 Total Charge           Charge          ....    0
 Multiplicity           Mult            ....    1
 Number of Electrons    NEL             ....  134
 Basis Dimension        Dim             ....  322

ORBITAL ENERGIES
----------------

  NO   OCC          E(Eh)            E(eV)
   0   2.0000     -88.964579     -2420.8493
   1   2.0000     -88.962897     -2420.8035
   2   2.0000     -10.327579      -281.0277
   3   2.0000     -10.327137      -281.0157
   4   2.0000     -10.321018      -280.8492
   5   2.0000     -10.318681      -280.7856
   6   2.0000     -10.310373      -280.5595
   7   2.0000     -10.303546      -280.3737
   8   2.0000     -10.301307      -280.3128
   9   2.0000     -10.294429      -280.1256
  10   2.0000     -10.293972      -280.1132
  11   2.0000     -10.289956      -280.0039
  12   2.0000     -10.286936      -279.9218
  13   2.0000     -10.286375      -279.9065
  14   2.0000     -10.278343      -279.6879
  15   2.0000     -10.276261      -279.6313
  16   2.0000      -8.078575      -219.8292
  17   2.0000      -8.078399      -219.8244
  18   2.0000      -6.037133      -164.2787
  19   2.0000      -6.036835      -164.2706
  20   2.0000      -6.033128      -164.1698
  21   2.0000      -6.032602      -164.1554
  22   2.0000      -6.029364      -164.0673
  23   2.0000      -6.029343      -164.0668
  24   2.0000      -1.005838       -27.3703
  25   2.0000      -0.984017       -26.7765
  26   2.0000      -0.919002       -25.0073
  27   2.0000      -0.894981       -24.3537
  28   2.0000      -0.872782       -23.7496
  29   2.0000      -0.848548       -23.0902
  30   2.0000      -0.843438       -22.9511
  31   2.0000      -0.810139       -22.0450
  32   2.0000      -0.783126       -21.3100
  33   2.0000      -0.772211       -21.0129
  34   2.0000      -0.706483       -19.2244
  35   2.0000      -0.701048       -19.0765
  36   2.0000      -0.697184       -18.9713
  37   2.0000      -0.657844       -17.9008
  38   2.0000      -0.643861       -17.5203
  39   2.0000      -0.603761       -16.4292
  40   2.0000      -0.590485       -16.0679
  41   2.0000      -0.583450       -15.8765
  42   2.0000      -0.563542       -15.3348
  43   2.0000      -0.556290       -15.1374
  44   2.0000      -0.545717       -14.8497
  45   2.0000      -0.527435       -14.3522
  46   2.0000      -0.519273       -14.1301
  47   2.0000      -0.515177       -14.0187
  48   2.0000      -0.505171       -13.7464
  49   2.0000      -0.498616       -13.5680
  50   2.0000      -0.488677       -13.2976
  51   2.0000      -0.476105       -12.9555
  52   2.0000      -0.471997       -12.8437
  53   2.0000      -0.463709       -12.6182
  54   2.0000      -0.461176       -12.5492
  55   2.0000      -0.444669       -12.1001
  56   2.0000      -0.442394       -12.0382
  57   2.0000      -0.433505       -11.7963
  58   2.0000      -0.426904       -11.6166
  59   2.0000      -0.420893       -11.4531
  60   2.0000      -0.418492       -11.3877
  61   2.0000      -0.412558       -11.2263
  62   2.0000      -0.406732       -11.0677
  63   2.0000      -0.331734        -9.0269
  64   2.0000      -0.326831        -8.8935
  65   2.0000      -0.323582        -8.8051
  66   2.0000      -0.313051        -8.5185
  67   0.0000       0.040944         1.1141
  68   0.0000       0.050479         1.3736
  69   0.0000       0.113875         3.0987
  70   0.0000       0.125611         3.4181
  71   0.0000       0.131336         3.5738

MULLIKEN ATOMIC CHARGES
-----------------------
   0 S :    0.113407
   1 C :   -0.146981
   2 C :   -0.083332
   3 C :    0.023587
   4 C :   -0.213806
   5 H :    0.027054
   6 C :    0.077602
   7 H :    0.033808
   8 H :    0.036993
   9 C :   -0.091349
  10 H :    0.031334
  11 H :    0.026959
  12 C :   -0.071518
  13 H :    0.041111
  14 H :    0.016113
  15 H :    0.066290
  16 S :    0.108538
  17 C :   -0.084453
  18 C :   -0.021205
  19 C :   -0.031253
  20 C :   -0.149342
  21 H :    0.008314
  22 C :    0.088746
  23 H :    0.018328
  24 H :    0.035098
  25 C :   -0.088010
  26 H :    0.017477
  27 H :    0.022040
  28 C :   -0.025277
  29 H :    0.020537
  30 H :    0.045127
  31 H :    0.031900
  32 H :    0.066005
  33 H :    0.050160
Sum of atomic charges:   -0.0000000

LOEWDIN ATOMIC CHARGES
----------------------
   0 S :    0.428966
   1 C :   -0.201291
   2 C :   -0.065293
   3 C :   -0.061259
   4 C :   -0.221816
   5 H :    0.034506
   6 C :   -0.027943
   7 H :    0.029981
   8 H :    0.036262
   9 C :   -0.049270
  10 H :    0.028984
  11 H :    0.019994
  12 C :   -0.085319
  13 H :    0.038881
  14 H :    0.024925
  15 H :    0.035164
  16 S :    0.389978
  17 C :   -0.172211
  18 C :   -0.073965
  19 C :   -0.046355
  20 C :   -0.201946
  21 H :    0.028179
  22 C :   -0.024010
  23 H :    0.025118
  24 H :    0.029624
  25 C :   -0.034951
  26 H :    0.017337
  27 H :    0.021254
  28 C :   -0.062421
  29 H :    0.014825
  30 H :    0.036512
  31 H :    0.025822
  32 H :    0.036039
  33 H :    0.025703

  Mayer bond orders larger than 0.100000
B(  0-S ,  1-C ) :   1.1522 B(  0-S ,  4-C ) :   1.1617 B(  1-C ,  2-C ) :   1.5885
B(  1-C , 32-H ) :   0.9670 B(  2-C ,  3-C ) :   1.2382 B(  2-C ,  6-C ) :   1.0053
B(  3-C ,  4-C ) :   1.5768 B(  3-C ,  5-H ) :   0.9863 B(  4-C , 20-C ) :   1.0460
B(  6-C ,  7-H ) :   0.9295 B(  6-C ,  8-H ) :   0.9484 B(  6-C ,  9-C ) :   1.0833
B(  9-C , 10-H ) :   0.9536 B(  9-C , 11-H ) :   0.9545 B(  9-C , 12-C ) :   1.0815
B( 12-C , 13-H ) :   0.9699 B( 12-C , 14-H ) :   0.9696 B( 12-C , 15-H ) :   0.9717
B( 16-S , 17-C ) :   1.1745 B( 16-S , 20-C ) :   1.1146 B( 17-C , 18-C ) :   1.5845
B( 17-C , 20-C ) :   0.1039 B( 17-C , 33-H ) :   0.9709 B( 18-C , 19-C ) :   1.2508
B( 18-C , 21-H ) :   1.0011 B( 19-C , 20-C ) :   1.5899 B( 19-C , 22-C ) :   1.0541
B( 22-C , 23-H ) :   0.9446 B( 22-C , 24-H ) :   0.9293 B( 22-C , 25-C ) :   1.0310
B( 25-C , 26-H ) :   0.9583 B( 25-C , 27-H ) :   0.9662 B( 25-C , 28-C ) :   1.0729
B( 28-C , 29-H ) :   0.9781 B( 28-C , 30-H ) :   0.9730 B( 28-C , 31-H ) :   0.9778

Dispersion correction           -0.014427342
FINAL SINGLE POINT ENERGY     -1339.865599776668

DIPOLE MOMENT
-------------
                                X             Y             Z
Electronic contribution:     11.82642      12.04903      21.78829
Nuclear contribution   :    -12.25311     -12.14607     -22.22492
                        -----------------------------------------
Total Dipole Moment    :     -0.42669      -0.09705      -0.43663
                        -----------------------------------------
Magnitude (a.u.)       :      0.61817
Magnitude (Debye)      :      1.57125

Rotational constants in cm-1:     0.019189     0.008263     0.006507
Rotational constants in MHz :   575.274310   247.730212   195.087374

                             ****ORCA TERMINATED NORMALLY****
TOTAL RUN TIME: 0 days 0 hours 0 minutes 33 seconds 371 msec
