                         Program Version 4.2.1 -  RELEASE  -
|  1> ! wB97X-D3 SP def2-SVP
|  2> %pal
|  3> nprocs 16
|  4> end
|  5>
|  6> * xyz 0 1
|  7> S 	 -107.8 	 44.5591 	 129.596
|  8> C 	 -106.545 	 45.1867 	 130.674
|  9> C 	 -105.387 	 45.4962 	 129.931
| 10> C 	 -105.635 	 45.3706 	 128.54
| 11> C 	 -106.894 	 44.9095 	 128.193
| 12> H 	 -104.83 	 45.4684 	 127.753
| 13> C 	 -104.086 	 46.0869 	 130.399
| 14> H 	 -104.075 	 47.1465 	 130.314
| 15> H 	 -103.256 	 45.7373 	 129.792
| 16> C 	 -103.523 	 45.6215 	 131.766
| 17> H 	 -104.188 	 45.8707 	 132.52
| 18> H 	 -103.473 	 44.5071 	 131.765
| 19> C 	 -102.157 	 46.3033 	 132.115
| 20> H 	 -102.46 	 47.2415 	 132.631
| 21> H 	 -101.574 	 45.6826 	 132.807
| 22> H 	 -101.549 	 46.4956 	 131.223
| 23> S 	 -107.516 	 42.8405 	 126.5
| 24> C 	 -107.867 	 43.2086 	 124.803
| 25> C 	 -107.564 	 44.4999 	 124.519
| 26> C 	 -107.204 	 45.2691 	 125.642
| 27> C 	 -107.195 	 44.5628 	 126.833
| 28> H 	 -107.603 	 44.9143 	 123.468
| 29> C 	 -106.929 	 46.7531 	 125.572
| 30> H 	 -105.805 	 46.8314 	 125.58
| 31> H 	 -107.223 	 47.186 	 126.518
| 32> C 	 -107.477 	 47.6116 	 124.383
| 33> H 	 -108.525 	 47.3272 	 124.324
| 34> H 	 -106.97 	 47.45 	 123.485
| 35> C 	 -107.305 	 49.1016 	 124.719
| 36> H 	 -107.638 	 49.7237 	 123.896
| 37> H 	 -106.225 	 49.2877 	 124.723
| 38> H 	 -107.694 	 49.4532 	 125.666
| 39> H 	 -106.445 	 45.1892 	 131.795
| 40> H 	 -108.193 	 42.4807 	 124.051
| 41> *
| 42>
| 43>                          ****END OF INPUT****

CARTESIAN COORDINATES (ANGSTROEM)
---------------------------------
  S    -107.800000   44.559100  129.596000
  C    -106.545000   45.186700  130.674000
  C    -105.387000   45.496200  129.931000
  C    -105.635000   45.370600  128.540000
  C    -106.894000   44.909500  128.193000
  H    -104.830000   45.468400  127.753000
  C    -104.086000   46.086900  130.399000
  H    -104.075000   47.146500  130.314000
  H    -103.256000   45.737300  129.792000
  C    -103.523000   45.621500  131.766000
  H    -104.188000   45.870700  132.520000
  H    -103.473000   44.507100  131.765000
  C    -102.157000   46.303300  132.115000
  H    -102.460000   47.241500  132.631000
  H    -101.574000   45.682600  132.807000
  H    -101.549000   46.495600  131.223000
  S    -107.516000   42.840500  126.500000
  C    -107.867000   43.208600  124.803000
  C    -107.564000   44.499900  124.519000
  C    -107.204000   45.269100  125.642000
  C    -107.195000   44.562800  126.833000
  H    -107.603000   44.914300  123.468000
  C    -106.929000   46.753100  125.572000
  H    -105.805000   46.831400  125.580000
  H    -107.223000   47.186000  126.518000
  C    -107.477000   47.611600  124.383000
  H    -108.525000   47.327200  124.324000
  H    -106.970000   47.450000  123.485000
  C    -107.305000   49.101600  124.719000
  H    -107.638000   49.723700  123.896000
  H    -106.225000   49.287700  124.723000
  H    -107.694000   49.453200  125.666000
  H    -106.445000   45.189200  131.795000
  H    -108.193000   42.480700  124.051000

 Total Charge           Charge          ....    0
 Multiplicity           Mult            ....    1
 Number of Electrons    NEL             ....  134
 Basis Dimension        Dim             ....  322

ORBITAL ENERGIES
----------------

  NO   OCC          E(Eh)            E(eV)
   0   2.0000     -88.973810     -2421.1005
   1   2.0000     -88.960582     -2420.7405
   2   2.0000     -10.324674      -280.9487
   3   2.0000     -10.323787      -280.9245
   4   2.0000     -10.323487      -280.9164
   5   2.0000     -10.316715      -280.7321
   6   2.0000     -10.302778      -280.3528
   7   2.0000     -10.299400      -280.2609
   8   2.0000     -10.293840      -280.1096
   9   2.0000     -10.292502      -280.0732
  10   2.0000     -10.291158      -280.0366
  11   2.0000     -10.290183      -280.0101
  12   2.0000     -10.287058      -279.9251
  13   2.0000     -10.286192      -279.9015
  14   2.0000     -10.286025      -279.8970
  15   2.0000     -10.277478      -279.6644
  16   2.0000      -8.088201      -220.0912
  17   2.0000      -8.074827      -219.7272
  18   2.0000      -6.046806      -164.5419
  19   2.0000      -6.042633      -164.4284
  20   2.0000      -6.038972      -164.3288
  21   2.0000      -6.033400      -164.1772
  22   2.0000      -6.029504      -164.0711
  23   2.0000      -6.025438      -163.9605
  24   2.0000      -1.008679       -27.4475
  25   2.0000      -0.983592       -26.7649
  26   2.0000      -0.913517       -24.8581
  27   2.0000      -0.905492       -24.6397
  28   2.0000      -0.870539       -23.6886
  29   2.0000      -0.853230       -23.2176
  30   2.0000      -0.846802       -23.0426
  31   2.0000      -0.809132       -22.0176
  32   2.0000      -0.780937       -21.2504
  33   2.0000      -0.768315       -20.9069
  34   2.0000      -0.711863       -19.3708
  35   2.0000      -0.706894       -19.2356
  36   2.0000      -0.695103       -18.9147
  37   2.0000      -0.650922       -17.7125
  38   2.0000      -0.635031       -17.2801
  39   2.0000      -0.611822       -16.6485
  40   2.0000      -0.594843       -16.1865
  41   2.0000      -0.576666       -15.6919
  42   2.0000      -0.573855       -15.6154
  43   2.0000      -0.566552       -15.4167
  44   2.0000      -0.525256       -14.2929
  45   2.0000      -0.519226       -14.1288
  46   2.0000      -0.514503       -14.0003
  47   2.0000      -0.509326       -13.8595
  48   2.0000      -0.503016       -13.6878
  49   2.0000      -0.498516       -13.5653
  50   2.0000      -0.487903       -13.2765
  51   2.0000      -0.479579       -13.0500
  52   2.0000      -0.472524       -12.8580
  53   2.0000      -0.466286       -12.6883
  54   2.0000      -0.457199       -12.4410
  55   2.0000      -0.448554       -12.2058
  56   2.0000      -0.446633       -12.1535
  57   2.0000      -0.439399       -11.9567
  58   2.0000      -0.432078       -11.7574
  59   2.0000      -0.428040       -11.6476
  60   2.0000      -0.420356       -11.4385
  61   2.0000      -0.418837       -11.3971
  62   2.0000      -0.413477       -11.2513
  63   2.0000      -0.342111        -9.3093
  64   2.0000      -0.332378        -9.0445
  65   2.0000      -0.326865        -8.8944
  66   2.0000      -0.293836        -7.9957
  67   0.0000       0.029224         0.7952
  68   0.0000       0.068624         1.8674
  69   0.0000       0.113047         3.0762
  70   0.0000       0.122514         3.3338
  71   0.0000       0.129072         3.5122

MULLIKEN ATOMIC CHARGES
-----------------------
   0 S :    0.136729
   1 C :   -0.133159
   2 C :   -0.072631
   3 C :   -0.006504
   4 C :   -0.150295
   5 H :    0.037121
   6 C :    0.046209
   7 H :    0.039683
   8 H :    0.023792
   9 C :   -0.102065
  10 H :    0.011378
  11 H :    0.038166
  12 C :   -0.060040
  13 H :    0.043588
  14 H :    0.041949
  15 H :    0.036557
  16 S :    0.089850
  17 C :   -0.091568
  18 C :   -0.055158
  19 C :   -0.019465
  20 C :   -0.172489
  21 H :    0.039227
  22 C :    0.023484
  23 H :    0.034870
  24 H :    0.029033
  25 C :   -0.045235
  26 H :    0.037041
  27 H :    0.023855
  28 C :   -0.039891
  29 H :    0.030461
  30 H :    0.018503
  31 H :    0.036912
  32 H :    0.068089
  33 H :    0.062001
Sum of atomic charges:   -0.0000000

LOEWDIN ATOMIC CHARGES
----------------------
   0 S :    0.434289
   1 C :   -0.210138
   2 C :   -0.064684
   3 C :   -0.062602
   4 C :   -0.224795
   5 H :    0.040241
   6 C :   -0.033144
   7 H :    0.029653
   8 H :    0.032898
   9 C :   -0.039656
  10 H :    0.006077
  11 H :    0.026764
  12 C :   -0.064806
  13 H :    0.032929
  14 H :    0.029086
  15 H :    0.024118
  16 S :    0.376626
  17 C :   -0.177722
  18 C :   -0.083745
  19 C :   -0.060159
  20 C :   -0.186743
  21 H :    0.043377
  22 C :   -0.035199
  23 H :    0.035755
  24 H :    0.030115
  25 C :   -0.032937
  26 H :    0.024863
  27 H :    0.017053
  28 C :   -0.061262
  29 H :    0.025724
  30 H :    0.025958
  31 H :    0.023876
  32 H :    0.043504
  33 H :    0.034682

  Mayer bond orders larger than 0.100000
B(  0-S ,  1-C ) :   1.1412 B(  0-S ,  4-C ) :   1.1571 B(  1-C ,  2-C ) :   1.5817
B(  1-C , 32-H ) :   0.9593 B(  2-C ,  3-C ) :   1.2874 B(  2-C ,  6-C ) :   1.0177
B(  3-C ,  4-C ) :   1.5317 B(  3-C ,  5-H ) :   0.9833 B(  4-C , 20-C ) :   1.0583
B(  6-C ,  7-H ) :   0.9445 B(  6-C ,  8-H ) :   0.9448 B(  6-C ,  9-C ) :   1.0513
B(  9-C , 10-H ) :   0.9574 B(  9-C , 11-H ) :   0.9660 B(  9-C , 12-C ) :   1.0699
B( 12-C , 13-H ) :   0.9785 B( 12-C , 14-H ) :   0.9763 B( 12-C , 15-H ) :   0.9780
B( 16-S , 17-C ) :   1.1447 B( 16-S , 20-C ) :   1.1248 B( 17-C , 18-C ) :   1.6137
B( 17-C , 20-C ) :   0.1017 B( 17-C , 33-H ) :   0.9626 B( 18-C , 19-C ) :   1.2528
B( 18-C , 21-H ) :   0.9762 B( 19-C , 20-C ) :   1.6118 B( 19-C , 22-C ) :   1.0342
B( 22-C , 23-H ) :   0.9206 B( 22-C , 24-H ) :   0.9400 B( 22-C , 25-C ) :   1.0687
B( 25-C , 26-H ) :   0.9596 B( 25-C , 27-H ) :   0.9456 B( 25-C , 28-C ) :   1.0896
B( 28-C , 29-H ) :   0.9726 B( 28-C , 30-H ) :   0.9725 B( 28-C , 31-H ) :   0.9778

Dispersion correction           -0.013326350
FINAL SINGLE POINT ENERGY     -1339.874175365815

DIPOLE MOMENT
-------------
                                X             Y             Z
Electronic contribution:    -17.06353     -21.51216      -1.61635
Nuclear contribution   :     17.61056      21.98726       1.47716
                        -----------------------------------------
Total Dipole Moment    :      0.54703       0.47509      -0.13919
                        -----------------------------------------
Magnitude (a.u.)       :      0.73779
Magnitude (Debye)      :      1.87531

Rotational constants in cm-1:     0.018291     0.007396     0.006004
Rotational constants in MHz :   548.343351   221.724333   179.988983

                             ****ORCA TERMINATED NORMALLY****
TOTAL RUN TIME: 0 days 0 hours 0 minutes 31 seconds 705 msec
