                         Program Version 4.2.1 -  RELEASE  -
|  1> ! wB97X-D3 SP def2-SVP
|  2> %pal
|  3> nprocs 16
|  4> end
|  5>
|  6> * xyz 0 1
|  7> S 	 22.8712 	 8.83301 	 65.1762
|  8> C 	 23.5631 	 10.4871 	 65.2344
|  9> C 	 23.111 	 11.1408 	 66.3568
| 10> C 	 22.33 	 10.2962 	 67.2474
| 11> C 	 22.1757 	 9.0155 	 66.8143
| 12> H 	 21.8496 	 10.5229 	 68.1523
| 13> C 	 23.4057 	 12.5314 	 66.8443
| 14> H 	 23.6116 	 12.3764 	 67.8946
| 15> H 	 22.4658 	 13.1091 	 66.832
| 16> C 	 24.4341 	 13.3911 	 66.0708
| 17> H 	 25.2185 	 12.7711 	 65.7475
| 18> H 	 23.9998 	 13.7761 	 65.1071
| 19> C 	 24.8997 	 14.6278 	 66.8393
| 20> H 	 25.1478 	 14.3566 	 67.8831
| 21> H 	 25.71 	 15.1103 	 66.2278
| 22> H 	 24.0835 	 15.2884 	 67.0873
| 23> S 	 20.6796 	 6.79583 	 66.325
| 24> C 	 19.817 	 6.07986 	 67.6454
| 25> C 	 20.1941 	 6.49324 	 68.8999
| 26> C 	 21.193 	 7.55438 	 68.8085
| 27> C 	 21.4486 	 7.91431 	 67.4513
| 28> H 	 19.8356 	 5.86067 	 69.6637
| 29> C 	 21.6876 	 8.22907 	 70.0446
| 30> H 	 20.9796 	 8.93949 	 70.4831
| 31> H 	 22.6187 	 8.87903 	 69.7069
| 32> C 	 22.2648 	 7.32513 	 71.1665
| 33> H 	 23.2023 	 6.88034 	 70.7284
| 34> H 	 21.5746 	 6.47594 	 71.3655
| 35> C 	 22.5014 	 8.15423 	 72.4629
| 36> H 	 23.2341 	 8.87156 	 72.149
| 37> H 	 23.0317 	 7.51925 	 73.1468
| 38> H 	 21.6124 	 8.61211 	 72.979
| 39> H 	 24.2182 	 10.8961 	 64.4869
| 40> H 	 19.1465 	 5.20923 	 67.4708
| 41> *
| 42>
| 43>                          ****END OF INPUT****

CARTESIAN COORDINATES (ANGSTROEM)
---------------------------------
  S     22.871200    8.833010   65.176200
  C     23.563100   10.487100   65.234400
  C     23.111000   11.140800   66.356800
  C     22.330000   10.296200   67.247400
  C     22.175700    9.015500   66.814300
  H     21.849600   10.522900   68.152300
  C     23.405700   12.531400   66.844300
  H     23.611600   12.376400   67.894600
  H     22.465800   13.109100   66.832000
  C     24.434100   13.391100   66.070800
  H     25.218500   12.771100   65.747500
  H     23.999800   13.776100   65.107100
  C     24.899700   14.627800   66.839300
  H     25.147800   14.356600   67.883100
  H     25.710000   15.110300   66.227800
  H     24.083500   15.288400   67.087300
  S     20.679600    6.795830   66.325000
  C     19.817000    6.079860   67.645400
  C     20.194100    6.493240   68.899900
  C     21.193000    7.554380   68.808500
  C     21.448600    7.914310   67.451300
  H     19.835600    5.860670   69.663700
  C     21.687600    8.229070   70.044600
  H     20.979600    8.939490   70.483100
  H     22.618700    8.879030   69.706900
  C     22.264800    7.325130   71.166500
  H     23.202300    6.880340   70.728400
  H     21.574600    6.475940   71.365500
  C     22.501400    8.154230   72.462900
  H     23.234100    8.871560   72.149000
  H     23.031700    7.519250   73.146800
  H     21.612400    8.612110   72.979000
  H     24.218200   10.896100   64.486900
  H     19.146500    5.209230   67.470800

 Total Charge           Charge          ....    0
 Multiplicity           Mult            ....    1
 Number of Electrons    NEL             ....  134
 Basis Dimension        Dim             ....  322

ORBITAL ENERGIES
----------------

  NO   OCC          E(Eh)            E(eV)
   0   2.0000     -88.966739     -2420.9081
   1   2.0000     -88.960558     -2420.7399
   2   2.0000     -10.334664      -281.2205
   3   2.0000     -10.332078      -281.1501
   4   2.0000     -10.318353      -280.7767
   5   2.0000     -10.316492      -280.7260
   6   2.0000     -10.315348      -280.6949
   7   2.0000     -10.304868      -280.4097
   8   2.0000     -10.299958      -280.2761
   9   2.0000     -10.296347      -280.1778
  10   2.0000     -10.294806      -280.1359
  11   2.0000     -10.293042      -280.0879
  12   2.0000     -10.288776      -279.9718
  13   2.0000     -10.288437      -279.9626
  14   2.0000     -10.284642      -279.8593
  15   2.0000     -10.283042      -279.8158
  16   2.0000      -8.081880      -219.9191
  17   2.0000      -8.074452      -219.7170
  18   2.0000      -6.040280      -164.3644
  19   2.0000      -6.036493      -164.2613
  20   2.0000      -6.033296      -164.1743
  21   2.0000      -6.032569      -164.1546
  22   2.0000      -6.029313      -164.0660
  23   2.0000      -6.024677      -163.9398
  24   2.0000      -1.002480       -27.2789
  25   2.0000      -0.978800       -26.6345
  26   2.0000      -0.911353       -24.7992
  27   2.0000      -0.907003       -24.6808
  28   2.0000      -0.869658       -23.6646
  29   2.0000      -0.853439       -23.2233
  30   2.0000      -0.845089       -22.9960
  31   2.0000      -0.817681       -22.2502
  32   2.0000      -0.779762       -21.2184
  33   2.0000      -0.768556       -20.9135
  34   2.0000      -0.715705       -19.4753
  35   2.0000      -0.702811       -19.1245
  36   2.0000      -0.687576       -18.7099
  37   2.0000      -0.658415       -17.9164
  38   2.0000      -0.640011       -17.4156
  39   2.0000      -0.614433       -16.7196
  40   2.0000      -0.596639       -16.2354
  41   2.0000      -0.571133       -15.5413
  42   2.0000      -0.565039       -15.3755
  43   2.0000      -0.559510       -15.2250
  44   2.0000      -0.534116       -14.5340
  45   2.0000      -0.520878       -14.1738
  46   2.0000      -0.518410       -14.1066
  47   2.0000      -0.515461       -14.0264
  48   2.0000      -0.506278       -13.7765
  49   2.0000      -0.500877       -13.6296
  50   2.0000      -0.487124       -13.2553
  51   2.0000      -0.480072       -13.0634
  52   2.0000      -0.474315       -12.9068
  53   2.0000      -0.457271       -12.4430
  54   2.0000      -0.455163       -12.3856
  55   2.0000      -0.453434       -12.3386
  56   2.0000      -0.451703       -12.2915
  57   2.0000      -0.440846       -11.9960
  58   2.0000      -0.431472       -11.7409
  59   2.0000      -0.423667       -11.5286
  60   2.0000      -0.415063       -11.2944
  61   2.0000      -0.413852       -11.2615
  62   2.0000      -0.411138       -11.1876
  63   2.0000      -0.358961        -9.7678
  64   2.0000      -0.332747        -9.0545
  65   2.0000      -0.322229        -8.7683
  66   2.0000      -0.285536        -7.7698
  67   0.0000       0.023038         0.6269
  68   0.0000       0.074717         2.0332
  69   0.0000       0.098188         2.6718
  70   0.0000       0.113768         3.0958
  71   0.0000       0.137101         3.7307

MULLIKEN ATOMIC CHARGES
-----------------------
   0 S :    0.069596
   1 C :   -0.127960
   2 C :   -0.055630
   3 C :   -0.002941
   4 C :   -0.095247
   5 H :   -0.006422
   6 C :    0.037696
   7 H :    0.028657
   8 H :    0.041288
   9 C :   -0.066875
  10 H :    0.018134
  11 H :    0.033639
  12 C :   -0.041708
  13 H :    0.023002
  14 H :    0.055609
  15 H :    0.023026
  16 S :    0.100987
  17 C :   -0.110968
  18 C :   -0.016097
  19 C :   -0.009565
  20 C :   -0.134092
  21 H :    0.015205
  22 C :   -0.021525
  23 H :    0.047006
  24 H :    0.040992
  25 C :   -0.121481
  26 H :    0.046840
  27 H :    0.035091
  28 C :   -0.030887
  29 H :    0.023587
  30 H :    0.029154
  31 H :    0.055735
  32 H :    0.048095
  33 H :    0.068058
Sum of atomic charges:    0.0000000

LOEWDIN ATOMIC CHARGES
----------------------
   0 S :    0.348665
   1 C :   -0.185364
   2 C :   -0.054582
   3 C :   -0.064593
   4 C :   -0.166236
   5 H :    0.024094
   6 C :   -0.037435
   7 H :    0.031328
   8 H :    0.039806
   9 C :   -0.043427
  10 H :    0.012919
  11 H :    0.030764
  12 C :   -0.068166
  13 H :    0.025990
  14 H :    0.037800
  15 H :    0.023602
  16 S :    0.404446
  17 C :   -0.185960
  18 C :   -0.071168
  19 C :   -0.052818
  20 C :   -0.188278
  21 H :    0.030393
  22 C :   -0.050912
  23 H :    0.029796
  24 H :    0.040327
  25 C :   -0.042511
  26 H :    0.033921
  27 H :    0.018926
  28 C :   -0.066749
  29 H :    0.024164
  30 H :    0.025029
  31 H :    0.035288
  32 H :    0.027868
  33 H :    0.033071

  Mayer bond orders larger than 0.100000
B(  0-S ,  1-C ) :   1.0922 B(  0-S ,  4-C ) :   1.1111 B(  1-C ,  2-C ) :   1.6630
B(  1-C , 32-H ) :   0.9704 B(  2-C ,  3-C ) :   1.1735 B(  2-C ,  6-C ) :   1.0153
B(  3-C ,  4-C ) :   1.6330 B(  3-C ,  5-H ) :   1.0041 B(  4-C , 20-C ) :   1.0645
B(  6-C ,  7-H ) :   0.9460 B(  6-C ,  8-H ) :   0.9293 B(  6-C ,  9-C ) :   1.0674
B(  9-C , 10-H ) :   0.9572 B(  9-C , 11-H ) :   0.9492 B(  9-C , 12-C ) :   1.0854
B( 12-C , 13-H ) :   0.9744 B( 12-C , 14-H ) :   0.9719 B( 12-C , 15-H ) :   0.9720
B( 16-S , 17-C ) :   1.1592 B( 16-S , 20-C ) :   1.1347 B( 17-C , 18-C ) :   1.6457
B( 17-C , 33-H ) :   0.9582 B( 18-C , 19-C ) :   1.1944 B( 18-C , 21-H ) :   0.9937
B( 19-C , 20-C ) :   1.5799 B( 19-C , 22-C ) :   1.0535 B( 22-C , 23-H ) :   0.9416
B( 22-C , 24-H ) :   0.9337 B( 22-C , 25-C ) :   1.0432 B( 25-C , 26-H ) :   0.9564
B( 25-C , 27-H ) :   0.9607 B( 25-C , 28-C ) :   1.0737 B( 28-C , 29-H ) :   0.9721
B( 28-C , 30-H ) :   0.9726 B( 28-C , 31-H ) :   0.9745

Dispersion correction           -0.013030461
FINAL SINGLE POINT ENERGY     -1339.866879751527

DIPOLE MOMENT
-------------
                                X             Y             Z
Electronic contribution:    -10.42931     -19.42264     -20.67566
Nuclear contribution   :     10.45084      19.74901      21.32793
                        -----------------------------------------
Total Dipole Moment    :      0.02153       0.32637       0.65227
                        -----------------------------------------
Magnitude (a.u.)       :      0.72969
Magnitude (Debye)      :      1.85471

Rotational constants in cm-1:     0.017838     0.007744     0.005654
Rotational constants in MHz :   534.776389   232.152571   169.503501

                             ****ORCA TERMINATED NORMALLY****
TOTAL RUN TIME: 0 days 0 hours 0 minutes 28 seconds 330 msec
