                         Program Version 4.2.1 -  RELEASE  -
|  1> ! wB97X-D3 SP def2-SVP
|  2> %pal
|  3> nprocs 16
|  4> end
|  5>
|  6> * xyz 0 1
|  7> S 	 -3.45163 	 -13.7269 	 55.9321
|  8> C 	 -2.05955 	 -13.7097 	 54.8461
|  9> C 	 -2.4187 	 -14.2495 	 53.5807
| 10> C 	 -3.80804 	 -14.675 	 53.6426
| 11> C 	 -4.48018 	 -14.577 	 54.8174
| 12> H 	 -4.29824 	 -15.2584 	 52.9238
| 13> C 	 -1.5817 	 -14.3284 	 52.3849
| 14> H 	 -1.00597 	 -13.4551 	 52.3603
| 15> H 	 -2.11187 	 -14.0518 	 51.4531
| 16> C 	 -0.681601 	 -15.5546 	 52.1222
| 17> H 	 0.0527035 	 -15.2655 	 51.3296
| 18> H 	 -0.114567 	 -15.8754 	 52.9524
| 19> C 	 -1.50347 	 -16.7718 	 51.7557
| 20> H 	 -2.28938 	 -16.8933 	 52.457
| 21> H 	 -1.93437 	 -16.7034 	 50.7842
| 22> H 	 -1.1098 	 -17.7858 	 51.8168
| 23> S 	 -6.1816 	 -16.8109 	 54.6556
| 24> C 	 -7.85737 	 -16.593 	 55.1487
| 25> C 	 -7.94097 	 -15.4966 	 55.9695
| 26> C 	 -6.76007 	 -14.6522 	 55.9539
| 27> C 	 -5.77124 	 -15.0848 	 55.1237
| 28> H 	 -8.8819 	 -15.305 	 56.5291
| 29> C 	 -6.68789 	 -13.4493 	 56.8707
| 30> H 	 -5.86654 	 -13.5437 	 57.5231
| 31> H 	 -7.63432 	 -13.4378 	 57.3928
| 32> C 	 -6.47682 	 -12.1443 	 56.1609
| 33> H 	 -6.61048 	 -12.2269 	 55.0782
| 34> H 	 -5.44507 	 -11.8835 	 56.2504
| 35> C 	 -7.23608 	 -10.9345 	 56.7272
| 36> H 	 -7.03201 	 -10.0011 	 56.2245
| 37> H 	 -6.7987 	 -10.8639 	 57.7075
| 38> H 	 -8.34979 	 -11.0289 	 56.87
| 39> H 	 -1.07517 	 -13.2436 	 55.0576
| 40> H 	 -8.67858 	 -17.3215 	 55.0162
| 41> *
| 42>
| 43>                          ****END OF INPUT****

CARTESIAN COORDINATES (ANGSTROEM)
---------------------------------
  S     -3.451630  -13.726900   55.932100
  C     -2.059550  -13.709700   54.846100
  C     -2.418700  -14.249500   53.580700
  C     -3.808040  -14.675000   53.642600
  C     -4.480180  -14.577000   54.817400
  H     -4.298240  -15.258400   52.923800
  C     -1.581700  -14.328400   52.384900
  H     -1.005970  -13.455100   52.360300
  H     -2.111870  -14.051800   51.453100
  C     -0.681601  -15.554600   52.122200
  H      0.052704  -15.265500   51.329600
  H     -0.114567  -15.875400   52.952400
  C     -1.503470  -16.771800   51.755700
  H     -2.289380  -16.893300   52.457000
  H     -1.934370  -16.703400   50.784200
  H     -1.109800  -17.785800   51.816800
  S     -6.181600  -16.810900   54.655600
  C     -7.857370  -16.593000   55.148700
  C     -7.940970  -15.496600   55.969500
  C     -6.760070  -14.652200   55.953900
  C     -5.771240  -15.084800   55.123700
  H     -8.881900  -15.305000   56.529100
  C     -6.687890  -13.449300   56.870700
  H     -5.866540  -13.543700   57.523100
  H     -7.634320  -13.437800   57.392800
  C     -6.476820  -12.144300   56.160900
  H     -6.610480  -12.226900   55.078200
  H     -5.445070  -11.883500   56.250400
  C     -7.236080  -10.934500   56.727200
  H     -7.032010  -10.001100   56.224500
  H     -6.798700  -10.863900   57.707500
  H     -8.349790  -11.028900   56.870000
  H     -1.075170  -13.243600   55.057600
  H     -8.678580  -17.321500   55.016200

 Total Charge           Charge          ....    0
 Multiplicity           Mult            ....    1
 Number of Electrons    NEL             ....  134
 Basis Dimension        Dim             ....  322

ORBITAL ENERGIES
----------------

  NO   OCC          E(Eh)            E(eV)
   0   2.0000     -88.968602     -2420.9587
   1   2.0000     -88.962750     -2420.7995
   2   2.0000     -10.328283      -281.0469
   3   2.0000     -10.327467      -281.0247
   4   2.0000     -10.326089      -280.9872
   5   2.0000     -10.322330      -280.8849
   6   2.0000     -10.309392      -280.5328
   7   2.0000     -10.303569      -280.3744
   8   2.0000     -10.298437      -280.2347
   9   2.0000     -10.288738      -279.9708
  10   2.0000     -10.288578      -279.9665
  11   2.0000     -10.288177      -279.9555
  12   2.0000     -10.284077      -279.8440
  13   2.0000     -10.275283      -279.6047
  14   2.0000     -10.273664      -279.5606
  15   2.0000     -10.265737      -279.3449
  16   2.0000      -8.082717      -219.9419
  17   2.0000      -8.076294      -219.7671
  18   2.0000      -6.041376      -164.3942
  19   2.0000      -6.037149      -164.2792
  20   2.0000      -6.035118      -164.2239
  21   2.0000      -6.033529      -164.1807
  22   2.0000      -6.031267      -164.1191
  23   2.0000      -6.026472      -163.9886
  24   2.0000      -1.007392       -27.4125
  25   2.0000      -0.981447       -26.7065
  26   2.0000      -0.918670       -24.9983
  27   2.0000      -0.912789       -24.8383
  28   2.0000      -0.874274       -23.7902
  29   2.0000      -0.849406       -23.1135
  30   2.0000      -0.845303       -23.0019
  31   2.0000      -0.815993       -22.2043
  32   2.0000      -0.787286       -21.4231
  33   2.0000      -0.776066       -21.1178
  34   2.0000      -0.713324       -19.4105
  35   2.0000      -0.707196       -19.2438
  36   2.0000      -0.690571       -18.7914
  37   2.0000      -0.665567       -18.1110
  38   2.0000      -0.639288       -17.3959
  39   2.0000      -0.618603       -16.8331
  40   2.0000      -0.597857       -16.2685
  41   2.0000      -0.578509       -15.7420
  42   2.0000      -0.566221       -15.4077
  43   2.0000      -0.548866       -14.9354
  44   2.0000      -0.542263       -14.7557
  45   2.0000      -0.529706       -14.4140
  46   2.0000      -0.521368       -14.1871
  47   2.0000      -0.513477       -13.9724
  48   2.0000      -0.510129       -13.8813
  49   2.0000      -0.502336       -13.6692
  50   2.0000      -0.486081       -13.2269
  51   2.0000      -0.479109       -13.0372
  52   2.0000      -0.474433       -12.9100
  53   2.0000      -0.471954       -12.8425
  54   2.0000      -0.460582       -12.5331
  55   2.0000      -0.441901       -12.0247
  56   2.0000      -0.438868       -11.9422
  57   2.0000      -0.435088       -11.8393
  58   2.0000      -0.430602       -11.7173
  59   2.0000      -0.423534       -11.5249
  60   2.0000      -0.416238       -11.3264
  61   2.0000      -0.413445       -11.2504
  62   2.0000      -0.406708       -11.0671
  63   2.0000      -0.351849        -9.5743
  64   2.0000      -0.329703        -8.9717
  65   2.0000      -0.325197        -8.8490
  66   2.0000      -0.292709        -7.9650
  67   0.0000       0.018061         0.4915
  68   0.0000       0.070479         1.9178
  69   0.0000       0.090536         2.4636
  70   0.0000       0.112112         3.0507
  71   0.0000       0.126444         3.4407

MULLIKEN ATOMIC CHARGES
-----------------------
   0 S :    0.094042
   1 C :   -0.115904
   2 C :   -0.086149
   3 C :    0.039639
   4 C :   -0.152596
   5 H :   -0.010227
   6 C :    0.060576
   7 H :   -0.000973
   8 H :    0.025662
   9 C :   -0.022088
  10 H :    0.035613
  11 H :    0.019747
  12 C :   -0.041085
  13 H :    0.015078
  14 H :    0.017575
  15 H :    0.025340
  16 S :    0.079593
  17 C :   -0.096666
  18 C :   -0.048458
  19 C :   -0.079673
  20 C :   -0.107699
  21 H :    0.035149
  22 C :    0.128061
  23 H :    0.031751
  24 H :    0.011718
  25 C :   -0.086517
  26 H :    0.036998
  27 H :    0.020193
  28 C :   -0.058530
  29 H :    0.034269
  30 H :    0.019670
  31 H :    0.038866
  32 H :    0.065629
  33 H :    0.071394
Sum of atomic charges:   -0.0000000

LOEWDIN ATOMIC CHARGES
----------------------
   0 S :    0.417129
   1 C :   -0.189332
   2 C :   -0.059408
   3 C :   -0.054649
   4 C :   -0.200127
   5 H :    0.017466
   6 C :   -0.044963
   7 H :    0.027927
   8 H :    0.042276
   9 C :   -0.029831
  10 H :    0.030470
  11 H :    0.020507
  12 C :   -0.070626
  13 H :    0.022620
  14 H :    0.019172
  15 H :    0.027933
  16 S :    0.360543
  17 C :   -0.179458
  18 C :   -0.077611
  19 C :   -0.050283
  20 C :   -0.168035
  21 H :    0.037649
  22 C :   -0.026335
  23 H :    0.025417
  24 H :    0.030181
  25 C :   -0.048173
  26 H :    0.022763
  27 H :    0.011406
  28 C :   -0.065790
  29 H :    0.025189
  30 H :    0.022497
  31 H :    0.025948
  32 H :    0.038047
  33 H :    0.039480

  Mayer bond orders larger than 0.100000
B(  0-S ,  1-C ) :   1.1512 B(  0-S ,  4-C ) :   1.1170 B(  1-C ,  2-C ) :   1.5868
B(  1-C , 32-H ) :   0.9641 B(  2-C ,  3-C ) :   1.2268 B(  2-C ,  6-C ) :   1.0379
B(  3-C ,  4-C ) :   1.5760 B(  3-C ,  5-H ) :   1.0004 B(  4-C , 20-C ) :   1.1047
B(  6-C ,  7-H ) :   0.9219 B(  6-C ,  8-H ) :   0.9350 B(  6-C ,  9-C ) :   1.0702
B(  9-C , 10-H ) :   0.9541 B(  9-C , 11-H ) :   0.9575 B(  9-C , 12-C ) :   1.0704
B( 12-C , 13-H ) :   0.9718 B( 12-C , 14-H ) :   0.9757 B( 12-C , 15-H ) :   0.9726
B( 16-S , 17-C ) :   1.1351 B( 16-S , 20-C ) :   1.0906 B( 17-C , 18-C ) :   1.6350
B( 17-C , 33-H ) :   0.9626 B( 18-C , 19-C ) :   1.2169 B( 18-C , 21-H ) :   0.9806
B( 19-C , 20-C ) :   1.6070 B( 19-C , 22-C ) :   1.0522 B( 22-C , 23-H ) :   0.9265
B( 22-C , 24-H ) :   0.9337 B( 22-C , 25-C ) :   1.0435 B( 25-C , 26-H ) :   0.9668
B( 25-C , 27-H ) :   0.9453 B( 25-C , 28-C ) :   1.0862 B( 28-C , 29-H ) :   0.9748
B( 28-C , 30-H ) :   0.9750 B( 28-C , 31-H ) :   0.9775

Dispersion correction           -0.014512336
FINAL SINGLE POINT ENERGY     -1339.854128799788

DIPOLE MOMENT
-------------
                                X             Y             Z
Electronic contribution:     -4.71282      -8.49872       6.21358
Nuclear contribution   :      4.79058       8.69596      -6.27371
                        -----------------------------------------
Total Dipole Moment    :      0.07775       0.19724      -0.06013
                        -----------------------------------------
Magnitude (a.u.)       :      0.22037
Magnitude (Debye)      :      0.56014

Rotational constants in cm-1:     0.020204     0.008935     0.006663
Rotational constants in MHz :   605.686582   267.869735   199.739360

                             ****ORCA TERMINATED NORMALLY****
TOTAL RUN TIME: 0 days 0 hours 0 minutes 31 seconds 994 msec
