                         Program Version 4.2.1 -  RELEASE  -
|  1> ! wB97X-D3 SP def2-SVP
|  2> %pal
|  3> nprocs 16
|  4> end
|  5>
|  6> * xyz 0 1
|  7> S 	 -10.9775 	 -10.1609 	 88.0381
|  8> C 	 -12.0695 	 -11.4912 	 88.2295
|  9> C 	 -13.1944 	 -11.2634 	 87.5187
| 10> C 	 -13.1393 	 -10.0826 	 86.7608
| 11> C 	 -11.9341 	 -9.37619 	 86.9001
| 12> H 	 -13.7901 	 -9.64992 	 86.0385
| 13> C 	 -14.3616 	 -12.1999 	 87.4122
| 14> H 	 -15.2128 	 -11.5873 	 87.7516
| 15> H 	 -14.2541 	 -12.9774 	 88.1328
| 16> C 	 -14.5637 	 -12.6904 	 86.005
| 17> H 	 -14.4806 	 -11.8938 	 85.2752
| 18> H 	 -13.7729 	 -13.3112 	 85.7521
| 19> C 	 -15.8974 	 -13.3917 	 85.8561
| 20> H 	 -15.7695 	 -14.2014 	 86.5128
| 21> H 	 -16.6667 	 -12.6373 	 86.1207
| 22> H 	 -15.9653 	 -13.754 	 84.8705
| 23> S 	 -10.4047 	 -8.43792 	 84.7224
| 24> C 	 -10.4249 	 -6.79121 	 84.3075
| 25> C 	 -11.3305 	 -6.10644 	 85.0806
| 26> C 	 -12.0144 	 -6.95354 	 86.064
| 27> C 	 -11.4874 	 -8.22048 	 86.1232
| 28> H 	 -11.4098 	 -4.95327 	 84.9657
| 29> C 	 -13.0641 	 -6.41863 	 86.9933
| 30> H 	 -13.8878 	 -7.12709 	 87.0542
| 31> H 	 -13.5252 	 -5.51149 	 86.5835
| 32> C 	 -12.6925 	 -6.08508 	 88.4338
| 33> H 	 -11.9333 	 -5.26605 	 88.388
| 34> H 	 -12.2959 	 -6.96197 	 88.941
| 35> C 	 -13.864 	 -5.58897 	 89.2744
| 36> H 	 -13.4315 	 -5.42835 	 90.2814
| 37> H 	 -14.6037 	 -6.38161 	 89.3736
| 38> H 	 -14.4011 	 -4.67848 	 88.9528
| 39> H 	 -11.9299 	 -12.1017 	 89.0491
| 40> H 	 -9.81131 	 -6.37194 	 83.5925
| 41> *
| 42>
| 43>                          ****END OF INPUT****

CARTESIAN COORDINATES (ANGSTROEM)
---------------------------------
  S    -10.977500  -10.160900   88.038100
  C    -12.069500  -11.491200   88.229500
  C    -13.194400  -11.263400   87.518700
  C    -13.139300  -10.082600   86.760800
  C    -11.934100   -9.376190   86.900100
  H    -13.790100   -9.649920   86.038500
  C    -14.361600  -12.199900   87.412200
  H    -15.212800  -11.587300   87.751600
  H    -14.254100  -12.977400   88.132800
  C    -14.563700  -12.690400   86.005000
  H    -14.480600  -11.893800   85.275200
  H    -13.772900  -13.311200   85.752100
  C    -15.897400  -13.391700   85.856100
  H    -15.769500  -14.201400   86.512800
  H    -16.666700  -12.637300   86.120700
  H    -15.965300  -13.754000   84.870500
  S    -10.404700   -8.437920   84.722400
  C    -10.424900   -6.791210   84.307500
  C    -11.330500   -6.106440   85.080600
  C    -12.014400   -6.953540   86.064000
  C    -11.487400   -8.220480   86.123200
  H    -11.409800   -4.953270   84.965700
  C    -13.064100   -6.418630   86.993300
  H    -13.887800   -7.127090   87.054200
  H    -13.525200   -5.511490   86.583500
  C    -12.692500   -6.085080   88.433800
  H    -11.933300   -5.266050   88.388000
  H    -12.295900   -6.961970   88.941000
  C    -13.864000   -5.588970   89.274400
  H    -13.431500   -5.428350   90.281400
  H    -14.603700   -6.381610   89.373600
  H    -14.401100   -4.678480   88.952800
  H    -11.929900  -12.101700   89.049100
  H     -9.811310   -6.371940   83.592500

 Total Charge           Charge          ....    0
 Multiplicity           Mult            ....    1
 Number of Electrons    NEL             ....  134
 Basis Dimension        Dim             ....  322

ORBITAL ENERGIES
----------------

  NO   OCC          E(Eh)            E(eV)
   0   2.0000     -88.961265     -2420.7591
   1   2.0000     -88.961044     -2420.7531
   2   2.0000     -10.326278      -280.9923
   3   2.0000     -10.325018      -280.9580
   4   2.0000     -10.310236      -280.5558
   5   2.0000     -10.306121      -280.4438
   6   2.0000     -10.303677      -280.3773
   7   2.0000     -10.301502      -280.3181
   8   2.0000     -10.296452      -280.1807
   9   2.0000     -10.289365      -279.9878
  10   2.0000     -10.286229      -279.9025
  11   2.0000     -10.286151      -279.9004
  12   2.0000     -10.284388      -279.8524
  13   2.0000     -10.278535      -279.6931
  14   2.0000     -10.273160      -279.5469
  15   2.0000     -10.270320      -279.4696
  16   2.0000      -8.077843      -219.8093
  17   2.0000      -8.076523      -219.7734
  18   2.0000      -6.035986      -164.2475
  19   2.0000      -6.035050      -164.2221
  20   2.0000      -6.031854      -164.1351
  21   2.0000      -6.030871      -164.1083
  22   2.0000      -6.029108      -164.0604
  23   2.0000      -6.027249      -164.0098
  24   2.0000      -1.015128       -27.6230
  25   2.0000      -0.991499       -26.9801
  26   2.0000      -0.924502       -25.1570
  27   2.0000      -0.910330       -24.7713
  28   2.0000      -0.876287       -23.8450
  29   2.0000      -0.854988       -23.2654
  30   2.0000      -0.845584       -23.0095
  31   2.0000      -0.815435       -22.1891
  32   2.0000      -0.784528       -21.3481
  33   2.0000      -0.775124       -21.0922
  34   2.0000      -0.710534       -19.3346
  35   2.0000      -0.699053       -19.0222
  36   2.0000      -0.689821       -18.7710
  37   2.0000      -0.657885       -17.9020
  38   2.0000      -0.656046       -17.8519
  39   2.0000      -0.620903       -16.8956
  40   2.0000      -0.597934       -16.2706
  41   2.0000      -0.575802       -15.6684
  42   2.0000      -0.570132       -15.5141
  43   2.0000      -0.566740       -15.4218
  44   2.0000      -0.534476       -14.5438
  45   2.0000      -0.528161       -14.3720
  46   2.0000      -0.519725       -14.1424
  47   2.0000      -0.516781       -14.0623
  48   2.0000      -0.505828       -13.7643
  49   2.0000      -0.501228       -13.6391
  50   2.0000      -0.500039       -13.6068
  51   2.0000      -0.479525       -13.0485
  52   2.0000      -0.472914       -12.8686
  53   2.0000      -0.468224       -12.7410
  54   2.0000      -0.456431       -12.4201
  55   2.0000      -0.446179       -12.1412
  56   2.0000      -0.443159       -12.0590
  57   2.0000      -0.440429       -11.9847
  58   2.0000      -0.429405       -11.6847
  59   2.0000      -0.425582       -11.5807
  60   2.0000      -0.416995       -11.3470
  61   2.0000      -0.416269       -11.3273
  62   2.0000      -0.412960       -11.2372
  63   2.0000      -0.336101        -9.1458
  64   2.0000      -0.331813        -9.0291
  65   2.0000      -0.324538        -8.8311
  66   2.0000      -0.308592        -8.3972
  67   0.0000       0.039767         1.0821
  68   0.0000       0.063972         1.7408
  69   0.0000       0.115920         3.1544
  70   0.0000       0.124119         3.3774
  71   0.0000       0.140869         3.8332

MULLIKEN ATOMIC CHARGES
-----------------------
   0 S :    0.110351
   1 C :   -0.104248
   2 C :   -0.080536
   3 C :    0.046082
   4 C :   -0.209186
   5 H :    0.002838
   6 C :    0.106472
   7 H :    0.024732
   8 H :    0.002810
   9 C :   -0.083845
  10 H :    0.020232
  11 H :    0.009653
  12 C :    0.014992
  13 H :    0.018411
  14 H :    0.039830
  15 H :    0.024224
  16 S :    0.106403
  17 C :   -0.058415
  18 C :   -0.063276
  19 C :   -0.024836
  20 C :   -0.141843
  21 H :    0.051430
  22 C :    0.075244
  23 H :    0.006922
  24 H :    0.010722
  25 C :   -0.069005
  26 H :    0.029288
  27 H :    0.031614
  28 C :   -0.061819
  29 H :    0.039176
  30 H :    0.027083
  31 H :    0.036936
  32 H :    0.029801
  33 H :    0.031763
Sum of atomic charges:    0.0000000

LOEWDIN ATOMIC CHARGES
----------------------
   0 S :    0.446642
   1 C :   -0.194987
   2 C :   -0.062403
   3 C :   -0.060552
   4 C :   -0.219239
   5 H :    0.026496
   6 C :   -0.024604
   7 H :    0.033595
   8 H :    0.022650
   9 C :   -0.034958
  10 H :    0.020363
  11 H :    0.016381
  12 C :   -0.049468
  13 H :    0.020131
  14 H :    0.031628
  15 H :    0.020760
  16 S :    0.410920
  17 C :   -0.185930
  18 C :   -0.085848
  19 C :   -0.050490
  20 C :   -0.198044
  21 H :    0.046437
  22 C :   -0.040286
  23 H :    0.026775
  24 H :    0.029596
  25 C :   -0.037341
  26 H :    0.025406
  27 H :    0.024600
  28 C :   -0.068793
  29 H :    0.032990
  30 H :    0.022301
  31 H :    0.025050
  32 H :    0.013402
  33 H :    0.016820

  Mayer bond orders larger than 0.100000
B(  0-S ,  1-C ) :   1.1539 B(  0-S ,  4-C ) :   1.1985 B(  1-C ,  2-C ) :   1.5832
B(  1-C , 32-H ) :   0.9799 B(  2-C ,  3-C ) :   1.2501 B(  2-C ,  6-C ) :   1.0238
B(  3-C ,  4-C ) :   1.5466 B(  3-C ,  5-H ) :   1.0005 B(  4-C , 20-C ) :   1.0070
B(  6-C ,  7-H ) :   0.9306 B(  6-C ,  8-H ) :   0.9352 B(  6-C ,  9-C ) :   1.0658
B(  9-C , 10-H ) :   0.9561 B(  9-C , 11-H ) :   0.9487 B(  9-C , 12-C ) :   1.0794
B( 12-C , 13-H ) :   0.9742 B( 12-C , 14-H ) :   0.9778 B( 12-C , 15-H ) :   0.9712
B( 16-S , 17-C ) :   1.1699 B( 16-S , 20-C ) :   1.1276 B( 17-C , 18-C ) :   1.6128
B( 17-C , 33-H ) :   0.9768 B( 18-C , 19-C ) :   1.2224 B( 18-C , 21-H ) :   0.9758
B( 19-C , 20-C ) :   1.6124 B( 19-C , 22-C ) :   1.0627 B( 22-C , 23-H ) :   0.9202
B( 22-C , 24-H ) :   0.9313 B( 22-C , 25-C ) :   1.0774 B( 25-C , 26-H ) :   0.9540
B( 25-C , 27-H ) :   0.9505 B( 25-C , 28-C ) :   1.0867 B( 28-C , 29-H ) :   0.9727
B( 28-C , 30-H ) :   0.9731 B( 28-C , 31-H ) :   0.9749

Dispersion correction           -0.014082932
FINAL SINGLE POINT ENERGY     -1339.876167423511

DIPOLE MOMENT
-------------
                                X             Y             Z
Electronic contribution:     22.59456       0.66436      -6.53051
Nuclear contribution   :    -23.10582      -0.59214       6.58504
                        -----------------------------------------
Total Dipole Moment    :     -0.51126       0.07221       0.05453
                        -----------------------------------------
Magnitude (a.u.)       :      0.51920
Magnitude (Debye)      :      1.31971

Rotational constants in cm-1:     0.017293     0.008377     0.007266
Rotational constants in MHz :   518.445456   251.122274   217.816573

                             ****ORCA TERMINATED NORMALLY****
TOTAL RUN TIME: 0 days 0 hours 0 minutes 33 seconds 310 msec
