                         Program Version 4.2.1 -  RELEASE  -
|  1> ! wB97X-D3 SP def2-SVP
|  2> %pal
|  3> nprocs 16
|  4> end
|  5>
|  6> * xyz 0 1
|  7> S 	 7.90489 	 -3.55499 	 88.7967
|  8> C 	 8.76521 	 -3.34533 	 90.2852
|  9> C 	 9.82794 	 -4.22605 	 90.3767
| 10> C 	 9.94612 	 -5.06092 	 89.1669
| 11> C 	 8.93499 	 -4.92597 	 88.3018
| 12> H 	 10.8466 	 -5.7117 	 88.965
| 13> C 	 10.7125 	 -4.39251 	 91.5656
| 14> H 	 11.3058 	 -5.35129 	 91.5473
| 15> H 	 10.0978 	 -4.75554 	 92.4586
| 16> C 	 11.6307 	 -3.20843 	 91.92
| 17> H 	 12.2359 	 -3.02501 	 91.0624
| 18> H 	 11.0205 	 -2.33708 	 92.0551
| 19> C 	 12.4972 	 -3.44877 	 93.176
| 20> H 	 11.9944 	 -3.85431 	 94.0836
| 21> H 	 13.39 	 -4.10559 	 92.84
| 22> H 	 13.0191 	 -2.54809 	 93.4213
| 23> S 	 8.49256 	 -7.23875 	 86.8694
| 24> C 	 8.40201 	 -7.14697 	 85.1625
| 25> C 	 8.42137 	 -5.83889 	 84.6927
| 26> C 	 8.76855 	 -5.00087 	 85.7438
| 27> C 	 8.88219 	 -5.60133 	 86.9907
| 28> H 	 8.3442 	 -5.5451 	 83.6317
| 29> C 	 9.04952 	 -3.56108 	 85.428
| 30> H 	 9.61063 	 -3.5798 	 84.5113
| 31> H 	 9.71015 	 -2.95391 	 86.1296
| 32> C 	 7.69381 	 -2.77978 	 85.3366
| 33> H 	 7.34683 	 -2.82229 	 86.3801
| 34> H 	 7.15412 	 -3.32362 	 84.5792
| 35> C 	 7.88964 	 -1.35878 	 84.7765
| 36> H 	 8.4135 	 -1.46922 	 83.8213
| 37> H 	 8.47988 	 -0.805992 	 85.4366
| 38> H 	 6.92413 	 -0.890427 	 84.622
| 39> H 	 8.60851 	 -2.52469 	 90.9806
| 40> H 	 8.07041 	 -8.07931 	 84.6543
| 41> *
| 42>
| 43>                          ****END OF INPUT****

CARTESIAN COORDINATES (ANGSTROEM)
---------------------------------
  S      7.904890   -3.554990   88.796700
  C      8.765210   -3.345330   90.285200
  C      9.827940   -4.226050   90.376700
  C      9.946120   -5.060920   89.166900
  C      8.934990   -4.925970   88.301800
  H     10.846600   -5.711700   88.965000
  C     10.712500   -4.392510   91.565600
  H     11.305800   -5.351290   91.547300
  H     10.097800   -4.755540   92.458600
  C     11.630700   -3.208430   91.920000
  H     12.235900   -3.025010   91.062400
  H     11.020500   -2.337080   92.055100
  C     12.497200   -3.448770   93.176000
  H     11.994400   -3.854310   94.083600
  H     13.390000   -4.105590   92.840000
  H     13.019100   -2.548090   93.421300
  S      8.492560   -7.238750   86.869400
  C      8.402010   -7.146970   85.162500
  C      8.421370   -5.838890   84.692700
  C      8.768550   -5.000870   85.743800
  C      8.882190   -5.601330   86.990700
  H      8.344200   -5.545100   83.631700
  C      9.049520   -3.561080   85.428000
  H      9.610630   -3.579800   84.511300
  H      9.710150   -2.953910   86.129600
  C      7.693810   -2.779780   85.336600
  H      7.346830   -2.822290   86.380100
  H      7.154120   -3.323620   84.579200
  C      7.889640   -1.358780   84.776500
  H      8.413500   -1.469220   83.821300
  H      8.479880   -0.805992   85.436600
  H      6.924130   -0.890427   84.622000
  H      8.608510   -2.524690   90.980600
  H      8.070410   -8.079310   84.654300

 Total Charge           Charge          ....    0
 Multiplicity           Mult            ....    1
 Number of Electrons    NEL             ....  134
 Basis Dimension        Dim             ....  322

ORBITAL ENERGIES
----------------

  NO   OCC          E(Eh)            E(eV)
   0   2.0000     -88.966430     -2420.8996
   1   2.0000     -88.965861     -2420.8842
   2   2.0000     -10.327157      -281.0162
   3   2.0000     -10.318187      -280.7721
   4   2.0000     -10.317106      -280.7427
   5   2.0000     -10.315601      -280.7018
   6   2.0000     -10.303011      -280.3592
   7   2.0000     -10.296639      -280.1858
   8   2.0000     -10.296334      -280.1775
   9   2.0000     -10.295127      -280.1446
  10   2.0000     -10.294052      -280.1154
  11   2.0000     -10.287426      -279.9351
  12   2.0000     -10.286001      -279.8963
  13   2.0000     -10.285101      -279.8718
  14   2.0000     -10.279717      -279.7253
  15   2.0000     -10.268929      -279.4318
  16   2.0000      -8.082500      -219.9360
  17   2.0000      -8.080428      -219.8796
  18   2.0000      -6.040558      -164.3719
  19   2.0000      -6.039150      -164.3336
  20   2.0000      -6.036718      -164.2675
  21   2.0000      -6.035057      -164.2222
  22   2.0000      -6.033644      -164.1838
  23   2.0000      -6.030985      -164.1115
  24   2.0000      -1.015529       -27.6339
  25   2.0000      -0.989139       -26.9158
  26   2.0000      -0.909097       -24.7378
  27   2.0000      -0.907912       -24.7055
  28   2.0000      -0.871460       -23.7136
  29   2.0000      -0.853136       -23.2150
  30   2.0000      -0.845288       -23.0015
  31   2.0000      -0.815589       -22.1933
  32   2.0000      -0.776717       -21.1355
  33   2.0000      -0.766081       -20.8461
  34   2.0000      -0.705625       -19.2010
  35   2.0000      -0.695076       -18.9140
  36   2.0000      -0.686526       -18.6813
  37   2.0000      -0.667783       -18.1713
  38   2.0000      -0.638458       -17.3733
  39   2.0000      -0.615293       -16.7430
  40   2.0000      -0.601064       -16.3558
  41   2.0000      -0.572150       -15.5690
  42   2.0000      -0.567133       -15.4325
  43   2.0000      -0.556294       -15.1375
  44   2.0000      -0.524195       -14.2641
  45   2.0000      -0.523372       -14.2417
  46   2.0000      -0.515463       -14.0265
  47   2.0000      -0.512189       -13.9374
  48   2.0000      -0.501998       -13.6601
  49   2.0000      -0.497757       -13.5447
  50   2.0000      -0.489489       -13.3197
  51   2.0000      -0.478312       -13.0155
  52   2.0000      -0.471210       -12.8223
  53   2.0000      -0.465115       -12.6564
  54   2.0000      -0.458748       -12.4832
  55   2.0000      -0.453913       -12.3516
  56   2.0000      -0.442510       -12.0413
  57   2.0000      -0.439321       -11.9545
  58   2.0000      -0.433721       -11.8021
  59   2.0000      -0.419402       -11.4125
  60   2.0000      -0.415436       -11.3046
  61   2.0000      -0.410236       -11.1631
  62   2.0000      -0.406934       -11.0732
  63   2.0000      -0.346973        -9.4416
  64   2.0000      -0.335136        -9.1195
  65   2.0000      -0.319187        -8.6855
  66   2.0000      -0.300475        -8.1763
  67   0.0000       0.036782         1.0009
  68   0.0000       0.066723         1.8156
  69   0.0000       0.107749         2.9320
  70   0.0000       0.121570         3.3081
  71   0.0000       0.129711         3.5296

MULLIKEN ATOMIC CHARGES
-----------------------
   0 S :    0.089566
   1 C :   -0.107311
   2 C :   -0.072155
   3 C :   -0.005919
   4 C :   -0.105720
   5 H :    0.044078
   6 C :   -0.005589
   7 H :    0.018035
   8 H :    0.040245
   9 C :   -0.042690
  10 H :    0.026433
  11 H :    0.020884
  12 C :   -0.069966
  13 H :    0.050884
  14 H :    0.038429
  15 H :    0.028446
  16 S :    0.126150
  17 C :   -0.119138
  18 C :   -0.026432
  19 C :   -0.056794
  20 C :   -0.147496
  21 H :    0.036509
  22 C :    0.006440
  23 H :    0.014830
  24 H :    0.034739
  25 C :   -0.093003
  26 H :    0.041468
  27 H :    0.020751
  28 C :    0.009287
  29 H :    0.021989
  30 H :    0.015682
  31 H :    0.037247
  32 H :    0.057260
  33 H :    0.072862
Sum of atomic charges:   -0.0000000

LOEWDIN ATOMIC CHARGES
----------------------
   0 S :    0.407022
   1 C :   -0.195897
   2 C :   -0.067737
   3 C :   -0.062138
   4 C :   -0.185452
   5 H :    0.044509
   6 C :   -0.053993
   7 H :    0.032409
   8 H :    0.039931
   9 C :   -0.036469
  10 H :    0.024548
  11 H :    0.017385
  12 C :   -0.073059
  13 H :    0.030851
  14 H :    0.036141
  15 H :    0.022678
  16 S :    0.460905
  17 C :   -0.199183
  18 C :   -0.071770
  19 C :   -0.060498
  20 C :   -0.231025
  21 H :    0.040795
  22 C :   -0.039798
  23 H :    0.021442
  24 H :    0.031370
  25 C :   -0.036447
  26 H :    0.011334
  27 H :    0.018164
  28 C :   -0.057135
  29 H :    0.026177
  30 H :    0.014589
  31 H :    0.026479
  32 H :    0.032222
  33 H :    0.031649

  Mayer bond orders larger than 0.100000
B(  0-S ,  1-C ) :   1.1339 B(  0-S ,  4-C ) :   1.1097 B(  1-C ,  2-C ) :   1.6319
B(  1-C , 32-H ) :   0.9669 B(  2-C ,  3-C ) :   1.2168 B(  2-C ,  6-C ) :   1.0249
B(  3-C ,  4-C ) :   1.6240 B(  3-C ,  5-H ) :   0.9838 B(  4-C , 20-C ) :   1.0090
B(  6-C ,  7-H ) :   0.9453 B(  6-C ,  8-H ) :   0.9389 B(  6-C ,  9-C ) :   1.0492
B(  9-C , 10-H ) :   0.9543 B(  9-C , 11-H ) :   0.9599 B(  9-C , 12-C ) :   1.0824
B( 12-C , 13-H ) :   0.9755 B( 12-C , 14-H ) :   0.9739 B( 12-C , 15-H ) :   0.9728
B( 16-S , 17-C ) :   1.2127 B( 16-S , 20-C ) :   1.1715 B( 17-C , 18-C ) :   1.5245
B( 17-C , 33-H ) :   0.9630 B( 18-C , 19-C ) :   1.3066 B( 18-C , 21-H ) :   0.9883
B( 19-C , 20-C ) :   1.5494 B( 19-C , 22-C ) :   1.0346 B( 22-C , 23-H ) :   0.9400
B( 22-C , 24-H ) :   0.9451 B( 22-C , 25-C ) :   1.0469 B( 25-C , 26-H ) :   0.9474
B( 25-C , 27-H ) :   0.9602 B( 25-C , 28-C ) :   1.0862 B( 28-C , 29-H ) :   0.9729
B( 28-C , 30-H ) :   0.9725 B( 28-C , 31-H ) :   0.9738

Dispersion correction           -0.014228236
FINAL SINGLE POINT ENERGY     -1339.871066529190

DIPOLE MOMENT
-------------
                                X             Y             Z
Electronic contribution:    -11.45848     -16.26833      -6.20224
Nuclear contribution   :     11.80717      16.48423       6.23376
                        -----------------------------------------
Total Dipole Moment    :      0.34869       0.21590       0.03152
                        -----------------------------------------
Magnitude (a.u.)       :      0.41133
Magnitude (Debye)      :      1.04551

Rotational constants in cm-1:     0.021145     0.007618     0.006225
Rotational constants in MHz :   633.896680   228.388329   186.619640

                             ****ORCA TERMINATED NORMALLY****
TOTAL RUN TIME: 0 days 0 hours 0 minutes 31 seconds 421 msec
