                         Program Version 4.2.1 -  RELEASE  -
|  1> ! wB97X-D3 SP def2-SVP
|  2> %pal
|  3> nprocs 16
|  4> end
|  5>
|  6> * xyz 0 1
|  7> S 	 16.4197 	 18.5887 	 41.8364
|  8> C 	 16.7411 	 17.1487 	 40.9893
|  9> C 	 15.7407 	 16.9023 	 40.0668
| 10> C 	 14.7795 	 17.9743 	 40.0043
| 11> C 	 14.95 	 18.974 	 40.9508
| 12> H 	 14.0211 	 17.9913 	 39.2325
| 13> C 	 15.7107 	 15.7207 	 39.2037
| 14> H 	 14.733 	 15.7139 	 38.6628
| 15> H 	 15.8283 	 14.7694 	 39.6919
| 16> C 	 16.7812 	 15.6358 	 38.154
| 17> H 	 16.9766 	 16.6838 	 37.7977
| 18> H 	 17.7218 	 15.3064 	 38.6141
| 19> C 	 16.4769 	 14.6483 	 36.9913
| 20> H 	 17.3948 	 14.0466 	 36.7284
| 21> H 	 15.649 	 13.9532 	 37.2714
| 22> H 	 16.1074 	 15.1149 	 36.1109
| 23> S 	 13.5339 	 21.0305 	 39.9059
| 24> C 	 12.5984 	 22.009 	 40.9701
| 25> C 	 12.769 	 21.6095 	 42.2644
| 26> C 	 13.6244 	 20.5776 	 42.4572
| 27> C 	 14.0882 	 20.1029 	 41.2368
| 28> H 	 12.1709 	 22.0177 	 43.0406
| 29> C 	 13.8721 	 19.8701 	 43.7992
| 30> H 	 13.7625 	 20.5912 	 44.5631
| 31> H 	 14.8934 	 19.5528 	 43.9275
| 32> C 	 12.8381 	 18.7132 	 44.1238
| 33> H 	 11.8158 	 19.1005 	 43.9282
| 34> H 	 13.0101 	 18.4406 	 45.1892
| 35> C 	 13.0712 	 17.3757 	 43.4424
| 36> H 	 12.2265 	 16.6393 	 43.4656
| 37> H 	 13.8597 	 16.8025 	 43.8257
| 38> H 	 13.3985 	 17.6022 	 42.3795
| 39> H 	 17.6255 	 16.6346 	 41.1155
| 40> H 	 11.8599 	 22.7916 	 40.755
| 41> *
| 42>
| 43>                          ****END OF INPUT****

CARTESIAN COORDINATES (ANGSTROEM)
---------------------------------
  S     16.419700   18.588700   41.836400
  C     16.741100   17.148700   40.989300
  C     15.740700   16.902300   40.066800
  C     14.779500   17.974300   40.004300
  C     14.950000   18.974000   40.950800
  H     14.021100   17.991300   39.232500
  C     15.710700   15.720700   39.203700
  H     14.733000   15.713900   38.662800
  H     15.828300   14.769400   39.691900
  C     16.781200   15.635800   38.154000
  H     16.976600   16.683800   37.797700
  H     17.721800   15.306400   38.614100
  C     16.476900   14.648300   36.991300
  H     17.394800   14.046600   36.728400
  H     15.649000   13.953200   37.271400
  H     16.107400   15.114900   36.110900
  S     13.533900   21.030500   39.905900
  C     12.598400   22.009000   40.970100
  C     12.769000   21.609500   42.264400
  C     13.624400   20.577600   42.457200
  C     14.088200   20.102900   41.236800
  H     12.170900   22.017700   43.040600
  C     13.872100   19.870100   43.799200
  H     13.762500   20.591200   44.563100
  H     14.893400   19.552800   43.927500
  C     12.838100   18.713200   44.123800
  H     11.815800   19.100500   43.928200
  H     13.010100   18.440600   45.189200
  C     13.071200   17.375700   43.442400
  H     12.226500   16.639300   43.465600
  H     13.859700   16.802500   43.825700
  H     13.398500   17.602200   42.379500
  H     17.625500   16.634600   41.115500
  H     11.859900   22.791600   40.755000

 Total Charge           Charge          ....    0
 Multiplicity           Mult            ....    1
 Number of Electrons    NEL             ....  134
 Basis Dimension        Dim             ....  322

ORBITAL ENERGIES
----------------

  NO   OCC          E(Eh)            E(eV)
   0   2.0000     -88.971454     -2421.0363
   1   2.0000     -88.965133     -2420.8644
   2   2.0000     -10.330890      -281.1178
   3   2.0000     -10.323004      -280.9032
   4   2.0000     -10.312267      -280.6111
   5   2.0000     -10.306745      -280.4608
   6   2.0000     -10.298479      -280.2359
   7   2.0000     -10.296414      -280.1797
   8   2.0000     -10.295152      -280.1453
   9   2.0000     -10.288956      -279.9767
  10   2.0000     -10.288718      -279.9703
  11   2.0000     -10.286909      -279.9210
  12   2.0000     -10.285361      -279.8789
  13   2.0000     -10.283039      -279.8157
  14   2.0000     -10.281504      -279.7740
  15   2.0000     -10.266582      -279.3679
  16   2.0000      -8.086818      -220.0535
  17   2.0000      -8.080217      -219.8739
  18   2.0000      -6.045091      -164.4953
  19   2.0000      -6.041180      -164.3889
  20   2.0000      -6.038661      -164.3203
  21   2.0000      -6.037859      -164.2985
  22   2.0000      -6.034452      -164.2058
  23   2.0000      -6.031249      -164.1186
  24   2.0000      -1.017953       -27.6999
  25   2.0000      -0.995012       -27.0757
  26   2.0000      -0.918192       -24.9853
  27   2.0000      -0.902204       -24.5502
  28   2.0000      -0.875986       -23.8368
  29   2.0000      -0.852588       -23.2001
  30   2.0000      -0.846658       -23.0387
  31   2.0000      -0.816631       -22.2216
  32   2.0000      -0.784082       -21.3360
  33   2.0000      -0.771530       -20.9944
  34   2.0000      -0.706695       -19.2301
  35   2.0000      -0.699165       -19.0252
  36   2.0000      -0.688070       -18.7233
  37   2.0000      -0.668342       -18.1865
  38   2.0000      -0.646480       -17.5916
  39   2.0000      -0.622633       -16.9427
  40   2.0000      -0.601488       -16.3673
  41   2.0000      -0.576870       -15.6974
  42   2.0000      -0.564580       -15.3630
  43   2.0000      -0.545524       -14.8445
  44   2.0000      -0.538924       -14.6649
  45   2.0000      -0.523919       -14.2566
  46   2.0000      -0.518402       -14.1064
  47   2.0000      -0.511172       -13.9097
  48   2.0000      -0.503953       -13.7133
  49   2.0000      -0.496580       -13.5126
  50   2.0000      -0.489756       -13.3269
  51   2.0000      -0.481000       -13.0887
  52   2.0000      -0.477600       -12.9962
  53   2.0000      -0.468596       -12.7512
  54   2.0000      -0.465730       -12.6732
  55   2.0000      -0.448404       -12.2017
  56   2.0000      -0.440590       -11.9891
  57   2.0000      -0.436903       -11.8887
  58   2.0000      -0.434802       -11.8316
  59   2.0000      -0.422694       -11.5021
  60   2.0000      -0.416880       -11.3439
  61   2.0000      -0.410847       -11.1797
  62   2.0000      -0.399112       -10.8604
  63   2.0000      -0.352797        -9.6001
  64   2.0000      -0.340408        -9.2630
  65   2.0000      -0.327311        -8.9066
  66   2.0000      -0.286609        -7.7990
  67   0.0000       0.026815         0.7297
  68   0.0000       0.077134         2.0989
  69   0.0000       0.113645         3.0924
  70   0.0000       0.124238         3.3807
  71   0.0000       0.136623         3.7177

MULLIKEN ATOMIC CHARGES
-----------------------
   0 S :    0.115973
   1 C :   -0.096637
   2 C :   -0.083238
   3 C :    0.023716
   4 C :   -0.153414
   5 H :    0.009339
   6 C :    0.073320
   7 H :    0.020933
   8 H :    0.028773
   9 C :   -0.107602
  10 H :    0.037750
  11 H :    0.024470
  12 C :   -0.061049
  13 H :    0.045650
  14 H :    0.032076
  15 H :    0.032953
  16 S :    0.139215
  17 C :   -0.084568
  18 C :   -0.047084
  19 C :   -0.020463
  20 C :   -0.174946
  21 H :   -0.001686
  22 C :    0.107099
  23 H :    0.002598
  24 H :    0.016754
  25 C :   -0.066325
  26 H :    0.036061
  27 H :    0.033826
  28 C :   -0.055449
  29 H :    0.035906
  30 H :    0.012586
  31 H :    0.042657
  32 H :    0.023986
  33 H :    0.056819
Sum of atomic charges:    0.0000000

LOEWDIN ATOMIC CHARGES
----------------------
   0 S :    0.436540
   1 C :   -0.193904
   2 C :   -0.065236
   3 C :   -0.064343
   4 C :   -0.196313
   5 H :    0.027021
   6 C :   -0.042602
   7 H :    0.032483
   8 H :    0.032453
   9 C :   -0.046083
  10 H :    0.026399
  11 H :    0.019811
  12 C :   -0.070798
  13 H :    0.034734
  14 H :    0.028596
  15 H :    0.021690
  16 S :    0.450055
  17 C :   -0.204352
  18 C :   -0.069434
  19 C :   -0.062591
  20 C :   -0.207935
  21 H :    0.027300
  22 C :   -0.025935
  23 H :    0.025138
  24 H :    0.018799
  25 C :   -0.036738
  26 H :    0.026965
  27 H :    0.027969
  28 C :   -0.080096
  29 H :    0.030361
  30 H :    0.014230
  31 H :    0.034661
  32 H :    0.014126
  33 H :    0.037030

  Mayer bond orders larger than 0.100000
B(  0-S ,  1-C ) :   1.1626 B(  0-S ,  4-C ) :   1.1651 B(  1-C ,  2-C ) :   1.5501
B(  1-C , 32-H ) :   0.9884 B(  2-C ,  3-C ) :   1.2798 B(  2-C ,  6-C ) :   1.0496
B(  3-C ,  4-C ) :   1.5261 B(  3-C ,  5-H ) :   0.9927 B(  4-C , 20-C ) :   1.0400
B(  6-C ,  7-H ) :   0.9410 B(  6-C ,  8-H ) :   0.9274 B(  6-C ,  9-C ) :   1.0630
B(  9-C , 10-H ) :   0.9623 B(  9-C , 11-H ) :   0.9593 B(  9-C , 12-C ) :   1.0614
B( 12-C , 13-H ) :   0.9783 B( 12-C , 14-H ) :   0.9760 B( 12-C , 15-H ) :   0.9776
B( 16-S , 17-C ) :   1.1576 B( 16-S , 20-C ) :   1.1851 B( 17-C , 18-C ) :   1.5768
B( 17-C , 20-C ) :   0.1075 B( 17-C , 33-H ) :   0.9631 B( 18-C , 19-C ) :   1.3157
B( 18-C , 21-H ) :   0.9886 B( 19-C , 20-C ) :   1.5169 B( 19-C , 22-C ) :   1.0454
B( 22-C , 23-H ) :   0.9224 B( 22-C , 24-H ) :   0.9306 B( 22-C , 25-C ) :   1.0656
B( 25-C , 26-H ) :   0.9573 B( 25-C , 27-H ) :   0.9579 B( 25-C , 28-C ) :   1.0750
B( 28-C , 29-H ) :   0.9717 B( 28-C , 30-H ) :   0.9728 B( 28-C , 31-H ) :   0.9731

Dispersion correction           -0.015413272
FINAL SINGLE POINT ENERGY     -1339.877928981583

DIPOLE MOMENT
-------------
                                X             Y             Z
Electronic contribution:      1.01895      20.75789       1.43983
Nuclear contribution   :     -1.13434     -21.06996      -1.44538
                        -----------------------------------------
Total Dipole Moment    :     -0.11539      -0.31208      -0.00555
                        -----------------------------------------
Magnitude (a.u.)       :      0.33277
Magnitude (Debye)      :      0.84584

Rotational constants in cm-1:     0.022972     0.008123     0.006985
Rotational constants in MHz :   688.677840   243.514981   209.418743

                             ****ORCA TERMINATED NORMALLY****
TOTAL RUN TIME: 0 days 0 hours 0 minutes 34 seconds 474 msec
