                         Program Version 4.2.1 -  RELEASE  -
|  1> ! wB97X-D3 SP def2-SVP
|  2> %pal
|  3> nprocs 16
|  4> end
|  5>
|  6> * xyz 0 1
|  7> S 	 -42.2074 	 34.6846 	 79.2146
|  8> C 	 -43.1122 	 35.4353 	 77.9155
|  9> C 	 -43.3849 	 34.5629 	 76.9237
| 10> C 	 -43.0718 	 33.2007 	 77.261
| 11> C 	 -42.5881 	 33.1201 	 78.5438
| 12> H 	 -43.3307 	 32.2442 	 76.7666
| 13> C 	 -44.2255 	 34.9307 	 75.6989
| 14> H 	 -44.1177 	 34.0919 	 74.9996
| 15> H 	 -43.777 	 35.9308 	 75.4435
| 16> C 	 -45.7038 	 35.0031 	 76.0372
| 17> H 	 -46.3352 	 34.8604 	 75.1742
| 18> H 	 -45.9284 	 34.1858 	 76.6977
| 19> C 	 -46.2315 	 36.3351 	 76.6917
| 20> H 	 -47.2515 	 36.2405 	 76.8196
| 21> H 	 -45.7927 	 36.4675 	 77.6703
| 22> H 	 -45.9634 	 37.1381 	 76.0089
| 23> S 	 -42.9696 	 31.1771 	 80.4722
| 24> C 	 -42.0754 	 29.7464 	 80.4474
| 25> C 	 -41.2114 	 29.6615 	 79.3499
| 26> C 	 -41.2422 	 30.9292 	 78.6026
| 27> C 	 -42.0916 	 31.882 	 79.1342
| 28> H 	 -40.5922 	 28.7489 	 79.3068
| 29> C 	 -40.2016 	 31.2377 	 77.5417
| 30> H 	 -40.6971 	 31.8075 	 76.7992
| 31> H 	 -39.7281 	 30.2837 	 77.2558
| 32> C 	 -39.0762 	 32.097 	 78.0114
| 33> H 	 -38.4284 	 31.6684 	 78.7029
| 34> H 	 -39.5171 	 33.0054 	 78.5171
| 35> C 	 -38.1808 	 32.5216 	 76.8443
| 36> H 	 -37.4787 	 33.2598 	 77.1674
| 37> H 	 -38.7619 	 32.904 	 75.9707
| 38> H 	 -37.5748 	 31.6345 	 76.6343
| 39> H 	 -43.3023 	 36.4394 	 77.8537
| 40> H 	 -42.3366 	 28.9133 	 81.1083
| 41> *
| 42>
| 43>                          ****END OF INPUT****

CARTESIAN COORDINATES (ANGSTROEM)
---------------------------------
  S    -42.207400   34.684600   79.214600
  C    -43.112200   35.435300   77.915500
  C    -43.384900   34.562900   76.923700
  C    -43.071800   33.200700   77.261000
  C    -42.588100   33.120100   78.543800
  H    -43.330700   32.244200   76.766600
  C    -44.225500   34.930700   75.698900
  H    -44.117700   34.091900   74.999600
  H    -43.777000   35.930800   75.443500
  C    -45.703800   35.003100   76.037200
  H    -46.335200   34.860400   75.174200
  H    -45.928400   34.185800   76.697700
  C    -46.231500   36.335100   76.691700
  H    -47.251500   36.240500   76.819600
  H    -45.792700   36.467500   77.670300
  H    -45.963400   37.138100   76.008900
  S    -42.969600   31.177100   80.472200
  C    -42.075400   29.746400   80.447400
  C    -41.211400   29.661500   79.349900
  C    -41.242200   30.929200   78.602600
  C    -42.091600   31.882000   79.134200
  H    -40.592200   28.748900   79.306800
  C    -40.201600   31.237700   77.541700
  H    -40.697100   31.807500   76.799200
  H    -39.728100   30.283700   77.255800
  C    -39.076200   32.097000   78.011400
  H    -38.428400   31.668400   78.702900
  H    -39.517100   33.005400   78.517100
  C    -38.180800   32.521600   76.844300
  H    -37.478700   33.259800   77.167400
  H    -38.761900   32.904000   75.970700
  H    -37.574800   31.634500   76.634300
  H    -43.302300   36.439400   77.853700
  H    -42.336600   28.913300   81.108300

 Total Charge           Charge          ....    0
 Multiplicity           Mult            ....    1
 Number of Electrons    NEL             ....  134
 Basis Dimension        Dim             ....  322

ORBITAL ENERGIES
----------------

  NO   OCC          E(Eh)            E(eV)
   0   2.0000     -88.965956     -2420.8867
   1   2.0000     -88.961217     -2420.7578
   2   2.0000     -10.327148      -281.0160
   3   2.0000     -10.320357      -280.8312
   4   2.0000     -10.315802      -280.7072
   5   2.0000     -10.306170      -280.4451
   6   2.0000     -10.304705      -280.4053
   7   2.0000     -10.299964      -280.2763
   8   2.0000     -10.298281      -280.2305
   9   2.0000     -10.297162      -280.2000
  10   2.0000     -10.296796      -280.1901
  11   2.0000     -10.282686      -279.8061
  12   2.0000     -10.281959      -279.7863
  13   2.0000     -10.272798      -279.5370
  14   2.0000     -10.272652      -279.5331
  15   2.0000     -10.272576      -279.5310
  16   2.0000      -8.080762      -219.8887
  17   2.0000      -8.077500      -219.7999
  18   2.0000      -6.039215      -164.3354
  19   2.0000      -6.035774      -164.2418
  20   2.0000      -6.035406      -164.2317
  21   2.0000      -6.031630      -164.1290
  22   2.0000      -6.031432      -164.1236
  23   2.0000      -6.028571      -164.0458
  24   2.0000      -1.010635       -27.5008
  25   2.0000      -0.988599       -26.9011
  26   2.0000      -0.915659       -24.9164
  27   2.0000      -0.912300       -24.8250
  28   2.0000      -0.870263       -23.6811
  29   2.0000      -0.849739       -23.1226
  30   2.0000      -0.845152       -22.9978
  31   2.0000      -0.814338       -22.1593
  32   2.0000      -0.785297       -21.3690
  33   2.0000      -0.773106       -21.0373
  34   2.0000      -0.705602       -19.2004
  35   2.0000      -0.696394       -18.9498
  36   2.0000      -0.687478       -18.7072
  37   2.0000      -0.659819       -17.9546
  38   2.0000      -0.646240       -17.5851
  39   2.0000      -0.614962       -16.7340
  40   2.0000      -0.593747       -16.1567
  41   2.0000      -0.574153       -15.6235
  42   2.0000      -0.569423       -15.4948
  43   2.0000      -0.550603       -14.9827
  44   2.0000      -0.546076       -14.8595
  45   2.0000      -0.527083       -14.3427
  46   2.0000      -0.517375       -14.0785
  47   2.0000      -0.513523       -13.9737
  48   2.0000      -0.503913       -13.7122
  49   2.0000      -0.498816       -13.5735
  50   2.0000      -0.489582       -13.3222
  51   2.0000      -0.482359       -13.1257
  52   2.0000      -0.475046       -12.9267
  53   2.0000      -0.464011       -12.6264
  54   2.0000      -0.458656       -12.4807
  55   2.0000      -0.446727       -12.1561
  56   2.0000      -0.445043       -12.1102
  57   2.0000      -0.441947       -12.0260
  58   2.0000      -0.433616       -11.7993
  59   2.0000      -0.423883       -11.5344
  60   2.0000      -0.416711       -11.3393
  61   2.0000      -0.408618       -11.1191
  62   2.0000      -0.406054       -11.0493
  63   2.0000      -0.338076        -9.1995
  64   2.0000      -0.332343        -9.0435
  65   2.0000      -0.325641        -8.8612
  66   2.0000      -0.304755        -8.2928
  67   0.0000       0.034873         0.9489
  68   0.0000       0.065513         1.7827
  69   0.0000       0.106967         2.9107
  70   0.0000       0.121969         3.3189
  71   0.0000       0.135155         3.6777

MULLIKEN ATOMIC CHARGES
-----------------------
   0 S :    0.113666
   1 C :   -0.086444
   2 C :   -0.096768
   3 C :    0.021024
   4 C :   -0.168703
   5 H :    0.040205
   6 C :    0.070239
   7 H :    0.029047
   8 H :    0.038784
   9 C :   -0.073425
  10 H :    0.025949
  11 H :    0.023301
  12 C :   -0.032439
  13 H :    0.023667
  14 H :    0.032949
  15 H :    0.032389
  16 S :    0.113732
  17 C :   -0.109788
  18 C :   -0.051596
  19 C :   -0.046156
  20 C :   -0.163642
  21 H :    0.035576
  22 C :    0.121062
  23 H :    0.003503
  24 H :    0.016403
  25 C :   -0.076753
  26 H :    0.008251
  27 H :    0.024931
  28 C :   -0.042561
  29 H :    0.028111
  30 H :    0.041496
  31 H :    0.024911
  32 H :    0.010870
  33 H :    0.068209
Sum of atomic charges:    0.0000000

LOEWDIN ATOMIC CHARGES
----------------------
   0 S :    0.405053
   1 C :   -0.182586
   2 C :   -0.062064
   3 C :   -0.064586
   4 C :   -0.193991
   5 H :    0.042533
   6 C :   -0.030562
   7 H :    0.034765
   8 H :    0.036707
   9 C :   -0.037720
  10 H :    0.020701
  11 H :    0.023028
  12 C :   -0.054434
  13 H :    0.017737
  14 H :    0.022444
  15 H :    0.024583
  16 S :    0.433628
  17 C :   -0.203444
  18 C :   -0.085060
  19 C :   -0.045545
  20 C :   -0.219552
  21 H :    0.039201
  22 C :   -0.028613
  23 H :    0.024610
  24 H :    0.031721
  25 C :   -0.037904
  26 H :    0.012923
  27 H :    0.021757
  28 C :   -0.062206
  29 H :    0.022875
  30 H :    0.028521
  31 H :    0.024839
  32 H :    0.008511
  33 H :    0.032130

  Mayer bond orders larger than 0.100000
B(  0-S ,  1-C ) :   1.1203 B(  0-S ,  4-C ) :   1.1554 B(  1-C ,  2-C ) :   1.6417
B(  1-C , 32-H ) :   0.9780 B(  2-C ,  3-C ) :   1.2064 B(  2-C ,  6-C ) :   1.0208
B(  3-C ,  4-C ) :   1.6154 B(  3-C ,  5-H ) :   0.9869 B(  4-C , 20-C ) :   1.0022
B(  6-C ,  7-H ) :   0.9365 B(  6-C ,  8-H ) :   0.9423 B(  6-C ,  9-C ) :   1.0670
B(  9-C , 10-H ) :   0.9599 B(  9-C , 11-H ) :   0.9513 B(  9-C , 12-C ) :   1.0821
B( 12-C , 13-H ) :   0.9729 B( 12-C , 14-H ) :   0.9724 B( 12-C , 15-H ) :   0.9782
B( 16-S , 17-C ) :   1.2005 B( 16-S , 20-C ) :   1.1400 B( 17-C , 18-C ) :   1.5885
B( 17-C , 33-H ) :   0.9621 B( 18-C , 19-C ) :   1.2293 B( 18-C , 21-H ) :   0.9913
B( 19-C , 20-C ) :   1.5887 B( 19-C , 22-C ) :   1.0612 B( 22-C , 23-H ) :   0.9161
B( 22-C , 24-H ) :   0.9320 B( 22-C , 25-C ) :   1.0840 B( 25-C , 26-H ) :   0.9535
B( 25-C , 27-H ) :   0.9487 B( 25-C , 28-C ) :   1.0856 B( 28-C , 29-H ) :   0.9720
B( 28-C , 30-H ) :   0.9755 B( 28-C , 31-H ) :   0.9746

Dispersion correction           -0.014935796
FINAL SINGLE POINT ENERGY     -1339.867202958390

DIPOLE MOMENT
-------------
                                X             Y             Z
Electronic contribution:     -1.89874      -6.61768      18.34289
Nuclear contribution   :      1.84212       6.45046     -18.77784
                        -----------------------------------------
Total Dipole Moment    :     -0.05662      -0.16722      -0.43495
                        -----------------------------------------
Magnitude (a.u.)       :      0.46941
Magnitude (Debye)      :      1.19315

Rotational constants in cm-1:     0.020023     0.008554     0.007142
Rotational constants in MHz :   600.263886   256.429961   214.098356

                             ****ORCA TERMINATED NORMALLY****
TOTAL RUN TIME: 0 days 0 hours 0 minutes 31 seconds 269 msec
