                         Program Version 4.2.1 -  RELEASE  -
|  1> ! wB97X-D3 SP def2-SVP
|  2> %pal
|  3> nprocs 16
|  4> end
|  5>
|  6> * xyz 0 1
|  7> S 	 -43.04 	 35.2943 	 79.8504
|  8> C 	 -43.1546 	 36.9472 	 79.2447
|  9> C 	 -41.9817 	 37.3542 	 78.6094
| 10> C 	 -41.0301 	 36.2845 	 78.6249
| 11> C 	 -41.3764 	 35.0896 	 79.2557
| 12> H 	 -40.0601 	 36.3938 	 78.269
| 13> C 	 -41.6606 	 38.7513 	 78.1694
| 14> H 	 -40.7963 	 39.1424 	 78.7416
| 15> H 	 -42.5376 	 39.3176 	 78.4458
| 16> C 	 -41.316 	 38.8966 	 76.6576
| 17> H 	 -40.5938 	 38.046 	 76.3823
| 18> H 	 -42.1767 	 38.6292 	 76.0242
| 19> C 	 -40.7569 	 40.2626 	 76.2494
| 20> H 	 -39.7606 	 40.4053 	 76.5678
| 21> H 	 -40.6915 	 40.3079 	 75.1405
| 22> H 	 -41.4404 	 40.9753 	 76.7041
| 23> S 	 -41.0597 	 32.3253 	 78.9191
| 24> C 	 -39.5924 	 31.6616 	 79.599
| 25> C 	 -38.8857 	 32.5514 	 80.4341
| 26> C 	 -39.4662 	 33.868 	 80.4536
| 27> C 	 -40.604 	 33.9543 	 79.6438
| 28> H 	 -38.0821 	 32.1975 	 80.9938
| 29> C 	 -38.845 	 35.0527 	 81.2009
| 30> H 	 -39.7161 	 35.756 	 81.5024
| 31> H 	 -38.3912 	 35.6852 	 80.4965
| 32> C 	 -37.7056 	 34.9363 	 82.3378
| 33> H 	 -36.8213 	 34.4757 	 81.8986
| 34> H 	 -38.0965 	 34.1712 	 83.0863
| 35> C 	 -37.5411 	 36.3211 	 83.1019
| 36> H 	 -37.1149 	 37.0192 	 82.3728
| 37> H 	 -36.9015 	 36.2131 	 83.9545
| 38> H 	 -38.4081 	 36.6386 	 83.5964
| 39> H 	 -43.8623 	 37.6269 	 79.6181
| 40> H 	 -39.3319 	 30.6381 	 79.5689
| 41> *
| 42>
| 43>                          ****END OF INPUT****

CARTESIAN COORDINATES (ANGSTROEM)
---------------------------------
  S    -43.040000   35.294300   79.850400
  C    -43.154600   36.947200   79.244700
  C    -41.981700   37.354200   78.609400
  C    -41.030100   36.284500   78.624900
  C    -41.376400   35.089600   79.255700
  H    -40.060100   36.393800   78.269000
  C    -41.660600   38.751300   78.169400
  H    -40.796300   39.142400   78.741600
  H    -42.537600   39.317600   78.445800
  C    -41.316000   38.896600   76.657600
  H    -40.593800   38.046000   76.382300
  H    -42.176700   38.629200   76.024200
  C    -40.756900   40.262600   76.249400
  H    -39.760600   40.405300   76.567800
  H    -40.691500   40.307900   75.140500
  H    -41.440400   40.975300   76.704100
  S    -41.059700   32.325300   78.919100
  C    -39.592400   31.661600   79.599000
  C    -38.885700   32.551400   80.434100
  C    -39.466200   33.868000   80.453600
  C    -40.604000   33.954300   79.643800
  H    -38.082100   32.197500   80.993800
  C    -38.845000   35.052700   81.200900
  H    -39.716100   35.756000   81.502400
  H    -38.391200   35.685200   80.496500
  C    -37.705600   34.936300   82.337800
  H    -36.821300   34.475700   81.898600
  H    -38.096500   34.171200   83.086300
  C    -37.541100   36.321100   83.101900
  H    -37.114900   37.019200   82.372800
  H    -36.901500   36.213100   83.954500
  H    -38.408100   36.638600   83.596400
  H    -43.862300   37.626900   79.618100
  H    -39.331900   30.638100   79.568900

 Total Charge           Charge          ....    0
 Multiplicity           Mult            ....    1
 Number of Electrons    NEL             ....  134
 Basis Dimension        Dim             ....  322

ORBITAL ENERGIES
----------------

  NO   OCC          E(Eh)            E(eV)
   0   2.0000     -88.967402     -2420.9261
   1   2.0000     -88.961391     -2420.7625
   2   2.0000     -10.329731      -281.0863
   3   2.0000     -10.329153      -281.0705
   4   2.0000     -10.319535      -280.8088
   5   2.0000     -10.314182      -280.6632
   6   2.0000     -10.313319      -280.6397
   7   2.0000     -10.305732      -280.4332
   8   2.0000     -10.302416      -280.3430
   9   2.0000     -10.298557      -280.2380
  10   2.0000     -10.296709      -280.1877
  11   2.0000     -10.294244      -280.1206
  12   2.0000     -10.293521      -280.1009
  13   2.0000     -10.291258      -280.0394
  14   2.0000     -10.283417      -279.8260
  15   2.0000     -10.279710      -279.7251
  16   2.0000      -8.080906      -219.8926
  17   2.0000      -8.075715      -219.7514
  18   2.0000      -6.039425      -164.3411
  19   2.0000      -6.035710      -164.2400
  20   2.0000      -6.034206      -164.1991
  21   2.0000      -6.031599      -164.1281
  22   2.0000      -6.030218      -164.0906
  23   2.0000      -6.026561      -163.9911
  24   2.0000      -0.997093       -27.1323
  25   2.0000      -0.974099       -26.5066
  26   2.0000      -0.909676       -24.7535
  27   2.0000      -0.895230       -24.3604
  28   2.0000      -0.869437       -23.6586
  29   2.0000      -0.850320       -23.1384
  30   2.0000      -0.843519       -22.9533
  31   2.0000      -0.813026       -22.1235
  32   2.0000      -0.785331       -21.3699
  33   2.0000      -0.770723       -20.9725
  34   2.0000      -0.712642       -19.3920
  35   2.0000      -0.703497       -19.1431
  36   2.0000      -0.692650       -18.8480
  37   2.0000      -0.655923       -17.8486
  38   2.0000      -0.646751       -17.5990
  39   2.0000      -0.621396       -16.9090
  40   2.0000      -0.595754       -16.2113
  41   2.0000      -0.569167       -15.4878
  42   2.0000      -0.559174       -15.2159
  43   2.0000      -0.558459       -15.1964
  44   2.0000      -0.532331       -14.4855
  45   2.0000      -0.523880       -14.2555
  46   2.0000      -0.518115       -14.0986
  47   2.0000      -0.511740       -13.9251
  48   2.0000      -0.500304       -13.6140
  49   2.0000      -0.499444       -13.5906
  50   2.0000      -0.492622       -13.4049
  51   2.0000      -0.478328       -13.0160
  52   2.0000      -0.468664       -12.7530
  53   2.0000      -0.463344       -12.6082
  54   2.0000      -0.458889       -12.4870
  55   2.0000      -0.451300       -12.2805
  56   2.0000      -0.444645       -12.0994
  57   2.0000      -0.434749       -11.8301
  58   2.0000      -0.433116       -11.7857
  59   2.0000      -0.424028       -11.5384
  60   2.0000      -0.419994       -11.4286
  61   2.0000      -0.418996       -11.4015
  62   2.0000      -0.413894       -11.2626
  63   2.0000      -0.334868        -9.1122
  64   2.0000      -0.330634        -8.9970
  65   2.0000      -0.327350        -8.9076
  66   2.0000      -0.293433        -7.9847
  67   0.0000       0.030260         0.8234
  68   0.0000       0.050597         1.3768
  69   0.0000       0.107434         2.9234
  70   0.0000       0.119752         3.2586
  71   0.0000       0.128934         3.5085

MULLIKEN ATOMIC CHARGES
-----------------------
   0 S :    0.092971
   1 C :   -0.100253
   2 C :   -0.108173
   3 C :    0.060669
   4 C :   -0.163529
   5 H :   -0.017891
   6 C :    0.088597
   7 H :    0.039139
   8 H :    0.013148
   9 C :   -0.140319
  10 H :    0.034428
  11 H :    0.034294
  12 C :   -0.013118
  13 H :    0.024315
  14 H :    0.041257
  15 H :    0.036693
  16 S :    0.107389
  17 C :   -0.067848
  18 C :   -0.041695
  19 C :    0.034692
  20 C :   -0.180588
  21 H :   -0.000391
  22 C :    0.011642
  23 H :    0.045999
  24 H :    0.020028
  25 C :   -0.101279
  26 H :    0.043765
  27 H :    0.040710
  28 C :   -0.021373
  29 H :    0.044867
  30 H :    0.027297
  31 H :    0.029542
  32 H :    0.039783
  33 H :    0.045232
Sum of atomic charges:    0.0000000

LOEWDIN ATOMIC CHARGES
----------------------
   0 S :    0.387624
   1 C :   -0.184318
   2 C :   -0.063298
   3 C :   -0.049351
   4 C :   -0.190916
   5 H :    0.016496
   6 C :   -0.032345
   7 H :    0.036278
   8 H :    0.027310
   9 C :   -0.049941
  10 H :    0.027356
  11 H :    0.025784
  12 C :   -0.061887
  13 H :    0.018308
  14 H :    0.034659
  15 H :    0.027629
  16 S :    0.376561
  17 C :   -0.170382
  18 C :   -0.067535
  19 C :   -0.035750
  20 C :   -0.189129
  21 H :    0.020927
  22 C :   -0.047088
  23 H :    0.045248
  24 H :    0.023768
  25 C :   -0.038521
  26 H :    0.022928
  27 H :    0.027014
  28 C :   -0.056419
  29 H :    0.029712
  30 H :    0.027079
  31 H :    0.023475
  32 H :    0.018300
  33 H :    0.020428

  Mayer bond orders larger than 0.100000
B(  0-S ,  1-C ) :   1.1502 B(  0-S ,  4-C ) :   1.1365 B(  1-C ,  2-C ) :   1.6048
B(  1-C , 32-H ) :   0.9654 B(  2-C ,  3-C ) :   1.2392 B(  2-C ,  6-C ) :   1.0367
B(  3-C ,  4-C ) :   1.5801 B(  3-C ,  5-H ) :   1.0059 B(  4-C , 20-C ) :   1.0562
B(  6-C ,  7-H ) :   0.9417 B(  6-C ,  8-H ) :   0.9317 B(  6-C ,  9-C ) :   1.0463
B(  9-C , 10-H ) :   0.9602 B(  9-C , 11-H ) :   0.9551 B(  9-C , 12-C ) :   1.0771
B( 12-C , 13-H ) :   0.9749 B( 12-C , 14-H ) :   0.9733 B( 12-C , 15-H ) :   0.9739
B( 16-S , 17-C ) :   1.1625 B( 16-S , 20-C ) :   1.1084 B( 17-C , 18-C ) :   1.6149
B( 17-C , 20-C ) :   0.1054 B( 17-C , 33-H ) :   0.9663 B( 18-C , 19-C ) :   1.2203
B( 18-C , 21-H ) :   0.9969 B( 19-C , 20-C ) :   1.6029 B( 19-C , 22-C ) :   1.0366
B( 22-C , 23-H ) :   0.9326 B( 22-C , 24-H ) :   0.9308 B( 22-C , 25-C ) :   1.0413
B( 25-C , 26-H ) :   0.9554 B( 25-C , 27-H ) :   0.9638 B( 25-C , 28-C ) :   1.0703
B( 28-C , 29-H ) :   0.9794 B( 28-C , 30-H ) :   0.9732 B( 28-C , 31-H ) :   0.9747

Dispersion correction           -0.013538537
FINAL SINGLE POINT ENERGY     -1339.858253029057

DIPOLE MOMENT
-------------
                                X             Y             Z
Electronic contribution:    -15.98100     -24.27099      -1.81934
Nuclear contribution   :     16.65420      24.84723       2.09071
                        -----------------------------------------
Total Dipole Moment    :      0.67320       0.57625       0.27137
                        -----------------------------------------
Magnitude (a.u.)       :      0.92677
Magnitude (Debye)      :      2.35565

Rotational constants in cm-1:     0.015818     0.007978     0.006398
Rotational constants in MHz :   474.216371   239.189260   191.819240

                             ****ORCA TERMINATED NORMALLY****
TOTAL RUN TIME: 0 days 0 hours 0 minutes 28 seconds 113 msec
