                         Program Version 4.2.1 -  RELEASE  -
|  1> ! wB97X-D3 SP def2-SVP
|  2> %pal
|  3> nprocs 16
|  4> end
|  5>
|  6> * xyz 0 1
|  7> S 	 -2.1533 	 -21.9021 	 57.3768
|  8> C 	 -2.48353 	 -22.0768 	 55.7097
|  9> C 	 -2.94822 	 -20.9148 	 55.1505
| 10> C 	 -3.07484 	 -19.8145 	 56.1017
| 11> C 	 -2.66222 	 -20.1916 	 57.3286
| 12> H 	 -3.46779 	 -18.8442 	 55.8939
| 13> C 	 -3.34268 	 -20.6525 	 53.6622
| 14> H 	 -2.84888 	 -21.414 	 53.0766
| 15> H 	 -2.83364 	 -19.7203 	 53.4519
| 16> C 	 -4.7961 	 -20.5524 	 53.3244
| 17> H 	 -4.81307 	 -20.3141 	 52.245
| 18> H 	 -5.43401 	 -21.4524 	 53.562
| 19> C 	 -5.53729 	 -19.4014 	 54.0675
| 20> H 	 -5.08636 	 -18.466 	 53.8351
| 21> H 	 -6.59255 	 -19.3911 	 53.7061
| 22> H 	 -5.59313 	 -19.4987 	 55.1657
| 23> S 	 -3.4865 	 -19.9035 	 59.8908
| 24> C 	 -3.37042 	 -18.4547 	 60.761
| 25> C 	 -2.82739 	 -17.4649 	 59.9124
| 26> C 	 -2.36149 	 -17.9685 	 58.6335
| 27> C 	 -2.61571 	 -19.3257 	 58.4758
| 28> H 	 -2.72165 	 -16.455 	 60.2924
| 29> C 	 -1.66964 	 -17.0742 	 57.6071
| 30> H 	 -1.13819 	 -17.6395 	 56.8343
| 31> H 	 -0.771912 	 -16.8045 	 58.1876
| 32> C 	 -2.50161 	 -15.8468 	 57.1639
| 33> H 	 -1.83852 	 -14.9867 	 56.8523
| 34> H 	 -3.02493 	 -15.4331 	 57.993
| 35> C 	 -3.55139 	 -16.0922 	 56.0877
| 36> H 	 -3.95078 	 -15.2372 	 55.5732
| 37> H 	 -4.39783 	 -16.6489 	 56.3972
| 38> H 	 -3.00528 	 -16.5058 	 55.2467
| 39> H 	 -2.30035 	 -23.0773 	 55.2284
| 40> H 	 -3.7997 	 -18.3149 	 61.7691
| 41> *
| 42>
| 43>                          ****END OF INPUT****

CARTESIAN COORDINATES (ANGSTROEM)
---------------------------------
  S     -2.153300  -21.902100   57.376800
  C     -2.483530  -22.076800   55.709700
  C     -2.948220  -20.914800   55.150500
  C     -3.074840  -19.814500   56.101700
  C     -2.662220  -20.191600   57.328600
  H     -3.467790  -18.844200   55.893900
  C     -3.342680  -20.652500   53.662200
  H     -2.848880  -21.414000   53.076600
  H     -2.833640  -19.720300   53.451900
  C     -4.796100  -20.552400   53.324400
  H     -4.813070  -20.314100   52.245000
  H     -5.434010  -21.452400   53.562000
  C     -5.537290  -19.401400   54.067500
  H     -5.086360  -18.466000   53.835100
  H     -6.592550  -19.391100   53.706100
  H     -5.593130  -19.498700   55.165700
  S     -3.486500  -19.903500   59.890800
  C     -3.370420  -18.454700   60.761000
  C     -2.827390  -17.464900   59.912400
  C     -2.361490  -17.968500   58.633500
  C     -2.615710  -19.325700   58.475800
  H     -2.721650  -16.455000   60.292400
  C     -1.669640  -17.074200   57.607100
  H     -1.138190  -17.639500   56.834300
  H     -0.771912  -16.804500   58.187600
  C     -2.501610  -15.846800   57.163900
  H     -1.838520  -14.986700   56.852300
  H     -3.024930  -15.433100   57.993000
  C     -3.551390  -16.092200   56.087700
  H     -3.950780  -15.237200   55.573200
  H     -4.397830  -16.648900   56.397200
  H     -3.005280  -16.505800   55.246700
  H     -2.300350  -23.077300   55.228400
  H     -3.799700  -18.314900   61.769100

 Total Charge           Charge          ....    0
 Multiplicity           Mult            ....    1
 Number of Electrons    NEL             ....  134
 Basis Dimension        Dim             ....  322

ORBITAL ENERGIES
----------------

  NO   OCC          E(Eh)            E(eV)
   0   2.0000     -88.961296     -2420.7599
   1   2.0000     -88.958960     -2420.6964
   2   2.0000     -10.324149      -280.9344
   3   2.0000     -10.321686      -280.8674
   4   2.0000     -10.319986      -280.8211
   5   2.0000     -10.314370      -280.6683
   6   2.0000     -10.307944      -280.4934
   7   2.0000     -10.300570      -280.2928
   8   2.0000     -10.297799      -280.2173
   9   2.0000     -10.296870      -280.1921
  10   2.0000     -10.293162      -280.0912
  11   2.0000     -10.291267      -280.0396
  12   2.0000     -10.289192      -279.9831
  13   2.0000     -10.288650      -279.9684
  14   2.0000     -10.277181      -279.6563
  15   2.0000     -10.274943      -279.5954
  16   2.0000      -8.076668      -219.7773
  17   2.0000      -8.074934      -219.7301
  18   2.0000      -6.035197      -164.2261
  19   2.0000      -6.033287      -164.1741
  20   2.0000      -6.031215      -164.1177
  21   2.0000      -6.029090      -164.0599
  22   2.0000      -6.027244      -164.0096
  23   2.0000      -6.025932      -163.9739
  24   2.0000      -1.007394       -27.4126
  25   2.0000      -0.984006       -26.7762
  26   2.0000      -0.909770       -24.7561
  27   2.0000      -0.908633       -24.7252
  28   2.0000      -0.873539       -23.7702
  29   2.0000      -0.851192       -23.1621
  30   2.0000      -0.842059       -22.9136
  31   2.0000      -0.811539       -22.0831
  32   2.0000      -0.785847       -21.3840
  33   2.0000      -0.773558       -21.0496
  34   2.0000      -0.710862       -19.3436
  35   2.0000      -0.694652       -18.9024
  36   2.0000      -0.692318       -18.8389
  37   2.0000      -0.659503       -17.9460
  38   2.0000      -0.641111       -17.4455
  39   2.0000      -0.615425       -16.7466
  40   2.0000      -0.598052       -16.2738
  41   2.0000      -0.569600       -15.4996
  42   2.0000      -0.553894       -15.0722
  43   2.0000      -0.546397       -14.8682
  44   2.0000      -0.541273       -14.7288
  45   2.0000      -0.537151       -14.6166
  46   2.0000      -0.524267       -14.2660
  47   2.0000      -0.516799       -14.0628
  48   2.0000      -0.503083       -13.6896
  49   2.0000      -0.494852       -13.4656
  50   2.0000      -0.486326       -13.2336
  51   2.0000      -0.480794       -13.0831
  52   2.0000      -0.471545       -12.8314
  53   2.0000      -0.468180       -12.7398
  54   2.0000      -0.462687       -12.5904
  55   2.0000      -0.444275       -12.0893
  56   2.0000      -0.443112       -12.0577
  57   2.0000      -0.439259       -11.9529
  58   2.0000      -0.437690       -11.9102
  59   2.0000      -0.422078       -11.4853
  60   2.0000      -0.415829       -11.3153
  61   2.0000      -0.408569       -11.1177
  62   2.0000      -0.406846       -11.0709
  63   2.0000      -0.351850        -9.5743
  64   2.0000      -0.327051        -8.8995
  65   2.0000      -0.324528        -8.8309
  66   2.0000      -0.291582        -7.9343
  67   0.0000       0.034398         0.9360
  68   0.0000       0.076683         2.0866
  69   0.0000       0.114444         3.1142
  70   0.0000       0.116732         3.1764
  71   0.0000       0.131004         3.5648

MULLIKEN ATOMIC CHARGES
-----------------------
   0 S :    0.105357
   1 C :   -0.151644
   2 C :   -0.099004
   3 C :    0.040138
   4 C :   -0.135291
   5 H :   -0.031912
   6 C :    0.092201
   7 H :    0.015306
   8 H :    0.022314
   9 C :   -0.066839
  10 H :    0.038365
  11 H :    0.044019
  12 C :   -0.084956
  13 H :    0.018390
  14 H :    0.036811
  15 H :    0.056204
  16 S :    0.096273
  17 C :   -0.101930
  18 C :   -0.054726
  19 C :   -0.061069
  20 C :   -0.130395
  21 H :    0.021139
  22 C :    0.061340
  23 H :    0.028530
  24 H :    0.035973
  25 C :   -0.065830
  26 H :    0.034205
  27 H :    0.018582
  28 C :   -0.022279
  29 H :    0.021652
  30 H :    0.048746
  31 H :    0.021464
  32 H :    0.071116
  33 H :    0.077750
Sum of atomic charges:   -0.0000000

LOEWDIN ATOMIC CHARGES
----------------------
   0 S :    0.395795
   1 C :   -0.215090
   2 C :   -0.063846
   3 C :   -0.052680
   4 C :   -0.185956
   5 H :    0.027268
   6 C :   -0.032632
   7 H :    0.026984
   8 H :    0.030514
   9 C :   -0.042786
  10 H :    0.030323
  11 H :    0.032845
  12 C :   -0.070818
  13 H :    0.013722
  14 H :    0.030927
  15 H :    0.028812
  16 S :    0.424878
  17 C :   -0.206376
  18 C :   -0.079955
  19 C :   -0.056431
  20 C :   -0.202112
  21 H :    0.027830
  22 C :   -0.038563
  23 H :    0.033402
  24 H :    0.042629
  25 C :   -0.038561
  26 H :    0.032795
  27 H :    0.019186
  28 C :   -0.068375
  29 H :    0.028905
  30 H :    0.022950
  31 H :    0.024886
  32 H :    0.040252
  33 H :    0.039276

  Mayer bond orders larger than 0.100000
B(  0-S ,  1-C ) :   1.1310 B(  0-S ,  4-C ) :   1.1343 B(  1-C ,  2-C ) :   1.6462
B(  1-C , 32-H ) :   0.9620 B(  2-C ,  3-C ) :   1.2014 B(  2-C ,  6-C ) :   1.0030
B(  3-C ,  4-C ) :   1.6056 B(  3-C ,  5-H ) :   0.9921 B(  4-C , 20-C ) :   1.0313
B(  6-C ,  7-H ) :   0.9397 B(  6-C ,  8-H ) :   0.9385 B(  6-C ,  9-C ) :   1.0824
B(  9-C , 10-H ) :   0.9516 B(  9-C , 11-H ) :   0.9545 B(  9-C , 12-C ) :   1.0839
B( 12-C , 13-H ) :   0.9733 B( 12-C , 14-H ) :   0.9714 B( 12-C , 15-H ) :   0.9677
B( 16-S , 17-C ) :   1.1873 B( 16-S , 20-C ) :   1.1493 B( 17-C , 18-C ) :   1.5617
B( 17-C , 33-H ) :   0.9675 B( 18-C , 19-C ) :   1.2539 B( 18-C , 21-H ) :   0.9919
B( 19-C , 20-C ) :   1.5779 B( 19-C , 22-C ) :   1.0258 B( 22-C , 23-H ) :   0.9455
B( 22-C , 24-H ) :   0.9299 B( 22-C , 25-C ) :   1.0544 B( 25-C , 26-H ) :   0.9542
B( 25-C , 27-H ) :   0.9584 B( 25-C , 28-C ) :   1.0884 B( 28-C , 29-H ) :   0.9643
B( 28-C , 30-H ) :   0.9650 B( 28-C , 31-H ) :   0.9622

Dispersion correction           -0.015807654
FINAL SINGLE POINT ENERGY     -1339.881667987158

DIPOLE MOMENT
-------------
                                X             Y             Z
Electronic contribution:      7.62762     -17.81259      21.43717
Nuclear contribution   :     -7.75228      18.44114     -21.90367
                        -----------------------------------------
Total Dipole Moment    :     -0.12466       0.62855      -0.46650
                        -----------------------------------------
Magnitude (a.u.)       :      0.79261
Magnitude (Debye)      :      2.01465

Rotational constants in cm-1:     0.017470     0.010634     0.007765
Rotational constants in MHz :   523.732177   318.797254   232.776196

                             ****ORCA TERMINATED NORMALLY****
TOTAL RUN TIME: 0 days 0 hours 0 minutes 37 seconds 340 msec
