                         Program Version 4.2.1 -  RELEASE  -
|  1> ! wB97X-D3 SP def2-SVP
|  2> %pal
|  3> nprocs 16
|  4> end
|  5>
|  6> * xyz 0 1
|  7> S 	 -41.8764 	 24.9541 	 79.2899
|  8> C 	 -42.4573 	 23.6099 	 80.1746
|  9> C 	 -42.1363 	 22.3993 	 79.5581
| 10> C 	 -41.108 	 22.508 	 78.5748
| 11> C 	 -40.8546 	 23.8613 	 78.3191
| 12> H 	 -40.5722 	 21.6514 	 78.1451
| 13> C 	 -42.442 	 21.0336 	 80.097
| 14> H 	 -41.5607 	 20.6368 	 80.662
| 15> H 	 -42.4181 	 20.4083 	 79.2546
| 16> C 	 -43.7288 	 20.8548 	 80.8399
| 17> H 	 -43.7618 	 19.8591 	 81.2965
| 18> H 	 -43.5949 	 21.425 	 81.7547
| 19> C 	 -45.0453 	 21.2182 	 80.2363
| 20> H 	 -45.1674 	 20.9057 	 79.1767
| 21> H 	 -45.8873 	 20.7785 	 80.7175
| 22> H 	 -45.239 	 22.2805 	 80.2758
| 23> S 	 -39.8601 	 23.6758 	 75.6996
| 24> C 	 -38.2405 	 24.3686 	 75.449
| 25> C 	 -37.7836 	 25.1673 	 76.4802
| 26> C 	 -38.6673 	 25.1197 	 77.5862
| 27> C 	 -39.8292 	 24.3339 	 77.3994
| 28> H 	 -36.8587 	 25.659 	 76.4222
| 29> C 	 -38.2584 	 25.7998 	 78.9093
| 30> H 	 -37.1664 	 25.8438 	 78.8625
| 31> H 	 -38.5767 	 25.1683 	 79.6521
| 32> C 	 -38.806 	 27.1854 	 79.1343
| 33> H 	 -39.8876 	 27.2737 	 78.9043
| 34> H 	 -38.3691 	 27.8542 	 78.4333
| 35> C 	 -38.4932 	 27.8302 	 80.4621
| 36> H 	 -38.7358 	 27.2748 	 81.3566
| 37> H 	 -38.9558 	 28.7912 	 80.5467
| 38> H 	 -37.369 	 27.8649 	 80.4848
| 39> H 	 -43.12 	 23.7621 	 80.9909
| 40> H 	 -37.7617 	 24.301 	 74.4668
| 41> *
| 42>
| 43>                          ****END OF INPUT****

CARTESIAN COORDINATES (ANGSTROEM)
---------------------------------
  S    -41.876400   24.954100   79.289900
  C    -42.457300   23.609900   80.174600
  C    -42.136300   22.399300   79.558100
  C    -41.108000   22.508000   78.574800
  C    -40.854600   23.861300   78.319100
  H    -40.572200   21.651400   78.145100
  C    -42.442000   21.033600   80.097000
  H    -41.560700   20.636800   80.662000
  H    -42.418100   20.408300   79.254600
  C    -43.728800   20.854800   80.839900
  H    -43.761800   19.859100   81.296500
  H    -43.594900   21.425000   81.754700
  C    -45.045300   21.218200   80.236300
  H    -45.167400   20.905700   79.176700
  H    -45.887300   20.778500   80.717500
  H    -45.239000   22.280500   80.275800
  S    -39.860100   23.675800   75.699600
  C    -38.240500   24.368600   75.449000
  C    -37.783600   25.167300   76.480200
  C    -38.667300   25.119700   77.586200
  C    -39.829200   24.333900   77.399400
  H    -36.858700   25.659000   76.422200
  C    -38.258400   25.799800   78.909300
  H    -37.166400   25.843800   78.862500
  H    -38.576700   25.168300   79.652100
  C    -38.806000   27.185400   79.134300
  H    -39.887600   27.273700   78.904300
  H    -38.369100   27.854200   78.433300
  C    -38.493200   27.830200   80.462100
  H    -38.735800   27.274800   81.356600
  H    -38.955800   28.791200   80.546700
  H    -37.369000   27.864900   80.484800
  H    -43.120000   23.762100   80.990900
  H    -37.761700   24.301000   74.466800

 Total Charge           Charge          ....    0
 Multiplicity           Mult            ....    1
 Number of Electrons    NEL             ....  134
 Basis Dimension        Dim             ....  322

ORBITAL ENERGIES
----------------

  NO   OCC          E(Eh)            E(eV)
   0   2.0000     -88.968800     -2420.9641
   1   2.0000     -88.965522     -2420.8749
   2   2.0000     -10.332220      -281.1540
   3   2.0000     -10.329901      -281.0909
   4   2.0000     -10.320679      -280.8400
   5   2.0000     -10.310278      -280.5569
   6   2.0000     -10.305650      -280.4310
   7   2.0000     -10.298729      -280.2427
   8   2.0000     -10.297812      -280.2177
   9   2.0000     -10.291318      -280.0410
  10   2.0000     -10.285125      -279.8725
  11   2.0000     -10.282876      -279.8113
  12   2.0000     -10.280760      -279.7537
  13   2.0000     -10.276316      -279.6328
  14   2.0000     -10.273210      -279.5483
  15   2.0000     -10.272733      -279.5353
  16   2.0000      -8.083329      -219.9586
  17   2.0000      -8.078693      -219.8324
  18   2.0000      -6.041685      -164.4026
  19   2.0000      -6.037922      -164.3002
  20   2.0000      -6.037175      -164.2799
  21   2.0000      -6.034209      -164.1992
  22   2.0000      -6.033568      -164.1817
  23   2.0000      -6.029440      -164.0694
  24   2.0000      -1.000209       -27.2171
  25   2.0000      -0.977098       -26.5882
  26   2.0000      -0.916295       -24.9337
  27   2.0000      -0.909419       -24.7465
  28   2.0000      -0.866360       -23.5749
  29   2.0000      -0.856618       -23.3097
  30   2.0000      -0.848578       -23.0910
  31   2.0000      -0.809964       -22.0402
  32   2.0000      -0.786995       -21.4152
  33   2.0000      -0.768951       -20.9242
  34   2.0000      -0.709741       -19.3130
  35   2.0000      -0.700461       -19.0605
  36   2.0000      -0.689572       -18.7642
  37   2.0000      -0.663133       -18.0448
  38   2.0000      -0.645364       -17.5612
  39   2.0000      -0.604526       -16.4500
  40   2.0000      -0.593822       -16.1587
  41   2.0000      -0.574040       -15.6204
  42   2.0000      -0.566364       -15.4116
  43   2.0000      -0.556583       -15.1454
  44   2.0000      -0.536995       -14.6124
  45   2.0000      -0.528278       -14.3752
  46   2.0000      -0.516469       -14.0538
  47   2.0000      -0.515400       -14.0247
  48   2.0000      -0.500790       -13.6272
  49   2.0000      -0.491271       -13.3682
  50   2.0000      -0.487594       -13.2681
  51   2.0000      -0.483721       -13.1627
  52   2.0000      -0.474226       -12.9043
  53   2.0000      -0.469078       -12.7643
  54   2.0000      -0.459893       -12.5143
  55   2.0000      -0.448972       -12.2172
  56   2.0000      -0.443631       -12.0718
  57   2.0000      -0.438745       -11.9389
  58   2.0000      -0.436562       -11.8795
  59   2.0000      -0.423203       -11.5160
  60   2.0000      -0.418124       -11.3777
  61   2.0000      -0.408120       -11.1055
  62   2.0000      -0.403691       -10.9850
  63   2.0000      -0.342732        -9.3262
  64   2.0000      -0.334745        -9.1089
  65   2.0000      -0.323688        -8.8080
  66   2.0000      -0.289042        -7.8652
  67   0.0000       0.024437         0.6650
  68   0.0000       0.068304         1.8586
  69   0.0000       0.098058         2.6683
  70   0.0000       0.111925         3.0456
  71   0.0000       0.123264         3.3542

MULLIKEN ATOMIC CHARGES
-----------------------
   0 S :    0.121593
   1 C :   -0.130703
   2 C :   -0.072869
   3 C :    0.002862
   4 C :   -0.150850
   5 H :    0.036180
   6 C :    0.071538
   7 H :    0.044877
   8 H :    0.000653
   9 C :   -0.065269
  10 H :    0.018655
  11 H :    0.011167
  12 C :   -0.017100
  13 H :    0.030669
  14 H :    0.021500
  15 H :    0.024559
  16 S :    0.093141
  17 C :   -0.102510
  18 C :   -0.005463
  19 C :   -0.043935
  20 C :   -0.165772
  21 H :    0.004946
  22 C :    0.121531
  23 H :    0.014981
  24 H :    0.009325
  25 C :   -0.064030
  26 H :    0.024072
  27 H :    0.008174
  28 C :   -0.031270
  29 H :    0.023987
  30 H :    0.035911
  31 H :    0.021723
  32 H :    0.045065
  33 H :    0.062663
Sum of atomic charges:    0.0000000

LOEWDIN ATOMIC CHARGES
----------------------
   0 S :    0.418282
   1 C :   -0.205404
   2 C :   -0.063152
   3 C :   -0.053147
   4 C :   -0.187616
   5 H :    0.040800
   6 C :   -0.036459
   7 H :    0.044407
   8 H :    0.020337
   9 C :   -0.053676
  10 H :    0.028614
  11 H :    0.022840
  12 C :   -0.064626
  13 H :    0.030086
  14 H :    0.025420
  15 H :    0.023641
  16 S :    0.366074
  17 C :   -0.168180
  18 C :   -0.068771
  19 C :   -0.041326
  20 C :   -0.185660
  21 H :    0.027193
  22 C :   -0.019492
  23 H :    0.030849
  24 H :    0.018169
  25 C :   -0.045774
  26 H :    0.018765
  27 H :    0.019581
  28 C :   -0.062229
  29 H :    0.019719
  30 H :    0.025873
  31 H :    0.028335
  32 H :    0.018324
  33 H :    0.028204

  Mayer bond orders larger than 0.100000
B(  0-S ,  1-C ) :   1.1492 B(  0-S ,  4-C ) :   1.1464 B(  1-C ,  2-C ) :   1.5781
B(  1-C , 32-H ) :   0.9730 B(  2-C ,  3-C ) :   1.2421 B(  2-C ,  6-C ) :   1.0279
B(  3-C ,  4-C ) :   1.5534 B(  3-C ,  5-H ) :   0.9927 B(  4-C , 20-C ) :   1.0622
B(  6-C ,  7-H ) :   0.9353 B(  6-C ,  8-H ) :   0.9263 B(  6-C ,  9-C ) :   1.0917
B(  9-C , 10-H ) :   0.9476 B(  9-C , 11-H ) :   0.9416 B(  9-C , 12-C ) :   1.0846
B( 12-C , 13-H ) :   0.9742 B( 12-C , 14-H ) :   0.9702 B( 12-C , 15-H ) :   0.9702
B( 16-S , 17-C ) :   1.1564 B( 16-S , 20-C ) :   1.1170 B( 17-C , 18-C ) :   1.6060
B( 17-C , 20-C ) :   0.1001 B( 17-C , 33-H ) :   0.9611 B( 18-C , 19-C ) :   1.2467
B( 18-C , 21-H ) :   0.9971 B( 19-C , 20-C ) :   1.5808 B( 19-C , 22-C ) :   1.0358
B( 22-C , 23-H ) :   0.9321 B( 22-C , 24-H ) :   0.9253 B( 22-C , 25-C ) :   1.0755
B( 25-C , 26-H ) :   0.9501 B( 25-C , 27-H ) :   0.9484 B( 25-C , 28-C ) :   1.0874
B( 28-C , 29-H ) :   0.9759 B( 28-C , 30-H ) :   0.9724 B( 28-C , 31-H ) :   0.9726

Dispersion correction           -0.014454857
FINAL SINGLE POINT ENERGY     -1339.871980413981

DIPOLE MOMENT
-------------
                                X             Y             Z
Electronic contribution:      3.13542       0.85282     -16.66446
Nuclear contribution   :     -2.92983      -1.03009      17.00207
                        -----------------------------------------
Total Dipole Moment    :      0.20560      -0.17727       0.33761
                        -----------------------------------------
Magnitude (a.u.)       :      0.43321
Magnitude (Debye)      :      1.10114

Rotational constants in cm-1:     0.020687     0.008116     0.006323
Rotational constants in MHz :   620.182583   243.311890   189.560288

                             ****ORCA TERMINATED NORMALLY****
TOTAL RUN TIME: 0 days 0 hours 0 minutes 29 seconds 617 msec
