                         Program Version 4.2.1 -  RELEASE  -
|  1> ! wB97X-D3 SP def2-SVP
|  2> %pal
|  3> nprocs 16
|  4> end
|  5>
|  6> * xyz 0 1
|  7> S 	 -39.9552 	 35.0744 	 78.4908
|  8> C 	 -38.5695 	 34.9062 	 77.3508
|  9> C 	 -37.5278 	 34.3908 	 78.1086
| 10> C 	 -37.825 	 34.0142 	 79.4602
| 11> C 	 -39.1059 	 34.3065 	 79.8573
| 12> H 	 -37.1428 	 33.7331 	 80.182
| 13> C 	 -36.1676 	 34.1103 	 77.5756
| 14> H 	 -36.2787 	 33.7135 	 76.5592
| 15> H 	 -35.5976 	 33.3337 	 78.1559
| 16> C 	 -35.3147 	 35.4207 	 77.3452
| 17> H 	 -35.819 	 36.1836 	 76.7565
| 18> H 	 -35.164 	 35.8129 	 78.362
| 19> C 	 -33.8462 	 35.2305 	 76.7893
| 20> H 	 -33.4435 	 34.6081 	 77.6204
| 21> H 	 -33.8366 	 34.7935 	 75.798
| 22> H 	 -33.3791 	 36.23 	 76.7146
| 23> S 	 -41.4646 	 33.3877 	 81.0196
| 24> C 	 -41.6638 	 33.3312 	 82.7444
| 25> C 	 -40.4822 	 33.7503 	 83.2938
| 26> C 	 -39.3796 	 33.9469 	 82.4031
| 27> C 	 -39.835 	 34.0723 	 81.0987
| 28> H 	 -40.2942 	 33.8778 	 84.3814
| 29> C 	 -37.9962 	 34.3412 	 82.8799
| 30> H 	 -37.289 	 33.6092 	 82.5822
| 31> H 	 -37.9828 	 34.2134 	 83.8893
| 32> C 	 -37.5977 	 35.8138 	 82.611
| 33> H 	 -38.2463 	 36.4792 	 83.1849
| 34> H 	 -37.8992 	 36.1155 	 81.6344
| 35> C 	 -36.0853 	 35.9664 	 82.8218
| 36> H 	 -35.9046 	 37.0631 	 82.6169
| 37> H 	 -35.4377 	 35.2885 	 82.2605
| 38> H 	 -35.7283 	 35.9688 	 83.8777
| 39> H 	 -38.4839 	 35.2146 	 76.3293
| 40> H 	 -42.5575 	 33.2221 	 83.3598
| 41> *
| 42>
| 43>                          ****END OF INPUT****

CARTESIAN COORDINATES (ANGSTROEM)
---------------------------------
  S    -39.955200   35.074400   78.490800
  C    -38.569500   34.906200   77.350800
  C    -37.527800   34.390800   78.108600
  C    -37.825000   34.014200   79.460200
  C    -39.105900   34.306500   79.857300
  H    -37.142800   33.733100   80.182000
  C    -36.167600   34.110300   77.575600
  H    -36.278700   33.713500   76.559200
  H    -35.597600   33.333700   78.155900
  C    -35.314700   35.420700   77.345200
  H    -35.819000   36.183600   76.756500
  H    -35.164000   35.812900   78.362000
  C    -33.846200   35.230500   76.789300
  H    -33.443500   34.608100   77.620400
  H    -33.836600   34.793500   75.798000
  H    -33.379100   36.230000   76.714600
  S    -41.464600   33.387700   81.019600
  C    -41.663800   33.331200   82.744400
  C    -40.482200   33.750300   83.293800
  C    -39.379600   33.946900   82.403100
  C    -39.835000   34.072300   81.098700
  H    -40.294200   33.877800   84.381400
  C    -37.996200   34.341200   82.879900
  H    -37.289000   33.609200   82.582200
  H    -37.982800   34.213400   83.889300
  C    -37.597700   35.813800   82.611000
  H    -38.246300   36.479200   83.184900
  H    -37.899200   36.115500   81.634400
  C    -36.085300   35.966400   82.821800
  H    -35.904600   37.063100   82.616900
  H    -35.437700   35.288500   82.260500
  H    -35.728300   35.968800   83.877700
  H    -38.483900   35.214600   76.329300
  H    -42.557500   33.222100   83.359800

 Total Charge           Charge          ....    0
 Multiplicity           Mult            ....    1
 Number of Electrons    NEL             ....  134
 Basis Dimension        Dim             ....  322

ORBITAL ENERGIES
----------------

  NO   OCC          E(Eh)            E(eV)
   0   2.0000     -88.965676     -2420.8791
   1   2.0000     -88.964593     -2420.8497
   2   2.0000     -10.335735      -281.2496
   3   2.0000     -10.330580      -281.1094
   4   2.0000     -10.319601      -280.8106
   5   2.0000     -10.317775      -280.7609
   6   2.0000     -10.303122      -280.3622
   7   2.0000     -10.302782      -280.3529
   8   2.0000     -10.295670      -280.1594
   9   2.0000     -10.295045      -280.1424
  10   2.0000     -10.290418      -280.0165
  11   2.0000     -10.290169      -280.0097
  12   2.0000     -10.287534      -279.9380
  13   2.0000     -10.287087      -279.9259
  14   2.0000     -10.285487      -279.8823
  15   2.0000     -10.283015      -279.8151
  16   2.0000      -8.080149      -219.8720
  17   2.0000      -8.077915      -219.8112
  18   2.0000      -6.038852      -164.3255
  19   2.0000      -6.036668      -164.2661
  20   2.0000      -6.034596      -164.2097
  21   2.0000      -6.032491      -164.1524
  22   2.0000      -6.030758      -164.1053
  23   2.0000      -6.028592      -164.0463
  24   2.0000      -1.007007       -27.4021
  25   2.0000      -0.982986       -26.7484
  26   2.0000      -0.912907       -24.8415
  27   2.0000      -0.905788       -24.6477
  28   2.0000      -0.867865       -23.6158
  29   2.0000      -0.850689       -23.1484
  30   2.0000      -0.842097       -22.9146
  31   2.0000      -0.818900       -22.2834
  32   2.0000      -0.782595       -21.2955
  33   2.0000      -0.769115       -20.9287
  34   2.0000      -0.716189       -19.4885
  35   2.0000      -0.702555       -19.1175
  36   2.0000      -0.694165       -18.8892
  37   2.0000      -0.662157       -18.0182
  38   2.0000      -0.644380       -17.5345
  39   2.0000      -0.621025       -16.8990
  40   2.0000      -0.598475       -16.2853
  41   2.0000      -0.572940       -15.5905
  42   2.0000      -0.561692       -15.2844
  43   2.0000      -0.557591       -15.1728
  44   2.0000      -0.531462       -14.4618
  45   2.0000      -0.524267       -14.2660
  46   2.0000      -0.516231       -14.0474
  47   2.0000      -0.514856       -14.0099
  48   2.0000      -0.506742       -13.7892
  49   2.0000      -0.505192       -13.7470
  50   2.0000      -0.494244       -13.4491
  51   2.0000      -0.490537       -13.3482
  52   2.0000      -0.476781       -12.9739
  53   2.0000      -0.466690       -12.6993
  54   2.0000      -0.459554       -12.5051
  55   2.0000      -0.453558       -12.3419
  56   2.0000      -0.437091       -11.8938
  57   2.0000      -0.434634       -11.8270
  58   2.0000      -0.430290       -11.7088
  59   2.0000      -0.417722       -11.3668
  60   2.0000      -0.416867       -11.3435
  61   2.0000      -0.411138       -11.1876
  62   2.0000      -0.407780       -11.0963
  63   2.0000      -0.353292        -9.6136
  64   2.0000      -0.328623        -8.9423
  65   2.0000      -0.327084        -8.9004
  66   2.0000      -0.292102        -7.9485
  67   0.0000       0.017075         0.4646
  68   0.0000       0.074899         2.0381
  69   0.0000       0.111513         3.0344
  70   0.0000       0.116505         3.1703
  71   0.0000       0.126286         3.4364

MULLIKEN ATOMIC CHARGES
-----------------------
   0 S :    0.084121
   1 C :   -0.100579
   2 C :   -0.076517
   3 C :    0.069255
   4 C :   -0.145131
   5 H :   -0.029665
   6 C :    0.034336
   7 H :    0.025551
   8 H :    0.034666
   9 C :   -0.116667
  10 H :    0.030368
  11 H :    0.025458
  12 C :   -0.057002
  13 H :    0.042123
  14 H :    0.039625
  15 H :    0.046492
  16 S :    0.104417
  17 C :   -0.071323
  18 C :   -0.047846
  19 C :   -0.084424
  20 C :   -0.112302
  21 H :    0.025841
  22 C :    0.106948
  23 H :    0.019612
  24 H :   -0.021930
  25 C :   -0.036312
  26 H :    0.023092
  27 H :    0.030633
  28 C :   -0.068917
  29 H :    0.035756
  30 H :    0.042464
  31 H :    0.034009
  32 H :    0.047279
  33 H :    0.066572
Sum of atomic charges:   -0.0000000

LOEWDIN ATOMIC CHARGES
----------------------
   0 S :    0.373665
   1 C :   -0.180371
   2 C :   -0.059238
   3 C :   -0.060559
   4 C :   -0.170024
   5 H :    0.018116
   6 C :   -0.040278
   7 H :    0.030359
   8 H :    0.033545
   9 C :   -0.041507
  10 H :    0.017385
  11 H :    0.021415
  12 C :   -0.068749
  13 H :    0.031749
  14 H :    0.021110
  15 H :    0.031593
  16 S :    0.409505
  17 C :   -0.198759
  18 C :   -0.075689
  19 C :   -0.054861
  20 C :   -0.193772
  21 H :    0.032871
  22 C :   -0.028338
  23 H :    0.026382
  24 H :    0.017254
  25 C :   -0.031789
  26 H :    0.029715
  27 H :    0.021406
  28 C :   -0.073765
  29 H :    0.035765
  30 H :    0.025023
  31 H :    0.028508
  32 H :    0.031252
  33 H :    0.041080

  Mayer bond orders larger than 0.100000
B(  0-S ,  1-C ) :   1.1135 B(  0-S ,  4-C ) :   1.1437 B(  1-C ,  2-C ) :   1.6034
B(  1-C , 32-H ) :   0.9746 B(  2-C ,  3-C ) :   1.2331 B(  2-C ,  6-C ) :   1.0355
B(  3-C ,  4-C ) :   1.5744 B(  3-C ,  5-H ) :   1.0008 B(  4-C , 20-C ) :   1.0436
B(  6-C ,  7-H ) :   0.9384 B(  6-C ,  8-H ) :   0.9492 B(  6-C ,  9-C ) :   1.0433
B(  9-C , 10-H ) :   0.9620 B(  9-C , 11-H ) :   0.9614 B(  9-C , 12-C ) :   1.0683
B( 12-C , 13-H ) :   0.9790 B( 12-C , 14-H ) :   0.9778 B( 12-C , 15-H ) :   0.9753
B( 16-S , 17-C ) :   1.1439 B( 16-S , 20-C ) :   1.1423 B( 17-C , 18-C ) :   1.6030
B( 17-C , 20-C ) :   0.1043 B( 17-C , 33-H ) :   0.9648 B( 18-C , 19-C ) :   1.2676
B( 18-C , 21-H ) :   0.9731 B( 19-C , 20-C ) :   1.5659 B( 19-C , 22-C ) :   1.0548
B( 22-C , 23-H ) :   0.9265 B( 22-C , 24-H ) :   0.9170 B( 22-C , 25-C ) :   1.0502
B( 25-C , 26-H ) :   0.9489 B( 25-C , 27-H ) :   0.9620 B( 25-C , 28-C ) :   1.0697
B( 28-C , 29-H ) :   0.9706 B( 28-C , 30-H ) :   0.9772 B( 28-C , 31-H ) :   0.9752

Dispersion correction           -0.014468466
FINAL SINGLE POINT ENERGY     -1339.856900379343

DIPOLE MOMENT
-------------
                                X             Y             Z
Electronic contribution:    -31.12601      -7.89388      -0.93306
Nuclear contribution   :     31.81560       8.05355       1.27847
                        -----------------------------------------
Total Dipole Moment    :      0.68960       0.15967       0.34541
                        -----------------------------------------
Magnitude (a.u.)       :      0.78762
Magnitude (Debye)      :      2.00197

Rotational constants in cm-1:     0.020499     0.008561     0.006499
Rotational constants in MHz :   614.543192   256.655831   194.829748

                             ****ORCA TERMINATED NORMALLY****
TOTAL RUN TIME: 0 days 0 hours 0 minutes 29 seconds 203 msec
