                         Program Version 4.2.1 -  RELEASE  -
|  1> ! wB97X-D3 SP def2-SVP
|  2> %pal
|  3> nprocs 16
|  4> end
|  5>
|  6> * xyz 0 1
|  7> S 	 -92.285 	 42.1494 	 126.428
|  8> C 	 -91.6991 	 41.2438 	 125.056
|  9> C 	 -92.5876 	 40.2706 	 124.612
| 10> C 	 -93.8851 	 40.4272 	 125.219
| 11> C 	 -93.8919 	 41.3396 	 126.236
| 12> H 	 -94.7274 	 39.8365 	 124.929
| 13> C 	 -92.2306 	 39.2044 	 123.513
| 14> H 	 -91.435 	 39.5331 	 122.902
| 15> H 	 -93.043 	 39.3578 	 122.831
| 16> C 	 -92.1973 	 37.7342 	 123.914
| 17> H 	 -91.474 	 37.6521 	 124.797
| 18> H 	 -93.2215 	 37.4919 	 124.43
| 19> C 	 -91.8765 	 36.7283 	 122.774
| 20> H 	 -91.8576 	 35.6798 	 123.117
| 21> H 	 -92.5592 	 36.7156 	 121.911
| 22> H 	 -90.8649 	 36.9328 	 122.312
| 23> S 	 -94.7547 	 41.1376 	 128.906
| 24> C 	 -96.4375 	 41.355 	 129.242
| 25> C 	 -97.1487 	 41.6419 	 128.116
| 26> C 	 -96.3557 	 41.6318 	 126.928
| 27> C 	 -94.9527 	 41.5275 	 127.198
| 28> H 	 -98.2003 	 41.7126 	 128.219
| 29> C 	 -96.9456 	 41.7775 	 125.484
| 30> H 	 -96.1929 	 42.0256 	 124.69
| 31> H 	 -97.566 	 42.7147 	 125.438
| 32> C 	 -97.679 	 40.6057 	 124.847
| 33> H 	 -98.3706 	 40.2141 	 125.582
| 34> H 	 -96.9317 	 39.8114 	 124.543
| 35> C 	 -98.4342 	 41.0322 	 123.589
| 36> H 	 -97.8495 	 41.5457 	 122.866
| 37> H 	 -99.1115 	 41.835 	 123.828
| 38> H 	 -98.9038 	 40.2702 	 122.908
| 39> H 	 -90.662 	 41.4189 	 124.626
| 40> H 	 -96.7719 	 41.1059 	 130.269
| 41> *
| 42>
| 43>                          ****END OF INPUT****

CARTESIAN COORDINATES (ANGSTROEM)
---------------------------------
  S    -92.285000   42.149400  126.428000
  C    -91.699100   41.243800  125.056000
  C    -92.587600   40.270600  124.612000
  C    -93.885100   40.427200  125.219000
  C    -93.891900   41.339600  126.236000
  H    -94.727400   39.836500  124.929000
  C    -92.230600   39.204400  123.513000
  H    -91.435000   39.533100  122.902000
  H    -93.043000   39.357800  122.831000
  C    -92.197300   37.734200  123.914000
  H    -91.474000   37.652100  124.797000
  H    -93.221500   37.491900  124.430000
  C    -91.876500   36.728300  122.774000
  H    -91.857600   35.679800  123.117000
  H    -92.559200   36.715600  121.911000
  H    -90.864900   36.932800  122.312000
  S    -94.754700   41.137600  128.906000
  C    -96.437500   41.355000  129.242000
  C    -97.148700   41.641900  128.116000
  C    -96.355700   41.631800  126.928000
  C    -94.952700   41.527500  127.198000
  H    -98.200300   41.712600  128.219000
  C    -96.945600   41.777500  125.484000
  H    -96.192900   42.025600  124.690000
  H    -97.566000   42.714700  125.438000
  C    -97.679000   40.605700  124.847000
  H    -98.370600   40.214100  125.582000
  H    -96.931700   39.811400  124.543000
  C    -98.434200   41.032200  123.589000
  H    -97.849500   41.545700  122.866000
  H    -99.111500   41.835000  123.828000
  H    -98.903800   40.270200  122.908000
  H    -90.662000   41.418900  124.626000
  H    -96.771900   41.105900  130.269000

 Total Charge           Charge          ....    0
 Multiplicity           Mult            ....    1
 Number of Electrons    NEL             ....  134
 Basis Dimension        Dim             ....  322

ORBITAL ENERGIES
----------------

  NO   OCC          E(Eh)            E(eV)
   0   2.0000     -88.967178     -2420.9200
   1   2.0000     -88.964467     -2420.8462
   2   2.0000     -10.332136      -281.1517
   3   2.0000     -10.329778      -281.0876
   4   2.0000     -10.320219      -280.8274
   5   2.0000     -10.318654      -280.7848
   6   2.0000     -10.312957      -280.6298
   7   2.0000     -10.307178      -280.4726
   8   2.0000     -10.305541      -280.4280
   9   2.0000     -10.298864      -280.2463
  10   2.0000     -10.297151      -280.1997
  11   2.0000     -10.293733      -280.1067
  12   2.0000     -10.293145      -280.0907
  13   2.0000     -10.291671      -280.0506
  14   2.0000     -10.291399      -280.0432
  15   2.0000     -10.278067      -279.6804
  16   2.0000      -8.081212      -219.9010
  17   2.0000      -8.079586      -219.8567
  18   2.0000      -6.039738      -164.3496
  19   2.0000      -6.038035      -164.3033
  20   2.0000      -6.036002      -164.2480
  21   2.0000      -6.033957      -164.1923
  22   2.0000      -6.031813      -164.1340
  23   2.0000      -6.030459      -164.0971
  24   2.0000      -1.002952       -27.2917
  25   2.0000      -0.980889       -26.6914
  26   2.0000      -0.908049       -24.7093
  27   2.0000      -0.904250       -24.6059
  28   2.0000      -0.870382       -23.6843
  29   2.0000      -0.850222       -23.1357
  30   2.0000      -0.844330       -22.9754
  31   2.0000      -0.813392       -22.1335
  32   2.0000      -0.783934       -21.3319
  33   2.0000      -0.769596       -20.9418
  34   2.0000      -0.706758       -19.2319
  35   2.0000      -0.697410       -18.9775
  36   2.0000      -0.691689       -18.8218
  37   2.0000      -0.658199       -17.9105
  38   2.0000      -0.636940       -17.3320
  39   2.0000      -0.625720       -17.0267
  40   2.0000      -0.601042       -16.3552
  41   2.0000      -0.565606       -15.3909
  42   2.0000      -0.561110       -15.2686
  43   2.0000      -0.549784       -14.9604
  44   2.0000      -0.522039       -14.2054
  45   2.0000      -0.520920       -14.1750
  46   2.0000      -0.516700       -14.0601
  47   2.0000      -0.513420       -13.9709
  48   2.0000      -0.505101       -13.7445
  49   2.0000      -0.498485       -13.5645
  50   2.0000      -0.490140       -13.3374
  51   2.0000      -0.476678       -12.9711
  52   2.0000      -0.466688       -12.6992
  53   2.0000      -0.463364       -12.6088
  54   2.0000      -0.459350       -12.4996
  55   2.0000      -0.451617       -12.2891
  56   2.0000      -0.445647       -12.1267
  57   2.0000      -0.438621       -11.9355
  58   2.0000      -0.435152       -11.8411
  59   2.0000      -0.425905       -11.5895
  60   2.0000      -0.424861       -11.5610
  61   2.0000      -0.408634       -11.1195
  62   2.0000      -0.407396       -11.0858
  63   2.0000      -0.352718        -9.5979
  64   2.0000      -0.331912        -9.0318
  65   2.0000      -0.329161        -8.9569
  66   2.0000      -0.288885        -7.8609
  67   0.0000       0.029901         0.8137
  68   0.0000       0.063537         1.7289
  69   0.0000       0.113102         3.0777
  70   0.0000       0.120714         3.2848
  71   0.0000       0.121540         3.3073

MULLIKEN ATOMIC CHARGES
-----------------------
   0 S :    0.105383
   1 C :   -0.146994
   2 C :   -0.100475
   3 C :    0.054278
   4 C :   -0.153116
   5 H :   -0.009041
   6 C :    0.100955
   7 H :    0.003300
   8 H :    0.011407
   9 C :   -0.104733
  10 H :    0.046594
  11 H :    0.041099
  12 C :   -0.064708
  13 H :    0.044872
  14 H :    0.034948
  15 H :    0.038286
  16 S :    0.101538
  17 C :   -0.119637
  18 C :    0.003083
  19 C :   -0.014863
  20 C :   -0.120496
  21 H :    0.009656
  22 C :   -0.031830
  23 H :    0.033070
  24 H :    0.036398
  25 C :   -0.041170
  26 H :    0.030124
  27 H :    0.041538
  28 C :   -0.048608
  29 H :    0.005277
  30 H :    0.018447
  31 H :    0.045758
  32 H :    0.073647
  33 H :    0.076015
Sum of atomic charges:   -0.0000000

LOEWDIN ATOMIC CHARGES
----------------------
   0 S :    0.380099
   1 C :   -0.204049
   2 C :   -0.060486
   3 C :   -0.048312
   4 C :   -0.174364
   5 H :    0.027659
   6 C :   -0.034212
   7 H :    0.022286
   8 H :    0.027760
   9 C :   -0.052439
  10 H :    0.032686
  11 H :    0.033424
  12 C :   -0.076211
  13 H :    0.032055
  14 H :    0.026108
  15 H :    0.031564
  16 S :    0.410864
  17 C :   -0.190453
  18 C :   -0.072462
  19 C :   -0.050175
  20 C :   -0.201372
  21 H :    0.029143
  22 C :   -0.045680
  23 H :    0.034824
  24 H :    0.033930
  25 C :   -0.040473
  26 H :    0.021162
  27 H :    0.027155
  28 C :   -0.075825
  29 H :    0.019581
  30 H :    0.023988
  31 H :    0.035487
  32 H :    0.040504
  33 H :    0.036234

  Mayer bond orders larger than 0.100000
B(  0-S ,  1-C ) :   1.1352 B(  0-S ,  4-C ) :   1.1250 B(  1-C ,  2-C ) :   1.6340
B(  1-C , 32-H ) :   0.9574 B(  2-C ,  3-C ) :   1.2335 B(  2-C ,  6-C ) :   1.0092
B(  3-C ,  4-C ) :   1.5843 B(  3-C ,  5-H ) :   0.9928 B(  4-C , 20-C ) :   1.0572
B(  6-C ,  7-H ) :   0.9445 B(  6-C ,  8-H ) :   0.9343 B(  6-C ,  9-C ) :   1.0491
B(  9-C , 10-H ) :   0.9570 B(  9-C , 11-H ) :   0.9537 B(  9-C , 12-C ) :   1.0686
B( 12-C , 13-H ) :   0.9757 B( 12-C , 14-H ) :   0.9765 B( 12-C , 15-H ) :   0.9737
B( 16-S , 17-C ) :   1.1731 B( 16-S , 20-C ) :   1.1506 B( 17-C , 18-C ) :   1.5781
B( 17-C , 33-H ) :   0.9640 B( 18-C , 19-C ) :   1.2523 B( 18-C , 21-H ) :   1.0033
B( 19-C , 20-C ) :   1.5622 B( 19-C , 22-C ) :   1.0257 B( 22-C , 23-H ) :   0.9397
B( 22-C , 24-H ) :   0.9486 B( 22-C , 25-C ) :   1.0529 B( 25-C , 26-H ) :   0.9561
B( 25-C , 27-H ) :   0.9487 B( 25-C , 28-C ) :   1.0742 B( 28-C , 29-H ) :   0.9694
B( 28-C , 30-H ) :   0.9710 B( 28-C , 31-H ) :   0.9733

Dispersion correction           -0.013922410
FINAL SINGLE POINT ENERGY     -1339.869564847412

DIPOLE MOMENT
-------------
                                X             Y             Z
Electronic contribution:      8.90055      15.61089      25.08110
Nuclear contribution   :     -9.20931     -16.04903     -25.60978
                        -----------------------------------------
Total Dipole Moment    :     -0.30876      -0.43815      -0.52867
                        -----------------------------------------
Magnitude (a.u.)       :      0.75286
Magnitude (Debye)      :      1.91361

Rotational constants in cm-1:     0.015711     0.008702     0.006698
Rotational constants in MHz :   470.992538   260.892889   200.786709

                             ****ORCA TERMINATED NORMALLY****
TOTAL RUN TIME: 0 days 0 hours 0 minutes 33 seconds 162 msec
