                         Program Version 4.2.1 -  RELEASE  -
|  1> ! wB97X-D3 SP def2-SVP
|  2> %pal
|  3> nprocs 16
|  4> end
|  5>
|  6> * xyz 0 1
|  7> S 	 34.2667 	 9.85738 	 86.7624
|  8> C 	 33.8954 	 9.84302 	 85.0438
|  9> C 	 34.8175 	 9.07127 	 84.3282
| 10> C 	 35.9845 	 8.74043 	 85.1626
| 11> C 	 35.8115 	 9.18413 	 86.4771
| 12> H 	 36.8182 	 8.18418 	 84.9266
| 13> C 	 34.8802 	 8.91205 	 82.7917
| 14> H 	 33.8016 	 8.91349 	 82.5281
| 15> H 	 35.1147 	 7.87861 	 82.5982
| 16> C 	 35.7743 	 9.94555 	 82.1014
| 17> H 	 36.8298 	 9.78567 	 82.3522
| 18> H 	 35.7286 	 9.63708 	 81.0334
| 19> C 	 35.4577 	 11.4507 	 82.4014
| 20> H 	 36.2633 	 12.0708 	 82.0173
| 21> H 	 34.5777 	 11.7223 	 81.8977
| 22> H 	 35.3234 	 11.5608 	 83.48
| 23> S 	 35.932 	 8.27001 	 89.0891
| 24> C 	 37.5668 	 8.04461 	 89.8169
| 25> C 	 38.5171 	 8.6828 	 89.0279
| 26> C 	 38.0793 	 9.08109 	 87.7693
| 27> C 	 36.7104 	 8.93329 	 87.6039
| 28> H 	 39.5932 	 8.76457 	 89.3446
| 29> C 	 39.0323 	 9.58525 	 86.6988
| 30> H 	 38.5582 	 9.2172 	 85.7362
| 31> H 	 39.9969 	 9.03482 	 86.8284
| 32> C 	 39.0945 	 11.1428 	 86.6341
| 33> H 	 39.3613 	 11.4941 	 87.6064
| 34> H 	 38.0494 	 11.4754 	 86.3564
| 35> C 	 40.0601 	 11.6486 	 85.5253
| 36> H 	 40.9992 	 11.1381 	 85.7466
| 37> H 	 40.2451 	 12.7187 	 85.5735
| 38> H 	 39.7131 	 11.3725 	 84.5459
| 39> H 	 33.0075 	 10.3495 	 84.6329
| 40> H 	 37.7677 	 7.74883 	 90.8385
| 41> *
| 42>
| 43>                          ****END OF INPUT****

CARTESIAN COORDINATES (ANGSTROEM)
---------------------------------
  S     34.266700    9.857380   86.762400
  C     33.895400    9.843020   85.043800
  C     34.817500    9.071270   84.328200
  C     35.984500    8.740430   85.162600
  C     35.811500    9.184130   86.477100
  H     36.818200    8.184180   84.926600
  C     34.880200    8.912050   82.791700
  H     33.801600    8.913490   82.528100
  H     35.114700    7.878610   82.598200
  C     35.774300    9.945550   82.101400
  H     36.829800    9.785670   82.352200
  H     35.728600    9.637080   81.033400
  C     35.457700   11.450700   82.401400
  H     36.263300   12.070800   82.017300
  H     34.577700   11.722300   81.897700
  H     35.323400   11.560800   83.480000
  S     35.932000    8.270010   89.089100
  C     37.566800    8.044610   89.816900
  C     38.517100    8.682800   89.027900
  C     38.079300    9.081090   87.769300
  C     36.710400    8.933290   87.603900
  H     39.593200    8.764570   89.344600
  C     39.032300    9.585250   86.698800
  H     38.558200    9.217200   85.736200
  H     39.996900    9.034820   86.828400
  C     39.094500   11.142800   86.634100
  H     39.361300   11.494100   87.606400
  H     38.049400   11.475400   86.356400
  C     40.060100   11.648600   85.525300
  H     40.999200   11.138100   85.746600
  H     40.245100   12.718700   85.573500
  H     39.713100   11.372500   84.545900
  H     33.007500   10.349500   84.632900
  H     37.767700    7.748830   90.838500

 Total Charge           Charge          ....    0
 Multiplicity           Mult            ....    1
 Number of Electrons    NEL             ....  134
 Basis Dimension        Dim             ....  322

ORBITAL ENERGIES
----------------

  NO   OCC          E(Eh)            E(eV)
   0   2.0000     -88.967876     -2420.9390
   1   2.0000     -88.966559     -2420.9032
   2   2.0000     -10.330047      -281.0949
   3   2.0000     -10.329618      -281.0832
   4   2.0000     -10.321150      -280.8528
   5   2.0000     -10.319411      -280.8055
   6   2.0000     -10.309022      -280.5227
   7   2.0000     -10.299431      -280.2618
   8   2.0000     -10.299254      -280.2570
   9   2.0000     -10.296570      -280.1839
  10   2.0000     -10.296216      -280.1743
  11   2.0000     -10.294050      -280.1153
  12   2.0000     -10.293615      -280.1035
  13   2.0000     -10.290471      -280.0179
  14   2.0000     -10.277347      -279.6608
  15   2.0000     -10.275494      -279.6104
  16   2.0000      -8.083283      -219.9573
  17   2.0000      -8.079641      -219.8582
  18   2.0000      -6.041773      -164.4050
  19   2.0000      -6.038271      -164.3097
  20   2.0000      -6.037746      -164.2954
  21   2.0000      -6.034549      -164.2084
  22   2.0000      -6.033978      -164.1929
  23   2.0000      -6.030194      -164.0899
  24   2.0000      -1.004974       -27.3467
  25   2.0000      -0.978952       -26.6386
  26   2.0000      -0.909180       -24.7400
  27   2.0000      -0.902105       -24.5475
  28   2.0000      -0.864169       -23.5152
  29   2.0000      -0.850436       -23.1415
  30   2.0000      -0.842249       -22.9188
  31   2.0000      -0.810179       -22.0461
  32   2.0000      -0.784995       -21.3608
  33   2.0000      -0.770596       -20.9690
  34   2.0000      -0.708470       -19.2785
  35   2.0000      -0.698500       -19.0071
  36   2.0000      -0.690777       -18.7970
  37   2.0000      -0.662039       -18.0150
  38   2.0000      -0.644584       -17.5400
  39   2.0000      -0.614295       -16.7158
  40   2.0000      -0.588303       -16.0085
  41   2.0000      -0.564520       -15.3614
  42   2.0000      -0.563115       -15.3231
  43   2.0000      -0.547030       -14.8855
  44   2.0000      -0.539622       -14.6839
  45   2.0000      -0.523617       -14.2483
  46   2.0000      -0.518049       -14.0968
  47   2.0000      -0.512599       -13.9485
  48   2.0000      -0.496709       -13.5161
  49   2.0000      -0.495709       -13.4889
  50   2.0000      -0.491160       -13.3651
  51   2.0000      -0.484951       -13.1962
  52   2.0000      -0.465082       -12.6555
  53   2.0000      -0.461548       -12.5594
  54   2.0000      -0.460272       -12.5246
  55   2.0000      -0.453387       -12.3373
  56   2.0000      -0.445941       -12.1347
  57   2.0000      -0.443033       -12.0556
  58   2.0000      -0.427972       -11.6457
  59   2.0000      -0.425929       -11.5901
  60   2.0000      -0.421126       -11.4594
  61   2.0000      -0.415353       -11.3023
  62   2.0000      -0.410049       -11.1580
  63   2.0000      -0.348873        -9.4933
  64   2.0000      -0.333938        -9.0869
  65   2.0000      -0.329722        -8.9722
  66   2.0000      -0.286438        -7.7944
  67   0.0000       0.024810         0.6751
  68   0.0000       0.061623         1.6768
  69   0.0000       0.100382         2.7315
  70   0.0000       0.113339         3.0841
  71   0.0000       0.125109         3.4044

MULLIKEN ATOMIC CHARGES
-----------------------
   0 S :    0.111655
   1 C :   -0.137234
   2 C :   -0.107271
   3 C :    0.035581
   4 C :   -0.144763
   5 H :   -0.003540
   6 C :    0.063821
   7 H :    0.022028
   8 H :    0.024955
   9 C :   -0.075220
  10 H :    0.027697
  11 H :    0.035947
  12 C :   -0.031263
  13 H :    0.037264
  14 H :    0.020565
  15 H :    0.055631
  16 S :    0.084941
  17 C :   -0.091066
  18 C :   -0.057436
  19 C :   -0.037683
  20 C :   -0.145917
  21 H :    0.035046
  22 C :    0.035320
  23 H :    0.014374
  24 H :    0.034376
  25 C :   -0.073059
  26 H :    0.024755
  27 H :    0.046200
  28 C :   -0.018170
  29 H :    0.021271
  30 H :    0.040055
  31 H :    0.029053
  32 H :    0.061729
  33 H :    0.060359
Sum of atomic charges:   -0.0000000

LOEWDIN ATOMIC CHARGES
----------------------
   0 S :    0.417697
   1 C :   -0.205076
   2 C :   -0.055631
   3 C :   -0.059371
   4 C :   -0.200534
   5 H :    0.016113
   6 C :   -0.037576
   7 H :    0.031731
   8 H :    0.030925
   9 C :   -0.041272
  10 H :    0.023420
  11 H :    0.028836
  12 C :   -0.057289
  13 H :    0.029032
  14 H :    0.017057
  15 H :    0.031706
  16 S :    0.360575
  17 C :   -0.173827
  18 C :   -0.073337
  19 C :   -0.066844
  20 C :   -0.175191
  21 H :    0.039850
  22 C :   -0.035805
  23 H :    0.033499
  24 H :    0.031190
  25 C :   -0.033247
  26 H :    0.017404
  27 H :    0.033305
  28 C :   -0.061990
  29 H :    0.023863
  30 H :    0.026975
  31 H :    0.022045
  32 H :    0.032211
  33 H :    0.029555

  Mayer bond orders larger than 0.100000
B(  0-S ,  1-C ) :   1.1303 B(  0-S ,  4-C ) :   1.1595 B(  1-C ,  2-C ) :   1.6088
B(  1-C , 32-H ) :   0.9691 B(  2-C ,  3-C ) :   1.2030 B(  2-C ,  6-C ) :   1.0273
B(  3-C ,  4-C ) :   1.5714 B(  3-C ,  5-H ) :   0.9992 B(  4-C , 20-C ) :   1.0371
B(  6-C ,  7-H ) :   0.9433 B(  6-C ,  8-H ) :   0.9372 B(  6-C ,  9-C ) :   1.0562
B(  9-C , 10-H ) :   0.9577 B(  9-C , 11-H ) :   0.9560 B(  9-C , 12-C ) :   1.0643
B( 12-C , 13-H ) :   0.9747 B( 12-C , 14-H ) :   0.9778 B( 12-C , 15-H ) :   0.9725
B( 16-S , 17-C ) :   1.1338 B( 16-S , 20-C ) :   1.1268 B( 17-C , 18-C ) :   1.6134
B( 17-C , 20-C ) :   0.1140 B( 17-C , 33-H ) :   0.9658 B( 18-C , 19-C ) :   1.2620
B( 18-C , 21-H ) :   0.9744 B( 19-C , 20-C ) :   1.6041 B( 19-C , 22-C ) :   1.0319
B( 22-C , 23-H ) :   0.9320 B( 22-C , 24-H ) :   0.9362 B( 22-C , 25-C ) :   1.0542
B( 25-C , 26-H ) :   0.9604 B( 25-C , 27-H ) :   0.9559 B( 25-C , 28-C ) :   1.0762
B( 28-C , 29-H ) :   0.9743 B( 28-C , 30-H ) :   0.9759 B( 28-C , 31-H ) :   0.9761

Dispersion correction           -0.015009905
FINAL SINGLE POINT ENERGY     -1339.876965874914

DIPOLE MOMENT
-------------
                                X             Y             Z
Electronic contribution:    -14.72618     -11.25619      23.16201
Nuclear contribution   :     15.17571      11.38702     -23.66830
                        -----------------------------------------
Total Dipole Moment    :      0.44953       0.13082      -0.50629
                        -----------------------------------------
Magnitude (a.u.)       :      0.68958
Magnitude (Debye)      :      1.75276

Rotational constants in cm-1:     0.018107     0.009940     0.007189
Rotational constants in MHz :   542.821652   298.006402   215.525882

                             ****ORCA TERMINATED NORMALLY****
TOTAL RUN TIME: 0 days 0 hours 0 minutes 31 seconds 830 msec
