                         Program Version 4.2.1 -  RELEASE  -
|  1> ! wB97X-D3 SP def2-SVP
|  2> %pal
|  3> nprocs 16
|  4> end
|  5>
|  6> * xyz 0 1
|  7> S 	 54.7827 	 4.76051 	 84.1613
|  8> C 	 56.2212 	 4.28306 	 83.2806
|  9> C 	 55.9938 	 3.04465 	 82.6725
| 10> C 	 54.8346 	 2.41519 	 83.2042
| 11> C 	 54.0166 	 3.22589 	 83.9771
| 12> H 	 54.4827 	 1.44868 	 82.9203
| 13> C 	 56.9282 	 2.27133 	 81.6654
| 14> H 	 56.8722 	 1.21789 	 81.8004
| 15> H 	 57.9958 	 2.483 	 81.7365
| 16> C 	 56.5888 	 2.55724 	 80.1506
| 17> H 	 55.5818 	 2.28151 	 79.9394
| 18> H 	 56.6962 	 3.60012 	 80.0549
| 19> C 	 57.4685 	 1.75644 	 79.1689
| 20> H 	 57.2431 	 0.677549 	 79.1935
| 21> H 	 57.1503 	 2.12957 	 78.1576
| 22> H 	 58.4579 	 1.87898 	 79.2546
| 23> S 	 51.3582 	 3.76697 	 84.2591
| 24> C 	 50.411 	 2.63863 	 85.1846
| 25> C 	 51.1258 	 1.63324 	 85.6888
| 26> C 	 52.5164 	 1.68542 	 85.357
| 27> C 	 52.8156 	 2.86808 	 84.6561
| 28> H 	 50.5893 	 0.912703 	 86.2682
| 29> C 	 53.4711 	 0.514062 	 85.7127
| 30> H 	 54.377 	 0.743804 	 85.0903
| 31> H 	 53.1225 	 -0.515245 	 85.4525
| 32> C 	 53.873 	 0.450825 	 87.2619
| 33> H 	 53.0057 	 -0.0304142 	 87.7539
| 34> H 	 53.9421 	 1.45205 	 87.5794
| 35> C 	 55.0515 	 -0.376768 	 87.703
| 36> H 	 54.8718 	 -1.3988 	 87.3515
| 37> H 	 55.2774 	 -0.447033 	 88.7448
| 38> H 	 55.9341 	 0.0103704 	 87.2248
| 39> H 	 57.0597 	 4.97635 	 82.9443
| 40> H 	 49.3883 	 2.53856 	 85.2112
| 41> *
| 42>
| 43>                          ****END OF INPUT****

CARTESIAN COORDINATES (ANGSTROEM)
---------------------------------
  S     54.782700    4.760510   84.161300
  C     56.221200    4.283060   83.280600
  C     55.993800    3.044650   82.672500
  C     54.834600    2.415190   83.204200
  C     54.016600    3.225890   83.977100
  H     54.482700    1.448680   82.920300
  C     56.928200    2.271330   81.665400
  H     56.872200    1.217890   81.800400
  H     57.995800    2.483000   81.736500
  C     56.588800    2.557240   80.150600
  H     55.581800    2.281510   79.939400
  H     56.696200    3.600120   80.054900
  C     57.468500    1.756440   79.168900
  H     57.243100    0.677549   79.193500
  H     57.150300    2.129570   78.157600
  H     58.457900    1.878980   79.254600
  S     51.358200    3.766970   84.259100
  C     50.411000    2.638630   85.184600
  C     51.125800    1.633240   85.688800
  C     52.516400    1.685420   85.357000
  C     52.815600    2.868080   84.656100
  H     50.589300    0.912703   86.268200
  C     53.471100    0.514062   85.712700
  H     54.377000    0.743804   85.090300
  H     53.122500   -0.515245   85.452500
  C     53.873000    0.450825   87.261900
  H     53.005700   -0.030414   87.753900
  H     53.942100    1.452050   87.579400
  C     55.051500   -0.376768   87.703000
  H     54.871800   -1.398800   87.351500
  H     55.277400   -0.447033   88.744800
  H     55.934100    0.010370   87.224800
  H     57.059700    4.976350   82.944300
  H     49.388300    2.538560   85.211200

 Total Charge           Charge          ....    0
 Multiplicity           Mult            ....    1
 Number of Electrons    NEL             ....  134
 Basis Dimension        Dim             ....  322

ORBITAL ENERGIES
----------------

  NO   OCC          E(Eh)            E(eV)
   0   2.0000     -88.967766     -2420.9360
   1   2.0000     -88.966628     -2420.9050
   2   2.0000     -10.329290      -281.0743
   3   2.0000     -10.325846      -280.9806
   4   2.0000     -10.321680      -280.8672
   5   2.0000     -10.311096      -280.5792
   6   2.0000     -10.308080      -280.4971
   7   2.0000     -10.305969      -280.4397
   8   2.0000     -10.302954      -280.3576
   9   2.0000     -10.294770      -280.1349
  10   2.0000     -10.291154      -280.0365
  11   2.0000     -10.286679      -279.9148
  12   2.0000     -10.282384      -279.7979
  13   2.0000     -10.281846      -279.7833
  14   2.0000     -10.275593      -279.6131
  15   2.0000     -10.272123      -279.5187
  16   2.0000      -8.082711      -219.9418
  17   2.0000      -8.081661      -219.9132
  18   2.0000      -6.041248      -164.3907
  19   2.0000      -6.040183      -164.3617
  20   2.0000      -6.037279      -164.2827
  21   2.0000      -6.036000      -164.2479
  22   2.0000      -6.033331      -164.1753
  23   2.0000      -6.032502      -164.1527
  24   2.0000      -1.011372       -27.5208
  25   2.0000      -0.987122       -26.8610
  26   2.0000      -0.905764       -24.6471
  27   2.0000      -0.899432       -24.4748
  28   2.0000      -0.876971       -23.8636
  29   2.0000      -0.853464       -23.2239
  30   2.0000      -0.846254       -23.0277
  31   2.0000      -0.815911       -22.2021
  32   2.0000      -0.784765       -21.3546
  33   2.0000      -0.772160       -21.0115
  34   2.0000      -0.708741       -19.2858
  35   2.0000      -0.702761       -19.1231
  36   2.0000      -0.693211       -18.8632
  37   2.0000      -0.659525       -17.9466
  38   2.0000      -0.639910       -17.4128
  39   2.0000      -0.622092       -16.9280
  40   2.0000      -0.594511       -16.1775
  41   2.0000      -0.572091       -15.5674
  42   2.0000      -0.567815       -15.4510
  43   2.0000      -0.562865       -15.3163
  44   2.0000      -0.524297       -14.2669
  45   2.0000      -0.519679       -14.1412
  46   2.0000      -0.515541       -14.0286
  47   2.0000      -0.513014       -13.9598
  48   2.0000      -0.504862       -13.7380
  49   2.0000      -0.501605       -13.6494
  50   2.0000      -0.492073       -13.3900
  51   2.0000      -0.486413       -13.2360
  52   2.0000      -0.470737       -12.8094
  53   2.0000      -0.466576       -12.6962
  54   2.0000      -0.463274       -12.6063
  55   2.0000      -0.449182       -12.2229
  56   2.0000      -0.444978       -12.1085
  57   2.0000      -0.435700       -11.8560
  58   2.0000      -0.431996       -11.7552
  59   2.0000      -0.426890       -11.6163
  60   2.0000      -0.422984       -11.5100
  61   2.0000      -0.414770       -11.2865
  62   2.0000      -0.407367       -11.0850
  63   2.0000      -0.351554        -9.5663
  64   2.0000      -0.332076        -9.0362
  65   2.0000      -0.330973        -9.0062
  66   2.0000      -0.293049        -7.9743
  67   0.0000       0.029858         0.8125
  68   0.0000       0.066339         1.8052
  69   0.0000       0.111422         3.0319
  70   0.0000       0.122339         3.3290
  71   0.0000       0.124633         3.3914

MULLIKEN ATOMIC CHARGES
-----------------------
   0 S :    0.114573
   1 C :   -0.145103
   2 C :   -0.075345
   3 C :    0.027522
   4 C :   -0.157025
   5 H :    0.008725
   6 C :    0.047907
   7 H :    0.011569
   8 H :    0.021501
   9 C :   -0.063342
  10 H :    0.023162
  11 H :    0.019932
  12 C :   -0.022863
  13 H :    0.033526
  14 H :    0.035838
  15 H :    0.008965
  16 S :    0.111111
  17 C :   -0.038311
  18 C :   -0.036869
  19 C :   -0.030297
  20 C :   -0.142700
  21 H :    0.010085
  22 C :    0.036939
  23 H :    0.025121
  24 H :    0.039647
  25 C :   -0.078460
  26 H :    0.024679
  27 H :    0.028666
  28 C :   -0.022387
  29 H :    0.020657
  30 H :    0.035859
  31 H :    0.026344
  32 H :    0.078541
  33 H :    0.021833
Sum of atomic charges:   -0.0000000

LOEWDIN ATOMIC CHARGES
----------------------
   0 S :    0.421387
   1 C :   -0.214899
   2 C :   -0.059822
   3 C :   -0.064054
   4 C :   -0.208268
   5 H :    0.025681
   6 C :   -0.027736
   7 H :    0.021016
   8 H :    0.027714
   9 C :   -0.028179
  10 H :    0.019923
  11 H :    0.015902
  12 C :   -0.055868
  13 H :    0.029065
  14 H :    0.036353
  15 H :    0.003208
  16 S :    0.408081
  17 C :   -0.173728
  18 C :   -0.065982
  19 C :   -0.045612
  20 C :   -0.200134
  21 H :    0.030808
  22 C :   -0.034459
  23 H :    0.031372
  24 H :    0.032834
  25 C :   -0.038591
  26 H :    0.023010
  27 H :    0.016808
  28 C :   -0.063248
  29 H :    0.025524
  30 H :    0.026609
  31 H :    0.022852
  32 H :    0.045512
  33 H :    0.016924

  Mayer bond orders larger than 0.100000
B(  0-S ,  1-C ) :   1.1498 B(  0-S ,  4-C ) :   1.1609 B(  1-C ,  2-C ) :   1.5894
B(  1-C ,  4-C ) :   0.1079 B(  1-C , 32-H ) :   0.9579 B(  2-C ,  3-C ) :   1.2695
B(  2-C ,  6-C ) :   1.0164 B(  3-C ,  4-C ) :   1.5565 B(  3-C ,  5-H ) :   0.9909
B(  4-C , 20-C ) :   1.0301 B(  6-C ,  7-H ) :   0.9495 B(  6-C ,  8-H ) :   0.9525
B(  6-C ,  9-C ) :   1.0536 B(  9-C , 10-H ) :   0.9590 B(  9-C , 11-H ) :   0.9609
B(  9-C , 12-C ) :   1.0823 B( 12-C , 13-H ) :   0.9749 B( 12-C , 14-H ) :   0.9732
B( 12-C , 15-H ) :   0.9776 B( 16-S , 17-C ) :   1.1341 B( 16-S , 20-C ) :   1.1440
B( 17-C , 18-C ) :   1.6654 B( 17-C , 33-H ) :   0.9665 B( 18-C , 19-C ) :   1.2105
B( 18-C , 21-H ) :   0.9942 B( 19-C , 20-C ) :   1.6013 B( 19-C , 22-C ) :   1.0407
B( 22-C , 23-H ) :   0.9316 B( 22-C , 24-H ) :   0.9435 B( 22-C , 25-C ) :   1.0451
B( 25-C , 26-H ) :   0.9569 B( 25-C , 27-H ) :   0.9605 B( 25-C , 28-C ) :   1.0918
B( 28-C , 29-H ) :   0.9715 B( 28-C , 30-H ) :   0.9733 B( 28-C , 31-H ) :   0.9746

Dispersion correction           -0.013462347
FINAL SINGLE POINT ENERGY     -1339.859722291691

DIPOLE MOMENT
-------------
                                X             Y             Z
Electronic contribution:    -17.07869      20.49503       5.07134
Nuclear contribution   :     17.21865     -21.14703      -5.29476
                        -----------------------------------------
Total Dipole Moment    :      0.13996      -0.65200      -0.22342
                        -----------------------------------------
Magnitude (a.u.)       :      0.70328
Magnitude (Debye)      :      1.78760

Rotational constants in cm-1:     0.017070     0.007849     0.006569
Rotational constants in MHz :   511.738686   235.303206   196.931932

                             ****ORCA TERMINATED NORMALLY****
TOTAL RUN TIME: 0 days 0 hours 0 minutes 28 seconds 720 msec
