                         Program Version 4.2.1 -  RELEASE  -
|  1> ! wB97X-D3 SP def2-SVP
|  2> %pal
|  3> nprocs 16
|  4> end
|  5>
|  6> * xyz 0 1
|  7> S 	 53.8448 	 24.9755 	 93.4069
|  8> C 	 53.2709 	 24.5279 	 94.952
|  9> C 	 53.7306 	 23.3331 	 95.3591
| 10> C 	 54.4834 	 22.7208 	 94.307
| 11> C 	 54.7471 	 23.5315 	 93.2667
| 12> H 	 54.838 	 21.7656 	 94.4449
| 13> C 	 53.2342 	 22.5288 	 96.5728
| 14> H 	 53.1259 	 21.5253 	 96.282
| 15> H 	 52.2242 	 22.7299 	 96.8119
| 16> C 	 53.9927 	 22.7623 	 97.9738
| 17> H 	 53.3363 	 22.3135 	 98.6964
| 18> H 	 54.9421 	 22.1585 	 98.0736
| 19> C 	 54.2514 	 24.2028 	 98.3929
| 20> H 	 53.3643 	 24.8994 	 98.2467
| 21> H 	 54.493 	 24.1277 	 99.4633
| 22> H 	 55.1167 	 24.5636 	 97.8723
| 23> S 	 56.8002 	 24.592 	 91.6891
| 24> C 	 57.4022 	 23.6791 	 90.377
| 25> C 	 56.6176 	 22.566 	 90.1549
| 26> C 	 55.599 	 22.3293 	 91.1534
| 27> C 	 55.557 	 23.3428 	 92.0821
| 28> H 	 56.7247 	 21.9678 	 89.2906
| 29> C 	 54.6972 	 21.1086 	 91.0331
| 30> H 	 54.2903 	 21.1807 	 90.023
| 31> H 	 53.8011 	 21.3381 	 91.6706
| 32> C 	 55.2224 	 19.6507 	 91.2808
| 33> H 	 54.3429 	 19.0654 	 91.193
| 34> H 	 55.502 	 19.4761 	 92.2739
| 35> C 	 56.2092 	 19.1722 	 90.2367
| 36> H 	 56.2273 	 18.0386 	 90.429
| 37> H 	 57.1593 	 19.5434 	 90.5648
| 38> H 	 56.0461 	 19.5316 	 89.1528
| 39> H 	 52.4248 	 24.9757 	 95.5379
| 40> H 	 58.2363 	 23.9367 	 89.8129
| 41> *
| 42>
| 43>                          ****END OF INPUT****

CARTESIAN COORDINATES (ANGSTROEM)
---------------------------------
  S     53.844800   24.975500   93.406900
  C     53.270900   24.527900   94.952000
  C     53.730600   23.333100   95.359100
  C     54.483400   22.720800   94.307000
  C     54.747100   23.531500   93.266700
  H     54.838000   21.765600   94.444900
  C     53.234200   22.528800   96.572800
  H     53.125900   21.525300   96.282000
  H     52.224200   22.729900   96.811900
  C     53.992700   22.762300   97.973800
  H     53.336300   22.313500   98.696400
  H     54.942100   22.158500   98.073600
  C     54.251400   24.202800   98.392900
  H     53.364300   24.899400   98.246700
  H     54.493000   24.127700   99.463300
  H     55.116700   24.563600   97.872300
  S     56.800200   24.592000   91.689100
  C     57.402200   23.679100   90.377000
  C     56.617600   22.566000   90.154900
  C     55.599000   22.329300   91.153400
  C     55.557000   23.342800   92.082100
  H     56.724700   21.967800   89.290600
  C     54.697200   21.108600   91.033100
  H     54.290300   21.180700   90.023000
  H     53.801100   21.338100   91.670600
  C     55.222400   19.650700   91.280800
  H     54.342900   19.065400   91.193000
  H     55.502000   19.476100   92.273900
  C     56.209200   19.172200   90.236700
  H     56.227300   18.038600   90.429000
  H     57.159300   19.543400   90.564800
  H     56.046100   19.531600   89.152800
  H     52.424800   24.975700   95.537900
  H     58.236300   23.936700   89.812900

 Total Charge           Charge          ....    0
 Multiplicity           Mult            ....    1
 Number of Electrons    NEL             ....  134
 Basis Dimension        Dim             ....  322

ORBITAL ENERGIES
----------------

  NO   OCC          E(Eh)            E(eV)
   0   2.0000     -88.962163     -2420.7835
   1   2.0000     -88.962108     -2420.7820
   2   2.0000     -10.326431      -280.9965
   3   2.0000     -10.320721      -280.8411
   4   2.0000     -10.310889      -280.5736
   5   2.0000     -10.307046      -280.4690
   6   2.0000     -10.302007      -280.3319
   7   2.0000     -10.295068      -280.1431
   8   2.0000     -10.292279      -280.0671
   9   2.0000     -10.291460      -280.0449
  10   2.0000     -10.290069      -280.0070
  11   2.0000     -10.288973      -279.9772
  12   2.0000     -10.287839      -279.9463
  13   2.0000     -10.283013      -279.8150
  14   2.0000     -10.282214      -279.7933
  15   2.0000     -10.280221      -279.7390
  16   2.0000      -8.078684      -219.8322
  17   2.0000      -8.077055      -219.7878
  18   2.0000      -6.037142      -164.2790
  19   2.0000      -6.035582      -164.2365
  20   2.0000      -6.032906      -164.1637
  21   2.0000      -6.031555      -164.1270
  22   2.0000      -6.029395      -164.0682
  23   2.0000      -6.027756      -164.0236
  24   2.0000      -1.015834       -27.6422
  25   2.0000      -0.987261       -26.8647
  26   2.0000      -0.907700       -24.6998
  27   2.0000      -0.904498       -24.6126
  28   2.0000      -0.871303       -23.7094
  29   2.0000      -0.854387       -23.2490
  30   2.0000      -0.846332       -23.0299
  31   2.0000      -0.814818       -22.1723
  32   2.0000      -0.786725       -21.4079
  33   2.0000      -0.775842       -21.1117
  34   2.0000      -0.710644       -19.3376
  35   2.0000      -0.697013       -18.9667
  36   2.0000      -0.692043       -18.8315
  37   2.0000      -0.665281       -18.1032
  38   2.0000      -0.638433       -17.3726
  39   2.0000      -0.626778       -17.0555
  40   2.0000      -0.592150       -16.1132
  41   2.0000      -0.567214       -15.4347
  42   2.0000      -0.553085       -15.0502
  43   2.0000      -0.548963       -14.9381
  44   2.0000      -0.544887       -14.8271
  45   2.0000      -0.543562       -14.7911
  46   2.0000      -0.520480       -14.1630
  47   2.0000      -0.504629       -13.7317
  48   2.0000      -0.500557       -13.6209
  49   2.0000      -0.496200       -13.5023
  50   2.0000      -0.492963       -13.4142
  51   2.0000      -0.479917       -13.0592
  52   2.0000      -0.475432       -12.9372
  53   2.0000      -0.467972       -12.7342
  54   2.0000      -0.455790       -12.4027
  55   2.0000      -0.449169       -12.2225
  56   2.0000      -0.441528       -12.0146
  57   2.0000      -0.436857       -11.8875
  58   2.0000      -0.433274       -11.7900
  59   2.0000      -0.420769       -11.4497
  60   2.0000      -0.418835       -11.3971
  61   2.0000      -0.415941       -11.3183
  62   2.0000      -0.410380       -11.1670
  63   2.0000      -0.349695        -9.5157
  64   2.0000      -0.332013        -9.0345
  65   2.0000      -0.325950        -8.8696
  66   2.0000      -0.293867        -7.9965
  67   0.0000       0.041458         1.1281
  68   0.0000       0.067386         1.8337
  69   0.0000       0.113723         3.0945
  70   0.0000       0.125128         3.4049
  71   0.0000       0.131903         3.5893

MULLIKEN ATOMIC CHARGES
-----------------------
   0 S :    0.120400
   1 C :   -0.122327
   2 C :   -0.094087
   3 C :    0.049061
   4 C :   -0.137631
   5 H :   -0.032535
   6 C :    0.078532
   7 H :    0.007242
   8 H :    0.006199
   9 C :   -0.094493
  10 H :    0.020486
  11 H :    0.037151
  12 C :   -0.052978
  13 H :    0.038896
  14 H :    0.037582
  15 H :    0.045370
  16 S :    0.103042
  17 C :   -0.055009
  18 C :   -0.026763
  19 C :   -0.008714
  20 C :   -0.165017
  21 H :   -0.005399
  22 C :    0.013579
  23 H :    0.028346
  24 H :    0.030115
  25 C :   -0.002463
  26 H :    0.016409
  27 H :    0.014718
  28 C :   -0.085071
  29 H :    0.048230
  30 H :    0.035038
  31 H :    0.056378
  32 H :    0.059006
  33 H :    0.036707
Sum of atomic charges:    0.0000000

LOEWDIN ATOMIC CHARGES
----------------------
   0 S :    0.436516
   1 C :   -0.213595
   2 C :   -0.069814
   3 C :   -0.052356
   4 C :   -0.204194
   5 H :    0.015673
   6 C :   -0.027902
   7 H :    0.024906
   8 H :    0.024796
   9 C :   -0.041025
  10 H :    0.017614
  11 H :    0.027616
  12 C :   -0.068303
  13 H :    0.030282
  14 H :    0.032075
  15 H :    0.025538
  16 S :    0.396302
  17 C :   -0.181634
  18 C :   -0.069932
  19 C :   -0.055205
  20 C :   -0.187648
  21 H :    0.020329
  22 C :   -0.036757
  23 H :    0.033389
  24 H :    0.034900
  25 C :   -0.032986
  26 H :    0.021618
  27 H :    0.018649
  28 C :   -0.074896
  29 H :    0.040098
  30 H :    0.021259
  31 H :    0.035787
  32 H :    0.039933
  33 H :    0.018964

  Mayer bond orders larger than 0.100000
B(  0-S ,  1-C ) :   1.1436 B(  0-S ,  4-C ) :   1.1591 B(  1-C ,  2-C ) :   1.6373
B(  1-C , 32-H ) :   0.9528 B(  2-C ,  3-C ) :   1.2439 B(  2-C ,  6-C ) :   1.0161
B(  3-C ,  4-C ) :   1.5746 B(  3-C ,  5-H ) :   1.0225 B(  4-C , 20-C ) :   1.0164
B(  6-C ,  7-H ) :   0.9460 B(  6-C ,  8-H ) :   0.9447 B(  6-C ,  9-C ) :   1.0525
B(  9-C , 10-H ) :   0.9615 B(  9-C , 11-H ) :   0.9573 B(  9-C , 12-C ) :   1.0830
B( 12-C , 13-H ) :   0.9740 B( 12-C , 14-H ) :   0.9712 B( 12-C , 15-H ) :   0.9729
B( 16-S , 17-C ) :   1.1583 B( 16-S , 20-C ) :   1.1255 B( 17-C , 18-C ) :   1.6013
B( 17-C , 33-H ) :   0.9762 B( 18-C , 19-C ) :   1.2239 B( 18-C , 21-H ) :   0.9935
B( 19-C , 20-C ) :   1.6250 B( 19-C , 22-C ) :   1.0343 B( 22-C , 23-H ) :   0.9375
B( 22-C , 24-H ) :   0.9323 B( 22-C , 25-C ) :   1.0724 B( 25-C , 26-H ) :   0.9524
B( 25-C , 27-H ) :   0.9533 B( 25-C , 28-C ) :   1.0695 B( 28-C , 29-H ) :   0.9696
B( 28-C , 30-H ) :   0.9741 B( 28-C , 31-H ) :   0.9711

Dispersion correction           -0.014178646
FINAL SINGLE POINT ENERGY     -1339.861657399528

DIPOLE MOMENT
-------------
                                X             Y             Z
Electronic contribution:      3.69932      19.94196     -11.45529
Nuclear contribution   :     -3.92495     -20.66673      11.61040
                        -----------------------------------------
Total Dipole Moment    :     -0.22563      -0.72476       0.15511
                        -----------------------------------------
Magnitude (a.u.)       :      0.77476
Magnitude (Debye)      :      1.96928

Rotational constants in cm-1:     0.020946     0.007761     0.006382
Rotational constants in MHz :   627.938385   232.663278   191.315271

                             ****ORCA TERMINATED NORMALLY****
TOTAL RUN TIME: 0 days 0 hours 0 minutes 30 seconds 40 msec
