                         Program Version 4.2.1 -  RELEASE  -
|  1> ! wB97X-D3 SP def2-SVP
|  2> %pal
|  3> nprocs 16
|  4> end
|  5>
|  6> * xyz 0 1
|  7> S 	 -14.7956 	 34.1137 	 36.3137
|  8> C 	 -13.4771 	 34.3391 	 35.1576
|  9> C 	 -13.7383 	 33.7799 	 33.9145
| 10> C 	 -14.9774 	 33.0923 	 33.9381
| 11> C 	 -15.6293 	 33.0932 	 35.1768
| 12> H 	 -15.5369 	 32.6762 	 33.1399
| 13> C 	 -12.9204 	 33.8587 	 32.6612
| 14> H 	 -12.4396 	 34.9079 	 32.6879
| 15> H 	 -13.5832 	 33.9999 	 31.7788
| 16> C 	 -11.931 	 32.8215 	 32.3373
| 17> H 	 -11.2425 	 32.711 	 33.1908
| 18> H 	 -12.3484 	 31.8129 	 32.2551
| 19> C 	 -11.153 	 33.1734 	 31.0864
| 20> H 	 -10.4974 	 32.3352 	 30.8496
| 21> H 	 -11.6855 	 33.4891 	 30.1968
| 22> H 	 -10.4738 	 33.9847 	 31.296
| 23> S 	 -18.0854 	 33.3691 	 36.3061
| 24> C 	 -19.3784 	 32.2818 	 36.019
| 25> C 	 -18.9164 	 31.14 	 35.4045
| 26> C 	 -17.5533 	 31.2152 	 34.9749
| 27> C 	 -16.8871 	 32.3979 	 35.4484
| 28> H 	 -19.6343 	 30.3601 	 35.3483
| 29> C 	 -16.9679 	 30.2428 	 34.065
| 30> H 	 -17.0005 	 29.2638 	 34.4849
| 31> H 	 -15.939 	 30.3188 	 33.7794
| 32> C 	 -17.7227 	 30.0445 	 32.7441
| 33> H 	 -18.7647 	 29.7687 	 32.8717
| 34> H 	 -17.2475 	 29.2865 	 32.1861
| 35> C 	 -17.7295 	 31.1588 	 31.7274
| 36> H 	 -17.9959 	 30.7664 	 30.7193
| 37> H 	 -16.7998 	 31.6393 	 31.473
| 38> H 	 -18.374 	 31.9904 	 32.0166
| 39> H 	 -12.5829 	 34.8932 	 35.467
| 40> H 	 -20.3837 	 32.2603 	 36.2688
| 41> *
| 42>
| 43>                          ****END OF INPUT****

CARTESIAN COORDINATES (ANGSTROEM)
---------------------------------
  S    -14.795600   34.113700   36.313700
  C    -13.477100   34.339100   35.157600
  C    -13.738300   33.779900   33.914500
  C    -14.977400   33.092300   33.938100
  C    -15.629300   33.093200   35.176800
  H    -15.536900   32.676200   33.139900
  C    -12.920400   33.858700   32.661200
  H    -12.439600   34.907900   32.687900
  H    -13.583200   33.999900   31.778800
  C    -11.931000   32.821500   32.337300
  H    -11.242500   32.711000   33.190800
  H    -12.348400   31.812900   32.255100
  C    -11.153000   33.173400   31.086400
  H    -10.497400   32.335200   30.849600
  H    -11.685500   33.489100   30.196800
  H    -10.473800   33.984700   31.296000
  S    -18.085400   33.369100   36.306100
  C    -19.378400   32.281800   36.019000
  C    -18.916400   31.140000   35.404500
  C    -17.553300   31.215200   34.974900
  C    -16.887100   32.397900   35.448400
  H    -19.634300   30.360100   35.348300
  C    -16.967900   30.242800   34.065000
  H    -17.000500   29.263800   34.484900
  H    -15.939000   30.318800   33.779400
  C    -17.722700   30.044500   32.744100
  H    -18.764700   29.768700   32.871700
  H    -17.247500   29.286500   32.186100
  C    -17.729500   31.158800   31.727400
  H    -17.995900   30.766400   30.719300
  H    -16.799800   31.639300   31.473000
  H    -18.374000   31.990400   32.016600
  H    -12.582900   34.893200   35.467000
  H    -20.383700   32.260300   36.268800

 Total Charge           Charge          ....    0
 Multiplicity           Mult            ....    1
 Number of Electrons    NEL             ....  134
 Basis Dimension        Dim             ....  322

ORBITAL ENERGIES
----------------

  NO   OCC          E(Eh)            E(eV)
   0   2.0000     -88.969127     -2420.9730
   1   2.0000     -88.964119     -2420.8368
   2   2.0000     -10.332839      -281.1708
   3   2.0000     -10.331017      -281.1213
   4   2.0000     -10.318333      -280.7761
   5   2.0000     -10.310505      -280.5631
   6   2.0000     -10.310258      -280.5564
   7   2.0000     -10.302795      -280.3533
   8   2.0000     -10.295488      -280.1545
   9   2.0000     -10.290962      -280.0313
  10   2.0000     -10.288472      -279.9636
  11   2.0000     -10.285408      -279.8802
  12   2.0000     -10.282773      -279.8085
  13   2.0000     -10.280153      -279.7372
  14   2.0000     -10.276248      -279.6309
  15   2.0000     -10.273580      -279.5583
  16   2.0000      -8.083642      -219.9671
  17   2.0000      -8.079200      -219.8462
  18   2.0000      -6.042097      -164.4138
  19   2.0000      -6.038246      -164.3090
  20   2.0000      -6.037826      -164.2976
  21   2.0000      -6.034421      -164.2049
  22   2.0000      -6.033403      -164.1773
  23   2.0000      -6.030059      -164.0863
  24   2.0000      -1.006222       -27.3807
  25   2.0000      -0.985103       -26.8060
  26   2.0000      -0.921118       -25.0649
  27   2.0000      -0.917694       -24.9717
  28   2.0000      -0.873285       -23.7633
  29   2.0000      -0.854773       -23.2596
  30   2.0000      -0.849444       -23.1145
  31   2.0000      -0.816717       -22.2240
  32   2.0000      -0.786203       -21.3937
  33   2.0000      -0.776366       -21.1260
  34   2.0000      -0.710732       -19.3400
  35   2.0000      -0.703521       -19.1438
  36   2.0000      -0.696800       -18.9609
  37   2.0000      -0.658281       -17.9127
  38   2.0000      -0.642675       -17.4881
  39   2.0000      -0.624107       -16.9828
  40   2.0000      -0.606230       -16.4964
  41   2.0000      -0.578035       -15.7291
  42   2.0000      -0.561246       -15.2723
  43   2.0000      -0.553273       -15.0553
  44   2.0000      -0.544758       -14.8236
  45   2.0000      -0.530281       -14.4297
  46   2.0000      -0.525263       -14.2931
  47   2.0000      -0.508316       -13.8320
  48   2.0000      -0.507480       -13.8092
  49   2.0000      -0.502367       -13.6701
  50   2.0000      -0.496372       -13.5070
  51   2.0000      -0.474091       -12.9007
  52   2.0000      -0.473278       -12.8786
  53   2.0000      -0.468699       -12.7540
  54   2.0000      -0.461296       -12.5525
  55   2.0000      -0.450811       -12.2672
  56   2.0000      -0.444566       -12.0973
  57   2.0000      -0.438071       -11.9205
  58   2.0000      -0.434884       -11.8338
  59   2.0000      -0.428496       -11.6600
  60   2.0000      -0.421002       -11.4560
  61   2.0000      -0.410042       -11.1578
  62   2.0000      -0.404842       -11.0163
  63   2.0000      -0.353181        -9.6105
  64   2.0000      -0.334295        -9.0966
  65   2.0000      -0.325278        -8.8513
  66   2.0000      -0.283467        -7.7135
  67   0.0000       0.024127         0.6565
  68   0.0000       0.072190         1.9644
  69   0.0000       0.106789         2.9059
  70   0.0000       0.117647         3.2013
  71   0.0000       0.133552         3.6341

MULLIKEN ATOMIC CHARGES
-----------------------
   0 S :    0.114625
   1 C :   -0.146647
   2 C :   -0.019595
   3 C :    0.022480
   4 C :   -0.127171
   5 H :   -0.026504
   6 C :    0.006546
   7 H :    0.027859
   8 H :    0.025684
   9 C :   -0.030065
  10 H :    0.023101
  11 H :    0.024879
  12 C :   -0.038472
  13 H :    0.031913
  14 H :    0.032253
  15 H :    0.020903
  16 S :    0.095037
  17 C :   -0.043624
  18 C :   -0.059955
  19 C :   -0.009960
  20 C :   -0.130483
  21 H :    0.008933
  22 C :    0.098645
  23 H :    0.017886
  24 H :    0.013623
  25 C :   -0.071431
  26 H :    0.027154
  27 H :    0.014137
  28 C :   -0.073525
  29 H :    0.028423
  30 H :    0.021659
  31 H :    0.039774
  32 H :    0.055910
  33 H :    0.026009
Sum of atomic charges:   -0.0000000

LOEWDIN ATOMIC CHARGES
----------------------
   0 S :    0.404329
   1 C :   -0.191206
   2 C :   -0.062764
   3 C :   -0.059980
   4 C :   -0.197282
   5 H :    0.022628
   6 C :   -0.044587
   7 H :    0.038400
   8 H :    0.033667
   9 C :   -0.044835
  10 H :    0.028340
  11 H :    0.024562
  12 C :   -0.063592
  13 H :    0.029132
  14 H :    0.024683
  15 H :    0.024275
  16 S :    0.415634
  17 C :   -0.186229
  18 C :   -0.069657
  19 C :   -0.050762
  20 C :   -0.192093
  21 H :    0.027161
  22 C :   -0.036465
  23 H :    0.035372
  24 H :    0.029977
  25 C :   -0.035104
  26 H :    0.023207
  27 H :    0.020913
  28 C :   -0.073454
  29 H :    0.032127
  30 H :    0.016261
  31 H :    0.025491
  32 H :    0.029621
  33 H :    0.022230

  Mayer bond orders larger than 0.100000
B(  0-S ,  1-C ) :   1.1399 B(  0-S ,  4-C ) :   1.1532 B(  1-C ,  2-C ) :   1.5902
B(  1-C , 32-H ) :   0.9697 B(  2-C ,  3-C ) :   1.2436 B(  2-C ,  6-C ) :   1.0139
B(  3-C ,  4-C ) :   1.5593 B(  3-C ,  5-H ) :   0.9985 B(  4-C , 20-C ) :   1.0462
B(  6-C ,  7-H ) :   0.9392 B(  6-C ,  8-H ) :   0.9376 B(  6-C ,  9-C ) :   1.0788
B(  9-C , 10-H ) :   0.9457 B(  9-C , 11-H ) :   0.9499 B(  9-C , 12-C ) :   1.0811
B( 12-C , 13-H ) :   0.9718 B( 12-C , 14-H ) :   0.9757 B( 12-C , 15-H ) :   0.9728
B( 16-S , 17-C ) :   1.1665 B( 16-S , 20-C ) :   1.1360 B( 17-C , 18-C ) :   1.6163
B( 17-C , 33-H ) :   0.9690 B( 18-C , 19-C ) :   1.2322 B( 18-C , 21-H ) :   0.9948
B( 19-C , 20-C ) :   1.5497 B( 19-C , 22-C ) :   1.0715 B( 22-C , 23-H ) :   0.9123
B( 22-C , 24-H ) :   0.9365 B( 22-C , 25-C ) :   1.0829 B( 25-C , 26-H ) :   0.9502
B( 25-C , 27-H ) :   0.9545 B( 25-C , 28-C ) :   1.0815 B( 28-C , 29-H ) :   0.9698
B( 28-C , 30-H ) :   0.9632 B( 28-C , 31-H ) :   0.9759

Dispersion correction           -0.014354312
FINAL SINGLE POINT ENERGY     -1339.865761841342

DIPOLE MOMENT
-------------
                                X             Y             Z
Electronic contribution:    -11.24159      10.55242      27.50706
Nuclear contribution   :     11.33898     -10.94524     -28.14281
                        -----------------------------------------
Total Dipole Moment    :      0.09740      -0.39282      -0.63575
                        -----------------------------------------
Magnitude (a.u.)       :      0.75364
Magnitude (Debye)      :      1.91560

Rotational constants in cm-1:     0.019337     0.008862     0.006456
Rotational constants in MHz :   579.711985   265.662196   193.537771

                             ****ORCA TERMINATED NORMALLY****
TOTAL RUN TIME: 0 days 0 hours 0 minutes 34 seconds 410 msec
