                         Program Version 4.2.1 -  RELEASE  -
|  1> ! wB97X-D3 SP def2-SVP
|  2> %pal
|  3> nprocs 16
|  4> end
|  5>
|  6> * xyz 0 1
|  7> S 	 -82.0364 	 49.5802 	 128.149
|  8> C 	 -83.4057 	 48.6223 	 127.56
|  9> C 	 -84.3036 	 48.4151 	 128.555
| 10> C 	 -84.0502 	 49.182 	 129.715
| 11> C 	 -82.8924 	 49.9188 	 129.666
| 12> H 	 -84.7141 	 49.2805 	 130.516
| 13> C 	 -85.5025 	 47.518 	 128.356
| 14> H 	 -85.716 	 46.9011 	 129.23
| 15> H 	 -85.2211 	 46.7956 	 127.592
| 16> C 	 -86.7921 	 48.244 	 127.984
| 17> H 	 -87.4906 	 47.4838 	 127.689
| 18> H 	 -87.236 	 48.7316 	 128.883
| 19> C 	 -86.7547 	 49.3547 	 126.98
| 20> H 	 -85.7651 	 49.9664 	 127.01
| 21> H 	 -86.6078 	 48.9163 	 126.035
| 22> H 	 -87.5502 	 50.0999 	 126.987
| 23> S 	 -82.1304 	 52.4659 	 130.203
| 24> C 	 -81.7723 	 52.9581 	 131.878
| 25> C 	 -82.0036 	 51.918 	 132.767
| 26> C 	 -82.3622 	 50.6927 	 132.179
| 27> C 	 -82.358 	 50.7367 	 130.736
| 28> H 	 -81.9422 	 52.1675 	 133.846
| 29> C 	 -82.8025 	 49.5474 	 133.07
| 30> H 	 -82.9172 	 48.6899 	 132.431
| 31> H 	 -83.8531 	 49.7458 	 133.366
| 32> C 	 -81.9036 	 49.1378 	 134.257
| 33> H 	 -82.4383 	 48.615 	 134.941
| 34> H 	 -81.571 	 49.9933 	 134.802
| 35> C 	 -80.7278 	 48.2072 	 133.771
| 36> H 	 -80.1195 	 47.8871 	 134.665
| 37> H 	 -80.1784 	 48.8886 	 133.132
| 38> H 	 -81.0472 	 47.3033 	 133.196
| 39> H 	 -83.5671 	 48.3444 	 126.544
| 40> H 	 -81.3766 	 53.9431 	 132.149
| 41> *
| 42>
| 43>                          ****END OF INPUT****

CARTESIAN COORDINATES (ANGSTROEM)
---------------------------------
  S    -82.036400   49.580200  128.149000
  C    -83.405700   48.622300  127.560000
  C    -84.303600   48.415100  128.555000
  C    -84.050200   49.182000  129.715000
  C    -82.892400   49.918800  129.666000
  H    -84.714100   49.280500  130.516000
  C    -85.502500   47.518000  128.356000
  H    -85.716000   46.901100  129.230000
  H    -85.221100   46.795600  127.592000
  C    -86.792100   48.244000  127.984000
  H    -87.490600   47.483800  127.689000
  H    -87.236000   48.731600  128.883000
  C    -86.754700   49.354700  126.980000
  H    -85.765100   49.966400  127.010000
  H    -86.607800   48.916300  126.035000
  H    -87.550200   50.099900  126.987000
  S    -82.130400   52.465900  130.203000
  C    -81.772300   52.958100  131.878000
  C    -82.003600   51.918000  132.767000
  C    -82.362200   50.692700  132.179000
  C    -82.358000   50.736700  130.736000
  H    -81.942200   52.167500  133.846000
  C    -82.802500   49.547400  133.070000
  H    -82.917200   48.689900  132.431000
  H    -83.853100   49.745800  133.366000
  C    -81.903600   49.137800  134.257000
  H    -82.438300   48.615000  134.941000
  H    -81.571000   49.993300  134.802000
  C    -80.727800   48.207200  133.771000
  H    -80.119500   47.887100  134.665000
  H    -80.178400   48.888600  133.132000
  H    -81.047200   47.303300  133.196000
  H    -83.567100   48.344400  126.544000
  H    -81.376600   53.943100  132.149000

 Total Charge           Charge          ....    0
 Multiplicity           Mult            ....    1
 Number of Electrons    NEL             ....  134
 Basis Dimension        Dim             ....  322

ORBITAL ENERGIES
----------------

  NO   OCC          E(Eh)            E(eV)
   0   2.0000     -88.964574     -2420.8491
   1   2.0000     -88.964317     -2420.8421
   2   2.0000     -10.336709      -281.2762
   3   2.0000     -10.330368      -281.1036
   4   2.0000     -10.324177      -280.9351
   5   2.0000     -10.314937      -280.6837
   6   2.0000     -10.311117      -280.5797
   7   2.0000     -10.296933      -280.1938
   8   2.0000     -10.295767      -280.1621
   9   2.0000     -10.293773      -280.1078
  10   2.0000     -10.292019      -280.0601
  11   2.0000     -10.288417      -279.9621
  12   2.0000     -10.283891      -279.8389
  13   2.0000     -10.283437      -279.8265
  14   2.0000     -10.280932      -279.7584
  15   2.0000     -10.273291      -279.5504
  16   2.0000      -8.078467      -219.8263
  17   2.0000      -8.077847      -219.8094
  18   2.0000      -6.037066      -164.2769
  19   2.0000      -6.036382      -164.2583
  20   2.0000      -6.033122      -164.1696
  21   2.0000      -6.032583      -164.1549
  22   2.0000      -6.029092      -164.0599
  23   2.0000      -6.028622      -164.0471
  24   2.0000      -1.001921       -27.2636
  25   2.0000      -0.977663       -26.6036
  26   2.0000      -0.914814       -24.8934
  27   2.0000      -0.906291       -24.6614
  28   2.0000      -0.869581       -23.6625
  29   2.0000      -0.847972       -23.0745
  30   2.0000      -0.842678       -22.9304
  31   2.0000      -0.813684       -22.1415
  32   2.0000      -0.784815       -21.3559
  33   2.0000      -0.770821       -20.9751
  34   2.0000      -0.715231       -19.4624
  35   2.0000      -0.701611       -19.0918
  36   2.0000      -0.692741       -18.8504
  37   2.0000      -0.653982       -17.7958
  38   2.0000      -0.642890       -17.4939
  39   2.0000      -0.622564       -16.9408
  40   2.0000      -0.597922       -16.2703
  41   2.0000      -0.567709       -15.4482
  42   2.0000      -0.556430       -15.1412
  43   2.0000      -0.555449       -15.1145
  44   2.0000      -0.540717       -14.7137
  45   2.0000      -0.533411       -14.5148
  46   2.0000      -0.527312       -14.3489
  47   2.0000      -0.511823       -13.9274
  48   2.0000      -0.502453       -13.6724
  49   2.0000      -0.495037       -13.4706
  50   2.0000      -0.484634       -13.1876
  51   2.0000      -0.476778       -12.9738
  52   2.0000      -0.472264       -12.8510
  53   2.0000      -0.463727       -12.6187
  54   2.0000      -0.456978       -12.4350
  55   2.0000      -0.448393       -12.2014
  56   2.0000      -0.444340       -12.0911
  57   2.0000      -0.435929       -11.8622
  58   2.0000      -0.432552       -11.7703
  59   2.0000      -0.426643       -11.6095
  60   2.0000      -0.416153       -11.3241
  61   2.0000      -0.413581       -11.2541
  62   2.0000      -0.404837       -11.0162
  63   2.0000      -0.343124        -9.3369
  64   2.0000      -0.331201        -9.0124
  65   2.0000      -0.328010        -8.9256
  66   2.0000      -0.293324        -7.9817
  67   0.0000       0.018652         0.5075
  68   0.0000       0.067379         1.8335
  69   0.0000       0.104493         2.8434
  70   0.0000       0.111704         3.0396
  71   0.0000       0.134268         3.6536

MULLIKEN ATOMIC CHARGES
-----------------------
   0 S :    0.105930
   1 C :   -0.122446
   2 C :   -0.093052
   3 C :    0.048711
   4 C :   -0.135173
   5 H :   -0.011431
   6 C :    0.082870
   7 H :    0.029597
   8 H :    0.019691
   9 C :   -0.068536
  10 H :    0.028960
  11 H :    0.026347
  12 C :   -0.062209
  13 H :    0.044452
  14 H :    0.007916
  15 H :    0.044464
  16 S :    0.080167
  17 C :   -0.097398
  18 C :   -0.057726
  19 C :   -0.027308
  20 C :   -0.147910
  21 H :    0.037350
  22 C :    0.038297
  23 H :    0.010168
  24 H :    0.046404
  25 C :   -0.002040
  26 H :   -0.002081
  27 H :    0.017830
  28 C :   -0.088320
  29 H :    0.046341
  30 H :    0.043012
  31 H :    0.048348
  32 H :    0.042123
  33 H :    0.066653
Sum of atomic charges:   -0.0000000

LOEWDIN ATOMIC CHARGES
----------------------
   0 S :    0.383617
   1 C :   -0.182151
   2 C :   -0.064406
   3 C :   -0.054060
   4 C :   -0.191848
   5 H :    0.022419
   6 C :   -0.028930
   7 H :    0.035675
   8 H :    0.029122
   9 C :   -0.046142
  10 H :    0.023656
  11 H :    0.025912
  12 C :   -0.076701
  13 H :    0.039304
  14 H :    0.013986
  15 H :    0.028662
  16 S :    0.371642
  17 C :   -0.170289
  18 C :   -0.082082
  19 C :   -0.047160
  20 C :   -0.180763
  21 H :    0.039433
  22 C :   -0.033812
  23 H :    0.026395
  24 H :    0.039018
  25 C :   -0.028440
  26 H :    0.009102
  27 H :    0.019307
  28 C :   -0.065431
  29 H :    0.031079
  30 H :    0.026379
  31 H :    0.030644
  32 H :    0.024377
  33 H :    0.032488

  Mayer bond orders larger than 0.100000
B(  0-S ,  1-C ) :   1.1254 B(  0-S ,  4-C ) :   1.1380 B(  1-C ,  2-C ) :   1.6136
B(  1-C , 32-H ) :   0.9720 B(  2-C ,  3-C ) :   1.2304 B(  2-C ,  6-C ) :   1.0289
B(  3-C ,  4-C ) :   1.5697 B(  3-C ,  5-H ) :   1.0113 B(  4-C , 20-C ) :   1.0407
B(  6-C ,  7-H ) :   0.9370 B(  6-C ,  8-H ) :   0.9395 B(  6-C ,  9-C ) :   1.0695
B(  9-C , 10-H ) :   0.9552 B(  9-C , 11-H ) :   0.9568 B(  9-C , 12-C ) :   1.0798
B( 12-C , 13-H ) :   0.9641 B( 12-C , 14-H ) :   0.9726 B( 12-C , 15-H ) :   0.9764
B( 16-S , 17-C ) :   1.1605 B( 16-S , 20-C ) :   1.1329 B( 17-C , 18-C ) :   1.5979
B( 17-C , 20-C ) :   0.1157 B( 17-C , 33-H ) :   0.9644 B( 18-C , 19-C ) :   1.2534
B( 18-C , 21-H ) :   0.9841 B( 19-C , 20-C ) :   1.5469 B( 19-C , 22-C ) :   1.0440
B( 22-C , 23-H ) :   0.9332 B( 22-C , 24-H ) :   0.9308 B( 22-C , 25-C ) :   1.0656
B( 25-C , 26-H ) :   0.9485 B( 25-C , 27-H ) :   0.9576 B( 25-C , 28-C ) :   1.0649
B( 28-C , 29-H ) :   0.9752 B( 28-C , 30-H ) :   0.9825 B( 28-C , 31-H ) :   0.9749

Dispersion correction           -0.014458531
FINAL SINGLE POINT ENERGY     -1339.862100315370

DIPOLE MOMENT
-------------
                                X             Y             Z
Electronic contribution:     12.24447      13.86553      -8.38790
Nuclear contribution   :    -12.78502     -14.13182       8.89331
                        -----------------------------------------
Total Dipole Moment    :     -0.54055      -0.26629       0.50540
                        -----------------------------------------
Magnitude (a.u.)       :      0.78647
Magnitude (Debye)      :      1.99906

Rotational constants in cm-1:     0.019643     0.008061     0.007000
Rotational constants in MHz :   588.867959   241.662929   209.841463

                             ****ORCA TERMINATED NORMALLY****
TOTAL RUN TIME: 0 days 0 hours 0 minutes 33 seconds 896 msec
