                         Program Version 4.2.1 -  RELEASE  -
|  1> ! wB97X-D3 SP def2-SVP
|  2> %pal
|  3> nprocs 16
|  4> end
|  5>
|  6> * xyz 0 1
|  7> S 	 -1.93906 	 27.0781 	 51.7698
|  8> C 	 -0.88065 	 26.0413 	 52.6506
|  9> C 	 0.276428 	 26.7022 	 53.0196
| 10> C 	 0.402534 	 27.9798 	 52.5084
| 11> C 	 -0.848559 	 28.3892 	 51.9908
| 12> H 	 1.22518 	 28.7107 	 52.5586
| 13> C 	 1.47205 	 26.1183 	 53.7804
| 14> H 	 1.34395 	 26.1783 	 54.8286
| 15> H 	 2.29222 	 26.8223 	 53.5453
| 16> C 	 1.97742 	 24.7589 	 53.3454
| 17> H 	 2.88134 	 24.6369 	 53.9216
| 18> H 	 1.25573 	 23.9294 	 53.4751
| 19> C 	 2.45955 	 24.6752 	 51.875
| 20> H 	 1.76594 	 25.1069 	 51.2091
| 21> H 	 3.41864 	 25.2044 	 51.8575
| 22> H 	 2.57832 	 23.6284 	 51.5296
| 23> S 	 -1.69781 	 29.6297 	 49.7043
| 24> C 	 -1.71877 	 31.3349 	 49.6579
| 25> C 	 -1.26399 	 31.9321 	 50.7935
| 26> C 	 -0.957335 	 30.9971 	 51.8159
| 27> C 	 -1.12379 	 29.6674 	 51.3541
| 28> H 	 -1.24314 	 32.9953 	 50.9091
| 29> C 	 -0.295872 	 31.4061 	 53.1613
| 30> H 	 0.42608 	 32.3141 	 53.0375
| 31> H 	 0.294777 	 30.535 	 53.4797
| 32> C 	 -1.19514 	 31.6983 	 54.415
| 33> H 	 -1.91573 	 32.4755 	 54.2778
| 34> H 	 -0.558721 	 32 	 55.182
| 35> C 	 -2.06979 	 30.5042 	 54.8387
| 36> H 	 -2.92927 	 31.025 	 55.3512
| 37> H 	 -1.49544 	 29.8846 	 55.5002
| 38> H 	 -2.52767 	 29.97 	 54.064
| 39> H 	 -1.25343 	 25.0913 	 53.0025
| 40> H 	 -2.11836 	 31.9534 	 48.8535
| 41> *
| 42>
| 43>                          ****END OF INPUT****

CARTESIAN COORDINATES (ANGSTROEM)
---------------------------------
  S     -1.939060   27.078100   51.769800
  C     -0.880650   26.041300   52.650600
  C      0.276428   26.702200   53.019600
  C      0.402534   27.979800   52.508400
  C     -0.848559   28.389200   51.990800
  H      1.225180   28.710700   52.558600
  C      1.472050   26.118300   53.780400
  H      1.343950   26.178300   54.828600
  H      2.292220   26.822300   53.545300
  C      1.977420   24.758900   53.345400
  H      2.881340   24.636900   53.921600
  H      1.255730   23.929400   53.475100
  C      2.459550   24.675200   51.875000
  H      1.765940   25.106900   51.209100
  H      3.418640   25.204400   51.857500
  H      2.578320   23.628400   51.529600
  S     -1.697810   29.629700   49.704300
  C     -1.718770   31.334900   49.657900
  C     -1.263990   31.932100   50.793500
  C     -0.957335   30.997100   51.815900
  C     -1.123790   29.667400   51.354100
  H     -1.243140   32.995300   50.909100
  C     -0.295872   31.406100   53.161300
  H      0.426080   32.314100   53.037500
  H      0.294777   30.535000   53.479700
  C     -1.195140   31.698300   54.415000
  H     -1.915730   32.475500   54.277800
  H     -0.558721   32.000000   55.182000
  C     -2.069790   30.504200   54.838700
  H     -2.929270   31.025000   55.351200
  H     -1.495440   29.884600   55.500200
  H     -2.527670   29.970000   54.064000
  H     -1.253430   25.091300   53.002500
  H     -2.118360   31.953400   48.853500

 Total Charge           Charge          ....    0
 Multiplicity           Mult            ....    1
 Number of Electrons    NEL             ....  134
 Basis Dimension        Dim             ....  322

ORBITAL ENERGIES
----------------

  NO   OCC          E(Eh)            E(eV)
   0   2.0000     -88.969925     -2420.9947
   1   2.0000     -88.967286     -2420.9229
   2   2.0000     -10.327447      -281.0241
   3   2.0000     -10.325152      -280.9617
   4   2.0000     -10.310797      -280.5710
   5   2.0000     -10.309737      -280.5422
   6   2.0000     -10.305422      -280.4248
   7   2.0000     -10.301629      -280.3216
   8   2.0000     -10.298869      -280.2465
   9   2.0000     -10.294788      -280.1354
  10   2.0000     -10.288793      -279.9723
  11   2.0000     -10.286924      -279.9214
  12   2.0000     -10.283997      -279.8418
  13   2.0000     -10.276699      -279.6432
  14   2.0000     -10.271268      -279.4954
  15   2.0000     -10.266436      -279.3639
  16   2.0000      -8.085563      -220.0194
  17   2.0000      -8.082776      -219.9435
  18   2.0000      -6.043790      -164.4599
  19   2.0000      -6.041152      -164.3881
  20   2.0000      -6.039840      -164.3524
  21   2.0000      -6.037207      -164.2808
  22   2.0000      -6.036688      -164.2666
  23   2.0000      -6.033615      -164.1830
  24   2.0000      -1.013955       -27.5911
  25   2.0000      -0.990461       -26.9518
  26   2.0000      -0.913700       -24.8630
  27   2.0000      -0.900113       -24.4933
  28   2.0000      -0.867999       -23.6195
  29   2.0000      -0.856812       -23.3150
  30   2.0000      -0.848467       -23.0880
  31   2.0000      -0.807758       -21.9802
  32   2.0000      -0.784346       -21.3431
  33   2.0000      -0.770024       -20.9534
  34   2.0000      -0.704115       -19.1599
  35   2.0000      -0.699349       -19.0303
  36   2.0000      -0.687894       -18.7186
  37   2.0000      -0.659765       -17.9531
  38   2.0000      -0.642863       -17.4932
  39   2.0000      -0.611380       -16.6365
  40   2.0000      -0.593105       -16.1392
  41   2.0000      -0.576457       -15.6862
  42   2.0000      -0.554894       -15.0994
  43   2.0000      -0.550165       -14.9708
  44   2.0000      -0.542559       -14.7638
  45   2.0000      -0.533979       -14.5303
  46   2.0000      -0.519930       -14.1480
  47   2.0000      -0.507847       -13.8192
  48   2.0000      -0.501220       -13.6389
  49   2.0000      -0.495778       -13.4908
  50   2.0000      -0.486230       -13.2310
  51   2.0000      -0.478733       -13.0270
  52   2.0000      -0.468586       -12.7509
  53   2.0000      -0.466741       -12.7007
  54   2.0000      -0.459900       -12.5145
  55   2.0000      -0.455734       -12.4011
  56   2.0000      -0.447360       -12.1733
  57   2.0000      -0.439764       -11.9666
  58   2.0000      -0.426374       -11.6022
  59   2.0000      -0.418863       -11.3978
  60   2.0000      -0.417812       -11.3692
  61   2.0000      -0.411500       -11.1975
  62   2.0000      -0.410244       -11.1633
  63   2.0000      -0.346173        -9.4198
  64   2.0000      -0.337019        -9.1708
  65   2.0000      -0.332677        -9.0526
  66   2.0000      -0.285930        -7.7806
  67   0.0000       0.026471         0.7203
  68   0.0000       0.071365         1.9419
  69   0.0000       0.108590         2.9549
  70   0.0000       0.119219         3.2441
  71   0.0000       0.136302         3.7090

MULLIKEN ATOMIC CHARGES
-----------------------
   0 S :    0.120277
   1 C :   -0.133051
   2 C :   -0.074513
   3 C :    0.007651
   4 C :   -0.168900
   5 H :    0.042986
   6 C :    0.095073
   7 H :    0.034700
   8 H :    0.009298
   9 C :   -0.083278
  10 H :    0.027520
  11 H :    0.035399
  12 C :   -0.058120
  13 H :    0.034267
  14 H :    0.027238
  15 H :    0.036656
  16 S :    0.124703
  17 C :   -0.087503
  18 C :   -0.031591
  19 C :   -0.013766
  20 C :   -0.178351
  21 H :    0.009498
  22 C :    0.013265
  23 H :    0.046693
  24 H :    0.013867
  25 C :   -0.032530
  26 H :    0.014783
  27 H :    0.016204
  28 C :   -0.049022
  29 H :    0.028714
  30 H :    0.032820
  31 H :    0.033086
  32 H :    0.050833
  33 H :    0.055094
Sum of atomic charges:    0.0000000

LOEWDIN ATOMIC CHARGES
----------------------
   0 S :    0.439028
   1 C :   -0.212517
   2 C :   -0.062970
   3 C :   -0.064478
   4 C :   -0.200916
   5 H :    0.039490
   6 C :   -0.027559
   7 H :    0.028122
   8 H :    0.031951
   9 C :   -0.042487
  10 H :    0.025369
  11 H :    0.022262
  12 C :   -0.062766
  13 H :    0.017282
  14 H :    0.024486
  15 H :    0.029937
  16 S :    0.426575
  17 C :   -0.203453
  18 C :   -0.070113
  19 C :   -0.058029
  20 C :   -0.207873
  21 H :    0.029342
  22 C :   -0.038611
  23 H :    0.040051
  24 H :    0.027072
  25 C :   -0.033354
  26 H :    0.016221
  27 H :    0.016700
  28 C :   -0.058550
  29 H :    0.033876
  30 H :    0.021282
  31 H :    0.017829
  32 H :    0.024624
  33 H :    0.032178

  Mayer bond orders larger than 0.100000
B(  0-S ,  1-C ) :   1.1512 B(  0-S ,  4-C ) :   1.1971 B(  1-C ,  2-C ) :   1.5607
B(  1-C ,  4-C ) :   0.1083 B(  1-C , 32-H ) :   0.9737 B(  2-C ,  3-C ) :   1.2911
B(  2-C ,  6-C ) :   1.0034 B(  3-C ,  4-C ) :   1.5156 B(  3-C ,  5-H ) :   0.9786
B(  4-C , 20-C ) :   1.0399 B(  6-C ,  7-H ) :   0.9321 B(  6-C ,  8-H ) :   0.9424
B(  6-C ,  9-C ) :   1.0826 B(  9-C , 10-H ) :   0.9586 B(  9-C , 11-H ) :   0.9569
B(  9-C , 12-C ) :   1.0720 B( 12-C , 13-H ) :   0.9782 B( 12-C , 14-H ) :   0.9778
B( 12-C , 15-H ) :   0.9762 B( 16-S , 17-C ) :   1.1561 B( 16-S , 20-C ) :   1.1594
B( 17-C , 18-C ) :   1.6082 B( 17-C , 33-H ) :   0.9620 B( 18-C , 19-C ) :   1.2653
B( 18-C , 21-H ) :   0.9925 B( 19-C , 20-C ) :   1.5672 B( 19-C , 22-C ) :   1.0270
B( 22-C , 23-H ) :   0.9464 B( 22-C , 24-H ) :   0.9345 B( 22-C , 25-C ) :   1.0681
B( 25-C , 26-H ) :   0.9670 B( 25-C , 27-H ) :   0.9552 B( 25-C , 28-C ) :   1.0691
B( 28-C , 29-H ) :   0.9794 B( 28-C , 30-H ) :   0.9795 B( 28-C , 31-H ) :   0.9764

Dispersion correction           -0.015011771
FINAL SINGLE POINT ENERGY     -1339.870938750336

DIPOLE MOMENT
-------------
                                X             Y             Z
Electronic contribution:    -13.64804       2.56955     -17.25283
Nuclear contribution   :     13.97571      -2.41776      17.61430
                        -----------------------------------------
Total Dipole Moment    :      0.32767       0.15179       0.36147
                        -----------------------------------------
Magnitude (a.u.)       :      0.51095
Magnitude (Debye)      :      1.29874

Rotational constants in cm-1:     0.020677     0.008690     0.007379
Rotational constants in MHz :   619.894393   260.532833   221.201908

                             ****ORCA TERMINATED NORMALLY****
TOTAL RUN TIME: 0 days 0 hours 0 minutes 36 seconds 199 msec
