                         Program Version 4.2.1 -  RELEASE  -
|  1> ! wB97X-D3 SP def2-SVP
|  2> %pal
|  3> nprocs 16
|  4> end
|  5>
|  6> * xyz 0 1
|  7> S 	 39.0837 	 7.73516 	 90.2498
|  8> C 	 39.9421 	 6.66534 	 89.1984
|  9> C 	 39.1225 	 6.26461 	 88.1365
| 10> C 	 37.9266 	 7.06984 	 88.0704
| 11> C 	 37.8885 	 8.05605 	 89.0018
| 12> H 	 37.1012 	 6.97777 	 87.3556
| 13> C 	 39.4144 	 5.133 	 87.1544
| 14> H 	 38.6255 	 4.98661 	 86.4783
| 15> H 	 39.4818 	 4.20258 	 87.7234
| 16> C 	 40.7517 	 5.16903 	 86.4371
| 17> H 	 41.526 	 5.05235 	 87.1134
| 18> H 	 40.9434 	 4.3566 	 85.7324
| 19> C 	 40.8135 	 6.47071 	 85.5379
| 20> H 	 40.6889 	 7.33777 	 86.1471
| 21> H 	 41.742 	 6.49629 	 84.9196
| 22> H 	 39.9618 	 6.52184 	 84.841
| 23> S 	 36.2014 	 9.07704 	 90.908
| 24> C 	 35.1885 	 10.4573 	 90.5135
| 25> C 	 35.1909 	 10.6735 	 89.1257
| 26> C 	 36.1435 	 9.89687 	 88.4509
| 27> C 	 36.851 	 9.04671 	 89.2643
| 28> H 	 34.5794 	 11.4645 	 88.7326
| 29> C 	 36.4573 	 10.1333 	 87.0151
| 30> H 	 35.5904 	 10.4793 	 86.5386
| 31> H 	 36.6965 	 9.17241 	 86.5203
| 32> C 	 37.452 	 11.2909 	 86.7658
| 33> H 	 37.1297 	 12.1261 	 87.408
| 34> H 	 37.4132 	 11.5951 	 85.7859
| 35> C 	 38.9251 	 10.9633 	 87.1882
| 36> H 	 39.6325 	 11.778 	 86.9678
| 37> H 	 39.2141 	 10.0391 	 86.6287
| 38> H 	 38.8483 	 10.692 	 88.2268
| 39> H 	 40.8706 	 6.13628 	 89.4271
| 40> H 	 34.5042 	 10.9583 	 91.2244
| 41> *
| 42>
| 43>                          ****END OF INPUT****

CARTESIAN COORDINATES (ANGSTROEM)
---------------------------------
  S     39.083700    7.735160   90.249800
  C     39.942100    6.665340   89.198400
  C     39.122500    6.264610   88.136500
  C     37.926600    7.069840   88.070400
  C     37.888500    8.056050   89.001800
  H     37.101200    6.977770   87.355600
  C     39.414400    5.133000   87.154400
  H     38.625500    4.986610   86.478300
  H     39.481800    4.202580   87.723400
  C     40.751700    5.169030   86.437100
  H     41.526000    5.052350   87.113400
  H     40.943400    4.356600   85.732400
  C     40.813500    6.470710   85.537900
  H     40.688900    7.337770   86.147100
  H     41.742000    6.496290   84.919600
  H     39.961800    6.521840   84.841000
  S     36.201400    9.077040   90.908000
  C     35.188500   10.457300   90.513500
  C     35.190900   10.673500   89.125700
  C     36.143500    9.896870   88.450900
  C     36.851000    9.046710   89.264300
  H     34.579400   11.464500   88.732600
  C     36.457300   10.133300   87.015100
  H     35.590400   10.479300   86.538600
  H     36.696500    9.172410   86.520300
  C     37.452000   11.290900   86.765800
  H     37.129700   12.126100   87.408000
  H     37.413200   11.595100   85.785900
  C     38.925100   10.963300   87.188200
  H     39.632500   11.778000   86.967800
  H     39.214100   10.039100   86.628700
  H     38.848300   10.692000   88.226800
  H     40.870600    6.136280   89.427100
  H     34.504200   10.958300   91.224400

 Total Charge           Charge          ....    0
 Multiplicity           Mult            ....    1
 Number of Electrons    NEL             ....  134
 Basis Dimension        Dim             ....  322

ORBITAL ENERGIES
----------------

  NO   OCC          E(Eh)            E(eV)
   0   2.0000     -88.966495     -2420.9014
   1   2.0000     -88.966163     -2420.8924
   2   2.0000     -10.328881      -281.0631
   3   2.0000     -10.326499      -280.9983
   4   2.0000     -10.322430      -280.8876
   5   2.0000     -10.315728      -280.7052
   6   2.0000     -10.307199      -280.4731
   7   2.0000     -10.298575      -280.2385
   8   2.0000     -10.296918      -280.1934
   9   2.0000     -10.294408      -280.1251
  10   2.0000     -10.288882      -279.9747
  11   2.0000     -10.285354      -279.8787
  12   2.0000     -10.284075      -279.8439
  13   2.0000     -10.278861      -279.7020
  14   2.0000     -10.276439      -279.6361
  15   2.0000     -10.271197      -279.4935
  16   2.0000      -8.081151      -219.8993
  17   2.0000      -8.080860      -219.8914
  18   2.0000      -6.039643      -164.3470
  19   2.0000      -6.039309      -164.3380
  20   2.0000      -6.035855      -164.2440
  21   2.0000      -6.035481      -164.2338
  22   2.0000      -6.031663      -164.1299
  23   2.0000      -6.031642      -164.1293
  24   2.0000      -1.011161       -27.5151
  25   2.0000      -0.986903       -26.8550
  26   2.0000      -0.913231       -24.8503
  27   2.0000      -0.908663       -24.7260
  28   2.0000      -0.868136       -23.6232
  29   2.0000      -0.849420       -23.1139
  30   2.0000      -0.841431       -22.8965
  31   2.0000      -0.811774       -22.0895
  32   2.0000      -0.782067       -21.2811
  33   2.0000      -0.773329       -21.0434
  34   2.0000      -0.711220       -19.3533
  35   2.0000      -0.702133       -19.1060
  36   2.0000      -0.692703       -18.8494
  37   2.0000      -0.665435       -18.1074
  38   2.0000      -0.641276       -17.4500
  39   2.0000      -0.614668       -16.7260
  40   2.0000      -0.595480       -16.2038
  41   2.0000      -0.575545       -15.6614
  42   2.0000      -0.553466       -15.0606
  43   2.0000      -0.550276       -14.9738
  44   2.0000      -0.549871       -14.9628
  45   2.0000      -0.531358       -14.4590
  46   2.0000      -0.513277       -13.9670
  47   2.0000      -0.508011       -13.8237
  48   2.0000      -0.504062       -13.7162
  49   2.0000      -0.496688       -13.5156
  50   2.0000      -0.491514       -13.3748
  51   2.0000      -0.477673       -12.9981
  52   2.0000      -0.474977       -12.9248
  53   2.0000      -0.463927       -12.6241
  54   2.0000      -0.459019       -12.4905
  55   2.0000      -0.446505       -12.1500
  56   2.0000      -0.443307       -12.0630
  57   2.0000      -0.437661       -11.9094
  58   2.0000      -0.434558       -11.8249
  59   2.0000      -0.431272       -11.7355
  60   2.0000      -0.418301       -11.3826
  61   2.0000      -0.412969       -11.2375
  62   2.0000      -0.408050       -11.1036
  63   2.0000      -0.352044        -9.5796
  64   2.0000      -0.333830        -9.0840
  65   2.0000      -0.326149        -8.8750
  66   2.0000      -0.287911        -7.8345
  67   0.0000       0.022094         0.6012
  68   0.0000       0.063317         1.7230
  69   0.0000       0.097795         2.6611
  70   0.0000       0.126250         3.4354
  71   0.0000       0.129839         3.5331

MULLIKEN ATOMIC CHARGES
-----------------------
   0 S :    0.105796
   1 C :   -0.103145
   2 C :   -0.116181
   3 C :    0.024097
   4 C :   -0.148085
   5 H :    0.026197
   6 C :    0.100847
   7 H :    0.005540
   8 H :    0.032827
   9 C :   -0.053447
  10 H :    0.008884
  11 H :    0.026260
  12 C :   -0.073624
  13 H :    0.042261
  14 H :    0.041078
  15 H :    0.022359
  16 S :    0.098107
  17 C :   -0.107214
  18 C :   -0.041648
  19 C :   -0.047642
  20 C :   -0.146427
  21 H :    0.017623
  22 C :    0.099625
  23 H :   -0.001484
  24 H :    0.017601
  25 C :   -0.048782
  26 H :    0.022388
  27 H :    0.012837
  28 C :   -0.059934
  29 H :    0.045833
  30 H :    0.032534
  31 H :    0.041334
  32 H :    0.052920
  33 H :    0.070664
Sum of atomic charges:    0.0000000

LOEWDIN ATOMIC CHARGES
----------------------
   0 S :    0.409266
   1 C :   -0.203970
   2 C :   -0.057518
   3 C :   -0.063444
   4 C :   -0.187482
   5 H :    0.034751
   6 C :   -0.027997
   7 H :    0.021052
   8 H :    0.037028
   9 C :   -0.033046
  10 H :    0.010143
  11 H :    0.027423
  12 C :   -0.067026
  13 H :    0.019616
  14 H :    0.027842
  15 H :    0.024165
  16 S :    0.394225
  17 C :   -0.185533
  18 C :   -0.068025
  19 C :   -0.064640
  20 C :   -0.191344
  21 H :    0.030933
  22 C :   -0.027966
  23 H :    0.025036
  24 H :    0.028747
  25 C :   -0.025506
  26 H :    0.025901
  27 H :    0.008452
  28 C :   -0.066298
  29 H :    0.027411
  30 H :    0.026587
  31 H :    0.024135
  32 H :    0.031184
  33 H :    0.035895

  Mayer bond orders larger than 0.100000
B(  0-S ,  1-C ) :   1.1408 B(  0-S ,  4-C ) :   1.1431 B(  1-C ,  2-C ) :   1.5997
B(  1-C , 32-H ) :   0.9690 B(  2-C ,  3-C ) :   1.2293 B(  2-C ,  6-C ) :   1.0214
B(  3-C ,  4-C ) :   1.5823 B(  3-C ,  5-H ) :   0.9896 B(  4-C , 20-C ) :   1.0420
B(  6-C ,  7-H ) :   0.9468 B(  6-C ,  8-H ) :   0.9307 B(  6-C ,  9-C ) :   1.0818
B(  9-C , 10-H ) :   0.9561 B(  9-C , 11-H ) :   0.9556 B(  9-C , 12-C ) :   1.0615
B( 12-C , 13-H ) :   0.9782 B( 12-C , 14-H ) :   0.9772 B( 12-C , 15-H ) :   0.9760
B( 16-S , 17-C ) :   1.1548 B( 16-S , 20-C ) :   1.1382 B( 17-C , 18-C ) :   1.5941
B( 17-C , 20-C ) :   0.1071 B( 17-C , 33-H ) :   0.9646 B( 18-C , 19-C ) :   1.2481
B( 18-C , 21-H ) :   0.9933 B( 19-C , 20-C ) :   1.5994 B( 19-C , 22-C ) :   1.0622
B( 22-C , 23-H ) :   0.9149 B( 22-C , 24-H ) :   0.9313 B( 22-C , 25-C ) :   1.0727
B( 25-C , 26-H ) :   0.9525 B( 25-C , 27-H ) :   0.9582 B( 25-C , 28-C ) :   1.0738
B( 28-C , 29-H ) :   0.9743 B( 28-C , 30-H ) :   0.9758 B( 28-C , 31-H ) :   0.9737

Dispersion correction           -0.015850493
FINAL SINGLE POINT ENERGY     -1339.873534950991

DIPOLE MOMENT
-------------
                                X             Y             Z
Electronic contribution:    -10.82772       0.35355      24.72248
Nuclear contribution   :     10.68909      -0.49672     -25.27549
                        -----------------------------------------
Total Dipole Moment    :     -0.13864      -0.14317      -0.55302
                        -----------------------------------------
Magnitude (a.u.)       :      0.58783
Magnitude (Debye)      :      1.49415

Rotational constants in cm-1:     0.022085     0.009215     0.007430
Rotational constants in MHz :   662.089761   276.247698   222.749371

                             ****ORCA TERMINATED NORMALLY****
TOTAL RUN TIME: 0 days 0 hours 0 minutes 31 seconds 175 msec
