                         Program Version 4.2.1 -  RELEASE  -
|  1> ! wB97X-D3 SP def2-SVP
|  2> %pal
|  3> nprocs 16
|  4> end
|  5>
|  6> * xyz 0 1
|  7> S 	 13.362 	 4.06876 	 88.2378
|  8> C 	 14.2866 	 5.53202 	 88.551
|  9> C 	 13.8681 	 6.57985 	 87.7339
| 10> C 	 12.834 	 6.24266 	 86.8203
| 11> C 	 12.405 	 4.89232 	 86.9568
| 12> H 	 12.369 	 6.96359 	 86.1324
| 13> C 	 14.2714 	 8.09 	 87.9369
| 14> H 	 14.7206 	 8.44327 	 88.8717
| 15> H 	 13.3394 	 8.64181 	 87.7439
| 16> C 	 15.1181 	 8.6551 	 86.727
| 17> H 	 14.8349 	 8.27161 	 85.7627
| 18> H 	 15.075 	 9.77215 	 86.6364
| 19> C 	 16.5709 	 8.43335 	 87.0245
| 20> H 	 16.8253 	 7.42417 	 87.0978
| 21> H 	 17.2194 	 8.85091 	 86.2903
| 22> H 	 16.7932 	 8.89366 	 87.9517
| 23> S 	 10.4792 	 3.00266 	 87.2025
| 24> C 	 9.18047 	 2.7636 	 86.0786
| 25> C 	 9.35931 	 3.63052 	 84.9942
| 26> C 	 10.4997 	 4.50534 	 85.1486
| 27> C 	 11.2601 	 4.23503 	 86.2818
| 28> H 	 8.54871 	 3.68597 	 84.2163
| 29> C 	 10.892 	 5.67177 	 84.2591
| 30> H 	 12.0019 	 5.55405 	 84.0851
| 31> H 	 10.769 	 6.56935 	 84.8405
| 32> C 	 10.1636 	 5.87714 	 82.9003
| 33> H 	 10.2184 	 4.9893 	 82.2488
| 34> H 	 10.7667 	 6.58911 	 82.3804
| 35> C 	 8.667 	 6.29846 	 83.1414
| 36> H 	 8.19382 	 5.6158 	 83.8747
| 37> H 	 8.06393 	 6.3434 	 82.1952
| 38> H 	 8.65067 	 7.25472 	 83.6561
| 39> H 	 15.0811 	 5.71337 	 89.1878
| 40> H 	 8.54092 	 1.93478 	 86.111
| 41> *
| 42>
| 43>                          ****END OF INPUT****

CARTESIAN COORDINATES (ANGSTROEM)
---------------------------------
  S     13.362000    4.068760   88.237800
  C     14.286600    5.532020   88.551000
  C     13.868100    6.579850   87.733900
  C     12.834000    6.242660   86.820300
  C     12.405000    4.892320   86.956800
  H     12.369000    6.963590   86.132400
  C     14.271400    8.090000   87.936900
  H     14.720600    8.443270   88.871700
  H     13.339400    8.641810   87.743900
  C     15.118100    8.655100   86.727000
  H     14.834900    8.271610   85.762700
  H     15.075000    9.772150   86.636400
  C     16.570900    8.433350   87.024500
  H     16.825300    7.424170   87.097800
  H     17.219400    8.850910   86.290300
  H     16.793200    8.893660   87.951700
  S     10.479200    3.002660   87.202500
  C      9.180470    2.763600   86.078600
  C      9.359310    3.630520   84.994200
  C     10.499700    4.505340   85.148600
  C     11.260100    4.235030   86.281800
  H      8.548710    3.685970   84.216300
  C     10.892000    5.671770   84.259100
  H     12.001900    5.554050   84.085100
  H     10.769000    6.569350   84.840500
  C     10.163600    5.877140   82.900300
  H     10.218400    4.989300   82.248800
  H     10.766700    6.589110   82.380400
  C      8.667000    6.298460   83.141400
  H      8.193820    5.615800   83.874700
  H      8.063930    6.343400   82.195200
  H      8.650670    7.254720   83.656100
  H     15.081100    5.713370   89.187800
  H      8.540920    1.934780   86.111000

 Total Charge           Charge          ....    0
 Multiplicity           Mult            ....    1
 Number of Electrons    NEL             ....  134
 Basis Dimension        Dim             ....  322

ORBITAL ENERGIES
----------------

  NO   OCC          E(Eh)            E(eV)
   0   2.0000     -88.975109     -2421.1358
   1   2.0000     -88.963343     -2420.8156
   2   2.0000     -10.346196      -281.5343
   3   2.0000     -10.329405      -281.0774
   4   2.0000     -10.317064      -280.7416
   5   2.0000     -10.314143      -280.6621
   6   2.0000     -10.308513      -280.5089
   7   2.0000     -10.308431      -280.5067
   8   2.0000     -10.304986      -280.4129
   9   2.0000     -10.304262      -280.3932
  10   2.0000     -10.302469      -280.3444
  11   2.0000     -10.297494      -280.2090
  12   2.0000     -10.292255      -280.0665
  13   2.0000     -10.286889      -279.9205
  14   2.0000     -10.286637      -279.9136
  15   2.0000     -10.260295      -279.1968
  16   2.0000      -8.088232      -220.0920
  17   2.0000      -8.078973      -219.8400
  18   2.0000      -6.046974      -164.5465
  19   2.0000      -6.042921      -164.4362
  20   2.0000      -6.038874      -164.3261
  21   2.0000      -6.037418      -164.2865
  22   2.0000      -6.033134      -164.1699
  23   2.0000      -6.029968      -164.0838
  24   2.0000      -1.006679       -27.3931
  25   2.0000      -0.981444       -26.7064
  26   2.0000      -0.909046       -24.7364
  27   2.0000      -0.907048       -24.6820
  28   2.0000      -0.870588       -23.6899
  29   2.0000      -0.852542       -23.1988
  30   2.0000      -0.840217       -22.8635
  31   2.0000      -0.814406       -22.1611
  32   2.0000      -0.782183       -21.2843
  33   2.0000      -0.774813       -21.0837
  34   2.0000      -0.711544       -19.3621
  35   2.0000      -0.704019       -19.1573
  36   2.0000      -0.695148       -18.9160
  37   2.0000      -0.659216       -17.9382
  38   2.0000      -0.638414       -17.3721
  39   2.0000      -0.625738       -17.0272
  40   2.0000      -0.598488       -16.2857
  41   2.0000      -0.571719       -15.5573
  42   2.0000      -0.552541       -15.0354
  43   2.0000      -0.546473       -14.8703
  44   2.0000      -0.542671       -14.7668
  45   2.0000      -0.526523       -14.3274
  46   2.0000      -0.524934       -14.2842
  47   2.0000      -0.511438       -13.9169
  48   2.0000      -0.506706       -13.7882
  49   2.0000      -0.501418       -13.6443
  50   2.0000      -0.493784       -13.4365
  51   2.0000      -0.484900       -13.1948
  52   2.0000      -0.475582       -12.9412
  53   2.0000      -0.469291       -12.7701
  54   2.0000      -0.462343       -12.5810
  55   2.0000      -0.448142       -12.1946
  56   2.0000      -0.443733       -12.0746
  57   2.0000      -0.441034       -12.0011
  58   2.0000      -0.429309       -11.6821
  59   2.0000      -0.426273       -11.5995
  60   2.0000      -0.421240       -11.4625
  61   2.0000      -0.414390       -11.2761
  62   2.0000      -0.408709       -11.1215
  63   2.0000      -0.359927        -9.7941
  64   2.0000      -0.334409        -9.0997
  65   2.0000      -0.327218        -8.9041
  66   2.0000      -0.284990        -7.7550
  67   0.0000       0.016378         0.4457
  68   0.0000       0.077410         2.1064
  69   0.0000       0.100446         2.7333
  70   0.0000       0.118214         3.2168
  71   0.0000       0.131572         3.5802

MULLIKEN ATOMIC CHARGES
-----------------------
   0 S :    0.116322
   1 C :   -0.072900
   2 C :   -0.065090
   3 C :   -0.009284
   4 C :   -0.118745
   5 H :    0.019665
   6 C :    0.035823
   7 H :    0.035517
   8 H :    0.034466
   9 C :   -0.098294
  10 H :    0.025344
  11 H :    0.030378
  12 C :    0.002007
  13 H :    0.010540
  14 H :    0.021224
  15 H :    0.006430
  16 S :    0.086393
  17 C :   -0.073225
  18 C :   -0.068726
  19 C :   -0.056690
  20 C :   -0.117718
  21 H :    0.051264
  22 C :   -0.035797
  23 H :    0.055831
  24 H :    0.046154
  25 C :   -0.017274
  26 H :    0.031443
  27 H :    0.022885
  28 C :   -0.078953
  29 H :    0.035135
  30 H :    0.052586
  31 H :    0.028253
  32 H :    0.016534
  33 H :    0.048501
Sum of atomic charges:    0.0000000

LOEWDIN ATOMIC CHARGES
----------------------
   0 S :    0.391871
   1 C :   -0.188873
   2 C :   -0.058236
   3 C :   -0.066666
   4 C :   -0.172148
   5 H :    0.033928
   6 C :   -0.025287
   7 H :    0.030705
   8 H :    0.035552
   9 C :   -0.040522
  10 H :    0.017859
  11 H :    0.026546
  12 C :   -0.058709
  13 H :    0.014322
  14 H :    0.020811
  15 H :    0.017347
  16 S :    0.422543
  17 C :   -0.185416
  18 C :   -0.081204
  19 C :   -0.062705
  20 C :   -0.203597
  21 H :    0.041624
  22 C :   -0.038269
  23 H :    0.042394
  24 H :    0.026686
  25 C :   -0.038625
  26 H :    0.025339
  27 H :    0.022631
  28 C :   -0.072482
  29 H :    0.027092
  30 H :    0.032526
  31 H :    0.024366
  32 H :    0.017537
  33 H :    0.021061

  Mayer bond orders larger than 0.100000
B(  0-S ,  1-C ) :   1.1225 B(  0-S ,  4-C ) :   1.1462 B(  1-C ,  2-C ) :   1.6166
B(  1-C , 32-H ) :   0.9723 B(  2-C ,  3-C ) :   1.2560 B(  2-C ,  6-C ) :   1.0088
B(  3-C ,  4-C ) :   1.5430 B(  3-C ,  5-H ) :   0.9785 B(  4-C , 20-C ) :   1.0694
B(  6-C ,  7-H ) :   0.9590 B(  6-C ,  8-H ) :   0.9459 B(  6-C ,  9-C ) :   1.0501
B(  9-C , 10-H ) :   0.9583 B(  9-C , 11-H ) :   0.9605 B(  9-C , 12-C ) :   1.0803
B( 12-C , 13-H ) :   0.9749 B( 12-C , 14-H ) :   0.9719 B( 12-C , 15-H ) :   0.9735
B( 16-S , 17-C ) :   1.1793 B( 16-S , 20-C ) :   1.1521 B( 17-C , 18-C ) :   1.5730
B( 17-C , 20-C ) :   0.1009 B( 17-C , 33-H ) :   0.9725 B( 18-C , 19-C ) :   1.2702
B( 18-C , 21-H ) :   0.9745 B( 19-C , 20-C ) :   1.5666 B( 19-C , 22-C ) :   1.0301
B( 22-C , 23-H ) :   0.9382 B( 22-C , 24-H ) :   0.9265 B( 22-C , 25-C ) :   1.0716
B( 25-C , 26-H ) :   0.9571 B( 25-C , 27-H ) :   0.9542 B( 25-C , 28-C ) :   1.0547
B( 28-C , 29-H ) :   0.9774 B( 28-C , 30-H ) :   0.9755 B( 28-C , 31-H ) :   0.9716

Dispersion correction           -0.013870305
FINAL SINGLE POINT ENERGY     -1339.865394106836

DIPOLE MOMENT
-------------
                                X             Y             Z
Electronic contribution:     -4.54183     -24.00099      15.19072
Nuclear contribution   :      4.46882      24.61510     -15.54727
                        -----------------------------------------
Total Dipole Moment    :     -0.07301       0.61411      -0.35655
                        -----------------------------------------
Magnitude (a.u.)       :      0.71385
Magnitude (Debye)      :      1.81447

Rotational constants in cm-1:     0.019331     0.008354     0.006080
Rotational constants in MHz :   579.532893   250.433065   182.285187

                             ****ORCA TERMINATED NORMALLY****
TOTAL RUN TIME: 0 days 0 hours 0 minutes 34 seconds 738 msec
