                         Program Version 4.2.1 -  RELEASE  -
|  1> ! wB97X-D3 SP def2-SVP
|  2> %pal
|  3> nprocs 16
|  4> end
|  5>
|  6> * xyz 0 1
|  7> S 	 -49.6468 	 61.3988 	 141.4
|  8> C 	 -48.4084 	 60.3172 	 140.942
|  9> C 	 -47.2911 	 60.961 	 140.419
| 10> C 	 -47.408 	 62.4382 	 140.494
| 11> C 	 -48.5593 	 62.826 	 141.025
| 12> H 	 -46.6822 	 63.141 	 140.224
| 13> C 	 -46.0547 	 60.2678 	 140.039
| 14> H 	 -46.3459 	 59.2153 	 139.98
| 15> H 	 -45.2141 	 60.4657 	 140.724
| 16> C 	 -45.6011 	 60.6952 	 138.59
| 17> H 	 -46.314 	 60.1958 	 137.879
| 18> H 	 -45.6238 	 61.7799 	 138.397
| 19> C 	 -44.2098 	 60.1791 	 138.339
| 20> H 	 -43.4226 	 60.7213 	 138.98
| 21> H 	 -44.1981 	 59.0708 	 138.51
| 22> H 	 -43.8982 	 60.5156 	 137.352
| 23> S 	 -50.7204 	 64.3538 	 140.803
| 24> C 	 -50.648 	 66.0503 	 141.195
| 25> C 	 -49.3684 	 66.445 	 141.626
| 26> C 	 -48.4431 	 65.3755 	 141.536
| 27> C 	 -49.0458 	 64.1644 	 141.192
| 28> H 	 -49.3 	 67.4573 	 141.92
| 29> C 	 -47.0049 	 65.6761 	 142.076
| 30> H 	 -46.5881 	 64.6808 	 142.212
| 31> H 	 -47.0523 	 66.1695 	 143.047
| 32> C 	 -46.0588 	 66.4517 	 141.239
| 33> H 	 -46.2398 	 67.5295 	 141.321
| 34> H 	 -46.2117 	 66.1881 	 140.228
| 35> C 	 -44.5235 	 66.3672 	 141.544
| 36> H 	 -43.9876 	 65.5861 	 140.93
| 37> H 	 -44.2297 	 66.3428 	 142.602
| 38> H 	 -44.1432 	 67.3046 	 141.25
| 39> H 	 -48.4537 	 59.174 	 141.037
| 40> H 	 -51.4982 	 66.7804 	 141.078
| 41> *
| 42>
| 43>                          ****END OF INPUT****

CARTESIAN COORDINATES (ANGSTROEM)
---------------------------------
  S    -49.646800   61.398800  141.400000
  C    -48.408400   60.317200  140.942000
  C    -47.291100   60.961000  140.419000
  C    -47.408000   62.438200  140.494000
  C    -48.559300   62.826000  141.025000
  H    -46.682200   63.141000  140.224000
  C    -46.054700   60.267800  140.039000
  H    -46.345900   59.215300  139.980000
  H    -45.214100   60.465700  140.724000
  C    -45.601100   60.695200  138.590000
  H    -46.314000   60.195800  137.879000
  H    -45.623800   61.779900  138.397000
  C    -44.209800   60.179100  138.339000
  H    -43.422600   60.721300  138.980000
  H    -44.198100   59.070800  138.510000
  H    -43.898200   60.515600  137.352000
  S    -50.720400   64.353800  140.803000
  C    -50.648000   66.050300  141.195000
  C    -49.368400   66.445000  141.626000
  C    -48.443100   65.375500  141.536000
  C    -49.045800   64.164400  141.192000
  H    -49.300000   67.457300  141.920000
  C    -47.004900   65.676100  142.076000
  H    -46.588100   64.680800  142.212000
  H    -47.052300   66.169500  143.047000
  C    -46.058800   66.451700  141.239000
  H    -46.239800   67.529500  141.321000
  H    -46.211700   66.188100  140.228000
  C    -44.523500   66.367200  141.544000
  H    -43.987600   65.586100  140.930000
  H    -44.229700   66.342800  142.602000
  H    -44.143200   67.304600  141.250000
  H    -48.453700   59.174000  141.037000
  H    -51.498200   66.780400  141.078000

 Total Charge           Charge          ....    0
 Multiplicity           Mult            ....    1
 Number of Electrons    NEL             ....  134
 Basis Dimension        Dim             ....  322

ORBITAL ENERGIES
----------------

  NO   OCC          E(Eh)            E(eV)
   0   2.0000     -88.968287     -2420.9502
   1   2.0000     -88.962997     -2420.8062
   2   2.0000     -10.328571      -281.0547
   3   2.0000     -10.326968      -281.0111
   4   2.0000     -10.319711      -280.8136
   5   2.0000     -10.317485      -280.7530
   6   2.0000     -10.308087      -280.4973
   7   2.0000     -10.300251      -280.2841
   8   2.0000     -10.292057      -280.0611
   9   2.0000     -10.291179      -280.0372
  10   2.0000     -10.290164      -280.0096
  11   2.0000     -10.290159      -280.0095
  12   2.0000     -10.289997      -280.0050
  13   2.0000     -10.285156      -279.8733
  14   2.0000     -10.282539      -279.8021
  15   2.0000     -10.282332      -279.7965
  16   2.0000      -8.083400      -219.9605
  17   2.0000      -8.077638      -219.8037
  18   2.0000      -6.041783      -164.4053
  19   2.0000      -6.037859      -164.2985
  20   2.0000      -6.036414      -164.2592
  21   2.0000      -6.034254      -164.2004
  22   2.0000      -6.032344      -164.1484
  23   2.0000      -6.027921      -164.0281
  24   2.0000      -1.009071       -27.4582
  25   2.0000      -0.982183       -26.7266
  26   2.0000      -0.913255       -24.8509
  27   2.0000      -0.909885       -24.7592
  28   2.0000      -0.875585       -23.8259
  29   2.0000      -0.855840       -23.2886
  30   2.0000      -0.845930       -23.0189
  31   2.0000      -0.818810       -22.2810
  32   2.0000      -0.784868       -21.3573
  33   2.0000      -0.760993       -20.7077
  34   2.0000      -0.707631       -19.2556
  35   2.0000      -0.692960       -18.8564
  36   2.0000      -0.683905       -18.6100
  37   2.0000      -0.666016       -18.1232
  38   2.0000      -0.638856       -17.3842
  39   2.0000      -0.625450       -17.0193
  40   2.0000      -0.592905       -16.1338
  41   2.0000      -0.574016       -15.6198
  42   2.0000      -0.570201       -15.5159
  43   2.0000      -0.561210       -15.2713
  44   2.0000      -0.532191       -14.4816
  45   2.0000      -0.523844       -14.2545
  46   2.0000      -0.509811       -13.8727
  47   2.0000      -0.507950       -13.8220
  48   2.0000      -0.503482       -13.7004
  49   2.0000      -0.499807       -13.6004
  50   2.0000      -0.497759       -13.5447
  51   2.0000      -0.482263       -13.1230
  52   2.0000      -0.477399       -12.9907
  53   2.0000      -0.460461       -12.5298
  54   2.0000      -0.456696       -12.4273
  55   2.0000      -0.450117       -12.2483
  56   2.0000      -0.443757       -12.0753
  57   2.0000      -0.437934       -11.9168
  58   2.0000      -0.430230       -11.7071
  59   2.0000      -0.427849       -11.6424
  60   2.0000      -0.422451       -11.4955
  61   2.0000      -0.408330       -11.1112
  62   2.0000      -0.407589       -11.0911
  63   2.0000      -0.362425        -9.8621
  64   2.0000      -0.335837        -9.1386
  65   2.0000      -0.322227        -8.7682
  66   2.0000      -0.284455        -7.7404
  67   0.0000       0.029333         0.7982
  68   0.0000       0.071711         1.9514
  69   0.0000       0.107010         2.9119
  70   0.0000       0.116337         3.1657
  71   0.0000       0.122395         3.3305

MULLIKEN ATOMIC CHARGES
-----------------------
   0 S :    0.092808
   1 C :   -0.132960
   2 C :   -0.094788
   3 C :    0.034493
   4 C :   -0.108177
   5 H :   -0.008043
   6 C :    0.061457
   7 H :    0.019211
   8 H :    0.045964
   9 C :   -0.131670
  10 H :    0.040014
  11 H :    0.038717
  12 C :   -0.053528
  13 H :    0.034458
  14 H :    0.046463
  15 H :    0.029384
  16 S :    0.114289
  17 C :   -0.125602
  18 C :   -0.027166
  19 C :   -0.029620
  20 C :   -0.144280
  21 H :    0.009412
  22 C :    0.081656
  23 H :    0.012502
  24 H :    0.031913
  25 C :   -0.068900
  26 H :    0.023195
  27 H :    0.017728
  28 C :   -0.051574
  29 H :    0.044087
  30 H :    0.032821
  31 H :    0.015596
  32 H :    0.076182
  33 H :    0.073960
Sum of atomic charges:   -0.0000000

LOEWDIN ATOMIC CHARGES
----------------------
   0 S :    0.369651
   1 C :   -0.220423
   2 C :   -0.065198
   3 C :   -0.052331
   4 C :   -0.160222
   5 H :    0.024136
   6 C :   -0.035373
   7 H :    0.032248
   8 H :    0.033844
   9 C :   -0.046031
  10 H :    0.030512
  11 H :    0.022474
  12 C :   -0.075235
  13 H :    0.030045
  14 H :    0.031195
  15 H :    0.023697
  16 S :    0.425066
  17 C :   -0.199443
  18 C :   -0.065743
  19 C :   -0.057041
  20 C :   -0.200325
  21 H :    0.028242
  22 C :   -0.030622
  23 H :    0.026256
  24 H :    0.033128
  25 C :   -0.043632
  26 H :    0.023894
  27 H :    0.019370
  28 C :   -0.067147
  29 H :    0.030869
  30 H :    0.027468
  31 H :    0.020892
  32 H :    0.047155
  33 H :    0.038627

  Mayer bond orders larger than 0.100000
B(  0-S ,  1-C ) :   1.1189 B(  0-S ,  4-C ) :   1.0948 B(  1-C ,  2-C ) :   1.6612
B(  1-C , 32-H ) :   0.9515 B(  2-C ,  3-C ) :   1.1546 B(  2-C ,  6-C ) :   1.0525
B(  3-C ,  4-C ) :   1.6575 B(  3-C ,  5-H ) :   1.0016 B(  4-C , 20-C ) :   1.0573
B(  6-C ,  7-H ) :   0.9322 B(  6-C ,  8-H ) :   0.9436 B(  6-C ,  9-C ) :   1.0444
B(  9-C , 10-H ) :   0.9528 B(  9-C , 11-H ) :   0.9626 B(  9-C , 12-C ) :   1.0915
B( 12-C , 13-H ) :   0.9716 B( 12-C , 14-H ) :   0.9694 B( 12-C , 15-H ) :   0.9708
B( 16-S , 17-C ) :   1.1611 B( 16-S , 20-C ) :   1.1536 B( 17-C , 18-C ) :   1.6029
B( 17-C , 20-C ) :   0.1058 B( 17-C , 33-H ) :   0.9602 B( 18-C , 19-C ) :   1.2333
B( 18-C , 21-H ) :   1.0015 B( 19-C , 20-C ) :   1.5780 B( 19-C , 22-C ) :   1.0348
B( 22-C , 23-H ) :   0.9352 B( 22-C , 24-H ) :   0.9379 B( 22-C , 25-C ) :   1.0736
B( 25-C , 26-H ) :   0.9585 B( 25-C , 27-H ) :   0.9525 B( 25-C , 28-C ) :   1.0794
B( 28-C , 29-H ) :   0.9773 B( 28-C , 30-H ) :   0.9747 B( 28-C , 31-H ) :   0.9764

Dispersion correction           -0.013458448
FINAL SINGLE POINT ENERGY     -1339.863981525903

DIPOLE MOMENT
-------------
                                X             Y             Z
Electronic contribution:    -31.46265      -2.47899       6.31190
Nuclear contribution   :     32.08261       2.76443      -6.41183
                        -----------------------------------------
Total Dipole Moment    :      0.61996       0.28544      -0.09993
                        -----------------------------------------
Magnitude (a.u.)       :      0.68979
Magnitude (Debye)      :      1.75331

Rotational constants in cm-1:     0.015750     0.009457     0.006406
Rotational constants in MHz :   472.185969   283.521396   192.034584

                             ****ORCA TERMINATED NORMALLY****
TOTAL RUN TIME: 0 days 0 hours 0 minutes 32 seconds 931 msec
