                         Program Version 4.2.1 -  RELEASE  -
|  1> ! wB97X-D3 SP def2-SVP
|  2> %pal
|  3> nprocs 16
|  4> end
|  5>
|  6> * xyz 0 1
|  7> S 	 13.413 	 -12.5978 	 79.3547
|  8> C 	 13.0106 	 -14.0793 	 80.1904
|  9> C 	 12.1112 	 -14.9464 	 79.4781
| 10> C 	 12.0946 	 -14.51 	 78.1485
| 11> C 	 12.6695 	 -13.2673 	 77.9329
| 12> H 	 11.6165 	 -15.1012 	 77.3797
| 13> C 	 11.4975 	 -16.2579 	 79.9638
| 14> H 	 10.541 	 -16.3281 	 79.4432
| 15> H 	 11.2195 	 -16.103 	 81.079
| 16> C 	 12.2193 	 -17.5455 	 79.6863
| 17> H 	 12.8419 	 -17.4079 	 78.7513
| 18> H 	 12.9911 	 -17.6591 	 80.5241
| 19> C 	 11.2876 	 -18.7905 	 79.6831
| 20> H 	 10.2987 	 -18.6534 	 79.2794
| 21> H 	 11.7054 	 -19.738 	 79.2251
| 22> H 	 10.9927 	 -19.0745 	 80.7042
| 23> S 	 12.5883 	 -10.7536 	 76.6732
| 24> C 	 12.6109 	 -10.6631 	 74.9063
| 25> C 	 12.8343 	 -11.9571 	 74.432
| 26> C 	 12.8018 	 -13.0436 	 75.3873
| 27> C 	 12.7563 	 -12.5417 	 76.658
| 28> H 	 13.1812 	 -12.1615 	 73.425
| 29> C 	 13.0988 	 -14.4559 	 74.9073
| 30> H 	 13.3272 	 -15.1364 	 75.7124
| 31> H 	 13.9868 	 -14.3564 	 74.3119
| 32> C 	 11.9695 	 -15.1099 	 74.0567
| 33> H 	 11.5389 	 -14.3802 	 73.422
| 34> H 	 11.1697 	 -15.4833 	 74.7766
| 35> C 	 12.5788 	 -16.2282 	 73.1976
| 36> H 	 13.2378 	 -15.7518 	 72.433
| 37> H 	 11.7437 	 -16.7844 	 72.8098
| 38> H 	 13.2517 	 -16.9335 	 73.6431
| 39> H 	 13.3326 	 -14.3586 	 81.159
| 40> H 	 12.5076 	 -9.7559 	 74.3603
| 41> *
| 42>
| 43>                          ****END OF INPUT****

CARTESIAN COORDINATES (ANGSTROEM)
---------------------------------
  S     13.413000  -12.597800   79.354700
  C     13.010600  -14.079300   80.190400
  C     12.111200  -14.946400   79.478100
  C     12.094600  -14.510000   78.148500
  C     12.669500  -13.267300   77.932900
  H     11.616500  -15.101200   77.379700
  C     11.497500  -16.257900   79.963800
  H     10.541000  -16.328100   79.443200
  H     11.219500  -16.103000   81.079000
  C     12.219300  -17.545500   79.686300
  H     12.841900  -17.407900   78.751300
  H     12.991100  -17.659100   80.524100
  C     11.287600  -18.790500   79.683100
  H     10.298700  -18.653400   79.279400
  H     11.705400  -19.738000   79.225100
  H     10.992700  -19.074500   80.704200
  S     12.588300  -10.753600   76.673200
  C     12.610900  -10.663100   74.906300
  C     12.834300  -11.957100   74.432000
  C     12.801800  -13.043600   75.387300
  C     12.756300  -12.541700   76.658000
  H     13.181200  -12.161500   73.425000
  C     13.098800  -14.455900   74.907300
  H     13.327200  -15.136400   75.712400
  H     13.986800  -14.356400   74.311900
  C     11.969500  -15.109900   74.056700
  H     11.538900  -14.380200   73.422000
  H     11.169700  -15.483300   74.776600
  C     12.578800  -16.228200   73.197600
  H     13.237800  -15.751800   72.433000
  H     11.743700  -16.784400   72.809800
  H     13.251700  -16.933500   73.643100
  H     13.332600  -14.358600   81.159000
  H     12.507600   -9.755900   74.360300

 Total Charge           Charge          ....    0
 Multiplicity           Mult            ....    1
 Number of Electrons    NEL             ....  134
 Basis Dimension        Dim             ....  322

ORBITAL ENERGIES
----------------

  NO   OCC          E(Eh)            E(eV)
   0   2.0000     -88.974134     -2421.1093
   1   2.0000     -88.962517     -2420.7932
   2   2.0000     -10.328872      -281.0629
   3   2.0000     -10.328406      -281.0502
   4   2.0000     -10.320399      -280.8323
   5   2.0000     -10.315050      -280.6868
   6   2.0000     -10.305129      -280.4168
   7   2.0000     -10.301931      -280.3298
   8   2.0000     -10.301563      -280.3198
   9   2.0000     -10.299600      -280.2664
  10   2.0000     -10.296044      -280.1696
  11   2.0000     -10.292544      -280.0744
  12   2.0000     -10.291534      -280.0469
  13   2.0000     -10.290786      -280.0265
  14   2.0000     -10.288145      -279.9547
  15   2.0000     -10.279825      -279.7283
  16   2.0000      -8.088628      -220.1028
  17   2.0000      -8.076503      -219.7728
  18   2.0000      -6.046975      -164.5466
  19   2.0000      -6.043309      -164.4468
  20   2.0000      -6.039456      -164.3419
  21   2.0000      -6.035263      -164.2278
  22   2.0000      -6.031192      -164.1171
  23   2.0000      -6.026990      -164.0027
  24   2.0000      -1.004464       -27.3328
  25   2.0000      -0.979363       -26.6498
  26   2.0000      -0.913643       -24.8615
  27   2.0000      -0.908787       -24.7294
  28   2.0000      -0.863653       -23.5012
  29   2.0000      -0.856727       -23.3127
  30   2.0000      -0.844634       -22.9836
  31   2.0000      -0.807635       -21.9769
  32   2.0000      -0.782459       -21.2918
  33   2.0000      -0.773123       -21.0377
  34   2.0000      -0.705081       -19.1862
  35   2.0000      -0.702939       -19.1279
  36   2.0000      -0.697022       -18.9669
  37   2.0000      -0.663899       -18.0656
  38   2.0000      -0.637131       -17.3372
  39   2.0000      -0.623287       -16.9605
  40   2.0000      -0.600523       -16.3411
  41   2.0000      -0.566609       -15.4182
  42   2.0000      -0.562549       -15.3077
  43   2.0000      -0.552978       -15.0473
  44   2.0000      -0.529850       -14.4180
  45   2.0000      -0.524350       -14.2683
  46   2.0000      -0.520165       -14.1544
  47   2.0000      -0.515973       -14.0404
  48   2.0000      -0.502887       -13.6843
  49   2.0000      -0.492568       -13.4035
  50   2.0000      -0.488442       -13.2912
  51   2.0000      -0.482774       -13.1369
  52   2.0000      -0.471876       -12.8404
  53   2.0000      -0.463208       -12.6045
  54   2.0000      -0.456200       -12.4138
  55   2.0000      -0.448548       -12.2056
  56   2.0000      -0.446297       -12.1444
  57   2.0000      -0.445160       -12.1134
  58   2.0000      -0.436962       -11.8903
  59   2.0000      -0.431211       -11.7339
  60   2.0000      -0.423991       -11.5374
  61   2.0000      -0.413306       -11.2466
  62   2.0000      -0.409052       -11.1309
  63   2.0000      -0.351766        -9.5721
  64   2.0000      -0.338838        -9.2203
  65   2.0000      -0.325803        -8.8655
  66   2.0000      -0.278895        -7.5891
  67   0.0000       0.025352         0.6899
  68   0.0000       0.066393         1.8066
  69   0.0000       0.105275         2.8647
  70   0.0000       0.115073         3.1313
  71   0.0000       0.124702         3.3933

MULLIKEN ATOMIC CHARGES
-----------------------
   0 S :    0.134268
   1 C :   -0.102394
   2 C :   -0.098931
   3 C :   -0.001974
   4 C :   -0.123864
   5 H :   -0.000040
   6 C :    0.029805
   7 H :    0.023591
   8 H :    0.047273
   9 C :   -0.071218
  10 H :    0.045120
  11 H :    0.041508
  12 C :   -0.065098
  13 H :    0.024506
  14 H :    0.050481
  15 H :    0.026536
  16 S :    0.076245
  17 C :   -0.085139
  18 C :   -0.027986
  19 C :   -0.042858
  20 C :   -0.114103
  21 H :    0.019366
  22 C :    0.033990
  23 H :    0.025133
  24 H :    0.025422
  25 C :   -0.072574
  26 H :    0.027312
  27 H :    0.041539
  28 C :   -0.047580
  29 H :    0.034464
  30 H :    0.037107
  31 H :    0.025924
  32 H :    0.025884
  33 H :    0.058285
Sum of atomic charges:   -0.0000000

LOEWDIN ATOMIC CHARGES
----------------------
   0 S :    0.424585
   1 C :   -0.193244
   2 C :   -0.058061
   3 C :   -0.063374
   4 C :   -0.194183
   5 H :    0.028598
   6 C :   -0.043513
   7 H :    0.030601
   8 H :    0.041851
   9 C :   -0.051005
  10 H :    0.031910
  11 H :    0.034158
  12 C :   -0.077758
  13 H :    0.021193
  14 H :    0.036486
  15 H :    0.028888
  16 S :    0.364548
  17 C :   -0.176652
  18 C :   -0.066302
  19 C :   -0.065593
  20 C :   -0.176050
  21 H :    0.026511
  22 C :   -0.026719
  23 H :    0.027011
  24 H :    0.029240
  25 C :   -0.033449
  26 H :    0.018419
  27 H :    0.028447
  28 C :   -0.066539
  29 H :    0.031001
  30 H :    0.026384
  31 H :    0.020804
  32 H :    0.014391
  33 H :    0.027415

  Mayer bond orders larger than 0.100000
B(  0-S ,  1-C ) :   1.1629 B(  0-S ,  4-C ) :   1.1505 B(  1-C ,  2-C ) :   1.5668
B(  1-C ,  4-C ) :   0.1089 B(  1-C , 32-H ) :   0.9710 B(  2-C ,  3-C ) :   1.2797
B(  2-C ,  6-C ) :   1.0372 B(  3-C ,  4-C ) :   1.5500 B(  3-C ,  5-H ) :   0.9889
B(  4-C , 20-C ) :   1.0384 B(  6-C ,  7-H ) :   0.9379 B(  6-C ,  8-H ) :   0.9365
B(  6-C ,  9-C ) :   1.0508 B(  9-C , 10-H ) :   0.9610 B(  9-C , 11-H ) :   0.9536
B(  9-C , 12-C ) :   1.0586 B( 12-C , 13-H ) :   0.9778 B( 12-C , 14-H ) :   0.9764
B( 12-C , 15-H ) :   0.9735 B( 16-S , 17-C ) :   1.1301 B( 16-S , 20-C ) :   1.1175
B( 17-C , 18-C ) :   1.6118 B( 17-C , 33-H ) :   0.9780 B( 18-C , 19-C ) :   1.2184
B( 18-C , 21-H ) :   0.9800 B( 19-C , 20-C ) :   1.6420 B( 19-C , 22-C ) :   1.0307
B( 22-C , 23-H ) :   0.9386 B( 22-C , 24-H ) :   0.9464 B( 22-C , 25-C ) :   1.0520
B( 25-C , 26-H ) :   0.9602 B( 25-C , 27-H ) :   0.9537 B( 25-C , 28-C ) :   1.0727
B( 28-C , 29-H ) :   0.9747 B( 28-C , 30-H ) :   0.9737 B( 28-C , 31-H ) :   0.9765

Dispersion correction           -0.013704228
FINAL SINGLE POINT ENERGY     -1339.867562660234

DIPOLE MOMENT
-------------
                                X             Y             Z
Electronic contribution:      5.75743      32.30300       7.78638
Nuclear contribution   :     -5.80974     -33.04989      -8.03468
                        -----------------------------------------
Total Dipole Moment    :     -0.05232      -0.74689      -0.24830
                        -----------------------------------------
Magnitude (a.u.)       :      0.78882
Magnitude (Debye)      :      2.00501

Rotational constants in cm-1:     0.016313     0.009218     0.006159
Rotational constants in MHz :   489.039052   276.360241   184.646842

                             ****ORCA TERMINATED NORMALLY****
TOTAL RUN TIME: 0 days 0 hours 0 minutes 28 seconds 10 msec
