                         Program Version 4.2.1 -  RELEASE  -
|  1> ! wB97X-D3 SP def2-SVP
|  2> %pal
|  3> nprocs 16
|  4> end
|  5>
|  6> * xyz 0 1
|  7> S 	 26.9774 	 32.5453 	 57.783
|  8> C 	 25.2985 	 32.1083 	 57.4767
|  9> C 	 25.0268 	 31.927 	 56.096
| 10> C 	 26.2315 	 32.2058 	 55.387
| 11> C 	 27.4218 	 32.4443 	 56.0851
| 12> H 	 26.1302 	 32.3398 	 54.3332
| 13> C 	 23.6421 	 31.6557 	 55.4358
| 14> H 	 23.4034 	 32.324 	 54.6119
| 15> H 	 22.9617 	 31.8689 	 56.2562
| 16> C 	 23.3315 	 30.21 	 55.0585
| 17> H 	 23.7333 	 30.0643 	 54.0487
| 18> H 	 23.7726 	 29.4753 	 55.6767
| 19> C 	 21.8989 	 29.9725 	 54.7809
| 20> H 	 21.5285 	 30.7319 	 54.085
| 21> H 	 21.8791 	 29.1145 	 54.0851
| 22> H 	 21.334 	 29.7366 	 55.7223
| 23> S 	 29.4269 	 34.296 	 56.4194
| 24> C 	 30.8815 	 34.1868 	 55.4124
| 25> C 	 30.7714 	 33.2901 	 54.3574
| 26> C 	 29.5146 	 32.5963 	 54.4725
| 27> C 	 28.7411 	 32.8932 	 55.5813
| 28> H 	 31.5212 	 33.3413 	 53.5663
| 29> C 	 29.0601 	 31.5002 	 53.4963
| 30> H 	 28.1163 	 31.0725 	 53.8692
| 31> H 	 29.8832 	 30.7572 	 53.4618
| 32> C 	 28.78 	 31.9077 	 51.9802
| 33> H 	 28.5451 	 31.096 	 51.3987
| 34> H 	 29.7939 	 32.2251 	 51.571
| 35> C 	 27.8213 	 33.0465 	 51.7544
| 36> H 	 28.0253 	 33.9033 	 52.3903
| 37> H 	 26.7671 	 32.815 	 51.9351
| 38> H 	 27.9019 	 33.2251 	 50.6561
| 39> H 	 24.5844 	 31.9489 	 58.2248
| 40> H 	 31.7161 	 34.8843 	 55.408
| 41> *
| 42>
| 43>                          ****END OF INPUT****

CARTESIAN COORDINATES (ANGSTROEM)
---------------------------------
  S     26.977400   32.545300   57.783000
  C     25.298500   32.108300   57.476700
  C     25.026800   31.927000   56.096000
  C     26.231500   32.205800   55.387000
  C     27.421800   32.444300   56.085100
  H     26.130200   32.339800   54.333200
  C     23.642100   31.655700   55.435800
  H     23.403400   32.324000   54.611900
  H     22.961700   31.868900   56.256200
  C     23.331500   30.210000   55.058500
  H     23.733300   30.064300   54.048700
  H     23.772600   29.475300   55.676700
  C     21.898900   29.972500   54.780900
  H     21.528500   30.731900   54.085000
  H     21.879100   29.114500   54.085100
  H     21.334000   29.736600   55.722300
  S     29.426900   34.296000   56.419400
  C     30.881500   34.186800   55.412400
  C     30.771400   33.290100   54.357400
  C     29.514600   32.596300   54.472500
  C     28.741100   32.893200   55.581300
  H     31.521200   33.341300   53.566300
  C     29.060100   31.500200   53.496300
  H     28.116300   31.072500   53.869200
  H     29.883200   30.757200   53.461800
  C     28.780000   31.907700   51.980200
  H     28.545100   31.096000   51.398700
  H     29.793900   32.225100   51.571000
  C     27.821300   33.046500   51.754400
  H     28.025300   33.903300   52.390300
  H     26.767100   32.815000   51.935100
  H     27.901900   33.225100   50.656100
  H     24.584400   31.948900   58.224800
  H     31.716100   34.884300   55.408000

 Total Charge           Charge          ....    0
 Multiplicity           Mult            ....    1
 Number of Electrons    NEL             ....  134
 Basis Dimension        Dim             ....  322

ORBITAL ENERGIES
----------------

  NO   OCC          E(Eh)            E(eV)
   0   2.0000     -88.970810     -2421.0188
   1   2.0000     -88.966742     -2420.9081
   2   2.0000     -10.337042      -281.2852
   3   2.0000     -10.332567      -281.1634
   4   2.0000     -10.321247      -280.8554
   5   2.0000     -10.318889      -280.7912
   6   2.0000     -10.308394      -280.5057
   7   2.0000     -10.308324      -280.5038
   8   2.0000     -10.300531      -280.2917
   9   2.0000     -10.298662      -280.2409
  10   2.0000     -10.293642      -280.1042
  11   2.0000     -10.292745      -280.0798
  12   2.0000     -10.285815      -279.8913
  13   2.0000     -10.282568      -279.8029
  14   2.0000     -10.279584      -279.7217
  15   2.0000     -10.277177      -279.6562
  16   2.0000      -8.084816      -219.9990
  17   2.0000      -8.080804      -219.8899
  18   2.0000      -6.043409      -164.4495
  19   2.0000      -6.039397      -164.3403
  20   2.0000      -6.039298      -164.3376
  21   2.0000      -6.035647      -164.2383
  22   2.0000      -6.035560      -164.2359
  23   2.0000      -6.031338      -164.1210
  24   2.0000      -1.002144       -27.2697
  25   2.0000      -0.979748       -26.6603
  26   2.0000      -0.919644       -25.0248
  27   2.0000      -0.900156       -24.4945
  28   2.0000      -0.871750       -23.7215
  29   2.0000      -0.851024       -23.1575
  30   2.0000      -0.845849       -23.0167
  31   2.0000      -0.815524       -22.1915
  32   2.0000      -0.783245       -21.3132
  33   2.0000      -0.770343       -20.9621
  34   2.0000      -0.706363       -19.2211
  35   2.0000      -0.694543       -18.8995
  36   2.0000      -0.692525       -18.8446
  37   2.0000      -0.658455       -17.9175
  38   2.0000      -0.641809       -17.4645
  39   2.0000      -0.625026       -17.0078
  40   2.0000      -0.586761       -15.9666
  41   2.0000      -0.582755       -15.8576
  42   2.0000      -0.567852       -15.4520
  43   2.0000      -0.550469       -14.9790
  44   2.0000      -0.543217       -14.7817
  45   2.0000      -0.523164       -14.2360
  46   2.0000      -0.518569       -14.1110
  47   2.0000      -0.511564       -13.9204
  48   2.0000      -0.506413       -13.7802
  49   2.0000      -0.502675       -13.6785
  50   2.0000      -0.493309       -13.4236
  51   2.0000      -0.478616       -13.0238
  52   2.0000      -0.465400       -12.6642
  53   2.0000      -0.460599       -12.5335
  54   2.0000      -0.456096       -12.4110
  55   2.0000      -0.454153       -12.3581
  56   2.0000      -0.450856       -12.2684
  57   2.0000      -0.437458       -11.9038
  58   2.0000      -0.431561       -11.7434
  59   2.0000      -0.425035       -11.5658
  60   2.0000      -0.418931       -11.3997
  61   2.0000      -0.408658       -11.1202
  62   2.0000      -0.403302       -10.9744
  63   2.0000      -0.351885        -9.5753
  64   2.0000      -0.331883        -9.0310
  65   2.0000      -0.329785        -8.9739
  66   2.0000      -0.287903        -7.8342
  67   0.0000       0.022360         0.6084
  68   0.0000       0.069231         1.8839
  69   0.0000       0.097164         2.6440
  70   0.0000       0.122943         3.3454
  71   0.0000       0.125064         3.4032

MULLIKEN ATOMIC CHARGES
-----------------------
   0 S :    0.110146
   1 C :   -0.103902
   2 C :   -0.101644
   3 C :    0.033311
   4 C :   -0.123661
   5 H :   -0.014868
   6 C :    0.067745
   7 H :    0.036902
   8 H :    0.013330
   9 C :   -0.055537
  10 H :    0.013883
  11 H :    0.026329
  12 C :   -0.049645
  13 H :    0.025248
  14 H :    0.025584
  15 H :    0.053253
  16 S :    0.093485
  17 C :   -0.088072
  18 C :   -0.038795
  19 C :   -0.053328
  20 C :   -0.122988
  21 H :    0.033931
  22 C :    0.039796
  23 H :    0.028751
  24 H :    0.038230
  25 C :   -0.062649
  26 H :    0.014017
  27 H :    0.018927
  28 C :   -0.063299
  29 H :    0.048496
  30 H :    0.032440
  31 H :    0.039266
  32 H :    0.030125
  33 H :    0.055195
Sum of atomic charges:   -0.0000000

LOEWDIN ATOMIC CHARGES
----------------------
   0 S :    0.409294
   1 C :   -0.182568
   2 C :   -0.058919
   3 C :   -0.064277
   4 C :   -0.199046
   5 H :    0.020632
   6 C :   -0.027496
   7 H :    0.033046
   8 H :    0.029121
   9 C :   -0.045362
  10 H :    0.024961
  11 H :    0.020848
  12 C :   -0.069078
  13 H :    0.028575
  14 H :    0.030780
  15 H :    0.030857
  16 S :    0.383710
  17 C :   -0.171889
  18 C :   -0.071983
  19 C :   -0.057736
  20 C :   -0.188874
  21 H :    0.039227
  22 C :   -0.032223
  23 H :    0.027724
  24 H :    0.033840
  25 C :   -0.037068
  26 H :    0.012332
  27 H :    0.024280
  28 C :   -0.070489
  29 H :    0.028592
  30 H :    0.019745
  31 H :    0.035278
  32 H :    0.015235
  33 H :    0.028933

  Mayer bond orders larger than 0.100000
B(  0-S ,  1-C ) :   1.1629 B(  0-S ,  4-C ) :   1.1491 B(  1-C ,  2-C ) :   1.5692
B(  1-C ,  4-C ) :   0.1073 B(  1-C , 32-H ) :   0.9699 B(  2-C ,  3-C ) :   1.3026
B(  2-C ,  6-C ) :   1.0135 B(  3-C ,  4-C ) :   1.5221 B(  3-C ,  5-H ) :   0.9868
B(  4-C , 20-C ) :   1.0463 B(  6-C ,  7-H ) :   0.9418 B(  6-C ,  8-H ) :   0.9430
B(  6-C ,  9-C ) :   1.0646 B(  9-C , 10-H ) :   0.9530 B(  9-C , 11-H ) :   0.9571
B(  9-C , 12-C ) :   1.0942 B( 12-C , 13-H ) :   0.9655 B( 12-C , 14-H ) :   0.9735
B( 12-C , 15-H ) :   0.9726 B( 16-S , 17-C ) :   1.1491 B( 16-S , 20-C ) :   1.1185
B( 17-C , 18-C ) :   1.6395 B( 17-C , 33-H ) :   0.9620 B( 18-C , 19-C ) :   1.2047
B( 18-C , 21-H ) :   0.9909 B( 19-C , 20-C ) :   1.6210 B( 19-C , 22-C ) :   1.0418
B( 22-C , 23-H ) :   0.9385 B( 22-C , 24-H ) :   0.9407 B( 22-C , 25-C ) :   1.0643
B( 25-C , 26-H ) :   0.9577 B( 25-C , 27-H ) :   0.9559 B( 25-C , 28-C ) :   1.0789
B( 28-C , 29-H ) :   0.9740 B( 28-C , 30-H ) :   0.9696 B( 28-C , 31-H ) :   0.9699

Dispersion correction           -0.014122728
FINAL SINGLE POINT ENERGY     -1339.857669438690

DIPOLE MOMENT
-------------
                                X             Y             Z
Electronic contribution:     17.77203      12.02972      22.62910
Nuclear contribution   :    -18.12638     -12.19191     -23.33356
                        -----------------------------------------
Total Dipole Moment    :     -0.35435      -0.16219      -0.70445
                        -----------------------------------------
Magnitude (a.u.)       :      0.80506
Magnitude (Debye)      :      2.04630

Rotational constants in cm-1:     0.019678     0.008444     0.006271
Rotational constants in MHz :   589.945800   253.136872   188.001855

                             ****ORCA TERMINATED NORMALLY****
TOTAL RUN TIME: 0 days 0 hours 0 minutes 34 seconds 880 msec
