                         Program Version 4.2.1 -  RELEASE  -
|  1> ! wB97X-D3 SP def2-SVP
|  2> %pal
|  3> nprocs 16
|  4> end
|  5>
|  6> * xyz 0 1
|  7> S 	 -30.6338 	 54.9711 	 102.327
|  8> C 	 -31.0154 	 54.7133 	 100.664
|  9> C 	 -32.2929 	 55.2405 	 100.315
| 10> C 	 -32.8066 	 56.0205 	 101.333
| 11> C 	 -32.0668 	 55.9743 	 102.534
| 12> H 	 -33.7225 	 56.5135 	 101.243
| 13> C 	 -32.979 	 55.1282 	 98.9382
| 14> H 	 -32.2274 	 54.9889 	 98.2189
| 15> H 	 -33.3297 	 56.113 	 98.6224
| 16> C 	 -34.0778 	 54.0731 	 98.8752
| 17> H 	 -33.5763 	 53.1973 	 99.2658
| 18> H 	 -34.888 	 54.4076 	 99.5806
| 19> C 	 -34.8742 	 53.8652 	 97.5236
| 20> H 	 -34.0916 	 53.5961 	 96.7764
| 21> H 	 -35.5581 	 52.9991 	 97.6424
| 22> H 	 -35.374 	 54.721 	 97.1162
| 23> S 	 -32.0516 	 55.743 	 105.302
| 24> C 	 -32.0071 	 57.1658 	 106.17
| 25> C 	 -32.6447 	 58.1675 	 105.494
| 26> C 	 -33.0269 	 57.8157 	 104.202
| 27> C 	 -32.4176 	 56.6017 	 103.806
| 28> H 	 -32.6955 	 59.1543 	 105.969
| 29> C 	 -33.764 	 58.8035 	 103.277
| 30> H 	 -34.8155 	 58.6051 	 103.1
| 31> H 	 -33.4751 	 58.735 	 102.261
| 32> C 	 -33.6349 	 60.278 	 103.736
| 33> H 	 -32.5331 	 60.4644 	 103.704
| 34> H 	 -33.9876 	 60.6557 	 104.683
| 35> C 	 -34.3211 	 61.1177 	 102.596
| 36> H 	 -34.4411 	 60.5703 	 101.705
| 37> H 	 -33.8328 	 62.0393 	 102.494
| 38> H 	 -35.4027 	 61.1629 	 102.868
| 39> H 	 -30.4393 	 53.9794 	 100.108
| 40> H 	 -31.7595 	 57.2208 	 107.233
| 41> *
| 42>
| 43>                          ****END OF INPUT****

CARTESIAN COORDINATES (ANGSTROEM)
---------------------------------
  S    -30.633800   54.971100  102.327000
  C    -31.015400   54.713300  100.664000
  C    -32.292900   55.240500  100.315000
  C    -32.806600   56.020500  101.333000
  C    -32.066800   55.974300  102.534000
  H    -33.722500   56.513500  101.243000
  C    -32.979000   55.128200   98.938200
  H    -32.227400   54.988900   98.218900
  H    -33.329700   56.113000   98.622400
  C    -34.077800   54.073100   98.875200
  H    -33.576300   53.197300   99.265800
  H    -34.888000   54.407600   99.580600
  C    -34.874200   53.865200   97.523600
  H    -34.091600   53.596100   96.776400
  H    -35.558100   52.999100   97.642400
  H    -35.374000   54.721000   97.116200
  S    -32.051600   55.743000  105.302000
  C    -32.007100   57.165800  106.170000
  C    -32.644700   58.167500  105.494000
  C    -33.026900   57.815700  104.202000
  C    -32.417600   56.601700  103.806000
  H    -32.695500   59.154300  105.969000
  C    -33.764000   58.803500  103.277000
  H    -34.815500   58.605100  103.100000
  H    -33.475100   58.735000  102.261000
  C    -33.634900   60.278000  103.736000
  H    -32.533100   60.464400  103.704000
  H    -33.987600   60.655700  104.683000
  C    -34.321100   61.117700  102.596000
  H    -34.441100   60.570300  101.705000
  H    -33.832800   62.039300  102.494000
  H    -35.402700   61.162900  102.868000
  H    -30.439300   53.979400  100.108000
  H    -31.759500   57.220800  107.233000

 Total Charge           Charge          ....    0
 Multiplicity           Mult            ....    1
 Number of Electrons    NEL             ....  134
 Basis Dimension        Dim             ....  322

ORBITAL ENERGIES
----------------

  NO   OCC          E(Eh)            E(eV)
   0   2.0000     -88.972953     -2421.0771
   1   2.0000     -88.959191     -2420.7026
   2   2.0000     -10.334532      -281.2169
   3   2.0000     -10.327651      -281.0297
   4   2.0000     -10.317792      -280.7614
   5   2.0000     -10.304845      -280.4091
   6   2.0000     -10.304474      -280.3990
   7   2.0000     -10.304084      -280.3884
   8   2.0000     -10.292535      -280.0741
   9   2.0000     -10.292106      -280.0625
  10   2.0000     -10.289611      -279.9945
  11   2.0000     -10.289462      -279.9905
  12   2.0000     -10.289316      -279.9865
  13   2.0000     -10.287210      -279.9292
  14   2.0000     -10.286130      -279.8998
  15   2.0000     -10.273415      -279.5538
  16   2.0000      -8.087387      -220.0690
  17   2.0000      -8.075704      -219.7511
  18   2.0000      -6.045684      -164.5114
  19   2.0000      -6.041828      -164.4065
  20   2.0000      -6.038482      -164.3155
  21   2.0000      -6.033947      -164.1920
  22   2.0000      -6.030175      -164.0894
  23   2.0000      -6.026425      -163.9874
  24   2.0000      -1.011699       -27.5297
  25   2.0000      -0.990515       -26.9533
  26   2.0000      -0.910247       -24.7691
  27   2.0000      -0.908177       -24.7128
  28   2.0000      -0.865051       -23.5392
  29   2.0000      -0.854835       -23.2612
  30   2.0000      -0.847366       -23.0580
  31   2.0000      -0.810086       -22.0436
  32   2.0000      -0.784403       -21.3447
  33   2.0000      -0.771295       -20.9880
  34   2.0000      -0.710656       -19.3379
  35   2.0000      -0.702067       -19.1042
  36   2.0000      -0.697061       -18.9680
  37   2.0000      -0.654239       -17.8027
  38   2.0000      -0.636467       -17.3191
  39   2.0000      -0.629964       -17.1422
  40   2.0000      -0.605600       -16.4792
  41   2.0000      -0.569033       -15.4842
  42   2.0000      -0.562743       -15.3130
  43   2.0000      -0.558603       -15.2004
  44   2.0000      -0.535776       -14.5792
  45   2.0000      -0.525787       -14.3074
  46   2.0000      -0.516568       -14.0565
  47   2.0000      -0.512389       -13.9428
  48   2.0000      -0.502696       -13.6791
  49   2.0000      -0.496924       -13.5220
  50   2.0000      -0.485184       -13.2025
  51   2.0000      -0.481426       -13.1003
  52   2.0000      -0.475543       -12.9402
  53   2.0000      -0.464403       -12.6371
  54   2.0000      -0.462722       -12.5913
  55   2.0000      -0.457002       -12.4357
  56   2.0000      -0.447012       -12.1638
  57   2.0000      -0.438038       -11.9196
  58   2.0000      -0.435512       -11.8509
  59   2.0000      -0.427111       -11.6223
  60   2.0000      -0.417372       -11.3573
  61   2.0000      -0.412032       -11.2120
  62   2.0000      -0.408540       -11.1169
  63   2.0000      -0.350457        -9.5364
  64   2.0000      -0.337898        -9.1947
  65   2.0000      -0.326274        -8.8784
  66   2.0000      -0.275625        -7.5001
  67   0.0000       0.014209         0.3866
  68   0.0000       0.073783         2.0078
  69   0.0000       0.110267         3.0005
  70   0.0000       0.121118         3.2958
  71   0.0000       0.135676         3.6919

MULLIKEN ATOMIC CHARGES
-----------------------
   0 S :    0.135095
   1 C :   -0.130082
   2 C :   -0.099523
   3 C :    0.040289
   4 C :   -0.131025
   5 H :   -0.013838
   6 C :    0.096757
   7 H :   -0.001317
   8 H :    0.012177
   9 C :   -0.093259
  10 H :    0.033695
  11 H :    0.034117
  12 C :   -0.048053
  13 H :    0.028505
  14 H :    0.051082
  15 H :    0.036828
  16 S :    0.104292
  17 C :   -0.080919
  18 C :   -0.074165
  19 C :    0.028137
  20 C :   -0.177728
  21 H :    0.029273
  22 C :    0.052987
  23 H :    0.024448
  24 H :    0.010177
  25 C :   -0.130000
  26 H :    0.039240
  27 H :    0.043878
  28 C :   -0.009398
  29 H :    0.009864
  30 H :    0.036619
  31 H :    0.026979
  32 H :    0.055979
  33 H :    0.058888
Sum of atomic charges:    0.0000000

LOEWDIN ATOMIC CHARGES
----------------------
   0 S :    0.433933
   1 C :   -0.210510
   2 C :   -0.056846
   3 C :   -0.056319
   4 C :   -0.192448
   5 H :    0.020814
   6 C :   -0.031393
   7 H :    0.019851
   8 H :    0.027175
   9 C :   -0.042633
  10 H :    0.025334
  11 H :    0.027656
  12 C :   -0.067975
  13 H :    0.026446
  14 H :    0.034266
  15 H :    0.022495
  16 S :    0.424310
  17 C :   -0.214713
  18 C :   -0.082767
  19 C :   -0.052293
  20 C :   -0.190593
  21 H :    0.037093
  22 C :   -0.033165
  23 H :    0.029893
  24 H :    0.025754
  25 C :   -0.040398
  26 H :    0.027125
  27 H :    0.020637
  28 C :   -0.056782
  29 H :    0.015998
  30 H :    0.020294
  31 H :    0.032116
  32 H :    0.025372
  33 H :    0.032276

  Mayer bond orders larger than 0.100000
B(  0-S ,  1-C ) :   1.1727 B(  0-S ,  4-C ) :   1.1723 B(  1-C ,  2-C ) :   1.5300
B(  1-C ,  4-C ) :   0.1140 B(  1-C , 32-H ) :   0.9670 B(  2-C ,  3-C ) :   1.3294
B(  2-C ,  6-C ) :   1.0209 B(  3-C ,  4-C ) :   1.4784 B(  3-C ,  5-H ) :   0.9995
B(  4-C , 20-C ) :   1.1025 B(  6-C ,  7-H ) :   0.9365 B(  6-C ,  8-H ) :   0.9413
B(  6-C ,  9-C ) :   1.0503 B(  9-C , 10-H ) :   0.9581 B(  9-C , 11-H ) :   0.9595
B(  9-C , 12-C ) :   1.0698 B( 12-C , 13-H ) :   0.9761 B( 12-C , 14-H ) :   0.9759
B( 12-C , 15-H ) :   0.9761 B( 16-S , 17-C ) :   1.1700 B( 16-S , 20-C ) :   1.1599
B( 17-C , 18-C ) :   1.5638 B( 17-C , 20-C ) :   0.1037 B( 17-C , 33-H ) :   0.9626
B( 18-C , 19-C ) :   1.2902 B( 18-C , 21-H ) :   0.9886 B( 19-C , 20-C ) :   1.5088
B( 19-C , 22-C ) :   1.0229 B( 22-C , 23-H ) :   0.9320 B( 22-C , 24-H ) :   0.9317
B( 22-C , 25-C ) :   1.0687 B( 25-C , 26-H ) :   0.9625 B( 25-C , 27-H ) :   0.9560
B( 25-C , 28-C ) :   1.0679 B( 28-C , 29-H ) :   0.9738 B( 28-C , 30-H ) :   0.9749
B( 28-C , 31-H ) :   0.9738

Dispersion correction           -0.013175825
FINAL SINGLE POINT ENERGY     -1339.843126668660

DIPOLE MOMENT
-------------
                                X             Y             Z
Electronic contribution:     17.49691     -12.04283      20.37314
Nuclear contribution   :    -17.87045      12.34369     -20.77769
                        -----------------------------------------
Total Dipole Moment    :     -0.37354       0.30085      -0.40455
                        -----------------------------------------
Magnitude (a.u.)       :      0.62746
Magnitude (Debye)      :      1.59488

Rotational constants in cm-1:     0.017207     0.007977     0.006012
Rotational constants in MHz :   515.853842   239.155246   180.240258

                             ****ORCA TERMINATED NORMALLY****
TOTAL RUN TIME: 0 days 0 hours 0 minutes 29 seconds 274 msec
