                         Program Version 4.2.1 -  RELEASE  -
|  1> ! wB97X-D3 SP def2-SVP
|  2> %pal
|  3> nprocs 16
|  4> end
|  5>
|  6> * xyz 0 1
|  7> S 	 -38.7107 	 64.5155 	 147.481
|  8> C 	 -39.2495 	 64.3315 	 145.831
|  9> C 	 -39.3071 	 65.5308 	 145.202
| 10> C 	 -38.9111 	 66.5813 	 146.06
| 11> C 	 -38.4449 	 66.1979 	 147.307
| 12> H 	 -38.8271 	 67.6355 	 145.874
| 13> C 	 -39.6489 	 65.6552 	 143.756
| 14> H 	 -39.9634 	 66.6642 	 143.4
| 15> H 	 -40.5394 	 65.1095 	 143.417
| 16> C 	 -38.5818 	 65.3351 	 142.81
| 17> H 	 -38.3142 	 64.2956 	 142.947
| 18> H 	 -38.9546 	 65.4605 	 141.805
| 19> C 	 -37.4695 	 66.3458 	 142.988
| 20> H 	 -36.8268 	 66.0876 	 142.125
| 21> H 	 -37.7532 	 67.4061 	 142.907
| 22> H 	 -37.0013 	 66.1289 	 143.943
| 23> S 	 -39.2807 	 67.1571 	 149.707
| 24> C 	 -38.5098 	 68.6335 	 150.276
| 25> C 	 -37.348 	 68.8833 	 149.637
| 26> C 	 -37.141 	 68.0059 	 148.544
| 27> C 	 -38.1776 	 67.1236 	 148.422
| 28> H 	 -36.6745 	 69.6462 	 149.897
| 29> C 	 -36.0243 	 68.201 	 147.593
| 30> H 	 -35.7076 	 69.2322 	 147.721
| 31> H 	 -36.4355 	 68.1465 	 146.593
| 32> C 	 -34.8406 	 67.1804 	 147.665
| 33> H 	 -35.1062 	 66.15 	 147.475
| 34> H 	 -34.5567 	 67.1227 	 148.739
| 35> C 	 -33.4701 	 67.4695 	 146.948
| 36> H 	 -32.8648 	 68.3231 	 147.301
| 37> H 	 -33.5957 	 67.6533 	 145.893
| 38> H 	 -32.9329 	 66.4998 	 146.908
| 39> H 	 -39.4646 	 63.4407 	 145.274
| 40> H 	 -38.8441 	 69.103 	 151.23
| 41> *
| 42>
| 43>                          ****END OF INPUT****

CARTESIAN COORDINATES (ANGSTROEM)
---------------------------------
  S    -38.710700   64.515500  147.481000
  C    -39.249500   64.331500  145.831000
  C    -39.307100   65.530800  145.202000
  C    -38.911100   66.581300  146.060000
  C    -38.444900   66.197900  147.307000
  H    -38.827100   67.635500  145.874000
  C    -39.648900   65.655200  143.756000
  H    -39.963400   66.664200  143.400000
  H    -40.539400   65.109500  143.417000
  C    -38.581800   65.335100  142.810000
  H    -38.314200   64.295600  142.947000
  H    -38.954600   65.460500  141.805000
  C    -37.469500   66.345800  142.988000
  H    -36.826800   66.087600  142.125000
  H    -37.753200   67.406100  142.907000
  H    -37.001300   66.128900  143.943000
  S    -39.280700   67.157100  149.707000
  C    -38.509800   68.633500  150.276000
  C    -37.348000   68.883300  149.637000
  C    -37.141000   68.005900  148.544000
  C    -38.177600   67.123600  148.422000
  H    -36.674500   69.646200  149.897000
  C    -36.024300   68.201000  147.593000
  H    -35.707600   69.232200  147.721000
  H    -36.435500   68.146500  146.593000
  C    -34.840600   67.180400  147.665000
  H    -35.106200   66.150000  147.475000
  H    -34.556700   67.122700  148.739000
  C    -33.470100   67.469500  146.948000
  H    -32.864800   68.323100  147.301000
  H    -33.595700   67.653300  145.893000
  H    -32.932900   66.499800  146.908000
  H    -39.464600   63.440700  145.274000
  H    -38.844100   69.103000  151.230000

 Total Charge           Charge          ....    0
 Multiplicity           Mult            ....    1
 Number of Electrons    NEL             ....  134
 Basis Dimension        Dim             ....  322

ORBITAL ENERGIES
----------------

  NO   OCC          E(Eh)            E(eV)
   0   2.0000     -88.967294     -2420.9231
   1   2.0000     -88.965061     -2420.8624
   2   2.0000     -10.324482      -280.9434
   3   2.0000     -10.319863      -280.8177
   4   2.0000     -10.316552      -280.7277
   5   2.0000     -10.310121      -280.5526
   6   2.0000     -10.296771      -280.1894
   7   2.0000     -10.294704      -280.1331
   8   2.0000     -10.289796      -279.9996
   9   2.0000     -10.289566      -279.9933
  10   2.0000     -10.289370      -279.9880
  11   2.0000     -10.287724      -279.9432
  12   2.0000     -10.283635      -279.8319
  13   2.0000     -10.281405      -279.7712
  14   2.0000     -10.275842      -279.6199
  15   2.0000     -10.274005      -279.5699
  16   2.0000      -8.082535      -219.9370
  17   2.0000      -8.081056      -219.8967
  18   2.0000      -6.040976      -164.3833
  19   2.0000      -6.039380      -164.3399
  20   2.0000      -6.036843      -164.2709
  21   2.0000      -6.035563      -164.2360
  22   2.0000      -6.033462      -164.1789
  23   2.0000      -6.031758      -164.1325
  24   2.0000      -1.018300       -27.7093
  25   2.0000      -0.996232       -27.1089
  26   2.0000      -0.929194       -25.2846
  27   2.0000      -0.904033       -24.6000
  28   2.0000      -0.875331       -23.8190
  29   2.0000      -0.851139       -23.1607
  30   2.0000      -0.846414       -23.0321
  31   2.0000      -0.818994       -22.2860
  32   2.0000      -0.785541       -21.3757
  33   2.0000      -0.774174       -21.0663
  34   2.0000      -0.707205       -19.2440
  35   2.0000      -0.698346       -19.0030
  36   2.0000      -0.691758       -18.8237
  37   2.0000      -0.670569       -18.2471
  38   2.0000      -0.644275       -17.5316
  39   2.0000      -0.612999       -16.6805
  40   2.0000      -0.600322       -16.3356
  41   2.0000      -0.589099       -16.0302
  42   2.0000      -0.559167       -15.2157
  43   2.0000      -0.554317       -15.0837
  44   2.0000      -0.543408       -14.7869
  45   2.0000      -0.529022       -14.3954
  46   2.0000      -0.511063       -13.9067
  47   2.0000      -0.507838       -13.8190
  48   2.0000      -0.505014       -13.7421
  49   2.0000      -0.500482       -13.6188
  50   2.0000      -0.489624       -13.3233
  51   2.0000      -0.483953       -13.1690
  52   2.0000      -0.478566       -13.0224
  53   2.0000      -0.468314       -12.7435
  54   2.0000      -0.460036       -12.5182
  55   2.0000      -0.455372       -12.3913
  56   2.0000      -0.438231       -11.9249
  57   2.0000      -0.436897       -11.8886
  58   2.0000      -0.433099       -11.7852
  59   2.0000      -0.428219       -11.6524
  60   2.0000      -0.415333       -11.3018
  61   2.0000      -0.409216       -11.1353
  62   2.0000      -0.406504       -11.0615
  63   2.0000      -0.346527        -9.4295
  64   2.0000      -0.332694        -9.0531
  65   2.0000      -0.329421        -8.9640
  66   2.0000      -0.300617        -8.1802
  67   0.0000       0.040693         1.1073
  68   0.0000       0.062794         1.7087
  69   0.0000       0.113330         3.0839
  70   0.0000       0.125640         3.4189
  71   0.0000       0.128245         3.4897

MULLIKEN ATOMIC CHARGES
-----------------------
   0 S :    0.114292
   1 C :   -0.108486
   2 C :   -0.040295
   3 C :    0.037059
   4 C :   -0.177098
   5 H :    0.004693
   6 C :    0.042388
   7 H :    0.009285
   8 H :    0.020316
   9 C :   -0.056187
  10 H :    0.020058
  11 H :    0.019075
  12 C :   -0.065097
  13 H :    0.034268
  14 H :    0.033785
  15 H :    0.052754
  16 S :    0.122325
  17 C :   -0.104831
  18 C :   -0.005230
  19 C :   -0.058635
  20 C :   -0.165651
  21 H :   -0.000077
  22 C :    0.128574
  23 H :    0.010156
  24 H :    0.016114
  25 C :   -0.085090
  26 H :    0.030262
  27 H :    0.024963
  28 C :   -0.059412
  29 H :    0.044362
  30 H :    0.018110
  31 H :    0.039161
  32 H :    0.036746
  33 H :    0.067344
Sum of atomic charges:    0.0000000

LOEWDIN ATOMIC CHARGES
----------------------
   0 S :    0.423358
   1 C :   -0.190724
   2 C :   -0.067058
   3 C :   -0.059012
   4 C :   -0.210781
   5 H :    0.027449
   6 C :   -0.044154
   7 H :    0.030866
   8 H :    0.029764
   9 C :   -0.040091
  10 H :    0.019239
  11 H :    0.021932
  12 C :   -0.065078
  13 H :    0.029731
  14 H :    0.026157
  15 H :    0.027086
  16 S :    0.424592
  17 C :   -0.182096
  18 C :   -0.061823
  19 C :   -0.060131
  20 C :   -0.213254
  21 H :    0.026155
  22 C :   -0.032025
  23 H :    0.029742
  24 H :    0.030026
  25 C :   -0.042192
  26 H :    0.025105
  27 H :    0.026483
  28 C :   -0.074361
  29 H :    0.027610
  30 H :    0.019030
  31 H :    0.035631
  32 H :    0.028718
  33 H :    0.034105

  Mayer bond orders larger than 0.100000
B(  0-S ,  1-C ) :   1.1454 B(  0-S ,  4-C ) :   1.1594 B(  1-C ,  2-C ) :   1.5999
B(  1-C , 32-H ) :   0.9678 B(  2-C ,  3-C ) :   1.2462 B(  2-C ,  6-C ) :   1.0218
B(  3-C ,  4-C ) :   1.5715 B(  3-C ,  5-H ) :   0.9967 B(  4-C , 20-C ) :   0.9959
B(  6-C ,  7-H ) :   0.9418 B(  6-C ,  8-H ) :   0.9360 B(  6-C ,  9-C ) :   1.0943
B(  9-C , 10-H ) :   0.9501 B(  9-C , 11-H ) :   0.9513 B(  9-C , 12-C ) :   1.0771
B( 12-C , 13-H ) :   0.9742 B( 12-C , 14-H ) :   0.9725 B( 12-C , 15-H ) :   0.9727
B( 16-S , 17-C ) :   1.1484 B( 16-S , 20-C ) :   1.1616 B( 17-C , 18-C ) :   1.6095
B( 17-C , 33-H ) :   0.9626 B( 18-C , 19-C ) :   1.2489 B( 18-C , 21-H ) :   0.9995
B( 19-C , 20-C ) :   1.6056 B( 19-C , 22-C ) :   1.0498 B( 22-C , 23-H ) :   0.9317
B( 22-C , 24-H ) :   0.9181 B( 22-C , 25-C ) :   1.0485 B( 25-C , 26-H ) :   0.9592
B( 25-C , 27-H ) :   0.9577 B( 25-C , 28-C ) :   1.0790 B( 28-C , 29-H ) :   0.9771
B( 28-C , 30-H ) :   0.9743 B( 28-C , 31-H ) :   0.9732

Dispersion correction           -0.014851245
FINAL SINGLE POINT ENERGY     -1339.868758843638

DIPOLE MOMENT
-------------
                                X             Y             Z
Electronic contribution:    -17.28637      -5.20222      22.14483
Nuclear contribution   :     17.50562       5.47116     -22.58576
                        -----------------------------------------
Total Dipole Moment    :      0.21926       0.26895      -0.44093
                        -----------------------------------------
Magnitude (a.u.)       :      0.56109
Magnitude (Debye)      :      1.42619

Rotational constants in cm-1:     0.017384     0.009878     0.007444
Rotational constants in MHz :   521.170774   296.145271   223.151892

                             ****ORCA TERMINATED NORMALLY****
TOTAL RUN TIME: 0 days 0 hours 0 minutes 37 seconds 287 msec
