                         Program Version 4.2.1 -  RELEASE  -
|  1> ! wB97X-D3 SP def2-SVP
|  2> %pal
|  3> nprocs 16
|  4> end
|  5>
|  6> * xyz 0 1
|  7> S 	 -2.61797 	 72.1258 	 56.5004
|  8> C 	 -3.68599 	 70.9402 	 57.1917
|  9> C 	 -4.58843 	 70.46 	 56.2838
| 10> C 	 -4.47347 	 71.0298 	 54.9935
| 11> C 	 -3.61118 	 72.1365 	 55.0306
| 12> H 	 -5.05533 	 70.8188 	 54.1207
| 13> C 	 -5.64274 	 69.3433 	 56.4968
| 14> H 	 -6.50028 	 69.6945 	 55.8809
| 15> H 	 -5.97559 	 69.2981 	 57.51
| 16> C 	 -5.21983 	 67.9624 	 56.0909
| 17> H 	 -4.8525 	 68.0449 	 55.0705
| 18> H 	 -4.33425 	 67.6752 	 56.7369
| 19> C 	 -6.35747 	 66.8506 	 56.1789
| 20> H 	 -6.12663 	 66.1242 	 55.4475
| 21> H 	 -6.3058 	 66.3239 	 57.0588
| 22> H 	 -7.32364 	 67.361 	 56.0843
| 23> S 	 -4.77947 	 74.0101 	 53.4437
| 24> C 	 -3.80311 	 75.0675 	 52.4072
| 25> C 	 -2.48547 	 74.6758 	 52.4425
| 26> C 	 -2.28956 	 73.6278 	 53.3167
| 27> C 	 -3.37707 	 73.2092 	 54.0071
| 28> H 	 -1.82462 	 75.073 	 51.7115
| 29> C 	 -0.894866 	 72.9571 	 53.5115
| 30> H 	 -0.83374 	 72.7595 	 54.6096
| 31> H 	 -0.0315866 	 73.6182 	 53.2734
| 32> C 	 -0.692064 	 71.5869 	 52.8573
| 33> H 	 -0.702787 	 71.6535 	 51.7767
| 34> H 	 -1.4891 	 70.8814 	 53.1065
| 35> C 	 0.494727 	 70.7621 	 53.5467
| 36> H 	 0.521879 	 69.8244 	 53.0253
| 37> H 	 0.196287 	 70.5892 	 54.5824
| 38> H 	 1.48263 	 71.1199 	 53.6994
| 39> H 	 -3.66118 	 70.5572 	 58.1929
| 40> H 	 -4.13246 	 75.8711 	 51.7461
| 41> *
| 42>
| 43>                          ****END OF INPUT****

CARTESIAN COORDINATES (ANGSTROEM)
---------------------------------
  S     -2.617970   72.125800   56.500400
  C     -3.685990   70.940200   57.191700
  C     -4.588430   70.460000   56.283800
  C     -4.473470   71.029800   54.993500
  C     -3.611180   72.136500   55.030600
  H     -5.055330   70.818800   54.120700
  C     -5.642740   69.343300   56.496800
  H     -6.500280   69.694500   55.880900
  H     -5.975590   69.298100   57.510000
  C     -5.219830   67.962400   56.090900
  H     -4.852500   68.044900   55.070500
  H     -4.334250   67.675200   56.736900
  C     -6.357470   66.850600   56.178900
  H     -6.126630   66.124200   55.447500
  H     -6.305800   66.323900   57.058800
  H     -7.323640   67.361000   56.084300
  S     -4.779470   74.010100   53.443700
  C     -3.803110   75.067500   52.407200
  C     -2.485470   74.675800   52.442500
  C     -2.289560   73.627800   53.316700
  C     -3.377070   73.209200   54.007100
  H     -1.824620   75.073000   51.711500
  C     -0.894866   72.957100   53.511500
  H     -0.833740   72.759500   54.609600
  H     -0.031587   73.618200   53.273400
  C     -0.692064   71.586900   52.857300
  H     -0.702787   71.653500   51.776700
  H     -1.489100   70.881400   53.106500
  C      0.494727   70.762100   53.546700
  H      0.521879   69.824400   53.025300
  H      0.196287   70.589200   54.582400
  H      1.482630   71.119900   53.699400
  H     -3.661180   70.557200   58.192900
  H     -4.132460   75.871100   51.746100

 Total Charge           Charge          ....    0
 Multiplicity           Mult            ....    1
 Number of Electrons    NEL             ....  134
 Basis Dimension        Dim             ....  322

ORBITAL ENERGIES
----------------

  NO   OCC          E(Eh)            E(eV)
   0   2.0000     -88.970099     -2420.9995
   1   2.0000     -88.966710     -2420.9073
   2   2.0000     -10.338990      -281.3382
   3   2.0000     -10.322780      -280.8971
   4   2.0000     -10.317458      -280.7523
   5   2.0000     -10.311141      -280.5804
   6   2.0000     -10.300190      -280.2824
   7   2.0000     -10.297797      -280.2173
   8   2.0000     -10.295826      -280.1637
   9   2.0000     -10.292558      -280.0747
  10   2.0000     -10.290959      -280.0312
  11   2.0000     -10.289719      -279.9975
  12   2.0000     -10.286866      -279.9198
  13   2.0000     -10.286096      -279.8989
  14   2.0000     -10.274502      -279.5834
  15   2.0000     -10.272757      -279.5359
  16   2.0000      -8.084162      -219.9812
  17   2.0000      -8.081658      -219.9131
  18   2.0000      -6.042664      -164.4292
  19   2.0000      -6.040126      -164.3602
  20   2.0000      -6.038902      -164.3269
  21   2.0000      -6.036056      -164.2494
  22   2.0000      -6.034845      -164.2165
  23   2.0000      -6.032517      -164.1531
  24   2.0000      -1.012041       -27.5390
  25   2.0000      -0.990032       -26.9401
  26   2.0000      -0.909376       -24.7454
  27   2.0000      -0.897281       -24.4162
  28   2.0000      -0.869926       -23.6719
  29   2.0000      -0.851662       -23.1749
  30   2.0000      -0.843311       -22.9476
  31   2.0000      -0.816685       -22.2231
  32   2.0000      -0.784355       -21.3434
  33   2.0000      -0.770800       -20.9745
  34   2.0000      -0.705214       -19.1898
  35   2.0000      -0.697779       -18.9875
  36   2.0000      -0.691366       -18.8130
  37   2.0000      -0.669232       -18.2107
  38   2.0000      -0.642738       -17.4898
  39   2.0000      -0.621846       -16.9213
  40   2.0000      -0.592076       -16.1112
  41   2.0000      -0.572988       -15.5918
  42   2.0000      -0.563160       -15.3244
  43   2.0000      -0.556417       -15.1409
  44   2.0000      -0.528471       -14.3804
  45   2.0000      -0.524540       -14.2735
  46   2.0000      -0.511519       -13.9191
  47   2.0000      -0.510295       -13.8858
  48   2.0000      -0.506959       -13.7951
  49   2.0000      -0.499801       -13.6003
  50   2.0000      -0.486013       -13.2251
  51   2.0000      -0.481892       -13.1130
  52   2.0000      -0.473050       -12.8723
  53   2.0000      -0.465692       -12.6721
  54   2.0000      -0.461744       -12.5647
  55   2.0000      -0.454363       -12.3639
  56   2.0000      -0.441281       -12.0079
  57   2.0000      -0.440106       -11.9759
  58   2.0000      -0.435541       -11.8517
  59   2.0000      -0.423292       -11.5184
  60   2.0000      -0.416776       -11.3410
  61   2.0000      -0.409713       -11.1488
  62   2.0000      -0.407085       -11.0773
  63   2.0000      -0.346626        -9.4322
  64   2.0000      -0.335556        -9.1309
  65   2.0000      -0.332486        -9.0474
  66   2.0000      -0.293613        -7.9896
  67   0.0000       0.030277         0.8239
  68   0.0000       0.065060         1.7704
  69   0.0000       0.103461         2.8153
  70   0.0000       0.118947         3.2367
  71   0.0000       0.135929         3.6988

MULLIKEN ATOMIC CHARGES
-----------------------
   0 S :    0.108679
   1 C :   -0.094416
   2 C :   -0.095465
   3 C :    0.042879
   4 C :   -0.163741
   5 H :    0.014613
   6 C :    0.065529
   7 H :    0.026753
   8 H :    0.013046
   9 C :   -0.105668
  10 H :    0.022000
  11 H :    0.033465
  12 C :    0.010948
  13 H :    0.027665
  14 H :    0.016281
  15 H :    0.036485
  16 S :    0.112137
  17 C :   -0.102403
  18 C :   -0.034191
  19 C :   -0.003483
  20 C :   -0.155158
  21 H :    0.011898
  22 C :    0.050482
  23 H :    0.012266
  24 H :    0.032279
  25 C :   -0.065167
  26 H :    0.029282
  27 H :    0.033265
  28 C :   -0.053734
  29 H :    0.032631
  30 H :    0.024798
  31 H :    0.023741
  32 H :    0.034930
  33 H :    0.057373
Sum of atomic charges:   -0.0000000

LOEWDIN ATOMIC CHARGES
----------------------
   0 S :    0.409252
   1 C :   -0.199002
   2 C :   -0.062548
   3 C :   -0.060857
   4 C :   -0.172283
   5 H :    0.030623
   6 C :   -0.032776
   7 H :    0.031021
   8 H :    0.022200
   9 C :   -0.042665
  10 H :    0.019177
  11 H :    0.028900
  12 C :   -0.052914
  13 H :    0.026019
  14 H :    0.015334
  15 H :    0.029679
  16 S :    0.422905
  17 C :   -0.179764
  18 C :   -0.069323
  19 C :   -0.067468
  20 C :   -0.214228
  21 H :    0.031802
  22 C :   -0.037170
  23 H :    0.020132
  24 H :    0.031401
  25 C :   -0.037173
  26 H :    0.018361
  27 H :    0.029893
  28 C :   -0.065050
  29 H :    0.025208
  30 H :    0.026306
  31 H :    0.015288
  32 H :    0.026629
  33 H :    0.033093

  Mayer bond orders larger than 0.100000
B(  0-S ,  1-C ) :   1.1241 B(  0-S ,  4-C ) :   1.1625 B(  1-C ,  2-C ) :   1.6427
B(  1-C , 32-H ) :   0.9674 B(  2-C ,  3-C ) :   1.2226 B(  2-C ,  6-C ) :   1.0171
B(  3-C ,  4-C ) :   1.5761 B(  3-C ,  5-H ) :   0.9952 B(  4-C , 20-C ) :   0.9955
B(  6-C ,  7-H ) :   0.9356 B(  6-C ,  8-H ) :   0.9412 B(  6-C ,  9-C ) :   1.0774
B(  9-C , 10-H ) :   0.9603 B(  9-C , 11-H ) :   0.9548 B(  9-C , 12-C ) :   1.0591
B( 12-C , 13-H ) :   0.9756 B( 12-C , 14-H ) :   0.9761 B( 12-C , 15-H ) :   0.9784
B( 16-S , 17-C ) :   1.1623 B( 16-S , 20-C ) :   1.1515 B( 17-C , 18-C ) :   1.5904
B( 17-C , 20-C ) :   0.1022 B( 17-C , 33-H ) :   0.9650 B( 18-C , 19-C ) :   1.2739
B( 18-C , 21-H ) :   0.9982 B( 19-C , 20-C ) :   1.5924 B( 19-C , 22-C ) :   1.0234
B( 22-C , 23-H ) :   0.9337 B( 22-C , 24-H ) :   0.9425 B( 22-C , 25-C ) :   1.0639
B( 25-C , 26-H ) :   0.9608 B( 25-C , 27-H ) :   0.9565 B( 25-C , 28-C ) :   1.0528
B( 28-C , 29-H ) :   0.9781 B( 28-C , 30-H ) :   0.9747 B( 28-C , 31-H ) :   0.9816

Dispersion correction           -0.014422479
FINAL SINGLE POINT ENERGY     -1339.862229882195

DIPOLE MOMENT
-------------
                                X             Y             Z
Electronic contribution:     -4.25155      23.26157       0.69317
Nuclear contribution   :      4.21922     -23.68989      -0.86318
                        -----------------------------------------
Total Dipole Moment    :     -0.03233      -0.42831      -0.17002
                        -----------------------------------------
Magnitude (a.u.)       :      0.46196
Magnitude (Debye)      :      1.17420

Rotational constants in cm-1:     0.019105     0.008107     0.006889
Rotational constants in MHz :   572.755095   243.049583   206.516705

                             ****ORCA TERMINATED NORMALLY****
TOTAL RUN TIME: 0 days 0 hours 0 minutes 33 seconds 164 msec
