                         Program Version 4.2.1 -  RELEASE  -
|  1> ! wB97X-D3 SP def2-SVP
|  2> %pal
|  3> nprocs 16
|  4> end
|  5>
|  6> * xyz 0 1
|  7> S 	 32.6615 	 5.41119 	 73.2318
|  8> C 	 31.081 	 4.74944 	 73.21
|  9> C 	 30.7251 	 4.18811 	 74.4338
| 10> C 	 31.7829 	 4.29195 	 75.3773
| 11> C 	 32.8994 	 4.96879 	 74.9285
| 12> H 	 31.8674 	 3.89249 	 76.3678
| 13> C 	 29.4009 	 3.58834 	 74.8906
| 14> H 	 28.6475 	 4.24449 	 75.1945
| 15> H 	 29.6892 	 3.17765 	 75.8916
| 16> C 	 28.8024 	 2.45319 	 74.0964
| 17> H 	 29.6793 	 1.86399 	 73.9056
| 18> H 	 28.1882 	 1.9601 	 74.8174
| 19> C 	 27.9268 	 2.84939 	 72.8646
| 20> H 	 28.5854 	 3.33316 	 72.0555
| 21> H 	 27.457 	 1.96688 	 72.3702
| 22> H 	 27.1062 	 3.50379 	 73.1992
| 23> S 	 35.4696 	 5.69195 	 74.515
| 24> C 	 36.6549 	 5.89031 	 75.7972
| 25> C 	 36.1125 	 5.50951 	 77.0305
| 26> C 	 34.734 	 5.03464 	 76.8646
| 27> C 	 34.1669 	 5.25904 	 75.6119
| 28> H 	 36.7576 	 5.48718 	 77.9041
| 29> C 	 33.8943 	 4.70997 	 78.1013
| 30> H 	 32.8421 	 4.99329 	 77.8518
| 31> H 	 34.1859 	 5.37445 	 78.9298
| 32> C 	 33.9073 	 3.31397 	 78.6724
| 33> H 	 34.8722 	 2.99704 	 78.9164
| 34> H 	 33.5553 	 2.67485 	 77.9006
| 35> C 	 32.9044 	 3.39197 	 79.9882
| 36> H 	 31.8218 	 3.49162 	 79.8072
| 37> H 	 33.2426 	 4.18925 	 80.7032
| 38> H 	 32.9972 	 2.55475 	 80.7028
| 39> H 	 30.4355 	 4.84185 	 72.3436
| 40> H 	 37.704 	 6.14476 	 75.6215
| 41> *
| 42>
| 43>                          ****END OF INPUT****

CARTESIAN COORDINATES (ANGSTROEM)
---------------------------------
  S     32.661500    5.411190   73.231800
  C     31.081000    4.749440   73.210000
  C     30.725100    4.188110   74.433800
  C     31.782900    4.291950   75.377300
  C     32.899400    4.968790   74.928500
  H     31.867400    3.892490   76.367800
  C     29.400900    3.588340   74.890600
  H     28.647500    4.244490   75.194500
  H     29.689200    3.177650   75.891600
  C     28.802400    2.453190   74.096400
  H     29.679300    1.863990   73.905600
  H     28.188200    1.960100   74.817400
  C     27.926800    2.849390   72.864600
  H     28.585400    3.333160   72.055500
  H     27.457000    1.966880   72.370200
  H     27.106200    3.503790   73.199200
  S     35.469600    5.691950   74.515000
  C     36.654900    5.890310   75.797200
  C     36.112500    5.509510   77.030500
  C     34.734000    5.034640   76.864600
  C     34.166900    5.259040   75.611900
  H     36.757600    5.487180   77.904100
  C     33.894300    4.709970   78.101300
  H     32.842100    4.993290   77.851800
  H     34.185900    5.374450   78.929800
  C     33.907300    3.313970   78.672400
  H     34.872200    2.997040   78.916400
  H     33.555300    2.674850   77.900600
  C     32.904400    3.391970   79.988200
  H     31.821800    3.491620   79.807200
  H     33.242600    4.189250   80.703200
  H     32.997200    2.554750   80.702800
  H     30.435500    4.841850   72.343600
  H     37.704000    6.144760   75.621500

 Total Charge           Charge          ....    0
 Multiplicity           Mult            ....    1
 Number of Electrons    NEL             ....  134
 Basis Dimension        Dim             ....  322

ORBITAL ENERGIES
----------------

  NO   OCC          E(Eh)            E(eV)
   0   2.0000     -88.968645     -2420.9599
   1   2.0000     -88.962327     -2420.7880
   2   2.0000     -10.334615      -281.2192
   3   2.0000     -10.334063      -281.2041
   4   2.0000     -10.323622      -280.9200
   5   2.0000     -10.316507      -280.7264
   6   2.0000     -10.310314      -280.5579
   7   2.0000     -10.304494      -280.3995
   8   2.0000     -10.302915      -280.3566
   9   2.0000     -10.293634      -280.1040
  10   2.0000     -10.293347      -280.0962
  11   2.0000     -10.292613      -280.0762
  12   2.0000     -10.291580      -280.0481
  13   2.0000     -10.290798      -280.0268
  14   2.0000     -10.287934      -279.9489
  15   2.0000     -10.282775      -279.8085
  16   2.0000      -8.083680      -219.9681
  17   2.0000      -8.077327      -219.7952
  18   2.0000      -6.042201      -164.4167
  19   2.0000      -6.038103      -164.3051
  20   2.0000      -6.036010      -164.2482
  21   2.0000      -6.034435      -164.2053
  22   2.0000      -6.031733      -164.1318
  23   2.0000      -6.027941      -164.0286
  24   2.0000      -1.008663       -27.4471
  25   2.0000      -0.983569       -26.7643
  26   2.0000      -0.914202       -24.8767
  27   2.0000      -0.906153       -24.6577
  28   2.0000      -0.870103       -23.6767
  29   2.0000      -0.853762       -23.2320
  30   2.0000      -0.837734       -22.7959
  31   2.0000      -0.812817       -22.1179
  32   2.0000      -0.782773       -21.3003
  33   2.0000      -0.770801       -20.9746
  34   2.0000      -0.713333       -19.4108
  35   2.0000      -0.702891       -19.1266
  36   2.0000      -0.694350       -18.8942
  37   2.0000      -0.669521       -18.2186
  38   2.0000      -0.644249       -17.5309
  39   2.0000      -0.621138       -16.9020
  40   2.0000      -0.594536       -16.1781
  41   2.0000      -0.579337       -15.7646
  42   2.0000      -0.568500       -15.4697
  43   2.0000      -0.541756       -14.7419
  44   2.0000      -0.537715       -14.6320
  45   2.0000      -0.518195       -14.1008
  46   2.0000      -0.512506       -13.9460
  47   2.0000      -0.505149       -13.7458
  48   2.0000      -0.503215       -13.6932
  49   2.0000      -0.502117       -13.6633
  50   2.0000      -0.495790       -13.4911
  51   2.0000      -0.479927       -13.0595
  52   2.0000      -0.476874       -12.9764
  53   2.0000      -0.468161       -12.7393
  54   2.0000      -0.460454       -12.5296
  55   2.0000      -0.450857       -12.2685
  56   2.0000      -0.442939       -12.0530
  57   2.0000      -0.438268       -11.9259
  58   2.0000      -0.431765       -11.7489
  59   2.0000      -0.429787       -11.6951
  60   2.0000      -0.421885       -11.4801
  61   2.0000      -0.414172       -11.2702
  62   2.0000      -0.402807       -10.9609
  63   2.0000      -0.365726        -9.9519
  64   2.0000      -0.336835        -9.1658
  65   2.0000      -0.325286        -8.8515
  66   2.0000      -0.284203        -7.7335
  67   0.0000       0.016848         0.4585
  68   0.0000       0.084306         2.2941
  69   0.0000       0.093251         2.5375
  70   0.0000       0.112097         3.0503
  71   0.0000       0.128792         3.5046

MULLIKEN ATOMIC CHARGES
-----------------------
   0 S :    0.108123
   1 C :   -0.123986
   2 C :   -0.058980
   3 C :   -0.016072
   4 C :   -0.108001
   5 H :   -0.001283
   6 C :    0.063589
   7 H :    0.020232
   8 H :    0.012974
   9 C :   -0.049038
  10 H :    0.028252
  11 H :    0.021689
  12 C :   -0.077638
  13 H :    0.042214
  14 H :    0.045212
  15 H :    0.039367
  16 S :    0.065755
  17 C :   -0.089980
  18 C :   -0.024318
  19 C :   -0.038763
  20 C :   -0.084326
  21 H :    0.028896
  22 C :   -0.049985
  23 H :    0.032353
  24 H :    0.026992
  25 C :    0.013029
  26 H :    0.016111
  27 H :    0.024467
  28 C :   -0.103427
  29 H :    0.048614
  30 H :    0.034385
  31 H :    0.030144
  32 H :    0.055081
  33 H :    0.068317
Sum of atomic charges:    0.0000000

LOEWDIN ATOMIC CHARGES
----------------------
   0 S :    0.414069
   1 C :   -0.202746
   2 C :   -0.063810
   3 C :   -0.067310
   4 C :   -0.183277
   5 H :    0.027445
   6 C :   -0.031571
   7 H :    0.021098
   8 H :    0.036879
   9 C :   -0.040199
  10 H :    0.024493
  11 H :    0.023122
  12 C :   -0.073800
  13 H :    0.030848
  14 H :    0.030926
  15 H :    0.027503
  16 S :    0.390716
  17 C :   -0.180411
  18 C :   -0.070464
  19 C :   -0.063098
  20 C :   -0.184523
  21 H :    0.034815
  22 C :   -0.042484
  23 H :    0.030280
  24 H :    0.029871
  25 C :   -0.021177
  26 H :    0.016593
  27 H :    0.019132
  28 C :   -0.079190
  29 H :    0.028308
  30 H :    0.030791
  31 H :    0.025186
  32 H :    0.028093
  33 H :    0.033892

  Mayer bond orders larger than 0.100000
B(  0-S ,  1-C ) :   1.1550 B(  0-S ,  4-C ) :   1.1451 B(  1-C ,  2-C ) :   1.5844
B(  1-C , 32-H ) :   0.9698 B(  2-C ,  3-C ) :   1.2595 B(  2-C ,  6-C ) :   1.0091
B(  3-C ,  4-C ) :   1.5868 B(  3-C ,  5-H ) :   0.9843 B(  4-C , 20-C ) :   1.0683
B(  6-C ,  7-H ) :   0.9323 B(  6-C ,  8-H ) :   0.9376 B(  6-C ,  9-C ) :   1.0772
B(  9-C , 10-H ) :   0.9598 B(  9-C , 11-H ) :   0.9531 B(  9-C , 12-C ) :   1.0703
B( 12-C , 13-H ) :   0.9748 B( 12-C , 14-H ) :   0.9734 B( 12-C , 15-H ) :   0.9732
B( 16-S , 17-C ) :   1.1571 B( 16-S , 20-C ) :   1.1218 B( 17-C , 18-C ) :   1.6105
B( 17-C , 33-H ) :   0.9668 B( 18-C , 19-C ) :   1.2232 B( 18-C , 21-H ) :   0.9905
B( 19-C , 20-C ) :   1.5929 B( 19-C , 22-C ) :   1.0235 B( 22-C , 23-H ) :   0.9520
B( 22-C , 24-H ) :   0.9480 B( 22-C , 25-C ) :   1.0530 B( 25-C , 26-H ) :   0.9558
B( 25-C , 27-H ) :   0.9560 B( 25-C , 28-C ) :   1.0523 B( 28-C , 29-H ) :   0.9802
B( 28-C , 30-H ) :   0.9755 B( 28-C , 31-H ) :   0.9780

Dispersion correction           -0.013681483
FINAL SINGLE POINT ENERGY     -1339.861043719255

DIPOLE MOMENT
-------------
                                X             Y             Z
Electronic contribution:     19.94672      14.46621     -16.09966
Nuclear contribution   :    -20.20579     -14.78554      16.65136
                        -----------------------------------------
Total Dipole Moment    :     -0.25907      -0.31933       0.55170
                        -----------------------------------------
Magnitude (a.u.)       :      0.68809
Magnitude (Debye)      :      1.74898

Rotational constants in cm-1:     0.018701     0.008427     0.005955
Rotational constants in MHz :   560.645901   252.644949   178.534565

                             ****ORCA TERMINATED NORMALLY****
TOTAL RUN TIME: 0 days 0 hours 0 minutes 29 seconds 451 msec
