                         Program Version 4.2.1 -  RELEASE  -
|  1> ! wB97X-D3 SP def2-SVP
|  2> %pal
|  3> nprocs 16
|  4> end
|  5>
|  6> * xyz 0 1
|  7> S 	 -99.1183 	 38.5601 	 126.47
|  8> C 	 -97.8283 	 38.428 	 127.603
|  9> C 	 -96.8935 	 39.3922 	 127.491
| 10> C 	 -97.1569 	 40.2183 	 126.362
| 11> C 	 -98.2855 	 39.8431 	 125.607
| 12> H 	 -96.5755 	 41.0133 	 126.062
| 13> C 	 -95.7134 	 39.6574 	 128.423
| 14> H 	 -95.3799 	 38.7508 	 128.972
| 15> H 	 -96.1129 	 40.2992 	 129.118
| 16> C 	 -94.4647 	 40.1717 	 127.666
| 17> H 	 -94.306 	 39.5185 	 126.775
| 18> H 	 -94.6019 	 41.2949 	 127.544
| 19> C 	 -93.1997 	 39.9709 	 128.493
| 20> H 	 -92.9819 	 38.979 	 128.767
| 21> H 	 -92.2493 	 40.2792 	 128.088
| 22> H 	 -93.3708 	 40.3777 	 129.42
| 23> S 	 -98.2919 	 38.7502 	 123.098
| 24> C 	 -98.4768 	 39.7326 	 121.682
| 25> C 	 -98.4879 	 41.0699 	 122.088
| 26> C 	 -98.482 	 41.3165 	 123.526
| 27> C 	 -98.449 	 40.1073 	 124.164
| 28> H 	 -98.6005 	 41.8248 	 121.365
| 29> C 	 -98.4368 	 42.6853 	 124.168
| 30> H 	 -97.971 	 43.3736 	 123.479
| 31> H 	 -97.8766 	 42.5679 	 125.115
| 32> C 	 -99.8497 	 43.3273 	 124.335
| 33> H 	 -100.173 	 43.2838 	 123.341
| 34> H 	 -99.8195 	 44.356 	 124.635
| 35> C 	 -100.839 	 42.508 	 125.247
| 36> H 	 -101.117 	 41.5053 	 124.825
| 37> H 	 -101.654 	 43.1182 	 125.645
| 38> H 	 -100.305 	 42.2705 	 126.175
| 39> H 	 -97.8576 	 37.8802 	 128.528
| 40> H 	 -98.6341 	 39.2347 	 120.807
| 41> *
| 42>
| 43>                          ****END OF INPUT****

CARTESIAN COORDINATES (ANGSTROEM)
---------------------------------
  S    -99.118300   38.560100  126.470000
  C    -97.828300   38.428000  127.603000
  C    -96.893500   39.392200  127.491000
  C    -97.156900   40.218300  126.362000
  C    -98.285500   39.843100  125.607000
  H    -96.575500   41.013300  126.062000
  C    -95.713400   39.657400  128.423000
  H    -95.379900   38.750800  128.972000
  H    -96.112900   40.299200  129.118000
  C    -94.464700   40.171700  127.666000
  H    -94.306000   39.518500  126.775000
  H    -94.601900   41.294900  127.544000
  C    -93.199700   39.970900  128.493000
  H    -92.981900   38.979000  128.767000
  H    -92.249300   40.279200  128.088000
  H    -93.370800   40.377700  129.420000
  S    -98.291900   38.750200  123.098000
  C    -98.476800   39.732600  121.682000
  C    -98.487900   41.069900  122.088000
  C    -98.482000   41.316500  123.526000
  C    -98.449000   40.107300  124.164000
  H    -98.600500   41.824800  121.365000
  C    -98.436800   42.685300  124.168000
  H    -97.971000   43.373600  123.479000
  H    -97.876600   42.567900  125.115000
  C    -99.849700   43.327300  124.335000
  H    -100.173000   43.283800  123.341000
  H    -99.819500   44.356000  124.635000
  C    -100.839000   42.508000  125.247000
  H    -101.117000   41.505300  124.825000
  H    -101.654000   43.118200  125.645000
  H    -100.305000   42.270500  126.175000
  H    -97.857600   37.880200  128.528000
  H    -98.634100   39.234700  120.807000

 Total Charge           Charge          ....    0
 Multiplicity           Mult            ....    1
 Number of Electrons    NEL             ....  134
 Basis Dimension        Dim             ....  322

ORBITAL ENERGIES
----------------

  NO   OCC          E(Eh)            E(eV)
   0   2.0000     -88.966088     -2420.8903
   1   2.0000     -88.959395     -2420.7082
   2   2.0000     -10.328804      -281.0611
   3   2.0000     -10.323619      -280.9199
   4   2.0000     -10.311590      -280.5926
   5   2.0000     -10.306161      -280.4449
   6   2.0000     -10.301321      -280.3132
   7   2.0000     -10.297751      -280.2160
   8   2.0000     -10.296203      -280.1739
   9   2.0000     -10.295156      -280.1454
  10   2.0000     -10.294453      -280.1263
  11   2.0000     -10.292068      -280.0614
  12   2.0000     -10.289654      -279.9957
  13   2.0000     -10.281965      -279.7865
  14   2.0000     -10.275342      -279.6063
  15   2.0000     -10.265804      -279.3467
  16   2.0000      -8.081033      -219.8961
  17   2.0000      -8.075175      -219.7367
  18   2.0000      -6.039489      -164.3429
  19   2.0000      -6.035442      -164.2327
  20   2.0000      -6.033639      -164.1837
  21   2.0000      -6.031909      -164.1366
  22   2.0000      -6.029452      -164.0697
  23   2.0000      -6.025989      -163.9755
  24   2.0000      -1.008721       -27.4487
  25   2.0000      -0.987201       -26.8631
  26   2.0000      -0.915347       -24.9079
  27   2.0000      -0.906667       -24.6717
  28   2.0000      -0.870282       -23.6816
  29   2.0000      -0.852016       -23.1845
  30   2.0000      -0.840453       -22.8699
  31   2.0000      -0.812683       -22.1142
  32   2.0000      -0.785047       -21.3622
  33   2.0000      -0.777787       -21.1647
  34   2.0000      -0.710919       -19.3451
  35   2.0000      -0.702439       -19.1143
  36   2.0000      -0.692633       -18.8475
  37   2.0000      -0.665109       -18.0985
  38   2.0000      -0.642742       -17.4899
  39   2.0000      -0.620249       -16.8778
  40   2.0000      -0.598493       -16.2858
  41   2.0000      -0.580599       -15.7989
  42   2.0000      -0.565721       -15.3940
  43   2.0000      -0.551534       -15.0080
  44   2.0000      -0.548004       -14.9119
  45   2.0000      -0.531919       -14.4742
  46   2.0000      -0.516026       -14.0418
  47   2.0000      -0.510139       -13.8816
  48   2.0000      -0.501965       -13.6592
  49   2.0000      -0.491142       -13.3647
  50   2.0000      -0.488919       -13.3042
  51   2.0000      -0.478799       -13.0288
  52   2.0000      -0.475652       -12.9432
  53   2.0000      -0.465224       -12.6594
  54   2.0000      -0.456123       -12.4117
  55   2.0000      -0.451885       -12.2964
  56   2.0000      -0.441692       -12.0190
  57   2.0000      -0.437393       -11.9021
  58   2.0000      -0.428409       -11.6576
  59   2.0000      -0.422104       -11.4860
  60   2.0000      -0.421072       -11.4580
  61   2.0000      -0.417909       -11.3719
  62   2.0000      -0.414768       -11.2864
  63   2.0000      -0.344773        -9.3817
  64   2.0000      -0.331010        -9.0072
  65   2.0000      -0.324769        -8.8374
  66   2.0000      -0.294226        -8.0063
  67   0.0000       0.031338         0.8527
  68   0.0000       0.071132         1.9356
  69   0.0000       0.113319         3.0836
  70   0.0000       0.120673         3.2837
  71   0.0000       0.140265         3.8168

MULLIKEN ATOMIC CHARGES
-----------------------
   0 S :    0.117080
   1 C :   -0.109249
   2 C :   -0.109169
   3 C :    0.062056
   4 C :   -0.179255
   5 H :   -0.014121
   6 C :    0.091481
   7 H :    0.022580
   8 H :    0.027437
   9 C :   -0.124013
  10 H :    0.056715
  11 H :    0.054888
  12 C :    0.009733
  13 H :    0.004768
  14 H :    0.030862
  15 H :   -0.001186
  16 S :    0.104844
  17 C :   -0.071727
  18 C :   -0.004836
  19 C :   -0.069633
  20 C :   -0.147370
  21 H :   -0.000861
  22 C :    0.092412
  23 H :    0.020871
  24 H :    0.029310
  25 C :   -0.045099
  26 H :    0.010532
  27 H :    0.029527
  28 C :   -0.068115
  29 H :    0.053694
  30 H :    0.034935
  31 H :    0.022248
  32 H :    0.038002
  33 H :    0.030660
Sum of atomic charges:   -0.0000000

LOEWDIN ATOMIC CHARGES
----------------------
   0 S :    0.414896
   1 C :   -0.203899
   2 C :   -0.065510
   3 C :   -0.043108
   4 C :   -0.199228
   5 H :    0.012642
   6 C :   -0.024964
   7 H :    0.033004
   8 H :    0.023263
   9 C :   -0.041878
  10 H :    0.036658
  11 H :    0.035343
  12 C :   -0.064649
  13 H :    0.018985
  14 H :    0.027131
  15 H :    0.013729
  16 S :    0.418833
  17 C :   -0.176290
  18 C :   -0.059525
  19 C :   -0.061835
  20 C :   -0.200560
  21 H :    0.017788
  22 C :   -0.024995
  23 H :    0.032852
  24 H :    0.029754
  25 C :   -0.030306
  26 H :    0.015445
  27 H :    0.021479
  28 C :   -0.076195
  29 H :    0.033932
  30 H :    0.026955
  31 H :    0.024044
  32 H :    0.027094
  33 H :    0.009116

  Mayer bond orders larger than 0.100000
B(  0-S ,  1-C ) :   1.1432 B(  0-S ,  4-C ) :   1.1597 B(  1-C ,  2-C ) :   1.6345
B(  1-C , 32-H ) :   0.9575 B(  2-C ,  3-C ) :   1.2746 B(  2-C ,  6-C ) :   1.0004
B(  3-C ,  4-C ) :   1.5352 B(  3-C ,  5-H ) :   0.9945 B(  4-C , 20-C ) :   1.0131
B(  6-C ,  7-H ) :   0.9500 B(  6-C ,  8-H ) :   0.9256 B(  6-C ,  9-C ) :   1.0612
B(  9-C , 10-H ) :   0.9649 B(  9-C , 11-H ) :   0.9438 B(  9-C , 12-C ) :   1.0917
B( 12-C , 13-H ) :   0.9675 B( 12-C , 14-H ) :   0.9726 B( 12-C , 15-H ) :   0.9653
B( 16-S , 17-C ) :   1.1553 B( 16-S , 20-C ) :   1.1638 B( 17-C , 18-C ) :   1.5760
B( 17-C , 33-H ) :   0.9915 B( 18-C , 19-C ) :   1.2380 B( 18-C , 21-H ) :   0.9949
B( 19-C , 20-C ) :   1.6003 B( 19-C , 22-C ) :   1.0442 B( 22-C , 23-H ) :   0.9300
B( 22-C , 24-H ) :   0.9326 B( 22-C , 25-C ) :   1.0672 B( 25-C , 26-H ) :   0.9570
B( 25-C , 27-H ) :   0.9596 B( 25-C , 28-C ) :   1.0713 B( 28-C , 29-H ) :   0.9727
B( 28-C , 30-H ) :   0.9755 B( 28-C , 31-H ) :   0.9750

Dispersion correction           -0.014842026
FINAL SINGLE POINT ENERGY     -1339.851536733484

DIPOLE MOMENT
-------------
                                X             Y             Z
Electronic contribution:    -10.79343     -15.98029     -11.35681
Nuclear contribution   :     11.23666      16.41526      11.65313
                        -----------------------------------------
Total Dipole Moment    :      0.44322       0.43496       0.29631
                        -----------------------------------------
Magnitude (a.u.)       :      0.68807
Magnitude (Debye)      :      1.74894

Rotational constants in cm-1:     0.018642     0.008220     0.007866
Rotational constants in MHz :   558.872170   246.435234   235.815972

                             ****ORCA TERMINATED NORMALLY****
TOTAL RUN TIME: 0 days 0 hours 0 minutes 35 seconds 81 msec
