                         Program Version 4.2.1 -  RELEASE  -
|  1> ! wB97X-D3 SP def2-SVP
|  2> %pal
|  3> nprocs 16
|  4> end
|  5>
|  6> * xyz 0 1
|  7> S 	 -93.4891 	 40.2462 	 124.866
|  8> C 	 -92.485 	 38.9903 	 125.386
|  9> C 	 -92.9788 	 37.7104 	 124.981
| 10> C 	 -94.02 	 37.7914 	 124.024
| 11> C 	 -94.3808 	 39.156 	 123.784
| 12> H 	 -94.4259 	 36.9985 	 123.415
| 13> C 	 -92.2723 	 36.4027 	 125.429
| 14> H 	 -92.9678 	 35.9362 	 126.062
| 15> H 	 -91.459 	 36.7256 	 126.065
| 16> C 	 -91.7866 	 35.4514 	 124.399
| 17> H 	 -91.3709 	 34.6117 	 124.897
| 18> H 	 -92.4891 	 35.1368 	 123.645
| 19> C 	 -90.4692 	 35.8857 	 123.776
| 20> H 	 -89.6632 	 35.9643 	 124.624
| 21> H 	 -90.107 	 35.2435 	 122.932
| 22> H 	 -90.6423 	 36.8974 	 123.415
| 23> S 	 -96.5934 	 40.7326 	 123.861
| 24> C 	 -97.6832 	 40.8054 	 122.533
| 25> C 	 -97.2594 	 39.9564 	 121.524
| 26> C 	 -95.999 	 39.3766 	 121.758
| 27> C 	 -95.505 	 39.6541 	 123.001
| 28> H 	 -97.7579 	 39.933 	 120.613
| 29> C 	 -95.1967 	 38.4677 	 120.75
| 30> H 	 -95.7461 	 37.5493 	 120.783
| 31> H 	 -94.2355 	 38.132 	 121.171
| 32> C 	 -94.9725 	 39.0569 	 119.378
| 33> H 	 -94.4094 	 39.9814 	 119.516
| 34> H 	 -95.8944 	 39.4494 	 119.052
| 35> C 	 -94.2234 	 38.0941 	 118.449
| 36> H 	 -94.7276 	 37.1796 	 118.123
| 37> H 	 -93.2606 	 37.897 	 118.92
| 38> H 	 -93.9012 	 38.6771 	 117.578
| 39> H 	 -91.6217 	 39.1298 	 126.053
| 40> H 	 -98.6263 	 41.3883 	 122.517
| 41> *
| 42>
| 43>                          ****END OF INPUT****

CARTESIAN COORDINATES (ANGSTROEM)
---------------------------------
  S    -93.489100   40.246200  124.866000
  C    -92.485000   38.990300  125.386000
  C    -92.978800   37.710400  124.981000
  C    -94.020000   37.791400  124.024000
  C    -94.380800   39.156000  123.784000
  H    -94.425900   36.998500  123.415000
  C    -92.272300   36.402700  125.429000
  H    -92.967800   35.936200  126.062000
  H    -91.459000   36.725600  126.065000
  C    -91.786600   35.451400  124.399000
  H    -91.370900   34.611700  124.897000
  H    -92.489100   35.136800  123.645000
  C    -90.469200   35.885700  123.776000
  H    -89.663200   35.964300  124.624000
  H    -90.107000   35.243500  122.932000
  H    -90.642300   36.897400  123.415000
  S    -96.593400   40.732600  123.861000
  C    -97.683200   40.805400  122.533000
  C    -97.259400   39.956400  121.524000
  C    -95.999000   39.376600  121.758000
  C    -95.505000   39.654100  123.001000
  H    -97.757900   39.933000  120.613000
  C    -95.196700   38.467700  120.750000
  H    -95.746100   37.549300  120.783000
  H    -94.235500   38.132000  121.171000
  C    -94.972500   39.056900  119.378000
  H    -94.409400   39.981400  119.516000
  H    -95.894400   39.449400  119.052000
  C    -94.223400   38.094100  118.449000
  H    -94.727600   37.179600  118.123000
  H    -93.260600   37.897000  118.920000
  H    -93.901200   38.677100  117.578000
  H    -91.621700   39.129800  126.053000
  H    -98.626300   41.388300  122.517000

 Total Charge           Charge          ....    0
 Multiplicity           Mult            ....    1
 Number of Electrons    NEL             ....  134
 Basis Dimension        Dim             ....  322

ORBITAL ENERGIES
----------------

  NO   OCC          E(Eh)            E(eV)
   0   2.0000     -88.971266     -2421.0312
   1   2.0000     -88.961483     -2420.7650
   2   2.0000     -10.334879      -281.2264
   3   2.0000     -10.321741      -280.8688
   4   2.0000     -10.317073      -280.7418
   5   2.0000     -10.315731      -280.7053
   6   2.0000     -10.306454      -280.4529
   7   2.0000     -10.301415      -280.3158
   8   2.0000     -10.299867      -280.2736
   9   2.0000     -10.289084      -279.9802
  10   2.0000     -10.287347      -279.9329
  11   2.0000     -10.286995      -279.9234
  12   2.0000     -10.283713      -279.8341
  13   2.0000     -10.281166      -279.7648
  14   2.0000     -10.280895      -279.7574
  15   2.0000     -10.277815      -279.6736
  16   2.0000      -8.086175      -220.0360
  17   2.0000      -8.076949      -219.7849
  18   2.0000      -6.044398      -164.4764
  19   2.0000      -6.040575      -164.3724
  20   2.0000      -6.037317      -164.2837
  21   2.0000      -6.035380      -164.2310
  22   2.0000      -6.031228      -164.1180
  23   2.0000      -6.027868      -164.0266
  24   2.0000      -1.008039       -27.4301
  25   2.0000      -0.985392       -26.8139
  26   2.0000      -0.919214       -25.0131
  27   2.0000      -0.909140       -24.7389
  28   2.0000      -0.868606       -23.6360
  29   2.0000      -0.855071       -23.2677
  30   2.0000      -0.847308       -23.0564
  31   2.0000      -0.811362       -22.0783
  32   2.0000      -0.782778       -21.3005
  33   2.0000      -0.769564       -20.9409
  34   2.0000      -0.709218       -19.2988
  35   2.0000      -0.701950       -19.1010
  36   2.0000      -0.686979       -18.6937
  37   2.0000      -0.660685       -17.9782
  38   2.0000      -0.640641       -17.4327
  39   2.0000      -0.621779       -16.9195
  40   2.0000      -0.597538       -16.2598
  41   2.0000      -0.568660       -15.4740
  42   2.0000      -0.562566       -15.3082
  43   2.0000      -0.559188       -15.2163
  44   2.0000      -0.547747       -14.9050
  45   2.0000      -0.524579       -14.2745
  46   2.0000      -0.518512       -14.1094
  47   2.0000      -0.515019       -14.0144
  48   2.0000      -0.501001       -13.6329
  49   2.0000      -0.500356       -13.6154
  50   2.0000      -0.490533       -13.3481
  51   2.0000      -0.478254       -13.0139
  52   2.0000      -0.469378       -12.7724
  53   2.0000      -0.466426       -12.6921
  54   2.0000      -0.456482       -12.4215
  55   2.0000      -0.451087       -12.2747
  56   2.0000      -0.444955       -12.1078
  57   2.0000      -0.440399       -11.9839
  58   2.0000      -0.437525       -11.9056
  59   2.0000      -0.434478       -11.8227
  60   2.0000      -0.422231       -11.4895
  61   2.0000      -0.405923       -11.0457
  62   2.0000      -0.399030       -10.8582
  63   2.0000      -0.350766        -9.5448
  64   2.0000      -0.332630        -9.0513
  65   2.0000      -0.332272        -9.0416
  66   2.0000      -0.282962        -7.6998
  67   0.0000       0.027027         0.7355
  68   0.0000       0.069499         1.8912
  69   0.0000       0.113907         3.0996
  70   0.0000       0.124703         3.3933
  71   0.0000       0.133334         3.6282

MULLIKEN ATOMIC CHARGES
-----------------------
   0 S :    0.128894
   1 C :   -0.122081
   2 C :   -0.131946
   3 C :    0.049238
   4 C :   -0.173075
   5 H :    0.019673
   6 C :    0.115462
   7 H :    0.025602
   8 H :    0.000436
   9 C :   -0.035155
  10 H :    0.019677
  11 H :    0.032924
  12 C :   -0.108102
  13 H :    0.035297
  14 H :    0.049268
  15 H :    0.030188
  16 S :    0.098786
  17 C :   -0.104576
  18 C :   -0.023333
  19 C :   -0.050345
  20 C :   -0.148440
  21 H :   -0.004173
  22 C :    0.072045
  23 H :    0.021974
  24 H :    0.013561
  25 C :   -0.056008
  26 H :    0.028765
  27 H :    0.007914
  28 C :   -0.027702
  29 H :    0.046285
  30 H :    0.025695
  31 H :    0.028928
  32 H :    0.061669
  33 H :    0.072654
Sum of atomic charges:   -0.0000000

LOEWDIN ATOMIC CHARGES
----------------------
   0 S :    0.433487
   1 C :   -0.228177
   2 C :   -0.060607
   3 C :   -0.057545
   4 C :   -0.187936
   5 H :    0.032279
   6 C :   -0.024361
   7 H :    0.028674
   8 H :    0.029245
   9 C :   -0.047978
  10 H :    0.026825
  11 H :    0.022762
  12 C :   -0.070467
  13 H :    0.031102
  14 H :    0.029747
  15 H :    0.018176
  16 S :    0.410501
  17 C :   -0.196528
  18 C :   -0.072159
  19 C :   -0.059374
  20 C :   -0.198930
  21 H :    0.019445
  22 C :   -0.028273
  23 H :    0.024902
  24 H :    0.026752
  25 C :   -0.041290
  26 H :    0.031850
  27 H :    0.013510
  28 C :   -0.063442
  29 H :    0.027971
  30 H :    0.028403
  31 H :    0.030203
  32 H :    0.032366
  33 H :    0.038866

  Mayer bond orders larger than 0.100000
B(  0-S ,  1-C ) :   1.1732 B(  0-S ,  4-C ) :   1.1752 B(  1-C ,  2-C ) :   1.5461
B(  1-C ,  4-C ) :   0.1125 B(  1-C , 32-H ) :   0.9651 B(  2-C ,  3-C ) :   1.2916
B(  2-C ,  6-C ) :   1.0168 B(  3-C ,  4-C ) :   1.5032 B(  3-C ,  5-H ) :   0.9919
B(  4-C , 20-C ) :   1.0461 B(  6-C ,  7-H ) :   0.9279 B(  6-C ,  8-H ) :   0.9361
B(  6-C ,  9-C ) :   1.0866 B(  9-C , 10-H ) :   0.9492 B(  9-C , 11-H ) :   0.9547
B(  9-C , 12-C ) :   1.0610 B( 12-C , 13-H ) :   0.9746 B( 12-C , 14-H ) :   0.9740
B( 12-C , 15-H ) :   0.9794 B( 16-S , 17-C ) :   1.1678 B( 16-S , 20-C ) :   1.1404
B( 17-C , 18-C ) :   1.5834 B( 17-C , 20-C ) :   0.1004 B( 17-C , 33-H ) :   0.9645
B( 18-C , 19-C ) :   1.2612 B( 18-C , 21-H ) :   0.9986 B( 19-C , 20-C ) :   1.6134
B( 19-C , 22-C ) :   1.0140 B( 22-C , 23-H ) :   0.9356 B( 22-C , 24-H ) :   0.9363
B( 22-C , 25-C ) :   1.0594 B( 25-C , 26-H ) :   0.9494 B( 25-C , 27-H ) :   0.9571
B( 25-C , 28-C ) :   1.0841 B( 28-C , 29-H ) :   0.9771 B( 28-C , 30-H ) :   0.9696
B( 28-C , 31-H ) :   0.9719

Dispersion correction           -0.013803475
FINAL SINGLE POINT ENERGY     -1339.868258438935

DIPOLE MOMENT
-------------
                                X             Y             Z
Electronic contribution:    -14.59075      20.49154      16.09509
Nuclear contribution   :     14.72363     -20.98542     -16.39662
                        -----------------------------------------
Total Dipole Moment    :      0.13288      -0.49388      -0.30152
                        -----------------------------------------
Magnitude (a.u.)       :      0.59371
Magnitude (Debye)      :      1.50909

Rotational constants in cm-1:     0.016808     0.009204     0.006562
Rotational constants in MHz :   503.884741   275.924622   196.725609

                             ****ORCA TERMINATED NORMALLY****
TOTAL RUN TIME: 0 days 0 hours 0 minutes 31 seconds 325 msec
