                         Program Version 4.2.1 -  RELEASE  -
|  1> ! wB97X-D3 SP def2-SVP
|  2> %pal
|  3> nprocs 16
|  4> end
|  5>
|  6> * xyz 0 1
|  7> S 	 -33.7932 	 55.9761 	 111.662
|  8> C 	 -32.5193 	 57.2116 	 111.591
|  9> C 	 -33.0379 	 58.4267 	 112.012
| 10> C 	 -34.3864 	 58.4078 	 112.358
| 11> C 	 -34.9424 	 57.1871 	 112.195
| 12> H 	 -34.9615 	 59.3359 	 112.458
| 13> C 	 -32.2549 	 59.6983 	 111.792
| 14> H 	 -32.8574 	 60.4295 	 111.287
| 15> H 	 -31.453 	 59.4175 	 111.091
| 16> C 	 -31.5388 	 60.3569 	 113.043
| 17> H 	 -30.8315 	 59.6477 	 113.461
| 18> H 	 -30.9769 	 61.2437 	 112.694
| 19> C 	 -32.5347 	 60.847 	 114.107
| 20> H 	 -32.1347 	 61.3712 	 115.037
| 21> H 	 -33.06 	 61.6434 	 113.66
| 22> H 	 -33.1022 	 60.1418 	 114.706
| 23> S 	 -36.6122 	 55.547 	 113.679
| 24> C 	 -38.3163 	 55.6811 	 113.481
| 25> C 	 -38.5955 	 56.3363 	 112.333
| 26> C 	 -37.5198 	 57.2085 	 111.923
| 27> C 	 -36.3274 	 56.9026 	 112.504
| 28> H 	 -39.6422 	 56.5378 	 111.994
| 29> C 	 -37.6928 	 58.2975 	 110.845
| 30> H 	 -37.0063 	 57.946 	 110.008
| 31> H 	 -37.1301 	 59.2582 	 111.07
| 32> C 	 -39.0808 	 58.4767 	 110.281
| 33> H 	 -39.8085 	 58.8036 	 111.076
| 34> H 	 -39.5405 	 57.5157 	 110.042
| 35> C 	 -39.0087 	 59.3823 	 108.936
| 36> H 	 -38.3529 	 59.0324 	 108.216
| 37> H 	 -38.6742 	 60.3922 	 109.136
| 38> H 	 -39.976 	 59.5193 	 108.507
| 39> H 	 -31.5006 	 57.0768 	 111.096
| 40> H 	 -39.1148 	 55.0833 	 113.957
| 41> *
| 42>
| 43>                          ****END OF INPUT****

CARTESIAN COORDINATES (ANGSTROEM)
---------------------------------
  S    -33.793200   55.976100  111.662000
  C    -32.519300   57.211600  111.591000
  C    -33.037900   58.426700  112.012000
  C    -34.386400   58.407800  112.358000
  C    -34.942400   57.187100  112.195000
  H    -34.961500   59.335900  112.458000
  C    -32.254900   59.698300  111.792000
  H    -32.857400   60.429500  111.287000
  H    -31.453000   59.417500  111.091000
  C    -31.538800   60.356900  113.043000
  H    -30.831500   59.647700  113.461000
  H    -30.976900   61.243700  112.694000
  C    -32.534700   60.847000  114.107000
  H    -32.134700   61.371200  115.037000
  H    -33.060000   61.643400  113.660000
  H    -33.102200   60.141800  114.706000
  S    -36.612200   55.547000  113.679000
  C    -38.316300   55.681100  113.481000
  C    -38.595500   56.336300  112.333000
  C    -37.519800   57.208500  111.923000
  C    -36.327400   56.902600  112.504000
  H    -39.642200   56.537800  111.994000
  C    -37.692800   58.297500  110.845000
  H    -37.006300   57.946000  110.008000
  H    -37.130100   59.258200  111.070000
  C    -39.080800   58.476700  110.281000
  H    -39.808500   58.803600  111.076000
  H    -39.540500   57.515700  110.042000
  C    -39.008700   59.382300  108.936000
  H    -38.352900   59.032400  108.216000
  H    -38.674200   60.392200  109.136000
  H    -39.976000   59.519300  108.507000
  H    -31.500600   57.076800  111.096000
  H    -39.114800   55.083300  113.957000

 Total Charge           Charge          ....    0
 Multiplicity           Mult            ....    1
 Number of Electrons    NEL             ....  134
 Basis Dimension        Dim             ....  322

ORBITAL ENERGIES
----------------

  NO   OCC          E(Eh)            E(eV)
   0   2.0000     -88.969731     -2420.9895
   1   2.0000     -88.958765     -2420.6911
   2   2.0000     -10.326970      -281.0111
   3   2.0000     -10.322445      -280.8880
   4   2.0000     -10.320387      -280.8320
   5   2.0000     -10.316046      -280.7139
   6   2.0000     -10.304898      -280.4105
   7   2.0000     -10.301705      -280.3237
   8   2.0000     -10.299526      -280.2643
   9   2.0000     -10.295787      -280.1626
  10   2.0000     -10.292778      -280.0807
  11   2.0000     -10.292382      -280.0700
  12   2.0000     -10.292225      -280.0657
  13   2.0000     -10.287447      -279.9357
  14   2.0000     -10.278612      -279.6952
  15   2.0000     -10.275934      -279.6224
  16   2.0000      -8.083823      -219.9720
  17   2.0000      -8.073545      -219.6923
  18   2.0000      -6.042409      -164.4223
  19   2.0000      -6.038417      -164.3137
  20   2.0000      -6.034529      -164.2079
  21   2.0000      -6.032166      -164.1436
  22   2.0000      -6.028197      -164.0356
  23   2.0000      -6.024001      -163.9214
  24   2.0000      -1.009049       -27.4576
  25   2.0000      -0.987033       -26.8585
  26   2.0000      -0.906144       -24.6574
  27   2.0000      -0.904116       -24.6022
  28   2.0000      -0.870040       -23.6750
  29   2.0000      -0.850152       -23.1338
  30   2.0000      -0.840391       -22.8682
  31   2.0000      -0.816736       -22.2245
  32   2.0000      -0.783202       -21.3120
  33   2.0000      -0.771973       -21.0065
  34   2.0000      -0.713696       -19.4207
  35   2.0000      -0.701848       -19.0983
  36   2.0000      -0.700434       -19.0598
  37   2.0000      -0.648898       -17.6574
  38   2.0000      -0.635867       -17.3028
  39   2.0000      -0.617552       -16.8045
  40   2.0000      -0.597913       -16.2700
  41   2.0000      -0.574311       -15.6278
  42   2.0000      -0.554688       -15.0938
  43   2.0000      -0.546698       -14.8764
  44   2.0000      -0.533092       -14.5062
  45   2.0000      -0.524421       -14.2702
  46   2.0000      -0.514388       -13.9972
  47   2.0000      -0.508141       -13.8272
  48   2.0000      -0.503167       -13.6919
  49   2.0000      -0.496427       -13.5085
  50   2.0000      -0.484396       -13.1811
  51   2.0000      -0.481007       -13.0889
  52   2.0000      -0.474542       -12.9129
  53   2.0000      -0.464530       -12.6405
  54   2.0000      -0.459547       -12.5049
  55   2.0000      -0.452735       -12.3195
  56   2.0000      -0.446323       -12.1451
  57   2.0000      -0.440846       -11.9960
  58   2.0000      -0.433252       -11.7894
  59   2.0000      -0.424427       -11.5492
  60   2.0000      -0.418225       -11.3805
  61   2.0000      -0.410258       -11.1637
  62   2.0000      -0.406949       -11.0736
  63   2.0000      -0.344996        -9.3878
  64   2.0000      -0.332190        -9.0393
  65   2.0000      -0.324933        -8.8419
  66   2.0000      -0.293991        -7.9999
  67   0.0000       0.036853         1.0028
  68   0.0000       0.053317         1.4508
  69   0.0000       0.105509         2.8710
  70   0.0000       0.123705         3.3662
  71   0.0000       0.129985         3.5371

MULLIKEN ATOMIC CHARGES
-----------------------
   0 S :    0.122221
   1 C :   -0.163353
   2 C :   -0.055993
   3 C :    0.021619
   4 C :   -0.146010
   5 H :    0.026585
   6 C :    0.034514
   7 H :    0.024180
   8 H :    0.017853
   9 C :   -0.039108
  10 H :    0.029701
  11 H :    0.036351
  12 C :   -0.079104
  13 H :    0.024041
  14 H :    0.019915
  15 H :    0.044864
  16 S :    0.084749
  17 C :   -0.075098
  18 C :   -0.054736
  19 C :   -0.041340
  20 C :   -0.153080
  21 H :    0.035400
  22 C :    0.012007
  23 H :    0.042570
  24 H :    0.040556
  25 C :   -0.103014
  26 H :    0.041887
  27 H :    0.035996
  28 C :   -0.005999
  29 H :    0.022976
  30 H :    0.022840
  31 H :    0.026801
  32 H :    0.079820
  33 H :    0.069390
Sum of atomic charges:    0.0000000

LOEWDIN ATOMIC CHARGES
----------------------
   0 S :    0.399240
   1 C :   -0.204452
   2 C :   -0.067002
   3 C :   -0.064890
   4 C :   -0.190617
   5 H :    0.038862
   6 C :   -0.028374
   7 H :    0.024597
   8 H :    0.031525
   9 C :   -0.033441
  10 H :    0.021727
  11 H :    0.028994
  12 C :   -0.085078
  13 H :    0.034843
  14 H :    0.017943
  15 H :    0.028817
  16 S :    0.379049
  17 C :   -0.187169
  18 C :   -0.087573
  19 C :   -0.051073
  20 C :   -0.180283
  21 H :    0.034965
  22 C :   -0.048703
  23 H :    0.043117
  24 H :    0.037567
  25 C :   -0.045770
  26 H :    0.029223
  27 H :    0.023226
  28 C :   -0.052540
  29 H :    0.017487
  30 H :    0.025359
  31 H :    0.023957
  32 H :    0.045821
  33 H :    0.040647

  Mayer bond orders larger than 0.100000
B(  0-S ,  1-C ) :   1.1249 B(  0-S ,  4-C ) :   1.1528 B(  1-C ,  2-C ) :   1.6100
B(  1-C , 32-H ) :   0.9557 B(  2-C ,  3-C ) :   1.2562 B(  2-C ,  6-C ) :   1.0150
B(  3-C ,  4-C ) :   1.5706 B(  3-C ,  5-H ) :   0.9924 B(  4-C , 20-C ) :   1.0416
B(  6-C ,  7-H ) :   0.9491 B(  6-C ,  8-H ) :   0.9425 B(  6-C ,  9-C ) :   1.0664
B(  9-C , 10-H ) :   0.9580 B(  9-C , 11-H ) :   0.9569 B(  9-C , 12-C ) :   1.0729
B( 12-C , 13-H ) :   0.9688 B( 12-C , 14-H ) :   0.9768 B( 12-C , 15-H ) :   0.9737
B( 16-S , 17-C ) :   1.1569 B( 16-S , 20-C ) :   1.1014 B( 17-C , 18-C ) :   1.6451
B( 17-C , 33-H ) :   0.9551 B( 18-C , 19-C ) :   1.2382 B( 18-C , 21-H ) :   0.9605
B( 19-C , 20-C ) :   1.6490 B( 19-C , 22-C ) :   1.0183 B( 22-C , 23-H ) :   0.9280
B( 22-C , 24-H ) :   0.9429 B( 22-C , 25-C ) :   1.0695 B( 25-C , 26-H ) :   0.9568
B( 25-C , 27-H ) :   0.9458 B( 25-C , 28-C ) :   1.0630 B( 28-C , 29-H ) :   0.9784
B( 28-C , 30-H ) :   0.9767 B( 28-C , 31-H ) :   0.9763

Dispersion correction           -0.013808528
FINAL SINGLE POINT ENERGY     -1339.847233772422

DIPOLE MOMENT
-------------
                                X             Y             Z
Electronic contribution:      1.50183     -24.94595       7.65125
Nuclear contribution   :     -1.66609      25.57510      -8.10591
                        -----------------------------------------
Total Dipole Moment    :     -0.16426       0.62915      -0.45466
                        -----------------------------------------
Magnitude (a.u.)       :      0.79343
Magnitude (Debye)      :      2.01673

Rotational constants in cm-1:     0.017158     0.008252     0.006797
Rotational constants in MHz :   514.378881   247.389489   203.754207

                             ****ORCA TERMINATED NORMALLY****
TOTAL RUN TIME: 0 days 0 hours 0 minutes 27 seconds 457 msec
