                         Program Version 4.2.1 -  RELEASE  -
|  1> ! wB97X-D3 SP def2-SVP
|  2> %pal
|  3> nprocs 16
|  4> end
|  5>
|  6> * xyz 0 1
|  7> S 	 -2.3694 	 -21.392 	 66.4319
|  8> C 	 -1.29478 	 -22.2044 	 65.279
|  9> C 	 -0.648262 	 -21.2729 	 64.4356
| 10> C 	 -1.1141 	 -19.959 	 64.7208
| 11> C 	 -1.9275 	 -19.801 	 65.7583
| 12> H 	 -0.724307 	 -19.0987 	 64.199
| 13> C 	 0.203593 	 -21.6518 	 63.2826
| 14> H 	 0.848969 	 -22.4437 	 63.6834
| 15> H 	 0.924139 	 -20.872 	 63.1117
| 16> C 	 -0.475571 	 -22.205 	 62.0212
| 17> H 	 0.341809 	 -22.31 	 61.3153
| 18> H 	 -0.821428 	 -23.2442 	 62.0644
| 19> C 	 -1.73726 	 -21.3651 	 61.6143
| 20> H 	 -2.53484 	 -21.3919 	 62.3486
| 21> H 	 -1.51081 	 -20.3316 	 61.558
| 22> H 	 -2.07433 	 -21.4975 	 60.6178
| 23> S 	 -4.24011 	 -18.418 	 66.3282
| 24> C 	 -4.17077 	 -16.6857 	 66.773
| 25> C 	 -2.86303 	 -16.2627 	 66.8223
| 26> C 	 -1.89583 	 -17.2909 	 66.4701
| 27> C 	 -2.47662 	 -18.5421 	 66.2727
| 28> H 	 -2.61317 	 -15.1867 	 66.9138
| 29> C 	 -0.428363 	 -16.9819 	 66.4137
| 30> H 	 -0.268957 	 -15.898 	 66.1363
| 31> H 	 0.0654083 	 -17.6009 	 65.6494
| 32> C 	 0.376159 	 -17.3407 	 67.6723
| 33> H 	 -0.0638789 	 -18.2817 	 68.1039
| 34> H 	 0.0675933 	 -16.5961 	 68.3889
| 35> C 	 1.88938 	 -17.265 	 67.5696
| 36> H 	 2.22034 	 -18.2878 	 67.2477
| 37> H 	 2.39548 	 -17.0646 	 68.5076
| 38> H 	 2.20445 	 -16.457 	 66.8664
| 39> H 	 -1.21583 	 -23.2824 	 65.0763
| 40> H 	 -5.04583 	 -16.0101 	 66.8861
| 41> *
| 42>
| 43>                          ****END OF INPUT****

CARTESIAN COORDINATES (ANGSTROEM)
---------------------------------
  S     -2.369400  -21.392000   66.431900
  C     -1.294780  -22.204400   65.279000
  C     -0.648262  -21.272900   64.435600
  C     -1.114100  -19.959000   64.720800
  C     -1.927500  -19.801000   65.758300
  H     -0.724307  -19.098700   64.199000
  C      0.203593  -21.651800   63.282600
  H      0.848969  -22.443700   63.683400
  H      0.924139  -20.872000   63.111700
  C     -0.475571  -22.205000   62.021200
  H      0.341809  -22.310000   61.315300
  H     -0.821428  -23.244200   62.064400
  C     -1.737260  -21.365100   61.614300
  H     -2.534840  -21.391900   62.348600
  H     -1.510810  -20.331600   61.558000
  H     -2.074330  -21.497500   60.617800
  S     -4.240110  -18.418000   66.328200
  C     -4.170770  -16.685700   66.773000
  C     -2.863030  -16.262700   66.822300
  C     -1.895830  -17.290900   66.470100
  C     -2.476620  -18.542100   66.272700
  H     -2.613170  -15.186700   66.913800
  C     -0.428363  -16.981900   66.413700
  H     -0.268957  -15.898000   66.136300
  H      0.065408  -17.600900   65.649400
  C      0.376159  -17.340700   67.672300
  H     -0.063879  -18.281700   68.103900
  H      0.067593  -16.596100   68.388900
  C      1.889380  -17.265000   67.569600
  H      2.220340  -18.287800   67.247700
  H      2.395480  -17.064600   68.507600
  H      2.204450  -16.457000   66.866400
  H     -1.215830  -23.282400   65.076300
  H     -5.045830  -16.010100   66.886100

 Total Charge           Charge          ....    0
 Multiplicity           Mult            ....    1
 Number of Electrons    NEL             ....  134
 Basis Dimension        Dim             ....  322

ORBITAL ENERGIES
----------------

  NO   OCC          E(Eh)            E(eV)
   0   2.0000     -88.967690     -2420.9339
   1   2.0000     -88.965574     -2420.8764
   2   2.0000     -10.331473      -281.1337
   3   2.0000     -10.328186      -281.0442
   4   2.0000     -10.325563      -280.9729
   5   2.0000     -10.319719      -280.8138
   6   2.0000     -10.308418      -280.5063
   7   2.0000     -10.300470      -280.2900
   8   2.0000     -10.300003      -280.2773
   9   2.0000     -10.294523      -280.1282
  10   2.0000     -10.292720      -280.0791
  11   2.0000     -10.290680      -280.0236
  12   2.0000     -10.287565      -279.9389
  13   2.0000     -10.283312      -279.8232
  14   2.0000     -10.282384      -279.7979
  15   2.0000     -10.270054      -279.4624
  16   2.0000      -8.081376      -219.9054
  17   2.0000      -8.079511      -219.8547
  18   2.0000      -6.040019      -164.3573
  19   2.0000      -6.038215      -164.3082
  20   2.0000      -6.036043      -164.2491
  21   2.0000      -6.034119      -164.1967
  22   2.0000      -6.032039      -164.1401
  23   2.0000      -6.030108      -164.0876
  24   2.0000      -1.003552       -27.3080
  25   2.0000      -0.979575       -26.6556
  26   2.0000      -0.912094       -24.8193
  27   2.0000      -0.907502       -24.6944
  28   2.0000      -0.866548       -23.5800
  29   2.0000      -0.849223       -23.1085
  30   2.0000      -0.842529       -22.9264
  31   2.0000      -0.818405       -22.2699
  32   2.0000      -0.784579       -21.3495
  33   2.0000      -0.770129       -20.9563
  34   2.0000      -0.713387       -19.4123
  35   2.0000      -0.702883       -19.1264
  36   2.0000      -0.687302       -18.7024
  37   2.0000      -0.661154       -17.9909
  38   2.0000      -0.637351       -17.3432
  39   2.0000      -0.619905       -16.8685
  40   2.0000      -0.594254       -16.1705
  41   2.0000      -0.571413       -15.5489
  42   2.0000      -0.562188       -15.2979
  43   2.0000      -0.550049       -14.9676
  44   2.0000      -0.539181       -14.6719
  45   2.0000      -0.517833       -14.0910
  46   2.0000      -0.513077       -13.9615
  47   2.0000      -0.509308       -13.8590
  48   2.0000      -0.506836       -13.7917
  49   2.0000      -0.498843       -13.5742
  50   2.0000      -0.490448       -13.3458
  51   2.0000      -0.482839       -13.1387
  52   2.0000      -0.469562       -12.7774
  53   2.0000      -0.460212       -12.5230
  54   2.0000      -0.454621       -12.3709
  55   2.0000      -0.453467       -12.3395
  56   2.0000      -0.446754       -12.1568
  57   2.0000      -0.436747       -11.8845
  58   2.0000      -0.430426       -11.7125
  59   2.0000      -0.427504       -11.6330
  60   2.0000      -0.422496       -11.4967
  61   2.0000      -0.408696       -11.1212
  62   2.0000      -0.402278       -10.9466
  63   2.0000      -0.350230        -9.5302
  64   2.0000      -0.332102        -9.0370
  65   2.0000      -0.327274        -8.9056
  66   2.0000      -0.294311        -8.0086
  67   0.0000       0.027497         0.7482
  68   0.0000       0.065312         1.7772
  69   0.0000       0.105012         2.8575
  70   0.0000       0.114559         3.1173
  71   0.0000       0.135648         3.6912

MULLIKEN ATOMIC CHARGES
-----------------------
   0 S :    0.106131
   1 C :   -0.120395
   2 C :   -0.131729
   3 C :    0.026981
   4 C :   -0.138526
   5 H :    0.011970
   6 C :    0.069941
   7 H :    0.024054
   8 H :    0.020816
   9 C :   -0.046430
  10 H :    0.026555
  11 H :    0.027688
  12 C :   -0.028117
  13 H :    0.050855
  14 H :    0.005338
  15 H :    0.023339
  16 S :    0.091276
  17 C :   -0.105498
  18 C :   -0.030154
  19 C :   -0.054653
  20 C :   -0.125537
  21 H :    0.034477
  22 C :    0.041446
  23 H :    0.029677
  24 H :    0.012165
  25 C :   -0.080895
  26 H :    0.043417
  27 H :    0.010798
  28 C :   -0.044991
  29 H :    0.044094
  30 H :    0.036755
  31 H :    0.037166
  32 H :    0.056631
  33 H :    0.075354
Sum of atomic charges:    0.0000000

LOEWDIN ATOMIC CHARGES
----------------------
   0 S :    0.381830
   1 C :   -0.190711
   2 C :   -0.065344
   3 C :   -0.063314
   4 C :   -0.186599
   5 H :    0.029967
   6 C :   -0.040156
   7 H :    0.038721
   8 H :    0.029660
   9 C :   -0.035585
  10 H :    0.026110
  11 H :    0.025053
  12 C :   -0.065811
  13 H :    0.032178
  14 H :    0.019405
  15 H :    0.022974
  16 S :    0.383275
  17 C :   -0.177825
  18 C :   -0.074983
  19 C :   -0.053913
  20 C :   -0.189501
  21 H :    0.038327
  22 C :   -0.039256
  23 H :    0.033569
  24 H :    0.025945
  25 C :   -0.049637
  26 H :    0.032460
  27 H :    0.017098
  28 C :   -0.069723
  29 H :    0.033046
  30 H :    0.027447
  31 H :    0.030735
  32 H :    0.033708
  33 H :    0.040851

  Mayer bond orders larger than 0.100000
B(  0-S ,  1-C ) :   1.1366 B(  0-S ,  4-C ) :   1.1223 B(  1-C ,  2-C ) :   1.6042
B(  1-C , 32-H ) :   0.9648 B(  2-C ,  3-C ) :   1.2390 B(  2-C ,  6-C ) :   1.0388
B(  3-C ,  4-C ) :   1.6139 B(  3-C ,  5-H ) :   0.9877 B(  4-C , 20-C ) :   1.0162
B(  6-C ,  7-H ) :   0.9277 B(  6-C ,  8-H ) :   0.9362 B(  6-C ,  9-C ) :   1.0698
B(  9-C , 10-H ) :   0.9555 B(  9-C , 11-H ) :   0.9569 B(  9-C , 12-C ) :   1.0667
B( 12-C , 13-H ) :   0.9700 B( 12-C , 14-H ) :   0.9743 B( 12-C , 15-H ) :   0.9736
B( 16-S , 17-C ) :   1.1399 B( 16-S , 20-C ) :   1.1330 B( 17-C , 18-C ) :   1.6295
B( 17-C , 33-H ) :   0.9620 B( 18-C , 19-C ) :   1.2298 B( 18-C , 21-H ) :   0.9796
B( 19-C , 20-C ) :   1.6091 B( 19-C , 22-C ) :   1.0619 B( 22-C , 23-H ) :   0.9282
B( 22-C , 24-H ) :   0.9317 B( 22-C , 25-C ) :   1.0588 B( 25-C , 26-H ) :   0.9585
B( 25-C , 27-H ) :   0.9522 B( 25-C , 28-C ) :   1.0718 B( 28-C , 29-H ) :   0.9749
B( 28-C , 30-H ) :   0.9747 B( 28-C , 31-H ) :   0.9722

Dispersion correction           -0.014774067
FINAL SINGLE POINT ENERGY     -1339.876255145771

DIPOLE MOMENT
-------------
                                X             Y             Z
Electronic contribution:    -20.48435      -2.55888      10.86221
Nuclear contribution   :     21.00773       2.87967     -11.30158
                        -----------------------------------------
Total Dipole Moment    :      0.52338       0.32080      -0.43937
                        -----------------------------------------
Magnitude (a.u.)       :      0.75490
Magnitude (Debye)      :      1.91882

Rotational constants in cm-1:     0.017524     0.009049     0.007408
Rotational constants in MHz :   525.368560   271.270160   222.072855

                             ****ORCA TERMINATED NORMALLY****
TOTAL RUN TIME: 0 days 0 hours 0 minutes 35 seconds 633 msec
