                         Program Version 4.2.1 -  RELEASE  -
|  1> ! wB97X-D3 SP def2-SVP
|  2> %pal
|  3> nprocs 16
|  4> end
|  5>
|  6> * xyz 0 1
|  7> S 	 39.3334 	 22.7463 	 92.9807
|  8> C 	 40.5 	 23.9882 	 92.5725
|  9> C 	 41.6659 	 23.4845 	 92.031
| 10> C 	 41.6218 	 22.0411 	 92.0355
| 11> C 	 40.4792 	 21.4736 	 92.4738
| 12> H 	 42.3495 	 21.3166 	 91.8092
| 13> C 	 42.9427 	 24.2752 	 91.7333
| 14> H 	 42.8362 	 25.2299 	 91.1883
| 15> H 	 43.6252 	 23.7604 	 91.0398
| 16> C 	 43.9706 	 24.5348 	 92.8952
| 17> H 	 44.1157 	 23.5811 	 93.3081
| 18> H 	 45.0011 	 24.7794 	 92.5907
| 19> C 	 43.4441 	 25.5361 	 94.0249
| 20> H 	 43.3205 	 26.5532 	 93.6701
| 21> H 	 42.5453 	 25.2896 	 94.6683
| 22> H 	 44.281 	 25.5654 	 94.7066
| 23> S 	 40.2817 	 19.39 	 94.408
| 24> C 	 40.3637 	 17.717 	 93.864
| 25> C 	 40.1034 	 17.6859 	 92.4982
| 26> C 	 40.0057 	 18.9942 	 91.8821
| 27> C 	 40.2464 	 20.0396 	 92.7785
| 28> H 	 39.974 	 16.6962 	 92.1115
| 29> C 	 39.9405 	 19.0553 	 90.3981
| 30> H 	 39.3686 	 20.0256 	 90.3617
| 31> H 	 39.3509 	 18.2142 	 90.0681
| 32> C 	 41.2193 	 19.1291 	 89.6353
| 33> H 	 41.809 	 18.193 	 89.6202
| 34> H 	 41.8959 	 19.7621 	 90.1574
| 35> C 	 41.0496 	 19.8661 	 88.2574
| 36> H 	 40.6988 	 19.1625 	 87.5156
| 37> H 	 41.9003 	 20.3189 	 87.8673
| 38> H 	 40.3287 	 20.6108 	 88.2701
| 39> H 	 40.3645 	 25.0381 	 92.5818
| 40> H 	 40.277 	 16.8187 	 94.3975
| 41> *
| 42>
| 43>                          ****END OF INPUT****

CARTESIAN COORDINATES (ANGSTROEM)
---------------------------------
  S     39.333400   22.746300   92.980700
  C     40.500000   23.988200   92.572500
  C     41.665900   23.484500   92.031000
  C     41.621800   22.041100   92.035500
  C     40.479200   21.473600   92.473800
  H     42.349500   21.316600   91.809200
  C     42.942700   24.275200   91.733300
  H     42.836200   25.229900   91.188300
  H     43.625200   23.760400   91.039800
  C     43.970600   24.534800   92.895200
  H     44.115700   23.581100   93.308100
  H     45.001100   24.779400   92.590700
  C     43.444100   25.536100   94.024900
  H     43.320500   26.553200   93.670100
  H     42.545300   25.289600   94.668300
  H     44.281000   25.565400   94.706600
  S     40.281700   19.390000   94.408000
  C     40.363700   17.717000   93.864000
  C     40.103400   17.685900   92.498200
  C     40.005700   18.994200   91.882100
  C     40.246400   20.039600   92.778500
  H     39.974000   16.696200   92.111500
  C     39.940500   19.055300   90.398100
  H     39.368600   20.025600   90.361700
  H     39.350900   18.214200   90.068100
  C     41.219300   19.129100   89.635300
  H     41.809000   18.193000   89.620200
  H     41.895900   19.762100   90.157400
  C     41.049600   19.866100   88.257400
  H     40.698800   19.162500   87.515600
  H     41.900300   20.318900   87.867300
  H     40.328700   20.610800   88.270100
  H     40.364500   25.038100   92.581800
  H     40.277000   16.818700   94.397500

 Total Charge           Charge          ....    0
 Multiplicity           Mult            ....    1
 Number of Electrons    NEL             ....  134
 Basis Dimension        Dim             ....  322

ORBITAL ENERGIES
----------------

  NO   OCC          E(Eh)            E(eV)
   0   2.0000     -88.968044     -2420.9436
   1   2.0000     -88.965901     -2420.8852
   2   2.0000     -10.331884      -281.1449
   3   2.0000     -10.330999      -281.1208
   4   2.0000     -10.317955      -280.7658
   5   2.0000     -10.315136      -280.6891
   6   2.0000     -10.309805      -280.5441
   7   2.0000     -10.303921      -280.3840
   8   2.0000     -10.299220      -280.2560
   9   2.0000     -10.294210      -280.1197
  10   2.0000     -10.292771      -280.0805
  11   2.0000     -10.292112      -280.0626
  12   2.0000     -10.285936      -279.8945
  13   2.0000     -10.283660      -279.8326
  14   2.0000     -10.281114      -279.7633
  15   2.0000     -10.265438      -279.3368
  16   2.0000      -8.082288      -219.9302
  17   2.0000      -8.080089      -219.8704
  18   2.0000      -6.040950      -164.3826
  19   2.0000      -6.038787      -164.3237
  20   2.0000      -6.036837      -164.2707
  21   2.0000      -6.034621      -164.2104
  22   2.0000      -6.032916      -164.1640
  23   2.0000      -6.030707      -164.1039
  24   2.0000      -1.004585       -27.3362
  25   2.0000      -0.983511       -26.7627
  26   2.0000      -0.912431       -24.8285
  27   2.0000      -0.901415       -24.5287
  28   2.0000      -0.869041       -23.6478
  29   2.0000      -0.847480       -23.0611
  30   2.0000      -0.844494       -22.9798
  31   2.0000      -0.820294       -22.3213
  32   2.0000      -0.783807       -21.3285
  33   2.0000      -0.775104       -21.0917
  34   2.0000      -0.714424       -19.4405
  35   2.0000      -0.703242       -19.1362
  36   2.0000      -0.697555       -18.9814
  37   2.0000      -0.659595       -17.9485
  38   2.0000      -0.653417       -17.7804
  39   2.0000      -0.618358       -16.8264
  40   2.0000      -0.588777       -16.0214
  41   2.0000      -0.575084       -15.6488
  42   2.0000      -0.564289       -15.3551
  43   2.0000      -0.540091       -14.6966
  44   2.0000      -0.533305       -14.5120
  45   2.0000      -0.522568       -14.2198
  46   2.0000      -0.520795       -14.1715
  47   2.0000      -0.513213       -13.9652
  48   2.0000      -0.507297       -13.8043
  49   2.0000      -0.496388       -13.5074
  50   2.0000      -0.487447       -13.2641
  51   2.0000      -0.485217       -13.2034
  52   2.0000      -0.477069       -12.9817
  53   2.0000      -0.466890       -12.7047
  54   2.0000      -0.462516       -12.5857
  55   2.0000      -0.452428       -12.3112
  56   2.0000      -0.446566       -12.1517
  57   2.0000      -0.432677       -11.7738
  58   2.0000      -0.427114       -11.6224
  59   2.0000      -0.422491       -11.4966
  60   2.0000      -0.415951       -11.3186
  61   2.0000      -0.410133       -11.1603
  62   2.0000      -0.404980       -11.0201
  63   2.0000      -0.343571        -9.3491
  64   2.0000      -0.328889        -8.9495
  65   2.0000      -0.323986        -8.8161
  66   2.0000      -0.310404        -8.4465
  67   0.0000       0.036278         0.9872
  68   0.0000       0.053678         1.4607
  69   0.0000       0.114760         3.1228
  70   0.0000       0.116944         3.1822
  71   0.0000       0.122029         3.3206

MULLIKEN ATOMIC CHARGES
-----------------------
   0 S :    0.109456
   1 C :   -0.084534
   2 C :   -0.045162
   3 C :    0.064025
   4 C :   -0.196502
   5 H :    0.004638
   6 C :    0.029721
   7 H :    0.030003
   8 H :    0.019665
   9 C :   -0.056306
  10 H :    0.012355
  11 H :    0.033898
  12 C :   -0.080047
  13 H :    0.028012
  14 H :    0.055678
  15 H :    0.025818
  16 S :    0.111956
  17 C :   -0.071676
  18 C :   -0.054755
  19 C :   -0.036651
  20 C :   -0.165839
  21 H :    0.015741
  22 C :    0.068379
  23 H :    0.040478
  24 H :    0.024528
  25 C :   -0.028593
  26 H :    0.029036
  27 H :   -0.008896
  28 C :   -0.000872
  29 H :    0.021508
  30 H :    0.015436
  31 H :    0.010500
  32 H :    0.036716
  33 H :    0.042288
Sum of atomic charges:   -0.0000000

LOEWDIN ATOMIC CHARGES
----------------------
   0 S :    0.386943
   1 C :   -0.173760
   2 C :   -0.063153
   3 C :   -0.045519
   4 C :   -0.186293
   5 H :    0.025912
   6 C :   -0.042566
   7 H :    0.029802
   8 H :    0.033228
   9 C :   -0.032894
  10 H :    0.016528
  11 H :    0.030106
  12 C :   -0.078589
  13 H :    0.019755
  14 H :    0.035608
  15 H :    0.024414
  16 S :    0.402237
  17 C :   -0.178236
  18 C :   -0.071827
  19 C :   -0.052390
  20 C :   -0.208688
  21 H :    0.028275
  22 C :   -0.037797
  23 H :    0.043605
  24 H :    0.030159
  25 C :   -0.037985
  26 H :    0.029102
  27 H :    0.016125
  28 C :   -0.050555
  29 H :    0.024397
  30 H :    0.017919
  31 H :    0.017902
  32 H :    0.024558
  33 H :    0.023678

  Mayer bond orders larger than 0.100000
B(  0-S ,  1-C ) :   1.1435 B(  0-S ,  4-C ) :   1.1116 B(  1-C ,  2-C ) :   1.6389
B(  1-C , 32-H ) :   0.9650 B(  2-C ,  3-C ) :   1.1893 B(  2-C ,  6-C ) :   1.0343
B(  3-C ,  4-C ) :   1.6541 B(  3-C ,  5-H ) :   0.9868 B(  4-C , 20-C ) :   1.0215
B(  6-C ,  7-H ) :   0.9478 B(  6-C ,  8-H ) :   0.9418 B(  6-C ,  9-C ) :   1.0609
B(  9-C , 10-H ) :   0.9542 B(  9-C , 11-H ) :   0.9585 B(  9-C , 12-C ) :   1.0652
B( 12-C , 13-H ) :   0.9793 B( 12-C , 14-H ) :   0.9761 B( 12-C , 15-H ) :   0.9751
B( 16-S , 17-C ) :   1.1511 B( 16-S , 20-C ) :   1.1347 B( 17-C , 18-C ) :   1.6314
B( 17-C , 33-H ) :   0.9673 B( 18-C , 19-C ) :   1.2257 B( 18-C , 21-H ) :   0.9912
B( 19-C , 20-C ) :   1.5801 B( 19-C , 22-C ) :   1.0515 B( 22-C , 23-H ) :   0.9224
B( 22-C , 24-H ) :   0.9289 B( 22-C , 25-C ) :   1.0785 B( 25-C , 26-H ) :   0.9491
B( 25-C , 27-H ) :   0.9513 B( 25-C , 28-C ) :   1.0701 B( 28-C , 29-H ) :   0.9763
B( 28-C , 30-H ) :   0.9767 B( 28-C , 31-H ) :   0.9756

Dispersion correction           -0.014772991
FINAL SINGLE POINT ENERGY     -1339.844226762664

DIPOLE MOMENT
-------------
                                X             Y             Z
Electronic contribution:    -15.82919      -7.92649      15.04975
Nuclear contribution   :     16.30330       7.86059     -15.41983
                        -----------------------------------------
Total Dipole Moment    :      0.47411      -0.06589      -0.37008
                        -----------------------------------------
Magnitude (a.u.)       :      0.60505
Magnitude (Debye)      :      1.53791

Rotational constants in cm-1:     0.018484     0.008562     0.007100
Rotational constants in MHz :   554.144168   256.674292   212.854541

                             ****ORCA TERMINATED NORMALLY****
TOTAL RUN TIME: 0 days 0 hours 0 minutes 30 seconds 176 msec
