                         Program Version 4.2.1 -  RELEASE  -
|  1> ! wB97X-D3 SP def2-SVP
|  2> %pal
|  3> nprocs 16
|  4> end
|  5>
|  6> * xyz 0 1
|  7> S 	 -62.0833 	 49.8028 	 125.697
|  8> C 	 -62.3583 	 48.015 	 125.735
|  9> C 	 -61.6155 	 47.3752 	 124.669
| 10> C 	 -61.0094 	 48.373 	 123.847
| 11> C 	 -61.0191 	 49.6565 	 124.368
| 12> H 	 -60.4947 	 48.1186 	 122.951
| 13> C 	 -61.5222 	 45.9135 	 124.305
| 14> H 	 -60.9362 	 45.4228 	 125.074
| 15> H 	 -60.7663 	 45.728 	 123.58
| 16> C 	 -62.9127 	 45.3817 	 124.08
| 17> H 	 -63.4958 	 45.4818 	 124.981
| 18> H 	 -63.3748 	 46.0119 	 123.327
| 19> C 	 -62.9077 	 43.8851 	 123.667
| 20> H 	 -62.3294 	 43.7553 	 122.703
| 21> H 	 -62.3673 	 43.2048 	 124.378
| 22> H 	 -63.9695 	 43.6596 	 123.71
| 23> S 	 -61.0014 	 51.2895 	 122.222
| 24> C 	 -59.6605 	 52.416 	 121.907
| 25> C 	 -58.7065 	 52.2651 	 122.911
| 26> C 	 -59.0365 	 51.1791 	 123.748
| 27> C 	 -60.3698 	 50.7921 	 123.717
| 28> H 	 -57.7882 	 52.883 	 122.851
| 29> C 	 -57.9659 	 50.6153 	 124.726
| 30> H 	 -58.2806 	 49.5332 	 125.02
| 31> H 	 -58.1825 	 51.2449 	 125.641
| 32> C 	 -56.514 	 50.688 	 124.279
| 33> H 	 -55.8728 	 50.452 	 125.164
| 34> H 	 -56.2244 	 51.713 	 124.001
| 35> C 	 -56.1347 	 49.8974 	 123.065
| 36> H 	 -55.8497 	 48.9188 	 123.352
| 37> H 	 -55.3006 	 50.4176 	 122.582
| 38> H 	 -57.01 	 49.7345 	 122.358
| 39> H 	 -62.8247 	 47.5267 	 126.555
| 40> H 	 -59.6182 	 53.2058 	 121.167
| 41> *
| 42>
| 43>                          ****END OF INPUT****

CARTESIAN COORDINATES (ANGSTROEM)
---------------------------------
  S    -62.083300   49.802800  125.697000
  C    -62.358300   48.015000  125.735000
  C    -61.615500   47.375200  124.669000
  C    -61.009400   48.373000  123.847000
  C    -61.019100   49.656500  124.368000
  H    -60.494700   48.118600  122.951000
  C    -61.522200   45.913500  124.305000
  H    -60.936200   45.422800  125.074000
  H    -60.766300   45.728000  123.580000
  C    -62.912700   45.381700  124.080000
  H    -63.495800   45.481800  124.981000
  H    -63.374800   46.011900  123.327000
  C    -62.907700   43.885100  123.667000
  H    -62.329400   43.755300  122.703000
  H    -62.367300   43.204800  124.378000
  H    -63.969500   43.659600  123.710000
  S    -61.001400   51.289500  122.222000
  C    -59.660500   52.416000  121.907000
  C    -58.706500   52.265100  122.911000
  C    -59.036500   51.179100  123.748000
  C    -60.369800   50.792100  123.717000
  H    -57.788200   52.883000  122.851000
  C    -57.965900   50.615300  124.726000
  H    -58.280600   49.533200  125.020000
  H    -58.182500   51.244900  125.641000
  C    -56.514000   50.688000  124.279000
  H    -55.872800   50.452000  125.164000
  H    -56.224400   51.713000  124.001000
  C    -56.134700   49.897400  123.065000
  H    -55.849700   48.918800  123.352000
  H    -55.300600   50.417600  122.582000
  H    -57.010000   49.734500  122.358000
  H    -62.824700   47.526700  126.555000
  H    -59.618200   53.205800  121.167000

 Total Charge           Charge          ....    0
 Multiplicity           Mult            ....    1
 Number of Electrons    NEL             ....  134
 Basis Dimension        Dim             ....  322

ORBITAL ENERGIES
----------------

  NO   OCC          E(Eh)            E(eV)
   0   2.0000     -88.969575     -2420.9852
   1   2.0000     -88.961333     -2420.7609
   2   2.0000     -10.324985      -280.9571
   3   2.0000     -10.320693      -280.8403
   4   2.0000     -10.319095      -280.7969
   5   2.0000     -10.317620      -280.7567
   6   2.0000     -10.307570      -280.4833
   7   2.0000     -10.302836      -280.3544
   8   2.0000     -10.299111      -280.2531
   9   2.0000     -10.294917      -280.1389
  10   2.0000     -10.288771      -279.9717
  11   2.0000     -10.287530      -279.9379
  12   2.0000     -10.286991      -279.9233
  13   2.0000     -10.286411      -279.9075
  14   2.0000     -10.286215      -279.9022
  15   2.0000     -10.275013      -279.5973
  16   2.0000      -8.083671      -219.9679
  17   2.0000      -8.076427      -219.7708
  18   2.0000      -6.042073      -164.4132
  19   2.0000      -6.038179      -164.3072
  20   2.0000      -6.034925      -164.2186
  21   2.0000      -6.034679      -164.2120
  22   2.0000      -6.030858      -164.1080
  23   2.0000      -6.027165      -164.0075
  24   2.0000      -1.008754       -27.4496
  25   2.0000      -0.980857       -26.6905
  26   2.0000      -0.917913       -24.9777
  27   2.0000      -0.906604       -24.6699
  28   2.0000      -0.865851       -23.5610
  29   2.0000      -0.849157       -23.1067
  30   2.0000      -0.844025       -22.9671
  31   2.0000      -0.809091       -22.0165
  32   2.0000      -0.782131       -21.2829
  33   2.0000      -0.768580       -20.9141
  34   2.0000      -0.709936       -19.3183
  35   2.0000      -0.696342       -18.9484
  36   2.0000      -0.689233       -18.7550
  37   2.0000      -0.653085       -17.7714
  38   2.0000      -0.643793       -17.5185
  39   2.0000      -0.617563       -16.8047
  40   2.0000      -0.591267       -16.0892
  41   2.0000      -0.572327       -15.5738
  42   2.0000      -0.561060       -15.2672
  43   2.0000      -0.551538       -15.0081
  44   2.0000      -0.540226       -14.7003
  45   2.0000      -0.534153       -14.5350
  46   2.0000      -0.524658       -14.2767
  47   2.0000      -0.515336       -14.0230
  48   2.0000      -0.501345       -13.6423
  49   2.0000      -0.492917       -13.4130
  50   2.0000      -0.486738       -13.2448
  51   2.0000      -0.476059       -12.9542
  52   2.0000      -0.469451       -12.7744
  53   2.0000      -0.460727       -12.5370
  54   2.0000      -0.458451       -12.4751
  55   2.0000      -0.450641       -12.2626
  56   2.0000      -0.438468       -11.9313
  57   2.0000      -0.436472       -11.8770
  58   2.0000      -0.430585       -11.7168
  59   2.0000      -0.420842       -11.4517
  60   2.0000      -0.417015       -11.3475
  61   2.0000      -0.415867       -11.3163
  62   2.0000      -0.404229       -10.9996
  63   2.0000      -0.334813        -9.1107
  64   2.0000      -0.328305        -8.9336
  65   2.0000      -0.314028        -8.5451
  66   2.0000      -0.301490        -8.2040
  67   0.0000       0.041322         1.1244
  68   0.0000       0.047608         1.2955
  69   0.0000       0.111426         3.0321
  70   0.0000       0.116779         3.1777
  71   0.0000       0.132762         3.6126

MULLIKEN ATOMIC CHARGES
-----------------------
   0 S :    0.120815
   1 C :   -0.134197
   2 C :   -0.107709
   3 C :    0.036648
   4 C :   -0.168542
   5 H :    0.002151
   6 C :    0.108342
   7 H :    0.017536
   8 H :   -0.003628
   9 C :   -0.080895
  10 H :    0.030197
  11 H :    0.041122
  12 C :   -0.051757
  13 H :    0.042972
  14 H :    0.032338
  15 H :    0.042864
  16 S :    0.103878
  17 C :   -0.097047
  18 C :   -0.039621
  19 C :   -0.079386
  20 C :   -0.125259
  21 H :    0.038985
  22 C :    0.028272
  23 H :    0.047001
  24 H :    0.054898
  25 C :   -0.082889
  26 H :    0.038515
  27 H :    0.018717
  28 C :   -0.042701
  29 H :    0.019696
  30 H :    0.036587
  31 H :    0.050440
  32 H :    0.046861
  33 H :    0.054796
Sum of atomic charges:    0.0000000

LOEWDIN ATOMIC CHARGES
----------------------
   0 S :    0.417644
   1 C :   -0.192734
   2 C :   -0.043600
   3 C :   -0.063162
   4 C :   -0.216417
   5 H :    0.024555
   6 C :   -0.041042
   7 H :    0.034647
   8 H :    0.025753
   9 C :   -0.034351
  10 H :    0.024193
  11 H :    0.029862
  12 C :   -0.072048
  13 H :    0.031727
  14 H :    0.026924
  15 H :    0.028816
  16 S :    0.421471
  17 C :   -0.177115
  18 C :   -0.079521
  19 C :   -0.055978
  20 C :   -0.231866
  21 H :    0.039632
  22 C :   -0.043993
  23 H :    0.038463
  24 H :    0.044290
  25 C :   -0.054635
  26 H :    0.033062
  27 H :    0.020728
  28 C :   -0.066766
  29 H :    0.017734
  30 H :    0.029995
  31 H :    0.037077
  32 H :    0.017657
  33 H :    0.028997

  Mayer bond orders larger than 0.100000
B(  0-S ,  1-C ) :   1.1461 B(  0-S ,  4-C ) :   1.1735 B(  1-C ,  2-C ) :   1.5571
B(  1-C ,  4-C ) :   0.1102 B(  1-C , 32-H ) :   0.9745 B(  2-C ,  3-C ) :   1.2773
B(  2-C ,  6-C ) :   1.0253 B(  3-C ,  4-C ) :   1.5447 B(  3-C ,  5-H ) :   0.9977
B(  4-C , 20-C ) :   0.9962 B(  6-C ,  7-H ) :   0.9201 B(  6-C ,  8-H ) :   0.9361
B(  6-C ,  9-C ) :   1.0518 B(  9-C , 10-H ) :   0.9565 B(  9-C , 11-H ) :   0.9574
B(  9-C , 12-C ) :   1.0759 B( 12-C , 13-H ) :   0.9744 B( 12-C , 14-H ) :   0.9749
B( 12-C , 15-H ) :   0.9757 B( 16-S , 17-C ) :   1.1723 B( 16-S , 20-C ) :   1.1469
B( 17-C , 18-C ) :   1.5914 B( 17-C , 20-C ) :   0.1082 B( 17-C , 33-H ) :   0.9671
B( 18-C , 19-C ) :   1.2553 B( 18-C , 21-H ) :   0.9837 B( 19-C , 20-C ) :   1.5791
B( 19-C , 22-C ) :   1.0161 B( 22-C , 23-H ) :   0.9387 B( 22-C , 24-H ) :   0.9379
B( 22-C , 25-C ) :   1.0783 B( 25-C , 26-H ) :   0.9510 B( 25-C , 27-H ) :   0.9566
B( 25-C , 28-C ) :   1.0669 B( 28-C , 29-H ) :   0.9739 B( 28-C , 30-H ) :   0.9777
B( 28-C , 31-H ) :   0.9751

Dispersion correction           -0.014341023
FINAL SINGLE POINT ENERGY     -1339.846382425541

DIPOLE MOMENT
-------------
                                X             Y             Z
Electronic contribution:    -12.22160      19.73435       1.28309
Nuclear contribution   :     12.76000     -20.16360      -1.30279
                        -----------------------------------------
Total Dipole Moment    :      0.53841      -0.42926      -0.01970
                        -----------------------------------------
Magnitude (a.u.)       :      0.68886
Magnitude (Debye)      :      1.75095

Rotational constants in cm-1:     0.020748     0.007323     0.006698
Rotational constants in MHz :   622.015472   219.542326   200.804726

                             ****ORCA TERMINATED NORMALLY****
TOTAL RUN TIME: 0 days 0 hours 0 minutes 33 seconds 404 msec
