                         Program Version 4.2.1 -  RELEASE  -
|  1> ! wB97X-D3 SP def2-SVP
|  2> %pal
|  3> nprocs 16
|  4> end
|  5>
|  6> * xyz 0 1
|  7> S 	 2.54788 	 -12.3906 	 52.9819
|  8> C 	 1.08457 	 -12.3408 	 51.915
|  9> C 	 0.179802 	 -13.3612 	 52.1433
| 10> C 	 0.743039 	 -14.2802 	 53.1366
| 11> C 	 2.00466 	 -13.9801 	 53.5645
| 12> H 	 0.432403 	 -15.2151 	 53.5691
| 13> C 	 -1.14782 	 -13.5842 	 51.5159
| 14> H 	 -1.11699 	 -13.1372 	 50.5261
| 15> H 	 -1.76093 	 -12.9432 	 52.196
| 16> C 	 -1.85005 	 -14.9844 	 51.4576
| 17> H 	 -2.64655 	 -14.9113 	 50.6783
| 18> H 	 -1.16244 	 -15.7063 	 50.9649
| 19> C 	 -2.44695 	 -15.4289 	 52.7723
| 20> H 	 -3.10621 	 -16.3298 	 52.5281
| 21> H 	 -1.75603 	 -15.8309 	 53.5451
| 22> H 	 -3.15878 	 -14.7812 	 53.2774
| 23> S 	 4.54851 	 -15.0962 	 53.9559
| 24> C 	 4.7154 	 -16.2567 	 55.2339
| 25> C 	 3.64167 	 -16.205 	 56.0405
| 26> C 	 2.53268 	 -15.4461 	 55.6291
| 27> C 	 2.85667 	 -14.7876 	 54.4662
| 28> H 	 3.78675 	 -16.7783 	 56.9932
| 29> C 	 1.2592 	 -15.2973 	 56.5406
| 30> H 	 0.756956 	 -16.2448 	 56.379
| 31> H 	 0.629663 	 -14.5231 	 56.0681
| 32> C 	 1.64704 	 -14.965 	 57.9708
| 33> H 	 2.39008 	 -14.1525 	 58.0026
| 34> H 	 2.01962 	 -15.8476 	 58.5158
| 35> C 	 0.46931 	 -14.4888 	 58.7806
| 36> H 	 0.710109 	 -14.2971 	 59.8653
| 37> H 	 -0.31423 	 -15.2287 	 58.713
| 38> H 	 0.0381425 	 -13.5832 	 58.4717
| 39> H 	 0.939044 	 -11.5851 	 51.14
| 40> H 	 5.44818 	 -17.0292 	 55.3147
| 41> *
| 42>
| 43>                          ****END OF INPUT****

CARTESIAN COORDINATES (ANGSTROEM)
---------------------------------
  S      2.547880  -12.390600   52.981900
  C      1.084570  -12.340800   51.915000
  C      0.179802  -13.361200   52.143300
  C      0.743039  -14.280200   53.136600
  C      2.004660  -13.980100   53.564500
  H      0.432403  -15.215100   53.569100
  C     -1.147820  -13.584200   51.515900
  H     -1.116990  -13.137200   50.526100
  H     -1.760930  -12.943200   52.196000
  C     -1.850050  -14.984400   51.457600
  H     -2.646550  -14.911300   50.678300
  H     -1.162440  -15.706300   50.964900
  C     -2.446950  -15.428900   52.772300
  H     -3.106210  -16.329800   52.528100
  H     -1.756030  -15.830900   53.545100
  H     -3.158780  -14.781200   53.277400
  S      4.548510  -15.096200   53.955900
  C      4.715400  -16.256700   55.233900
  C      3.641670  -16.205000   56.040500
  C      2.532680  -15.446100   55.629100
  C      2.856670  -14.787600   54.466200
  H      3.786750  -16.778300   56.993200
  C      1.259200  -15.297300   56.540600
  H      0.756956  -16.244800   56.379000
  H      0.629663  -14.523100   56.068100
  C      1.647040  -14.965000   57.970800
  H      2.390080  -14.152500   58.002600
  H      2.019620  -15.847600   58.515800
  C      0.469310  -14.488800   58.780600
  H      0.710109  -14.297100   59.865300
  H     -0.314230  -15.228700   58.713000
  H      0.038143  -13.583200   58.471700
  H      0.939044  -11.585100   51.140000
  H      5.448180  -17.029200   55.314700

 Total Charge           Charge          ....    0
 Multiplicity           Mult            ....    1
 Number of Electrons    NEL             ....  134
 Basis Dimension        Dim             ....  322

ORBITAL ENERGIES
----------------

  NO   OCC          E(Eh)            E(eV)
   0   2.0000     -88.962154     -2420.7833
   1   2.0000     -88.961355     -2420.7615
   2   2.0000     -10.328473      -281.0520
   3   2.0000     -10.326975      -281.0113
   4   2.0000     -10.314696      -280.6772
   5   2.0000     -10.309224      -280.5282
   6   2.0000     -10.307399      -280.4786
   7   2.0000     -10.303514      -280.3729
   8   2.0000     -10.300866      -280.3008
   9   2.0000     -10.300285      -280.2850
  10   2.0000     -10.296441      -280.1804
  11   2.0000     -10.290542      -280.0199
  12   2.0000     -10.289855      -280.0012
  13   2.0000     -10.288906      -279.9754
  14   2.0000     -10.287763      -279.9443
  15   2.0000     -10.273890      -279.5667
  16   2.0000      -8.076838      -219.7819
  17   2.0000      -8.074895      -219.7291
  18   2.0000      -6.035326      -164.2296
  19   2.0000      -6.033587      -164.1822
  20   2.0000      -6.031493      -164.1253
  21   2.0000      -6.029822      -164.0798
  22   2.0000      -6.027468      -164.0157
  23   2.0000      -6.025292      -163.9565
  24   2.0000      -1.002906       -27.2905
  25   2.0000      -0.977430       -26.5972
  26   2.0000      -0.913134       -24.8476
  27   2.0000      -0.910214       -24.7682
  28   2.0000      -0.868328       -23.6284
  29   2.0000      -0.852973       -23.2106
  30   2.0000      -0.839656       -22.8482
  31   2.0000      -0.815645       -22.1948
  32   2.0000      -0.784974       -21.3602
  33   2.0000      -0.774137       -21.0653
  34   2.0000      -0.709354       -19.3025
  35   2.0000      -0.701447       -19.0874
  36   2.0000      -0.695288       -18.9198
  37   2.0000      -0.649354       -17.6698
  38   2.0000      -0.639444       -17.4002
  39   2.0000      -0.611428       -16.6378
  40   2.0000      -0.594017       -16.1640
  41   2.0000      -0.574710       -15.6386
  42   2.0000      -0.564137       -15.3510
  43   2.0000      -0.548283       -14.9195
  44   2.0000      -0.533051       -14.5051
  45   2.0000      -0.531110       -14.4522
  46   2.0000      -0.522170       -14.2090
  47   2.0000      -0.512611       -13.9489
  48   2.0000      -0.498199       -13.5567
  49   2.0000      -0.495846       -13.4926
  50   2.0000      -0.488941       -13.3048
  51   2.0000      -0.481857       -13.1120
  52   2.0000      -0.474401       -12.9091
  53   2.0000      -0.465961       -12.6794
  54   2.0000      -0.456020       -12.4089
  55   2.0000      -0.446454       -12.1486
  56   2.0000      -0.441936       -12.0257
  57   2.0000      -0.437338       -11.9006
  58   2.0000      -0.430407       -11.7120
  59   2.0000      -0.425087       -11.5672
  60   2.0000      -0.419384       -11.4120
  61   2.0000      -0.416875       -11.3438
  62   2.0000      -0.411913       -11.2087
  63   2.0000      -0.344363        -9.3706
  64   2.0000      -0.332212        -9.0400
  65   2.0000      -0.324332        -8.8255
  66   2.0000      -0.289374        -7.8743
  67   0.0000       0.033233         0.9043
  68   0.0000       0.070103         1.9076
  69   0.0000       0.105554         2.8723
  70   0.0000       0.124696         3.3932
  71   0.0000       0.133178         3.6240

MULLIKEN ATOMIC CHARGES
-----------------------
   0 S :    0.087474
   1 C :   -0.139867
   2 C :   -0.051690
   3 C :    0.022238
   4 C :   -0.149866
   5 H :   -0.005243
   6 C :    0.039760
   7 H :    0.028290
   8 H :    0.049474
   9 C :   -0.053942
  10 H :    0.034577
  11 H :    0.042148
  12 C :   -0.081883
  13 H :    0.034427
  14 H :    0.044346
  15 H :    0.037333
  16 S :    0.102379
  17 C :   -0.081104
  18 C :   -0.072183
  19 C :   -0.035263
  20 C :   -0.182891
  21 H :    0.030315
  22 C :    0.095813
  23 H :    0.035893
  24 H :    0.030957
  25 C :   -0.076408
  26 H :    0.046099
  27 H :    0.038457
  28 C :   -0.037665
  29 H :    0.037610
  30 H :    0.018784
  31 H :    0.017610
  32 H :    0.044072
  33 H :    0.049948
Sum of atomic charges:    0.0000000

LOEWDIN ATOMIC CHARGES
----------------------
   0 S :    0.352328
   1 C :   -0.186661
   2 C :   -0.053305
   3 C :   -0.072558
   4 C :   -0.174407
   5 H :    0.027620
   6 C :   -0.040394
   7 H :    0.032353
   8 H :    0.045532
   9 C :   -0.045615
  10 H :    0.034446
  11 H :    0.032626
  12 C :   -0.079157
  13 H :    0.036818
  14 H :    0.027267
  15 H :    0.026515
  16 S :    0.387678
  17 C :   -0.185780
  18 C :   -0.082724
  19 C :   -0.058820
  20 C :   -0.185070
  21 H :    0.037657
  22 C :   -0.022865
  23 H :    0.032888
  24 H :    0.033087
  25 C :   -0.042309
  26 H :    0.032281
  27 H :    0.029249
  28 C :   -0.063828
  29 H :    0.032902
  30 H :    0.021018
  31 H :    0.015290
  32 H :    0.026121
  33 H :    0.029816

  Mayer bond orders larger than 0.100000
B(  0-S ,  1-C ) :   1.0998 B(  0-S ,  4-C ) :   1.1203 B(  1-C ,  2-C ) :   1.6707
B(  1-C , 32-H ) :   0.9664 B(  2-C ,  3-C ) :   1.1501 B(  2-C ,  6-C ) :   1.0158
B(  3-C ,  4-C ) :   1.6669 B(  3-C ,  5-H ) :   0.9870 B(  4-C , 20-C ) :   1.0184
B(  6-C ,  7-H ) :   0.9395 B(  6-C ,  8-H ) :   0.9302 B(  6-C ,  9-C ) :   1.0711
B(  9-C , 10-H ) :   0.9528 B(  9-C , 11-H ) :   0.9549 B(  9-C , 12-C ) :   1.0715
B( 12-C , 13-H ) :   0.9688 B( 12-C , 14-H ) :   0.9760 B( 12-C , 15-H ) :   0.9729
B( 16-S , 17-C ) :   1.1380 B( 16-S , 20-C ) :   1.1338 B( 17-C , 18-C ) :   1.6529
B( 17-C , 33-H ) :   0.9655 B( 18-C , 19-C ) :   1.2178 B( 18-C , 21-H ) :   0.9780
B( 19-C , 20-C ) :   1.6225 B( 19-C , 22-C ) :   1.0120 B( 22-C , 23-H ) :   0.9238
B( 22-C , 24-H ) :   0.9404 B( 22-C , 25-C ) :   1.0710 B( 25-C , 26-H ) :   0.9596
B( 25-C , 27-H ) :   0.9432 B( 25-C , 28-C ) :   1.0978 B( 28-C , 29-H ) :   0.9730
B( 28-C , 30-H ) :   0.9700 B( 28-C , 31-H ) :   0.9743

Dispersion correction           -0.014036490
FINAL SINGLE POINT ENERGY     -1339.865251570293

DIPOLE MOMENT
-------------
                                X             Y             Z
Electronic contribution:     25.58380       7.12768     -10.73393
Nuclear contribution   :    -26.30651      -7.56326      10.98616
                        -----------------------------------------
Total Dipole Moment    :     -0.72272      -0.43558       0.25222
                        -----------------------------------------
Magnitude (a.u.)       :      0.88072
Magnitude (Debye)      :      2.23861

Rotational constants in cm-1:     0.015675     0.009230     0.007142
Rotational constants in MHz :   469.912709   276.713705   214.105555

                             ****ORCA TERMINATED NORMALLY****
TOTAL RUN TIME: 0 days 0 hours 0 minutes 29 seconds 786 msec
