                         Program Version 4.2.1 -  RELEASE  -
|  1> ! wB97X-D3 SP def2-SVP
|  2> %pal
|  3> nprocs 16
|  4> end
|  5>
|  6> * xyz 0 1
|  7> S 	 -82.906 	 39.2243 	 129.914
|  8> C 	 -82.9547 	 38.4913 	 131.46
|  9> C 	 -84.0701 	 38.8763 	 132.156
| 10> C 	 -84.7611 	 39.9358 	 131.493
| 11> C 	 -84.2572 	 40.3401 	 130.23
| 12> H 	 -85.6025 	 40.4522 	 131.914
| 13> C 	 -84.4298 	 38.3335 	 133.559
| 14> H 	 -84.3752 	 37.256 	 133.688
| 15> H 	 -85.5362 	 38.4442 	 133.716
| 16> C 	 -83.8746 	 39.2271 	 134.766
| 17> H 	 -84.14 	 40.2708 	 134.584
| 18> H 	 -84.436 	 38.961 	 135.663
| 19> C 	 -82.2995 	 39.1444 	 135.029
| 20> H 	 -82.0967 	 38.2966 	 135.685
| 21> H 	 -81.6464 	 39.1029 	 134.113
| 22> H 	 -82.0073 	 40.045 	 135.567
| 23> S 	 -84.8486 	 40.8639 	 127.673
| 24> C 	 -85.475 	 42.433 	 127.164
| 25> C 	 -85.8011 	 43.2076 	 128.3
| 26> C 	 -85.3726 	 42.5673 	 129.486
| 27> C 	 -84.7289 	 41.3441 	 129.333
| 28> H 	 -86.2386 	 44.2669 	 128.092
| 29> C 	 -85.3958 	 43.2922 	 130.834
| 30> H 	 -84.4098 	 42.9227 	 131.22
| 31> H 	 -86.2312 	 42.9013 	 131.444
| 32> C 	 -85.2857 	 44.8434 	 130.747
| 33> H 	 -86.1873 	 45.2496 	 130.277
| 34> H 	 -84.4575 	 45.123 	 130.134
| 35> C 	 -85.164 	 45.4312 	 132.15
| 36> H 	 -85.4444 	 46.4508 	 131.919
| 37> H 	 -84.1564 	 45.4053 	 132.551
| 38> H 	 -85.9045 	 45.0346 	 132.807
| 39> H 	 -82.4765 	 37.5954 	 131.765
| 40> H 	 -85.6992 	 42.671 	 126.123
| 41> *
| 42>
| 43>                          ****END OF INPUT****

CARTESIAN COORDINATES (ANGSTROEM)
---------------------------------
  S    -82.906000   39.224300  129.914000
  C    -82.954700   38.491300  131.460000
  C    -84.070100   38.876300  132.156000
  C    -84.761100   39.935800  131.493000
  C    -84.257200   40.340100  130.230000
  H    -85.602500   40.452200  131.914000
  C    -84.429800   38.333500  133.559000
  H    -84.375200   37.256000  133.688000
  H    -85.536200   38.444200  133.716000
  C    -83.874600   39.227100  134.766000
  H    -84.140000   40.270800  134.584000
  H    -84.436000   38.961000  135.663000
  C    -82.299500   39.144400  135.029000
  H    -82.096700   38.296600  135.685000
  H    -81.646400   39.102900  134.113000
  H    -82.007300   40.045000  135.567000
  S    -84.848600   40.863900  127.673000
  C    -85.475000   42.433000  127.164000
  C    -85.801100   43.207600  128.300000
  C    -85.372600   42.567300  129.486000
  C    -84.728900   41.344100  129.333000
  H    -86.238600   44.266900  128.092000
  C    -85.395800   43.292200  130.834000
  H    -84.409800   42.922700  131.220000
  H    -86.231200   42.901300  131.444000
  C    -85.285700   44.843400  130.747000
  H    -86.187300   45.249600  130.277000
  H    -84.457500   45.123000  130.134000
  C    -85.164000   45.431200  132.150000
  H    -85.444400   46.450800  131.919000
  H    -84.156400   45.405300  132.551000
  H    -85.904500   45.034600  132.807000
  H    -82.476500   37.595400  131.765000
  H    -85.699200   42.671000  126.123000

 Total Charge           Charge          ....    0
 Multiplicity           Mult            ....    1
 Number of Electrons    NEL             ....  134
 Basis Dimension        Dim             ....  322

ORBITAL ENERGIES
----------------

  NO   OCC          E(Eh)            E(eV)
   0   2.0000     -88.966441     -2420.8999
   1   2.0000     -88.964072     -2420.8355
   2   2.0000     -10.335951      -281.2555
   3   2.0000     -10.325181      -280.9625
   4   2.0000     -10.323221      -280.9091
   5   2.0000     -10.308887      -280.5191
   6   2.0000     -10.305885      -280.4374
   7   2.0000     -10.304224      -280.3922
   8   2.0000     -10.302534      -280.3462
   9   2.0000     -10.302222      -280.3377
  10   2.0000     -10.297273      -280.2030
  11   2.0000     -10.297111      -280.1986
  12   2.0000     -10.293053      -280.0882
  13   2.0000     -10.285918      -279.8941
  14   2.0000     -10.282181      -279.7924
  15   2.0000     -10.273181      -279.5475
  16   2.0000      -8.081147      -219.8992
  17   2.0000      -8.079022      -219.8414
  18   2.0000      -6.039665      -164.3477
  19   2.0000      -6.037420      -164.2865
  20   2.0000      -6.035561      -164.2360
  21   2.0000      -6.033440      -164.1782
  22   2.0000      -6.031953      -164.1378
  23   2.0000      -6.029935      -164.0829
  24   2.0000      -1.008608       -27.4456
  25   2.0000      -0.985532       -26.8177
  26   2.0000      -0.907966       -24.7070
  27   2.0000      -0.897303       -24.4169
  28   2.0000      -0.870844       -23.6969
  29   2.0000      -0.852906       -23.2088
  30   2.0000      -0.838768       -22.8240
  31   2.0000      -0.812535       -22.1102
  32   2.0000      -0.779433       -21.2095
  33   2.0000      -0.769507       -20.9393
  34   2.0000      -0.710818       -19.3424
  35   2.0000      -0.702157       -19.1067
  36   2.0000      -0.694705       -18.9039
  37   2.0000      -0.654174       -17.8010
  38   2.0000      -0.638643       -17.3784
  39   2.0000      -0.618252       -16.8235
  40   2.0000      -0.589325       -16.0364
  41   2.0000      -0.573746       -15.6124
  42   2.0000      -0.569590       -15.4993
  43   2.0000      -0.538785       -14.6611
  44   2.0000      -0.530377       -14.4323
  45   2.0000      -0.525584       -14.3019
  46   2.0000      -0.519188       -14.1278
  47   2.0000      -0.515871       -14.0376
  48   2.0000      -0.507291       -13.8041
  49   2.0000      -0.496231       -13.5031
  50   2.0000      -0.488010       -13.2794
  51   2.0000      -0.478042       -13.0082
  52   2.0000      -0.474196       -12.9035
  53   2.0000      -0.469668       -12.7803
  54   2.0000      -0.459958       -12.5161
  55   2.0000      -0.443844       -12.0776
  56   2.0000      -0.438303       -11.9268
  57   2.0000      -0.437425       -11.9029
  58   2.0000      -0.433665       -11.8006
  59   2.0000      -0.420354       -11.4384
  60   2.0000      -0.419579       -11.4173
  61   2.0000      -0.411914       -11.2087
  62   2.0000      -0.403570       -10.9817
  63   2.0000      -0.355703        -9.6792
  64   2.0000      -0.330606        -8.9962
  65   2.0000      -0.329115        -8.9557
  66   2.0000      -0.286394        -7.7932
  67   0.0000       0.017664         0.4807
  68   0.0000       0.074117         2.0168
  69   0.0000       0.109784         2.9874
  70   0.0000       0.127831         3.4785
  71   0.0000       0.133213         3.6249

MULLIKEN ATOMIC CHARGES
-----------------------
   0 S :    0.112188
   1 C :   -0.075073
   2 C :   -0.103991
   3 C :    0.036480
   4 C :   -0.153841
   5 H :   -0.003451
   6 C :    0.027043
   7 H :    0.034290
   8 H :    0.024655
   9 C :   -0.071344
  10 H :    0.029786
  11 H :    0.032373
  12 C :   -0.074531
  13 H :    0.035670
  14 H :    0.049565
  15 H :    0.033675
  16 S :    0.095510
  17 C :   -0.105141
  18 C :   -0.077480
  19 C :   -0.043777
  20 C :   -0.126165
  21 H :    0.063536
  22 C :    0.009785
  23 H :    0.045875
  24 H :    0.049929
  25 C :   -0.100532
  26 H :    0.028991
  27 H :    0.032299
  28 C :   -0.006320
  29 H :    0.022775
  30 H :    0.043841
  31 H :    0.025494
  32 H :    0.042945
  33 H :    0.064942
Sum of atomic charges:    0.0000000

LOEWDIN ATOMIC CHARGES
----------------------
   0 S :    0.413447
   1 C :   -0.203828
   2 C :   -0.069131
   3 C :   -0.055748
   4 C :   -0.193764
   5 H :    0.024016
   6 C :   -0.038990
   7 H :    0.028790
   8 H :    0.036484
   9 C :   -0.033997
  10 H :    0.023422
  11 H :    0.023868
  12 C :   -0.075954
  13 H :    0.023570
  14 H :    0.031964
  15 H :    0.025979
  16 S :    0.413071
  17 C :   -0.181851
  18 C :   -0.087322
  19 C :   -0.062253
  20 C :   -0.211416
  21 H :    0.054031
  22 C :   -0.039842
  23 H :    0.040752
  24 H :    0.030873
  25 C :   -0.037197
  26 H :    0.019525
  27 H :    0.024347
  28 C :   -0.057335
  29 H :    0.028477
  30 H :    0.027059
  31 H :    0.021546
  32 H :    0.027254
  33 H :    0.030153

  Mayer bond orders larger than 0.100000
B(  0-S ,  1-C ) :   1.1560 B(  0-S ,  4-C ) :   1.1435 B(  1-C ,  2-C ) :   1.5964
B(  1-C ,  4-C ) :   0.1015 B(  1-C , 32-H ) :   0.9600 B(  2-C ,  3-C ) :   1.2814
B(  2-C ,  6-C ) :   1.0273 B(  3-C ,  4-C ) :   1.5214 B(  3-C ,  5-H ) :   0.9961
B(  4-C , 20-C ) :   1.0889 B(  6-C ,  7-H ) :   0.9522 B(  6-C ,  8-H ) :   0.9409
B(  6-C ,  9-C ) :   1.0531 B(  9-C , 10-H ) :   0.9630 B(  9-C , 11-H ) :   0.9606
B(  9-C , 12-C ) :   1.0616 B( 12-C , 13-H ) :   0.9801 B( 12-C , 14-H ) :   0.9761
B( 12-C , 15-H ) :   0.9779 B( 16-S , 17-C ) :   1.1774 B( 16-S , 20-C ) :   1.1410
B( 17-C , 18-C ) :   1.5656 B( 17-C , 20-C ) :   0.1146 B( 17-C , 33-H ) :   0.9673
B( 18-C , 19-C ) :   1.2686 B( 18-C , 21-H ) :   0.9744 B( 19-C , 20-C ) :   1.5687
B( 19-C , 22-C ) :   1.0099 B( 22-C , 23-H ) :   0.9507 B( 22-C , 24-H ) :   0.9283
B( 22-C , 25-C ) :   1.0837 B( 25-C , 26-H ) :   0.9512 B( 25-C , 27-H ) :   0.9548
B( 25-C , 28-C ) :   1.0824 B( 28-C , 29-H ) :   0.9741 B( 28-C , 30-H ) :   0.9765
B( 28-C , 31-H ) :   0.9730

Dispersion correction           -0.013801828
FINAL SINGLE POINT ENERGY     -1339.864676885212

DIPOLE MOMENT
-------------
                                X             Y             Z
Electronic contribution:      1.68365     -11.87226     -27.18479
Nuclear contribution   :     -2.05681      12.21198      27.69889
                        -----------------------------------------
Total Dipole Moment    :     -0.37316       0.33972       0.51409
                        -----------------------------------------
Magnitude (a.u.)       :      0.72038
Magnitude (Debye)      :      1.83106

Rotational constants in cm-1:     0.017559     0.008763     0.006295
Rotational constants in MHz :   526.419249   262.705760   188.722631

                             ****ORCA TERMINATED NORMALLY****
TOTAL RUN TIME: 0 days 0 hours 0 minutes 34 seconds 422 msec
