                         Program Version 4.2.1 -  RELEASE  -
|  1> ! wB97X-D3 SP def2-SVP
|  2> %pal
|  3> nprocs 16
|  4> end
|  5>
|  6> * xyz 0 1
|  7> S 	 37.5513 	 11.9655 	 81.0932
|  8> C 	 38.8976 	 10.8012 	 81.0238
|  9> C 	 40.1629 	 11.3358 	 80.8744
| 10> C 	 40.0381 	 12.743 	 80.6915
| 11> C 	 38.7689 	 13.2642 	 80.9957
| 12> H 	 40.8653 	 13.4547 	 80.4685
| 13> C 	 41.4424 	 10.4987 	 80.4894
| 14> H 	 41.5508 	 9.65147 	 81.2072
| 15> H 	 42.2948 	 11.1433 	 80.5553
| 16> C 	 41.3888 	 9.86703 	 79.0722
| 17> H 	 42.1916 	 9.07651 	 78.9894
| 18> H 	 40.521 	 9.24697 	 78.8829
| 19> C 	 41.5894 	 10.919 	 78.0017
| 20> H 	 41.3236 	 10.408 	 77.0838
| 21> H 	 40.7604 	 11.6746 	 78.1449
| 22> H 	 42.5556 	 11.3613 	 77.9898
| 23> S 	 36.9848 	 14.9695 	 79.9101
| 24> C 	 37.1768 	 16.6929 	 79.8652
| 25> C 	 38.394 	 17.0344 	 80.4119
| 26> C 	 39.176 	 15.9344 	 80.9665
| 27> C 	 38.4839 	 14.6792 	 80.7686
| 28> H 	 38.6952 	 18.0247 	 80.5855
| 29> C 	 40.4903 	 16.1516 	 81.7422
| 30> H 	 40.8966 	 15.2419 	 82.176
| 31> H 	 40.1624 	 16.6191 	 82.6526
| 32> C 	 41.5559 	 17.0318 	 81.0299
| 33> H 	 42.2216 	 17.2555 	 81.8425
| 34> H 	 41.187 	 18.028 	 80.6816
| 35> C 	 42.25 	 16.2837 	 79.8494
| 36> H 	 42.9147 	 15.5157 	 80.3109
| 37> H 	 42.8708 	 17.0758 	 79.416
| 38> H 	 41.52 	 15.9305 	 79.071
| 39> H 	 38.7581 	 9.69648 	 81.1529
| 40> H 	 36.4955 	 17.4812 	 79.6432
| 41> *
| 42>
| 43>                          ****END OF INPUT****

CARTESIAN COORDINATES (ANGSTROEM)
---------------------------------
  S     37.551300   11.965500   81.093200
  C     38.897600   10.801200   81.023800
  C     40.162900   11.335800   80.874400
  C     40.038100   12.743000   80.691500
  C     38.768900   13.264200   80.995700
  H     40.865300   13.454700   80.468500
  C     41.442400   10.498700   80.489400
  H     41.550800    9.651470   81.207200
  H     42.294800   11.143300   80.555300
  C     41.388800    9.867030   79.072200
  H     42.191600    9.076510   78.989400
  H     40.521000    9.246970   78.882900
  C     41.589400   10.919000   78.001700
  H     41.323600   10.408000   77.083800
  H     40.760400   11.674600   78.144900
  H     42.555600   11.361300   77.989800
  S     36.984800   14.969500   79.910100
  C     37.176800   16.692900   79.865200
  C     38.394000   17.034400   80.411900
  C     39.176000   15.934400   80.966500
  C     38.483900   14.679200   80.768600
  H     38.695200   18.024700   80.585500
  C     40.490300   16.151600   81.742200
  H     40.896600   15.241900   82.176000
  H     40.162400   16.619100   82.652600
  C     41.555900   17.031800   81.029900
  H     42.221600   17.255500   81.842500
  H     41.187000   18.028000   80.681600
  C     42.250000   16.283700   79.849400
  H     42.914700   15.515700   80.310900
  H     42.870800   17.075800   79.416000
  H     41.520000   15.930500   79.071000
  H     38.758100    9.696480   81.152900
  H     36.495500   17.481200   79.643200

 Total Charge           Charge          ....    0
 Multiplicity           Mult            ....    1
 Number of Electrons    NEL             ....  134
 Basis Dimension        Dim             ....  322

ORBITAL ENERGIES
----------------

  NO   OCC          E(Eh)            E(eV)
   0   2.0000     -88.975504     -2421.1465
   1   2.0000     -88.962261     -2420.7862
   2   2.0000     -10.333561      -281.1905
   3   2.0000     -10.331516      -281.1348
   4   2.0000     -10.321848      -280.8718
   5   2.0000     -10.312050      -280.6052
   6   2.0000     -10.310741      -280.5695
   7   2.0000     -10.305785      -280.4347
   8   2.0000     -10.301590      -280.3205
   9   2.0000     -10.299806      -280.2720
  10   2.0000     -10.293071      -280.0887
  11   2.0000     -10.292670      -280.0778
  12   2.0000     -10.290042      -280.0063
  13   2.0000     -10.289211      -279.9837
  14   2.0000     -10.287272      -279.9309
  15   2.0000     -10.274209      -279.5754
  16   2.0000      -8.088680      -220.1042
  17   2.0000      -8.077128      -219.7898
  18   2.0000      -6.047331      -164.5562
  19   2.0000      -6.043599      -164.4547
  20   2.0000      -6.039198      -164.3349
  21   2.0000      -6.035757      -164.2413
  22   2.0000      -6.031458      -164.1243
  23   2.0000      -6.027914      -164.0279
  24   2.0000      -0.999968       -27.2105
  25   2.0000      -0.976688       -26.5770
  26   2.0000      -0.908703       -24.7271
  27   2.0000      -0.903676       -24.5903
  28   2.0000      -0.867319       -23.6009
  29   2.0000      -0.848608       -23.0918
  30   2.0000      -0.839685       -22.8490
  31   2.0000      -0.809530       -22.0284
  32   2.0000      -0.782227       -21.2855
  33   2.0000      -0.770887       -20.9769
  34   2.0000      -0.704861       -19.1802
  35   2.0000      -0.699128       -19.0242
  36   2.0000      -0.690698       -18.7948
  37   2.0000      -0.655410       -17.8346
  38   2.0000      -0.631255       -17.1773
  39   2.0000      -0.613105       -16.6834
  40   2.0000      -0.595119       -16.1940
  41   2.0000      -0.570282       -15.5181
  42   2.0000      -0.548045       -14.9131
  43   2.0000      -0.547019       -14.8851
  44   2.0000      -0.541105       -14.7242
  45   2.0000      -0.533790       -14.5252
  46   2.0000      -0.519664       -14.1408
  47   2.0000      -0.513269       -13.9668
  48   2.0000      -0.496047       -13.4981
  49   2.0000      -0.493105       -13.4181
  50   2.0000      -0.486093       -13.2273
  51   2.0000      -0.476579       -12.9684
  52   2.0000      -0.467143       -12.7116
  53   2.0000      -0.462730       -12.5915
  54   2.0000      -0.458888       -12.4870
  55   2.0000      -0.450595       -12.2613
  56   2.0000      -0.444039       -12.0829
  57   2.0000      -0.439405       -11.9568
  58   2.0000      -0.433680       -11.8010
  59   2.0000      -0.425454       -11.5772
  60   2.0000      -0.421622       -11.4729
  61   2.0000      -0.411625       -11.2009
  62   2.0000      -0.409237       -11.1359
  63   2.0000      -0.351409        -9.5623
  64   2.0000      -0.337247        -9.1770
  65   2.0000      -0.324115        -8.8196
  66   2.0000      -0.280640        -7.6366
  67   0.0000       0.018702         0.5089
  68   0.0000       0.076192         2.0733
  69   0.0000       0.098477         2.6797
  70   0.0000       0.118192         3.2162
  71   0.0000       0.129031         3.5111

MULLIKEN ATOMIC CHARGES
-----------------------
   0 S :    0.118227
   1 C :   -0.140909
   2 C :   -0.062466
   3 C :   -0.024493
   4 C :   -0.120033
   5 H :    0.031801
   6 C :    0.065014
   7 H :    0.036996
   8 H :    0.019055
   9 C :   -0.089287
  10 H :    0.026747
  11 H :    0.025152
  12 C :   -0.043345
  13 H :    0.028501
  14 H :    0.048511
  15 H :    0.036347
  16 S :    0.088524
  17 C :   -0.064025
  18 C :   -0.029662
  19 C :   -0.063560
  20 C :   -0.157623
  21 H :   -0.001671
  22 C :    0.062504
  23 H :    0.016431
  24 H :    0.027960
  25 C :   -0.092598
  26 H :    0.026300
  27 H :    0.035546
  28 C :   -0.066973
  29 H :    0.043644
  30 H :    0.037289
  31 H :    0.067428
  32 H :    0.064722
  33 H :    0.049946
Sum of atomic charges:   -0.0000000

LOEWDIN ATOMIC CHARGES
----------------------
   0 S :    0.385463
   1 C :   -0.185268
   2 C :   -0.069361
   3 C :   -0.057788
   4 C :   -0.195986
   5 H :    0.036283
   6 C :   -0.023231
   7 H :    0.035288
   8 H :    0.024329
   9 C :   -0.045060
  10 H :    0.025505
  11 H :    0.021810
  12 C :   -0.065258
  13 H :    0.027495
  14 H :    0.036452
  15 H :    0.020345
  16 S :    0.407036
  17 C :   -0.197135
  18 C :   -0.066545
  19 C :   -0.059021
  20 C :   -0.194212
  21 H :    0.019081
  22 C :   -0.038236
  23 H :    0.029763
  24 H :    0.033063
  25 C :   -0.040714
  26 H :    0.023168
  27 H :    0.024772
  28 C :   -0.072417
  29 H :    0.029077
  30 H :    0.028323
  31 H :    0.037047
  32 H :    0.034645
  33 H :    0.031287

  Mayer bond orders larger than 0.100000
B(  0-S ,  1-C ) :   1.1400 B(  0-S ,  4-C ) :   1.1302 B(  1-C ,  2-C ) :   1.6099
B(  1-C , 32-H ) :   0.9543 B(  2-C ,  3-C ) :   1.2391 B(  2-C ,  6-C ) :   1.0272
B(  3-C ,  4-C ) :   1.5653 B(  3-C ,  5-H ) :   0.9762 B(  4-C , 20-C ) :   1.0762
B(  6-C ,  7-H ) :   0.9394 B(  6-C ,  8-H ) :   0.9467 B(  6-C ,  9-C ) :   1.0647
B(  9-C , 10-H ) :   0.9525 B(  9-C , 11-H ) :   0.9574 B(  9-C , 12-C ) :   1.0779
B( 12-C , 13-H ) :   0.9709 B( 12-C , 14-H ) :   0.9739 B( 12-C , 15-H ) :   0.9765
B( 16-S , 17-C ) :   1.1445 B( 16-S , 20-C ) :   1.1480 B( 17-C , 18-C ) :   1.6059
B( 17-C , 33-H ) :   0.9688 B( 18-C , 19-C ) :   1.2633 B( 18-C , 21-H ) :   0.9882
B( 19-C , 20-C ) :   1.5468 B( 19-C , 22-C ) :   1.0307 B( 22-C , 23-H ) :   0.9388
B( 22-C , 24-H ) :   0.9307 B( 22-C , 25-C ) :   1.0672 B( 25-C , 26-H ) :   0.9539
B( 25-C , 27-H ) :   0.9596 B( 25-C , 28-C ) :   1.0673 B( 28-C , 29-H ) :   0.9725
B( 28-C , 30-H ) :   0.9746 B( 28-C , 31-H ) :   0.9722

Dispersion correction           -0.014825761
FINAL SINGLE POINT ENERGY     -1339.865391677258

DIPOLE MOMENT
-------------
                                X             Y             Z
Electronic contribution:    -26.86647      -0.03787       6.12942
Nuclear contribution   :     27.56061       0.10417      -6.11492
                        -----------------------------------------
Total Dipole Moment    :      0.69414       0.06630       0.01451
                        -----------------------------------------
Magnitude (a.u.)       :      0.69745
Magnitude (Debye)      :      1.77278

Rotational constants in cm-1:     0.017636     0.009533     0.007171
Rotational constants in MHz :   528.720325   285.781867   214.978579

                             ****ORCA TERMINATED NORMALLY****
TOTAL RUN TIME: 0 days 0 hours 0 minutes 31 seconds 165 msec
