                         Program Version 4.2.1 -  RELEASE  -
|  1> ! wB97X-D3 SP def2-SVP
|  2> %pal
|  3> nprocs 16
|  4> end
|  5>
|  6> * xyz 0 1
|  7> S 	 -38.3534 	 34.2526 	 75.8142
|  8> C 	 -39.2711 	 34.5184 	 77.338
|  9> C 	 -38.564 	 34.0694 	 78.4343
| 10> C 	 -37.3004 	 33.5102 	 78.0624
| 11> C 	 -37.0493 	 33.5225 	 76.6801
| 12> H 	 -36.5052 	 33.1417 	 78.6812
| 13> C 	 -39.0605 	 34.1721 	 79.8739
| 14> H 	 -39.6232 	 35.1141 	 80.0804
| 15> H 	 -38.1686 	 34.2603 	 80.4432
| 16> C 	 -39.6537 	 33.0072 	 80.5592
| 17> H 	 -39.0604 	 32.1464 	 80.5241
| 18> H 	 -39.7649 	 33.2092 	 81.6471
| 19> C 	 -41.07 	 32.6367 	 80.0079
| 20> H 	 -41.8049 	 33.3223 	 80.2327
| 21> H 	 -41.0539 	 32.4962 	 78.8971
| 22> H 	 -41.4046 	 31.6453 	 80.3723
| 23> S 	 -35.097 	 34.434 	 74.9826
| 24> C 	 -33.7124 	 33.4336 	 74.6539
| 25> C 	 -33.7916 	 32.2925 	 75.4118
| 26> C 	 -34.9405 	 32.0637 	 76.142
| 27> C 	 -35.7715 	 33.2057 	 76.0138
| 28> H 	 -32.9677 	 31.5964 	 75.344
| 29> C 	 -35.1621 	 30.8466 	 77.0203
| 30> H 	 -35.7275 	 31.1337 	 77.9331
| 31> H 	 -34.2642 	 30.6216 	 77.6142
| 32> C 	 -35.9294 	 29.601 	 76.4016
| 33> H 	 -36.7461 	 29.9115 	 75.826
| 34> H 	 -36.18 	 28.9871 	 77.2966
| 35> C 	 -35.0825 	 28.836 	 75.486
| 36> H 	 -34.6216 	 29.5085 	 74.7401
| 37> H 	 -35.6823 	 28.2025 	 74.8849
| 38> H 	 -34.3709 	 28.1853 	 75.9768
| 39> H 	 -40.2365 	 35.0496 	 77.4069
| 40> H 	 -32.7326 	 33.7635 	 74.3896
| 41> *
| 42>
| 43>                          ****END OF INPUT****

CARTESIAN COORDINATES (ANGSTROEM)
---------------------------------
  S    -38.353400   34.252600   75.814200
  C    -39.271100   34.518400   77.338000
  C    -38.564000   34.069400   78.434300
  C    -37.300400   33.510200   78.062400
  C    -37.049300   33.522500   76.680100
  H    -36.505200   33.141700   78.681200
  C    -39.060500   34.172100   79.873900
  H    -39.623200   35.114100   80.080400
  H    -38.168600   34.260300   80.443200
  C    -39.653700   33.007200   80.559200
  H    -39.060400   32.146400   80.524100
  H    -39.764900   33.209200   81.647100
  C    -41.070000   32.636700   80.007900
  H    -41.804900   33.322300   80.232700
  H    -41.053900   32.496200   78.897100
  H    -41.404600   31.645300   80.372300
  S    -35.097000   34.434000   74.982600
  C    -33.712400   33.433600   74.653900
  C    -33.791600   32.292500   75.411800
  C    -34.940500   32.063700   76.142000
  C    -35.771500   33.205700   76.013800
  H    -32.967700   31.596400   75.344000
  C    -35.162100   30.846600   77.020300
  H    -35.727500   31.133700   77.933100
  H    -34.264200   30.621600   77.614200
  C    -35.929400   29.601000   76.401600
  H    -36.746100   29.911500   75.826000
  H    -36.180000   28.987100   77.296600
  C    -35.082500   28.836000   75.486000
  H    -34.621600   29.508500   74.740100
  H    -35.682300   28.202500   74.884900
  H    -34.370900   28.185300   75.976800
  H    -40.236500   35.049600   77.406900
  H    -32.732600   33.763500   74.389600

 Total Charge           Charge          ....    0
 Multiplicity           Mult            ....    1
 Number of Electrons    NEL             ....  134
 Basis Dimension        Dim             ....  322

ORBITAL ENERGIES
----------------

  NO   OCC          E(Eh)            E(eV)
   0   2.0000     -88.971287     -2421.0318
   1   2.0000     -88.967788     -2420.9366
   2   2.0000     -10.332923      -281.1731
   3   2.0000     -10.330983      -281.1203
   4   2.0000     -10.318387      -280.7776
   5   2.0000     -10.308855      -280.5182
   6   2.0000     -10.305776      -280.4344
   7   2.0000     -10.303517      -280.3729
   8   2.0000     -10.296618      -280.1852
   9   2.0000     -10.295529      -280.1556
  10   2.0000     -10.289810      -280.0000
  11   2.0000     -10.287482      -279.9366
  12   2.0000     -10.284094      -279.8444
  13   2.0000     -10.283746      -279.8349
  14   2.0000     -10.271224      -279.4942
  15   2.0000     -10.265900      -279.3493
  16   2.0000      -8.086007      -220.0314
  17   2.0000      -8.082067      -219.9242
  18   2.0000      -6.044349      -164.4751
  19   2.0000      -6.040577      -164.3725
  20   2.0000      -6.040402      -164.3677
  21   2.0000      -6.037041      -164.2762
  22   2.0000      -6.036609      -164.2645
  23   2.0000      -6.032881      -164.1630
  24   2.0000      -1.008953       -27.4550
  25   2.0000      -0.984302       -26.7842
  26   2.0000      -0.917406       -24.9639
  27   2.0000      -0.910870       -24.7860
  28   2.0000      -0.867949       -23.6181
  29   2.0000      -0.859855       -23.3979
  30   2.0000      -0.842744       -22.9322
  31   2.0000      -0.811627       -22.0855
  32   2.0000      -0.788468       -21.4553
  33   2.0000      -0.778219       -21.1764
  34   2.0000      -0.709394       -19.3036
  35   2.0000      -0.698834       -19.0162
  36   2.0000      -0.690670       -18.7941
  37   2.0000      -0.658822       -17.9275
  38   2.0000      -0.639846       -17.4111
  39   2.0000      -0.619334       -16.8529
  40   2.0000      -0.602944       -16.4069
  41   2.0000      -0.570766       -15.5313
  42   2.0000      -0.556022       -15.1301
  43   2.0000      -0.548155       -14.9161
  44   2.0000      -0.542899       -14.7730
  45   2.0000      -0.539340       -14.6762
  46   2.0000      -0.522418       -14.2157
  47   2.0000      -0.517565       -14.0837
  48   2.0000      -0.498400       -13.5621
  49   2.0000      -0.488534       -13.2937
  50   2.0000      -0.487163       -13.2564
  51   2.0000      -0.485563       -13.2128
  52   2.0000      -0.477718       -12.9994
  53   2.0000      -0.464432       -12.6378
  54   2.0000      -0.461943       -12.5701
  55   2.0000      -0.444344       -12.0912
  56   2.0000      -0.442352       -12.0370
  57   2.0000      -0.436912       -11.8890
  58   2.0000      -0.433846       -11.8055
  59   2.0000      -0.423512       -11.5244
  60   2.0000      -0.418519       -11.3885
  61   2.0000      -0.413836       -11.2611
  62   2.0000      -0.408734       -11.1222
  63   2.0000      -0.347530        -9.4568
  64   2.0000      -0.337998        -9.1974
  65   2.0000      -0.332688        -9.0529
  66   2.0000      -0.289001        -7.8641
  67   0.0000       0.024420         0.6645
  68   0.0000       0.067111         1.8262
  69   0.0000       0.109313         2.9746
  70   0.0000       0.119682         3.2567
  71   0.0000       0.126401         3.4395

MULLIKEN ATOMIC CHARGES
-----------------------
   0 S :    0.103352
   1 C :   -0.141060
   2 C :   -0.067737
   3 C :    0.032759
   4 C :   -0.155537
   5 H :    0.010596
   6 C :    0.086237
   7 H :    0.035694
   8 H :    0.007741
   9 C :   -0.048808
  10 H :    0.013091
  11 H :    0.032899
  12 C :   -0.059870
  13 H :    0.014786
  14 H :    0.036324
  15 H :    0.026216
  16 S :    0.124530
  17 C :   -0.069885
  18 C :   -0.075051
  19 C :    0.005511
  20 C :   -0.177944
  21 H :    0.015954
  22 C :    0.025712
  23 H :    0.003947
  24 H :    0.024400
  25 C :   -0.022346
  26 H :    0.026844
  27 H :    0.034924
  28 C :   -0.023487
  29 H :    0.029017
  30 H :    0.012791
  31 H :    0.023822
  32 H :    0.059025
  33 H :    0.055551
Sum of atomic charges:    0.0000000

LOEWDIN ATOMIC CHARGES
----------------------
   0 S :    0.396360
   1 C :   -0.189978
   2 C :   -0.059134
   3 C :   -0.065188
   4 C :   -0.199457
   5 H :    0.026631
   6 C :   -0.035220
   7 H :    0.037092
   8 H :    0.031444
   9 C :   -0.035497
  10 H :    0.017009
  11 H :    0.031567
  12 C :   -0.068172
  13 H :    0.009299
  14 H :    0.029718
  15 H :    0.026235
  16 S :    0.429963
  17 C :   -0.208037
  18 C :   -0.065725
  19 C :   -0.065496
  20 C :   -0.192753
  21 H :    0.028416
  22 C :   -0.043105
  23 H :    0.031267
  24 H :    0.034862
  25 C :   -0.026549
  26 H :    0.023627
  27 H :    0.031608
  28 C :   -0.066420
  29 H :    0.029389
  30 H :    0.019879
  31 H :    0.021791
  32 H :    0.034786
  33 H :    0.029786

  Mayer bond orders larger than 0.100000
B(  0-S ,  1-C ) :   1.1225 B(  0-S ,  4-C ) :   1.1620 B(  1-C ,  2-C ) :   1.6120
B(  1-C , 32-H ) :   0.9675 B(  2-C ,  3-C ) :   1.2398 B(  2-C ,  6-C ) :   1.0184
B(  3-C ,  4-C ) :   1.5686 B(  3-C ,  5-H ) :   0.9871 B(  4-C , 20-C ) :   1.0272
B(  6-C ,  7-H ) :   0.9450 B(  6-C ,  8-H ) :   0.9228 B(  6-C ,  9-C ) :   1.0887
B(  9-C , 10-H ) :   0.9526 B(  9-C , 11-H ) :   0.9504 B(  9-C , 12-C ) :   1.0746
B( 12-C , 13-H ) :   0.9785 B( 12-C , 14-H ) :   0.9763 B( 12-C , 15-H ) :   0.9757
B( 16-S , 17-C ) :   1.1463 B( 16-S , 20-C ) :   1.1951 B( 17-C , 18-C ) :   1.5947
B( 17-C , 20-C ) :   0.1099 B( 17-C , 33-H ) :   0.9598 B( 18-C , 19-C ) :   1.2945
B( 18-C , 21-H ) :   0.9802 B( 19-C , 20-C ) :   1.5224 B( 19-C , 22-C ) :   1.0362
B( 22-C , 23-H ) :   0.9280 B( 22-C , 24-H ) :   0.9374 B( 22-C , 25-C ) :   1.0584
B( 25-C , 26-H ) :   0.9559 B( 25-C , 27-H ) :   0.9526 B( 25-C , 28-C ) :   1.1003
B( 28-C , 29-H ) :   0.9682 B( 28-C , 30-H ) :   0.9693 B( 28-C , 31-H ) :   0.9738

Dispersion correction           -0.014200330
FINAL SINGLE POINT ENERGY     -1339.863613753474

DIPOLE MOMENT
-------------
                                X             Y             Z
Electronic contribution:      6.96473      19.38774     -17.20238
Nuclear contribution   :     -6.80295     -19.68613      17.87637
                        -----------------------------------------
Total Dipole Moment    :      0.16179      -0.29840       0.67399
                        -----------------------------------------
Magnitude (a.u.)       :      0.75464
Magnitude (Debye)      :      1.91814

Rotational constants in cm-1:     0.019613     0.008366     0.006628
Rotational constants in MHz :   587.973920   250.818744   198.695312

                             ****ORCA TERMINATED NORMALLY****
TOTAL RUN TIME: 0 days 0 hours 0 minutes 29 seconds 689 msec
