                         Program Version 4.2.1 -  RELEASE  -
|  1> ! wB97X-D3 SP def2-SVP
|  2> %pal
|  3> nprocs 16
|  4> end
|  5>
|  6> * xyz 0 1
|  7> S 	 -21.2294 	 0.381433 	 78.5599
|  8> C 	 -20.0607 	 -0.835686 	 78.0586
|  9> C 	 -19.0551 	 -1.02557 	 79.0098
| 10> C 	 -19.2798 	 -0.122845 	 80.1098
| 11> C 	 -20.4987 	 0.5752 	 80.1053
| 12> H 	 -18.5821 	 -0.0634765 	 80.9076
| 13> C 	 -18.1011 	 -2.23852 	 79.2008
| 14> H 	 -17.1744 	 -1.8462 	 79.5246
| 15> H 	 -17.933 	 -2.81245 	 78.2807
| 16> C 	 -18.6384 	 -3.35436 	 80.1314
| 17> H 	 -18.93 	 -2.74535 	 80.9775
| 18> H 	 -19.4854 	 -3.86608 	 79.6755
| 19> C 	 -17.5625 	 -4.37439 	 80.4937
| 20> H 	 -16.9773 	 -4.64467 	 79.6039
| 21> H 	 -16.945 	 -4.01255 	 81.3136
| 22> H 	 -17.9759 	 -5.335 	 80.8448
| 23> S 	 -21.4419 	 3.07469 	 80.9506
| 24> C 	 -21.7027 	 3.2838 	 82.7258
| 25> C 	 -21.2952 	 2.15253 	 83.4946
| 26> C 	 -20.9781 	 1.05153 	 82.5954
| 27> C 	 -21.0222 	 1.37584 	 81.2471
| 28> H 	 -21.1935 	 2.18542 	 84.6006
| 29> C 	 -20.5181 	 -0.287721 	 83.1609
| 30> H 	 -19.5089 	 -0.355989 	 83.6629
| 31> H 	 -20.3609 	 -1.03811 	 82.3623
| 32> C 	 -21.5727 	 -0.994339 	 84.1404
| 33> H 	 -22.3661 	 -0.303308 	 84.4608
| 34> H 	 -20.8996 	 -1.22193 	 84.992
| 35> C 	 -22.0349 	 -2.39787 	 83.6485
| 36> H 	 -22.6837 	 -2.81777 	 84.4023
| 37> H 	 -21.2099 	 -3.01886 	 83.5677
| 38> H 	 -22.528 	 -2.47125 	 82.6419
| 39> H 	 -20.1829 	 -1.49367 	 77.2232
| 40> H 	 -21.7035 	 4.25237 	 83.2217
| 41> *
| 42>
| 43>                          ****END OF INPUT****

CARTESIAN COORDINATES (ANGSTROEM)
---------------------------------
  S    -21.229400    0.381433   78.559900
  C    -20.060700   -0.835686   78.058600
  C    -19.055100   -1.025570   79.009800
  C    -19.279800   -0.122845   80.109800
  C    -20.498700    0.575200   80.105300
  H    -18.582100   -0.063477   80.907600
  C    -18.101100   -2.238520   79.200800
  H    -17.174400   -1.846200   79.524600
  H    -17.933000   -2.812450   78.280700
  C    -18.638400   -3.354360   80.131400
  H    -18.930000   -2.745350   80.977500
  H    -19.485400   -3.866080   79.675500
  C    -17.562500   -4.374390   80.493700
  H    -16.977300   -4.644670   79.603900
  H    -16.945000   -4.012550   81.313600
  H    -17.975900   -5.335000   80.844800
  S    -21.441900    3.074690   80.950600
  C    -21.702700    3.283800   82.725800
  C    -21.295200    2.152530   83.494600
  C    -20.978100    1.051530   82.595400
  C    -21.022200    1.375840   81.247100
  H    -21.193500    2.185420   84.600600
  C    -20.518100   -0.287721   83.160900
  H    -19.508900   -0.355989   83.662900
  H    -20.360900   -1.038110   82.362300
  C    -21.572700   -0.994339   84.140400
  H    -22.366100   -0.303308   84.460800
  H    -20.899600   -1.221930   84.992000
  C    -22.034900   -2.397870   83.648500
  H    -22.683700   -2.817770   84.402300
  H    -21.209900   -3.018860   83.567700
  H    -22.528000   -2.471250   82.641900
  H    -20.182900   -1.493670   77.223200
  H    -21.703500    4.252370   83.221700

 Total Charge           Charge          ....    0
 Multiplicity           Mult            ....    1
 Number of Electrons    NEL             ....  134
 Basis Dimension        Dim             ....  322

ORBITAL ENERGIES
----------------

  NO   OCC          E(Eh)            E(eV)
   0   2.0000     -88.971630     -2421.0411
   1   2.0000     -88.969327     -2420.9785
   2   2.0000     -10.335209      -281.2353
   3   2.0000     -10.333222      -281.1813
   4   2.0000     -10.327618      -281.0288
   5   2.0000     -10.316216      -280.7185
   6   2.0000     -10.311980      -280.6033
   7   2.0000     -10.310009      -280.5496
   8   2.0000     -10.305803      -280.4351
   9   2.0000     -10.297646      -280.2132
  10   2.0000     -10.296012      -280.1687
  11   2.0000     -10.293396      -280.0976
  12   2.0000     -10.292077      -280.0617
  13   2.0000     -10.288357      -279.9604
  14   2.0000     -10.283741      -279.8348
  15   2.0000     -10.275055      -279.5985
  16   2.0000      -8.084966      -220.0031
  17   2.0000      -8.084175      -219.9816
  18   2.0000      -6.043581      -164.4542
  19   2.0000      -6.042737      -164.4312
  20   2.0000      -6.039896      -164.3539
  21   2.0000      -6.038574      -164.3179
  22   2.0000      -6.035454      -164.2330
  23   2.0000      -6.034958      -164.2195
  24   2.0000      -1.001579       -27.2544
  25   2.0000      -0.976463       -26.5709
  26   2.0000      -0.912854       -24.8400
  27   2.0000      -0.896460       -24.3939
  28   2.0000      -0.864402       -23.5216
  29   2.0000      -0.849637       -23.1198
  30   2.0000      -0.844064       -22.9681
  31   2.0000      -0.808011       -21.9871
  32   2.0000      -0.782816       -21.3015
  33   2.0000      -0.771601       -20.9963
  34   2.0000      -0.702403       -19.1133
  35   2.0000      -0.697979       -18.9930
  36   2.0000      -0.692803       -18.8521
  37   2.0000      -0.657438       -17.8898
  38   2.0000      -0.640119       -17.4185
  39   2.0000      -0.623502       -16.9663
  40   2.0000      -0.596794       -16.2396
  41   2.0000      -0.573664       -15.6102
  42   2.0000      -0.565534       -15.3890
  43   2.0000      -0.545738       -14.8503
  44   2.0000      -0.530063       -14.4237
  45   2.0000      -0.521052       -14.1786
  46   2.0000      -0.516285       -14.0488
  47   2.0000      -0.507763       -13.8169
  48   2.0000      -0.504032       -13.7154
  49   2.0000      -0.496050       -13.4982
  50   2.0000      -0.487715       -13.2714
  51   2.0000      -0.483297       -13.1512
  52   2.0000      -0.470475       -12.8023
  53   2.0000      -0.465511       -12.6672
  54   2.0000      -0.457314       -12.4442
  55   2.0000      -0.450202       -12.2506
  56   2.0000      -0.446216       -12.1422
  57   2.0000      -0.437329       -11.9003
  58   2.0000      -0.433171       -11.7872
  59   2.0000      -0.425577       -11.5805
  60   2.0000      -0.423259       -11.5175
  61   2.0000      -0.414798       -11.2872
  62   2.0000      -0.404207       -10.9990
  63   2.0000      -0.344897        -9.3851
  64   2.0000      -0.331393        -9.0177
  65   2.0000      -0.329111        -8.9556
  66   2.0000      -0.292407        -7.9568
  67   0.0000       0.025415         0.6916
  68   0.0000       0.059696         1.6244
  69   0.0000       0.095720         2.6047
  70   0.0000       0.110073         2.9952
  71   0.0000       0.125435         3.4133

MULLIKEN ATOMIC CHARGES
-----------------------
   0 S :    0.118712
   1 C :   -0.114299
   2 C :   -0.074147
   3 C :    0.013758
   4 C :   -0.153403
   5 H :    0.002342
   6 C :    0.040674
   7 H :    0.023190
   8 H :    0.019686
   9 C :   -0.069960
  10 H :    0.025885
  11 H :    0.036009
  12 C :   -0.046341
  13 H :    0.032476
  14 H :    0.036163
  15 H :    0.033917
  16 S :    0.099716
  17 C :   -0.093898
  18 C :   -0.056418
  19 C :   -0.026757
  20 C :   -0.116743
  21 H :    0.051728
  22 C :   -0.005417
  23 H :    0.045754
  24 H :    0.032580
  25 C :   -0.093652
  26 H :    0.048399
  27 H :    0.025650
  28 C :   -0.041044
  29 H :    0.033790
  30 H :    0.011005
  31 H :    0.048929
  32 H :    0.043456
  33 H :    0.068259
Sum of atomic charges:   -0.0000000

LOEWDIN ATOMIC CHARGES
----------------------
   0 S :    0.417604
   1 C :   -0.191919
   2 C :   -0.062493
   3 C :   -0.058570
   4 C :   -0.206726
   5 H :    0.020654
   6 C :   -0.024908
   7 H :    0.023296
   8 H :    0.026876
   9 C :   -0.037631
  10 H :    0.019330
  11 H :    0.026405
  12 C :   -0.067673
  13 H :    0.026418
  14 H :    0.027195
  15 H :    0.029292
  16 S :    0.377991
  17 C :   -0.176617
  18 C :   -0.061895
  19 C :   -0.055024
  20 C :   -0.187563
  21 H :    0.043361
  22 C :   -0.046544
  23 H :    0.036648
  24 H :    0.029433
  25 C :   -0.040355
  26 H :    0.023992
  27 H :    0.027984
  28 C :   -0.065554
  29 H :    0.026529
  30 H :    0.013333
  31 H :    0.032523
  32 H :    0.024562
  33 H :    0.030045

  Mayer bond orders larger than 0.100000
B(  0-S ,  1-C ) :   1.1466 B(  0-S ,  4-C ) :   1.1589 B(  1-C ,  2-C ) :   1.6057
B(  1-C , 32-H ) :   0.9682 B(  2-C ,  3-C ) :   1.2501 B(  2-C ,  6-C ) :   1.0345
B(  3-C ,  4-C ) :   1.5477 B(  3-C ,  5-H ) :   0.9958 B(  4-C , 20-C ) :   1.0274
B(  6-C ,  7-H ) :   0.9438 B(  6-C ,  8-H ) :   0.9439 B(  6-C ,  9-C ) :   1.0492
B(  9-C , 10-H ) :   0.9575 B(  9-C , 11-H ) :   0.9590 B(  9-C , 12-C ) :   1.0812
B( 12-C , 13-H ) :   0.9731 B( 12-C , 14-H ) :   0.9750 B( 12-C , 15-H ) :   0.9744
B( 16-S , 17-C ) :   1.1394 B( 16-S , 20-C ) :   1.1256 B( 17-C , 18-C ) :   1.6356
B( 17-C , 33-H ) :   0.9604 B( 18-C , 19-C ) :   1.2130 B( 18-C , 21-H ) :   0.9796
B( 19-C , 20-C ) :   1.6337 B( 19-C , 22-C ) :   1.0427 B( 22-C , 23-H ) :   0.9449
B( 22-C , 24-H ) :   0.9425 B( 22-C , 25-C ) :   1.0241 B( 25-C , 26-H ) :   0.9687
B( 25-C , 27-H ) :   0.9575 B( 25-C , 28-C ) :   1.0948 B( 28-C , 29-H ) :   0.9740
B( 28-C , 30-H ) :   0.9717 B( 28-C , 31-H ) :   0.9734

Dispersion correction           -0.014577397
FINAL SINGLE POINT ENERGY     -1339.853796690217

DIPOLE MOMENT
-------------
                                X             Y             Z
Electronic contribution:    -10.13426      28.62663     -13.97516
Nuclear contribution   :     10.63030     -29.25432      14.52409
                        -----------------------------------------
Total Dipole Moment    :      0.49605      -0.62769       0.54893
                        -----------------------------------------
Magnitude (a.u.)       :      0.97024
Magnitude (Debye)      :      2.46616

Rotational constants in cm-1:     0.016986     0.009676     0.006952
Rotational constants in MHz :   509.227680   290.085993   208.412711

                             ****ORCA TERMINATED NORMALLY****
TOTAL RUN TIME: 0 days 0 hours 0 minutes 34 seconds 430 msec
