                         Program Version 4.2.1 -  RELEASE  -
|  1> ! wB97X-D3 SP def2-SVP
|  2> %pal
|  3> nprocs 16
|  4> end
|  5>
|  6> * xyz 0 1
|  7> S 	 -4.27768 	 78.379 	 47.2045
|  8> C 	 -3.85487 	 79.0101 	 48.6808
|  9> C 	 -2.7865 	 78.2905 	 49.2267
| 10> C 	 -2.34408 	 77.1945 	 48.3593
| 11> C 	 -3.07299 	 77.1478 	 47.1841
| 12> H 	 -1.46227 	 76.5645 	 48.3795
| 13> C 	 -1.88277 	 78.6554 	 50.4112
| 14> H 	 -2.11485 	 79.704 	 50.6429
| 15> H 	 -0.821921 	 78.7629 	 50.1105
| 16> C 	 -2.01799 	 77.7506 	 51.5962
| 17> H 	 -3.05043 	 77.4465 	 51.8215
| 18> H 	 -1.4859 	 76.8653 	 51.3761
| 19> C 	 -1.50628 	 78.2163 	 52.8797
| 20> H 	 -2.10294 	 79.1094 	 53.1657
| 21> H 	 -1.42664 	 77.472 	 53.633
| 22> H 	 -0.571199 	 78.7513 	 52.7565
| 23> S 	 -1.13738 	 76.1184 	 45.5366
| 24> C 	 -1.67005 	 75.0924 	 44.1718
| 25> C 	 -2.99278 	 74.759 	 44.3073
| 26> C 	 -3.63757 	 75.485 	 45.3414
| 27> C 	 -2.79248 	 76.2539 	 46.1064
| 28> H 	 -3.34713 	 74.0322 	 43.6113
| 29> C 	 -5.08841 	 75.306 	 45.6108
| 30> H 	 -5.31594 	 75.2938 	 46.7062
| 31> H 	 -5.35402 	 74.3259 	 45.3361
| 32> C 	 -6.02536 	 76.2379 	 44.7254
| 33> H 	 -6.28108 	 75.6754 	 43.7963
| 34> H 	 -5.50884 	 77.0862 	 44.4737
| 35> C 	 -7.40053 	 76.572 	 45.3474
| 36> H 	 -7.87709 	 77.1172 	 44.6019
| 37> H 	 -7.32155 	 77.1526 	 46.2154
| 38> H 	 -8.06614 	 75.6985 	 45.6147
| 39> H 	 -4.37675 	 79.8535 	 49.1589
| 40> H 	 -1.06092 	 74.7587 	 43.357
| 41> *
| 42>
| 43>                          ****END OF INPUT****

CARTESIAN COORDINATES (ANGSTROEM)
---------------------------------
  S     -4.277680   78.379000   47.204500
  C     -3.854870   79.010100   48.680800
  C     -2.786500   78.290500   49.226700
  C     -2.344080   77.194500   48.359300
  C     -3.072990   77.147800   47.184100
  H     -1.462270   76.564500   48.379500
  C     -1.882770   78.655400   50.411200
  H     -2.114850   79.704000   50.642900
  H     -0.821921   78.762900   50.110500
  C     -2.017990   77.750600   51.596200
  H     -3.050430   77.446500   51.821500
  H     -1.485900   76.865300   51.376100
  C     -1.506280   78.216300   52.879700
  H     -2.102940   79.109400   53.165700
  H     -1.426640   77.472000   53.633000
  H     -0.571199   78.751300   52.756500
  S     -1.137380   76.118400   45.536600
  C     -1.670050   75.092400   44.171800
  C     -2.992780   74.759000   44.307300
  C     -3.637570   75.485000   45.341400
  C     -2.792480   76.253900   46.106400
  H     -3.347130   74.032200   43.611300
  C     -5.088410   75.306000   45.610800
  H     -5.315940   75.293800   46.706200
  H     -5.354020   74.325900   45.336100
  C     -6.025360   76.237900   44.725400
  H     -6.281080   75.675400   43.796300
  H     -5.508840   77.086200   44.473700
  C     -7.400530   76.572000   45.347400
  H     -7.877090   77.117200   44.601900
  H     -7.321550   77.152600   46.215400
  H     -8.066140   75.698500   45.614700
  H     -4.376750   79.853500   49.158900
  H     -1.060920   74.758700   43.357000

 Total Charge           Charge          ....    0
 Multiplicity           Mult            ....    1
 Number of Electrons    NEL             ....  134
 Basis Dimension        Dim             ....  322

ORBITAL ENERGIES
----------------

  NO   OCC          E(Eh)            E(eV)
   0   2.0000     -88.967106     -2420.9180
   1   2.0000     -88.965463     -2420.8733
   2   2.0000     -10.322972      -280.9023
   3   2.0000     -10.322297      -280.8840
   4   2.0000     -10.317886      -280.7639
   5   2.0000     -10.315399      -280.6963
   6   2.0000     -10.306478      -280.4535
   7   2.0000     -10.298197      -280.2282
   8   2.0000     -10.292947      -280.0853
   9   2.0000     -10.291879      -280.0563
  10   2.0000     -10.291431      -280.0441
  11   2.0000     -10.284020      -279.8424
  12   2.0000     -10.282699      -279.8065
  13   2.0000     -10.271914      -279.5130
  14   2.0000     -10.268953      -279.4324
  15   2.0000     -10.268304      -279.4148
  16   2.0000      -8.083451      -219.9619
  17   2.0000      -8.079539      -219.8554
  18   2.0000      -6.041839      -164.4068
  19   2.0000      -6.038117      -164.3055
  20   2.0000      -6.037431      -164.2868
  21   2.0000      -6.034558      -164.2087
  22   2.0000      -6.034242      -164.2001
  23   2.0000      -6.030168      -164.0892
  24   2.0000      -1.014181       -27.5973
  25   2.0000      -0.988463       -26.8975
  26   2.0000      -0.919351       -25.0168
  27   2.0000      -0.901565       -24.5328
  28   2.0000      -0.880906       -23.9707
  29   2.0000      -0.854808       -23.2605
  30   2.0000      -0.848555       -23.0903
  31   2.0000      -0.817739       -22.2518
  32   2.0000      -0.782629       -21.2964
  33   2.0000      -0.769132       -20.9292
  34   2.0000      -0.707504       -19.2522
  35   2.0000      -0.697694       -18.9852
  36   2.0000      -0.692837       -18.8531
  37   2.0000      -0.671247       -18.2656
  38   2.0000      -0.645723       -17.5710
  39   2.0000      -0.612499       -16.6669
  40   2.0000      -0.595234       -16.1971
  41   2.0000      -0.575344       -15.6559
  42   2.0000      -0.565324       -15.3832
  43   2.0000      -0.558748       -15.2043
  44   2.0000      -0.539048       -14.6682
  45   2.0000      -0.531434       -14.4611
  46   2.0000      -0.519989       -14.1496
  47   2.0000      -0.514048       -13.9880
  48   2.0000      -0.508328       -13.8323
  49   2.0000      -0.501606       -13.6494
  50   2.0000      -0.493396       -13.4260
  51   2.0000      -0.479995       -13.0613
  52   2.0000      -0.473638       -12.8883
  53   2.0000      -0.466551       -12.6955
  54   2.0000      -0.461662       -12.5625
  55   2.0000      -0.446642       -12.1537
  56   2.0000      -0.443896       -12.0790
  57   2.0000      -0.434308       -11.8181
  58   2.0000      -0.427977       -11.6459
  59   2.0000      -0.423517       -11.5245
  60   2.0000      -0.418034       -11.3753
  61   2.0000      -0.410307       -11.1650
  62   2.0000      -0.402709       -10.9583
  63   2.0000      -0.355511        -9.6739
  64   2.0000      -0.331339        -9.0162
  65   2.0000      -0.324562        -8.8318
  66   2.0000      -0.290823        -7.9137
  67   0.0000       0.032567         0.8862
  68   0.0000       0.071691         1.9508
  69   0.0000       0.100175         2.7259
  70   0.0000       0.120855         3.2886
  71   0.0000       0.136814         3.7229

MULLIKEN ATOMIC CHARGES
-----------------------
   0 S :    0.134294
   1 C :   -0.122903
   2 C :   -0.082422
   3 C :    0.006195
   4 C :   -0.146587
   5 H :    0.019394
   6 C :    0.040716
   7 H :    0.003417
   8 H :    0.039194
   9 C :   -0.043372
  10 H :    0.027986
  11 H :    0.012133
  12 C :   -0.018084
  13 H :    0.016156
  14 H :    0.038403
  15 H :    0.005172
  16 S :    0.096268
  17 C :   -0.097332
  18 C :   -0.017565
  19 C :   -0.038689
  20 C :   -0.142248
  21 H :    0.013894
  22 C :    0.064387
  23 H :    0.040271
  24 H :    0.000062
  25 C :   -0.062297
  26 H :    0.031044
  27 H :    0.018148
  28 C :   -0.024434
  29 H :    0.018774
  30 H :    0.020859
  31 H :    0.033327
  32 H :    0.064824
  33 H :    0.051014
Sum of atomic charges:    0.0000000

LOEWDIN ATOMIC CHARGES
----------------------
   0 S :    0.464067
   1 C :   -0.231537
   2 C :   -0.059753
   3 C :   -0.064831
   4 C :   -0.207148
   5 H :    0.028879
   6 C :   -0.034100
   7 H :    0.023730
   8 H :    0.036730
   9 C :   -0.048831
  10 H :    0.028781
  11 H :    0.018723
  12 C :   -0.062647
  13 H :    0.026700
  14 H :    0.024179
  15 H :    0.020579
  16 S :    0.386245
  17 C :   -0.165887
  18 C :   -0.064287
  19 C :   -0.059274
  20 C :   -0.193963
  21 H :    0.032057
  22 C :   -0.038075
  23 H :    0.034726
  24 H :    0.023336
  25 C :   -0.025515
  26 H :    0.029183
  27 H :    0.007168
  28 C :   -0.058119
  29 H :    0.018833
  30 H :    0.012859
  31 H :    0.031099
  32 H :    0.039002
  33 H :    0.027092

  Mayer bond orders larger than 0.100000
B(  0-S ,  1-C ) :   1.1690 B(  0-S ,  4-C ) :   1.1649 B(  1-C ,  2-C ) :   1.5808
B(  1-C , 32-H ) :   0.9674 B(  2-C ,  3-C ) :   1.2395 B(  2-C ,  6-C ) :   1.0249
B(  3-C ,  4-C ) :   1.5512 B(  3-C ,  5-H ) :   0.9941 B(  4-C , 20-C ) :   1.0618
B(  6-C ,  7-H ) :   0.9473 B(  6-C ,  8-H ) :   0.9410 B(  6-C ,  9-C ) :   1.0566
B(  9-C , 10-H ) :   0.9555 B(  9-C , 11-H ) :   0.9453 B(  9-C , 12-C ) :   1.1071
B( 12-C , 13-H ) :   0.9684 B( 12-C , 14-H ) :   0.9721 B( 12-C , 15-H ) :   0.9632
B( 16-S , 17-C ) :   1.1403 B( 16-S , 20-C ) :   1.1210 B( 17-C , 18-C ) :   1.6334
B( 17-C , 33-H ) :   0.9685 B( 18-C , 19-C ) :   1.2120 B( 18-C , 21-H ) :   0.9963
B( 19-C , 20-C ) :   1.5935 B( 19-C , 22-C ) :   1.0644 B( 22-C , 23-H ) :   0.9457
B( 22-C , 24-H ) :   0.9259 B( 22-C , 25-C ) :   1.0315 B( 25-C , 26-H ) :   0.9576
B( 25-C , 27-H ) :   0.9656 B( 25-C , 28-C ) :   1.0841 B( 28-C , 29-H ) :   0.9728
B( 28-C , 30-H ) :   0.9763 B( 28-C , 31-H ) :   0.9746

Dispersion correction           -0.014223108
FINAL SINGLE POINT ENERGY     -1339.863278897795

DIPOLE MOMENT
-------------
                                X             Y             Z
Electronic contribution:      8.87464      -0.36472     -14.25198
Nuclear contribution   :     -8.97316       0.26406      14.27415
                        -----------------------------------------
Total Dipole Moment    :     -0.09852      -0.10066       0.02217
                        -----------------------------------------
Magnitude (a.u.)       :      0.14259
Magnitude (Debye)      :      0.36243

Rotational constants in cm-1:     0.020538     0.008064     0.006356
Rotational constants in MHz :   615.711205   241.759654   190.538652

                             ****ORCA TERMINATED NORMALLY****
TOTAL RUN TIME: 0 days 0 hours 0 minutes 33 seconds 15 msec
