                         Program Version 4.2.1 -  RELEASE  -
|  1> ! wB97X-D3 SP def2-SVP
|  2> %pal
|  3> nprocs 16
|  4> end
|  5>
|  6> * xyz 0 1
|  7> S 	 -34.1487 	 60.5534 	 113.481
|  8> C 	 -35.8864 	 60.9214 	 113.447
|  9> C 	 -36.6308 	 59.9101 	 114.096
| 10> C 	 -35.7647 	 58.8488 	 114.551
| 11> C 	 -34.4075 	 59.035 	 114.352
| 12> H 	 -36.1274 	 57.9406 	 115.047
| 13> C 	 -38.1607 	 59.8107 	 114.317
| 14> H 	 -38.5292 	 58.8458 	 113.966
| 15> H 	 -38.5879 	 60.6395 	 113.8
| 16> C 	 -38.4677 	 59.9901 	 115.837
| 17> H 	 -37.8011 	 59.3567 	 116.509
| 18> H 	 -38.3418 	 61.0304 	 116.21
| 19> C 	 -39.9323 	 59.6562 	 116.037
| 20> H 	 -39.9872 	 58.629 	 115.648
| 21> H 	 -40.1422 	 59.5165 	 117.122
| 22> H 	 -40.6832 	 60.3724 	 115.52
| 23> S 	 -31.9658 	 58.0336 	 113.654
| 24> C 	 -31.2125 	 56.8591 	 114.668
| 25> C 	 -31.9916 	 56.5069 	 115.725
| 26> C 	 -33.0819 	 57.4382 	 115.893
| 27> C 	 -33.2733 	 58.2205 	 114.763
| 28> H 	 -31.8141 	 55.6611 	 116.283
| 29> C 	 -33.9877 	 57.3574 	 117.092
| 30> H 	 -33.5364 	 56.5755 	 117.736
| 31> H 	 -34.9069 	 56.8938 	 116.646
| 32> C 	 -34.4361 	 58.6211 	 117.877
| 33> H 	 -34.8976 	 59.3577 	 117.138
| 34> H 	 -33.5445 	 58.9837 	 118.293
| 35> C 	 -35.3142 	 58.2865 	 119.091
| 36> H 	 -34.7269 	 57.8285 	 119.857
| 37> H 	 -36.1889 	 57.7952 	 118.672
| 38> H 	 -35.6428 	 59.2305 	 119.566
| 39> H 	 -36.3359 	 61.8337 	 113.024
| 40> H 	 -30.4233 	 56.2141 	 114.32
| 41> *
| 42>
| 43>                          ****END OF INPUT****

CARTESIAN COORDINATES (ANGSTROEM)
---------------------------------
  S    -34.148700   60.553400  113.481000
  C    -35.886400   60.921400  113.447000
  C    -36.630800   59.910100  114.096000
  C    -35.764700   58.848800  114.551000
  C    -34.407500   59.035000  114.352000
  H    -36.127400   57.940600  115.047000
  C    -38.160700   59.810700  114.317000
  H    -38.529200   58.845800  113.966000
  H    -38.587900   60.639500  113.800000
  C    -38.467700   59.990100  115.837000
  H    -37.801100   59.356700  116.509000
  H    -38.341800   61.030400  116.210000
  C    -39.932300   59.656200  116.037000
  H    -39.987200   58.629000  115.648000
  H    -40.142200   59.516500  117.122000
  H    -40.683200   60.372400  115.520000
  S    -31.965800   58.033600  113.654000
  C    -31.212500   56.859100  114.668000
  C    -31.991600   56.506900  115.725000
  C    -33.081900   57.438200  115.893000
  C    -33.273300   58.220500  114.763000
  H    -31.814100   55.661100  116.283000
  C    -33.987700   57.357400  117.092000
  H    -33.536400   56.575500  117.736000
  H    -34.906900   56.893800  116.646000
  C    -34.436100   58.621100  117.877000
  H    -34.897600   59.357700  117.138000
  H    -33.544500   58.983700  118.293000
  C    -35.314200   58.286500  119.091000
  H    -34.726900   57.828500  119.857000
  H    -36.188900   57.795200  118.672000
  H    -35.642800   59.230500  119.566000
  H    -36.335900   61.833700  113.024000
  H    -30.423300   56.214100  114.320000

 Total Charge           Charge          ....    0
 Multiplicity           Mult            ....    1
 Number of Electrons    NEL             ....  134
 Basis Dimension        Dim             ....  322

ORBITAL ENERGIES
----------------

  NO   OCC          E(Eh)            E(eV)
   0   2.0000     -88.965958     -2420.8868
   1   2.0000     -88.964072     -2420.8355
   2   2.0000     -10.332861      -281.1714
   3   2.0000     -10.323523      -280.9174
   4   2.0000     -10.322134      -280.8795
   5   2.0000     -10.311492      -280.5900
   6   2.0000     -10.308389      -280.5055
   7   2.0000     -10.303699      -280.3779
   8   2.0000     -10.299392      -280.2607
   9   2.0000     -10.296595      -280.1846
  10   2.0000     -10.295916      -280.1661
  11   2.0000     -10.294962      -280.1402
  12   2.0000     -10.288766      -279.9715
  13   2.0000     -10.287868      -279.9471
  14   2.0000     -10.285128      -279.8726
  15   2.0000     -10.279092      -279.7083
  16   2.0000      -8.079925      -219.8659
  17   2.0000      -8.079851      -219.8639
  18   2.0000      -6.038498      -164.3159
  19   2.0000      -6.038358      -164.3121
  20   2.0000      -6.034463      -164.2061
  21   2.0000      -6.034295      -164.2015
  22   2.0000      -6.030669      -164.1029
  23   2.0000      -6.030543      -164.0994
  24   2.0000      -1.009479       -27.4693
  25   2.0000      -0.980349       -26.6766
  26   2.0000      -0.912521       -24.8310
  27   2.0000      -0.907691       -24.6995
  28   2.0000      -0.870943       -23.6996
  29   2.0000      -0.856062       -23.2946
  30   2.0000      -0.843085       -22.9415
  31   2.0000      -0.815397       -22.1881
  32   2.0000      -0.779850       -21.2208
  33   2.0000      -0.767611       -20.8877
  34   2.0000      -0.706955       -19.2372
  35   2.0000      -0.692681       -18.8488
  36   2.0000      -0.686544       -18.6818
  37   2.0000      -0.669092       -18.2069
  38   2.0000      -0.638559       -17.3761
  39   2.0000      -0.621938       -16.9238
  40   2.0000      -0.591107       -16.0848
  41   2.0000      -0.575622       -15.6635
  42   2.0000      -0.571108       -15.5406
  43   2.0000      -0.562511       -15.3067
  44   2.0000      -0.527471       -14.3532
  45   2.0000      -0.518834       -14.1182
  46   2.0000      -0.518232       -14.1018
  47   2.0000      -0.511557       -13.9202
  48   2.0000      -0.502936       -13.6856
  49   2.0000      -0.499750       -13.5989
  50   2.0000      -0.496968       -13.5232
  51   2.0000      -0.483091       -13.1456
  52   2.0000      -0.470871       -12.8131
  53   2.0000      -0.466489       -12.6938
  54   2.0000      -0.456980       -12.4351
  55   2.0000      -0.453166       -12.3313
  56   2.0000      -0.445962       -12.1352
  57   2.0000      -0.436613       -11.8809
  58   2.0000      -0.426882       -11.6160
  59   2.0000      -0.424059       -11.5392
  60   2.0000      -0.419796       -11.4232
  61   2.0000      -0.415887       -11.3168
  62   2.0000      -0.414411       -11.2767
  63   2.0000      -0.352278        -9.5860
  64   2.0000      -0.330063        -8.9815
  65   2.0000      -0.325889        -8.8679
  66   2.0000      -0.286418        -7.7938
  67   0.0000       0.025133         0.6839
  68   0.0000       0.076196         2.0734
  69   0.0000       0.103158         2.8071
  70   0.0000       0.111676         3.0389
  71   0.0000       0.125600         3.4177

MULLIKEN ATOMIC CHARGES
-----------------------
   0 S :    0.096722
   1 C :   -0.130257
   2 C :   -0.100422
   3 C :   -0.001103
   4 C :   -0.129227
   5 H :    0.011331
   6 C :    0.102248
   7 H :    0.038573
   8 H :    0.016197
   9 C :   -0.130211
  10 H :    0.043633
  11 H :    0.037507
  12 C :   -0.061065
  13 H :    0.020648
  14 H :    0.037289
  15 H :    0.058488
  16 S :    0.107783
  17 C :   -0.066783
  18 C :   -0.020875
  19 C :   -0.052562
  20 C :   -0.126600
  21 H :   -0.004174
  22 C :    0.012754
  23 H :    0.016325
  24 H :    0.029189
  25 C :   -0.069666
  26 H :    0.066403
  27 H :    0.016851
  28 C :   -0.030014
  29 H :    0.033320
  30 H :    0.031881
  31 H :    0.033267
  32 H :    0.057034
  33 H :    0.055517
Sum of atomic charges:   -0.0000000

LOEWDIN ATOMIC CHARGES
----------------------
   0 S :    0.384287
   1 C :   -0.200266
   2 C :   -0.058871
   3 C :   -0.072203
   4 C :   -0.183444
   5 H :    0.029204
   6 C :   -0.019321
   7 H :    0.032300
   8 H :    0.027863
   9 C :   -0.048479
  10 H :    0.028351
  11 H :    0.027218
  12 C :   -0.078746
  13 H :    0.022314
  14 H :    0.028286
  15 H :    0.037606
  16 S :    0.423186
  17 C :   -0.188100
  18 C :   -0.057771
  19 C :   -0.052817
  20 C :   -0.212429
  21 H :    0.019607
  22 C :   -0.043046
  23 H :    0.029969
  24 H :    0.031597
  25 C :   -0.039919
  26 H :    0.036471
  27 H :    0.016691
  28 C :   -0.060239
  29 H :    0.024520
  30 H :    0.023225
  31 H :    0.031297
  32 H :    0.033530
  33 H :    0.028127

  Mayer bond orders larger than 0.100000
B(  0-S ,  1-C ) :   1.1298 B(  0-S ,  4-C ) :   1.1403 B(  1-C ,  2-C ) :   1.6179
B(  1-C ,  4-C ) :   0.1010 B(  1-C , 32-H ) :   0.9650 B(  2-C ,  3-C ) :   1.2319
B(  2-C ,  6-C ) :   1.0250 B(  3-C ,  4-C ) :   1.5814 B(  3-C ,  5-H ) :   0.9877
B(  4-C , 20-C ) :   1.0516 B(  6-C ,  7-H ) :   0.9489 B(  6-C ,  8-H ) :   0.9355
B(  6-C ,  9-C ) :   1.0507 B(  9-C , 10-H ) :   0.9590 B(  9-C , 11-H ) :   0.9536
B(  9-C , 12-C ) :   1.0785 B( 12-C , 13-H ) :   0.9740 B( 12-C , 14-H ) :   0.9714
B( 12-C , 15-H ) :   0.9705 B( 16-S , 17-C ) :   1.1564 B( 16-S , 20-C ) :   1.1437
B( 17-C , 18-C ) :   1.6244 B( 17-C , 33-H ) :   0.9622 B( 18-C , 19-C ) :   1.2342
B( 18-C , 21-H ) :   0.9993 B( 19-C , 20-C ) :   1.5804 B( 19-C , 22-C ) :   1.0444
B( 22-C , 23-H ) :   0.9345 B( 22-C , 24-H ) :   0.9251 B( 22-C , 25-C ) :   1.0554
B( 25-C , 26-H ) :   0.9491 B( 25-C , 27-H ) :   0.9531 B( 25-C , 28-C ) :   1.0884
B( 28-C , 29-H ) :   0.9735 B( 28-C , 30-H ) :   0.9754 B( 28-C , 31-H ) :   0.9726

Dispersion correction           -0.014817374
FINAL SINGLE POINT ENERGY     -1339.871859851437

DIPOLE MOMENT
-------------
                                X             Y             Z
Electronic contribution:     25.23306       1.90579     -21.59420
Nuclear contribution   :    -25.76656      -2.22789      22.07488
                        -----------------------------------------
Total Dipole Moment    :     -0.53350      -0.32209       0.48068
                        -----------------------------------------
Magnitude (a.u.)       :      0.78703
Magnitude (Debye)      :      2.00047

Rotational constants in cm-1:     0.018676     0.009454     0.006881
Rotational constants in MHz :   559.878059   283.418898   206.297394

                             ****ORCA TERMINATED NORMALLY****
TOTAL RUN TIME: 0 days 0 hours 0 minutes 31 seconds 33 msec
