                         Program Version 4.2.1 -  RELEASE  -
|  1> ! wB97X-D3 SP def2-SVP
|  2> %pal
|  3> nprocs 16
|  4> end
|  5>
|  6> * xyz 0 1
|  7> S 	 7.16519 	 -20.7477 	 86.6225
|  8> C 	 7.14874 	 -20.8857 	 88.4177
|  9> C 	 6.32457 	 -19.9251 	 89.0097
| 10> C 	 5.76744 	 -19.1082 	 87.985
| 11> C 	 6.0141 	 -19.4477 	 86.6917
| 12> H 	 5.18572 	 -18.1864 	 88.2202
| 13> C 	 6.22715 	 -19.6608 	 90.5142
| 14> H 	 6.5551 	 -18.6204 	 90.5728
| 15> H 	 7.07401 	 -20.0657 	 91.094
| 16> C 	 4.84668 	 -20.0217 	 91.1345
| 17> H 	 4.64723 	 -19.4605 	 92.0769
| 18> H 	 4.11319 	 -19.5604 	 90.5218
| 19> C 	 4.51551 	 -21.4303 	 91.3768
| 20> H 	 4.55129 	 -21.9871 	 90.4487
| 21> H 	 5.18476 	 -22.0674 	 92.0994
| 22> H 	 3.48609 	 -21.6244 	 91.628
| 23> S 	 6.98428 	 -17.887 	 84.5992
| 24> C 	 5.91693 	 -16.8798 	 83.6903
| 25> C 	 4.62878 	 -17.2018 	 83.985
| 26> C 	 4.50387 	 -18.0755 	 85.1159
| 27> C 	 5.71581 	 -18.5418 	 85.6248
| 28> H 	 3.81517 	 -16.73 	 83.4002
| 29> C 	 3.1719 	 -18.5949 	 85.667
| 30> H 	 3.44205 	 -19.2777 	 86.5337
| 31> H 	 2.79636 	 -19.1874 	 84.8766
| 32> C 	 2.20272 	 -17.555 	 86.1115
| 33> H 	 1.22139 	 -17.9724 	 86.2927
| 34> H 	 2.13468 	 -16.7939 	 85.3235
| 35> C 	 2.56611 	 -16.8993 	 87.397
| 36> H 	 3.64539 	 -16.6421 	 87.3052
| 37> H 	 2.39507 	 -17.5805 	 88.1875
| 38> H 	 1.91464 	 -15.9913 	 87.4505
| 39> H 	 7.71501 	 -21.6325 	 88.9437
| 40> H 	 6.09351 	 -16.0818 	 83.0217
| 41> *
| 42>
| 43>                          ****END OF INPUT****

CARTESIAN COORDINATES (ANGSTROEM)
---------------------------------
  S      7.165190  -20.747700   86.622500
  C      7.148740  -20.885700   88.417700
  C      6.324570  -19.925100   89.009700
  C      5.767440  -19.108200   87.985000
  C      6.014100  -19.447700   86.691700
  H      5.185720  -18.186400   88.220200
  C      6.227150  -19.660800   90.514200
  H      6.555100  -18.620400   90.572800
  H      7.074010  -20.065700   91.094000
  C      4.846680  -20.021700   91.134500
  H      4.647230  -19.460500   92.076900
  H      4.113190  -19.560400   90.521800
  C      4.515510  -21.430300   91.376800
  H      4.551290  -21.987100   90.448700
  H      5.184760  -22.067400   92.099400
  H      3.486090  -21.624400   91.628000
  S      6.984280  -17.887000   84.599200
  C      5.916930  -16.879800   83.690300
  C      4.628780  -17.201800   83.985000
  C      4.503870  -18.075500   85.115900
  C      5.715810  -18.541800   85.624800
  H      3.815170  -16.730000   83.400200
  C      3.171900  -18.594900   85.667000
  H      3.442050  -19.277700   86.533700
  H      2.796360  -19.187400   84.876600
  C      2.202720  -17.555000   86.111500
  H      1.221390  -17.972400   86.292700
  H      2.134680  -16.793900   85.323500
  C      2.566110  -16.899300   87.397000
  H      3.645390  -16.642100   87.305200
  H      2.395070  -17.580500   88.187500
  H      1.914640  -15.991300   87.450500
  H      7.715010  -21.632500   88.943700
  H      6.093510  -16.081800   83.021700

 Total Charge           Charge          ....    0
 Multiplicity           Mult            ....    1
 Number of Electrons    NEL             ....  134
 Basis Dimension        Dim             ....  322

ORBITAL ENERGIES
----------------

  NO   OCC          E(Eh)            E(eV)
   0   2.0000     -88.969571     -2420.9851
   1   2.0000     -88.962394     -2420.7898
   2   2.0000     -10.326704      -281.0039
   3   2.0000     -10.325291      -280.9655
   4   2.0000     -10.320739      -280.8416
   5   2.0000     -10.312131      -280.6074
   6   2.0000     -10.307251      -280.4746
   7   2.0000     -10.302411      -280.3429
   8   2.0000     -10.301662      -280.3225
   9   2.0000     -10.295450      -280.1534
  10   2.0000     -10.293298      -280.0949
  11   2.0000     -10.288875      -279.9745
  12   2.0000     -10.283563      -279.8300
  13   2.0000     -10.280264      -279.7402
  14   2.0000     -10.275763      -279.6177
  15   2.0000     -10.273623      -279.5595
  16   2.0000      -8.083645      -219.9672
  17   2.0000      -8.077463      -219.7989
  18   2.0000      -6.042213      -164.4170
  19   2.0000      -6.038297      -164.3104
  20   2.0000      -6.035992      -164.2477
  21   2.0000      -6.034330      -164.2025
  22   2.0000      -6.031866      -164.1354
  23   2.0000      -6.028211      -164.0360
  24   2.0000      -1.010442       -27.4955
  25   2.0000      -0.985748       -26.8236
  26   2.0000      -0.918134       -24.9837
  27   2.0000      -0.914591       -24.8873
  28   2.0000      -0.876666       -23.8553
  29   2.0000      -0.853142       -23.2152
  30   2.0000      -0.845412       -23.0048
  31   2.0000      -0.818113       -22.2620
  32   2.0000      -0.786939       -21.4137
  33   2.0000      -0.773801       -21.0562
  34   2.0000      -0.712069       -19.3764
  35   2.0000      -0.701600       -19.0915
  36   2.0000      -0.691432       -18.8148
  37   2.0000      -0.649225       -17.6663
  38   2.0000      -0.643821       -17.5193
  39   2.0000      -0.621361       -16.9081
  40   2.0000      -0.596827       -16.2405
  41   2.0000      -0.573310       -15.6006
  42   2.0000      -0.563059       -15.3216
  43   2.0000      -0.555660       -15.1203
  44   2.0000      -0.547029       -14.8854
  45   2.0000      -0.538898       -14.6642
  46   2.0000      -0.527176       -14.3452
  47   2.0000      -0.513554       -13.9745
  48   2.0000      -0.507745       -13.8164
  49   2.0000      -0.493969       -13.4416
  50   2.0000      -0.488699       -13.2982
  51   2.0000      -0.481940       -13.1143
  52   2.0000      -0.469561       -12.7774
  53   2.0000      -0.465269       -12.6606
  54   2.0000      -0.463519       -12.6130
  55   2.0000      -0.446842       -12.1592
  56   2.0000      -0.440509       -11.9868
  57   2.0000      -0.439207       -11.9514
  58   2.0000      -0.433219       -11.7885
  59   2.0000      -0.421539       -11.4707
  60   2.0000      -0.419118       -11.4048
  61   2.0000      -0.406794       -11.0694
  62   2.0000      -0.404691       -11.0122
  63   2.0000      -0.349283        -9.5045
  64   2.0000      -0.334527        -9.1030
  65   2.0000      -0.327481        -8.9112
  66   2.0000      -0.293242        -7.9795
  67   0.0000       0.031967         0.8699
  68   0.0000       0.064649         1.7592
  69   0.0000       0.112267         3.0550
  70   0.0000       0.122715         3.3393
  71   0.0000       0.126764         3.4494

MULLIKEN ATOMIC CHARGES
-----------------------
   0 S :    0.103811
   1 C :   -0.133554
   2 C :   -0.069746
   3 C :   -0.005299
   4 C :   -0.136869
   5 H :    0.023275
   6 C :    0.060801
   7 H :    0.034901
   8 H :    0.021410
   9 C :   -0.034539
  10 H :    0.027299
  11 H :    0.011814
  12 C :   -0.048653
  13 H :    0.018362
  14 H :    0.041794
  15 H :    0.027447
  16 S :    0.106154
  17 C :   -0.069227
  18 C :   -0.050427
  19 C :   -0.087218
  20 C :   -0.140255
  21 H :    0.032459
  22 C :    0.079462
  23 H :    0.032210
  24 H :    0.026780
  25 C :   -0.062784
  26 H :    0.021596
  27 H :    0.019662
  28 C :   -0.057504
  29 H :    0.048894
  30 H :    0.025923
  31 H :    0.041758
  32 H :    0.047671
  33 H :    0.042591
Sum of atomic charges:    0.0000000

LOEWDIN ATOMIC CHARGES
----------------------
   0 S :    0.391665
   1 C :   -0.172952
   2 C :   -0.062420
   3 C :   -0.061058
   4 C :   -0.206335
   5 H :    0.036045
   6 C :   -0.032854
   7 H :    0.040366
   8 H :    0.033102
   9 C :   -0.047437
  10 H :    0.029934
  11 H :    0.022885
  12 C :   -0.076378
  13 H :    0.024321
  14 H :    0.035157
  15 H :    0.028131
  16 S :    0.407758
  17 C :   -0.186278
  18 C :   -0.080904
  19 C :   -0.058771
  20 C :   -0.196869
  21 H :    0.036490
  22 C :   -0.032870
  23 H :    0.035733
  24 H :    0.028533
  25 C :   -0.046876
  26 H :    0.022694
  27 H :    0.020117
  28 C :   -0.061870
  29 H :    0.026864
  30 H :    0.016671
  31 H :    0.034256
  32 H :    0.023959
  33 H :    0.029190

  Mayer bond orders larger than 0.100000
B(  0-S ,  1-C ) :   1.1372 B(  0-S ,  4-C ) :   1.1302 B(  1-C ,  2-C ) :   1.5947
B(  1-C , 32-H ) :   0.9706 B(  2-C ,  3-C ) :   1.2567 B(  2-C ,  6-C ) :   1.0100
B(  3-C ,  4-C ) :   1.5718 B(  3-C ,  5-H ) :   0.9770 B(  4-C , 20-C ) :   1.0575
B(  6-C ,  7-H ) :   0.9395 B(  6-C ,  8-H ) :   0.9478 B(  6-C ,  9-C ) :   1.0515
B(  9-C , 10-H ) :   0.9504 B(  9-C , 11-H ) :   0.9511 B(  9-C , 12-C ) :   1.0952
B( 12-C , 13-H ) :   0.9665 B( 12-C , 14-H ) :   0.9715 B( 12-C , 15-H ) :   0.9661
B( 16-S , 17-C ) :   1.1577 B( 16-S , 20-C ) :   1.1275 B( 17-C , 18-C ) :   1.6142
B( 17-C , 33-H ) :   0.9697 B( 18-C , 19-C ) :   1.2459 B( 18-C , 21-H ) :   0.9830
B( 19-C , 20-C ) :   1.5874 B( 19-C , 22-C ) :   1.0303 B( 22-C , 23-H ) :   0.9329
B( 22-C , 24-H ) :   0.9300 B( 22-C , 25-C ) :   1.0762 B( 25-C , 26-H ) :   0.9498
B( 25-C , 27-H ) :   0.9559 B( 25-C , 28-C ) :   1.0820 B( 28-C , 29-H ) :   0.9689
B( 28-C , 30-H ) :   0.9743 B( 28-C , 31-H ) :   0.9694

Dispersion correction           -0.015025616
FINAL SINGLE POINT ENERGY     -1339.867319604070

DIPOLE MOMENT
-------------
                                X             Y             Z
Electronic contribution:     20.43092      -1.92817     -21.01452
Nuclear contribution   :    -20.90913       2.16446      21.40268
                        -----------------------------------------
Total Dipole Moment    :     -0.47822       0.23630       0.38816
                        -----------------------------------------
Magnitude (a.u.)       :      0.65969
Magnitude (Debye)      :      1.67681

Rotational constants in cm-1:     0.019415     0.009365     0.006960
Rotational constants in MHz :   582.040475   280.753638   208.665092

                             ****ORCA TERMINATED NORMALLY****
TOTAL RUN TIME: 0 days 0 hours 0 minutes 33 seconds 660 msec
