                         Program Version 4.2.1 -  RELEASE  -
|  1> ! wB97X-D3 SP def2-SVP
|  2> %pal
|  3> nprocs 16
|  4> end
|  5>
|  6> * xyz 0 1
|  7> S 	 -52.1895 	 59.0108 	 129.222
|  8> C 	 -51.3719 	 57.5343 	 128.785
|  9> C 	 -50.3634 	 57.2804 	 129.673
| 10> C 	 -50.2979 	 58.2181 	 130.738
| 11> C 	 -51.1505 	 59.3044 	 130.603
| 12> H 	 -49.5611 	 58.3256 	 131.507
| 13> C 	 -49.2732 	 56.2682 	 129.634
| 14> H 	 -49.8272 	 55.3213 	 129.769
| 15> H 	 -48.5876 	 56.3046 	 130.522
| 16> C 	 -48.2653 	 56.364 	 128.507
| 17> H 	 -47.368 	 55.7176 	 128.659
| 18> H 	 -48.6664 	 55.8504 	 127.62
| 19> C 	 -47.5074 	 57.673 	 128.312
| 20> H 	 -46.7121 	 57.5473 	 127.684
| 21> H 	 -48.2265 	 58.3748 	 127.81
| 22> H 	 -47.1927 	 58.1597 	 129.185
| 23> S 	 -50.638 	 61.9338 	 130.076
| 24> C 	 -50.4496 	 63.0643 	 131.309
| 25> C 	 -50.9085 	 62.5478 	 132.488
| 26> C 	 -51.0922 	 61.1335 	 132.468
| 27> C 	 -50.946 	 60.6333 	 131.192
| 28> H 	 -50.9888 	 63.1518 	 133.41
| 29> C 	 -51.4648 	 60.3115 	 133.663
| 30> H 	 -51.9795 	 59.4235 	 133.336
| 31> H 	 -52.337 	 60.7234 	 134.169
| 32> C 	 -50.3858 	 60.0553 	 134.712
| 33> H 	 -49.9978 	 60.924 	 135.237
| 34> H 	 -49.5303 	 59.6013 	 134.179
| 35> C 	 -50.8688 	 59.0872 	 135.79
| 36> H 	 -50.1129 	 59.0728 	 136.664
| 37> H 	 -51.0079 	 58.1395 	 135.257
| 38> H 	 -51.802 	 59.4312 	 136.238
| 39> H 	 -51.4317 	 57.0423 	 127.812
| 40> H 	 -50.1959 	 64.1504 	 131.254
| 41> *
| 42>
| 43>                          ****END OF INPUT****

CARTESIAN COORDINATES (ANGSTROEM)
---------------------------------
  S    -52.189500   59.010800  129.222000
  C    -51.371900   57.534300  128.785000
  C    -50.363400   57.280400  129.673000
  C    -50.297900   58.218100  130.738000
  C    -51.150500   59.304400  130.603000
  H    -49.561100   58.325600  131.507000
  C    -49.273200   56.268200  129.634000
  H    -49.827200   55.321300  129.769000
  H    -48.587600   56.304600  130.522000
  C    -48.265300   56.364000  128.507000
  H    -47.368000   55.717600  128.659000
  H    -48.666400   55.850400  127.620000
  C    -47.507400   57.673000  128.312000
  H    -46.712100   57.547300  127.684000
  H    -48.226500   58.374800  127.810000
  H    -47.192700   58.159700  129.185000
  S    -50.638000   61.933800  130.076000
  C    -50.449600   63.064300  131.309000
  C    -50.908500   62.547800  132.488000
  C    -51.092200   61.133500  132.468000
  C    -50.946000   60.633300  131.192000
  H    -50.988800   63.151800  133.410000
  C    -51.464800   60.311500  133.663000
  H    -51.979500   59.423500  133.336000
  H    -52.337000   60.723400  134.169000
  C    -50.385800   60.055300  134.712000
  H    -49.997800   60.924000  135.237000
  H    -49.530300   59.601300  134.179000
  C    -50.868800   59.087200  135.790000
  H    -50.112900   59.072800  136.664000
  H    -51.007900   58.139500  135.257000
  H    -51.802000   59.431200  136.238000
  H    -51.431700   57.042300  127.812000
  H    -50.195900   64.150400  131.254000

 Total Charge           Charge          ....    0
 Multiplicity           Mult            ....    1
 Number of Electrons    NEL             ....  134
 Basis Dimension        Dim             ....  322

ORBITAL ENERGIES
----------------

  NO   OCC          E(Eh)            E(eV)
   0   2.0000     -88.965611     -2420.8773
   1   2.0000     -88.963935     -2420.8317
   2   2.0000     -10.328565      -281.0545
   3   2.0000     -10.325283      -280.9652
   4   2.0000     -10.314512      -280.6721
   5   2.0000     -10.312799      -280.6255
   6   2.0000     -10.300315      -280.2858
   7   2.0000     -10.297985      -280.2224
   8   2.0000     -10.292744      -280.0798
   9   2.0000     -10.290826      -280.0276
  10   2.0000     -10.289443      -279.9900
  11   2.0000     -10.287380      -279.9338
  12   2.0000     -10.286793      -279.9179
  13   2.0000     -10.285712      -279.8885
  14   2.0000     -10.284399      -279.8527
  15   2.0000     -10.268804      -279.4284
  16   2.0000      -8.080278      -219.8755
  17   2.0000      -8.080155      -219.8722
  18   2.0000      -6.038835      -164.3250
  19   2.0000      -6.038612      -164.3190
  20   2.0000      -6.034664      -164.2115
  21   2.0000      -6.034402      -164.2044
  22   2.0000      -6.031108      -164.1148
  23   2.0000      -6.030900      -164.1091
  24   2.0000      -1.014448       -27.6045
  25   2.0000      -0.991971       -26.9929
  26   2.0000      -0.914386       -24.8817
  27   2.0000      -0.913432       -24.8558
  28   2.0000      -0.871459       -23.7136
  29   2.0000      -0.855045       -23.2670
  30   2.0000      -0.848773       -23.0963
  31   2.0000      -0.815649       -22.1949
  32   2.0000      -0.785038       -21.3620
  33   2.0000      -0.774222       -21.0676
  34   2.0000      -0.705100       -19.1868
  35   2.0000      -0.700273       -19.0554
  36   2.0000      -0.695356       -18.9216
  37   2.0000      -0.658957       -17.9311
  38   2.0000      -0.640836       -17.4380
  39   2.0000      -0.612763       -16.6741
  40   2.0000      -0.597120       -16.2485
  41   2.0000      -0.574034       -15.6202
  42   2.0000      -0.566775       -15.4227
  43   2.0000      -0.563377       -15.3303
  44   2.0000      -0.541639       -14.7387
  45   2.0000      -0.528654       -14.3854
  46   2.0000      -0.514220       -13.9926
  47   2.0000      -0.511825       -13.9275
  48   2.0000      -0.504208       -13.7202
  49   2.0000      -0.500664       -13.6238
  50   2.0000      -0.490989       -13.3605
  51   2.0000      -0.483062       -13.1448
  52   2.0000      -0.479490       -13.0476
  53   2.0000      -0.469387       -12.7727
  54   2.0000      -0.458767       -12.4837
  55   2.0000      -0.452597       -12.3158
  56   2.0000      -0.446548       -12.1512
  57   2.0000      -0.438002       -11.9186
  58   2.0000      -0.429843       -11.6966
  59   2.0000      -0.422524       -11.4975
  60   2.0000      -0.411529       -11.1983
  61   2.0000      -0.410043       -11.1578
  62   2.0000      -0.391213       -10.6454
  63   2.0000      -0.346093        -9.4177
  64   2.0000      -0.331402        -9.0179
  65   2.0000      -0.326685        -8.8896
  66   2.0000      -0.296945        -8.0803
  67   0.0000       0.032301         0.8789
  68   0.0000       0.063517         1.7284
  69   0.0000       0.119880         3.2621
  70   0.0000       0.122834         3.3425
  71   0.0000       0.133914         3.6440

MULLIKEN ATOMIC CHARGES
-----------------------
   0 S :    0.102923
   1 C :   -0.120529
   2 C :   -0.079318
   3 C :    0.041105
   4 C :   -0.161358
   5 H :    0.003844
   6 C :    0.052419
   7 H :    0.045206
   8 H :    0.027333
   9 C :   -0.106260
  10 H :    0.023369
  11 H :    0.022671
  12 C :    0.001282
  13 H :    0.017107
  14 H :    0.036963
  15 H :    0.021532
  16 S :    0.123762
  17 C :   -0.094952
  18 C :   -0.044950
  19 C :   -0.020821
  20 C :   -0.169672
  21 H :    0.023755
  22 C :    0.059757
  23 H :    0.011193
  24 H :    0.011735
  25 C :   -0.064336
  26 H :    0.026588
  27 H :    0.027623
  28 C :   -0.066777
  29 H :    0.047979
  30 H :    0.041503
  31 H :    0.028864
  32 H :    0.057607
  33 H :    0.072853
Sum of atomic charges:   -0.0000000

LOEWDIN ATOMIC CHARGES
----------------------
   0 S :    0.406116
   1 C :   -0.207291
   2 C :   -0.067534
   3 C :   -0.058605
   4 C :   -0.196063
   5 H :    0.026302
   6 C :   -0.040514
   7 H :    0.040399
   8 H :    0.035798
   9 C :   -0.052536
  10 H :    0.028748
  11 H :    0.021422
  12 C :   -0.051258
  13 H :    0.015762
  14 H :    0.032314
  15 H :    0.020945
  16 S :    0.439481
  17 C :   -0.213919
  18 C :   -0.077164
  19 C :   -0.056453
  20 C :   -0.202148
  21 H :    0.033252
  22 C :   -0.040702
  23 H :    0.030513
  24 H :    0.032588
  25 C :   -0.041758
  26 H :    0.021395
  27 H :    0.023537
  28 C :   -0.067818
  29 H :    0.035961
  30 H :    0.027911
  31 H :    0.021085
  32 H :    0.035405
  33 H :    0.044828

  Mayer bond orders larger than 0.100000
B(  0-S ,  1-C ) :   1.1285 B(  0-S ,  4-C ) :   1.1597 B(  1-C ,  2-C ) :   1.6096
B(  1-C , 32-H ) :   0.9671 B(  2-C ,  3-C ) :   1.2516 B(  2-C ,  6-C ) :   1.0067
B(  3-C ,  4-C ) :   1.5674 B(  3-C ,  5-H ) :   0.9941 B(  4-C , 20-C ) :   1.0319
B(  6-C ,  7-H ) :   0.9372 B(  6-C ,  8-H ) :   0.9497 B(  6-C ,  9-C ) :   1.0738
B(  9-C , 10-H ) :   0.9607 B(  9-C , 11-H ) :   0.9559 B(  9-C , 12-C ) :   1.0642
B( 12-C , 13-H ) :   0.9753 B( 12-C , 14-H ) :   0.9713 B( 12-C , 15-H ) :   0.9729
B( 16-S , 17-C ) :   1.1708 B( 16-S , 20-C ) :   1.1490 B( 17-C , 18-C ) :   1.5925
B( 17-C , 33-H ) :   0.9606 B( 18-C , 19-C ) :   1.2663 B( 18-C , 21-H ) :   0.9842
B( 19-C , 20-C ) :   1.5824 B( 19-C , 22-C ) :   1.0530 B( 22-C , 23-H ) :   0.9278
B( 22-C , 24-H ) :   0.9251 B( 22-C , 25-C ) :   1.0556 B( 25-C , 26-H ) :   0.9554
B( 25-C , 27-H ) :   0.9552 B( 25-C , 28-C ) :   1.0794 B( 28-C , 29-H ) :   0.9743
B( 28-C , 30-H ) :   0.9765 B( 28-C , 31-H ) :   0.9735

Dispersion correction           -0.014443794
FINAL SINGLE POINT ENERGY     -1339.857580203771

DIPOLE MOMENT
-------------
                                X             Y             Z
Electronic contribution:    -13.14731      13.27896     -13.17253
Nuclear contribution   :     13.57629     -13.35943      13.48961
                        -----------------------------------------
Total Dipole Moment    :      0.42898      -0.08047       0.31708
                        -----------------------------------------
Magnitude (a.u.)       :      0.53948
Magnitude (Debye)      :      1.37125

Rotational constants in cm-1:     0.017612     0.008852     0.007395
Rotational constants in MHz :   528.002220   265.385618   221.684317

                             ****ORCA TERMINATED NORMALLY****
TOTAL RUN TIME: 0 days 0 hours 0 minutes 34 seconds 833 msec
