                         Program Version 4.2.1 -  RELEASE  -
|  1> ! wB97X-D3 SP def2-SVP
|  2> %pal
|  3> nprocs 16
|  4> end
|  5>
|  6> * xyz 0 1
|  7> S 	 45.7302 	 16.5644 	 86.2279
|  8> C 	 46.1331 	 18.2306 	 85.8826
|  9> C 	 45.2828 	 19.1395 	 86.5174
| 10> C 	 44.326 	 18.4227 	 87.3047
| 11> C 	 44.4608 	 17.0754 	 87.3182
| 12> H 	 43.5697 	 18.9085 	 87.933
| 13> C 	 45.2878 	 20.6472 	 86.3844
| 14> H 	 44.3093 	 21.0576 	 86.2033
| 15> H 	 45.9362 	 20.8319 	 85.5248
| 16> C 	 45.7825 	 21.3905 	 87.6027
| 17> H 	 44.9642 	 21.2013 	 88.2777
| 18> H 	 46.6559 	 20.8369 	 88.1687
| 19> C 	 45.9636 	 22.9538 	 87.398
| 20> H 	 46.8169 	 23.2622 	 86.7997
| 21> H 	 45.1146 	 23.3451 	 86.8064
| 22> H 	 45.952 	 23.4732 	 88.3982
| 23> S 	 43.0706 	 14.6458 	 87.5557
| 24> C 	 42.2903 	 14.2097 	 88.9937
| 25> C 	 42.6636 	 14.9868 	 90.0617
| 26> C 	 43.5157 	 16.0838 	 89.5979
| 27> C 	 43.7551 	 16.1071 	 88.2058
| 28> H 	 42.1686 	 14.819 	 91.0102
| 29> C 	 44.117 	 16.9957 	 90.6123
| 30> H 	 43.3441 	 17.409 	 91.291
| 31> H 	 44.5071 	 17.7627 	 89.9631
| 32> C 	 45.2663 	 16.3941 	 91.4036
| 33> H 	 45.7764 	 15.6807 	 90.7555
| 34> H 	 44.8594 	 15.7189 	 92.1222
| 35> C 	 46.3091 	 17.3077 	 92.0139
| 36> H 	 46.8971 	 16.7768 	 92.7719
| 37> H 	 45.8645 	 18.2182 	 92.4617
| 38> H 	 47.048 	 17.6056 	 91.2575
| 39> H 	 47.0494 	 18.5774 	 85.3695
| 40> H 	 41.6829 	 13.352 	 89.1699
| 41> *
| 42>
| 43>                          ****END OF INPUT****

CARTESIAN COORDINATES (ANGSTROEM)
---------------------------------
  S     45.730200   16.564400   86.227900
  C     46.133100   18.230600   85.882600
  C     45.282800   19.139500   86.517400
  C     44.326000   18.422700   87.304700
  C     44.460800   17.075400   87.318200
  H     43.569700   18.908500   87.933000
  C     45.287800   20.647200   86.384400
  H     44.309300   21.057600   86.203300
  H     45.936200   20.831900   85.524800
  C     45.782500   21.390500   87.602700
  H     44.964200   21.201300   88.277700
  H     46.655900   20.836900   88.168700
  C     45.963600   22.953800   87.398000
  H     46.816900   23.262200   86.799700
  H     45.114600   23.345100   86.806400
  H     45.952000   23.473200   88.398200
  S     43.070600   14.645800   87.555700
  C     42.290300   14.209700   88.993700
  C     42.663600   14.986800   90.061700
  C     43.515700   16.083800   89.597900
  C     43.755100   16.107100   88.205800
  H     42.168600   14.819000   91.010200
  C     44.117000   16.995700   90.612300
  H     43.344100   17.409000   91.291000
  H     44.507100   17.762700   89.963100
  C     45.266300   16.394100   91.403600
  H     45.776400   15.680700   90.755500
  H     44.859400   15.718900   92.122200
  C     46.309100   17.307700   92.013900
  H     46.897100   16.776800   92.771900
  H     45.864500   18.218200   92.461700
  H     47.048000   17.605600   91.257500
  H     47.049400   18.577400   85.369500
  H     41.682900   13.352000   89.169900

 Total Charge           Charge          ....    0
 Multiplicity           Mult            ....    1
 Number of Electrons    NEL             ....  134
 Basis Dimension        Dim             ....  322

ORBITAL ENERGIES
----------------

  NO   OCC          E(Eh)            E(eV)
   0   2.0000     -88.969496     -2420.9831
   1   2.0000     -88.963576     -2420.8220
   2   2.0000     -10.332689      -281.1668
   3   2.0000     -10.331704      -281.1400
   4   2.0000     -10.319982      -280.8210
   5   2.0000     -10.311106      -280.5795
   6   2.0000     -10.307266      -280.4750
   7   2.0000     -10.304606      -280.4026
   8   2.0000     -10.296915      -280.1933
   9   2.0000     -10.294238      -280.1205
  10   2.0000     -10.292884      -280.0836
  11   2.0000     -10.292510      -280.0734
  12   2.0000     -10.291542      -280.0471
  13   2.0000     -10.283079      -279.8168
  14   2.0000     -10.277876      -279.6752
  15   2.0000     -10.276003      -279.6243
  16   2.0000      -8.084316      -219.9854
  17   2.0000      -8.079631      -219.8579
  18   2.0000      -6.042808      -164.4332
  19   2.0000      -6.038906      -164.3270
  20   2.0000      -6.038078      -164.3044
  21   2.0000      -6.034982      -164.2202
  22   2.0000      -6.033838      -164.1891
  23   2.0000      -6.030502      -164.0983
  24   2.0000      -1.009189       -27.4614
  25   2.0000      -0.989404       -26.9231
  26   2.0000      -0.914213       -24.8770
  27   2.0000      -0.911061       -24.7912
  28   2.0000      -0.868051       -23.6209
  29   2.0000      -0.850585       -23.1456
  30   2.0000      -0.844732       -22.9863
  31   2.0000      -0.819118       -22.2893
  32   2.0000      -0.783446       -21.3187
  33   2.0000      -0.770874       -20.9765
  34   2.0000      -0.706965       -19.2375
  35   2.0000      -0.696798       -18.9608
  36   2.0000      -0.693249       -18.8643
  37   2.0000      -0.656630       -17.8678
  38   2.0000      -0.641665       -17.4606
  39   2.0000      -0.625135       -17.0108
  40   2.0000      -0.591621       -16.0988
  41   2.0000      -0.577927       -15.7262
  42   2.0000      -0.564038       -15.3483
  43   2.0000      -0.555668       -15.1205
  44   2.0000      -0.525206       -14.2916
  45   2.0000      -0.520098       -14.1526
  46   2.0000      -0.519704       -14.1419
  47   2.0000      -0.506913       -13.7938
  48   2.0000      -0.504950       -13.7404
  49   2.0000      -0.499901       -13.6030
  50   2.0000      -0.491609       -13.3774
  51   2.0000      -0.487252       -13.2588
  52   2.0000      -0.471986       -12.8434
  53   2.0000      -0.471051       -12.8179
  54   2.0000      -0.462378       -12.5819
  55   2.0000      -0.448832       -12.2133
  56   2.0000      -0.442459       -12.0399
  57   2.0000      -0.440402       -11.9839
  58   2.0000      -0.428324       -11.6553
  59   2.0000      -0.425723       -11.5845
  60   2.0000      -0.416983       -11.3467
  61   2.0000      -0.413666       -11.2564
  62   2.0000      -0.407960       -11.1011
  63   2.0000      -0.350812        -9.5461
  64   2.0000      -0.334883        -9.1126
  65   2.0000      -0.326064        -8.8726
  66   2.0000      -0.293919        -7.9979
  67   0.0000       0.034455         0.9376
  68   0.0000       0.066939         1.8215
  69   0.0000       0.112521         3.0619
  70   0.0000       0.117354         3.1934
  71   0.0000       0.133414         3.6304

MULLIKEN ATOMIC CHARGES
-----------------------
   0 S :    0.117686
   1 C :   -0.125681
   2 C :   -0.114944
   3 C :    0.020406
   4 C :   -0.135143
   5 H :    0.022607
   6 C :    0.100811
   7 H :    0.027836
   8 H :    0.015192
   9 C :   -0.119727
  10 H :    0.018101
  11 H :    0.049005
  12 C :   -0.052563
  13 H :    0.041747
  14 H :    0.026434
  15 H :    0.052097
  16 S :    0.106508
  17 C :   -0.069286
  18 C :   -0.042851
  19 C :   -0.097029
  20 C :   -0.138951
  21 H :    0.026558
  22 C :    0.103320
  23 H :    0.032425
  24 H :   -0.001244
  25 C :   -0.062349
  26 H :    0.022489
  27 H :    0.010758
  28 C :   -0.046297
  29 H :    0.033220
  30 H :    0.034162
  31 H :    0.037802
  32 H :    0.059736
  33 H :    0.047166
Sum of atomic charges:   -0.0000000

LOEWDIN ATOMIC CHARGES
----------------------
   0 S :    0.406688
   1 C :   -0.199840
   2 C :   -0.060447
   3 C :   -0.065616
   4 C :   -0.192643
   5 H :    0.034604
   6 C :   -0.031687
   7 H :    0.031830
   8 H :    0.026904
   9 C :   -0.052117
  10 H :    0.018948
  11 H :    0.034655
  12 C :   -0.070917
  13 H :    0.025289
  14 H :    0.027439
  15 H :    0.036226
  16 S :    0.428368
  17 C :   -0.193941
  18 C :   -0.078591
  19 C :   -0.048304
  20 C :   -0.211358
  21 H :    0.034595
  22 C :   -0.038152
  23 H :    0.032250
  24 H :    0.025338
  25 C :   -0.045537
  26 H :    0.027679
  27 H :    0.016888
  28 C :   -0.066013
  29 H :    0.029586
  30 H :    0.026112
  31 H :    0.028717
  32 H :    0.035545
  33 H :    0.027503

  Mayer bond orders larger than 0.100000
B(  0-S ,  1-C ) :   1.1395 B(  0-S ,  4-C ) :   1.1458 B(  1-C ,  2-C ) :   1.6280
B(  1-C , 32-H ) :   0.9578 B(  2-C ,  3-C ) :   1.2266 B(  2-C ,  6-C ) :   1.0323
B(  3-C ,  4-C ) :   1.6075 B(  3-C ,  5-H ) :   0.9913 B(  4-C , 20-C ) :   1.0086
B(  6-C ,  7-H ) :   0.9376 B(  6-C ,  8-H ) :   0.9405 B(  6-C ,  9-C ) :   1.0442
B(  9-C , 10-H ) :   0.9572 B(  9-C , 11-H ) :   0.9582 B(  9-C , 12-C ) :   1.0644
B( 12-C , 13-H ) :   0.9789 B( 12-C , 14-H ) :   0.9709 B( 12-C , 15-H ) :   0.9765
B( 16-S , 17-C ) :   1.1814 B( 16-S , 20-C ) :   1.1335 B( 17-C , 18-C ) :   1.6101
B( 17-C , 33-H ) :   0.9649 B( 18-C , 19-C ) :   1.2257 B( 18-C , 21-H ) :   0.9929
B( 19-C , 20-C ) :   1.5877 B( 19-C , 22-C ) :   1.0617 B( 22-C , 23-H ) :   0.9253
B( 22-C , 24-H ) :   0.9251 B( 22-C , 25-C ) :   1.0634 B( 25-C , 26-H ) :   0.9516
B( 25-C , 27-H ) :   0.9506 B( 25-C , 28-C ) :   1.0903 B( 28-C , 29-H ) :   0.9726
B( 28-C , 30-H ) :   0.9759 B( 28-C , 31-H ) :   0.9747

Dispersion correction           -0.013866130
FINAL SINGLE POINT ENERGY     -1339.877836134962

DIPOLE MOMENT
-------------
                                X             Y             Z
Electronic contribution:     -8.70820     -24.54768     -16.14868
Nuclear contribution   :      8.72068      25.03243      16.60570
                        -----------------------------------------
Total Dipole Moment    :      0.01248       0.48475       0.45702
                        -----------------------------------------
Magnitude (a.u.)       :      0.66634
Magnitude (Debye)      :      1.69369

Rotational constants in cm-1:     0.018060     0.008418     0.006643
Rotational constants in MHz :   541.415679   252.353348   199.164880

                             ****ORCA TERMINATED NORMALLY****
TOTAL RUN TIME: 0 days 0 hours 0 minutes 29 seconds 729 msec
