                         Program Version 4.2.1 -  RELEASE  -
|  1> ! wB97X-D3 SP def2-SVP
|  2> %pal
|  3> nprocs 16
|  4> end
|  5>
|  6> * xyz 0 1
|  7> S 	 -43.1189 	 26.3544 	 86.438
|  8> C 	 -44.4045 	 25.8362 	 85.3967
|  9> C 	 -44.0996 	 24.6902 	 84.7342
| 10> C 	 -42.8893 	 24.0922 	 85.1685
| 11> C 	 -42.1488 	 24.959 	 85.9202
| 12> H 	 -42.4472 	 23.0886 	 84.8944
| 13> C 	 -45.0801 	 24.0811 	 83.7886
| 14> H 	 -44.7594 	 24.3415 	 82.735
| 15> H 	 -46.0645 	 24.5573 	 83.8455
| 16> C 	 -45.2435 	 22.5338 	 83.7623
| 17> H 	 -45.7653 	 22.2695 	 82.8466
| 18> H 	 -44.2515 	 22.0991 	 83.6794
| 19> C 	 -46.0575 	 22.0166 	 84.9286
| 20> H 	 -47.0966 	 22.1801 	 84.7553
| 21> H 	 -45.9996 	 20.924 	 85.0091
| 22> H 	 -45.7677 	 22.4418 	 85.8685
| 23> S 	 -40.6598 	 23.8864 	 88.0347
| 24> C 	 -38.9832 	 23.8516 	 87.8717
| 25> C 	 -38.5262 	 24.2358 	 86.6322
| 26> C 	 -39.5691 	 24.619 	 85.7352
| 27> C 	 -40.7774 	 24.6423 	 86.4095
| 28> H 	 -37.4769 	 24.1011 	 86.5244
| 29> C 	 -39.3578 	 25.0025 	 84.2512
| 30> H 	 -38.5219 	 25.7167 	 84.3336
| 31> H 	 -40.2568 	 25.4581 	 83.8331
| 32> C 	 -38.9983 	 23.8137 	 83.3994
| 33> H 	 -38.0125 	 23.486 	 83.8028
| 34> H 	 -38.754 	 24.1922 	 82.3947
| 35> C 	 -40.104 	 22.789 	 83.4281
| 36> H 	 -39.7726 	 21.933 	 82.8902
| 37> H 	 -40.9905 	 23.1628 	 82.992
| 38> H 	 -40.2832 	 22.3465 	 84.4073
| 39> H 	 -45.329 	 26.4169 	 85.2401
| 40> H 	 -38.24 	 23.4576 	 88.6769
| 41> *
| 42>
| 43>                          ****END OF INPUT****

CARTESIAN COORDINATES (ANGSTROEM)
---------------------------------
  S    -43.118900   26.354400   86.438000
  C    -44.404500   25.836200   85.396700
  C    -44.099600   24.690200   84.734200
  C    -42.889300   24.092200   85.168500
  C    -42.148800   24.959000   85.920200
  H    -42.447200   23.088600   84.894400
  C    -45.080100   24.081100   83.788600
  H    -44.759400   24.341500   82.735000
  H    -46.064500   24.557300   83.845500
  C    -45.243500   22.533800   83.762300
  H    -45.765300   22.269500   82.846600
  H    -44.251500   22.099100   83.679400
  C    -46.057500   22.016600   84.928600
  H    -47.096600   22.180100   84.755300
  H    -45.999600   20.924000   85.009100
  H    -45.767700   22.441800   85.868500
  S    -40.659800   23.886400   88.034700
  C    -38.983200   23.851600   87.871700
  C    -38.526200   24.235800   86.632200
  C    -39.569100   24.619000   85.735200
  C    -40.777400   24.642300   86.409500
  H    -37.476900   24.101100   86.524400
  C    -39.357800   25.002500   84.251200
  H    -38.521900   25.716700   84.333600
  H    -40.256800   25.458100   83.833100
  C    -38.998300   23.813700   83.399400
  H    -38.012500   23.486000   83.802800
  H    -38.754000   24.192200   82.394700
  C    -40.104000   22.789000   83.428100
  H    -39.772600   21.933000   82.890200
  H    -40.990500   23.162800   82.992000
  H    -40.283200   22.346500   84.407300
  H    -45.329000   26.416900   85.240100
  H    -38.240000   23.457600   88.676900

 Total Charge           Charge          ....    0
 Multiplicity           Mult            ....    1
 Number of Electrons    NEL             ....  134
 Basis Dimension        Dim             ....  322

ORBITAL ENERGIES
----------------

  NO   OCC          E(Eh)            E(eV)
   0   2.0000     -88.963833     -2420.8290
   1   2.0000     -88.962899     -2420.8036
   2   2.0000     -10.326552      -280.9998
   3   2.0000     -10.324258      -280.9373
   4   2.0000     -10.317005      -280.7400
   5   2.0000     -10.309877      -280.5460
   6   2.0000     -10.305981      -280.4400
   7   2.0000     -10.295628      -280.1583
   8   2.0000     -10.295161      -280.1456
   9   2.0000     -10.292398      -280.0704
  10   2.0000     -10.290733      -280.0251
  11   2.0000     -10.287700      -279.9426
  12   2.0000     -10.287356      -279.9332
  13   2.0000     -10.285565      -279.8845
  14   2.0000     -10.270838      -279.4837
  15   2.0000     -10.269552      -279.4487
  16   2.0000      -8.078525      -219.8278
  17   2.0000      -8.078382      -219.8239
  18   2.0000      -6.036994      -164.2750
  19   2.0000      -6.036671      -164.2662
  20   2.0000      -6.033140      -164.1701
  21   2.0000      -6.032936      -164.1645
  22   2.0000      -6.029229      -164.0637
  23   2.0000      -6.029172      -164.0621
  24   2.0000      -1.005674       -27.3658
  25   2.0000      -0.987768       -26.8785
  26   2.0000      -0.916925       -24.9508
  27   2.0000      -0.909121       -24.7384
  28   2.0000      -0.866100       -23.5678
  29   2.0000      -0.850097       -23.1323
  30   2.0000      -0.847353       -23.0577
  31   2.0000      -0.813660       -22.1408
  32   2.0000      -0.788046       -21.4438
  33   2.0000      -0.772078       -21.0093
  34   2.0000      -0.709584       -19.3088
  35   2.0000      -0.694459       -18.8972
  36   2.0000      -0.684558       -18.6278
  37   2.0000      -0.647822       -17.6281
  38   2.0000      -0.637304       -17.3419
  39   2.0000      -0.621381       -16.9086
  40   2.0000      -0.594496       -16.1770
  41   2.0000      -0.566138       -15.4054
  42   2.0000      -0.556601       -15.1459
  43   2.0000      -0.549488       -14.9523
  44   2.0000      -0.547132       -14.8882
  45   2.0000      -0.538869       -14.6634
  46   2.0000      -0.515277       -14.0214
  47   2.0000      -0.512228       -13.9384
  48   2.0000      -0.497259       -13.5311
  49   2.0000      -0.489331       -13.3154
  50   2.0000      -0.488781       -13.3004
  51   2.0000      -0.479360       -13.0441
  52   2.0000      -0.469105       -12.7650
  53   2.0000      -0.467269       -12.7150
  54   2.0000      -0.464361       -12.6359
  55   2.0000      -0.449250       -12.2247
  56   2.0000      -0.443964       -12.0809
  57   2.0000      -0.434210       -11.8155
  58   2.0000      -0.433115       -11.7857
  59   2.0000      -0.422803       -11.5050
  60   2.0000      -0.420343       -11.4381
  61   2.0000      -0.418758       -11.3950
  62   2.0000      -0.415683       -11.3113
  63   2.0000      -0.336621        -9.1599
  64   2.0000      -0.329260        -8.9596
  65   2.0000      -0.317851        -8.6492
  66   2.0000      -0.307235        -8.3603
  67   0.0000       0.044493         1.2107
  68   0.0000       0.060131         1.6363
  69   0.0000       0.116319         3.1652
  70   0.0000       0.124117         3.3774
  71   0.0000       0.129630         3.5274

MULLIKEN ATOMIC CHARGES
-----------------------
   0 S :    0.114275
   1 C :   -0.143902
   2 C :   -0.042168
   3 C :    0.014266
   4 C :   -0.173890
   5 H :    0.036275
   6 C :    0.026709
   7 H :    0.036717
   8 H :    0.012515
   9 C :   -0.064702
  10 H :    0.022652
  11 H :    0.025337
  12 C :   -0.024019
  13 H :    0.019775
  14 H :    0.027966
  15 H :    0.035225
  16 S :    0.118622
  17 C :   -0.124556
  18 C :   -0.048345
  19 C :   -0.010250
  20 C :   -0.211640
  21 H :    0.003903
  22 C :    0.082774
  23 H :    0.035002
  24 H :    0.030671
  25 C :   -0.076872
  26 H :    0.021532
  27 H :    0.032825
  28 C :   -0.014755
  29 H :    0.018133
  30 H :    0.029695
  31 H :    0.048454
  32 H :    0.058193
  33 H :    0.083586
Sum of atomic charges:   -0.0000000

LOEWDIN ATOMIC CHARGES
----------------------
   0 S :    0.397584
   1 C :   -0.201829
   2 C :   -0.074442
   3 C :   -0.063173
   4 C :   -0.191493
   5 H :    0.044177
   6 C :   -0.036188
   7 H :    0.037455
   8 H :    0.026593
   9 C :   -0.039689
  10 H :    0.025859
  11 H :    0.019591
  12 C :   -0.063303
  13 H :    0.022261
  14 H :    0.027891
  15 H :    0.023598
  16 S :    0.409815
  17 C :   -0.214582
  18 C :   -0.086606
  19 C :   -0.044307
  20 C :   -0.194103
  21 H :    0.026726
  22 C :   -0.025730
  23 H :    0.034264
  24 H :    0.029162
  25 C :   -0.040977
  26 H :    0.024016
  27 H :    0.026945
  28 C :   -0.058753
  29 H :    0.024896
  30 H :    0.020889
  31 H :    0.030257
  32 H :    0.034367
  33 H :    0.048829

  Mayer bond orders larger than 0.100000
B(  0-S ,  1-C ) :   1.1345 B(  0-S ,  4-C ) :   1.1469 B(  1-C ,  2-C ) :   1.6264
B(  1-C , 32-H ) :   0.9631 B(  2-C ,  3-C ) :   1.2117 B(  2-C ,  6-C ) :   1.0296
B(  3-C ,  4-C ) :   1.6126 B(  3-C ,  5-H ) :   0.9752 B(  4-C , 20-C ) :   1.0051
B(  6-C ,  7-H ) :   0.9263 B(  6-C ,  8-H ) :   0.9451 B(  6-C ,  9-C ) :   1.0824
B(  9-C , 10-H ) :   0.9522 B(  9-C , 11-H ) :   0.9517 B(  9-C , 12-C ) :   1.0789
B( 12-C , 13-H ) :   0.9726 B( 12-C , 14-H ) :   0.9725 B( 12-C , 15-H ) :   0.9790
B( 16-S , 17-C ) :   1.1670 B( 16-S , 20-C ) :   1.1443 B( 17-C , 18-C ) :   1.6356
B( 17-C , 33-H ) :   0.9490 B( 18-C , 19-C ) :   1.2021 B( 18-C , 21-H ) :   0.9965
B( 19-C , 20-C ) :   1.6184 B( 19-C , 22-C ) :   1.0232 B( 22-C , 23-H ) :   0.9373
B( 22-C , 24-H ) :   0.9363 B( 22-C , 25-C ) :   1.0784 B( 25-C , 26-H ) :   0.9535
B( 25-C , 27-H ) :   0.9546 B( 25-C , 28-C ) :   1.0795 B( 28-C , 29-H ) :   0.9628
B( 28-C , 30-H ) :   0.9702 B( 28-C , 31-H ) :   0.9632

Dispersion correction           -0.015819644
FINAL SINGLE POINT ENERGY     -1339.882368379512

DIPOLE MOMENT
-------------
                                X             Y             Z
Electronic contribution:      5.28460      13.97761      20.14295
Nuclear contribution   :     -5.20269     -14.38556     -20.72842
                        -----------------------------------------
Total Dipole Moment    :      0.08190      -0.40795      -0.58547
                        -----------------------------------------
Magnitude (a.u.)       :      0.71826
Magnitude (Debye)      :      1.82568

Rotational constants in cm-1:     0.018987     0.009240     0.007999
Rotational constants in MHz :   569.224709   277.016893   239.817820

                             ****ORCA TERMINATED NORMALLY****
TOTAL RUN TIME: 0 days 0 hours 0 minutes 31 seconds 528 msec
