                         Program Version 4.2.1 -  RELEASE  -
|  1> ! wB97X-D3 SP def2-SVP
|  2> %pal
|  3> nprocs 16
|  4> end
|  5>
|  6> * xyz 0 1
|  7> S 	 25.6045 	 31.7532 	 58.7856
|  8> C 	 25.7584 	 30.9212 	 57.3171
|  9> C 	 26.9905 	 30.9433 	 56.8316
| 10> C 	 27.8709 	 31.8654 	 57.461
| 11> C 	 27.2195 	 32.3667 	 58.6044
| 12> H 	 28.9731 	 32.0185 	 57.2305
| 13> C 	 27.4198 	 30.142 	 55.6482
| 14> H 	 27.8553 	 30.8743 	 55.0322
| 15> H 	 26.6398 	 29.7852 	 54.996
| 16> C 	 28.3238 	 28.9409 	 56.0928
| 17> H 	 28.8791 	 29.1782 	 57.0328
| 18> H 	 27.6846 	 28.1024 	 56.3531
| 19> C 	 29.3247 	 28.504 	 55.0351
| 20> H 	 29.7701 	 27.5949 	 55.4581
| 21> H 	 28.8885 	 28.2231 	 54.05
| 22> H 	 30.116 	 29.2356 	 54.8331
| 23> S 	 27.0721 	 34.9024 	 59.6969
| 24> C 	 28.3548 	 35.5116 	 60.8406
| 25> C 	 29.2278 	 34.4739 	 61.033
| 26> C 	 29.0254 	 33.3114 	 60.1513
| 27> C 	 27.7949 	 33.3651 	 59.5041
| 28> H 	 30.0377 	 34.5528 	 61.7469
| 29> C 	 30.0365 	 32.1902 	 60.2537
| 30> H 	 29.5925 	 31.2905 	 59.6852
| 31> H 	 29.9901 	 32.0515 	 61.4083
| 32> C 	 31.502 	 32.4335 	 59.7484
| 33> H 	 32.1062 	 31.5263 	 59.7792
| 34> H 	 31.9174 	 33.0637 	 60.4926
| 35> C 	 31.6471 	 33.1548 	 58.3747
| 36> H 	 31.0112 	 34.0369 	 58.3644
| 37> H 	 31.2041 	 32.4065 	 57.6679
| 38> H 	 32.6541 	 33.2998 	 57.9778
| 39> H 	 24.982 	 30.2567 	 56.9004
| 40> H 	 28.4271 	 36.4507 	 61.2409
| 41> *
| 42>
| 43>                          ****END OF INPUT****

CARTESIAN COORDINATES (ANGSTROEM)
---------------------------------
  S     25.604500   31.753200   58.785600
  C     25.758400   30.921200   57.317100
  C     26.990500   30.943300   56.831600
  C     27.870900   31.865400   57.461000
  C     27.219500   32.366700   58.604400
  H     28.973100   32.018500   57.230500
  C     27.419800   30.142000   55.648200
  H     27.855300   30.874300   55.032200
  H     26.639800   29.785200   54.996000
  C     28.323800   28.940900   56.092800
  H     28.879100   29.178200   57.032800
  H     27.684600   28.102400   56.353100
  C     29.324700   28.504000   55.035100
  H     29.770100   27.594900   55.458100
  H     28.888500   28.223100   54.050000
  H     30.116000   29.235600   54.833100
  S     27.072100   34.902400   59.696900
  C     28.354800   35.511600   60.840600
  C     29.227800   34.473900   61.033000
  C     29.025400   33.311400   60.151300
  C     27.794900   33.365100   59.504100
  H     30.037700   34.552800   61.746900
  C     30.036500   32.190200   60.253700
  H     29.592500   31.290500   59.685200
  H     29.990100   32.051500   61.408300
  C     31.502000   32.433500   59.748400
  H     32.106200   31.526300   59.779200
  H     31.917400   33.063700   60.492600
  C     31.647100   33.154800   58.374700
  H     31.011200   34.036900   58.364400
  H     31.204100   32.406500   57.667900
  H     32.654100   33.299800   57.977800
  H     24.982000   30.256700   56.900400
  H     28.427100   36.450700   61.240900

 Total Charge           Charge          ....    0
 Multiplicity           Mult            ....    1
 Number of Electrons    NEL             ....  134
 Basis Dimension        Dim             ....  322

ORBITAL ENERGIES
----------------

  NO   OCC          E(Eh)            E(eV)
   0   2.0000     -88.966647     -2420.9055
   1   2.0000     -88.961056     -2420.7534
   2   2.0000     -10.330545      -281.1084
   3   2.0000     -10.325024      -280.9582
   4   2.0000     -10.317939      -280.7654
   5   2.0000     -10.306239      -280.4470
   6   2.0000     -10.304612      -280.4028
   7   2.0000     -10.301562      -280.3198
   8   2.0000     -10.300570      -280.2928
   9   2.0000     -10.297021      -280.1962
  10   2.0000     -10.290793      -280.0267
  11   2.0000     -10.289900      -280.0024
  12   2.0000     -10.288883      -279.9747
  13   2.0000     -10.284060      -279.8435
  14   2.0000     -10.282454      -279.7998
  15   2.0000     -10.281068      -279.7621
  16   2.0000      -8.082687      -219.9411
  17   2.0000      -8.075631      -219.7491
  18   2.0000      -6.040995      -164.3838
  19   2.0000      -6.037162      -164.2795
  20   2.0000      -6.034409      -164.2046
  21   2.0000      -6.033437      -164.1782
  22   2.0000      -6.030090      -164.0871
  23   2.0000      -6.026151      -163.9799
  24   2.0000      -1.012707       -27.5572
  25   2.0000      -0.985849       -26.8263
  26   2.0000      -0.911641       -24.8070
  27   2.0000      -0.901058       -24.5190
  28   2.0000      -0.872211       -23.7341
  29   2.0000      -0.853677       -23.2297
  30   2.0000      -0.841917       -22.9097
  31   2.0000      -0.818248       -22.2657
  32   2.0000      -0.779701       -21.2167
  33   2.0000      -0.768420       -20.9098
  34   2.0000      -0.709680       -19.3114
  35   2.0000      -0.700020       -19.0485
  36   2.0000      -0.695721       -18.9315
  37   2.0000      -0.662317       -18.0226
  38   2.0000      -0.638478       -17.3739
  39   2.0000      -0.619445       -16.8560
  40   2.0000      -0.587950       -15.9989
  41   2.0000      -0.569640       -15.5007
  42   2.0000      -0.552824       -15.0431
  43   2.0000      -0.552603       -15.0371
  44   2.0000      -0.543437       -14.7877
  45   2.0000      -0.532277       -14.4840
  46   2.0000      -0.519056       -14.1242
  47   2.0000      -0.509190       -13.8558
  48   2.0000      -0.504248       -13.7213
  49   2.0000      -0.499695       -13.5974
  50   2.0000      -0.488714       -13.2986
  51   2.0000      -0.480575       -13.0771
  52   2.0000      -0.472192       -12.8490
  53   2.0000      -0.461437       -12.5563
  54   2.0000      -0.458661       -12.4808
  55   2.0000      -0.455377       -12.3914
  56   2.0000      -0.446145       -12.1402
  57   2.0000      -0.442103       -12.0302
  58   2.0000      -0.435725       -11.8567
  59   2.0000      -0.423836       -11.5332
  60   2.0000      -0.413566       -11.2537
  61   2.0000      -0.409301       -11.1377
  62   2.0000      -0.406899       -11.0723
  63   2.0000      -0.348533        -9.4841
  64   2.0000      -0.330819        -9.0020
  65   2.0000      -0.320828        -8.7302
  66   2.0000      -0.296239        -8.0611
  67   0.0000       0.035606         0.9689
  68   0.0000       0.073997         2.0136
  69   0.0000       0.111214         3.0263
  70   0.0000       0.118100         3.2137
  71   0.0000       0.123859         3.3704

MULLIKEN ATOMIC CHARGES
-----------------------
   0 S :    0.131522
   1 C :   -0.124683
   2 C :   -0.099379
   3 C :    0.022628
   4 C :   -0.183801
   5 H :    0.033497
   6 C :    0.094907
   7 H :    0.013514
   8 H :    0.010862
   9 C :   -0.085467
  10 H :    0.039786
  11 H :    0.030296
  12 C :   -0.055597
  13 H :    0.031775
  14 H :    0.034254
  15 H :    0.037207
  16 S :    0.092772
  17 C :   -0.065251
  18 C :   -0.023040
  19 C :   -0.062256
  20 C :   -0.123111
  21 H :    0.023382
  22 C :   -0.026897
  23 H :    0.045059
  24 H :    0.063062
  25 C :   -0.041878
  26 H :    0.036170
  27 H :    0.013200
  28 C :   -0.072772
  29 H :    0.057625
  30 H :    0.028512
  31 H :    0.044818
  32 H :    0.050198
  33 H :    0.029088
Sum of atomic charges:    0.0000000

LOEWDIN ATOMIC CHARGES
----------------------
   0 S :    0.433832
   1 C :   -0.219690
   2 C :   -0.071922
   3 C :   -0.062294
   4 C :   -0.193931
   5 H :    0.044193
   6 C :   -0.030156
   7 H :    0.024690
   8 H :    0.027115
   9 C :   -0.037974
  10 H :    0.028422
  11 H :    0.025816
  12 C :   -0.070089
  13 H :    0.028265
  14 H :    0.026228
  15 H :    0.024339
  16 S :    0.388704
  17 C :   -0.150948
  18 C :   -0.064150
  19 C :   -0.068569
  20 C :   -0.215727
  21 H :    0.028709
  22 C :   -0.045038
  23 H :    0.034634
  24 H :    0.050682
  25 C :   -0.040741
  26 H :    0.027206
  27 H :    0.013438
  28 C :   -0.068706
  29 H :    0.030103
  30 H :    0.024620
  31 H :    0.029698
  32 H :    0.034693
  33 H :    0.014547

  Mayer bond orders larger than 0.100000
B(  0-S ,  1-C ) :   1.1268 B(  0-S ,  4-C ) :   1.1816 B(  1-C ,  2-C ) :   1.6482
B(  1-C , 32-H ) :   0.9572 B(  2-C ,  3-C ) :   1.2355 B(  2-C ,  6-C ) :   1.0224
B(  3-C ,  4-C ) :   1.5509 B(  3-C ,  5-H ) :   0.9798 B(  4-C , 20-C ) :   1.0214
B(  6-C ,  7-H ) :   0.9454 B(  6-C ,  8-H ) :   0.9402 B(  6-C ,  9-C ) :   1.0315
B(  9-C , 10-H ) :   0.9644 B(  9-C , 11-H ) :   0.9542 B(  9-C , 12-C ) :   1.0801
B( 12-C , 13-H ) :   0.9728 B( 12-C , 14-H ) :   0.9737 B( 12-C , 15-H ) :   0.9778
B( 16-S , 17-C ) :   1.1185 B( 16-S , 20-C ) :   1.1447 B( 17-C , 18-C ) :   1.6365
B( 17-C , 33-H ) :   0.9852 B( 18-C , 19-C ) :   1.2028 B( 18-C , 21-H ) :   0.9855
B( 19-C , 20-C ) :   1.6013 B( 19-C , 22-C ) :   1.0310 B( 22-C , 23-H ) :   0.9362
B( 22-C , 24-H ) :   0.9466 B( 22-C , 25-C ) :   1.0518 B( 25-C , 26-H ) :   0.9593
B( 25-C , 27-H ) :   0.9528 B( 25-C , 28-C ) :   1.0737 B( 28-C , 29-H ) :   0.9716
B( 28-C , 30-H ) :   0.9706 B( 28-C , 31-H ) :   0.9715

Dispersion correction           -0.015140599
FINAL SINGLE POINT ENERGY     -1339.864432747666

DIPOLE MOMENT
-------------
                                X             Y             Z
Electronic contribution:    -23.04529      16.01784      12.49132
Nuclear contribution   :     23.66448     -16.38950     -12.63730
                        -----------------------------------------
Total Dipole Moment    :      0.61919      -0.37166      -0.14598
                        -----------------------------------------
Magnitude (a.u.)       :      0.73678
Magnitude (Debye)      :      1.87274

Rotational constants in cm-1:     0.018574     0.009545     0.006872
Rotational constants in MHz :   556.846412   286.152657   206.025681

                             ****ORCA TERMINATED NORMALLY****
TOTAL RUN TIME: 0 days 0 hours 0 minutes 36 seconds 65 msec
