                         Program Version 4.2.1 -  RELEASE  -
|  1> ! wB97X-D3 SP def2-SVP
|  2> %pal
|  3> nprocs 16
|  4> end
|  5>
|  6> * xyz 0 1
|  7> S 	 -26.5599 	 55.6481 	 111.779
|  8> C 	 -27.6473 	 54.4025 	 112.335
|  9> C 	 -28.6333 	 54.9599 	 113.126
| 10> C 	 -28.5491 	 56.3655 	 113.144
| 11> C 	 -27.4917 	 56.9352 	 112.462
| 12> H 	 -29.3075 	 56.9819 	 113.566
| 13> C 	 -29.6334 	 54.2378 	 113.908
| 14> H 	 -29.9267 	 53.338 	 113.363
| 15> H 	 -30.5761 	 54.7516 	 113.95
| 16> C 	 -29.2278 	 53.8479 	 115.359
| 17> H 	 -30.0039 	 53.2814 	 115.745
| 18> H 	 -28.3474 	 53.1327 	 115.39
| 19> C 	 -28.8452 	 55.042 	 116.212
| 20> H 	 -29.5861 	 55.8173 	 116.271
| 21> H 	 -28.4675 	 54.6268 	 117.149
| 22> H 	 -27.9769 	 55.5311 	 115.716
| 23> S 	 -26.9886 	 59.0402 	 110.942
| 24> C 	 -26.7323 	 60.604 	 111.715
| 25> C 	 -26.4867 	 60.5074 	 113.072
| 26> C 	 -26.7442 	 59.1811 	 113.529
| 27> C 	 -27.0582 	 58.3328 	 112.485
| 28> H 	 -26.211 	 61.3526 	 113.643
| 29> C 	 -26.8646 	 58.7905 	 115.03
| 30> H 	 -27.6822 	 58.114 	 115.099
| 31> H 	 -27.0931 	 59.7458 	 115.469
| 32> C 	 -25.6085 	 58.2248 	 115.695
| 33> H 	 -25.7161 	 57.8202 	 116.741
| 34> H 	 -24.8496 	 58.9758 	 115.727
| 35> C 	 -25.0489 	 57.0041 	 115.014
| 36> H 	 -25.7084 	 56.1717 	 114.985
| 37> H 	 -24.113 	 56.7805 	 115.518
| 38> H 	 -24.8031 	 57.0592 	 113.92
| 39> H 	 -27.4763 	 53.3484 	 112.047
| 40> H 	 -26.4776 	 61.5569 	 111.305
| 41> *
| 42>
| 43>                          ****END OF INPUT****

CARTESIAN COORDINATES (ANGSTROEM)
---------------------------------
  S    -26.559900   55.648100  111.779000
  C    -27.647300   54.402500  112.335000
  C    -28.633300   54.959900  113.126000
  C    -28.549100   56.365500  113.144000
  C    -27.491700   56.935200  112.462000
  H    -29.307500   56.981900  113.566000
  C    -29.633400   54.237800  113.908000
  H    -29.926700   53.338000  113.363000
  H    -30.576100   54.751600  113.950000
  C    -29.227800   53.847900  115.359000
  H    -30.003900   53.281400  115.745000
  H    -28.347400   53.132700  115.390000
  C    -28.845200   55.042000  116.212000
  H    -29.586100   55.817300  116.271000
  H    -28.467500   54.626800  117.149000
  H    -27.976900   55.531100  115.716000
  S    -26.988600   59.040200  110.942000
  C    -26.732300   60.604000  111.715000
  C    -26.486700   60.507400  113.072000
  C    -26.744200   59.181100  113.529000
  C    -27.058200   58.332800  112.485000
  H    -26.211000   61.352600  113.643000
  C    -26.864600   58.790500  115.030000
  H    -27.682200   58.114000  115.099000
  H    -27.093100   59.745800  115.469000
  C    -25.608500   58.224800  115.695000
  H    -25.716100   57.820200  116.741000
  H    -24.849600   58.975800  115.727000
  C    -25.048900   57.004100  115.014000
  H    -25.708400   56.171700  114.985000
  H    -24.113000   56.780500  115.518000
  H    -24.803100   57.059200  113.920000
  H    -27.476300   53.348400  112.047000
  H    -26.477600   61.556900  111.305000

 Total Charge           Charge          ....    0
 Multiplicity           Mult            ....    1
 Number of Electrons    NEL             ....  134
 Basis Dimension        Dim             ....  322

ORBITAL ENERGIES
----------------

  NO   OCC          E(Eh)            E(eV)
   0   2.0000     -88.969523     -2420.9838
   1   2.0000     -88.964989     -2420.8604
   2   2.0000     -10.325876      -280.9814
   3   2.0000     -10.321334      -280.8578
   4   2.0000     -10.317057      -280.7414
   5   2.0000     -10.313940      -280.6566
   6   2.0000     -10.303822      -280.3812
   7   2.0000     -10.296759      -280.1891
   8   2.0000     -10.292667      -280.0777
   9   2.0000     -10.287991      -279.9505
  10   2.0000     -10.287446      -279.9356
  11   2.0000     -10.286675      -279.9147
  12   2.0000     -10.285813      -279.8912
  13   2.0000     -10.282837      -279.8102
  14   2.0000     -10.276606      -279.6407
  15   2.0000     -10.263927      -279.2957
  16   2.0000      -8.084783      -219.9981
  17   2.0000      -8.079984      -219.8675
  18   2.0000      -6.043253      -164.4453
  19   2.0000      -6.039295      -164.3376
  20   2.0000      -6.038446      -164.3145
  21   2.0000      -6.035459      -164.2332
  22   2.0000      -6.034249      -164.2003
  23   2.0000      -6.030981      -164.1113
  24   2.0000      -1.013670       -27.5834
  25   2.0000      -0.990611       -26.9559
  26   2.0000      -0.916713       -24.9450
  27   2.0000      -0.907585       -24.6966
  28   2.0000      -0.873101       -23.7583
  29   2.0000      -0.850244       -23.1363
  30   2.0000      -0.848950       -23.1011
  31   2.0000      -0.817534       -22.2462
  32   2.0000      -0.786506       -21.4019
  33   2.0000      -0.772686       -21.0258
  34   2.0000      -0.704576       -19.1725
  35   2.0000      -0.702570       -19.1179
  36   2.0000      -0.690217       -18.7818
  37   2.0000      -0.666541       -18.1375
  38   2.0000      -0.646022       -17.5792
  39   2.0000      -0.620370       -16.8811
  40   2.0000      -0.588488       -16.0136
  41   2.0000      -0.577670       -15.7192
  42   2.0000      -0.558802       -15.2058
  43   2.0000      -0.552710       -15.0400
  44   2.0000      -0.546436       -14.8693
  45   2.0000      -0.536370       -14.5954
  46   2.0000      -0.520071       -14.1519
  47   2.0000      -0.511450       -13.9173
  48   2.0000      -0.504508       -13.7284
  49   2.0000      -0.503569       -13.7028
  50   2.0000      -0.490975       -13.3601
  51   2.0000      -0.480948       -13.0873
  52   2.0000      -0.470812       -12.8115
  53   2.0000      -0.463749       -12.6193
  54   2.0000      -0.455917       -12.4061
  55   2.0000      -0.450996       -12.2722
  56   2.0000      -0.437192       -11.8966
  57   2.0000      -0.432397       -11.7661
  58   2.0000      -0.431875       -11.7519
  59   2.0000      -0.429511       -11.6876
  60   2.0000      -0.422929       -11.5085
  61   2.0000      -0.413911       -11.2631
  62   2.0000      -0.404894       -11.0177
  63   2.0000      -0.343953        -9.3594
  64   2.0000      -0.330684        -8.9984
  65   2.0000      -0.329252        -8.9594
  66   2.0000      -0.298954        -8.1350
  67   0.0000       0.035545         0.9672
  68   0.0000       0.064212         1.7473
  69   0.0000       0.112121         3.0510
  70   0.0000       0.119225         3.2443
  71   0.0000       0.129793         3.5319

MULLIKEN ATOMIC CHARGES
-----------------------
   0 S :    0.106827
   1 C :   -0.147307
   2 C :   -0.068120
   3 C :    0.020758
   4 C :   -0.137203
   5 H :    0.004466
   6 C :    0.065909
   7 H :    0.016066
   8 H :    0.016673
   9 C :   -0.049211
  10 H :    0.014543
  11 H :    0.027214
  12 C :   -0.049409
  13 H :    0.027869
  14 H :    0.037070
  15 H :    0.041225
  16 S :    0.130679
  17 C :   -0.061320
  18 C :   -0.058696
  19 C :   -0.043387
  20 C :   -0.188119
  21 H :    0.009936
  22 C :    0.139908
  23 H :    0.007315
  24 H :    0.011838
  25 C :   -0.044445
  26 H :    0.038205
  27 H :    0.014420
  28 C :   -0.060965
  29 H :    0.019422
  30 H :    0.027162
  31 H :    0.027210
  32 H :    0.063777
  33 H :    0.039692
Sum of atomic charges:    0.0000000

LOEWDIN ATOMIC CHARGES
----------------------
   0 S :    0.421423
   1 C :   -0.198380
   2 C :   -0.070357
   3 C :   -0.064832
   4 C :   -0.208328
   5 H :    0.025463
   6 C :   -0.036298
   7 H :    0.032725
   8 H :    0.028744
   9 C :   -0.031364
  10 H :    0.011873
  11 H :    0.029706
  12 C :   -0.065903
  13 H :    0.018961
  14 H :    0.030399
  15 H :    0.029303
  16 S :    0.434349
  17 C :   -0.183211
  18 C :   -0.061441
  19 C :   -0.049075
  20 C :   -0.217904
  21 H :    0.027527
  22 C :   -0.019905
  23 H :    0.023699
  24 H :    0.028197
  25 C :   -0.040587
  26 H :    0.035359
  27 H :    0.018331
  28 C :   -0.071249
  29 H :    0.014935
  30 H :    0.025698
  31 H :    0.022253
  32 H :    0.035383
  33 H :    0.024506

  Mayer bond orders larger than 0.100000
B(  0-S ,  1-C ) :   1.1544 B(  0-S ,  4-C ) :   1.1720 B(  1-C ,  2-C ) :   1.5599
B(  1-C ,  4-C ) :   0.1046 B(  1-C , 32-H ) :   0.9713 B(  2-C ,  3-C ) :   1.2685
B(  2-C ,  6-C ) :   1.0440 B(  3-C ,  4-C ) :   1.5512 B(  3-C ,  5-H ) :   1.0032
B(  4-C , 20-C ) :   0.9937 B(  6-C ,  7-H ) :   0.9297 B(  6-C ,  8-H ) :   0.9367
B(  6-C ,  9-C ) :   1.0719 B(  9-C , 10-H ) :   0.9553 B(  9-C , 11-H ) :   0.9544
B(  9-C , 12-C ) :   1.0819 B( 12-C , 13-H ) :   0.9731 B( 12-C , 14-H ) :   0.9675
B( 12-C , 15-H ) :   0.9678 B( 16-S , 17-C ) :   1.1473 B( 16-S , 20-C ) :   1.1616
B( 17-C , 18-C ) :   1.6354 B( 17-C , 33-H ) :   0.9636 B( 18-C , 19-C ) :   1.2395
B( 18-C , 21-H ) :   0.9913 B( 19-C , 20-C ) :   1.6021 B( 19-C , 22-C ) :   1.0116
B( 22-C , 23-H ) :   0.9366 B( 22-C , 24-H ) :   0.9292 B( 22-C , 25-C ) :   1.0803
B( 25-C , 26-H ) :   0.9545 B( 25-C , 27-H ) :   0.9519 B( 25-C , 28-C ) :   1.0816
B( 28-C , 29-H ) :   0.9733 B( 28-C , 30-H ) :   0.9709 B( 28-C , 31-H ) :   0.9648

Dispersion correction           -0.017445929
FINAL SINGLE POINT ENERGY     -1339.877955296111

DIPOLE MOMENT
-------------
                                X             Y             Z
Electronic contribution:      2.73419       8.42717     -25.16212
Nuclear contribution   :     -2.92581      -8.48203      25.72043
                        -----------------------------------------
Total Dipole Moment    :     -0.19161      -0.05487       0.55830
                        -----------------------------------------
Magnitude (a.u.)       :      0.59282
Magnitude (Debye)      :      1.50682

Rotational constants in cm-1:     0.020855     0.010369     0.008421
Rotational constants in MHz :   625.228348   310.867818   252.441643

                             ****ORCA TERMINATED NORMALLY****
TOTAL RUN TIME: 0 days 0 hours 0 minutes 34 seconds 878 msec
