                         Program Version 4.2.1 -  RELEASE  -
|  1> ! wB97X-D3 SP def2-SVP
|  2> %pal
|  3> nprocs 16
|  4> end
|  5>
|  6> * xyz 0 1
|  7> S 	 49.1733 	 20.4034 	 89.2677
|  8> C 	 47.8823 	 21.4584 	 88.9358
|  9> C 	 48.0746 	 22.2243 	 87.8001
| 10> C 	 49.3239 	 21.9283 	 87.1866
| 11> C 	 50.098 	 21.05 	 87.8947
| 12> H 	 49.704 	 22.3563 	 86.2678
| 13> C 	 47.03 	 23.2828 	 87.3775
| 14> H 	 46.2686 	 23.2411 	 88.0777
| 15> H 	 46.6542 	 22.817 	 86.4855
| 16> C 	 47.5776 	 24.7053 	 87.0696
| 17> H 	 48.3963 	 24.9604 	 87.7449
| 18> H 	 47.8984 	 24.7241 	 86.0371
| 19> C 	 46.4827 	 25.8366 	 87.0437
| 20> H 	 45.98 	 26.0012 	 88.0346
| 21> H 	 47.0261 	 26.676 	 86.6807
| 22> H 	 45.7375 	 25.5539 	 86.3733
| 23> S 	 52.7519 	 21.0756 	 88.5592
| 24> C 	 53.7167 	 19.7276 	 87.8184
| 25> C 	 53.0381 	 19.2531 	 86.6887
| 26> C 	 51.795 	 19.8164 	 86.4849
| 27> C 	 51.4134 	 20.5936 	 87.5458
| 28> H 	 53.4089 	 18.5009 	 86.0103
| 29> C 	 50.9388 	 19.293 	 85.3572
| 30> H 	 51.7886 	 19.3535 	 84.6744
| 31> H 	 50.161 	 20.0442 	 85.3031
| 32> C 	 50.4406 	 17.8931 	 85.6555
| 33> H 	 50.1707 	 17.8213 	 86.7025
| 34> H 	 51.2443 	 17.1948 	 85.4614
| 35> C 	 49.1536 	 17.5876 	 84.8809
| 36> H 	 49.3556 	 17.1454 	 83.8781
| 37> H 	 48.6004 	 18.4982 	 84.7504
| 38> H 	 48.5659 	 16.8385 	 85.3195
| 39> H 	 46.9449 	 21.489 	 89.5235
| 40> H 	 54.6645 	 19.431 	 88.235
| 41> *
| 42>
| 43>                          ****END OF INPUT****

CARTESIAN COORDINATES (ANGSTROEM)
---------------------------------
  S     49.173300   20.403400   89.267700
  C     47.882300   21.458400   88.935800
  C     48.074600   22.224300   87.800100
  C     49.323900   21.928300   87.186600
  C     50.098000   21.050000   87.894700
  H     49.704000   22.356300   86.267800
  C     47.030000   23.282800   87.377500
  H     46.268600   23.241100   88.077700
  H     46.654200   22.817000   86.485500
  C     47.577600   24.705300   87.069600
  H     48.396300   24.960400   87.744900
  H     47.898400   24.724100   86.037100
  C     46.482700   25.836600   87.043700
  H     45.980000   26.001200   88.034600
  H     47.026100   26.676000   86.680700
  H     45.737500   25.553900   86.373300
  S     52.751900   21.075600   88.559200
  C     53.716700   19.727600   87.818400
  C     53.038100   19.253100   86.688700
  C     51.795000   19.816400   86.484900
  C     51.413400   20.593600   87.545800
  H     53.408900   18.500900   86.010300
  C     50.938800   19.293000   85.357200
  H     51.788600   19.353500   84.674400
  H     50.161000   20.044200   85.303100
  C     50.440600   17.893100   85.655500
  H     50.170700   17.821300   86.702500
  H     51.244300   17.194800   85.461400
  C     49.153600   17.587600   84.880900
  H     49.355600   17.145400   83.878100
  H     48.600400   18.498200   84.750400
  H     48.565900   16.838500   85.319500
  H     46.944900   21.489000   89.523500
  H     54.664500   19.431000   88.235000

 Total Charge           Charge          ....    0
 Multiplicity           Mult            ....    1
 Number of Electrons    NEL             ....  134
 Basis Dimension        Dim             ....  322

ORBITAL ENERGIES
----------------

  NO   OCC          E(Eh)            E(eV)
   0   2.0000     -88.963873     -2420.8301
   1   2.0000     -88.961741     -2420.7720
   2   2.0000     -10.323069      -280.9050
   3   2.0000     -10.322104      -280.8787
   4   2.0000     -10.315711      -280.7048
   5   2.0000     -10.309662      -280.5402
   6   2.0000     -10.298342      -280.2321
   7   2.0000     -10.292491      -280.0729
   8   2.0000     -10.291423      -280.0438
   9   2.0000     -10.289856      -280.0012
  10   2.0000     -10.289584      -279.9938
  11   2.0000     -10.287358      -279.9332
  12   2.0000     -10.287094      -279.9260
  13   2.0000     -10.282739      -279.8075
  14   2.0000     -10.277283      -279.6591
  15   2.0000     -10.270480      -279.4740
  16   2.0000      -8.079099      -219.8435
  17   2.0000      -8.075890      -219.7561
  18   2.0000      -6.037504      -164.2888
  19   2.0000      -6.034358      -164.2032
  20   2.0000      -6.033522      -164.1805
  21   2.0000      -6.030686      -164.1033
  22   2.0000      -6.029944      -164.0831
  23   2.0000      -6.026526      -163.9901
  24   2.0000      -1.008301       -27.4373
  25   2.0000      -0.985571       -26.8188
  26   2.0000      -0.914815       -24.8934
  27   2.0000      -0.905299       -24.6344
  28   2.0000      -0.869914       -23.6716
  29   2.0000      -0.853063       -23.2130
  30   2.0000      -0.848989       -23.1022
  31   2.0000      -0.814042       -22.1512
  32   2.0000      -0.782719       -21.2989
  33   2.0000      -0.767598       -20.8874
  34   2.0000      -0.710396       -19.3309
  35   2.0000      -0.701620       -19.0921
  36   2.0000      -0.690762       -18.7966
  37   2.0000      -0.668718       -18.1968
  38   2.0000      -0.643595       -17.5131
  39   2.0000      -0.615461       -16.7476
  40   2.0000      -0.594488       -16.1768
  41   2.0000      -0.570072       -15.5124
  42   2.0000      -0.569466       -15.4960
  43   2.0000      -0.556838       -15.1523
  44   2.0000      -0.534011       -14.5312
  45   2.0000      -0.530808       -14.4440
  46   2.0000      -0.516291       -14.0490
  47   2.0000      -0.511426       -13.9166
  48   2.0000      -0.506829       -13.7915
  49   2.0000      -0.494578       -13.4582
  50   2.0000      -0.492081       -13.3902
  51   2.0000      -0.477123       -12.9832
  52   2.0000      -0.473333       -12.8800
  53   2.0000      -0.464108       -12.6290
  54   2.0000      -0.457645       -12.4532
  55   2.0000      -0.447801       -12.1853
  56   2.0000      -0.441303       -12.0085
  57   2.0000      -0.439847       -11.9689
  58   2.0000      -0.437676       -11.9098
  59   2.0000      -0.431623       -11.7451
  60   2.0000      -0.425457       -11.5773
  61   2.0000      -0.414797       -11.2872
  62   2.0000      -0.403783       -10.9875
  63   2.0000      -0.339503        -9.2383
  64   2.0000      -0.331378        -9.0172
  65   2.0000      -0.321112        -8.7379
  66   2.0000      -0.293331        -7.9820
  67   0.0000       0.031687         0.8623
  68   0.0000       0.065023         1.7694
  69   0.0000       0.103813         2.8249
  70   0.0000       0.121819         3.3149
  71   0.0000       0.139447         3.7946

MULLIKEN ATOMIC CHARGES
-----------------------
   0 S :    0.126759
   1 C :   -0.142148
   2 C :   -0.119679
   3 C :    0.044683
   4 C :   -0.183724
   5 H :    0.012940
   6 C :    0.143715
   7 H :   -0.011642
   8 H :    0.025840
   9 C :   -0.098330
  10 H :    0.046888
  11 H :    0.027213
  12 C :   -0.035764
  13 H :    0.042234
  14 H :    0.034771
  15 H :    0.017954
  16 S :    0.103800
  17 C :   -0.096579
  18 C :   -0.036288
  19 C :   -0.031351
  20 C :   -0.213548
  21 H :    0.013503
  22 C :    0.108070
  23 H :    0.036815
  24 H :    0.010462
  25 C :   -0.054183
  26 H :    0.035447
  27 H :    0.025254
  28 C :   -0.022388
  29 H :    0.025390
  30 H :    0.029091
  31 H :    0.020355
  32 H :    0.058078
  33 H :    0.056362
Sum of atomic charges:   -0.0000000

LOEWDIN ATOMIC CHARGES
----------------------
   0 S :    0.414820
   1 C :   -0.219767
   2 C :   -0.065981
   3 C :   -0.060549
   4 C :   -0.193139
   5 H :    0.031289
   6 C :   -0.023135
   7 H :    0.015289
   8 H :    0.032951
   9 C :   -0.035775
  10 H :    0.025940
  11 H :    0.024616
  12 C :   -0.055829
  13 H :    0.028850
  14 H :    0.025320
  15 H :    0.015090
  16 S :    0.378495
  17 C :   -0.158942
  18 C :   -0.067933
  19 C :   -0.058554
  20 C :   -0.207738
  21 H :    0.029541
  22 C :   -0.026385
  23 H :    0.039471
  24 H :    0.027746
  25 C :   -0.034426
  26 H :    0.027836
  27 H :    0.023564
  28 C :   -0.060480
  29 H :    0.028155
  30 H :    0.023869
  31 H :    0.018210
  32 H :    0.033694
  33 H :    0.023883

  Mayer bond orders larger than 0.100000
B(  0-S ,  1-C ) :   1.1519 B(  0-S ,  4-C ) :   1.1415 B(  1-C ,  2-C ) :   1.6140
B(  1-C , 32-H ) :   0.9586 B(  2-C ,  3-C ) :   1.2385 B(  2-C ,  6-C ) :   1.0134
B(  3-C ,  4-C ) :   1.5875 B(  3-C ,  5-H ) :   0.9944 B(  4-C , 20-C ) :   1.0457
B(  6-C ,  7-H ) :   0.9414 B(  6-C ,  8-H ) :   0.9270 B(  6-C ,  9-C ) :   1.0540
B(  9-C , 10-H ) :   0.9687 B(  9-C , 11-H ) :   0.9514 B(  9-C , 12-C ) :   1.0819
B( 12-C , 13-H ) :   0.9783 B( 12-C , 14-H ) :   0.9777 B( 12-C , 15-H ) :   0.9758
B( 16-S , 17-C ) :   1.1368 B( 16-S , 20-C ) :   1.1503 B( 17-C , 18-C ) :   1.5824
B( 17-C , 20-C ) :   0.1113 B( 17-C , 33-H ) :   0.9771 B( 18-C , 19-C ) :   1.2542
B( 18-C , 21-H ) :   0.9881 B( 19-C , 20-C ) :   1.5753 B( 19-C , 22-C ) :   1.0056
B( 22-C , 23-H ) :   0.9284 B( 22-C , 24-H ) :   0.9232 B( 22-C , 25-C ) :   1.0753
B( 25-C , 26-H ) :   0.9605 B( 25-C , 27-H ) :   0.9487 B( 25-C , 28-C ) :   1.0854
B( 28-C , 29-H ) :   0.9726 B( 28-C , 30-H ) :   0.9782 B( 28-C , 31-H ) :   0.9756

Dispersion correction           -0.014263827
FINAL SINGLE POINT ENERGY     -1339.852388735700

DIPOLE MOMENT
-------------
                                X             Y             Z
Electronic contribution:     16.60732      -4.68472      16.72852
Nuclear contribution   :    -16.92589       4.65760     -17.23331
                        -----------------------------------------
Total Dipole Moment    :     -0.31857      -0.02712      -0.50480
                        -----------------------------------------
Magnitude (a.u.)       :      0.59753
Magnitude (Debye)      :      1.51881

Rotational constants in cm-1:     0.019042     0.007949     0.006922
Rotational constants in MHz :   570.858309   238.304574   207.512607

                             ****ORCA TERMINATED NORMALLY****
TOTAL RUN TIME: 0 days 0 hours 0 minutes 29 seconds 619 msec
