                         Program Version 4.2.1 -  RELEASE  -
|  1> ! wB97X-D3 SP def2-SVP
|  2> %pal
|  3> nprocs 16
|  4> end
|  5>
|  6> * xyz 0 1
|  7> S 	 0.522441 	 -22.3891 	 89.2626
|  8> C 	 -0.821891 	 -21.7406 	 88.4104
|  9> C 	 -0.488727 	 -20.6587 	 87.5851
| 10> C 	 0.896061 	 -20.2869 	 87.7207
| 11> C 	 1.59251 	 -21.1542 	 88.5515
| 12> H 	 1.38384 	 -19.4893 	 87.2717
| 13> C 	 -1.5673 	 -19.77 	 87.0376
| 14> H 	 -2.11022 	 -19.3604 	 87.8747
| 15> H 	 -2.21252 	 -20.4912 	 86.4943
| 16> C 	 -1.20479 	 -18.6673 	 86.1179
| 17> H 	 -2.22253 	 -18.1627 	 85.8389
| 18> H 	 -0.53181 	 -17.8887 	 86.6421
| 19> C 	 -0.667705 	 -18.8511 	 84.6353
| 20> H 	 0.319826 	 -18.4332 	 84.486
| 21> H 	 -0.675244 	 -19.8752 	 84.3463
| 22> H 	 -1.20296 	 -18.2476 	 83.8525
| 23> S 	 2.86287 	 -20.622 	 90.8239
| 24> C 	 4.56788 	 -20.4114 	 90.9837
| 25> C 	 5.13467 	 -20.5493 	 89.7665
| 26> C 	 4.20929 	 -20.4933 	 88.6558
| 27> C 	 2.92203 	 -20.8864 	 89.1096
| 28> H 	 6.13769 	 -20.6527 	 89.7746
| 29> C 	 4.5615 	 -20.5638 	 87.1699
| 30> H 	 4.06327 	 -21.3837 	 86.6421
| 31> H 	 5.63606 	 -20.8732 	 87.2271
| 32> C 	 4.52924 	 -19.2576 	 86.2891
| 33> H 	 5.15144 	 -18.493 	 86.7641
| 34> H 	 3.47532 	 -18.8956 	 86.3016
| 35> C 	 5.04089 	 -19.7571 	 84.8385
| 36> H 	 4.64889 	 -20.7142 	 84.4233
| 37> H 	 6.12082 	 -19.8817 	 84.9478
| 38> H 	 4.95968 	 -18.9744 	 84.0908
| 39> H 	 -1.81764 	 -21.9982 	 88.6751
| 40> H 	 5.02745 	 -20.5198 	 91.9258
| 41> *
| 42>
| 43>                          ****END OF INPUT****

CARTESIAN COORDINATES (ANGSTROEM)
---------------------------------
  S      0.522441  -22.389100   89.262600
  C     -0.821891  -21.740600   88.410400
  C     -0.488727  -20.658700   87.585100
  C      0.896061  -20.286900   87.720700
  C      1.592510  -21.154200   88.551500
  H      1.383840  -19.489300   87.271700
  C     -1.567300  -19.770000   87.037600
  H     -2.110220  -19.360400   87.874700
  H     -2.212520  -20.491200   86.494300
  C     -1.204790  -18.667300   86.117900
  H     -2.222530  -18.162700   85.838900
  H     -0.531810  -17.888700   86.642100
  C     -0.667705  -18.851100   84.635300
  H      0.319826  -18.433200   84.486000
  H     -0.675244  -19.875200   84.346300
  H     -1.202960  -18.247600   83.852500
  S      2.862870  -20.622000   90.823900
  C      4.567880  -20.411400   90.983700
  C      5.134670  -20.549300   89.766500
  C      4.209290  -20.493300   88.655800
  C      2.922030  -20.886400   89.109600
  H      6.137690  -20.652700   89.774600
  C      4.561500  -20.563800   87.169900
  H      4.063270  -21.383700   86.642100
  H      5.636060  -20.873200   87.227100
  C      4.529240  -19.257600   86.289100
  H      5.151440  -18.493000   86.764100
  H      3.475320  -18.895600   86.301600
  C      5.040890  -19.757100   84.838500
  H      4.648890  -20.714200   84.423300
  H      6.120820  -19.881700   84.947800
  H      4.959680  -18.974400   84.090800
  H     -1.817640  -21.998200   88.675100
  H      5.027450  -20.519800   91.925800

 Total Charge           Charge          ....    0
 Multiplicity           Mult            ....    1
 Number of Electrons    NEL             ....  134
 Basis Dimension        Dim             ....  322

ORBITAL ENERGIES
----------------

  NO   OCC          E(Eh)            E(eV)
   0   2.0000     -88.970798     -2421.0185
   1   2.0000     -88.953570     -2420.5497
   2   2.0000     -10.332377      -281.1583
   3   2.0000     -10.327477      -281.0249
   4   2.0000     -10.311415      -280.5879
   5   2.0000     -10.308189      -280.5001
   6   2.0000     -10.303152      -280.3630
   7   2.0000     -10.302448      -280.3439
   8   2.0000     -10.302123      -280.3350
   9   2.0000     -10.300795      -280.2989
  10   2.0000     -10.295219      -280.1472
  11   2.0000     -10.293864      -280.1103
  12   2.0000     -10.292893      -280.0839
  13   2.0000     -10.287746      -279.9438
  14   2.0000     -10.286024      -279.8969
  15   2.0000     -10.282123      -279.7908
  16   2.0000      -8.085273      -220.0115
  17   2.0000      -8.069664      -219.5867
  18   2.0000      -6.043720      -164.4580
  19   2.0000      -6.039765      -164.3504
  20   2.0000      -6.036166      -164.2524
  21   2.0000      -6.028105      -164.0331
  22   2.0000      -6.023847      -163.9172
  23   2.0000      -6.020509      -163.8264
  24   2.0000      -1.007628       -27.4190
  25   2.0000      -0.985268       -26.8105
  26   2.0000      -0.913133       -24.8476
  27   2.0000      -0.896949       -24.4072
  28   2.0000      -0.872354       -23.7380
  29   2.0000      -0.847812       -23.0701
  30   2.0000      -0.839779       -22.8516
  31   2.0000      -0.820772       -22.3343
  32   2.0000      -0.783990       -21.3334
  33   2.0000      -0.767335       -20.8802
  34   2.0000      -0.712065       -19.3763
  35   2.0000      -0.698937       -19.0191
  36   2.0000      -0.686317       -18.6756
  37   2.0000      -0.660687       -17.9782
  38   2.0000      -0.643834       -17.5196
  39   2.0000      -0.623753       -16.9732
  40   2.0000      -0.594137       -16.1673
  41   2.0000      -0.569242       -15.4899
  42   2.0000      -0.563542       -15.3348
  43   2.0000      -0.553795       -15.0695
  44   2.0000      -0.534544       -14.5457
  45   2.0000      -0.519949       -14.1485
  46   2.0000      -0.517539       -14.0830
  47   2.0000      -0.513487       -13.9727
  48   2.0000      -0.501994       -13.6599
  49   2.0000      -0.499406       -13.5895
  50   2.0000      -0.493157       -13.4195
  51   2.0000      -0.487597       -13.2682
  52   2.0000      -0.470718       -12.8089
  53   2.0000      -0.464050       -12.6274
  54   2.0000      -0.454714       -12.3734
  55   2.0000      -0.448349       -12.2002
  56   2.0000      -0.447171       -12.1681
  57   2.0000      -0.442459       -12.0399
  58   2.0000      -0.433907       -11.8072
  59   2.0000      -0.424508       -11.5514
  60   2.0000      -0.420457       -11.4412
  61   2.0000      -0.403979       -10.9928
  62   2.0000      -0.396484       -10.7889
  63   2.0000      -0.348844        -9.4925
  64   2.0000      -0.327612        -8.9148
  65   2.0000      -0.320006        -8.7078
  66   2.0000      -0.291657        -7.9364
  67   0.0000       0.023480         0.6389
  68   0.0000       0.070037         1.9058
  69   0.0000       0.112965         3.0739
  70   0.0000       0.120709         3.2847
  71   0.0000       0.123682         3.3656

MULLIKEN ATOMIC CHARGES
-----------------------
   0 S :    0.125103
   1 C :   -0.119040
   2 C :   -0.075877
   3 C :    0.062438
   4 C :   -0.137150
   5 H :   -0.019080
   6 C :    0.083312
   7 H :    0.050534
   8 H :    0.033857
   9 C :   -0.167815
  10 H :    0.048699
  11 H :    0.049018
  12 C :   -0.041437
  13 H :    0.024153
  14 H :    0.031903
  15 H :    0.035546
  16 S :    0.078903
  17 C :   -0.071849
  18 C :    0.004289
  19 C :   -0.008604
  20 C :   -0.148349
  21 H :   -0.019970
  22 C :   -0.032496
  23 H :    0.041309
  24 H :    0.019338
  25 C :   -0.063797
  26 H :    0.041508
  27 H :    0.039314
  28 C :   -0.067669
  29 H :    0.049346
  30 H :    0.030684
  31 H :    0.034158
  32 H :    0.041754
  33 H :    0.047968
Sum of atomic charges:   -0.0000000

LOEWDIN ATOMIC CHARGES
----------------------
   0 S :    0.416655
   1 C :   -0.200480
   2 C :   -0.065280
   3 C :   -0.041673
   4 C :   -0.193795
   5 H :    0.019156
   6 C :   -0.042556
   7 H :    0.041479
   8 H :    0.038898
   9 C :   -0.062554
  10 H :    0.043078
  11 H :    0.031206
  12 C :   -0.074050
  13 H :    0.023508
  14 H :    0.021067
  15 H :    0.032632
  16 S :    0.412093
  17 C :   -0.191692
  18 C :   -0.056622
  19 C :   -0.064106
  20 C :   -0.190050
  21 H :    0.013284
  22 C :   -0.042692
  23 H :    0.031836
  24 H :    0.031338
  25 C :   -0.033209
  26 H :    0.027402
  27 H :    0.020163
  28 C :   -0.069956
  29 H :    0.032583
  30 H :    0.027326
  31 H :    0.022587
  32 H :    0.020921
  33 H :    0.021502

  Mayer bond orders larger than 0.100000
B(  0-S ,  1-C ) :   1.1581 B(  0-S ,  4-C ) :   1.1517 B(  1-C ,  2-C ) :   1.5866
B(  1-C , 32-H ) :   0.9740 B(  2-C ,  3-C ) :   1.2543 B(  2-C ,  6-C ) :   1.0086
B(  3-C ,  4-C ) :   1.5547 B(  3-C ,  5-H ) :   1.0028 B(  4-C , 20-C ) :   1.0268
B(  6-C ,  7-H ) :   0.9357 B(  6-C ,  8-H ) :   0.9309 B(  6-C ,  9-C ) :   1.1082
B(  9-C , 10-H ) :   0.9584 B(  9-C , 11-H ) :   0.9504 B(  9-C , 12-C ) :   1.0446
B( 12-C , 13-H ) :   0.9762 B( 12-C , 14-H ) :   0.9790 B( 12-C , 15-H ) :   0.9835
B( 16-S , 17-C ) :   1.1462 B( 16-S , 20-C ) :   1.1723 B( 17-C , 18-C ) :   1.6305
B( 17-C , 33-H ) :   0.9682 B( 18-C , 19-C ) :   1.2132 B( 18-C , 21-H ) :   1.0022
B( 19-C , 20-C ) :   1.5596 B( 19-C , 22-C ) :   1.0349 B( 22-C , 23-H ) :   0.9550
B( 22-C , 24-H ) :   0.9482 B( 22-C , 25-C ) :   1.0411 B( 25-C , 26-H ) :   0.9566
B( 25-C , 27-H ) :   0.9592 B( 25-C , 28-C ) :   1.0537 B( 28-C , 29-H ) :   0.9780
B( 28-C , 30-H ) :   0.9768 B( 28-C , 31-H ) :   0.9770

Dispersion correction           -0.013973783
FINAL SINGLE POINT ENERGY     -1339.833333196844

DIPOLE MOMENT
-------------
                                X             Y             Z
Electronic contribution:     -0.92692     -13.67793      27.38502
Nuclear contribution   :      0.90595      13.96611     -27.78130
                        -----------------------------------------
Total Dipole Moment    :     -0.02096       0.28819      -0.39628
                        -----------------------------------------
Magnitude (a.u.)       :      0.49043
Magnitude (Debye)      :      1.24658

Rotational constants in cm-1:     0.015453     0.010272     0.006921
Rotational constants in MHz :   463.273643   307.956988   207.499606

                             ****ORCA TERMINATED NORMALLY****
TOTAL RUN TIME: 0 days 0 hours 0 minutes 34 seconds 769 msec
