                         Program Version 4.2.1 -  RELEASE  -
|  1> ! wB97X-D3 SP def2-SVP
|  2> %pal
|  3> nprocs 16
|  4> end
|  5>
|  6> * xyz 0 1
|  7> S 	 -65.6886 	 54.2953 	 131.519
|  8> C 	 -65.1295 	 54.1179 	 133.154
|  9> C 	 -65.719 	 55.0945 	 133.928
| 10> C 	 -66.5825 	 56.0215 	 133.22
| 11> C 	 -66.8088 	 55.6006 	 131.952
| 12> H 	 -67.1143 	 56.8562 	 133.574
| 13> C 	 -65.4444 	 55.3335 	 135.419
| 14> H 	 -65.7959 	 56.3455 	 135.742
| 15> H 	 -64.3448 	 55.4125 	 135.694
| 16> C 	 -66.1784 	 54.2847 	 136.204
| 17> H 	 -67.2309 	 54.2479 	 135.751
| 18> H 	 -65.6857 	 53.3029 	 136.136
| 19> C 	 -66.2458 	 54.7968 	 137.7
| 20> H 	 -66.7594 	 54.1619 	 138.413
| 21> H 	 -65.2241 	 55.0691 	 138.017
| 22> H 	 -66.8918 	 55.6723 	 137.637
| 23> S 	 -68.5374 	 55.0714 	 129.877
| 24> C 	 -69.0966 	 56.3303 	 128.864
| 25> C 	 -68.9182 	 57.5638 	 129.399
| 26> C 	 -68.0719 	 57.497 	 130.585
| 27> C 	 -67.7534 	 56.1437 	 130.946
| 28> H 	 -69.224 	 58.4473 	 128.974
| 29> C 	 -67.5767 	 58.7473 	 131.283
| 30> H 	 -67.4495 	 59.4553 	 130.495
| 31> H 	 -66.7002 	 58.5731 	 131.765
| 32> C 	 -68.4871 	 59.5049 	 132.352
| 33> H 	 -67.7691 	 59.9843 	 133.053
| 34> H 	 -69.0525 	 58.7229 	 132.893
| 35> C 	 -69.6319 	 60.3157 	 131.728
| 36> H 	 -70.2127 	 59.6338 	 131.146
| 37> H 	 -69.342 	 61.0091 	 130.953
| 38> H 	 -70.4553 	 60.7877 	 132.275
| 39> H 	 -64.4546 	 53.4058 	 133.544
| 40> H 	 -69.5286 	 56.2256 	 127.871
| 41> *
| 42>
| 43>                          ****END OF INPUT****

CARTESIAN COORDINATES (ANGSTROEM)
---------------------------------
  S    -65.688600   54.295300  131.519000
  C    -65.129500   54.117900  133.154000
  C    -65.719000   55.094500  133.928000
  C    -66.582500   56.021500  133.220000
  C    -66.808800   55.600600  131.952000
  H    -67.114300   56.856200  133.574000
  C    -65.444400   55.333500  135.419000
  H    -65.795900   56.345500  135.742000
  H    -64.344800   55.412500  135.694000
  C    -66.178400   54.284700  136.204000
  H    -67.230900   54.247900  135.751000
  H    -65.685700   53.302900  136.136000
  C    -66.245800   54.796800  137.700000
  H    -66.759400   54.161900  138.413000
  H    -65.224100   55.069100  138.017000
  H    -66.891800   55.672300  137.637000
  S    -68.537400   55.071400  129.877000
  C    -69.096600   56.330300  128.864000
  C    -68.918200   57.563800  129.399000
  C    -68.071900   57.497000  130.585000
  C    -67.753400   56.143700  130.946000
  H    -69.224000   58.447300  128.974000
  C    -67.576700   58.747300  131.283000
  H    -67.449500   59.455300  130.495000
  H    -66.700200   58.573100  131.765000
  C    -68.487100   59.504900  132.352000
  H    -67.769100   59.984300  133.053000
  H    -69.052500   58.722900  132.893000
  C    -69.631900   60.315700  131.728000
  H    -70.212700   59.633800  131.146000
  H    -69.342000   61.009100  130.953000
  H    -70.455300   60.787700  132.275000
  H    -64.454600   53.405800  133.544000
  H    -69.528600   56.225600  127.871000

 Total Charge           Charge          ....    0
 Multiplicity           Mult            ....    1
 Number of Electrons    NEL             ....  134
 Basis Dimension        Dim             ....  322

ORBITAL ENERGIES
----------------

  NO   OCC          E(Eh)            E(eV)
   0   2.0000     -88.967875     -2420.9390
   1   2.0000     -88.964763     -2420.8543
   2   2.0000     -10.332410      -281.1592
   3   2.0000     -10.329561      -281.0816
   4   2.0000     -10.313732      -280.6509
   5   2.0000     -10.311835      -280.5993
   6   2.0000     -10.309694      -280.5410
   7   2.0000     -10.303317      -280.3675
   8   2.0000     -10.298718      -280.2424
   9   2.0000     -10.295311      -280.1497
  10   2.0000     -10.292289      -280.0674
  11   2.0000     -10.291674      -280.0507
  12   2.0000     -10.289841      -280.0008
  13   2.0000     -10.285605      -279.8855
  14   2.0000     -10.280736      -279.7530
  15   2.0000     -10.277240      -279.6579
  16   2.0000      -8.083940      -219.9752
  17   2.0000      -8.079380      -219.8511
  18   2.0000      -6.042319      -164.4199
  19   2.0000      -6.038136      -164.3060
  20   2.0000      -6.037981      -164.3018
  21   2.0000      -6.034870      -164.2172
  22   2.0000      -6.033924      -164.1914
  23   2.0000      -6.029993      -164.0845
  24   2.0000      -1.010350       -27.4930
  25   2.0000      -0.988848       -26.9079
  26   2.0000      -0.911397       -24.8004
  27   2.0000      -0.907505       -24.6945
  28   2.0000      -0.871915       -23.7260
  29   2.0000      -0.852344       -23.1934
  30   2.0000      -0.842193       -22.9172
  31   2.0000      -0.821128       -22.3440
  32   2.0000      -0.784489       -21.3470
  33   2.0000      -0.767257       -20.8781
  34   2.0000      -0.711313       -19.3558
  35   2.0000      -0.697005       -18.9665
  36   2.0000      -0.690227       -18.7820
  37   2.0000      -0.668492       -18.1906
  38   2.0000      -0.647845       -17.6288
  39   2.0000      -0.620310       -16.8795
  40   2.0000      -0.598445       -16.2845
  41   2.0000      -0.573856       -15.6154
  42   2.0000      -0.564647       -15.3648
  43   2.0000      -0.554294       -15.0831
  44   2.0000      -0.541524       -14.7356
  45   2.0000      -0.523868       -14.2552
  46   2.0000      -0.518224       -14.1016
  47   2.0000      -0.512973       -13.9587
  48   2.0000      -0.506632       -13.7862
  49   2.0000      -0.499706       -13.5977
  50   2.0000      -0.496808       -13.5188
  51   2.0000      -0.479696       -13.0532
  52   2.0000      -0.474501       -12.9118
  53   2.0000      -0.464339       -12.6353
  54   2.0000      -0.458812       -12.4849
  55   2.0000      -0.448638       -12.2081
  56   2.0000      -0.443096       -12.0573
  57   2.0000      -0.437524       -11.9056
  58   2.0000      -0.434350       -11.8193
  59   2.0000      -0.426213       -11.5979
  60   2.0000      -0.419045       -11.4028
  61   2.0000      -0.414866       -11.2891
  62   2.0000      -0.411239       -11.1904
  63   2.0000      -0.355154        -9.6642
  64   2.0000      -0.330563        -8.9951
  65   2.0000      -0.327560        -8.9134
  66   2.0000      -0.290726        -7.9110
  67   0.0000       0.025851         0.7035
  68   0.0000       0.078917         2.1474
  69   0.0000       0.111946         3.0462
  70   0.0000       0.115772         3.1503
  71   0.0000       0.131385         3.5752

MULLIKEN ATOMIC CHARGES
-----------------------
   0 S :    0.106748
   1 C :   -0.087977
   2 C :   -0.085503
   3 C :    0.037583
   4 C :   -0.122375
   5 H :   -0.008122
   6 C :    0.018647
   7 H :    0.017133
   8 H :    0.041558
   9 C :   -0.107921
  10 H :    0.051074
  11 H :    0.041418
  12 C :   -0.044920
  13 H :    0.036326
  14 H :    0.035946
  15 H :    0.026772
  16 S :    0.128522
  17 C :   -0.090378
  18 C :    0.014916
  19 C :   -0.075199
  20 C :   -0.152440
  21 H :   -0.015228
  22 C :    0.098691
  23 H :    0.014891
  24 H :   -0.002539
  25 C :   -0.069650
  26 H :    0.043846
  27 H :    0.037451
  28 C :   -0.046687
  29 H :    0.008496
  30 H :    0.016032
  31 H :    0.039391
  32 H :    0.033550
  33 H :    0.059947
Sum of atomic charges:    0.0000000

LOEWDIN ATOMIC CHARGES
----------------------
   0 S :    0.397597
   1 C :   -0.195813
   2 C :   -0.057083
   3 C :   -0.062095
   4 C :   -0.175583
   5 H :    0.025631
   6 C :   -0.043630
   7 H :    0.027878
   8 H :    0.032749
   9 C :   -0.043987
  10 H :    0.035022
  11 H :    0.022562
  12 C :   -0.067510
  13 H :    0.022176
  14 H :    0.026259
  15 H :    0.024573
  16 S :    0.445981
  17 C :   -0.197318
  18 C :   -0.062527
  19 C :   -0.046813
  20 C :   -0.221389
  21 H :    0.016492
  22 C :   -0.022648
  23 H :    0.028217
  24 H :    0.015812
  25 C :   -0.035856
  26 H :    0.027195
  27 H :    0.028186
  28 C :   -0.080357
  29 H :    0.025333
  30 H :    0.019027
  31 H :    0.032187
  32 H :    0.025310
  33 H :    0.034423

  Mayer bond orders larger than 0.100000
B(  0-S ,  1-C ) :   1.1198 B(  0-S ,  4-C ) :   1.1466 B(  1-C ,  2-C ) :   1.6263
B(  1-C , 32-H ) :   0.9783 B(  2-C ,  3-C ) :   1.2079 B(  2-C ,  6-C ) :   1.0140
B(  3-C ,  4-C ) :   1.5915 B(  3-C ,  5-H ) :   1.0071 B(  4-C , 20-C ) :   1.0405
B(  6-C ,  7-H ) :   0.9525 B(  6-C ,  8-H ) :   0.9409 B(  6-C ,  9-C ) :   1.0443
B(  9-C , 10-H ) :   0.9591 B(  9-C , 11-H ) :   0.9579 B(  9-C , 12-C ) :   1.0659
B( 12-C , 13-H ) :   0.9765 B( 12-C , 14-H ) :   0.9731 B( 12-C , 15-H ) :   0.9776
B( 16-S , 17-C ) :   1.1697 B( 16-S , 20-C ) :   1.1595 B( 17-C , 18-C ) :   1.5876
B( 17-C , 33-H ) :   0.9638 B( 18-C , 19-C ) :   1.2627 B( 18-C , 21-H ) :   0.9993
B( 19-C , 20-C ) :   1.5393 B( 19-C , 22-C ) :   1.0630 B( 22-C , 23-H ) :   0.9330
B( 22-C , 24-H ) :   0.9279 B( 22-C , 25-C ) :   1.0533 B( 25-C , 26-H ) :   0.9631
B( 25-C , 27-H ) :   0.9579 B( 25-C , 28-C ) :   1.0547 B( 28-C , 29-H ) :   0.9679
B( 28-C , 30-H ) :   0.9775 B( 28-C , 31-H ) :   0.9745

Dispersion correction           -0.014097489
FINAL SINGLE POINT ENERGY     -1339.858555030022

DIPOLE MOMENT
-------------
                                X             Y             Z
Electronic contribution:      2.79160     -16.16776     -22.68571
Nuclear contribution   :     -2.86288      16.62610      22.94970
                        -----------------------------------------
Total Dipole Moment    :     -0.07127       0.45833       0.26399
                        -----------------------------------------
Magnitude (a.u.)       :      0.53370
Magnitude (Debye)      :      1.35657

Rotational constants in cm-1:     0.018718     0.008231     0.006260
Rotational constants in MHz :   561.164312   246.750331   187.662860

                             ****ORCA TERMINATED NORMALLY****
TOTAL RUN TIME: 0 days 0 hours 0 minutes 34 seconds 181 msec
