                         Program Version 4.2.1 -  RELEASE  -
|  1> ! wB97X-D3 SP def2-SVP
|  2> %pal
|  3> nprocs 16
|  4> end
|  5>
|  6> * xyz 0 1
|  7> S 	 -18.4191 	 0.33155 	 77.6599
|  8> C 	 -17.8039 	 -1.20316 	 77.1737
|  9> C 	 -18.6965 	 -1.83583 	 76.2855
| 10> C 	 -19.7871 	 -1.02029 	 75.9958
| 11> C 	 -19.8693 	 0.149997 	 76.7056
| 12> H 	 -20.6619 	 -1.24071 	 75.364
| 13> C 	 -18.4642 	 -3.16369 	 75.5538
| 14> H 	 -17.4725 	 -3.21152 	 75.1835
| 15> H 	 -19.0574 	 -3.10262 	 74.6565
| 16> C 	 -18.7896 	 -4.38775 	 76.4461
| 17> H 	 -19.7284 	 -4.22221 	 77.0437
| 18> H 	 -18.9361 	 -5.19453 	 75.7229
| 19> C 	 -17.6175 	 -4.73856 	 77.4058
| 20> H 	 -16.7151 	 -4.54365 	 76.8636
| 21> H 	 -17.6 	 -4.14095 	 78.3652
| 22> H 	 -17.4183 	 -5.76557 	 77.6731
| 23> S 	 -20.3191 	 2.8828 	 76.4614
| 24> C 	 -21.9857 	 3.48869 	 76.2687
| 25> C 	 -22.7953 	 2.45576 	 76.6961
| 26> C 	 -22.2444 	 1.1938 	 76.6428
| 27> C 	 -20.8841 	 1.23371 	 76.5249
| 28> H 	 -23.6907 	 2.78879 	 77.106
| 29> C 	 -23.0094 	 -0.0428498 	 76.9142
| 30> H 	 -22.7963 	 -0.72689 	 76.1081
| 31> H 	 -24.0569 	 0.0699659 	 76.7245
| 32> C 	 -22.8845 	 -0.63706 	 78.3775
| 33> H 	 -23.3405 	 0.113419 	 79.0297
| 34> H 	 -21.8425 	 -0.639026 	 78.7054
| 35> C 	 -23.6573 	 -1.9775 	 78.5743
| 36> H 	 -24.7064 	 -1.87972 	 78.7464
| 37> H 	 -23.1615 	 -2.29087 	 79.4645
| 38> H 	 -23.5457 	 -2.6468 	 77.7394
| 39> H 	 -16.7537 	 -1.53293 	 77.2598
| 40> H 	 -22.1928 	 4.48174 	 76.3454
| 41> *
| 42>
| 43>                          ****END OF INPUT****

CARTESIAN COORDINATES (ANGSTROEM)
---------------------------------
  S    -18.419100    0.331550   77.659900
  C    -17.803900   -1.203160   77.173700
  C    -18.696500   -1.835830   76.285500
  C    -19.787100   -1.020290   75.995800
  C    -19.869300    0.149997   76.705600
  H    -20.661900   -1.240710   75.364000
  C    -18.464200   -3.163690   75.553800
  H    -17.472500   -3.211520   75.183500
  H    -19.057400   -3.102620   74.656500
  C    -18.789600   -4.387750   76.446100
  H    -19.728400   -4.222210   77.043700
  H    -18.936100   -5.194530   75.722900
  C    -17.617500   -4.738560   77.405800
  H    -16.715100   -4.543650   76.863600
  H    -17.600000   -4.140950   78.365200
  H    -17.418300   -5.765570   77.673100
  S    -20.319100    2.882800   76.461400
  C    -21.985700    3.488690   76.268700
  C    -22.795300    2.455760   76.696100
  C    -22.244400    1.193800   76.642800
  C    -20.884100    1.233710   76.524900
  H    -23.690700    2.788790   77.106000
  C    -23.009400   -0.042850   76.914200
  H    -22.796300   -0.726890   76.108100
  H    -24.056900    0.069966   76.724500
  C    -22.884500   -0.637060   78.377500
  H    -23.340500    0.113419   79.029700
  H    -21.842500   -0.639026   78.705400
  C    -23.657300   -1.977500   78.574300
  H    -24.706400   -1.879720   78.746400
  H    -23.161500   -2.290870   79.464500
  H    -23.545700   -2.646800   77.739400
  H    -16.753700   -1.532930   77.259800
  H    -22.192800    4.481740   76.345400

 Total Charge           Charge          ....    0
 Multiplicity           Mult            ....    1
 Number of Electrons    NEL             ....  134
 Basis Dimension        Dim             ....  322

ORBITAL ENERGIES
----------------

  NO   OCC          E(Eh)            E(eV)
   0   2.0000     -88.968697     -2420.9613
   1   2.0000     -88.961517     -2420.7660
   2   2.0000     -10.328634      -281.0564
   3   2.0000     -10.327953      -281.0379
   4   2.0000     -10.314865      -280.6818
   5   2.0000     -10.309190      -280.5273
   6   2.0000     -10.299805      -280.2719
   7   2.0000     -10.294893      -280.1383
   8   2.0000     -10.294723      -280.1336
   9   2.0000     -10.289820      -280.0002
  10   2.0000     -10.289092      -279.9804
  11   2.0000     -10.289009      -279.9782
  12   2.0000     -10.286665      -279.9144
  13   2.0000     -10.284858      -279.8652
  14   2.0000     -10.278870      -279.7023
  15   2.0000     -10.273895      -279.5669
  16   2.0000      -8.083520      -219.9638
  17   2.0000      -8.076118      -219.7623
  18   2.0000      -6.041948      -164.4098
  19   2.0000      -6.037841      -164.2980
  20   2.0000      -6.034611      -164.2101
  21   2.0000      -6.034541      -164.2082
  22   2.0000      -6.030869      -164.1083
  23   2.0000      -6.026663      -163.9938
  24   2.0000      -1.011762       -27.5315
  25   2.0000      -0.991174       -26.9712
  26   2.0000      -0.908925       -24.7331
  27   2.0000      -0.904055       -24.6006
  28   2.0000      -0.866753       -23.5856
  29   2.0000      -0.853888       -23.2355
  30   2.0000      -0.847452       -23.0603
  31   2.0000      -0.815502       -22.1909
  32   2.0000      -0.783069       -21.3084
  33   2.0000      -0.775732       -21.1087
  34   2.0000      -0.708011       -19.2659
  35   2.0000      -0.701375       -19.0854
  36   2.0000      -0.698201       -18.9990
  37   2.0000      -0.667561       -18.1653
  38   2.0000      -0.642572       -17.4853
  39   2.0000      -0.620018       -16.8716
  40   2.0000      -0.600013       -16.3272
  41   2.0000      -0.574919       -15.6443
  42   2.0000      -0.558879       -15.2079
  43   2.0000      -0.543950       -14.8016
  44   2.0000      -0.537907       -14.6372
  45   2.0000      -0.533974       -14.5302
  46   2.0000      -0.520783       -14.1712
  47   2.0000      -0.508328       -13.8323
  48   2.0000      -0.502826       -13.6826
  49   2.0000      -0.498625       -13.5683
  50   2.0000      -0.491442       -13.3728
  51   2.0000      -0.481895       -13.1130
  52   2.0000      -0.473059       -12.8726
  53   2.0000      -0.466232       -12.6868
  54   2.0000      -0.458683       -12.4814
  55   2.0000      -0.449218       -12.2238
  56   2.0000      -0.443818       -12.0769
  57   2.0000      -0.435721       -11.8566
  58   2.0000      -0.432896       -11.7797
  59   2.0000      -0.432029       -11.7561
  60   2.0000      -0.419633       -11.4188
  61   2.0000      -0.412021       -11.2117
  62   2.0000      -0.407305       -11.0833
  63   2.0000      -0.347859        -9.4657
  64   2.0000      -0.333349        -9.0709
  65   2.0000      -0.325085        -8.8460
  66   2.0000      -0.289419        -7.8755
  67   0.0000       0.022274         0.6061
  68   0.0000       0.065418         1.7801
  69   0.0000       0.111444         3.0326
  70   0.0000       0.126155         3.4328
  71   0.0000       0.131534         3.5792

MULLIKEN ATOMIC CHARGES
-----------------------
   0 S :    0.117135
   1 C :   -0.129299
   2 C :   -0.103485
   3 C :    0.008418
   4 C :   -0.146972
   5 H :    0.017607
   6 C :    0.079068
   7 H :    0.018664
   8 H :    0.016861
   9 C :   -0.061430
  10 H :    0.048108
  11 H :    0.033486
  12 C :   -0.058402
  13 H :    0.005657
  14 H :    0.052220
  15 H :    0.029823
  16 S :    0.079709
  17 C :   -0.060954
  18 C :   -0.038710
  19 C :   -0.022162
  20 C :   -0.140338
  21 H :    0.002771
  22 C :    0.090174
  23 H :    0.007450
  24 H :   -0.001047
  25 C :   -0.090883
  26 H :    0.022250
  27 H :    0.044206
  28 C :   -0.009777
  29 H :    0.031092
  30 H :    0.034022
  31 H :    0.030243
  32 H :    0.064769
  33 H :    0.029726
Sum of atomic charges:    0.0000000

LOEWDIN ATOMIC CHARGES
----------------------
   0 S :    0.422940
   1 C :   -0.219885
   2 C :   -0.063049
   3 C :   -0.072809
   4 C :   -0.195867
   5 H :    0.034373
   6 C :   -0.024440
   7 H :    0.024325
   8 H :    0.028776
   9 C :   -0.036494
  10 H :    0.032559
  11 H :    0.025510
  12 C :   -0.076657
  13 H :    0.018335
  14 H :    0.034673
  15 H :    0.025599
  16 S :    0.391493
  17 C :   -0.164444
  18 C :   -0.051304
  19 C :   -0.068865
  20 C :   -0.184275
  21 H :    0.023845
  22 C :   -0.037219
  23 H :    0.026166
  24 H :    0.025886
  25 C :   -0.030619
  26 H :    0.024980
  27 H :    0.024547
  28 C :   -0.058105
  29 H :    0.022736
  30 H :    0.030796
  31 H :    0.022609
  32 H :    0.037069
  33 H :    0.006817

  Mayer bond orders larger than 0.100000
B(  0-S ,  1-C ) :   1.1610 B(  0-S ,  4-C ) :   1.1564 B(  1-C ,  2-C ) :   1.5645
B(  1-C ,  4-C ) :   0.1040 B(  1-C , 32-H ) :   0.9598 B(  2-C ,  3-C ) :   1.2987
B(  2-C ,  6-C ) :   1.0131 B(  3-C ,  4-C ) :   1.5568 B(  3-C ,  5-H ) :   0.9848
B(  4-C , 20-C ) :   1.0313 B(  6-C ,  7-H ) :   0.9416 B(  6-C ,  8-H ) :   0.9444
B(  6-C ,  9-C ) :   1.0617 B(  9-C , 10-H ) :   0.9601 B(  9-C , 11-H ) :   0.9562
B(  9-C , 12-C ) :   1.0645 B( 12-C , 13-H ) :   0.9734 B( 12-C , 14-H ) :   0.9743
B( 12-C , 15-H ) :   0.9750 B( 16-S , 17-C ) :   1.1428 B( 16-S , 20-C ) :   1.1579
B( 17-C , 18-C ) :   1.5982 B( 17-C , 20-C ) :   0.1098 B( 17-C , 33-H ) :   0.9755
B( 18-C , 19-C ) :   1.2595 B( 18-C , 21-H ) :   0.9983 B( 19-C , 20-C ) :   1.5628
B( 19-C , 22-C ) :   1.0579 B( 22-C , 23-H ) :   0.9233 B( 22-C , 24-H ) :   0.9226
B( 22-C , 25-C ) :   1.0414 B( 25-C , 26-H ) :   0.9519 B( 25-C , 27-H ) :   0.9682
B( 25-C , 28-C ) :   1.0617 B( 28-C , 29-H ) :   0.9767 B( 28-C , 30-H ) :   0.9752
B( 28-C , 31-H ) :   0.9797

Dispersion correction           -0.014761006
FINAL SINGLE POINT ENERGY     -1339.848382520224

DIPOLE MOMENT
-------------
                                X             Y             Z
Electronic contribution:      7.48314      27.38067      -3.49157
Nuclear contribution   :     -7.80772     -27.87517       3.53021
                        -----------------------------------------
Total Dipole Moment    :     -0.32458      -0.49450       0.03864
                        -----------------------------------------
Magnitude (a.u.)       :      0.59277
Magnitude (Debye)      :      1.50670

Rotational constants in cm-1:     0.020430     0.008833     0.006888
Rotational constants in MHz :   612.464532   264.802856   206.509420

                             ****ORCA TERMINATED NORMALLY****
TOTAL RUN TIME: 0 days 0 hours 0 minutes 35 seconds 270 msec
