                         Program Version 4.2.1 -  RELEASE  -
|  1> ! wB97X-D3 SP def2-SVP
|  2> %pal
|  3> nprocs 16
|  4> end
|  5>
|  6> * xyz 0 1
|  7> S 	 39.1836 	 27.6708 	 95.5968
|  8> C 	 39.1814 	 28.563 	 94.0007
|  9> C 	 39.8355 	 27.8104 	 93.0648
| 10> C 	 40.1832 	 26.4797 	 93.5234
| 11> C 	 39.8838 	 26.2935 	 94.8614
| 12> H 	 40.5288 	 25.69 	 92.8347
| 13> C 	 40.0117 	 28.2303 	 91.6724
| 14> H 	 40.9147 	 27.6955 	 91.3175
| 15> H 	 40.2204 	 29.2605 	 91.6274
| 16> C 	 38.7977 	 28.0174 	 90.7485
| 17> H 	 38.011 	 28.704 	 90.9384
| 18> H 	 39.0595 	 28.3534 	 89.7438
| 19> C 	 38.34 	 26.6063 	 90.655
| 20> H 	 39.1863 	 25.9807 	 90.7702
| 21> H 	 37.5153 	 26.345 	 91.3018
| 22> H 	 38.0453 	 26.4011 	 89.6382
| 23> S 	 38.6566 	 24.7452 	 96.7796
| 24> C 	 39.2603 	 23.173 	 97.1948
| 25> C 	 40.2678 	 22.8108 	 96.3728
| 26> C 	 40.7021 	 23.8725 	 95.5053
| 27> C 	 39.9726 	 25.0339 	 95.6302
| 28> H 	 40.801 	 21.8834 	 96.5028
| 29> C 	 41.8843 	 23.6391 	 94.6184
| 30> H 	 42.6822 	 23.2953 	 95.2636
| 31> H 	 42.2188 	 24.6475 	 94.3109
| 32> C 	 41.5184 	 22.8448 	 93.3017
| 33> H 	 42.2486 	 22.8493 	 92.5405
| 34> H 	 40.696 	 23.2863 	 92.8371
| 35> C 	 41.1006 	 21.3419 	 93.5251
| 36> H 	 40.0526 	 21.0954 	 93.4941
| 37> H 	 41.497 	 21.0341 	 94.4674
| 38> H 	 41.6438 	 20.6712 	 92.841
| 39> H 	 38.9095 	 29.567 	 93.7834
| 40> H 	 38.952 	 22.5119 	 97.914
| 41> *
| 42>
| 43>                          ****END OF INPUT****

CARTESIAN COORDINATES (ANGSTROEM)
---------------------------------
  S     39.183600   27.670800   95.596800
  C     39.181400   28.563000   94.000700
  C     39.835500   27.810400   93.064800
  C     40.183200   26.479700   93.523400
  C     39.883800   26.293500   94.861400
  H     40.528800   25.690000   92.834700
  C     40.011700   28.230300   91.672400
  H     40.914700   27.695500   91.317500
  H     40.220400   29.260500   91.627400
  C     38.797700   28.017400   90.748500
  H     38.011000   28.704000   90.938400
  H     39.059500   28.353400   89.743800
  C     38.340000   26.606300   90.655000
  H     39.186300   25.980700   90.770200
  H     37.515300   26.345000   91.301800
  H     38.045300   26.401100   89.638200
  S     38.656600   24.745200   96.779600
  C     39.260300   23.173000   97.194800
  C     40.267800   22.810800   96.372800
  C     40.702100   23.872500   95.505300
  C     39.972600   25.033900   95.630200
  H     40.801000   21.883400   96.502800
  C     41.884300   23.639100   94.618400
  H     42.682200   23.295300   95.263600
  H     42.218800   24.647500   94.310900
  C     41.518400   22.844800   93.301700
  H     42.248600   22.849300   92.540500
  H     40.696000   23.286300   92.837100
  C     41.100600   21.341900   93.525100
  H     40.052600   21.095400   93.494100
  H     41.497000   21.034100   94.467400
  H     41.643800   20.671200   92.841000
  H     38.909500   29.567000   93.783400
  H     38.952000   22.511900   97.914000

 Total Charge           Charge          ....    0
 Multiplicity           Mult            ....    1
 Number of Electrons    NEL             ....  134
 Basis Dimension        Dim             ....  322

ORBITAL ENERGIES
----------------

  NO   OCC          E(Eh)            E(eV)
   0   2.0000     -88.967671     -2420.9334
   1   2.0000     -88.961788     -2420.7733
   2   2.0000     -10.333616      -281.1920
   3   2.0000     -10.328323      -281.0479
   4   2.0000     -10.313352      -280.6406
   5   2.0000     -10.307556      -280.4829
   6   2.0000     -10.299560      -280.2653
   7   2.0000     -10.297068      -280.1975
   8   2.0000     -10.296703      -280.1875
   9   2.0000     -10.293833      -280.1094
  10   2.0000     -10.287049      -279.9248
  11   2.0000     -10.287003      -279.9236
  12   2.0000     -10.285828      -279.8916
  13   2.0000     -10.280110      -279.7360
  14   2.0000     -10.275220      -279.6029
  15   2.0000     -10.266539      -279.3667
  16   2.0000      -8.081826      -219.9177
  17   2.0000      -8.076639      -219.7765
  18   2.0000      -6.040516      -164.3708
  19   2.0000      -6.036485      -164.2611
  20   2.0000      -6.035258      -164.2277
  21   2.0000      -6.032329      -164.1480
  22   2.0000      -6.031133      -164.1155
  23   2.0000      -6.027247      -164.0097
  24   2.0000      -1.007906       -27.4265
  25   2.0000      -0.984633       -26.7932
  26   2.0000      -0.922180       -25.0938
  27   2.0000      -0.905301       -24.6345
  28   2.0000      -0.873003       -23.7556
  29   2.0000      -0.849784       -23.1238
  30   2.0000      -0.841696       -22.9037
  31   2.0000      -0.819619       -22.3030
  32   2.0000      -0.786862       -21.4116
  33   2.0000      -0.775649       -21.1065
  34   2.0000      -0.716538       -19.4980
  35   2.0000      -0.710174       -19.3248
  36   2.0000      -0.700681       -19.0665
  37   2.0000      -0.664480       -18.0814
  38   2.0000      -0.634663       -17.2701
  39   2.0000      -0.617751       -16.8099
  40   2.0000      -0.592225       -16.1153
  41   2.0000      -0.573835       -15.6149
  42   2.0000      -0.558118       -15.1872
  43   2.0000      -0.551867       -15.0171
  44   2.0000      -0.548197       -14.9172
  45   2.0000      -0.539987       -14.6938
  46   2.0000      -0.520280       -14.1575
  47   2.0000      -0.518787       -14.1169
  48   2.0000      -0.505742       -13.7619
  49   2.0000      -0.499726       -13.5982
  50   2.0000      -0.492690       -13.4068
  51   2.0000      -0.478183       -13.0120
  52   2.0000      -0.472764       -12.8646
  53   2.0000      -0.465894       -12.6776
  54   2.0000      -0.460401       -12.5281
  55   2.0000      -0.446166       -12.1408
  56   2.0000      -0.440058       -11.9746
  57   2.0000      -0.437625       -11.9084
  58   2.0000      -0.435926       -11.8622
  59   2.0000      -0.431791       -11.7496
  60   2.0000      -0.421436       -11.4679
  61   2.0000      -0.414151       -11.2696
  62   2.0000      -0.407905       -11.0997
  63   2.0000      -0.355251        -9.6669
  64   2.0000      -0.330287        -8.9876
  65   2.0000      -0.328258        -8.9324
  66   2.0000      -0.290662        -7.9093
  67   0.0000       0.024600         0.6694
  68   0.0000       0.083487         2.2718
  69   0.0000       0.097689         2.6583
  70   0.0000       0.118462         3.2235
  71   0.0000       0.135135         3.6772

MULLIKEN ATOMIC CHARGES
-----------------------
   0 S :    0.097404
   1 C :   -0.107835
   2 C :   -0.088637
   3 C :   -0.006982
   4 C :   -0.103007
   5 H :    0.019152
   6 C :    0.069413
   7 H :    0.025631
   8 H :    0.008777
   9 C :   -0.054103
  10 H :    0.012174
  11 H :    0.015680
  12 C :    0.001443
  13 H :    0.001454
  14 H :    0.048627
  15 H :    0.015114
  16 S :    0.085718
  17 C :   -0.028173
  18 C :   -0.031856
  19 C :   -0.090813
  20 C :   -0.099681
  21 H :    0.015646
  22 C :    0.044270
  23 H :    0.038173
  24 H :    0.019207
  25 C :   -0.023382
  26 H :    0.020623
  27 H :    0.018389
  28 C :   -0.046760
  29 H :    0.043746
  30 H :    0.005650
  31 H :    0.025843
  32 H :    0.031413
  33 H :    0.017679
Sum of atomic charges:    0.0000000

LOEWDIN ATOMIC CHARGES
----------------------
   0 S :    0.391244
   1 C :   -0.175167
   2 C :   -0.057794
   3 C :   -0.073617
   4 C :   -0.191708
   5 H :    0.033066
   6 C :   -0.032317
   7 H :    0.033545
   8 H :    0.026052
   9 C :   -0.036319
  10 H :    0.019156
  11 H :    0.024826
  12 C :   -0.060172
  13 H :    0.018083
  14 H :    0.030461
  15 H :    0.027215
  16 S :    0.394090
  17 C :   -0.170163
  18 C :   -0.069553
  19 C :   -0.059816
  20 C :   -0.187940
  21 H :    0.029134
  22 C :   -0.032012
  23 H :    0.031980
  24 H :    0.031844
  25 C :   -0.027156
  26 H :    0.019489
  27 H :    0.018664
  28 C :   -0.065921
  29 H :    0.025816
  30 H :    0.015992
  31 H :    0.028585
  32 H :    0.023984
  33 H :    0.016429

  Mayer bond orders larger than 0.100000
B(  0-S ,  1-C ) :   1.0943 B(  0-S ,  4-C ) :   1.1592 B(  1-C ,  2-C ) :   1.6428
B(  1-C , 32-H ) :   0.9714 B(  2-C ,  3-C ) :   1.2153 B(  2-C ,  6-C ) :   1.0433
B(  3-C ,  4-C ) :   1.5717 B(  3-C ,  5-H ) :   0.9833 B(  4-C , 20-C ) :   1.0248
B(  6-C ,  7-H ) :   0.9366 B(  6-C ,  8-H ) :   0.9273 B(  6-C ,  9-C ) :   1.0901
B(  9-C , 10-H ) :   0.9507 B(  9-C , 11-H ) :   0.9537 B(  9-C , 12-C ) :   1.0814
B( 12-C , 13-H ) :   0.9717 B( 12-C , 14-H ) :   0.9730 B( 12-C , 15-H ) :   0.9678
B( 16-S , 17-C ) :   1.1429 B( 16-S , 20-C ) :   1.1188 B( 17-C , 18-C ) :   1.6344
B( 17-C , 33-H ) :   0.9717 B( 18-C , 19-C ) :   1.2359 B( 18-C , 21-H ) :   0.9842
B( 19-C , 20-C ) :   1.6350 B( 19-C , 22-C ) :   1.0386 B( 22-C , 23-H ) :   0.9451
B( 22-C , 24-H ) :   0.9344 B( 22-C , 25-C ) :   1.0617 B( 25-C , 26-H ) :   0.9652
B( 25-C , 27-H ) :   0.9520 B( 25-C , 28-C ) :   1.0662 B( 28-C , 29-H ) :   0.9793
B( 28-C , 30-H ) :   0.9762 B( 28-C , 31-H ) :   0.9736

Dispersion correction           -0.015014504
FINAL SINGLE POINT ENERGY     -1339.865802342550

DIPOLE MOMENT
-------------
                                X             Y             Z
Electronic contribution:     -6.45846       9.46326      25.09904
Nuclear contribution   :      6.72813      -9.71666     -25.78439
                        -----------------------------------------
Total Dipole Moment    :      0.26967      -0.25340      -0.68535
                        -----------------------------------------
Magnitude (a.u.)       :      0.77887
Magnitude (Debye)      :      1.97973

Rotational constants in cm-1:     0.018830     0.009618     0.007185
Rotational constants in MHz :   564.499529   288.354816   215.388654

                             ****ORCA TERMINATED NORMALLY****
TOTAL RUN TIME: 0 days 0 hours 0 minutes 31 seconds 801 msec
