                         Program Version 4.2.1 -  RELEASE  -
|  1> ! wB97X-D3 SP def2-SVP
|  2> %pal
|  3> nprocs 16
|  4> end
|  5>
|  6> * xyz 0 1
|  7> S 	 -11.7308 	 -13.7508 	 88.4554
|  8> C 	 -13.0548 	 -13.0904 	 87.541
|  9> C 	 -13.6008 	 -11.9561 	 88.0685
| 10> C 	 -13.0463 	 -11.5896 	 89.3265
| 11> C 	 -11.9741 	 -12.4615 	 89.6506
| 12> H 	 -13.3164 	 -10.7485 	 89.871
| 13> C 	 -14.6397 	 -10.9613 	 87.4552
| 14> H 	 -14.9858 	 -10.2383 	 88.2947
| 15> H 	 -15.6162 	 -11.4846 	 87.291
| 16> C 	 -14.0602 	 -10.0642 	 86.3346
| 17> H 	 -13.2791 	 -9.53122 	 86.8104
| 18> H 	 -13.5662 	 -10.6628 	 85.595
| 19> C 	 -15.0504 	 -9.18267 	 85.5711
| 20> H 	 -15.8549 	 -8.76099 	 86.2126
| 21> H 	 -14.6143 	 -8.4486 	 84.9343
| 22> H 	 -15.5689 	 -9.87682 	 84.8892
| 23> S 	 -9.38442 	 -12.5346 	 90.6379
| 24> C 	 -9.15717 	 -12.3666 	 92.42
| 25> C 	 -10.4038 	 -12.3799 	 93.0281
| 26> C 	 -11.497 	 -12.2414 	 92.1604
| 27> C 	 -11.1639 	 -12.4277 	 90.8164
| 28> H 	 -10.4524 	 -12.273 	 94.1065
| 29> C 	 -12.8798 	 -12.1255 	 92.6788
| 30> H 	 -13.2147 	 -11.2056 	 92.2004
| 31> H 	 -12.8592 	 -11.8777 	 93.759
| 32> C 	 -13.9233 	 -13.2859 	 92.426
| 33> H 	 -14.1969 	 -13.3315 	 91.3423
| 34> H 	 -14.8538 	 -12.9805 	 92.923
| 35> C 	 -13.3662 	 -14.66 	 92.8685
| 36> H 	 -14.1088 	 -15.4428 	 92.7303
| 37> H 	 -13.1135 	 -14.6517 	 93.9447
| 38> H 	 -12.4652 	 -14.9635 	 92.3508
| 39> H 	 -13.1752 	 -13.425 	 86.4915
| 40> H 	 -8.26369 	 -12.3514 	 93.065
| 41> *
| 42>
| 43>                          ****END OF INPUT****

CARTESIAN COORDINATES (ANGSTROEM)
---------------------------------
  S    -11.730800  -13.750800   88.455400
  C    -13.054800  -13.090400   87.541000
  C    -13.600800  -11.956100   88.068500
  C    -13.046300  -11.589600   89.326500
  C    -11.974100  -12.461500   89.650600
  H    -13.316400  -10.748500   89.871000
  C    -14.639700  -10.961300   87.455200
  H    -14.985800  -10.238300   88.294700
  H    -15.616200  -11.484600   87.291000
  C    -14.060200  -10.064200   86.334600
  H    -13.279100   -9.531220   86.810400
  H    -13.566200  -10.662800   85.595000
  C    -15.050400   -9.182670   85.571100
  H    -15.854900   -8.760990   86.212600
  H    -14.614300   -8.448600   84.934300
  H    -15.568900   -9.876820   84.889200
  S     -9.384420  -12.534600   90.637900
  C     -9.157170  -12.366600   92.420000
  C    -10.403800  -12.379900   93.028100
  C    -11.497000  -12.241400   92.160400
  C    -11.163900  -12.427700   90.816400
  H    -10.452400  -12.273000   94.106500
  C    -12.879800  -12.125500   92.678800
  H    -13.214700  -11.205600   92.200400
  H    -12.859200  -11.877700   93.759000
  C    -13.923300  -13.285900   92.426000
  H    -14.196900  -13.331500   91.342300
  H    -14.853800  -12.980500   92.923000
  C    -13.366200  -14.660000   92.868500
  H    -14.108800  -15.442800   92.730300
  H    -13.113500  -14.651700   93.944700
  H    -12.465200  -14.963500   92.350800
  H    -13.175200  -13.425000   86.491500
  H     -8.263690  -12.351400   93.065000

 Total Charge           Charge          ....    0
 Multiplicity           Mult            ....    1
 Number of Electrons    NEL             ....  134
 Basis Dimension        Dim             ....  322

ORBITAL ENERGIES
----------------

  NO   OCC          E(Eh)            E(eV)
   0   2.0000     -88.971330     -2421.0330
   1   2.0000     -88.967891     -2420.9394
   2   2.0000     -10.333524      -281.1895
   3   2.0000     -10.325585      -280.9735
   4   2.0000     -10.322878      -280.8998
   5   2.0000     -10.313576      -280.6467
   6   2.0000     -10.306354      -280.4501
   7   2.0000     -10.303659      -280.3768
   8   2.0000     -10.298820      -280.2451
   9   2.0000     -10.294835      -280.1367
  10   2.0000     -10.290702      -280.0242
  11   2.0000     -10.290561      -280.0204
  12   2.0000     -10.290374      -280.0153
  13   2.0000     -10.283952      -279.8406
  14   2.0000     -10.280531      -279.7475
  15   2.0000     -10.273224      -279.5486
  16   2.0000      -8.085830      -220.0266
  17   2.0000      -8.080837      -219.8908
  18   2.0000      -6.044261      -164.4727
  19   2.0000      -6.040433      -164.3685
  20   2.0000      -6.039567      -164.3450
  21   2.0000      -6.036621      -164.2648
  22   2.0000      -6.035597      -164.2370
  23   2.0000      -6.031453      -164.1242
  24   2.0000      -1.004323       -27.3290
  25   2.0000      -0.979447       -26.6521
  26   2.0000      -0.906601       -24.6699
  27   2.0000      -0.899865       -24.4866
  28   2.0000      -0.870899       -23.6984
  29   2.0000      -0.854587       -23.2545
  30   2.0000      -0.842488       -22.9253
  31   2.0000      -0.808611       -22.0034
  32   2.0000      -0.781066       -21.2539
  33   2.0000      -0.768959       -20.9244
  34   2.0000      -0.712101       -19.3773
  35   2.0000      -0.703058       -19.1312
  36   2.0000      -0.688792       -18.7430
  37   2.0000      -0.665036       -18.0966
  38   2.0000      -0.641073       -17.4445
  39   2.0000      -0.617682       -16.8080
  40   2.0000      -0.581073       -15.8118
  41   2.0000      -0.565691       -15.3932
  42   2.0000      -0.556164       -15.1340
  43   2.0000      -0.546644       -14.8749
  44   2.0000      -0.540370       -14.7042
  45   2.0000      -0.527014       -14.3408
  46   2.0000      -0.516626       -14.0581
  47   2.0000      -0.510143       -13.8817
  48   2.0000      -0.501515       -13.6469
  49   2.0000      -0.493265       -13.4224
  50   2.0000      -0.485292       -13.2055
  51   2.0000      -0.478240       -13.0136
  52   2.0000      -0.476538       -12.9672
  53   2.0000      -0.460832       -12.5399
  54   2.0000      -0.459821       -12.5124
  55   2.0000      -0.449281       -12.2255
  56   2.0000      -0.439050       -11.9472
  57   2.0000      -0.432898       -11.7798
  58   2.0000      -0.429971       -11.7001
  59   2.0000      -0.426900       -11.6165
  60   2.0000      -0.423978       -11.5370
  61   2.0000      -0.413143       -11.2422
  62   2.0000      -0.408763       -11.1230
  63   2.0000      -0.347760        -9.4630
  64   2.0000      -0.338392        -9.2081
  65   2.0000      -0.330792        -9.0013
  66   2.0000      -0.283004        -7.7009
  67   0.0000       0.018254         0.4967
  68   0.0000       0.065007         1.7689
  69   0.0000       0.103875         2.8266
  70   0.0000       0.120106         3.2683
  71   0.0000       0.131086         3.5670

MULLIKEN ATOMIC CHARGES
-----------------------
   0 S :    0.118784
   1 C :   -0.141513
   2 C :   -0.061432
   3 C :    0.043317
   4 C :   -0.160128
   5 H :   -0.006523
   6 C :   -0.003913
   7 H :    0.026701
   8 H :    0.041314
   9 C :   -0.034665
  10 H :    0.019081
  11 H :    0.021321
  12 C :   -0.034782
  13 H :    0.033879
  14 H :    0.036596
  15 H :    0.024983
  16 S :    0.097534
  17 C :   -0.097252
  18 C :   -0.041245
  19 C :   -0.042181
  20 C :   -0.144981
  21 H :    0.018734
  22 C :    0.049886
  23 H :    0.021326
  24 H :    0.018873
  25 C :   -0.060597
  26 H :    0.047153
  27 H :    0.030604
  28 C :   -0.051509
  29 H :    0.033290
  30 H :    0.024484
  31 H :    0.046012
  32 H :    0.061445
  33 H :    0.065408
Sum of atomic charges:    0.0000000

LOEWDIN ATOMIC CHARGES
----------------------
   0 S :    0.408264
   1 C :   -0.209735
   2 C :   -0.061851
   3 C :   -0.048524
   4 C :   -0.178649
   5 H :    0.020488
   6 C :   -0.036390
   7 H :    0.034069
   8 H :    0.031131
   9 C :   -0.039307
  10 H :    0.020105
  11 H :    0.021209
  12 C :   -0.064908
  13 H :    0.027374
  14 H :    0.024302
  15 H :    0.028864
  16 S :    0.371242
  17 C :   -0.177902
  18 C :   -0.072714
  19 C :   -0.059644
  20 C :   -0.192936
  21 H :    0.030851
  22 C :   -0.038265
  23 H :    0.031679
  24 H :    0.031212
  25 C :   -0.037599
  26 H :    0.029893
  27 H :    0.025284
  28 C :   -0.067825
  29 H :    0.025726
  30 H :    0.024543
  31 H :    0.028030
  32 H :    0.031652
  33 H :    0.040333

  Mayer bond orders larger than 0.100000
B(  0-S ,  1-C ) :   1.1310 B(  0-S ,  4-C ) :   1.1620 B(  1-C ,  2-C ) :   1.6286
B(  1-C ,  4-C ) :   0.1009 B(  1-C , 32-H ) :   0.9598 B(  2-C ,  3-C ) :   1.2555
B(  2-C ,  6-C ) :   1.0075 B(  3-C ,  4-C ) :   1.5284 B(  3-C ,  5-H ) :   1.0049
B(  4-C , 20-C ) :   1.0946 B(  6-C ,  7-H ) :   0.9464 B(  6-C ,  8-H ) :   0.9470
B(  6-C ,  9-C ) :   1.0439 B(  9-C , 10-H ) :   0.9541 B(  9-C , 11-H ) :   0.9630
B(  9-C , 12-C ) :   1.0741 B( 12-C , 13-H ) :   0.9764 B( 12-C , 14-H ) :   0.9749
B( 12-C , 15-H ) :   0.9757 B( 16-S , 17-C ) :   1.1372 B( 16-S , 20-C ) :   1.1188
B( 17-C , 18-C ) :   1.6167 B( 17-C , 20-C ) :   0.1108 B( 17-C , 33-H ) :   0.9618
B( 18-C , 19-C ) :   1.2632 B( 18-C , 21-H ) :   0.9774 B( 19-C , 20-C ) :   1.5571
B( 19-C , 22-C ) :   1.0483 B( 22-C , 23-H ) :   0.9224 B( 22-C , 24-H ) :   0.9341
B( 22-C , 25-C ) :   1.0661 B( 25-C , 26-H ) :   0.9512 B( 25-C , 27-H ) :   0.9553
B( 25-C , 28-C ) :   1.0733 B( 28-C , 29-H ) :   0.9752 B( 28-C , 30-H ) :   0.9769
B( 28-C , 31-H ) :   0.9724

Dispersion correction           -0.015190480
FINAL SINGLE POINT ENERGY     -1339.874707710544

DIPOLE MOMENT
-------------
                                X             Y             Z
Electronic contribution:     21.87234      -8.53857       1.20678
Nuclear contribution   :    -22.31584       8.89035      -1.07444
                        -----------------------------------------
Total Dipole Moment    :     -0.44350       0.35178       0.13234
                        -----------------------------------------
Magnitude (a.u.)       :      0.58134
Magnitude (Debye)      :      1.47766

Rotational constants in cm-1:     0.021619     0.007813     0.007068
Rotational constants in MHz :   648.114780   234.237812   211.884891

                             ****ORCA TERMINATED NORMALLY****
TOTAL RUN TIME: 0 days 0 hours 0 minutes 32 seconds 840 msec
