                         Program Version 4.2.1 -  RELEASE  -
|  1> ! wB97X-D3 SP def2-SVP
|  2> %pal
|  3> nprocs 16
|  4> end
|  5>
|  6> * xyz 0 1
|  7> S 	 28.7466 	 28.4804 	 53.8597
|  8> C 	 30.0253 	 28.4035 	 52.6323
|  9> C 	 31.2431 	 28.6915 	 53.1417
| 10> C 	 31.1586 	 29.0582 	 54.5725
| 11> C 	 29.888 	 29.0761 	 55.1087
| 12> H 	 31.9893 	 29.2954 	 55.2453
| 13> C 	 32.4777 	 28.699 	 52.2937
| 14> H 	 32.1976 	 28.0498 	 51.4975
| 15> H 	 33.3241 	 28.3278 	 52.9334
| 16> C 	 32.7794 	 30.1276 	 51.8335
| 17> H 	 32.0584 	 30.4612 	 51.059
| 18> H 	 32.6596 	 30.7979 	 52.7725
| 19> C 	 34.1775 	 30.3773 	 51.1788
| 20> H 	 34.3892 	 29.6122 	 50.4891
| 21> H 	 34.4435 	 31.4135 	 50.7478
| 22> H 	 34.9707 	 30.294 	 51.9402
| 23> S 	 28.0039 	 28.395 	 57.0107
| 24> C 	 28.0675 	 29.2583 	 58.5632
| 25> C 	 29.1891 	 30.0384 	 58.6743
| 26> C 	 29.8767 	 30.2917 	 57.4166
| 27> C 	 29.4143 	 29.3708 	 56.4399
| 28> H 	 29.3638 	 30.5903 	 59.594
| 29> C 	 30.9202 	 31.3459 	 57.085
| 30> H 	 30.8173 	 31.5966 	 55.9904
| 31> H 	 31.875 	 30.7755 	 57.0987
| 32> C 	 30.9314 	 32.6189 	 57.9023
| 33> H 	 31.0605 	 32.4301 	 58.9492
| 34> H 	 29.9415 	 33.0812 	 57.9897
| 35> C 	 31.8638 	 33.7945 	 57.311
| 36> H 	 31.6645 	 33.9243 	 56.2302
| 37> H 	 32.8815 	 33.4443 	 57.4876
| 38> H 	 31.7558 	 34.7313 	 57.8625
| 39> H 	 29.7746 	 28.4239 	 51.6256
| 40> H 	 27.521 	 28.9594 	 59.4394
| 41> *
| 42>
| 43>                          ****END OF INPUT****

CARTESIAN COORDINATES (ANGSTROEM)
---------------------------------
  S     28.746600   28.480400   53.859700
  C     30.025300   28.403500   52.632300
  C     31.243100   28.691500   53.141700
  C     31.158600   29.058200   54.572500
  C     29.888000   29.076100   55.108700
  H     31.989300   29.295400   55.245300
  C     32.477700   28.699000   52.293700
  H     32.197600   28.049800   51.497500
  H     33.324100   28.327800   52.933400
  C     32.779400   30.127600   51.833500
  H     32.058400   30.461200   51.059000
  H     32.659600   30.797900   52.772500
  C     34.177500   30.377300   51.178800
  H     34.389200   29.612200   50.489100
  H     34.443500   31.413500   50.747800
  H     34.970700   30.294000   51.940200
  S     28.003900   28.395000   57.010700
  C     28.067500   29.258300   58.563200
  C     29.189100   30.038400   58.674300
  C     29.876700   30.291700   57.416600
  C     29.414300   29.370800   56.439900
  H     29.363800   30.590300   59.594000
  C     30.920200   31.345900   57.085000
  H     30.817300   31.596600   55.990400
  H     31.875000   30.775500   57.098700
  C     30.931400   32.618900   57.902300
  H     31.060500   32.430100   58.949200
  H     29.941500   33.081200   57.989700
  C     31.863800   33.794500   57.311000
  H     31.664500   33.924300   56.230200
  H     32.881500   33.444300   57.487600
  H     31.755800   34.731300   57.862500
  H     29.774600   28.423900   51.625600
  H     27.521000   28.959400   59.439400

 Total Charge           Charge          ....    0
 Multiplicity           Mult            ....    1
 Number of Electrons    NEL             ....  134
 Basis Dimension        Dim             ....  322

ORBITAL ENERGIES
----------------

  NO   OCC          E(Eh)            E(eV)
   0   2.0000     -88.967231     -2420.9214
   1   2.0000     -88.958518     -2420.6843
   2   2.0000     -10.334452      -281.2147
   3   2.0000     -10.333595      -281.1914
   4   2.0000     -10.319380      -280.8046
   5   2.0000     -10.315056      -280.6869
   6   2.0000     -10.308654      -280.5127
   7   2.0000     -10.304319      -280.3948
   8   2.0000     -10.303435      -280.3707
   9   2.0000     -10.301718      -280.3240
  10   2.0000     -10.300254      -280.2842
  11   2.0000     -10.300002      -280.2773
  12   2.0000     -10.296840      -280.1913
  13   2.0000     -10.292007      -280.0597
  14   2.0000     -10.289530      -279.9924
  15   2.0000     -10.284411      -279.8530
  16   2.0000      -8.080724      -219.8877
  17   2.0000      -8.072891      -219.6745
  18   2.0000      -6.039363      -164.3394
  19   2.0000      -6.035594      -164.2369
  20   2.0000      -6.031673      -164.1302
  21   2.0000      -6.031213      -164.1176
  22   2.0000      -6.027510      -164.0169
  23   2.0000      -6.023320      -163.9029
  24   2.0000      -0.999278       -27.1917
  25   2.0000      -0.976572       -26.5739
  26   2.0000      -0.913673       -24.8623
  27   2.0000      -0.906067       -24.6553
  28   2.0000      -0.870463       -23.6865
  29   2.0000      -0.847422       -23.0595
  30   2.0000      -0.836654       -22.7665
  31   2.0000      -0.818883       -22.2830
  32   2.0000      -0.782948       -21.3051
  33   2.0000      -0.771120       -20.9832
  34   2.0000      -0.713717       -19.4212
  35   2.0000      -0.705121       -19.1873
  36   2.0000      -0.696343       -18.9484
  37   2.0000      -0.653607       -17.7856
  38   2.0000      -0.643794       -17.5185
  39   2.0000      -0.617594       -16.8056
  40   2.0000      -0.595995       -16.2178
  41   2.0000      -0.567762       -15.4496
  42   2.0000      -0.560854       -15.2616
  43   2.0000      -0.558644       -15.2015
  44   2.0000      -0.530166       -14.4266
  45   2.0000      -0.525704       -14.3051
  46   2.0000      -0.519618       -14.1395
  47   2.0000      -0.509519       -13.8647
  48   2.0000      -0.504457       -13.7270
  49   2.0000      -0.498536       -13.5658
  50   2.0000      -0.490899       -13.3580
  51   2.0000      -0.481006       -13.0888
  52   2.0000      -0.475930       -12.9507
  53   2.0000      -0.463241       -12.6054
  54   2.0000      -0.458989       -12.4897
  55   2.0000      -0.450643       -12.2626
  56   2.0000      -0.445841       -12.1320
  57   2.0000      -0.436368       -11.8742
  58   2.0000      -0.432599       -11.7716
  59   2.0000      -0.427661       -11.6372
  60   2.0000      -0.420127       -11.4322
  61   2.0000      -0.413638       -11.2557
  62   2.0000      -0.408077       -11.1043
  63   2.0000      -0.359447        -9.7811
  64   2.0000      -0.331238        -9.0134
  65   2.0000      -0.325674        -8.8620
  66   2.0000      -0.284799        -7.7498
  67   0.0000       0.017348         0.4721
  68   0.0000       0.072565         1.9746
  69   0.0000       0.094301         2.5661
  70   0.0000       0.118678         3.2294
  71   0.0000       0.130615         3.5542

MULLIKEN ATOMIC CHARGES
-----------------------
   0 S :    0.069247
   1 C :   -0.093515
   2 C :   -0.106057
   3 C :    0.006037
   4 C :   -0.133296
   5 H :    0.011960
   6 C :    0.100235
   7 H :    0.023335
   8 H :    0.039716
   9 C :   -0.117481
  10 H :    0.037765
  11 H :    0.045432
  12 C :   -0.051313
  13 H :    0.024683
  14 H :    0.051229
  15 H :    0.019882
  16 S :    0.091024
  17 C :   -0.075290
  18 C :   -0.040233
  19 C :   -0.057803
  20 C :   -0.130031
  21 H :    0.025568
  22 C :    0.036555
  23 H :    0.046973
  24 H :    0.047988
  25 C :   -0.085173
  26 H :    0.020874
  27 H :    0.028506
  28 C :   -0.057447
  29 H :    0.048899
  30 H :    0.033792
  31 H :    0.043067
  32 H :    0.034819
  33 H :    0.060054
Sum of atomic charges:   -0.0000000

LOEWDIN ATOMIC CHARGES
----------------------
   0 S :    0.357260
   1 C :   -0.174476
   2 C :   -0.056583
   3 C :   -0.069711
   4 C :   -0.172415
   5 H :    0.030447
   6 C :   -0.030252
   7 H :    0.029261
   8 H :    0.040329
   9 C :   -0.046867
  10 H :    0.026993
  11 H :    0.033148
  12 C :   -0.079288
  13 H :    0.016672
  14 H :    0.038950
  15 H :    0.022389
  16 S :    0.368751
  17 C :   -0.173878
  18 C :   -0.069896
  19 C :   -0.045969
  20 C :   -0.178758
  21 H :    0.031628
  22 C :   -0.042534
  23 H :    0.042211
  24 H :    0.036417
  25 C :   -0.048308
  26 H :    0.018719
  27 H :    0.027033
  28 C :   -0.060489
  29 H :    0.030572
  30 H :    0.023910
  31 H :    0.028758
  32 H :    0.016783
  33 H :    0.029194

  Mayer bond orders larger than 0.100000
B(  0-S ,  1-C ) :   1.1109 B(  0-S ,  4-C ) :   1.1175 B(  1-C ,  2-C ) :   1.6723
B(  1-C , 32-H ) :   0.9692 B(  2-C ,  3-C ) :   1.1774 B(  2-C ,  6-C ) :   1.0285
B(  3-C ,  4-C ) :   1.6060 B(  3-C ,  5-H ) :   0.9893 B(  4-C , 20-C ) :   1.0903
B(  6-C ,  7-H ) :   0.9322 B(  6-C ,  8-H ) :   0.9371 B(  6-C ,  9-C ) :   1.0566
B(  9-C , 10-H ) :   0.9562 B(  9-C , 11-H ) :   0.9615 B(  9-C , 12-C ) :   1.0668
B( 12-C , 13-H ) :   0.9733 B( 12-C , 14-H ) :   0.9761 B( 12-C , 15-H ) :   0.9750
B( 16-S , 17-C ) :   1.1267 B( 16-S , 20-C ) :   1.1207 B( 17-C , 18-C ) :   1.6626
B( 17-C , 33-H ) :   0.9616 B( 18-C , 19-C ) :   1.2135 B( 18-C , 21-H ) :   0.9775
B( 19-C , 20-C ) :   1.5945 B( 19-C , 22-C ) :   1.0382 B( 22-C , 23-H ) :   0.9358
B( 22-C , 24-H ) :   0.9241 B( 22-C , 25-C ) :   1.0564 B( 25-C , 26-H ) :   0.9506
B( 25-C , 27-H ) :   0.9599 B( 25-C , 28-C ) :   1.0697 B( 28-C , 29-H ) :   0.9773
B( 28-C , 30-H ) :   0.9800 B( 28-C , 31-H ) :   0.9769

Dispersion correction           -0.013522695
FINAL SINGLE POINT ENERGY     -1339.864934617253

DIPOLE MOMENT
-------------
                                X             Y             Z
Electronic contribution:    -25.17242     -19.51723       6.27153
Nuclear contribution   :     25.85153      20.00162      -6.16536
                        -----------------------------------------
Total Dipole Moment    :      0.67910       0.48439       0.10617
                        -----------------------------------------
Magnitude (a.u.)       :      0.84088
Magnitude (Debye)      :      2.13736

Rotational constants in cm-1:     0.016384     0.008833     0.006027
Rotational constants in MHz :   491.176938   264.804666   180.693966

                             ****ORCA TERMINATED NORMALLY****
TOTAL RUN TIME: 0 days 0 hours 0 minutes 33 seconds 260 msec
