                         Program Version 4.2.1 -  RELEASE  -
|  1> ! wB97X-D3 SP def2-SVP
|  2> %pal
|  3> nprocs 16
|  4> end
|  5>
|  6> * xyz 0 1
|  7> S 	 -105.678 	 57.3718 	 118.387
|  8> C 	 -104.45 	 57.2506 	 119.667
|  9> C 	 -104.936 	 56.5101 	 120.757
| 10> C 	 -106.257 	 55.9566 	 120.551
| 11> C 	 -106.799 	 56.325 	 119.282
| 12> H 	 -106.71 	 55.2187 	 121.186
| 13> C 	 -104.167 	 55.9135 	 121.892
| 14> H 	 -104.665 	 56.2833 	 122.801
| 15> H 	 -103.162 	 56.302 	 121.909
| 16> C 	 -104.046 	 54.3824 	 121.862
| 17> H 	 -103.416 	 54.1903 	 122.679
| 18> H 	 -105.034 	 53.9281 	 122
| 19> C 	 -103.405 	 53.8974 	 120.541
| 20> H 	 -104.068 	 54.1306 	 119.671
| 21> H 	 -102.484 	 54.3841 	 120.323
| 22> H 	 -103.22 	 52.8316 	 120.604
| 23> S 	 -107.86 	 55.3919 	 117.045
| 24> C 	 -109.409 	 54.5521 	 117.048
| 25> C 	 -110.035 	 54.6068 	 118.224
| 26> C 	 -109.181 	 55.1997 	 119.221
| 27> C 	 -107.967 	 55.7064 	 118.724
| 28> H 	 -111.033 	 54.1692 	 118.383
| 29> C 	 -109.621 	 55.3833 	 120.682
| 30> H 	 -110.446 	 56.0705 	 120.778
| 31> H 	 -108.893 	 55.8594 	 121.269
| 32> C 	 -109.944 	 54.0936 	 121.474
| 33> H 	 -110.618 	 53.4487 	 120.991
| 34> H 	 -110.354 	 54.4361 	 122.441
| 35> C 	 -108.669 	 53.2368 	 121.754
| 36> H 	 -108.075 	 53.7737 	 122.515
| 37> H 	 -108.077 	 53.1153 	 120.901
| 38> H 	 -108.93 	 52.2857 	 122.251
| 39> H 	 -103.398 	 57.6087 	 119.664
| 40> H 	 -109.786 	 53.8981 	 116.232
| 41> *
| 42>
| 43>                          ****END OF INPUT****

CARTESIAN COORDINATES (ANGSTROEM)
---------------------------------
  S    -105.678000   57.371800  118.387000
  C    -104.450000   57.250600  119.667000
  C    -104.936000   56.510100  120.757000
  C    -106.257000   55.956600  120.551000
  C    -106.799000   56.325000  119.282000
  H    -106.710000   55.218700  121.186000
  C    -104.167000   55.913500  121.892000
  H    -104.665000   56.283300  122.801000
  H    -103.162000   56.302000  121.909000
  C    -104.046000   54.382400  121.862000
  H    -103.416000   54.190300  122.679000
  H    -105.034000   53.928100  122.000000
  C    -103.405000   53.897400  120.541000
  H    -104.068000   54.130600  119.671000
  H    -102.484000   54.384100  120.323000
  H    -103.220000   52.831600  120.604000
  S    -107.860000   55.391900  117.045000
  C    -109.409000   54.552100  117.048000
  C    -110.035000   54.606800  118.224000
  C    -109.181000   55.199700  119.221000
  C    -107.967000   55.706400  118.724000
  H    -111.033000   54.169200  118.383000
  C    -109.621000   55.383300  120.682000
  H    -110.446000   56.070500  120.778000
  H    -108.893000   55.859400  121.269000
  C    -109.944000   54.093600  121.474000
  H    -110.618000   53.448700  120.991000
  H    -110.354000   54.436100  122.441000
  C    -108.669000   53.236800  121.754000
  H    -108.075000   53.773700  122.515000
  H    -108.077000   53.115300  120.901000
  H    -108.930000   52.285700  122.251000
  H    -103.398000   57.608700  119.664000
  H    -109.786000   53.898100  116.232000

 Total Charge           Charge          ....    0
 Multiplicity           Mult            ....    1
 Number of Electrons    NEL             ....  134
 Basis Dimension        Dim             ....  322

ORBITAL ENERGIES
----------------

  NO   OCC          E(Eh)            E(eV)
   0   2.0000     -88.973671     -2421.0967
   1   2.0000     -88.963426     -2420.8179
   2   2.0000     -10.338334      -281.3204
   3   2.0000     -10.327490      -281.0253
   4   2.0000     -10.321393      -280.8594
   5   2.0000     -10.316380      -280.7230
   6   2.0000     -10.308155      -280.4992
   7   2.0000     -10.301577      -280.3201
   8   2.0000     -10.296610      -280.1850
   9   2.0000     -10.295916      -280.1661
  10   2.0000     -10.288152      -279.9548
  11   2.0000     -10.286102      -279.8991
  12   2.0000     -10.285207      -279.8747
  13   2.0000     -10.285063      -279.8708
  14   2.0000     -10.277477      -279.6644
  15   2.0000     -10.273667      -279.5607
  16   2.0000      -8.086872      -220.0550
  17   2.0000      -8.079207      -219.8464
  18   2.0000      -6.045711      -164.5122
  19   2.0000      -6.041508      -164.3978
  20   2.0000      -6.037757      -164.2957
  21   2.0000      -6.037461      -164.2877
  22   2.0000      -6.033567      -164.1817
  23   2.0000      -6.029822      -164.0798
  24   2.0000      -1.009918       -27.4813
  25   2.0000      -0.979295       -26.6480
  26   2.0000      -0.915646       -24.9160
  27   2.0000      -0.906780       -24.6747
  28   2.0000      -0.875350       -23.8195
  29   2.0000      -0.846914       -23.0457
  30   2.0000      -0.840640       -22.8750
  31   2.0000      -0.813768       -22.1437
  32   2.0000      -0.781556       -21.2672
  33   2.0000      -0.773783       -21.0557
  34   2.0000      -0.714540       -19.4436
  35   2.0000      -0.698190       -18.9987
  36   2.0000      -0.695838       -18.9347
  37   2.0000      -0.657645       -17.8954
  38   2.0000      -0.629478       -17.1290
  39   2.0000      -0.627103       -17.0643
  40   2.0000      -0.602383       -16.3917
  41   2.0000      -0.567198       -15.4342
  42   2.0000      -0.553755       -15.0684
  43   2.0000      -0.550462       -14.9788
  44   2.0000      -0.543074       -14.7778
  45   2.0000      -0.539133       -14.6705
  46   2.0000      -0.518431       -14.1072
  47   2.0000      -0.509875       -13.8744
  48   2.0000      -0.503983       -13.7141
  49   2.0000      -0.498039       -13.5523
  50   2.0000      -0.493843       -13.4381
  51   2.0000      -0.480812       -13.0836
  52   2.0000      -0.467481       -12.7208
  53   2.0000      -0.463542       -12.6136
  54   2.0000      -0.454491       -12.3673
  55   2.0000      -0.451552       -12.2873
  56   2.0000      -0.444931       -12.1072
  57   2.0000      -0.438262       -11.9257
  58   2.0000      -0.434914       -11.8346
  59   2.0000      -0.426494       -11.6055
  60   2.0000      -0.421626       -11.4730
  61   2.0000      -0.418015       -11.3748
  62   2.0000      -0.412018       -11.2116
  63   2.0000      -0.362147        -9.8545
  64   2.0000      -0.333307        -9.0697
  65   2.0000      -0.326362        -8.8808
  66   2.0000      -0.281625        -7.6634
  67   0.0000       0.019145         0.5210
  68   0.0000       0.076554         2.0831
  69   0.0000       0.106038         2.8855
  70   0.0000       0.115145         3.1333
  71   0.0000       0.129143         3.5142

MULLIKEN ATOMIC CHARGES
-----------------------
   0 S :    0.114192
   1 C :   -0.138243
   2 C :   -0.084923
   3 C :    0.010669
   4 C :   -0.113255
   5 H :   -0.017795
   6 C :    0.045076
   7 H :    0.037065
   8 H :    0.006851
   9 C :   -0.052313
  10 H :    0.022956
  11 H :    0.034003
  12 C :   -0.047077
  13 H :    0.054296
  14 H :    0.015686
  15 H :    0.035879
  16 S :    0.091411
  17 C :   -0.099116
  18 C :   -0.020574
  19 C :   -0.068934
  20 C :   -0.127033
  21 H :    0.034307
  22 C :    0.086634
  23 H :    0.029911
  24 H :   -0.007468
  25 C :   -0.071240
  26 H :    0.020599
  27 H :    0.030858
  28 C :   -0.068959
  29 H :    0.031662
  30 H :    0.043222
  31 H :    0.039612
  32 H :    0.063092
  33 H :    0.068946
Sum of atomic charges:    0.0000000

LOEWDIN ATOMIC CHARGES
----------------------
   0 S :    0.387188
   1 C :   -0.208914
   2 C :   -0.061838
   3 C :   -0.057726
   4 C :   -0.181824
   5 H :    0.023260
   6 C :   -0.035050
   7 H :    0.034726
   8 H :    0.022676
   9 C :   -0.030436
  10 H :    0.019659
  11 H :    0.022960
  12 C :   -0.061935
  13 H :    0.036126
  14 H :    0.017938
  15 H :    0.025566
  16 S :    0.410774
  17 C :   -0.184350
  18 C :   -0.072066
  19 C :   -0.058573
  20 C :   -0.203860
  21 H :    0.041478
  22 C :   -0.030340
  23 H :    0.031750
  24 H :    0.020313
  25 C :   -0.029811
  26 H :    0.010528
  27 H :    0.027707
  28 C :   -0.064651
  29 H :    0.021985
  30 H :    0.016727
  31 H :    0.030690
  32 H :    0.039928
  33 H :    0.039396

  Mayer bond orders larger than 0.100000
B(  0-S ,  1-C ) :   1.1112 B(  0-S ,  4-C ) :   1.1419 B(  1-C ,  2-C ) :   1.6138
B(  1-C , 32-H ) :   0.9592 B(  2-C ,  3-C ) :   1.2363 B(  2-C ,  6-C ) :   1.0387
B(  3-C ,  4-C ) :   1.5415 B(  3-C ,  5-H ) :   0.9825 B(  4-C , 20-C ) :   1.0928
B(  6-C ,  7-H ) :   0.9315 B(  6-C ,  8-H ) :   0.9425 B(  6-C ,  9-C ) :   1.0752
B(  9-C , 10-H ) :   0.9531 B(  9-C , 11-H ) :   0.9514 B(  9-C , 12-C ) :   1.0774
B( 12-C , 13-H ) :   0.9706 B( 12-C , 14-H ) :   0.9756 B( 12-C , 15-H ) :   0.9746
B( 16-S , 17-C ) :   1.1429 B( 16-S , 20-C ) :   1.1368 B( 17-C , 18-C ) :   1.6347
B( 17-C , 33-H ) :   0.9586 B( 18-C , 19-C ) :   1.2310 B( 18-C , 21-H ) :   0.9876
B( 19-C , 20-C ) :   1.5712 B( 19-C , 22-C ) :   1.0423 B( 22-C , 23-H ) :   0.9356
B( 22-C , 24-H ) :   0.9342 B( 22-C , 25-C ) :   1.0642 B( 25-C , 26-H ) :   0.9644
B( 25-C , 27-H ) :   0.9563 B( 25-C , 28-C ) :   1.0761 B( 28-C , 29-H ) :   0.9657
B( 28-C , 30-H ) :   0.9754 B( 28-C , 31-H ) :   0.9712

Dispersion correction           -0.016042394
FINAL SINGLE POINT ENERGY     -1339.876173315978

DIPOLE MOMENT
-------------
                                X             Y             Z
Electronic contribution:     -2.93077      14.96626     -22.52493
Nuclear contribution   :      2.86693     -15.48860      23.06656
                        -----------------------------------------
Total Dipole Moment    :     -0.06384      -0.52233       0.54163
                        -----------------------------------------
Magnitude (a.u.)       :      0.75516
Magnitude (Debye)      :      1.91947

Rotational constants in cm-1:     0.017894     0.010774     0.008009
Rotational constants in MHz :   536.437051   322.994567   240.102332

                             ****ORCA TERMINATED NORMALLY****
TOTAL RUN TIME: 0 days 0 hours 0 minutes 38 seconds 88 msec
