                         Program Version 4.2.1 -  RELEASE  -
|  1> ! wB97X-D3 SP def2-SVP
|  2> %pal
|  3> nprocs 16
|  4> end
|  5>
|  6> * xyz 0 1
|  7> S 	 -72.7492 	 38.4819 	 120.834
|  8> C 	 -74.3998 	 38.836 	 121.171
|  9> C 	 -75.2156 	 38.4493 	 120.167
| 10> C 	 -74.4907 	 37.9466 	 119.102
| 11> C 	 -73.1563 	 37.7571 	 119.309
| 12> H 	 -74.9631 	 37.5784 	 118.187
| 13> C 	 -76.7002 	 38.2983 	 120.202
| 14> H 	 -76.9795 	 38.8908 	 121.056
| 15> H 	 -76.9043 	 37.2386 	 120.34
| 16> C 	 -77.524 	 38.8157 	 118.998
| 17> H 	 -77.0916 	 39.7685 	 118.761
| 18> H 	 -77.4438 	 38.0643 	 118.152
| 19> C 	 -79.0221 	 38.9035 	 119.312
| 20> H 	 -79.2026 	 39.3741 	 120.272
| 21> H 	 -79.3871 	 39.4624 	 118.42
| 22> H 	 -79.6354 	 38.0381 	 119.26
| 23> S 	 -71.5483 	 38.4986 	 117.19
| 24> C 	 -70.5202 	 37.2394 	 116.445
| 25> C 	 -70.7521 	 35.9661 	 117.02
| 26> C 	 -71.6313 	 35.9628 	 118.119
| 27> C 	 -72.1193 	 37.2921 	 118.403
| 28> H 	 -70.1853 	 35.1402 	 116.624
| 29> C 	 -71.9039 	 34.6576 	 118.85
| 30> H 	 -71.7288 	 33.8362 	 118.234
| 31> H 	 -73.0134 	 34.6605 	 118.8
| 32> C 	 -71.5223 	 34.3876 	 120.295
| 33> H 	 -71.7627 	 35.3122 	 120.851
| 34> H 	 -70.3711 	 34.302 	 120.371
| 35> C 	 -72.1048 	 33.0914 	 120.904
| 36> H 	 -73.1346 	 33.0827 	 120.89
| 37> H 	 -71.8439 	 32.9371 	 121.929
| 38> H 	 -71.7413 	 32.1575 	 120.497
| 39> H 	 -74.7235 	 39.1163 	 122.201
| 40> H 	 -69.9299 	 37.3764 	 115.605
| 41> *
| 42>
| 43>                          ****END OF INPUT****

CARTESIAN COORDINATES (ANGSTROEM)
---------------------------------
  S    -72.749200   38.481900  120.834000
  C    -74.399800   38.836000  121.171000
  C    -75.215600   38.449300  120.167000
  C    -74.490700   37.946600  119.102000
  C    -73.156300   37.757100  119.309000
  H    -74.963100   37.578400  118.187000
  C    -76.700200   38.298300  120.202000
  H    -76.979500   38.890800  121.056000
  H    -76.904300   37.238600  120.340000
  C    -77.524000   38.815700  118.998000
  H    -77.091600   39.768500  118.761000
  H    -77.443800   38.064300  118.152000
  C    -79.022100   38.903500  119.312000
  H    -79.202600   39.374100  120.272000
  H    -79.387100   39.462400  118.420000
  H    -79.635400   38.038100  119.260000
  S    -71.548300   38.498600  117.190000
  C    -70.520200   37.239400  116.445000
  C    -70.752100   35.966100  117.020000
  C    -71.631300   35.962800  118.119000
  C    -72.119300   37.292100  118.403000
  H    -70.185300   35.140200  116.624000
  C    -71.903900   34.657600  118.850000
  H    -71.728800   33.836200  118.234000
  H    -73.013400   34.660500  118.800000
  C    -71.522300   34.387600  120.295000
  H    -71.762700   35.312200  120.851000
  H    -70.371100   34.302000  120.371000
  C    -72.104800   33.091400  120.904000
  H    -73.134600   33.082700  120.890000
  H    -71.843900   32.937100  121.929000
  H    -71.741300   32.157500  120.497000
  H    -74.723500   39.116300  122.201000
  H    -69.929900   37.376400  115.605000

 Total Charge           Charge          ....    0
 Multiplicity           Mult            ....    1
 Number of Electrons    NEL             ....  134
 Basis Dimension        Dim             ....  322

ORBITAL ENERGIES
----------------

  NO   OCC          E(Eh)            E(eV)
   0   2.0000     -88.969713     -2420.9890
   1   2.0000     -88.960689     -2420.7434
   2   2.0000     -10.332724      -281.1677
   3   2.0000     -10.322354      -280.8855
   4   2.0000     -10.318389      -280.7776
   5   2.0000     -10.312873      -280.6275
   6   2.0000     -10.310334      -280.5584
   7   2.0000     -10.294232      -280.1203
   8   2.0000     -10.293968      -280.1131
   9   2.0000     -10.292263      -280.0667
  10   2.0000     -10.288443      -279.9628
  11   2.0000     -10.287528      -279.9379
  12   2.0000     -10.286710      -279.9156
  13   2.0000     -10.284792      -279.8634
  14   2.0000     -10.278722      -279.6982
  15   2.0000     -10.270645      -279.4785
  16   2.0000      -8.082613      -219.9391
  17   2.0000      -8.076396      -219.7699
  18   2.0000      -6.041042      -164.3851
  19   2.0000      -6.037369      -164.2852
  20   2.0000      -6.034719      -164.2131
  21   2.0000      -6.033579      -164.1820
  22   2.0000      -6.030687      -164.1033
  23   2.0000      -6.027359      -164.0128
  24   2.0000      -1.010973       -27.5100
  25   2.0000      -0.976598       -26.5746
  26   2.0000      -0.914041       -24.8723
  27   2.0000      -0.905088       -24.6287
  28   2.0000      -0.869462       -23.6593
  29   2.0000      -0.851611       -23.1735
  30   2.0000      -0.849473       -23.1153
  31   2.0000      -0.811926       -22.0936
  32   2.0000      -0.788016       -21.4430
  33   2.0000      -0.772807       -21.0291
  34   2.0000      -0.714035       -19.4299
  35   2.0000      -0.699326       -19.0296
  36   2.0000      -0.688908       -18.7462
  37   2.0000      -0.660982       -17.9862
  38   2.0000      -0.640660       -17.4332
  39   2.0000      -0.622785       -16.9468
  40   2.0000      -0.593270       -16.1437
  41   2.0000      -0.578248       -15.7349
  42   2.0000      -0.564696       -15.3662
  43   2.0000      -0.558996       -15.2111
  44   2.0000      -0.524626       -14.2758
  45   2.0000      -0.520179       -14.1548
  46   2.0000      -0.516936       -14.0666
  47   2.0000      -0.512715       -13.9517
  48   2.0000      -0.504727       -13.7343
  49   2.0000      -0.502467       -13.6728
  50   2.0000      -0.490376       -13.3438
  51   2.0000      -0.479863       -13.0577
  52   2.0000      -0.476205       -12.9582
  53   2.0000      -0.464774       -12.6472
  54   2.0000      -0.458057       -12.4644
  55   2.0000      -0.449314       -12.2264
  56   2.0000      -0.446459       -12.1488
  57   2.0000      -0.437236       -11.8978
  58   2.0000      -0.429134       -11.6773
  59   2.0000      -0.427223       -11.6253
  60   2.0000      -0.422057       -11.4848
  61   2.0000      -0.412641       -11.2285
  62   2.0000      -0.404551       -11.0084
  63   2.0000      -0.337828        -9.1928
  64   2.0000      -0.328839        -8.9482
  65   2.0000      -0.317842        -8.6489
  66   2.0000      -0.305522        -8.3137
  67   0.0000       0.035721         0.9720
  68   0.0000       0.051563         1.4031
  69   0.0000       0.106957         2.9105
  70   0.0000       0.125041         3.4026
  71   0.0000       0.131169         3.5693

MULLIKEN ATOMIC CHARGES
-----------------------
   0 S :    0.111166
   1 C :   -0.149823
   2 C :   -0.070663
   3 C :    0.030482
   4 C :   -0.184687
   5 H :    0.010809
   6 C :    0.081821
   7 H :    0.003470
   8 H :    0.043575
   9 C :   -0.104633
  10 H :    0.035070
  11 H :    0.041749
  12 C :   -0.035197
  13 H :    0.032359
  14 H :    0.036679
  15 H :    0.026487
  16 S :    0.115937
  17 C :   -0.071609
  18 C :   -0.046972
  19 C :    0.001881
  20 C :   -0.175242
  21 H :    0.018524
  22 C :    0.090745
  23 H :   -0.007289
  24 H :    0.021924
  25 C :   -0.064092
  26 H :    0.030810
  27 H :    0.035558
  28 C :   -0.008921
  29 H :    0.014383
  30 H :    0.020788
  31 H :    0.022795
  32 H :    0.058419
  33 H :    0.033697
Sum of atomic charges:   -0.0000000

LOEWDIN ATOMIC CHARGES
----------------------
   0 S :    0.422644
   1 C :   -0.205451
   2 C :   -0.080650
   3 C :   -0.060145
   4 C :   -0.211364
   5 H :    0.032207
   6 C :   -0.029716
   7 H :    0.024203
   8 H :    0.034958
   9 C :   -0.038594
  10 H :    0.023702
  11 H :    0.030657
  12 C :   -0.066707
  13 H :    0.023117
  14 H :    0.037102
  15 H :    0.021099
  16 S :    0.388761
  17 C :   -0.163931
  18 C :   -0.069066
  19 C :   -0.040470
  20 C :   -0.196935
  21 H :    0.031315
  22 C :   -0.039409
  23 H :    0.019926
  24 H :    0.040344
  25 C :   -0.039862
  26 H :    0.025119
  27 H :    0.030313
  28 C :   -0.060121
  29 H :    0.014226
  30 H :    0.028728
  31 H :    0.026761
  32 H :    0.034233
  33 H :    0.013007

  Mayer bond orders larger than 0.100000
B(  0-S ,  1-C ) :   1.1571 B(  0-S ,  4-C ) :   1.1603 B(  1-C ,  2-C ) :   1.6022
B(  1-C , 32-H ) :   0.9590 B(  2-C ,  3-C ) :   1.2561 B(  2-C ,  6-C ) :   1.0223
B(  3-C ,  4-C ) :   1.5867 B(  3-C ,  5-H ) :   0.9991 B(  4-C , 20-C ) :   1.0085
B(  6-C ,  7-H ) :   0.9334 B(  6-C ,  8-H ) :   0.9366 B(  6-C ,  9-C ) :   1.0723
B(  9-C , 10-H ) :   0.9622 B(  9-C , 11-H ) :   0.9467 B(  9-C , 12-C ) :   1.0849
B( 12-C , 13-H ) :   0.9748 B( 12-C , 14-H ) :   0.9730 B( 12-C , 15-H ) :   0.9748
B( 16-S , 17-C ) :   1.1599 B( 16-S , 20-C ) :   1.1519 B( 17-C , 18-C ) :   1.5885
B( 17-C , 20-C ) :   0.1214 B( 17-C , 33-H ) :   0.9747 B( 18-C , 19-C ) :   1.2720
B( 18-C , 21-H ) :   0.9890 B( 19-C , 20-C ) :   1.5497 B( 19-C , 22-C ) :   1.0306
B( 22-C , 23-H ) :   0.9319 B( 22-C , 24-H ) :   0.9173 B( 22-C , 25-C ) :   1.0623
B( 25-C , 26-H ) :   0.9507 B( 25-C , 27-H ) :   0.9547 B( 25-C , 28-C ) :   1.0769
B( 28-C , 29-H ) :   0.9768 B( 28-C , 30-H ) :   0.9700 B( 28-C , 31-H ) :   0.9731

Dispersion correction           -0.013713470
FINAL SINGLE POINT ENERGY     -1339.857178787557

DIPOLE MOMENT
-------------
                                X             Y             Z
Electronic contribution:     18.57067      14.06142      -5.52233
Nuclear contribution   :    -19.06993     -14.59958       5.44863
                        -----------------------------------------
Total Dipole Moment    :     -0.49926      -0.53816      -0.07369
                        -----------------------------------------
Magnitude (a.u.)       :      0.73777
Magnitude (Debye)      :      1.87526

Rotational constants in cm-1:     0.017100     0.008002     0.006812
Rotational constants in MHz :   512.648796   239.896029   204.205968

                             ****ORCA TERMINATED NORMALLY****
TOTAL RUN TIME: 0 days 0 hours 0 minutes 32 seconds 553 msec
