                         Program Version 4.2.1 -  RELEASE  -
|  1> ! wB97X-D3 SP def2-SVP
|  2> %pal
|  3> nprocs 16
|  4> end
|  5>
|  6> * xyz 0 1
|  7> S 	 -55.0454 	 38.9659 	 112.819
|  8> C 	 -53.5731 	 39.7677 	 112.309
|  9> C 	 -53.878 	 40.889 	 111.551
| 10> C 	 -55.3006 	 41.0551 	 111.402
| 11> C 	 -56.0637 	 40.2166 	 112.173
| 12> H 	 -55.8191 	 41.857 	 110.892
| 13> C 	 -52.815 	 41.6539 	 110.706
| 14> H 	 -52.9231 	 41.2183 	 109.708
| 15> H 	 -51.8699 	 41.4505 	 111.051
| 16> C 	 -53.1553 	 43.1688 	 110.727
| 17> H 	 -52.3133 	 43.7186 	 110.249
| 18> H 	 -54.0759 	 43.3122 	 110.145
| 19> C 	 -53.2584 	 43.8105 	 112.043
| 20> H 	 -54.0472 	 43.3707 	 112.68
| 21> H 	 -52.3329 	 43.8327 	 112.573
| 22> H 	 -53.7158 	 44.8406 	 112.021
| 23> S 	 -58.0076 	 38.4712 	 111.952
| 24> C 	 -59.5926 	 39.0296 	 112.544
| 25> C 	 -59.7134 	 40.3767 	 112.415
| 26> C 	 -58.4931 	 41.0727 	 112.159
| 27> C 	 -57.5052 	 40.1318 	 112.134
| 28> H 	 -60.5881 	 40.8827 	 112.739
| 29> C 	 -58.3688 	 42.6162 	 112.33
| 30> H 	 -57.44 	 42.9128 	 111.9
| 31> H 	 -58.294 	 42.8688 	 113.375
| 32> C 	 -59.4944 	 43.4333 	 111.648
| 33> H 	 -60.3878 	 43.2515 	 112.288
| 34> H 	 -59.7301 	 43.1916 	 110.598
| 35> C 	 -59.1667 	 44.9504 	 111.687
| 36> H 	 -58.2835 	 45.1387 	 110.972
| 37> H 	 -58.8006 	 45.2215 	 112.692
| 38> H 	 -60.0414 	 45.5703 	 111.473
| 39> H 	 -52.5421 	 39.4399 	 112.402
| 40> H 	 -60.488 	 38.4537 	 112.652
| 41> *
| 42>
| 43>                          ****END OF INPUT****

CARTESIAN COORDINATES (ANGSTROEM)
---------------------------------
  S    -55.045400   38.965900  112.819000
  C    -53.573100   39.767700  112.309000
  C    -53.878000   40.889000  111.551000
  C    -55.300600   41.055100  111.402000
  C    -56.063700   40.216600  112.173000
  H    -55.819100   41.857000  110.892000
  C    -52.815000   41.653900  110.706000
  H    -52.923100   41.218300  109.708000
  H    -51.869900   41.450500  111.051000
  C    -53.155300   43.168800  110.727000
  H    -52.313300   43.718600  110.249000
  H    -54.075900   43.312200  110.145000
  C    -53.258400   43.810500  112.043000
  H    -54.047200   43.370700  112.680000
  H    -52.332900   43.832700  112.573000
  H    -53.715800   44.840600  112.021000
  S    -58.007600   38.471200  111.952000
  C    -59.592600   39.029600  112.544000
  C    -59.713400   40.376700  112.415000
  C    -58.493100   41.072700  112.159000
  C    -57.505200   40.131800  112.134000
  H    -60.588100   40.882700  112.739000
  C    -58.368800   42.616200  112.330000
  H    -57.440000   42.912800  111.900000
  H    -58.294000   42.868800  113.375000
  C    -59.494400   43.433300  111.648000
  H    -60.387800   43.251500  112.288000
  H    -59.730100   43.191600  110.598000
  C    -59.166700   44.950400  111.687000
  H    -58.283500   45.138700  110.972000
  H    -58.800600   45.221500  112.692000
  H    -60.041400   45.570300  111.473000
  H    -52.542100   39.439900  112.402000
  H    -60.488000   38.453700  112.652000

 Total Charge           Charge          ....    0
 Multiplicity           Mult            ....    1
 Number of Electrons    NEL             ....  134
 Basis Dimension        Dim             ....  322

ORBITAL ENERGIES
----------------

  NO   OCC          E(Eh)            E(eV)
   0   2.0000     -88.965460     -2420.8732
   1   2.0000     -88.964306     -2420.8418
   2   2.0000     -10.324668      -280.9485
   3   2.0000     -10.323114      -280.9062
   4   2.0000     -10.311937      -280.6021
   5   2.0000     -10.309470      -280.5349
   6   2.0000     -10.302717      -280.3512
   7   2.0000     -10.301731      -280.3244
   8   2.0000     -10.297722      -280.2153
   9   2.0000     -10.296497      -280.1819
  10   2.0000     -10.291576      -280.0480
  11   2.0000     -10.290645      -280.0227
  12   2.0000     -10.290621      -280.0220
  13   2.0000     -10.287898      -279.9479
  14   2.0000     -10.287086      -279.9259
  15   2.0000     -10.273081      -279.5447
  16   2.0000      -8.079985      -219.8676
  17   2.0000      -8.079116      -219.8439
  18   2.0000      -6.038612      -164.3190
  19   2.0000      -6.037677      -164.2935
  20   2.0000      -6.034488      -164.2068
  21   2.0000      -6.034004      -164.1936
  22   2.0000      -6.030627      -164.1017
  23   2.0000      -6.029391      -164.0681
  24   2.0000      -1.012579       -27.5537
  25   2.0000      -0.984479       -26.7890
  26   2.0000      -0.914761       -24.8919
  27   2.0000      -0.907897       -24.7051
  28   2.0000      -0.872969       -23.7547
  29   2.0000      -0.852981       -23.2108
  30   2.0000      -0.840973       -22.8840
  31   2.0000      -0.816393       -22.2152
  32   2.0000      -0.783999       -21.3337
  33   2.0000      -0.774783       -21.0829
  34   2.0000      -0.706636       -19.2285
  35   2.0000      -0.699553       -19.0358
  36   2.0000      -0.689357       -18.7584
  37   2.0000      -0.659855       -17.9556
  38   2.0000      -0.638987       -17.3877
  39   2.0000      -0.621457       -16.9107
  40   2.0000      -0.597337       -16.2544
  41   2.0000      -0.572254       -15.5718
  42   2.0000      -0.565560       -15.3897
  43   2.0000      -0.556587       -15.1455
  44   2.0000      -0.536748       -14.6056
  45   2.0000      -0.527686       -14.3591
  46   2.0000      -0.519887       -14.1468
  47   2.0000      -0.513575       -13.9751
  48   2.0000      -0.503763       -13.7081
  49   2.0000      -0.500236       -13.6121
  50   2.0000      -0.491767       -13.3817
  51   2.0000      -0.479825       -13.0567
  52   2.0000      -0.467935       -12.7331
  53   2.0000      -0.465447       -12.6655
  54   2.0000      -0.459982       -12.5167
  55   2.0000      -0.448294       -12.1987
  56   2.0000      -0.444828       -12.1044
  57   2.0000      -0.441138       -12.0040
  58   2.0000      -0.434320       -11.8185
  59   2.0000      -0.428336       -11.6556
  60   2.0000      -0.422804       -11.5051
  61   2.0000      -0.418908       -11.3991
  62   2.0000      -0.399265       -10.8646
  63   2.0000      -0.351141        -9.5550
  64   2.0000      -0.334004        -9.0887
  65   2.0000      -0.326064        -8.8726
  66   2.0000      -0.287637        -7.8270
  67   0.0000       0.022736         0.6187
  68   0.0000       0.077554         2.1103
  69   0.0000       0.096488         2.6256
  70   0.0000       0.122874         3.3436
  71   0.0000       0.129969         3.5366

MULLIKEN ATOMIC CHARGES
-----------------------
   0 S :    0.109170
   1 C :   -0.115914
   2 C :   -0.123132
   3 C :    0.005828
   4 C :   -0.138295
   5 H :    0.014886
   6 C :    0.139115
   7 H :    0.050384
   8 H :   -0.008733
   9 C :   -0.096336
  10 H :    0.034137
  11 H :    0.033103
  12 C :   -0.058559
  13 H :    0.031980
  14 H :    0.032673
  15 H :    0.032048
  16 S :    0.098573
  17 C :   -0.064768
  18 C :   -0.045095
  19 C :   -0.017990
  20 C :   -0.162820
  21 H :    0.010397
  22 C :    0.099082
  23 H :   -0.010775
  24 H :    0.043590
  25 C :   -0.118607
  26 H :    0.038480
  27 H :    0.046952
  28 C :   -0.066919
  29 H :    0.045058
  30 H :    0.026749
  31 H :    0.047245
  32 H :    0.046540
  33 H :    0.041953
Sum of atomic charges:    0.0000000

LOEWDIN ATOMIC CHARGES
----------------------
   0 S :    0.408091
   1 C :   -0.204810
   2 C :   -0.060034
   3 C :   -0.068091
   4 C :   -0.203165
   5 H :    0.025398
   6 C :   -0.014493
   7 H :    0.040678
   8 H :    0.013209
   9 C :   -0.049701
  10 H :    0.029881
  11 H :    0.024449
  12 C :   -0.075236
  13 H :    0.026290
  14 H :    0.022011
  15 H :    0.034970
  16 S :    0.385231
  17 C :   -0.176498
  18 C :   -0.059116
  19 C :   -0.061150
  20 C :   -0.173882
  21 H :    0.024404
  22 C :   -0.020882
  23 H :    0.017608
  24 H :    0.035833
  25 C :   -0.044080
  26 H :    0.024847
  27 H :    0.029122
  28 C :   -0.070359
  29 H :    0.032967
  30 H :    0.023072
  31 H :    0.027916
  32 H :    0.031708
  33 H :    0.023812

  Mayer bond orders larger than 0.100000
B(  0-S ,  1-C ) :   1.1315 B(  0-S ,  4-C ) :   1.1459 B(  1-C ,  2-C ) :   1.6162
B(  1-C , 32-H ) :   0.9665 B(  2-C ,  3-C ) :   1.2347 B(  2-C ,  6-C ) :   1.0111
B(  3-C ,  4-C ) :   1.5726 B(  3-C ,  5-H ) :   0.9841 B(  4-C , 20-C ) :   1.0602
B(  6-C ,  7-H ) :   0.9441 B(  6-C ,  8-H ) :   0.9362 B(  6-C ,  9-C ) :   1.0676
B(  9-C , 10-H ) :   0.9558 B(  9-C , 11-H ) :   0.9517 B(  9-C , 12-C ) :   1.0967
B( 12-C , 13-H ) :   0.9625 B( 12-C , 14-H ) :   0.9745 B( 12-C , 15-H ) :   0.9665
B( 16-S , 17-C ) :   1.0960 B( 16-S , 20-C ) :   1.1476 B( 17-C , 18-C ) :   1.6891
B( 17-C , 33-H ) :   0.9651 B( 18-C , 19-C ) :   1.1916 B( 18-C , 21-H ) :   0.9844
B( 19-C , 20-C ) :   1.6420 B( 19-C , 22-C ) :   1.0337 B( 22-C , 23-H ) :   0.9341
B( 22-C , 24-H ) :   0.9322 B( 22-C , 25-C ) :   1.0557 B( 25-C , 26-H ) :   0.9517
B( 25-C , 27-H ) :   0.9627 B( 25-C , 28-C ) :   1.0831 B( 28-C , 29-H ) :   0.9750
B( 28-C , 30-H ) :   0.9719 B( 28-C , 31-H ) :   0.9743

Dispersion correction           -0.014181678
FINAL SINGLE POINT ENERGY     -1339.857966572390

DIPOLE MOMENT
-------------
                                X             Y             Z
Electronic contribution:     -2.49805     -30.99178       4.59871
Nuclear contribution   :      2.49259      31.68364      -4.79600
                        -----------------------------------------
Total Dipole Moment    :     -0.00546       0.69186      -0.19730
                        -----------------------------------------
Magnitude (a.u.)       :      0.71946
Magnitude (Debye)      :      1.82873

Rotational constants in cm-1:     0.015693     0.010658     0.006690
Rotational constants in MHz :   470.471612   319.508734   200.555188

                             ****ORCA TERMINATED NORMALLY****
TOTAL RUN TIME: 0 days 0 hours 0 minutes 29 seconds 216 msec
