                         Program Version 4.2.1 -  RELEASE  -
|  1> ! wB97X-D3 SP def2-SVP
|  2> %pal
|  3> nprocs 16
|  4> end
|  5>
|  6> * xyz 0 1
|  7> S 	 -112.904 	 54.3761 	 112.416
|  8> C 	 -111.37 	 54.1339 	 113.078
|  9> C 	 -111.013 	 55.1054 	 114.016
| 10> C 	 -112.092 	 56.0375 	 114.142
| 11> C 	 -113.266 	 55.7149 	 113.466
| 12> H 	 -112.05 	 56.9581 	 114.716
| 13> C 	 -109.704 	 55.3074 	 114.734
| 14> H 	 -109.811 	 55.0268 	 115.728
| 15> H 	 -109.573 	 56.4221 	 114.788
| 16> C 	 -108.476 	 54.5846 	 114.299
| 17> H 	 -107.651 	 54.856 	 114.984
| 18> H 	 -108.624 	 53.4913 	 114.308
| 19> C 	 -107.95 	 54.8817 	 112.844
| 20> H 	 -107.719 	 53.9621 	 112.292
| 21> H 	 -108.573 	 55.5922 	 112.358
| 22> H 	 -106.971 	 55.3447 	 112.871
| 23> S 	 -114.567 	 57.3275 	 111.584
| 24> C 	 -115.874 	 58.3718 	 112.213
| 25> C 	 -115.967 	 58.3591 	 113.608
| 26> C 	 -115.093 	 57.3682 	 114.237
| 27> C 	 -114.347 	 56.6612 	 113.287
| 28> H 	 -116.691 	 59.0254 	 114.1
| 29> C 	 -115.098 	 57.1019 	 115.751
| 30> H 	 -114.845 	 56.089 	 115.917
| 31> H 	 -116.153 	 57.1028 	 116.11
| 32> C 	 -114.261 	 58.1067 	 116.597
| 33> H 	 -113.177 	 57.9479 	 116.433
| 34> H 	 -114.584 	 57.7888 	 117.588
| 35> C 	 -114.636 	 59.5572 	 116.227
| 36> H 	 -114.145 	 59.9156 	 115.289
| 37> H 	 -114.203 	 60.1009 	 117.102
| 38> H 	 -115.709 	 59.8061 	 116.085
| 39> H 	 -110.741 	 53.3033 	 112.779
| 40> H 	 -116.465 	 59.0575 	 111.567
| 41> *
| 42>
| 43>                          ****END OF INPUT****

CARTESIAN COORDINATES (ANGSTROEM)
---------------------------------
  S    -112.904000   54.376100  112.416000
  C    -111.370000   54.133900  113.078000
  C    -111.013000   55.105400  114.016000
  C    -112.092000   56.037500  114.142000
  C    -113.266000   55.714900  113.466000
  H    -112.050000   56.958100  114.716000
  C    -109.704000   55.307400  114.734000
  H    -109.811000   55.026800  115.728000
  H    -109.573000   56.422100  114.788000
  C    -108.476000   54.584600  114.299000
  H    -107.651000   54.856000  114.984000
  H    -108.624000   53.491300  114.308000
  C    -107.950000   54.881700  112.844000
  H    -107.719000   53.962100  112.292000
  H    -108.573000   55.592200  112.358000
  H    -106.971000   55.344700  112.871000
  S    -114.567000   57.327500  111.584000
  C    -115.874000   58.371800  112.213000
  C    -115.967000   58.359100  113.608000
  C    -115.093000   57.368200  114.237000
  C    -114.347000   56.661200  113.287000
  H    -116.691000   59.025400  114.100000
  C    -115.098000   57.101900  115.751000
  H    -114.845000   56.089000  115.917000
  H    -116.153000   57.102800  116.110000
  C    -114.261000   58.106700  116.597000
  H    -113.177000   57.947900  116.433000
  H    -114.584000   57.788800  117.588000
  C    -114.636000   59.557200  116.227000
  H    -114.145000   59.915600  115.289000
  H    -114.203000   60.100900  117.102000
  H    -115.709000   59.806100  116.085000
  H    -110.741000   53.303300  112.779000
  H    -116.465000   59.057500  111.567000

 Total Charge           Charge          ....    0
 Multiplicity           Mult            ....    1
 Number of Electrons    NEL             ....  134
 Basis Dimension        Dim             ....  322

ORBITAL ENERGIES
----------------

  NO   OCC          E(Eh)            E(eV)
   0   2.0000     -88.966915     -2420.9128
   1   2.0000     -88.963396     -2420.8171
   2   2.0000     -10.332146      -281.1520
   3   2.0000     -10.324538      -280.9450
   4   2.0000     -10.323426      -280.9147
   5   2.0000     -10.313722      -280.6506
   6   2.0000     -10.308648      -280.5126
   7   2.0000     -10.302843      -280.3546
   8   2.0000     -10.300392      -280.2879
   9   2.0000     -10.294813      -280.1361
  10   2.0000     -10.294627      -280.1310
  11   2.0000     -10.291437      -280.0442
  12   2.0000     -10.291195      -280.0377
  13   2.0000     -10.290524      -280.0194
  14   2.0000     -10.286341      -279.9056
  15   2.0000     -10.273326      -279.5514
  16   2.0000      -8.082764      -219.9432
  17   2.0000      -8.076353      -219.7687
  18   2.0000      -6.041123      -164.3873
  19   2.0000      -6.037019      -164.2756
  20   2.0000      -6.034992      -164.2205
  21   2.0000      -6.033706      -164.1855
  22   2.0000      -6.031389      -164.1224
  23   2.0000      -6.026800      -163.9976
  24   2.0000      -1.007003       -27.4019
  25   2.0000      -0.971380       -26.4326
  26   2.0000      -0.916132       -24.9292
  27   2.0000      -0.903957       -24.5979
  28   2.0000      -0.866751       -23.5855
  29   2.0000      -0.851146       -23.1609
  30   2.0000      -0.837781       -22.7972
  31   2.0000      -0.806934       -21.9578
  32   2.0000      -0.788480       -21.4556
  33   2.0000      -0.773802       -21.0562
  34   2.0000      -0.706912       -19.2361
  35   2.0000      -0.701613       -19.0919
  36   2.0000      -0.685090       -18.6422
  37   2.0000      -0.658608       -17.9216
  38   2.0000      -0.641540       -17.4572
  39   2.0000      -0.606879       -16.5140
  40   2.0000      -0.590074       -16.0567
  41   2.0000      -0.573671       -15.6104
  42   2.0000      -0.561376       -15.2758
  43   2.0000      -0.554061       -15.0768
  44   2.0000      -0.539462       -14.6795
  45   2.0000      -0.537288       -14.6203
  46   2.0000      -0.514893       -14.0110
  47   2.0000      -0.513868       -13.9830
  48   2.0000      -0.498723       -13.5709
  49   2.0000      -0.495382       -13.4800
  50   2.0000      -0.485814       -13.2197
  51   2.0000      -0.480315       -13.0700
  52   2.0000      -0.475916       -12.9503
  53   2.0000      -0.458951       -12.4887
  54   2.0000      -0.456928       -12.4336
  55   2.0000      -0.446227       -12.1425
  56   2.0000      -0.442187       -12.0325
  57   2.0000      -0.434465       -11.8224
  58   2.0000      -0.430338       -11.7101
  59   2.0000      -0.426618       -11.6089
  60   2.0000      -0.422200       -11.4886
  61   2.0000      -0.414964       -11.2917
  62   2.0000      -0.409255       -11.1364
  63   2.0000      -0.345689        -9.4067
  64   2.0000      -0.328898        -8.9498
  65   2.0000      -0.324580        -8.8323
  66   2.0000      -0.290588        -7.9073
  67   0.0000       0.028673         0.7802
  68   0.0000       0.066110         1.7989
  69   0.0000       0.104968         2.8563
  70   0.0000       0.122337         3.3289
  71   0.0000       0.126695         3.4475

MULLIKEN ATOMIC CHARGES
-----------------------
   0 S :    0.121909
   1 C :   -0.125295
   2 C :   -0.079367
   3 C :    0.004823
   4 C :   -0.155009
   5 H :    0.007552
   6 C :    0.099604
   7 H :    0.022322
   8 H :    0.033900
   9 C :   -0.106226
  10 H :    0.039658
  11 H :    0.034556
  12 C :   -0.049944
  13 H :    0.032578
  14 H :    0.036504
  15 H :    0.019533
  16 S :    0.081332
  17 C :   -0.105437
  18 C :   -0.046186
  19 C :   -0.049989
  20 C :   -0.136508
  21 H :    0.030298
  22 C :    0.051422
  23 H :    0.016663
  24 H :    0.030258
  25 C :   -0.052772
  26 H :    0.041089
  27 H :    0.035762
  28 C :   -0.093562
  29 H :    0.057494
  30 H :    0.045345
  31 H :    0.037932
  32 H :    0.050569
  33 H :    0.069193
Sum of atomic charges:   -0.0000000

LOEWDIN ATOMIC CHARGES
----------------------
   0 S :    0.442091
   1 C :   -0.211363
   2 C :   -0.067003
   3 C :   -0.049336
   4 C :   -0.218479
   5 H :    0.026535
   6 C :   -0.036528
   7 H :    0.030291
   8 H :    0.039656
   9 C :   -0.045155
  10 H :    0.033176
  11 H :    0.026470
  12 C :   -0.072497
  13 H :    0.028006
  14 H :    0.022281
  15 H :    0.024959
  16 S :    0.343418
  17 C :   -0.178197
  18 C :   -0.073976
  19 C :   -0.052623
  20 C :   -0.166123
  21 H :    0.033933
  22 C :   -0.034488
  23 H :    0.023380
  24 H :    0.034413
  25 C :   -0.034388
  26 H :    0.026280
  27 H :    0.026832
  28 C :   -0.076953
  29 H :    0.034452
  30 H :    0.033103
  31 H :    0.024898
  32 H :    0.028143
  33 H :    0.034792

  Mayer bond orders larger than 0.100000
B(  0-S ,  1-C ) :   1.1771 B(  0-S ,  4-C ) :   1.1539 B(  1-C ,  2-C ) :   1.5627
B(  1-C , 32-H ) :   0.9645 B(  2-C ,  3-C ) :   1.2886 B(  2-C ,  6-C ) :   1.0076
B(  3-C ,  4-C ) :   1.5343 B(  3-C ,  5-H ) :   0.9870 B(  4-C , 20-C ) :   1.0606
B(  6-C ,  7-H ) :   0.9186 B(  6-C ,  8-H ) :   0.9397 B(  6-C ,  9-C ) :   1.1005
B(  9-C , 10-H ) :   0.9557 B(  9-C , 11-H ) :   0.9576 B(  9-C , 12-C ) :   1.0570
B( 12-C , 13-H ) :   0.9797 B( 12-C , 14-H ) :   0.9826 B( 12-C , 15-H ) :   0.9778
B( 16-S , 17-C ) :   1.1271 B( 16-S , 20-C ) :   1.1064 B( 17-C , 18-C ) :   1.6575
B( 17-C , 33-H ) :   0.9606 B( 18-C , 19-C ) :   1.1887 B( 18-C , 21-H ) :   0.9834
B( 19-C , 20-C ) :   1.6458 B( 19-C , 22-C ) :   1.0339 B( 22-C , 23-H ) :   0.9341
B( 22-C , 24-H ) :   0.9445 B( 22-C , 25-C ) :   1.0613 B( 25-C , 26-H ) :   0.9503
B( 25-C , 27-H ) :   0.9582 B( 25-C , 28-C ) :   1.0717 B( 28-C , 29-H ) :   0.9671
B( 28-C , 30-H ) :   0.9730 B( 28-C , 31-H ) :   0.9752

Dispersion correction           -0.014877260
FINAL SINGLE POINT ENERGY     -1339.870204166619

DIPOLE MOMENT
-------------
                                X             Y             Z
Electronic contribution:    -14.71108      -6.50906     -17.42689
Nuclear contribution   :     15.11018       6.76534      18.04565
                        -----------------------------------------
Total Dipole Moment    :      0.39910       0.25628       0.61876
                        -----------------------------------------
Magnitude (a.u.)       :      0.77963
Magnitude (Debye)      :      1.98166

Rotational constants in cm-1:     0.021208     0.008165     0.006670
Rotational constants in MHz :   635.803195   244.780808   199.975518

                             ****ORCA TERMINATED NORMALLY****
TOTAL RUN TIME: 0 days 0 hours 0 minutes 34 seconds 789 msec
