                         Program Version 4.2.1 -  RELEASE  -
|  1> ! wB97X-D3 SP def2-SVP
|  2> %pal
|  3> nprocs 16
|  4> end
|  5>
|  6> * xyz 0 1
|  7> S 	 -12.0637 	 34.86 	 37.0149
|  8> C 	 -10.8852 	 34.9246 	 35.741
|  9> C 	 -10.7495 	 36.256 	 35.3135
| 10> C 	 -11.6988 	 37.076 	 35.9357
| 11> C 	 -12.5715 	 36.5284 	 36.8502
| 12> H 	 -11.9079 	 38.1233 	 35.6399
| 13> C 	 -9.92418 	 36.7468 	 34.1121
| 14> H 	 -9.76665 	 37.8564 	 34.2568
| 15> H 	 -10.5081 	 36.7597 	 33.1963
| 16> C 	 -8.54794 	 36.2043 	 33.7831
| 17> H 	 -7.92338 	 36.6952 	 34.5224
| 18> H 	 -8.60034 	 35.1222 	 33.845
| 19> C 	 -7.97907 	 36.6484 	 32.4098
| 20> H 	 -7.09679 	 36.1703 	 32.2579
| 21> H 	 -8.68571 	 36.3542 	 31.6197
| 22> H 	 -7.81566 	 37.7266 	 32.2648
| 23> S 	 -13.2449 	 38.1697 	 38.8627
| 24> C 	 -14.9144 	 38.4289 	 39.1943
| 25> C 	 -15.6681 	 37.4379 	 38.6639
| 26> C 	 -15.0532 	 36.7668 	 37.6366
| 27> C 	 -13.7318 	 37.1442 	 37.5132
| 28> H 	 -16.6467 	 37.262 	 39.122
| 29> C 	 -15.727 	 35.723 	 36.7768
| 30> H 	 -16.7813 	 35.9469 	 36.9858
| 31> H 	 -15.649 	 34.6781 	 37.1731
| 32> C 	 -15.3363 	 35.5802 	 35.3191
| 33> H 	 -15.7928 	 34.8076 	 34.7367
| 34> H 	 -14.3492 	 35.0823 	 35.3858
| 35> C 	 -15.3901 	 36.9732 	 34.6263
| 36> H 	 -15.2505 	 36.7737 	 33.6137
| 37> H 	 -14.5616 	 37.6044 	 34.8538
| 38> H 	 -16.3458 	 37.515 	 34.7812
| 39> H 	 -10.4925 	 34.1084 	 35.1757
| 40> H 	 -15.2234 	 38.9078 	 40.1341
| 41> *
| 42>
| 43>                          ****END OF INPUT****

CARTESIAN COORDINATES (ANGSTROEM)
---------------------------------
  S    -12.063700   34.860000   37.014900
  C    -10.885200   34.924600   35.741000
  C    -10.749500   36.256000   35.313500
  C    -11.698800   37.076000   35.935700
  C    -12.571500   36.528400   36.850200
  H    -11.907900   38.123300   35.639900
  C     -9.924180   36.746800   34.112100
  H     -9.766650   37.856400   34.256800
  H    -10.508100   36.759700   33.196300
  C     -8.547940   36.204300   33.783100
  H     -7.923380   36.695200   34.522400
  H     -8.600340   35.122200   33.845000
  C     -7.979070   36.648400   32.409800
  H     -7.096790   36.170300   32.257900
  H     -8.685710   36.354200   31.619700
  H     -7.815660   37.726600   32.264800
  S    -13.244900   38.169700   38.862700
  C    -14.914400   38.428900   39.194300
  C    -15.668100   37.437900   38.663900
  C    -15.053200   36.766800   37.636600
  C    -13.731800   37.144200   37.513200
  H    -16.646700   37.262000   39.122000
  C    -15.727000   35.723000   36.776800
  H    -16.781300   35.946900   36.985800
  H    -15.649000   34.678100   37.173100
  C    -15.336300   35.580200   35.319100
  H    -15.792800   34.807600   34.736700
  H    -14.349200   35.082300   35.385800
  C    -15.390100   36.973200   34.626300
  H    -15.250500   36.773700   33.613700
  H    -14.561600   37.604400   34.853800
  H    -16.345800   37.515000   34.781200
  H    -10.492500   34.108400   35.175700
  H    -15.223400   38.907800   40.134100

 Total Charge           Charge          ....    0
 Multiplicity           Mult            ....    1
 Number of Electrons    NEL             ....  134
 Basis Dimension        Dim             ....  322

ORBITAL ENERGIES
----------------

  NO   OCC          E(Eh)            E(eV)
   0   2.0000     -88.965271     -2420.8681
   1   2.0000     -88.964143     -2420.8374
   2   2.0000     -10.328271      -281.0466
   3   2.0000     -10.325743      -280.9777
   4   2.0000     -10.315132      -280.6890
   5   2.0000     -10.311333      -280.5856
   6   2.0000     -10.304053      -280.3875
   7   2.0000     -10.302653      -280.3494
   8   2.0000     -10.293221      -280.0928
   9   2.0000     -10.291424      -280.0439
  10   2.0000     -10.290516      -280.0192
  11   2.0000     -10.289488      -279.9912
  12   2.0000     -10.287123      -279.9269
  13   2.0000     -10.281035      -279.7612
  14   2.0000     -10.276060      -279.6258
  15   2.0000     -10.265267      -279.3321
  16   2.0000      -8.079543      -219.8555
  17   2.0000      -8.079490      -219.8541
  18   2.0000      -6.037969      -164.3015
  19   2.0000      -6.037699      -164.2942
  20   2.0000      -6.034366      -164.2034
  21   2.0000      -6.033801      -164.1881
  22   2.0000      -6.030561      -164.0999
  23   2.0000      -6.030184      -164.0896
  24   2.0000      -1.015165       -27.6240
  25   2.0000      -0.992432       -27.0055
  26   2.0000      -0.911572       -24.8051
  27   2.0000      -0.908489       -24.7212
  28   2.0000      -0.872336       -23.7375
  29   2.0000      -0.851272       -23.1643
  30   2.0000      -0.846371       -23.0309
  31   2.0000      -0.813986       -22.1497
  32   2.0000      -0.785591       -21.3770
  33   2.0000      -0.776844       -21.1390
  34   2.0000      -0.713294       -19.4097
  35   2.0000      -0.704219       -19.1628
  36   2.0000      -0.689469       -18.7614
  37   2.0000      -0.662948       -18.0397
  38   2.0000      -0.639596       -17.4043
  39   2.0000      -0.612134       -16.6570
  40   2.0000      -0.589309       -16.0359
  41   2.0000      -0.578008       -15.7284
  42   2.0000      -0.568575       -15.4717
  43   2.0000      -0.551736       -15.0135
  44   2.0000      -0.547443       -14.8967
  45   2.0000      -0.521616       -14.1939
  46   2.0000      -0.520380       -14.1603
  47   2.0000      -0.512756       -13.9528
  48   2.0000      -0.498936       -13.5767
  49   2.0000      -0.492424       -13.3995
  50   2.0000      -0.487086       -13.2543
  51   2.0000      -0.484905       -13.1949
  52   2.0000      -0.473679       -12.8895
  53   2.0000      -0.470799       -12.8111
  54   2.0000      -0.456585       -12.4243
  55   2.0000      -0.451064       -12.2741
  56   2.0000      -0.445448       -12.1213
  57   2.0000      -0.442876       -12.0513
  58   2.0000      -0.430056       -11.7024
  59   2.0000      -0.420087       -11.4312
  60   2.0000      -0.417250       -11.3540
  61   2.0000      -0.411949       -11.2097
  62   2.0000      -0.400195       -10.8899
  63   2.0000      -0.334511        -9.1025
  64   2.0000      -0.332555        -9.0493
  65   2.0000      -0.322233        -8.7684
  66   2.0000      -0.304847        -8.2953
  67   0.0000       0.022724         0.6183
  68   0.0000       0.058844         1.6012
  69   0.0000       0.102030         2.7764
  70   0.0000       0.122648         3.3374
  71   0.0000       0.130042         3.5386

MULLIKEN ATOMIC CHARGES
-----------------------
   0 S :    0.108644
   1 C :   -0.126112
   2 C :   -0.037627
   3 C :    0.017084
   4 C :   -0.172175
   5 H :    0.019623
   6 C :    0.002326
   7 H :    0.025749
   8 H :    0.030963
   9 C :   -0.071473
  10 H :    0.037607
  11 H :    0.029710
  12 C :   -0.025403
  13 H :    0.017189
  14 H :    0.025551
  15 H :    0.034822
  16 S :    0.113925
  17 C :   -0.069387
  18 C :   -0.086455
  19 C :    0.009296
  20 C :   -0.183321
  21 H :    0.028496
  22 C :    0.051076
  23 H :    0.010693
  24 H :    0.041797
  25 C :   -0.054858
  26 H :    0.017235
  27 H :    0.025031
  28 C :   -0.007173
  29 H :    0.009534
  30 H :    0.025212
  31 H :    0.040791
  32 H :    0.050516
  33 H :    0.061114
Sum of atomic charges:    0.0000000

LOEWDIN ATOMIC CHARGES
----------------------
   0 S :    0.415628
   1 C :   -0.200538
   2 C :   -0.066597
   3 C :   -0.068303
   4 C :   -0.207498
   5 H :    0.033957
   6 C :   -0.043331
   7 H :    0.035193
   8 H :    0.027404
   9 C :   -0.037900
  10 H :    0.029196
  11 H :    0.021109
  12 C :   -0.055783
  13 H :    0.014019
  14 H :    0.025778
  15 H :    0.029078
  16 S :    0.424194
  17 C :   -0.194066
  18 C :   -0.071854
  19 C :   -0.052188
  20 C :   -0.193346
  21 H :    0.038163
  22 C :   -0.038789
  23 H :    0.025455
  24 H :    0.039603
  25 C :   -0.046996
  26 H :    0.024106
  27 H :    0.025555
  28 C :   -0.060400
  29 H :    0.017200
  30 H :    0.022664
  31 H :    0.031679
  32 H :    0.027021
  33 H :    0.030586

  Mayer bond orders larger than 0.100000
B(  0-S ,  1-C ) :   1.1632 B(  0-S ,  4-C ) :   1.1337 B(  1-C ,  2-C ) :   1.5572
B(  1-C ,  4-C ) :   0.1059 B(  1-C , 32-H ) :   0.9718 B(  2-C ,  3-C ) :   1.2858
B(  2-C ,  6-C ) :   1.0085 B(  3-C ,  4-C ) :   1.5694 B(  3-C ,  5-H ) :   0.9855
B(  4-C , 20-C ) :   1.0235 B(  6-C ,  7-H ) :   0.9473 B(  6-C ,  8-H ) :   0.9433
B(  6-C ,  9-C ) :   1.0592 B(  9-C , 10-H ) :   0.9594 B(  9-C , 11-H ) :   0.9557
B(  9-C , 12-C ) :   1.0897 B( 12-C , 13-H ) :   0.9727 B( 12-C , 14-H ) :   0.9733
B( 12-C , 15-H ) :   0.9752 B( 16-S , 17-C ) :   1.1669 B( 16-S , 20-C ) :   1.1735
B( 17-C , 18-C ) :   1.6058 B( 17-C , 20-C ) :   0.1046 B( 17-C , 33-H ) :   0.9574
B( 18-C , 19-C ) :   1.2727 B( 18-C , 21-H ) :   0.9848 B( 19-C , 20-C ) :   1.5510
B( 19-C , 22-C ) :   1.0219 B( 22-C , 23-H ) :   0.9354 B( 22-C , 24-H ) :   0.9301
B( 22-C , 25-C ) :   1.0786 B( 25-C , 26-H ) :   0.9531 B( 25-C , 27-H ) :   0.9346
B( 25-C , 28-C ) :   1.0734 B( 28-C , 29-H ) :   0.9714 B( 28-C , 30-H ) :   0.9686
B( 28-C , 31-H ) :   0.9775

Dispersion correction           -0.015357545
FINAL SINGLE POINT ENERGY     -1339.841351338091

DIPOLE MOMENT
-------------
                                X             Y             Z
Electronic contribution:     -4.74482       0.66209      24.02542
Nuclear contribution   :      4.63339      -0.79608     -24.41317
                        -----------------------------------------
Total Dipole Moment    :     -0.11143      -0.13400      -0.38775
                        -----------------------------------------
Magnitude (a.u.)       :      0.42511
Magnitude (Debye)      :      1.08055

Rotational constants in cm-1:     0.024455     0.007544     0.006905
Rotational constants in MHz :   733.141841   226.148466   207.002794

                             ****ORCA TERMINATED NORMALLY****
TOTAL RUN TIME: 0 days 0 hours 0 minutes 33 seconds 429 msec
