                         Program Version 4.2.1 -  RELEASE  -
|  1> ! wB97X-D3 SP def2-SVP
|  2> %pal
|  3> nprocs 16
|  4> end
|  5>
|  6> * xyz 0 1
|  7> S 	 4.71637 	 78.8706 	 45.2331
|  8> C 	 4.86374 	 77.3866 	 44.3119
|  9> C 	 4.66492 	 76.2956 	 45.1391
| 10> C 	 4.33896 	 76.702 	 46.4674
| 11> C 	 4.24503 	 78.0353 	 46.6863
| 12> H 	 4.18881 	 76.0342 	 47.3084
| 13> C 	 4.81965 	 74.8385 	 44.7545
| 14> H 	 5.677 	 74.4253 	 45.2104
| 15> H 	 5.05334 	 74.7756 	 43.6595
| 16> C 	 3.54933 	 73.9696 	 44.858
| 17> H 	 3.73566 	 72.8652 	 44.669
| 18> H 	 3.29597 	 74.1047 	 45.8789
| 19> C 	 2.40328 	 74.4854 	 43.9825
| 20> H 	 1.92798 	 75.2285 	 44.6269
| 21> H 	 2.66582 	 75.0047 	 43.0509
| 22> H 	 1.67059 	 73.7252 	 43.753
| 23> S 	 5.39381 	 79.7624 	 48.5192
| 24> C 	 4.52238 	 80.0503 	 49.9809
| 25> C 	 3.30712 	 79.3977 	 50.0722
| 26> C 	 3.01222 	 78.6868 	 48.8599
| 27> C 	 4.06965 	 78.7291 	 47.9145
| 28> H 	 2.77972 	 79.5146 	 50.9815
| 29> C 	 1.66378 	 78.1163 	 48.5654
| 30> H 	 1.59814 	 78.0167 	 47.4417
| 31> H 	 0.988982 	 78.9721 	 48.6876
| 32> C 	 1.27544 	 76.8968 	 49.4007
| 33> H 	 1.48305 	 77.1634 	 50.4855
| 34> H 	 1.9346 	 76.0599 	 49.1154
| 35> C 	 -0.129778 	 76.5402 	 49.0331
| 36> H 	 -0.148438 	 76.2285 	 47.9678
| 37> H 	 -0.804397 	 77.2996 	 49.3584
| 38> H 	 -0.511102 	 75.7179 	 49.6387
| 39> H 	 5.2228 	 77.3589 	 43.2854
| 40> H 	 4.81294 	 80.7419 	 50.7688
| 41> *
| 42>
| 43>                          ****END OF INPUT****

CARTESIAN COORDINATES (ANGSTROEM)
---------------------------------
  S      4.716370   78.870600   45.233100
  C      4.863740   77.386600   44.311900
  C      4.664920   76.295600   45.139100
  C      4.338960   76.702000   46.467400
  C      4.245030   78.035300   46.686300
  H      4.188810   76.034200   47.308400
  C      4.819650   74.838500   44.754500
  H      5.677000   74.425300   45.210400
  H      5.053340   74.775600   43.659500
  C      3.549330   73.969600   44.858000
  H      3.735660   72.865200   44.669000
  H      3.295970   74.104700   45.878900
  C      2.403280   74.485400   43.982500
  H      1.927980   75.228500   44.626900
  H      2.665820   75.004700   43.050900
  H      1.670590   73.725200   43.753000
  S      5.393810   79.762400   48.519200
  C      4.522380   80.050300   49.980900
  C      3.307120   79.397700   50.072200
  C      3.012220   78.686800   48.859900
  C      4.069650   78.729100   47.914500
  H      2.779720   79.514600   50.981500
  C      1.663780   78.116300   48.565400
  H      1.598140   78.016700   47.441700
  H      0.988982   78.972100   48.687600
  C      1.275440   76.896800   49.400700
  H      1.483050   77.163400   50.485500
  H      1.934600   76.059900   49.115400
  C     -0.129778   76.540200   49.033100
  H     -0.148438   76.228500   47.967800
  H     -0.804397   77.299600   49.358400
  H     -0.511102   75.717900   49.638700
  H      5.222800   77.358900   43.285400
  H      4.812940   80.741900   50.768800

 Total Charge           Charge          ....    0
 Multiplicity           Mult            ....    1
 Number of Electrons    NEL             ....  134
 Basis Dimension        Dim             ....  322

ORBITAL ENERGIES
----------------

  NO   OCC          E(Eh)            E(eV)
   0   2.0000     -88.966441     -2420.8999
   1   2.0000     -88.962263     -2420.7862
   2   2.0000     -10.325662      -280.9755
   3   2.0000     -10.323311      -280.9116
   4   2.0000     -10.317227      -280.7460
   5   2.0000     -10.315958      -280.7115
   6   2.0000     -10.306175      -280.4453
   7   2.0000     -10.302649      -280.3493
   8   2.0000     -10.291869      -280.0560
   9   2.0000     -10.291482      -280.0455
  10   2.0000     -10.291142      -280.0362
  11   2.0000     -10.290880      -280.0291
  12   2.0000     -10.289450      -279.9902
  13   2.0000     -10.288375      -279.9609
  14   2.0000     -10.276274      -279.6316
  15   2.0000     -10.274646      -279.5873
  16   2.0000      -8.080982      -219.8947
  17   2.0000      -8.077494      -219.7998
  18   2.0000      -6.039428      -164.3412
  19   2.0000      -6.035976      -164.2473
  20   2.0000      -6.035530      -164.2351
  21   2.0000      -6.031894      -164.1362
  22   2.0000      -6.031809      -164.1339
  23   2.0000      -6.028274      -164.0377
  24   2.0000      -1.008669       -27.4473
  25   2.0000      -0.983353       -26.7584
  26   2.0000      -0.915175       -24.9032
  27   2.0000      -0.913023       -24.8446
  28   2.0000      -0.872872       -23.7521
  29   2.0000      -0.855064       -23.2675
  30   2.0000      -0.843468       -22.9519
  31   2.0000      -0.816749       -22.2249
  32   2.0000      -0.784084       -21.3360
  33   2.0000      -0.768748       -20.9187
  34   2.0000      -0.709939       -19.3184
  35   2.0000      -0.697248       -18.9731
  36   2.0000      -0.692184       -18.8353
  37   2.0000      -0.656564       -17.8660
  38   2.0000      -0.645128       -17.5548
  39   2.0000      -0.624051       -16.9813
  40   2.0000      -0.594524       -16.1778
  41   2.0000      -0.573270       -15.5995
  42   2.0000      -0.568278       -15.4636
  43   2.0000      -0.553384       -15.0583
  44   2.0000      -0.543378       -14.7861
  45   2.0000      -0.524775       -14.2798
  46   2.0000      -0.517382       -14.0787
  47   2.0000      -0.512657       -13.9501
  48   2.0000      -0.505905       -13.7664
  49   2.0000      -0.503558       -13.7025
  50   2.0000      -0.486678       -13.2432
  51   2.0000      -0.478670       -13.0253
  52   2.0000      -0.472846       -12.8668
  53   2.0000      -0.464494       -12.6395
  54   2.0000      -0.460015       -12.5177
  55   2.0000      -0.449362       -12.2278
  56   2.0000      -0.444066       -12.0837
  57   2.0000      -0.435363       -11.8468
  58   2.0000      -0.435044       -11.8382
  59   2.0000      -0.422938       -11.5087
  60   2.0000      -0.416525       -11.3342
  61   2.0000      -0.412303       -11.2193
  62   2.0000      -0.409352       -11.1390
  63   2.0000      -0.343991        -9.3605
  64   2.0000      -0.330934        -9.0052
  65   2.0000      -0.328909        -8.9501
  66   2.0000      -0.294783        -8.0215
  67   0.0000       0.031262         0.8507
  68   0.0000       0.067541         1.8379
  69   0.0000       0.117913         3.2086
  70   0.0000       0.119414         3.2494
  71   0.0000       0.126131         3.4322

MULLIKEN ATOMIC CHARGES
-----------------------
   0 S :    0.096763
   1 C :   -0.121666
   2 C :   -0.092841
   3 C :    0.032936
   4 C :   -0.169630
   5 H :    0.012203
   6 C :    0.074319
   7 H :    0.032723
   8 H :    0.013040
   9 C :   -0.085786
  10 H :    0.044665
  11 H :    0.017920
  12 C :   -0.051681
  13 H :    0.034499
  14 H :    0.033380
  15 H :    0.035201
  16 S :    0.117787
  17 C :   -0.092029
  18 C :   -0.031457
  19 C :   -0.003872
  20 C :   -0.158055
  21 H :    0.007706
  22 C :    0.008441
  23 H :    0.034499
  24 H :    0.030041
  25 C :   -0.086152
  26 H :    0.041051
  27 H :    0.031024
  28 C :   -0.007825
  29 H :    0.046326
  30 H :    0.023197
  31 H :    0.021345
  32 H :    0.055572
  33 H :    0.056356
Sum of atomic charges:    0.0000000

LOEWDIN ATOMIC CHARGES
----------------------
   0 S :    0.403204
   1 C :   -0.189736
   2 C :   -0.066733
   3 C :   -0.060845
   4 C :   -0.202589
   5 H :    0.030680
   6 C :   -0.029954
   7 H :    0.026965
   8 H :    0.029945
   9 C :   -0.042255
  10 H :    0.030338
  11 H :    0.014511
  12 C :   -0.068277
  13 H :    0.030817
  14 H :    0.025432
  15 H :    0.025432
  16 S :    0.402957
  17 C :   -0.186802
  18 C :   -0.073904
  19 C :   -0.045024
  20 C :   -0.201539
  21 H :    0.027705
  22 C :   -0.044736
  23 H :    0.036717
  24 H :    0.034069
  25 C :   -0.043116
  26 H :    0.030771
  27 H :    0.026113
  28 C :   -0.065994
  29 H :    0.035857
  30 H :    0.023137
  31 H :    0.024480
  32 H :    0.031488
  33 H :    0.030888

  Mayer bond orders larger than 0.100000
B(  0-S ,  1-C ) :   1.1440 B(  0-S ,  4-C ) :   1.1402 B(  1-C ,  2-C ) :   1.6062
B(  1-C , 32-H ) :   0.9674 B(  2-C ,  3-C ) :   1.2320 B(  2-C ,  6-C ) :   1.0209
B(  3-C ,  4-C ) :   1.5902 B(  3-C ,  5-H ) :   0.9951 B(  4-C , 20-C ) :   1.0581
B(  6-C ,  7-H ) :   0.9429 B(  6-C ,  8-H ) :   0.9435 B(  6-C ,  9-C ) :   1.0602
B(  9-C , 10-H ) :   0.9607 B(  9-C , 11-H ) :   0.9652 B(  9-C , 12-C ) :   1.0586
B( 12-C , 13-H ) :   0.9746 B( 12-C , 14-H ) :   0.9804 B( 12-C , 15-H ) :   0.9765
B( 16-S , 17-C ) :   1.1641 B( 16-S , 20-C ) :   1.1241 B( 17-C , 18-C ) :   1.6246
B( 17-C , 33-H ) :   0.9610 B( 18-C , 19-C ) :   1.2212 B( 18-C , 21-H ) :   0.9974
B( 19-C , 20-C ) :   1.5828 B( 19-C , 22-C ) :   1.0411 B( 22-C , 23-H ) :   0.9342
B( 22-C , 24-H ) :   0.9393 B( 22-C , 25-C ) :   1.0430 B( 25-C , 26-H ) :   0.9563
B( 25-C , 27-H ) :   0.9508 B( 25-C , 28-C ) :   1.0934 B( 28-C , 29-H ) :   0.9687
B( 28-C , 30-H ) :   0.9708 B( 28-C , 31-H ) :   0.9694

Dispersion correction           -0.014565960
FINAL SINGLE POINT ENERGY     -1339.881749337957

DIPOLE MOMENT
-------------
                                X             Y             Z
Electronic contribution:     19.68424      22.49590       1.43595
Nuclear contribution   :    -20.02892     -22.94524      -1.19250
                        -----------------------------------------
Total Dipole Moment    :     -0.34468      -0.44934       0.24345
                        -----------------------------------------
Magnitude (a.u.)       :      0.61642
Magnitude (Debye)      :      1.56683

Rotational constants in cm-1:     0.017033     0.009958     0.006943
Rotational constants in MHz :   510.636170   298.520422   208.155252

                             ****ORCA TERMINATED NORMALLY****
TOTAL RUN TIME: 0 days 0 hours 0 minutes 34 seconds 486 msec
