                         Program Version 4.2.1 -  RELEASE  -
|  1> ! wB97X-D3 SP def2-SVP
|  2> %pal
|  3> nprocs 16
|  4> end
|  5>
|  6> * xyz 0 1
|  7> S 	 7.33135 	 -28.2176 	 82.429
|  8> C 	 8.81072 	 -29.1147 	 82.5924
|  9> C 	 9.93203 	 -28.3334 	 82.4509
| 10> C 	 9.54437 	 -27.0932 	 81.9088
| 11> C 	 8.23027 	 -26.8351 	 81.8117
| 12> H 	 10.2277 	 -26.2925 	 81.5978
| 13> C 	 11.356 	 -28.7086 	 82.8853
| 14> H 	 11.9152 	 -28.6515 	 81.9148
| 15> H 	 11.3419 	 -29.6926 	 83.2902
| 16> C 	 11.9577 	 -27.7214 	 83.8516
| 17> H 	 11.8855 	 -26.7635 	 83.3464
| 18> H 	 11.2923 	 -27.7658 	 84.7513
| 19> C 	 13.4274 	 -27.8813 	 84.215
| 20> H 	 14.1038 	 -27.5282 	 83.3786
| 21> H 	 13.7055 	 -27.2247 	 85.0529
| 22> H 	 13.6448 	 -28.9543 	 84.3551
| 23> S 	 6.66372 	 -25.2538 	 80.1414
| 24> C 	 6.45429 	 -23.5616 	 80.4674
| 25> C 	 7.1575 	 -23.1355 	 81.6163
| 26> C 	 7.85497 	 -24.2803 	 82.2642
| 27> C 	 7.73008 	 -25.4673 	 81.5505
| 28> H 	 7.00787 	 -22.1335 	 82.1473
| 29> C 	 8.71722 	 -24.0913 	 83.5041
| 30> H 	 8.91199 	 -23.0285 	 83.4711
| 31> H 	 9.62322 	 -24.6368 	 83.2015
| 32> C 	 8.14798 	 -24.4819 	 84.887
| 33> H 	 8.68969 	 -24.1758 	 85.7527
| 34> H 	 8.06018 	 -25.5884 	 84.8789
| 35> C 	 6.70586 	 -23.9178 	 85.0398
| 36> H 	 6.24267 	 -24.1151 	 86.0255
| 37> H 	 5.91516 	 -24.2957 	 84.3787
| 38> H 	 6.75948 	 -22.7847 	 85.0213
| 39> H 	 8.92151 	 -30.001 	 83.1188
| 40> H 	 5.76398 	 -22.9728 	 79.8752
| 41> *
| 42>
| 43>                          ****END OF INPUT****

CARTESIAN COORDINATES (ANGSTROEM)
---------------------------------
  S      7.331350  -28.217600   82.429000
  C      8.810720  -29.114700   82.592400
  C      9.932030  -28.333400   82.450900
  C      9.544370  -27.093200   81.908800
  C      8.230270  -26.835100   81.811700
  H     10.227700  -26.292500   81.597800
  C     11.356000  -28.708600   82.885300
  H     11.915200  -28.651500   81.914800
  H     11.341900  -29.692600   83.290200
  C     11.957700  -27.721400   83.851600
  H     11.885500  -26.763500   83.346400
  H     11.292300  -27.765800   84.751300
  C     13.427400  -27.881300   84.215000
  H     14.103800  -27.528200   83.378600
  H     13.705500  -27.224700   85.052900
  H     13.644800  -28.954300   84.355100
  S      6.663720  -25.253800   80.141400
  C      6.454290  -23.561600   80.467400
  C      7.157500  -23.135500   81.616300
  C      7.854970  -24.280300   82.264200
  C      7.730080  -25.467300   81.550500
  H      7.007870  -22.133500   82.147300
  C      8.717220  -24.091300   83.504100
  H      8.911990  -23.028500   83.471100
  H      9.623220  -24.636800   83.201500
  C      8.147980  -24.481900   84.887000
  H      8.689690  -24.175800   85.752700
  H      8.060180  -25.588400   84.878900
  C      6.705860  -23.917800   85.039800
  H      6.242670  -24.115100   86.025500
  H      5.915160  -24.295700   84.378700
  H      6.759480  -22.784700   85.021300
  H      8.921510  -30.001000   83.118800
  H      5.763980  -22.972800   79.875200

 Total Charge           Charge          ....    0
 Multiplicity           Mult            ....    1
 Number of Electrons    NEL             ....  134
 Basis Dimension        Dim             ....  322

ORBITAL ENERGIES
----------------

  NO   OCC          E(Eh)            E(eV)
   0   2.0000     -88.967910     -2420.9399
   1   2.0000     -88.963440     -2420.8183
   2   2.0000     -10.328703      -281.0583
   3   2.0000     -10.325781      -280.9788
   4   2.0000     -10.323901      -280.9276
   5   2.0000     -10.310937      -280.5749
   6   2.0000     -10.308318      -280.5036
   7   2.0000     -10.307135      -280.4714
   8   2.0000     -10.299188      -280.2552
   9   2.0000     -10.296551      -280.1834
  10   2.0000     -10.291945      -280.0581
  11   2.0000     -10.290350      -280.0147
  12   2.0000     -10.289512      -279.9919
  13   2.0000     -10.288735      -279.9707
  14   2.0000     -10.288143      -279.9546
  15   2.0000     -10.281218      -279.7662
  16   2.0000      -8.082479      -219.9354
  17   2.0000      -8.078178      -219.8184
  18   2.0000      -6.041017      -164.3844
  19   2.0000      -6.037183      -164.2801
  20   2.0000      -6.036635      -164.2652
  21   2.0000      -6.033022      -164.1669
  22   2.0000      -6.032619      -164.1559
  23   2.0000      -6.029065      -164.0592
  24   2.0000      -1.008120       -27.4323
  25   2.0000      -0.980777       -26.6883
  26   2.0000      -0.917439       -24.9648
  27   2.0000      -0.905170       -24.6309
  28   2.0000      -0.869577       -23.6624
  29   2.0000      -0.850801       -23.1515
  30   2.0000      -0.840729       -22.8774
  31   2.0000      -0.813065       -22.1246
  32   2.0000      -0.783352       -21.3161
  33   2.0000      -0.772073       -21.0092
  34   2.0000      -0.709128       -19.2964
  35   2.0000      -0.694606       -18.9012
  36   2.0000      -0.689162       -18.7531
  37   2.0000      -0.660494       -17.9730
  38   2.0000      -0.641743       -17.4627
  39   2.0000      -0.621732       -16.9182
  40   2.0000      -0.580187       -15.7877
  41   2.0000      -0.573032       -15.5930
  42   2.0000      -0.564306       -15.3555
  43   2.0000      -0.559829       -15.2337
  44   2.0000      -0.545255       -14.8372
  45   2.0000      -0.527327       -14.3493
  46   2.0000      -0.517479       -14.0813
  47   2.0000      -0.506529       -13.7834
  48   2.0000      -0.500213       -13.6115
  49   2.0000      -0.497100       -13.5268
  50   2.0000      -0.485595       -13.2137
  51   2.0000      -0.480930       -13.0868
  52   2.0000      -0.470879       -12.8133
  53   2.0000      -0.460171       -12.5219
  54   2.0000      -0.457004       -12.4357
  55   2.0000      -0.450259       -12.2522
  56   2.0000      -0.443577       -12.0703
  57   2.0000      -0.434303       -11.8180
  58   2.0000      -0.431699       -11.7471
  59   2.0000      -0.423466       -11.5231
  60   2.0000      -0.422111       -11.4862
  61   2.0000      -0.418801       -11.3962
  62   2.0000      -0.413123       -11.2416
  63   2.0000      -0.339117        -9.2278
  64   2.0000      -0.330258        -8.9868
  65   2.0000      -0.326525        -8.8852
  66   2.0000      -0.304245        -8.2789
  67   0.0000       0.036398         0.9905
  68   0.0000       0.061621         1.6768
  69   0.0000       0.114283         3.1098
  70   0.0000       0.114587         3.1181
  71   0.0000       0.119619         3.2550

MULLIKEN ATOMIC CHARGES
-----------------------
   0 S :    0.114136
   1 C :   -0.077548
   2 C :   -0.117720
   3 C :   -0.001686
   4 C :   -0.108297
   5 H :    0.023215
   6 C :    0.104368
   7 H :    0.039153
   8 H :    0.008576
   9 C :   -0.107283
  10 H :    0.027656
  11 H :    0.040712
  12 C :   -0.046501
  13 H :    0.033784
  14 H :    0.046545
  15 H :    0.035111
  16 S :    0.101053
  17 C :   -0.096151
  18 C :   -0.047750
  19 C :   -0.092532
  20 C :   -0.205484
  21 H :    0.056638
  22 C :    0.090291
  23 H :    0.013035
  24 H :    0.028903
  25 C :   -0.020942
  26 H :    0.035842
  27 H :    0.038812
  28 C :   -0.109641
  29 H :    0.027501
  30 H :    0.053001
  31 H :    0.028248
  32 H :    0.019925
  33 H :    0.065030
Sum of atomic charges:   -0.0000000

LOEWDIN ATOMIC CHARGES
----------------------
   0 S :    0.403962
   1 C :   -0.190843
   2 C :   -0.060771
   3 C :   -0.063573
   4 C :   -0.199777
   5 H :    0.032817
   6 C :   -0.025012
   7 H :    0.038622
   8 H :    0.021602
   9 C :   -0.049523
  10 H :    0.023016
  11 H :    0.030229
  12 C :   -0.070157
  13 H :    0.031089
  14 H :    0.032347
  15 H :    0.025873
  16 S :    0.399082
  17 C :   -0.184429
  18 C :   -0.085771
  19 C :   -0.046458
  20 C :   -0.198231
  21 H :    0.045744
  22 C :   -0.033495
  23 H :    0.026972
  24 H :    0.033488
  25 C :   -0.033609
  26 H :    0.024449
  27 H :    0.029649
  28 C :   -0.079032
  29 H :    0.025352
  30 H :    0.029472
  31 H :    0.025092
  32 H :    0.013804
  33 H :    0.028024

  Mayer bond orders larger than 0.100000
B(  0-S ,  1-C ) :   1.1430 B(  0-S ,  4-C ) :   1.1290 B(  1-C ,  2-C ) :   1.6381
B(  1-C , 32-H ) :   0.9611 B(  2-C ,  3-C ) :   1.2264 B(  2-C ,  6-C ) :   1.0221
B(  3-C ,  4-C ) :   1.6120 B(  3-C ,  5-H ) :   0.9875 B(  4-C , 20-C ) :   1.0202
B(  6-C ,  7-H ) :   0.9345 B(  6-C ,  8-H ) :   0.9341 B(  6-C ,  9-C ) :   1.0702
B(  9-C , 10-H ) :   0.9524 B(  9-C , 11-H ) :   0.9547 B(  9-C , 12-C ) :   1.0876
B( 12-C , 13-H ) :   0.9722 B( 12-C , 14-H ) :   0.9728 B( 12-C , 15-H ) :   0.9747
B( 16-S , 17-C ) :   1.1747 B( 16-S , 20-C ) :   1.1250 B( 17-C , 18-C ) :   1.6014
B( 17-C , 33-H ) :   0.9678 B( 18-C , 19-C ) :   1.2312 B( 18-C , 21-H ) :   0.9697
B( 19-C , 20-C ) :   1.6280 B( 19-C , 22-C ) :   1.0155 B( 22-C , 23-H ) :   0.9318
B( 22-C , 24-H ) :   0.9374 B( 22-C , 25-C ) :   1.0624 B( 25-C , 26-H ) :   0.9602
B( 25-C , 27-H ) :   0.9544 B( 25-C , 28-C ) :   1.0745 B( 28-C , 29-H ) :   0.9743
B( 28-C , 30-H ) :   0.9712 B( 28-C , 31-H ) :   0.9762

Dispersion correction           -0.015412844
FINAL SINGLE POINT ENERGY     -1339.872486597637

DIPOLE MOMENT
-------------
                                X             Y             Z
Electronic contribution:    -18.68563      -4.68620     -19.36221
Nuclear contribution   :     19.17964       4.92996      19.93447
                        -----------------------------------------
Total Dipole Moment    :      0.49401       0.24376       0.57227
                        -----------------------------------------
Magnitude (a.u.)       :      0.79433
Magnitude (Debye)      :      2.01902

Rotational constants in cm-1:     0.018987     0.008841     0.007493
Rotational constants in MHz :   569.214983   265.044402   224.623527

                             ****ORCA TERMINATED NORMALLY****
TOTAL RUN TIME: 0 days 0 hours 0 minutes 35 seconds 880 msec
