                         Program Version 4.2.1 -  RELEASE  -
|  1> ! wB97X-D3 SP def2-SVP
|  2> %pal
|  3> nprocs 16
|  4> end
|  5>
|  6> * xyz 0 1
|  7> S 	 -55.6328 	 38.0062 	 86.3503
|  8> C 	 -55.5109 	 39.5422 	 87.2127
|  9> C 	 -54.6599 	 39.4149 	 88.3042
| 10> C 	 -53.9116 	 38.2032 	 88.2835
| 11> C 	 -54.3392 	 37.303 	 87.292
| 12> H 	 -53.0978 	 38.0041 	 88.9428
| 13> C 	 -54.3705 	 40.3932 	 89.4029
| 14> H 	 -54.7221 	 41.3267 	 89.0684
| 15> H 	 -53.3812 	 40.685 	 89.5436
| 16> C 	 -55.036 	 40.1231 	 90.714
| 17> H 	 -54.7723 	 39.1015 	 90.9919
| 18> H 	 -54.5458 	 40.7626 	 91.4456
| 19> C 	 -56.5553 	 40.2496 	 90.6948
| 20> H 	 -57.0338 	 39.4871 	 90.0973
| 21> H 	 -56.8786 	 40.1607 	 91.729
| 22> H 	 -57.0346 	 41.2167 	 90.423
| 23> S 	 -53.0227 	 36.0402 	 85.3536
| 24> C 	 -52.4773 	 34.4004 	 85.5472
| 25> C 	 -52.8294 	 33.8856 	 86.797
| 26> C 	 -53.5583 	 34.828 	 87.5581
| 27> C 	 -53.7067 	 36.0655 	 86.9255
| 28> H 	 -52.6108 	 32.8908 	 87.0601
| 29> C 	 -54.1106 	 34.4635 	 88.8657
| 30> H 	 -53.9773 	 33.3849 	 89.0432
| 31> H 	 -55.1966 	 34.6968 	 88.8696
| 32> C 	 -53.5146 	 35.3733 	 90.1038
| 33> H 	 -53.968 	 36.34 	 90.2663
| 34> H 	 -52.4787 	 35.5937 	 89.9776
| 35> C 	 -53.5247 	 34.7019 	 91.4613
| 36> H 	 -54.5279 	 34.3404 	 91.7635
| 37> H 	 -53.0505 	 35.281 	 92.2507
| 38> H 	 -53.021 	 33.7061 	 91.4235
| 39> H 	 -56.2385 	 40.2957 	 87.1166
| 40> H 	 -52.0365 	 33.8394 	 84.7132
| 41> *
| 42>
| 43>                          ****END OF INPUT****

CARTESIAN COORDINATES (ANGSTROEM)
---------------------------------
  S    -55.632800   38.006200   86.350300
  C    -55.510900   39.542200   87.212700
  C    -54.659900   39.414900   88.304200
  C    -53.911600   38.203200   88.283500
  C    -54.339200   37.303000   87.292000
  H    -53.097800   38.004100   88.942800
  C    -54.370500   40.393200   89.402900
  H    -54.722100   41.326700   89.068400
  H    -53.381200   40.685000   89.543600
  C    -55.036000   40.123100   90.714000
  H    -54.772300   39.101500   90.991900
  H    -54.545800   40.762600   91.445600
  C    -56.555300   40.249600   90.694800
  H    -57.033800   39.487100   90.097300
  H    -56.878600   40.160700   91.729000
  H    -57.034600   41.216700   90.423000
  S    -53.022700   36.040200   85.353600
  C    -52.477300   34.400400   85.547200
  C    -52.829400   33.885600   86.797000
  C    -53.558300   34.828000   87.558100
  C    -53.706700   36.065500   86.925500
  H    -52.610800   32.890800   87.060100
  C    -54.110600   34.463500   88.865700
  H    -53.977300   33.384900   89.043200
  H    -55.196600   34.696800   88.869600
  C    -53.514600   35.373300   90.103800
  H    -53.968000   36.340000   90.266300
  H    -52.478700   35.593700   89.977600
  C    -53.524700   34.701900   91.461300
  H    -54.527900   34.340400   91.763500
  H    -53.050500   35.281000   92.250700
  H    -53.021000   33.706100   91.423500
  H    -56.238500   40.295700   87.116600
  H    -52.036500   33.839400   84.713200

 Total Charge           Charge          ....    0
 Multiplicity           Mult            ....    1
 Number of Electrons    NEL             ....  134
 Basis Dimension        Dim             ....  322

ORBITAL ENERGIES
----------------

  NO   OCC          E(Eh)            E(eV)
   0   2.0000     -88.967688     -2420.9339
   1   2.0000     -88.964283     -2420.8412
   2   2.0000     -10.329218      -281.0723
   3   2.0000     -10.318672      -280.7853
   4   2.0000     -10.317367      -280.7498
   5   2.0000     -10.314081      -280.6604
   6   2.0000     -10.300388      -280.2878
   7   2.0000     -10.299356      -280.2597
   8   2.0000     -10.298735      -280.2428
   9   2.0000     -10.291254      -280.0393
  10   2.0000     -10.291112      -280.0354
  11   2.0000     -10.285500      -279.8827
  12   2.0000     -10.285463      -279.8817
  13   2.0000     -10.277741      -279.6716
  14   2.0000     -10.276918      -279.6492
  15   2.0000     -10.275835      -279.6197
  16   2.0000      -8.082101      -219.9251
  17   2.0000      -8.079892      -219.8650
  18   2.0000      -6.040592      -164.3729
  19   2.0000      -6.038203      -164.3079
  20   2.0000      -6.036601      -164.2643
  21   2.0000      -6.034122      -164.1968
  22   2.0000      -6.032939      -164.1646
  23   2.0000      -6.030951      -164.1105
  24   2.0000      -1.009599       -27.4726
  25   2.0000      -0.984352       -26.7856
  26   2.0000      -0.920305       -25.0428
  27   2.0000      -0.902126       -24.5481
  28   2.0000      -0.871100       -23.7038
  29   2.0000      -0.855276       -23.2733
  30   2.0000      -0.846774       -23.0419
  31   2.0000      -0.812794       -22.1173
  32   2.0000      -0.788115       -21.4457
  33   2.0000      -0.767988       -20.8980
  34   2.0000      -0.708238       -19.2721
  35   2.0000      -0.703555       -19.1447
  36   2.0000      -0.693162       -18.8619
  37   2.0000      -0.667845       -18.1730
  38   2.0000      -0.645175       -17.5561
  39   2.0000      -0.624496       -16.9934
  40   2.0000      -0.595901       -16.2153
  41   2.0000      -0.577108       -15.7039
  42   2.0000      -0.556983       -15.1563
  43   2.0000      -0.549290       -14.9469
  44   2.0000      -0.539598       -14.6832
  45   2.0000      -0.525402       -14.2969
  46   2.0000      -0.518582       -14.1113
  47   2.0000      -0.517079       -14.0704
  48   2.0000      -0.505649       -13.7594
  49   2.0000      -0.497379       -13.5344
  50   2.0000      -0.496356       -13.5065
  51   2.0000      -0.480861       -13.0849
  52   2.0000      -0.470148       -12.7934
  53   2.0000      -0.466651       -12.6982
  54   2.0000      -0.453525       -12.3411
  55   2.0000      -0.451794       -12.2939
  56   2.0000      -0.445070       -12.1110
  57   2.0000      -0.432535       -11.7699
  58   2.0000      -0.430892       -11.7252
  59   2.0000      -0.425481       -11.5779
  60   2.0000      -0.423043       -11.5116
  61   2.0000      -0.416679       -11.3384
  62   2.0000      -0.411280       -11.1915
  63   2.0000      -0.341337        -9.2882
  64   2.0000      -0.329739        -8.9726
  65   2.0000      -0.325917        -8.8686
  66   2.0000      -0.294481        -8.0132
  67   0.0000       0.030921         0.8414
  68   0.0000       0.062133         1.6907
  69   0.0000       0.115908         3.1540
  70   0.0000       0.123522         3.3612
  71   0.0000       0.127538         3.4705

MULLIKEN ATOMIC CHARGES
-----------------------
   0 S :    0.113370
   1 C :   -0.098113
   2 C :   -0.104267
   3 C :    0.056884
   4 C :   -0.170435
   5 H :    0.005276
   6 C :    0.122831
   7 H :   -0.019685
   8 H :    0.008149
   9 C :   -0.048561
  10 H :    0.019068
  11 H :    0.024593
  12 C :   -0.058339
  13 H :    0.043483
  14 H :    0.027174
  15 H :    0.027779
  16 S :    0.124580
  17 C :   -0.111819
  18 C :   -0.021691
  19 C :   -0.017893
  20 C :   -0.170384
  21 H :    0.000734
  22 C :    0.074985
  23 H :    0.023170
  24 H :    0.048535
  25 C :   -0.078771
  26 H :    0.039878
  27 H :    0.026574
  28 C :   -0.073439
  29 H :    0.022155
  30 H :    0.040332
  31 H :    0.020179
  32 H :    0.036656
  33 H :    0.067010
Sum of atomic charges:   -0.0000000

LOEWDIN ATOMIC CHARGES
----------------------
   0 S :    0.406250
   1 C :   -0.187851
   2 C :   -0.055915
   3 C :   -0.049167
   4 C :   -0.200890
   5 H :    0.026657
   6 C :   -0.035918
   7 H :    0.022801
   8 H :    0.025960
   9 C :   -0.034164
  10 H :    0.022756
  11 H :    0.025810
  12 C :   -0.069751
  13 H :    0.026662
  14 H :    0.028050
  15 H :    0.026665
  16 S :    0.439965
  17 C :   -0.192402
  18 C :   -0.066142
  19 C :   -0.059809
  20 C :   -0.220837
  21 H :    0.024873
  22 C :   -0.026181
  23 H :    0.031757
  24 H :    0.042789
  25 C :   -0.040019
  26 H :    0.022105
  27 H :    0.019063
  28 C :   -0.074068
  29 H :    0.021827
  30 H :    0.026498
  31 H :    0.023305
  32 H :    0.017798
  33 H :    0.031525

  Mayer bond orders larger than 0.100000
B(  0-S ,  1-C ) :   1.1353 B(  0-S ,  4-C ) :   1.1657 B(  1-C ,  2-C ) :   1.5987
B(  1-C ,  4-C ) :   0.1027 B(  1-C , 32-H ) :   0.9687 B(  2-C ,  3-C ) :   1.2497
B(  2-C ,  6-C ) :   1.0295 B(  3-C ,  4-C ) :   1.5481 B(  3-C ,  5-H ) :   0.9913
B(  4-C , 20-C ) :   1.0370 B(  6-C ,  7-H ) :   0.9198 B(  6-C ,  8-H ) :   0.9352
B(  6-C ,  9-C ) :   1.0803 B(  9-C , 10-H ) :   0.9517 B(  9-C , 11-H ) :   0.9517
B(  9-C , 12-C ) :   1.0785 B( 12-C , 13-H ) :   0.9742 B( 12-C , 14-H ) :   0.9721
B( 12-C , 15-H ) :   0.9750 B( 16-S , 17-C ) :   1.1844 B( 16-S , 20-C ) :   1.1689
B( 17-C , 18-C ) :   1.5550 B( 17-C , 20-C ) :   0.1064 B( 17-C , 33-H ) :   0.9664
B( 18-C , 19-C ) :   1.2755 B( 18-C , 21-H ) :   1.0016 B( 19-C , 20-C ) :   1.5440
B( 19-C , 22-C ) :   1.0754 B( 22-C , 23-H ) :   0.9428 B( 22-C , 24-H ) :   0.9221
B( 22-C , 25-C ) :   1.0290 B( 25-C , 26-H ) :   0.9496 B( 25-C , 27-H ) :   0.9609
B( 25-C , 28-C ) :   1.0908 B( 28-C , 29-H ) :   0.9718 B( 28-C , 30-H ) :   0.9737
B( 28-C , 31-H ) :   0.9734

Dispersion correction           -0.015077554
FINAL SINGLE POINT ENERGY     -1339.872767695236

DIPOLE MOMENT
-------------
                                X             Y             Z
Electronic contribution:      2.65382      -3.58488     -29.76165
Nuclear contribution   :     -2.59004       3.58465      30.34384
                        -----------------------------------------
Total Dipole Moment    :      0.06378      -0.00023       0.58220
                        -----------------------------------------
Magnitude (a.u.)       :      0.58568
Magnitude (Debye)      :      1.48868

Rotational constants in cm-1:     0.018742     0.009805     0.007084
Rotational constants in MHz :   561.880851   293.948928   212.361257

                             ****ORCA TERMINATED NORMALLY****
TOTAL RUN TIME: 0 days 0 hours 0 minutes 31 seconds 366 msec
