                         Program Version 4.2.1 -  RELEASE  -
|  1> ! wB97X-D3 SP def2-SVP
|  2> %pal
|  3> nprocs 16
|  4> end
|  5>
|  6> * xyz 0 1
|  7> S 	 -44.2751 	 34.7384 	 80.1648
|  8> C 	 -43.6778 	 36.0342 	 79.1373
|  9> C 	 -42.9118 	 35.4902 	 78.1387
| 10> C 	 -42.7288 	 34.0665 	 78.3041
| 11> C 	 -43.2989 	 33.5024 	 79.4736
| 12> H 	 -42.0959 	 33.5125 	 77.6467
| 13> C 	 -42.2075 	 36.2219 	 77.0483
| 14> H 	 -41.1384 	 36.1543 	 77.1994
| 15> H 	 -42.408 	 37.3298 	 77.1415
| 16> C 	 -42.3924 	 35.7124 	 75.5949
| 17> H 	 -41.6543 	 36.2555 	 74.9847
| 18> H 	 -42.175 	 34.6155 	 75.4845
| 19> C 	 -43.6976 	 36.053 	 74.9096
| 20> H 	 -43.7103 	 35.7003 	 73.9149
| 21> H 	 -44.5295 	 35.6165 	 75.4953
| 22> H 	 -43.7119 	 37.1622 	 74.8498
| 23> S 	 -44.6559 	 31.1725 	 79.7861
| 24> C 	 -43.7995 	 29.7858 	 80.3589
| 25> C 	 -42.4526 	 29.972 	 80.3458
| 26> C 	 -42.0818 	 31.3274 	 80.0704
| 27> C 	 -43.197 	 32.1231 	 79.8598
| 28> H 	 -41.8955 	 29.116 	 80.6313
| 29> C 	 -40.644 	 31.8349 	 80.29
| 30> H 	 -40.2165 	 31.1558 	 81.0496
| 31> H 	 -40.6032 	 32.8214 	 80.6629
| 32> C 	 -39.8325 	 31.7434 	 78.9984
| 33> H 	 -40.3284 	 32.2668 	 78.2306
| 34> H 	 -39.7915 	 30.6643 	 78.6716
| 35> C 	 -38.4482 	 32.3971 	 79.0835
| 36> H 	 -38.352 	 33.1997 	 79.7511
| 37> H 	 -38.1459 	 32.8572 	 78.0744
| 38> H 	 -37.6691 	 31.6829 	 79.2214
| 39> H 	 -43.9568 	 37.1347 	 79.2019
| 40> H 	 -44.2455 	 28.7744 	 80.548
| 41> *
| 42>
| 43>                          ****END OF INPUT****

CARTESIAN COORDINATES (ANGSTROEM)
---------------------------------
  S    -44.275100   34.738400   80.164800
  C    -43.677800   36.034200   79.137300
  C    -42.911800   35.490200   78.138700
  C    -42.728800   34.066500   78.304100
  C    -43.298900   33.502400   79.473600
  H    -42.095900   33.512500   77.646700
  C    -42.207500   36.221900   77.048300
  H    -41.138400   36.154300   77.199400
  H    -42.408000   37.329800   77.141500
  C    -42.392400   35.712400   75.594900
  H    -41.654300   36.255500   74.984700
  H    -42.175000   34.615500   75.484500
  C    -43.697600   36.053000   74.909600
  H    -43.710300   35.700300   73.914900
  H    -44.529500   35.616500   75.495300
  H    -43.711900   37.162200   74.849800
  S    -44.655900   31.172500   79.786100
  C    -43.799500   29.785800   80.358900
  C    -42.452600   29.972000   80.345800
  C    -42.081800   31.327400   80.070400
  C    -43.197000   32.123100   79.859800
  H    -41.895500   29.116000   80.631300
  C    -40.644000   31.834900   80.290000
  H    -40.216500   31.155800   81.049600
  H    -40.603200   32.821400   80.662900
  C    -39.832500   31.743400   78.998400
  H    -40.328400   32.266800   78.230600
  H    -39.791500   30.664300   78.671600
  C    -38.448200   32.397100   79.083500
  H    -38.352000   33.199700   79.751100
  H    -38.145900   32.857200   78.074400
  H    -37.669100   31.682900   79.221400
  H    -43.956800   37.134700   79.201900
  H    -44.245500   28.774400   80.548000

 Total Charge           Charge          ....    0
 Multiplicity           Mult            ....    1
 Number of Electrons    NEL             ....  134
 Basis Dimension        Dim             ....  322

ORBITAL ENERGIES
----------------

  NO   OCC          E(Eh)            E(eV)
   0   2.0000     -88.965830     -2420.8833
   1   2.0000     -88.963531     -2420.8208
   2   2.0000     -10.330392      -281.1043
   3   2.0000     -10.324811      -280.9524
   4   2.0000     -10.320526      -280.8358
   5   2.0000     -10.315286      -280.6932
   6   2.0000     -10.306101      -280.4433
   7   2.0000     -10.300030      -280.2781
   8   2.0000     -10.296230      -280.1747
   9   2.0000     -10.294183      -280.1189
  10   2.0000     -10.290808      -280.0271
  11   2.0000     -10.289968      -280.0043
  12   2.0000     -10.289518      -279.9920
  13   2.0000     -10.284301      -279.8501
  14   2.0000     -10.275443      -279.6090
  15   2.0000     -10.274071      -279.5717
  16   2.0000      -8.080707      -219.8872
  17   2.0000      -8.079147      -219.8448
  18   2.0000      -6.039327      -164.3384
  19   2.0000      -6.037558      -164.2903
  20   2.0000      -6.035007      -164.2209
  21   2.0000      -6.033644      -164.1838
  22   2.0000      -6.031500      -164.1255
  23   2.0000      -6.029829      -164.0800
  24   2.0000      -1.010586       -27.4994
  25   2.0000      -0.987817       -26.8799
  26   2.0000      -0.913198       -24.8494
  27   2.0000      -0.909267       -24.7424
  28   2.0000      -0.874776       -23.8039
  29   2.0000      -0.850251       -23.1365
  30   2.0000      -0.846627       -23.0379
  31   2.0000      -0.813103       -22.1257
  32   2.0000      -0.784448       -21.3459
  33   2.0000      -0.775389       -21.0994
  34   2.0000      -0.710132       -19.3237
  35   2.0000      -0.697345       -18.9757
  36   2.0000      -0.687354       -18.7039
  37   2.0000      -0.659095       -17.9349
  38   2.0000      -0.633282       -17.2325
  39   2.0000      -0.624001       -16.9799
  40   2.0000      -0.596462       -16.2305
  41   2.0000      -0.573309       -15.6005
  42   2.0000      -0.564061       -15.3489
  43   2.0000      -0.552179       -15.0256
  44   2.0000      -0.543988       -14.8027
  45   2.0000      -0.523479       -14.2446
  46   2.0000      -0.517427       -14.0799
  47   2.0000      -0.511022       -13.9056
  48   2.0000      -0.507171       -13.8008
  49   2.0000      -0.502394       -13.6708
  50   2.0000      -0.492548       -13.4029
  51   2.0000      -0.481983       -13.1154
  52   2.0000      -0.474132       -12.9018
  53   2.0000      -0.467425       -12.7193
  54   2.0000      -0.457811       -12.4577
  55   2.0000      -0.447867       -12.1871
  56   2.0000      -0.443040       -12.0557
  57   2.0000      -0.439276       -11.9533
  58   2.0000      -0.430576       -11.7166
  59   2.0000      -0.422658       -11.5011
  60   2.0000      -0.420813       -11.4509
  61   2.0000      -0.412517       -11.2252
  62   2.0000      -0.410248       -11.1634
  63   2.0000      -0.342608        -9.3228
  64   2.0000      -0.331356        -9.0166
  65   2.0000      -0.324526        -8.8308
  66   2.0000      -0.299572        -8.1518
  67   0.0000       0.031399         0.8544
  68   0.0000       0.068765         1.8712
  69   0.0000       0.114893         3.1264
  70   0.0000       0.123808         3.3690
  71   0.0000       0.127512         3.4698

MULLIKEN ATOMIC CHARGES
-----------------------
   0 S :    0.113187
   1 C :   -0.153914
   2 C :   -0.059663
   3 C :    0.032994
   4 C :   -0.155048
   5 H :   -0.000580
   6 C :    0.051883
   7 H :    0.036577
   8 H :    0.020064
   9 C :   -0.119695
  10 H :    0.024877
  11 H :    0.040457
  12 C :   -0.028486
  13 H :    0.027669
  14 H :    0.046472
  15 H :    0.025569
  16 S :    0.113010
  17 C :   -0.104985
  18 C :   -0.036632
  19 C :   -0.016276
  20 C :   -0.166802
  21 H :    0.007259
  22 C :    0.094855
  23 H :    0.029010
  24 H :    0.021323
  25 C :   -0.075855
  26 H :    0.007168
  27 H :    0.033210
  28 C :   -0.026735
  29 H :    0.022962
  30 H :    0.025491
  31 H :    0.026387
  32 H :    0.075809
  33 H :    0.068436
Sum of atomic charges:   -0.0000000

LOEWDIN ATOMIC CHARGES
----------------------
   0 S :    0.418815
   1 C :   -0.207201
   2 C :   -0.073916
   3 C :   -0.056067
   4 C :   -0.212557
   5 H :    0.018169
   6 C :   -0.037445
   7 H :    0.035123
   8 H :    0.033752
   9 C :   -0.046619
  10 H :    0.025502
  11 H :    0.026089
  12 C :   -0.063564
  13 H :    0.020189
  14 H :    0.029563
  15 H :    0.027108
  16 S :    0.414744
  17 C :   -0.194683
  18 C :   -0.073872
  19 C :   -0.046780
  20 C :   -0.202347
  21 H :    0.029047
  22 C :   -0.019845
  23 H :    0.033599
  24 H :    0.024548
  25 C :   -0.040386
  26 H :    0.013303
  27 H :    0.030714
  28 C :   -0.065570
  29 H :    0.017092
  30 H :    0.034527
  31 H :    0.021266
  32 H :    0.047937
  33 H :    0.039765

  Mayer bond orders larger than 0.100000
B(  0-S ,  1-C ) :   1.1397 B(  0-S ,  4-C ) :   1.1614 B(  1-C ,  2-C ) :   1.5904
B(  1-C , 32-H ) :   0.9590 B(  2-C ,  3-C ) :   1.2557 B(  2-C ,  6-C ) :   1.0343
B(  3-C ,  4-C ) :   1.5322 B(  3-C ,  5-H ) :   0.9945 B(  4-C , 20-C ) :   1.0525
B(  6-C ,  7-H ) :   0.9351 B(  6-C ,  8-H ) :   0.9412 B(  6-C ,  9-C ) :   1.0700
B(  9-C , 10-H ) :   0.9547 B(  9-C , 11-H ) :   0.9535 B(  9-C , 12-C ) :   1.0817
B( 12-C , 13-H ) :   0.9721 B( 12-C , 14-H ) :   0.9767 B( 12-C , 15-H ) :   0.9742
B( 16-S , 17-C ) :   1.1486 B( 16-S , 20-C ) :   1.1507 B( 17-C , 18-C ) :   1.6452
B( 17-C , 33-H ) :   0.9582 B( 18-C , 19-C ) :   1.2124 B( 18-C , 21-H ) :   0.9966
B( 19-C , 20-C ) :   1.6071 B( 19-C , 22-C ) :   1.0355 B( 22-C , 23-H ) :   0.9424
B( 22-C , 24-H ) :   0.9374 B( 22-C , 25-C ) :   1.0644 B( 25-C , 26-H ) :   0.9615
B( 25-C , 27-H ) :   0.9545 B( 25-C , 28-C ) :   1.0713 B( 28-C , 29-H ) :   0.9747
B( 28-C , 30-H ) :   0.9776 B( 28-C , 31-H ) :   0.9760

Dispersion correction           -0.014339857
FINAL SINGLE POINT ENERGY     -1339.875569638238

DIPOLE MOMENT
-------------
                                X             Y             Z
Electronic contribution:    -21.02071      -7.21266      17.10030
Nuclear contribution   :     21.64555       7.21487     -17.46643
                        -----------------------------------------
Total Dipole Moment    :      0.62484       0.00221      -0.36613
                        -----------------------------------------
Magnitude (a.u.)       :      0.72421
Magnitude (Debye)      :      1.84079

Rotational constants in cm-1:     0.016837     0.009311     0.007320
Rotational constants in MHz :   504.757740   279.144593   219.437596

                             ****ORCA TERMINATED NORMALLY****
TOTAL RUN TIME: 0 days 0 hours 0 minutes 30 seconds 598 msec
