                         Program Version 4.2.1 -  RELEASE  -
|  1> ! wB97X-D3 SP def2-SVP
|  2> %pal
|  3> nprocs 16
|  4> end
|  5>
|  6> * xyz 0 1
|  7> S 	 45.8831 	 11.3811 	 75.2579
|  8> C 	 44.4901 	 10.6163 	 75.9358
|  9> C 	 44.2882 	 11.0079 	 77.2658
| 10> C 	 45.3199 	 11.8618 	 77.7905
| 11> C 	 46.3029 	 12.0803 	 76.8111
| 12> H 	 45.2784 	 12.4276 	 78.7634
| 13> C 	 43.0163 	 10.6816 	 77.985
| 14> H 	 42.2796 	 10.5833 	 77.1611
| 15> H 	 42.6881 	 11.5139 	 78.5356
| 16> C 	 42.9196 	 9.4254 	 78.8668
| 17> H 	 43.4797 	 8.60839 	 78.4361
| 18> H 	 43.4967 	 9.62375 	 79.802
| 19> C 	 41.4219 	 9.10454 	 79.1944
| 20> H 	 41.1352 	 8.22338 	 78.5753
| 21> H 	 41.1943 	 8.61882 	 80.1408
| 22> H 	 40.643 	 9.83932 	 79.0406
| 23> S 	 48.8824 	 11.4976 	 77.1359
| 24> C 	 49.9811 	 12.6873 	 77.6964
| 25> C 	 49.4521 	 13.8908 	 77.8979
| 26> C 	 48.0377 	 13.8789 	 77.5909
| 27> C 	 47.6053 	 12.6576 	 77.1781
| 28> H 	 49.9793 	 14.7442 	 78.1964
| 29> C 	 47.1984 	 15.1379 	 77.7785
| 30> H 	 47.4547 	 15.654 	 78.7078
| 31> H 	 46.1064 	 14.9251 	 77.9499
| 32> C 	 47.3469 	 16.2391 	 76.7095
| 33> H 	 47.4444 	 15.9932 	 75.6768
| 34> H 	 48.293 	 16.7138 	 76.9522
| 35> C 	 46.2147 	 17.3008 	 76.7758
| 36> H 	 46.2608 	 18.0511 	 75.9723
| 37> H 	 46.1989 	 17.8394 	 77.7524
| 38> H 	 45.251 	 16.8366 	 76.683
| 39> H 	 43.7632 	 9.97275 	 75.4276
| 40> H 	 51.0274 	 12.5763 	 77.8811
| 41> *
| 42>
| 43>                          ****END OF INPUT****

CARTESIAN COORDINATES (ANGSTROEM)
---------------------------------
  S     45.883100   11.381100   75.257900
  C     44.490100   10.616300   75.935800
  C     44.288200   11.007900   77.265800
  C     45.319900   11.861800   77.790500
  C     46.302900   12.080300   76.811100
  H     45.278400   12.427600   78.763400
  C     43.016300   10.681600   77.985000
  H     42.279600   10.583300   77.161100
  H     42.688100   11.513900   78.535600
  C     42.919600    9.425400   78.866800
  H     43.479700    8.608390   78.436100
  H     43.496700    9.623750   79.802000
  C     41.421900    9.104540   79.194400
  H     41.135200    8.223380   78.575300
  H     41.194300    8.618820   80.140800
  H     40.643000    9.839320   79.040600
  S     48.882400   11.497600   77.135900
  C     49.981100   12.687300   77.696400
  C     49.452100   13.890800   77.897900
  C     48.037700   13.878900   77.590900
  C     47.605300   12.657600   77.178100
  H     49.979300   14.744200   78.196400
  C     47.198400   15.137900   77.778500
  H     47.454700   15.654000   78.707800
  H     46.106400   14.925100   77.949900
  C     47.346900   16.239100   76.709500
  H     47.444400   15.993200   75.676800
  H     48.293000   16.713800   76.952200
  C     46.214700   17.300800   76.775800
  H     46.260800   18.051100   75.972300
  H     46.198900   17.839400   77.752400
  H     45.251000   16.836600   76.683000
  H     43.763200    9.972750   75.427600
  H     51.027400   12.576300   77.881100

 Total Charge           Charge          ....    0
 Multiplicity           Mult            ....    1
 Number of Electrons    NEL             ....  134
 Basis Dimension        Dim             ....  322

ORBITAL ENERGIES
----------------

  NO   OCC          E(Eh)            E(eV)
   0   2.0000     -88.972456     -2421.0636
   1   2.0000     -88.960876     -2420.7485
   2   2.0000     -10.330493      -281.1070
   3   2.0000     -10.320214      -280.8273
   4   2.0000     -10.314395      -280.6689
   5   2.0000     -10.304581      -280.4019
   6   2.0000     -10.300195      -280.2825
   7   2.0000     -10.299748      -280.2704
   8   2.0000     -10.299453      -280.2624
   9   2.0000     -10.294880      -280.1379
  10   2.0000     -10.291606      -280.0488
  11   2.0000     -10.285646      -279.8867
  12   2.0000     -10.282989      -279.8144
  13   2.0000     -10.282570      -279.8029
  14   2.0000     -10.281339      -279.7695
  15   2.0000     -10.278655      -279.6964
  16   2.0000      -8.086915      -220.0562
  17   2.0000      -8.077132      -219.7899
  18   2.0000      -6.045363      -164.5027
  19   2.0000      -6.041423      -164.3955
  20   2.0000      -6.037802      -164.2970
  21   2.0000      -6.035662      -164.2387
  22   2.0000      -6.031468      -164.1246
  23   2.0000      -6.027727      -164.0228
  24   2.0000      -1.011678       -27.5291
  25   2.0000      -0.987076       -26.8597
  26   2.0000      -0.908294       -24.7159
  27   2.0000      -0.904418       -24.6105
  28   2.0000      -0.870812       -23.6960
  29   2.0000      -0.849994       -23.1295
  30   2.0000      -0.846507       -23.0346
  31   2.0000      -0.815525       -22.1916
  32   2.0000      -0.779347       -21.2071
  33   2.0000      -0.769470       -20.9384
  34   2.0000      -0.708767       -19.2865
  35   2.0000      -0.702256       -19.1094
  36   2.0000      -0.694323       -18.8935
  37   2.0000      -0.665467       -18.1083
  38   2.0000      -0.637439       -17.3456
  39   2.0000      -0.615199       -16.7404
  40   2.0000      -0.600485       -16.3400
  41   2.0000      -0.574298       -15.6274
  42   2.0000      -0.556808       -15.1515
  43   2.0000      -0.547974       -14.9111
  44   2.0000      -0.525509       -14.2998
  45   2.0000      -0.523099       -14.2342
  46   2.0000      -0.512353       -13.9418
  47   2.0000      -0.511158       -13.9093
  48   2.0000      -0.499815       -13.6007
  49   2.0000      -0.495890       -13.4938
  50   2.0000      -0.488158       -13.2834
  51   2.0000      -0.479644       -13.0518
  52   2.0000      -0.473219       -12.8769
  53   2.0000      -0.466423       -12.6920
  54   2.0000      -0.460906       -12.5419
  55   2.0000      -0.447350       -12.1730
  56   2.0000      -0.443796       -12.0763
  57   2.0000      -0.442267       -12.0347
  58   2.0000      -0.438517       -11.9327
  59   2.0000      -0.428563       -11.6618
  60   2.0000      -0.421672       -11.4743
  61   2.0000      -0.410951       -11.1826
  62   2.0000      -0.404758       -11.0140
  63   2.0000      -0.344568        -9.3762
  64   2.0000      -0.327833        -8.9208
  65   2.0000      -0.325929        -8.8690
  66   2.0000      -0.299318        -8.1449
  67   0.0000       0.040429         1.1001
  68   0.0000       0.068433         1.8621
  69   0.0000       0.108055         2.9403
  70   0.0000       0.123947         3.3728
  71   0.0000       0.133901         3.6436

MULLIKEN ATOMIC CHARGES
-----------------------
   0 S :    0.139102
   1 C :   -0.124138
   2 C :   -0.098483
   3 C :    0.035212
   4 C :   -0.173964
   5 H :    0.046930
   6 C :    0.044718
   7 H :    0.019687
   8 H :    0.014937
   9 C :   -0.040402
  10 H :    0.029189
  11 H :    0.031091
  12 C :   -0.064201
  13 H :    0.026095
  14 H :    0.024919
  15 H :    0.039353
  16 S :    0.119958
  17 C :   -0.055179
  18 C :   -0.017717
  19 C :   -0.009443
  20 C :   -0.178310
  21 H :   -0.004658
  22 C :    0.038855
  23 H :    0.019742
  24 H :    0.022679
  25 C :   -0.053412
  26 H :    0.030390
  27 H :    0.017761
  28 C :   -0.067617
  29 H :    0.036407
  30 H :    0.028596
  31 H :    0.028774
  32 H :    0.054960
  33 H :    0.038172
Sum of atomic charges:   -0.0000000

LOEWDIN ATOMIC CHARGES
----------------------
   0 S :    0.423936
   1 C :   -0.213188
   2 C :   -0.065737
   3 C :   -0.060045
   4 C :   -0.204977
   5 H :    0.045668
   6 C :   -0.034602
   7 H :    0.031362
   8 H :    0.023660
   9 C :   -0.037269
  10 H :    0.023361
  11 H :    0.026211
  12 C :   -0.080003
  13 H :    0.033587
  14 H :    0.026916
  15 H :    0.025413
  16 S :    0.427263
  17 C :   -0.187724
  18 C :   -0.064840
  19 C :   -0.056019
  20 C :   -0.202252
  21 H :    0.023759
  22 C :   -0.035441
  23 H :    0.031463
  24 H :    0.029568
  25 C :   -0.038714
  26 H :    0.021395
  27 H :    0.020631
  28 C :   -0.067123
  29 H :    0.027586
  30 H :    0.025416
  31 H :    0.020820
  32 H :    0.033478
  33 H :    0.026442

  Mayer bond orders larger than 0.100000
B(  0-S ,  1-C ) :   1.1405 B(  0-S ,  4-C ) :   1.1725 B(  1-C ,  2-C ) :   1.5948
B(  1-C , 32-H ) :   0.9631 B(  2-C ,  3-C ) :   1.2631 B(  2-C ,  6-C ) :   1.0223
B(  3-C ,  4-C ) :   1.5501 B(  3-C ,  5-H ) :   0.9819 B(  4-C , 20-C ) :   1.0015
B(  6-C ,  7-H ) :   0.9490 B(  6-C ,  8-H ) :   0.9393 B(  6-C ,  9-C ) :   1.0544
B(  9-C , 10-H ) :   0.9639 B(  9-C , 11-H ) :   0.9587 B(  9-C , 12-C ) :   1.0485
B( 12-C , 13-H ) :   0.9742 B( 12-C , 14-H ) :   0.9756 B( 12-C , 15-H ) :   0.9820
B( 16-S , 17-C ) :   1.1457 B( 16-S , 20-C ) :   1.1381 B( 17-C , 18-C ) :   1.6500
B( 17-C , 33-H ) :   0.9617 B( 18-C , 19-C ) :   1.2086 B( 18-C , 21-H ) :   1.0004
B( 19-C , 20-C ) :   1.6651 B( 19-C , 22-C ) :   1.0439 B( 22-C , 23-H ) :   0.9350
B( 22-C , 24-H ) :   0.9459 B( 22-C , 25-C ) :   1.0446 B( 25-C , 26-H ) :   0.9640
B( 25-C , 27-H ) :   0.9545 B( 25-C , 28-C ) :   1.0833 B( 28-C , 29-H ) :   0.9762
B( 28-C , 30-H ) :   0.9753 B( 28-C , 31-H ) :   0.9767

Dispersion correction           -0.013352226
FINAL SINGLE POINT ENERGY     -1339.870415907895

DIPOLE MOMENT
-------------
                                X             Y             Z
Electronic contribution:     19.34989      -9.83451     -10.77363
Nuclear contribution   :    -19.66122      10.10587      11.09831
                        -----------------------------------------
Total Dipole Moment    :     -0.31133       0.27136       0.32468
                        -----------------------------------------
Magnitude (a.u.)       :      0.52534
Magnitude (Debye)      :      1.33530

Rotational constants in cm-1:     0.018878     0.007327     0.006358
Rotational constants in MHz :   565.942632   219.645587   190.595525

                             ****ORCA TERMINATED NORMALLY****
TOTAL RUN TIME: 0 days 0 hours 0 minutes 28 seconds 542 msec
