                         Program Version 4.2.1 -  RELEASE  -
|  1> ! wB97X-D3 SP def2-SVP
|  2> %pal
|  3> nprocs 16
|  4> end
|  5>
|  6> * xyz 0 1
|  7> S 	 39.8771 	 29.0163 	 93.7123
|  8> C 	 39.1264 	 28.8447 	 92.1882
|  9> C 	 38.1523 	 27.8323 	 92.1417
| 10> C 	 38.124 	 27.1262 	 93.3863
| 11> C 	 38.9307 	 27.6265 	 94.3993
| 12> H 	 37.4692 	 26.235 	 93.6672
| 13> C 	 37.2111 	 27.687 	 90.9566
| 14> H 	 37.1253 	 26.5885 	 90.7727
| 15> H 	 37.6626 	 28.0858 	 90.0392
| 16> C 	 35.8826 	 28.3245 	 91.2925
| 17> H 	 35.9638 	 29.2861 	 91.8535
| 18> H 	 35.353 	 28.525 	 90.3558
| 19> C 	 34.952 	 27.4455 	 92.1318
| 20> H 	 34.0819 	 28.0342 	 92.2615
| 21> H 	 34.7927 	 26.4352 	 91.6335
| 22> H 	 35.2143 	 27.2292 	 93.083
| 23> S 	 39.3009 	 28.3131 	 96.9709
| 24> C 	 39.6164 	 27.202 	 98.259
| 25> C 	 39.3127 	 25.9271 	 97.7868
| 26> C 	 39.0783 	 25.8776 	 96.3155
| 27> C 	 39.0375 	 27.1073 	 95.7836
| 28> H 	 39.3853 	 25.0327 	 98.409
| 29> C 	 39.218 	 24.6134 	 95.5797
| 30> H 	 40.0782 	 24.045 	 95.7851
| 31> H 	 39.3942 	 24.7692 	 94.5283
| 32> C 	 38.0524 	 23.6481 	 95.6699
| 33> H 	 37.219 	 24.1695 	 95.2858
| 34> H 	 37.7475 	 23.6001 	 96.6797
| 35> C 	 38.231 	 22.2944 	 94.8632
| 36> H 	 39.1261 	 21.7353 	 95.0629
| 37> H 	 38.1953 	 22.4581 	 93.7246
| 38> H 	 37.3537 	 21.6553 	 95.1596
| 39> H 	 39.3637 	 29.3747 	 91.2985
| 40> H 	 39.989 	 27.5701 	 99.135
| 41> *
| 42>
| 43>                          ****END OF INPUT****

CARTESIAN COORDINATES (ANGSTROEM)
---------------------------------
  S     39.877100   29.016300   93.712300
  C     39.126400   28.844700   92.188200
  C     38.152300   27.832300   92.141700
  C     38.124000   27.126200   93.386300
  C     38.930700   27.626500   94.399300
  H     37.469200   26.235000   93.667200
  C     37.211100   27.687000   90.956600
  H     37.125300   26.588500   90.772700
  H     37.662600   28.085800   90.039200
  C     35.882600   28.324500   91.292500
  H     35.963800   29.286100   91.853500
  H     35.353000   28.525000   90.355800
  C     34.952000   27.445500   92.131800
  H     34.081900   28.034200   92.261500
  H     34.792700   26.435200   91.633500
  H     35.214300   27.229200   93.083000
  S     39.300900   28.313100   96.970900
  C     39.616400   27.202000   98.259000
  C     39.312700   25.927100   97.786800
  C     39.078300   25.877600   96.315500
  C     39.037500   27.107300   95.783600
  H     39.385300   25.032700   98.409000
  C     39.218000   24.613400   95.579700
  H     40.078200   24.045000   95.785100
  H     39.394200   24.769200   94.528300
  C     38.052400   23.648100   95.669900
  H     37.219000   24.169500   95.285800
  H     37.747500   23.600100   96.679700
  C     38.231000   22.294400   94.863200
  H     39.126100   21.735300   95.062900
  H     38.195300   22.458100   93.724600
  H     37.353700   21.655300   95.159600
  H     39.363700   29.374700   91.298500
  H     39.989000   27.570100   99.135000

 Total Charge           Charge          ....    0
 Multiplicity           Mult            ....    1
 Number of Electrons    NEL             ....  134
 Basis Dimension        Dim             ....  322

ORBITAL ENERGIES
----------------

  NO   OCC          E(Eh)            E(eV)
   0   2.0000     -88.969638     -2420.9869
   1   2.0000     -88.956491     -2420.6292
   2   2.0000     -10.335742      -281.2498
   3   2.0000     -10.325170      -280.9622
   4   2.0000     -10.315945      -280.7111
   5   2.0000     -10.311752      -280.5970
   6   2.0000     -10.303382      -280.3693
   7   2.0000     -10.303297      -280.3670
   8   2.0000     -10.302966      -280.3580
   9   2.0000     -10.301207      -280.3101
  10   2.0000     -10.296773      -280.1894
  11   2.0000     -10.292702      -280.0787
  12   2.0000     -10.288028      -279.9515
  13   2.0000     -10.279914      -279.7307
  14   2.0000     -10.277444      -279.6635
  15   2.0000     -10.268905      -279.4311
  16   2.0000      -8.083607      -219.9661
  17   2.0000      -8.073253      -219.6844
  18   2.0000      -6.042161      -164.4155
  19   2.0000      -6.038149      -164.3064
  20   2.0000      -6.034423      -164.2050
  21   2.0000      -6.031833      -164.1345
  22   2.0000      -6.027327      -164.0119
  23   2.0000      -6.023948      -163.9200
  24   2.0000      -1.009598       -27.4726
  25   2.0000      -0.984939       -26.8016
  26   2.0000      -0.914472       -24.8841
  27   2.0000      -0.913841       -24.8669
  28   2.0000      -0.871050       -23.7025
  29   2.0000      -0.848630       -23.0924
  30   2.0000      -0.842156       -22.9162
  31   2.0000      -0.819182       -22.2911
  32   2.0000      -0.781482       -21.2652
  33   2.0000      -0.775450       -21.1011
  34   2.0000      -0.711139       -19.3511
  35   2.0000      -0.699556       -19.0359
  36   2.0000      -0.698736       -19.0136
  37   2.0000      -0.673322       -18.3220
  38   2.0000      -0.639980       -17.4147
  39   2.0000      -0.617844       -16.8124
  40   2.0000      -0.606254       -16.4970
  41   2.0000      -0.573468       -15.6049
  42   2.0000      -0.559551       -15.2262
  43   2.0000      -0.548427       -14.9235
  44   2.0000      -0.543008       -14.7760
  45   2.0000      -0.522815       -14.2265
  46   2.0000      -0.521800       -14.1989
  47   2.0000      -0.516584       -14.0570
  48   2.0000      -0.508804       -13.8453
  49   2.0000      -0.497912       -13.5489
  50   2.0000      -0.494853       -13.4656
  51   2.0000      -0.475961       -12.9516
  52   2.0000      -0.473472       -12.8838
  53   2.0000      -0.465053       -12.6547
  54   2.0000      -0.455910       -12.4059
  55   2.0000      -0.451217       -12.2782
  56   2.0000      -0.444370       -12.0919
  57   2.0000      -0.438696       -11.9375
  58   2.0000      -0.432016       -11.7558
  59   2.0000      -0.431291       -11.7360
  60   2.0000      -0.417024       -11.3478
  61   2.0000      -0.410830       -11.1793
  62   2.0000      -0.408718       -11.1218
  63   2.0000      -0.357174        -9.7192
  64   2.0000      -0.331326        -9.0158
  65   2.0000      -0.323246        -8.7960
  66   2.0000      -0.290900        -7.9158
  67   0.0000       0.028809         0.7839
  68   0.0000       0.075449         2.0531
  69   0.0000       0.107328         2.9205
  70   0.0000       0.120730         3.2852
  71   0.0000       0.126075         3.4307

MULLIKEN ATOMIC CHARGES
-----------------------
   0 S :    0.126050
   1 C :   -0.095265
   2 C :   -0.122886
   3 C :   -0.002952
   4 C :   -0.136370
   5 H :    0.040617
   6 C :    0.079107
   7 H :    0.030981
   8 H :    0.022166
   9 C :   -0.075118
  10 H :    0.043450
  11 H :    0.031631
  12 C :   -0.015861
  13 H :    0.022203
  14 H :    0.030266
  15 H :    0.005993
  16 S :    0.076005
  17 C :   -0.065069
  18 C :   -0.009271
  19 C :   -0.049870
  20 C :   -0.131917
  21 H :    0.028281
  22 C :    0.066419
  23 H :    0.008608
  24 H :    0.004876
  25 C :   -0.048030
  26 H :   -0.000285
  27 H :    0.006558
  28 C :   -0.073451
  29 H :    0.036844
  30 H :    0.048198
  31 H :    0.047567
  32 H :    0.037256
  33 H :    0.033269
Sum of atomic charges:    0.0000000

LOEWDIN ATOMIC CHARGES
----------------------
   0 S :    0.402563
   1 C :   -0.203554
   2 C :   -0.065305
   3 C :   -0.068308
   4 C :   -0.184042
   5 H :    0.042514
   6 C :   -0.033816
   7 H :    0.034116
   8 H :    0.030388
   9 C :   -0.040336
  10 H :    0.033725
  11 H :    0.025693
  12 C :   -0.057062
  13 H :    0.026050
  14 H :    0.030654
  15 H :    0.005840
  16 S :    0.413439
  17 C :   -0.169296
  18 C :   -0.060086
  19 C :   -0.065035
  20 C :   -0.195423
  21 H :    0.030086
  22 C :   -0.036322
  23 H :    0.024581
  24 H :    0.028237
  25 C :   -0.037026
  26 H :    0.015763
  27 H :    0.016085
  28 C :   -0.070269
  29 H :    0.019731
  30 H :    0.035957
  31 H :    0.035611
  32 H :    0.023946
  33 H :    0.010903

  Mayer bond orders larger than 0.100000
B(  0-S ,  1-C ) :   1.1578 B(  0-S ,  4-C ) :   1.1310 B(  1-C ,  2-C ) :   1.5949
B(  1-C ,  4-C ) :   0.1024 B(  1-C , 32-H ) :   0.9659 B(  2-C ,  3-C ) :   1.2564
B(  2-C ,  6-C ) :   1.0305 B(  3-C ,  4-C ) :   1.5764 B(  3-C ,  5-H ) :   0.9745
B(  4-C , 20-C ) :   1.0324 B(  6-C ,  7-H ) :   0.9400 B(  6-C ,  8-H ) :   0.9398
B(  6-C ,  9-C ) :   1.0567 B(  9-C , 10-H ) :   0.9538 B(  9-C , 11-H ) :   0.9551
B(  9-C , 12-C ) :   1.0870 B( 12-C , 13-H ) :   0.9678 B( 12-C , 14-H ) :   0.9731
B( 12-C , 15-H ) :   0.9711 B( 16-S , 17-C ) :   1.1542 B( 16-S , 20-C ) :   1.1331
B( 17-C , 18-C ) :   1.5962 B( 17-C , 33-H ) :   0.9925 B( 18-C , 19-C ) :   1.2003
B( 18-C , 21-H ) :   0.9878 B( 19-C , 20-C ) :   1.6400 B( 19-C , 22-C ) :   1.0575
B( 22-C , 23-H ) :   0.9337 B( 22-C , 24-H ) :   0.9317 B( 22-C , 25-C ) :   1.0504
B( 25-C , 26-H ) :   0.9458 B( 25-C , 27-H ) :   0.9583 B( 25-C , 28-C ) :   1.0644
B( 28-C , 29-H ) :   0.9785 B( 28-C , 30-H ) :   0.9748 B( 28-C , 31-H ) :   0.9753

Dispersion correction           -0.014351768
FINAL SINGLE POINT ENERGY     -1339.858922427996

DIPOLE MOMENT
-------------
                                X             Y             Z
Electronic contribution:     16.46998      20.05918      12.26830
Nuclear contribution   :    -16.68645     -20.49673     -12.53840
                        -----------------------------------------
Total Dipole Moment    :     -0.21647      -0.43755      -0.27010
                        -----------------------------------------
Magnitude (a.u.)       :      0.55791
Magnitude (Debye)      :      1.41810

Rotational constants in cm-1:     0.016238     0.009653     0.007075
Rotational constants in MHz :   486.812269   289.397982   212.098880

                             ****ORCA TERMINATED NORMALLY****
TOTAL RUN TIME: 0 days 0 hours 0 minutes 29 seconds 979 msec
