                         Program Version 4.2.1 -  RELEASE  -
|  1> ! wB97X-D3 SP def2-SVP
|  2> %pal
|  3> nprocs 16
|  4> end
|  5>
|  6> * xyz 0 1
|  7> S 	 10.7203 	 22.9803 	 38.695
|  8> C 	 12.46 	 23.1932 	 38.3657
|  9> C 	 13.3201 	 22.724 	 39.3586
| 10> C 	 12.5439 	 22.1948 	 40.4828
| 11> C 	 11.1783 	 22.2307 	 40.2262
| 12> H 	 12.8695 	 21.7854 	 41.4408
| 13> C 	 14.8337 	 22.8803 	 39.5156
| 14> H 	 15.2906 	 23.1101 	 38.5066
| 15> H 	 15.2615 	 21.9156 	 39.8422
| 16> C 	 15.347 	 23.8664 	 40.6266
| 17> H 	 15.3175 	 24.8843 	 40.2214
| 18> H 	 14.7062 	 23.7835 	 41.5175
| 19> C 	 16.7861 	 23.5192 	 40.9876
| 20> H 	 17.1977 	 24.1056 	 41.8755
| 21> H 	 16.9912 	 22.4806 	 41.1372
| 22> H 	 17.5147 	 23.8694 	 40.1856
| 23> S 	 9.48184 	 20.1144 	 40.8875
| 24> C 	 8.37401 	 20.3639 	 42.174
| 25> C 	 8.62067 	 21.5345 	 42.8471
| 26> C 	 9.62416 	 22.3289 	 42.2837
| 27> C 	 10.1306 	 21.7997 	 41.0881
| 28> H 	 7.99638 	 21.7876 	 43.7116
| 29> C 	 10.0515 	 23.7194 	 42.8542
| 30> H 	 9.35979 	 24.0491 	 43.6088
| 31> H 	 9.94435 	 24.3803 	 42.082
| 32> C 	 11.5114 	 23.9772 	 43.4172
| 33> H 	 12.2305 	 23.3485 	 42.9351
| 34> H 	 11.4983 	 23.5407 	 44.4263
| 35> C 	 11.8303 	 25.4355 	 43.6134
| 36> H 	 12.7403 	 25.598 	 44.1894
| 37> H 	 10.9788 	 25.953 	 44.0548
| 38> H 	 12.0616 	 25.9121 	 42.6321
| 39> H 	 12.732 	 23.5915 	 37.4042
| 40> H 	 7.64995 	 19.669 	 42.6229
| 41> *
| 42>
| 43>                          ****END OF INPUT****

CARTESIAN COORDINATES (ANGSTROEM)
---------------------------------
  S     10.720300   22.980300   38.695000
  C     12.460000   23.193200   38.365700
  C     13.320100   22.724000   39.358600
  C     12.543900   22.194800   40.482800
  C     11.178300   22.230700   40.226200
  H     12.869500   21.785400   41.440800
  C     14.833700   22.880300   39.515600
  H     15.290600   23.110100   38.506600
  H     15.261500   21.915600   39.842200
  C     15.347000   23.866400   40.626600
  H     15.317500   24.884300   40.221400
  H     14.706200   23.783500   41.517500
  C     16.786100   23.519200   40.987600
  H     17.197700   24.105600   41.875500
  H     16.991200   22.480600   41.137200
  H     17.514700   23.869400   40.185600
  S      9.481840   20.114400   40.887500
  C      8.374010   20.363900   42.174000
  C      8.620670   21.534500   42.847100
  C      9.624160   22.328900   42.283700
  C     10.130600   21.799700   41.088100
  H      7.996380   21.787600   43.711600
  C     10.051500   23.719400   42.854200
  H      9.359790   24.049100   43.608800
  H      9.944350   24.380300   42.082000
  C     11.511400   23.977200   43.417200
  H     12.230500   23.348500   42.935100
  H     11.498300   23.540700   44.426300
  C     11.830300   25.435500   43.613400
  H     12.740300   25.598000   44.189400
  H     10.978800   25.953000   44.054800
  H     12.061600   25.912100   42.632100
  H     12.732000   23.591500   37.404200
  H      7.649950   19.669000   42.622900

 Total Charge           Charge          ....    0
 Multiplicity           Mult            ....    1
 Number of Electrons    NEL             ....  134
 Basis Dimension        Dim             ....  322

ORBITAL ENERGIES
----------------

  NO   OCC          E(Eh)            E(eV)
   0   2.0000     -88.967707     -2420.9344
   1   2.0000     -88.963994     -2420.8334
   2   2.0000     -10.326646      -281.0023
   3   2.0000     -10.323173      -280.9078
   4   2.0000     -10.320210      -280.8272
   5   2.0000     -10.313460      -280.6435
   6   2.0000     -10.312219      -280.6097
   7   2.0000     -10.305814      -280.4355
   8   2.0000     -10.303787      -280.3803
   9   2.0000     -10.301786      -280.3258
  10   2.0000     -10.295395      -280.1519
  11   2.0000     -10.287565      -279.9389
  12   2.0000     -10.287317      -279.9321
  13   2.0000     -10.286063      -279.8980
  14   2.0000     -10.283236      -279.8211
  15   2.0000     -10.279790      -279.7273
  16   2.0000      -8.081895      -219.9196
  17   2.0000      -8.078319      -219.8222
  18   2.0000      -6.040298      -164.3649
  19   2.0000      -6.036707      -164.2671
  20   2.0000      -6.036681      -164.2664
  21   2.0000      -6.032944      -164.1648
  22   2.0000      -6.032593      -164.1552
  23   2.0000      -6.029164      -164.0619
  24   2.0000      -1.001180       -27.2435
  25   2.0000      -0.977507       -26.5993
  26   2.0000      -0.908738       -24.7280
  27   2.0000      -0.902538       -24.5593
  28   2.0000      -0.868844       -23.6425
  29   2.0000      -0.851101       -23.1596
  30   2.0000      -0.847629       -23.0652
  31   2.0000      -0.807999       -21.9868
  32   2.0000      -0.781867       -21.2757
  33   2.0000      -0.768071       -20.9003
  34   2.0000      -0.707104       -19.2413
  35   2.0000      -0.701343       -19.0845
  36   2.0000      -0.693643       -18.8750
  37   2.0000      -0.652835       -17.7645
  38   2.0000      -0.648315       -17.6416
  39   2.0000      -0.614628       -16.7249
  40   2.0000      -0.593454       -16.1487
  41   2.0000      -0.570104       -15.5133
  42   2.0000      -0.561621       -15.2825
  43   2.0000      -0.555703       -15.1215
  44   2.0000      -0.523457       -14.2440
  45   2.0000      -0.516892       -14.0653
  46   2.0000      -0.512124       -13.9356
  47   2.0000      -0.510279       -13.8854
  48   2.0000      -0.505124       -13.7451
  49   2.0000      -0.500028       -13.6065
  50   2.0000      -0.486644       -13.2423
  51   2.0000      -0.477493       -12.9933
  52   2.0000      -0.472264       -12.8509
  53   2.0000      -0.462630       -12.5888
  54   2.0000      -0.456200       -12.4138
  55   2.0000      -0.453603       -12.3432
  56   2.0000      -0.445945       -12.1348
  57   2.0000      -0.435809       -11.8590
  58   2.0000      -0.431658       -11.7460
  59   2.0000      -0.430220       -11.7069
  60   2.0000      -0.422776       -11.5043
  61   2.0000      -0.421862       -11.4795
  62   2.0000      -0.408529       -11.1167
  63   2.0000      -0.336554        -9.1581
  64   2.0000      -0.328386        -8.9358
  65   2.0000      -0.318430        -8.6649
  66   2.0000      -0.306876        -8.3505
  67   0.0000       0.038537         1.0487
  68   0.0000       0.050919         1.3856
  69   0.0000       0.105158         2.8615
  70   0.0000       0.110527         3.0076
  71   0.0000       0.124483         3.3874

MULLIKEN ATOMIC CHARGES
-----------------------
   0 S :    0.112462
   1 C :   -0.126564
   2 C :   -0.040779
   3 C :    0.034357
   4 C :   -0.190982
   5 H :    0.032908
   6 C :    0.030349
   7 H :    0.035541
   8 H :    0.026642
   9 C :   -0.055722
  10 H :    0.040800
  11 H :    0.041728
  12 C :   -0.096166
  13 H :    0.043567
  14 H :    0.033410
  15 H :    0.036009
  16 S :    0.111309
  17 C :   -0.083656
  18 C :   -0.067611
  19 C :    0.005472
  20 C :   -0.196510
  21 H :    0.020274
  22 C :    0.108204
  23 H :    0.008818
  24 H :    0.006838
  25 C :   -0.050550
  26 H :    0.001533
  27 H :    0.018275
  28 C :   -0.053147
  29 H :    0.036116
  30 H :    0.035715
  31 H :    0.036369
  32 H :    0.043643
  33 H :    0.061347
Sum of atomic charges:   -0.0000000

LOEWDIN ATOMIC CHARGES
----------------------
   0 S :    0.390245
   1 C :   -0.179456
   2 C :   -0.060673
   3 C :   -0.048758
   4 C :   -0.195598
   5 H :    0.034664
   6 C :   -0.035669
   7 H :    0.034654
   8 H :    0.031049
   9 C :   -0.038406
  10 H :    0.029508
  11 H :    0.026055
  12 C :   -0.078399
  13 H :    0.034384
  14 H :    0.018144
  15 H :    0.032060
  16 S :    0.397770
  17 C :   -0.198788
  18 C :   -0.085444
  19 C :   -0.044619
  20 C :   -0.197284
  21 H :    0.034107
  22 C :   -0.018588
  23 H :    0.025994
  24 H :    0.018386
  25 C :   -0.040153
  26 H :    0.013900
  27 H :    0.023208
  28 C :   -0.065398
  29 H :    0.028585
  30 H :    0.027601
  31 H :    0.028788
  32 H :    0.020171
  33 H :    0.037960

  Mayer bond orders larger than 0.100000
B(  0-S ,  1-C ) :   1.1310 B(  0-S ,  4-C ) :   1.1393 B(  1-C ,  2-C ) :   1.6398
B(  1-C , 32-H ) :   0.9703 B(  2-C ,  3-C ) :   1.1782 B(  2-C ,  6-C ) :   1.0350
B(  3-C ,  4-C ) :   1.6327 B(  3-C ,  5-H ) :   0.9799 B(  4-C , 20-C ) :   1.0376
B(  6-C ,  7-H ) :   0.9443 B(  6-C ,  8-H ) :   0.9422 B(  6-C ,  9-C ) :   1.0467
B(  9-C , 10-H ) :   0.9546 B(  9-C , 11-H ) :   0.9584 B(  9-C , 12-C ) :   1.0774
B( 12-C , 13-H ) :   0.9730 B( 12-C , 14-H ) :   0.9768 B( 12-C , 15-H ) :   0.9743
B( 16-S , 17-C ) :   1.1669 B( 16-S , 20-C ) :   1.1308 B( 17-C , 18-C ) :   1.6052
B( 17-C , 20-C ) :   0.1085 B( 17-C , 33-H ) :   0.9585 B( 18-C , 19-C ) :   1.2704
B( 18-C , 21-H ) :   0.9857 B( 19-C , 20-C ) :   1.5803 B( 19-C , 22-C ) :   1.0243
B( 22-C , 23-H ) :   0.9374 B( 22-C , 24-H ) :   0.9361 B( 22-C , 25-C ) :   1.0495
B( 25-C , 26-H ) :   0.9559 B( 25-C , 27-H ) :   0.9507 B( 25-C , 28-C ) :   1.0837
B( 28-C , 29-H ) :   0.9720 B( 28-C , 30-H ) :   0.9723 B( 28-C , 31-H ) :   0.9736

Dispersion correction           -0.014901926
FINAL SINGLE POINT ENERGY     -1339.873152833401

DIPOLE MOMENT
-------------
                                X             Y             Z
Electronic contribution:    -23.17096     -16.31098     -14.26684
Nuclear contribution   :     23.63700      16.64490      14.70744
                        -----------------------------------------
Total Dipole Moment    :      0.46604       0.33393       0.44060
                        -----------------------------------------
Magnitude (a.u.)       :      0.72306
Magnitude (Debye)      :      1.83788

Rotational constants in cm-1:     0.018014     0.009069     0.007274
Rotational constants in MHz :   540.058356   271.886549   218.056909

                             ****ORCA TERMINATED NORMALLY****
TOTAL RUN TIME: 0 days 0 hours 0 minutes 33 seconds 669 msec
