                         Program Version 4.2.1 -  RELEASE  -
|  1> ! wB97X-D3 SP def2-SVP
|  2> %pal
|  3> nprocs 16
|  4> end
|  5>
|  6> * xyz 0 1
|  7> S 	 71.1699 	 24.9074 	 78.128
|  8> C 	 72.3961 	 23.7494 	 78.5002
|  9> C 	 73.6954 	 24.2677 	 78.2267
| 10> C 	 73.6526 	 25.4087 	 77.4001
| 11> C 	 72.329 	 25.945 	 77.2985
| 12> H 	 74.5467 	 25.6926 	 76.7862
| 13> C 	 75.0379 	 23.5875 	 78.6351
| 14> H 	 75.6023 	 23.5367 	 77.6961
| 15> H 	 75.0832 	 22.5334 	 79.0096
| 16> C 	 75.8893 	 24.3587 	 79.638
| 17> H 	 76.8579 	 23.86 	 79.8528
| 18> H 	 76.2048 	 25.313 	 79.2524
| 19> C 	 75.0845 	 24.4489 	 80.9648
| 20> H 	 75.6792 	 25.0104 	 81.7393
| 21> H 	 74.1093 	 24.8988 	 80.7773
| 22> H 	 74.9859 	 23.3867 	 81.318
| 23> S 	 70.9525 	 26.3959 	 75.1153
| 24> C 	 71.2932 	 27.8952 	 74.2425
| 25> C 	 71.8588 	 28.8297 	 75.0756
| 26> C 	 72.3682 	 28.2572 	 76.289
| 27> C 	 71.9953 	 26.9554 	 76.4005
| 28> H 	 72.0004 	 29.831 	 74.7652
| 29> C 	 73.1172 	 28.9692 	 77.3944
| 30> H 	 73.5302 	 29.8212 	 76.8863
| 31> H 	 73.7452 	 28.2159 	 77.7774
| 32> C 	 72.1989 	 29.3834 	 78.5805
| 33> H 	 71.618 	 28.5756 	 78.9569
| 34> H 	 71.4303 	 30.1461 	 78.2725
| 35> C 	 72.9778 	 29.8953 	 79.8466
| 36> H 	 73.6161 	 29.1248 	 80.3177
| 37> H 	 72.2226 	 30.0845 	 80.5527
| 38> H 	 73.6546 	 30.7263 	 79.5502
| 39> H 	 72.2016 	 22.8813 	 79.1255
| 40> H 	 71.1331 	 28.0442 	 73.1568
| 41> *
| 42>
| 43>                          ****END OF INPUT****

CARTESIAN COORDINATES (ANGSTROEM)
---------------------------------
  S     71.169900   24.907400   78.128000
  C     72.396100   23.749400   78.500200
  C     73.695400   24.267700   78.226700
  C     73.652600   25.408700   77.400100
  C     72.329000   25.945000   77.298500
  H     74.546700   25.692600   76.786200
  C     75.037900   23.587500   78.635100
  H     75.602300   23.536700   77.696100
  H     75.083200   22.533400   79.009600
  C     75.889300   24.358700   79.638000
  H     76.857900   23.860000   79.852800
  H     76.204800   25.313000   79.252400
  C     75.084500   24.448900   80.964800
  H     75.679200   25.010400   81.739300
  H     74.109300   24.898800   80.777300
  H     74.985900   23.386700   81.318000
  S     70.952500   26.395900   75.115300
  C     71.293200   27.895200   74.242500
  C     71.858800   28.829700   75.075600
  C     72.368200   28.257200   76.289000
  C     71.995300   26.955400   76.400500
  H     72.000400   29.831000   74.765200
  C     73.117200   28.969200   77.394400
  H     73.530200   29.821200   76.886300
  H     73.745200   28.215900   77.777400
  C     72.198900   29.383400   78.580500
  H     71.618000   28.575600   78.956900
  H     71.430300   30.146100   78.272500
  C     72.977800   29.895300   79.846600
  H     73.616100   29.124800   80.317700
  H     72.222600   30.084500   80.552700
  H     73.654600   30.726300   79.550200
  H     72.201600   22.881300   79.125500
  H     71.133100   28.044200   73.156800

 Total Charge           Charge          ....    0
 Multiplicity           Mult            ....    1
 Number of Electrons    NEL             ....  134
 Basis Dimension        Dim             ....  322

ORBITAL ENERGIES
----------------

  NO   OCC          E(Eh)            E(eV)
   0   2.0000     -88.972926     -2421.0764
   1   2.0000     -88.960897     -2420.7491
   2   2.0000     -10.330362      -281.1034
   3   2.0000     -10.319381      -280.8046
   4   2.0000     -10.316736      -280.7327
   5   2.0000     -10.313121      -280.6343
   6   2.0000     -10.309175      -280.5269
   7   2.0000     -10.302124      -280.3350
   8   2.0000     -10.298211      -280.2286
   9   2.0000     -10.297441      -280.2076
  10   2.0000     -10.292475      -280.0725
  11   2.0000     -10.287195      -279.9288
  12   2.0000     -10.286451      -279.9086
  13   2.0000     -10.285773      -279.8901
  14   2.0000     -10.281223      -279.7663
  15   2.0000     -10.277012      -279.6517
  16   2.0000      -8.087368      -220.0685
  17   2.0000      -8.076029      -219.7599
  18   2.0000      -6.045746      -164.5131
  19   2.0000      -6.041855      -164.4072
  20   2.0000      -6.038350      -164.3119
  21   2.0000      -6.034542      -164.2082
  22   2.0000      -6.030691      -164.1034
  23   2.0000      -6.026520      -163.9899
  24   2.0000      -1.011364       -27.5206
  25   2.0000      -0.981956       -26.7204
  26   2.0000      -0.909548       -24.7500
  27   2.0000      -0.904984       -24.6259
  28   2.0000      -0.873584       -23.7714
  29   2.0000      -0.850942       -23.1553
  30   2.0000      -0.845112       -22.9967
  31   2.0000      -0.805495       -21.9186
  32   2.0000      -0.779033       -21.1986
  33   2.0000      -0.768309       -20.9068
  34   2.0000      -0.707204       -19.2440
  35   2.0000      -0.693132       -18.8611
  36   2.0000      -0.691055       -18.8046
  37   2.0000      -0.668040       -18.1783
  38   2.0000      -0.636019       -17.3070
  39   2.0000      -0.620104       -16.8739
  40   2.0000      -0.590280       -16.0623
  41   2.0000      -0.572044       -15.5661
  42   2.0000      -0.562336       -15.3019
  43   2.0000      -0.547469       -14.8974
  44   2.0000      -0.541358       -14.7311
  45   2.0000      -0.531830       -14.4718
  46   2.0000      -0.512516       -13.9463
  47   2.0000      -0.511138       -13.9088
  48   2.0000      -0.497855       -13.5473
  49   2.0000      -0.495641       -13.4871
  50   2.0000      -0.485328       -13.2064
  51   2.0000      -0.480587       -13.0774
  52   2.0000      -0.465826       -12.6758
  53   2.0000      -0.464190       -12.6312
  54   2.0000      -0.456790       -12.4299
  55   2.0000      -0.449623       -12.2349
  56   2.0000      -0.446362       -12.1461
  57   2.0000      -0.436959       -11.8903
  58   2.0000      -0.429243       -11.6803
  59   2.0000      -0.425236       -11.5713
  60   2.0000      -0.421254       -11.4629
  61   2.0000      -0.416901       -11.3445
  62   2.0000      -0.410351       -11.1662
  63   2.0000      -0.345950        -9.4138
  64   2.0000      -0.329520        -8.9667
  65   2.0000      -0.326181        -8.8758
  66   2.0000      -0.284742        -7.7482
  67   0.0000       0.027957         0.7607
  68   0.0000       0.055368         1.5066
  69   0.0000       0.108399         2.9497
  70   0.0000       0.114233         3.1084
  71   0.0000       0.127397         3.4666

MULLIKEN ATOMIC CHARGES
-----------------------
   0 S :    0.124954
   1 C :   -0.123700
   2 C :   -0.088440
   3 C :    0.017827
   4 C :   -0.185080
   5 H :    0.049039
   6 C :    0.024255
   7 H :    0.028436
   8 H :    0.034286
   9 C :   -0.071218
  10 H :    0.030300
  11 H :    0.017239
  12 C :   -0.079356
  13 H :    0.042589
  14 H :    0.056109
  15 H :    0.028503
  16 S :    0.108239
  17 C :   -0.111280
  18 C :   -0.013911
  19 C :   -0.061623
  20 C :   -0.158432
  21 H :    0.001586
  22 C :    0.163960
  23 H :    0.017466
  24 H :    0.008470
  25 C :   -0.103062
  26 H :    0.021346
  27 H :    0.032062
  28 C :   -0.041684
  29 H :    0.033149
  30 H :    0.030563
  31 H :    0.038198
  32 H :    0.057976
  33 H :    0.071232
Sum of atomic charges:   -0.0000000

LOEWDIN ATOMIC CHARGES
----------------------
   0 S :    0.418588
   1 C :   -0.212766
   2 C :   -0.060791
   3 C :   -0.064300
   4 C :   -0.201782
   5 H :    0.045272
   6 C :   -0.039606
   7 H :    0.030243
   8 H :    0.034947
   9 C :   -0.045434
  10 H :    0.026899
  11 H :    0.013702
  12 C :   -0.069277
  13 H :    0.028312
  14 H :    0.026165
  15 H :    0.027355
  16 S :    0.395131
  17 C :   -0.177235
  18 C :   -0.066357
  19 C :   -0.049804
  20 C :   -0.203639
  21 H :    0.024026
  22 C :   -0.020637
  23 H :    0.028721
  24 H :    0.028207
  25 C :   -0.036261
  26 H :    0.018716
  27 H :    0.026786
  28 C :   -0.064722
  29 H :    0.026595
  30 H :    0.021606
  31 H :    0.027015
  32 H :    0.027628
  33 H :    0.036697

  Mayer bond orders larger than 0.100000
B(  0-S ,  1-C ) :   1.1493 B(  0-S ,  4-C ) :   1.1619 B(  1-C ,  2-C ) :   1.5615
B(  1-C ,  4-C ) :   0.1097 B(  1-C , 32-H ) :   0.9678 B(  2-C ,  3-C ) :   1.2880
B(  2-C ,  6-C ) :   1.0089 B(  3-C ,  4-C ) :   1.5177 B(  3-C ,  5-H ) :   0.9743
B(  4-C , 20-C ) :   1.0722 B(  6-C ,  7-H ) :   0.9408 B(  6-C ,  8-H ) :   0.9551
B(  6-C ,  9-C ) :   1.0781 B(  9-C , 10-H ) :   0.9559 B(  9-C , 11-H ) :   0.9555
B(  9-C , 12-C ) :   1.0630 B( 12-C , 13-H ) :   0.9750 B( 12-C , 14-H ) :   0.9767
B( 12-C , 15-H ) :   0.9742 B( 16-S , 17-C ) :   1.1445 B( 16-S , 20-C ) :   1.1193
B( 17-C , 18-C ) :   1.6202 B( 17-C , 33-H ) :   0.9656 B( 18-C , 19-C ) :   1.2115
B( 18-C , 21-H ) :   0.9953 B( 19-C , 20-C ) :   1.6189 B( 19-C , 22-C ) :   1.0461
B( 22-C , 23-H ) :   0.9236 B( 22-C , 24-H ) :   0.9156 B( 22-C , 25-C ) :   1.0770
B( 25-C , 26-H ) :   0.9578 B( 25-C , 27-H ) :   0.9553 B( 25-C , 28-C ) :   1.0796
B( 28-C , 29-H ) :   0.9757 B( 28-C , 30-H ) :   0.9743 B( 28-C , 31-H ) :   0.9764

Dispersion correction           -0.014822136
FINAL SINGLE POINT ENERGY     -1339.856292877131

DIPOLE MOMENT
-------------
                                X             Y             Z
Electronic contribution:    -18.80267      -6.84327     -19.05760
Nuclear contribution   :     19.31667       7.01272      19.11553
                        -----------------------------------------
Total Dipole Moment    :      0.51400       0.16946       0.05793
                        -----------------------------------------
Magnitude (a.u.)       :      0.54431
Magnitude (Debye)      :      1.38351

Rotational constants in cm-1:     0.018198     0.009622     0.007535
Rotational constants in MHz :   545.547901   288.461951   225.890918

                             ****ORCA TERMINATED NORMALLY****
TOTAL RUN TIME: 0 days 0 hours 0 minutes 30 seconds 824 msec
