                         Program Version 4.2.1 -  RELEASE  -
|  1> ! wB97X-D3 SP def2-SVP
|  2> %pal
|  3> nprocs 16
|  4> end
|  5>
|  6> * xyz 0 1
|  7> S 	 -17.8826 	 53.0437 	 58.3597
|  8> C 	 -17.3223 	 51.4215 	 57.9704
|  9> C 	 -16.2992 	 51.0257 	 58.8614
| 10> C 	 -16.1982 	 51.9462 	 59.9489
| 11> C 	 -17.1212 	 52.9741 	 59.929
| 12> H 	 -15.5634 	 51.7707 	 60.7766
| 13> C 	 -15.4395 	 49.7711 	 58.7724
| 14> H 	 -15.9525 	 49.0382 	 58.1851
| 15> H 	 -15.2911 	 49.4373 	 59.7695
| 16> C 	 -14.0833 	 49.803 	 58.1653
| 17> H 	 -14.1622 	 50.2194 	 57.1674
| 18> H 	 -13.4835 	 50.5097 	 58.6842
| 19> C 	 -13.2408 	 48.4979 	 58.1655
| 20> H 	 -13.616 	 47.7713 	 57.4253
| 21> H 	 -12.228 	 48.8135 	 57.856
| 22> H 	 -13.2295 	 48.0239 	 59.1771
| 23> S 	 -17.2867 	 55.7179 	 60.3014
| 24> C 	 -17.4007 	 56.2818 	 62.0076
| 25> C 	 -17.4753 	 55.2205 	 62.8825
| 26> C 	 -17.2369 	 53.9828 	 62.2747
| 27> C 	 -17.1768 	 54.0489 	 60.9133
| 28> H 	 -17.5562 	 55.392 	 63.948
| 29> C 	 -17.1971 	 52.6578 	 63.0176
| 30> H 	 -17.5687 	 51.9122 	 62.3371
| 31> H 	 -17.9244 	 52.7305 	 63.9012
| 32> C 	 -15.7507 	 52.2313 	 63.4589
| 33> H 	 -15.0553 	 52.5775 	 62.6201
| 34> H 	 -15.7327 	 51.1595 	 63.3968
| 35> C 	 -15.3615 	 52.9405 	 64.748
| 36> H 	 -16.1728 	 52.7071 	 65.4595
| 37> H 	 -15.2685 	 53.9954 	 64.4882
| 38> H 	 -14.4184 	 52.691 	 65.3493
| 39> H 	 -17.613 	 50.8492 	 57.1233
| 40> H 	 -17.4355 	 57.29 	 62.3868
| 41> *
| 42>
| 43>                          ****END OF INPUT****

CARTESIAN COORDINATES (ANGSTROEM)
---------------------------------
  S    -17.882600   53.043700   58.359700
  C    -17.322300   51.421500   57.970400
  C    -16.299200   51.025700   58.861400
  C    -16.198200   51.946200   59.948900
  C    -17.121200   52.974100   59.929000
  H    -15.563400   51.770700   60.776600
  C    -15.439500   49.771100   58.772400
  H    -15.952500   49.038200   58.185100
  H    -15.291100   49.437300   59.769500
  C    -14.083300   49.803000   58.165300
  H    -14.162200   50.219400   57.167400
  H    -13.483500   50.509700   58.684200
  C    -13.240800   48.497900   58.165500
  H    -13.616000   47.771300   57.425300
  H    -12.228000   48.813500   57.856000
  H    -13.229500   48.023900   59.177100
  S    -17.286700   55.717900   60.301400
  C    -17.400700   56.281800   62.007600
  C    -17.475300   55.220500   62.882500
  C    -17.236900   53.982800   62.274700
  C    -17.176800   54.048900   60.913300
  H    -17.556200   55.392000   63.948000
  C    -17.197100   52.657800   63.017600
  H    -17.568700   51.912200   62.337100
  H    -17.924400   52.730500   63.901200
  C    -15.750700   52.231300   63.458900
  H    -15.055300   52.577500   62.620100
  H    -15.732700   51.159500   63.396800
  C    -15.361500   52.940500   64.748000
  H    -16.172800   52.707100   65.459500
  H    -15.268500   53.995400   64.488200
  H    -14.418400   52.691000   65.349300
  H    -17.613000   50.849200   57.123300
  H    -17.435500   57.290000   62.386800

 Total Charge           Charge          ....    0
 Multiplicity           Mult            ....    1
 Number of Electrons    NEL             ....  134
 Basis Dimension        Dim             ....  322

ORBITAL ENERGIES
----------------

  NO   OCC          E(Eh)            E(eV)
   0   2.0000     -88.969833     -2420.9922
   1   2.0000     -88.968501     -2420.9560
   2   2.0000     -10.330239      -281.1001
   3   2.0000     -10.326829      -281.0073
   4   2.0000     -10.319827      -280.8168
   5   2.0000     -10.317359      -280.7496
   6   2.0000     -10.306058      -280.4421
   7   2.0000     -10.297157      -280.1999
   8   2.0000     -10.295935      -280.1666
   9   2.0000     -10.295093      -280.1437
  10   2.0000     -10.292304      -280.0678
  11   2.0000     -10.290977      -280.0317
  12   2.0000     -10.288567      -279.9661
  13   2.0000     -10.286896      -279.9207
  14   2.0000     -10.285767      -279.8899
  15   2.0000     -10.279507      -279.7196
  16   2.0000      -8.084258      -219.9838
  17   2.0000      -8.081917      -219.9201
  18   2.0000      -6.042832      -164.4338
  19   2.0000      -6.040603      -164.3732
  20   2.0000      -6.038971      -164.3288
  21   2.0000      -6.036797      -164.2696
  22   2.0000      -6.034807      -164.2155
  23   2.0000      -6.032389      -164.1496
  24   2.0000      -1.007307       -27.4102
  25   2.0000      -0.982840       -26.7444
  26   2.0000      -0.917339       -24.9621
  27   2.0000      -0.907406       -24.6918
  28   2.0000      -0.870173       -23.6786
  29   2.0000      -0.852569       -23.1996
  30   2.0000      -0.845550       -23.0086
  31   2.0000      -0.814804       -22.1720
  32   2.0000      -0.784128       -21.3372
  33   2.0000      -0.771342       -20.9893
  34   2.0000      -0.708697       -19.2846
  35   2.0000      -0.699038       -19.0218
  36   2.0000      -0.693477       -18.8705
  37   2.0000      -0.665367       -18.1056
  38   2.0000      -0.643981       -17.5236
  39   2.0000      -0.624114       -16.9830
  40   2.0000      -0.593466       -16.1490
  41   2.0000      -0.576493       -15.6872
  42   2.0000      -0.564922       -15.3723
  43   2.0000      -0.551089       -14.9959
  44   2.0000      -0.546181       -14.8623
  45   2.0000      -0.524230       -14.2650
  46   2.0000      -0.516502       -14.0547
  47   2.0000      -0.506616       -13.7857
  48   2.0000      -0.504270       -13.7219
  49   2.0000      -0.500656       -13.6235
  50   2.0000      -0.494832       -13.4651
  51   2.0000      -0.479677       -13.0527
  52   2.0000      -0.468405       -12.7460
  53   2.0000      -0.466403       -12.6915
  54   2.0000      -0.463528       -12.6133
  55   2.0000      -0.452697       -12.3185
  56   2.0000      -0.444410       -12.0930
  57   2.0000      -0.437265       -11.8986
  58   2.0000      -0.431866       -11.7517
  59   2.0000      -0.422929       -11.5085
  60   2.0000      -0.420278       -11.4363
  61   2.0000      -0.419512       -11.4155
  62   2.0000      -0.413892       -11.2626
  63   2.0000      -0.352486        -9.5916
  64   2.0000      -0.335897        -9.1402
  65   2.0000      -0.329838        -8.9753
  66   2.0000      -0.285514        -7.7692
  67   0.0000       0.023308         0.6342
  68   0.0000       0.063518         1.7284
  69   0.0000       0.098797         2.6884
  70   0.0000       0.122163         3.3242
  71   0.0000       0.131798         3.5864

MULLIKEN ATOMIC CHARGES
-----------------------
   0 S :    0.109968
   1 C :   -0.107968
   2 C :   -0.082653
   3 C :    0.025742
   4 C :   -0.122126
   5 H :   -0.023043
   6 C :    0.110525
   7 H :    0.007914
   8 H :    0.004719
   9 C :   -0.065138
  10 H :    0.018736
  11 H :    0.008071
  12 C :   -0.065905
  13 H :    0.039474
  14 H :    0.044472
  15 H :    0.040619
  16 S :    0.096691
  17 C :   -0.086916
  18 C :   -0.029025
  19 C :   -0.049430
  20 C :   -0.137843
  21 H :    0.019975
  22 C :    0.014544
  23 H :    0.034668
  24 H :    0.040965
  25 C :   -0.087378
  26 H :    0.058329
  27 H :    0.030041
  28 C :   -0.058130
  29 H :    0.030929
  30 H :    0.043123
  31 H :    0.049213
  32 H :    0.036340
  33 H :    0.050498
Sum of atomic charges:    0.0000000

LOEWDIN ATOMIC CHARGES
----------------------
   0 S :    0.405451
   1 C :   -0.189022
   2 C :   -0.052523
   3 C :   -0.059578
   4 C :   -0.190796
   5 H :    0.020505
   6 C :   -0.030795
   7 H :    0.027779
   8 H :    0.024194
   9 C :   -0.042928
  10 H :    0.022403
  11 H :    0.015840
  12 C :   -0.064019
  13 H :    0.025135
  14 H :    0.033282
  15 H :    0.029159
  16 S :    0.367870
  17 C :   -0.167403
  18 C :   -0.068236
  19 C :   -0.066121
  20 C :   -0.178107
  21 H :    0.032985
  22 C :   -0.028990
  23 H :    0.028647
  24 H :    0.036279
  25 C :   -0.043798
  26 H :    0.030173
  27 H :    0.018035
  28 C :   -0.077470
  29 H :    0.026011
  30 H :    0.029961
  31 H :    0.034561
  32 H :    0.021983
  33 H :    0.029533

  Mayer bond orders larger than 0.100000
B(  0-S ,  1-C ) :   1.1408 B(  0-S ,  4-C ) :   1.1454 B(  1-C ,  2-C ) :   1.5813
B(  1-C , 32-H ) :   0.9740 B(  2-C ,  3-C ) :   1.2643 B(  2-C ,  6-C ) :   1.0357
B(  3-C ,  4-C ) :   1.5285 B(  3-C ,  5-H ) :   0.9961 B(  4-C , 20-C ) :   1.0622
B(  6-C ,  7-H ) :   0.9350 B(  6-C ,  8-H ) :   0.9292 B(  6-C ,  9-C ) :   1.0810
B(  9-C , 10-H ) :   0.9482 B(  9-C , 11-H ) :   0.9515 B(  9-C , 12-C ) :   1.0808
B( 12-C , 13-H ) :   0.9765 B( 12-C , 14-H ) :   0.9745 B( 12-C , 15-H ) :   0.9736
B( 16-S , 17-C ) :   1.1282 B( 16-S , 20-C ) :   1.1158 B( 17-C , 18-C ) :   1.6335
B( 17-C , 33-H ) :   0.9666 B( 18-C , 19-C ) :   1.2406 B( 18-C , 21-H ) :   0.9841
B( 19-C , 20-C ) :   1.6257 B( 19-C , 22-C ) :   1.0426 B( 22-C , 23-H ) :   0.9259
B( 22-C , 24-H ) :   0.9445 B( 22-C , 25-C ) :   1.0503 B( 25-C , 26-H ) :   0.9472
B( 25-C , 27-H ) :   0.9616 B( 25-C , 28-C ) :   1.0500 B( 28-C , 29-H ) :   0.9762
B( 28-C , 30-H ) :   0.9733 B( 28-C , 31-H ) :   0.9736

Dispersion correction           -0.014392830
FINAL SINGLE POINT ENERGY     -1339.871422402892

DIPOLE MOMENT
-------------
                                X             Y             Z
Electronic contribution:    -17.69480      21.74782     -11.03206
Nuclear contribution   :     18.05469     -22.20520      11.40465
                        -----------------------------------------
Total Dipole Moment    :      0.35989      -0.45738       0.37260
                        -----------------------------------------
Magnitude (a.u.)       :      0.69104
Magnitude (Debye)      :      1.75650

Rotational constants in cm-1:     0.018699     0.008600     0.006435
Rotational constants in MHz :   560.577590   257.817064   192.924160

                             ****ORCA TERMINATED NORMALLY****
TOTAL RUN TIME: 0 days 0 hours 0 minutes 32 seconds 265 msec
