                         Program Version 4.2.1 -  RELEASE  -
|  1> ! wB97X-D3 SP def2-SVP
|  2> %pal
|  3> nprocs 16
|  4> end
|  5>
|  6> * xyz 0 1
|  7> S 	 54.7554 	 25.637 	 42.5399
|  8> C 	 56.4946 	 26.0969 	 42.5453
|  9> C 	 57.1685 	 25.2437 	 43.3934
| 10> C 	 56.324 	 24.3136 	 44.1228
| 11> C 	 54.9868 	 24.4056 	 43.78
| 12> H 	 56.5977 	 23.515 	 44.8427
| 13> C 	 58.6692 	 25.1979 	 43.4531
| 14> H 	 59.0425 	 25.2206 	 42.4107
| 15> H 	 58.9491 	 24.232 	 43.77
| 16> C 	 59.3491 	 26.3039 	 44.3461
| 17> H 	 60.39 	 26.0613 	 44.4272
| 18> H 	 59.2771 	 27.2828 	 43.9075
| 19> C 	 58.7016 	 26.2824 	 45.7343
| 20> H 	 57.8373 	 26.8475 	 45.6089
| 21> H 	 58.4159 	 25.2806 	 46.1177
| 22> H 	 59.342 	 26.8096 	 46.4648
| 23> S 	 52.4479 	 24.2307 	 44.7258
| 24> C 	 51.7793 	 22.6884 	 45.2091
| 25> C 	 52.5765 	 21.6191 	 44.8122
| 26> C 	 53.8332 	 22.105 	 44.2514
| 27> C 	 53.9136 	 23.4815 	 44.2334
| 28> H 	 52.2429 	 20.6364 	 44.9609
| 29> C 	 54.9063 	 21.1308 	 43.7177
| 30> H 	 55.4861 	 21.5918 	 43.0058
| 31> H 	 54.4321 	 20.2111 	 43.213
| 32> C 	 55.7927 	 20.5929 	 44.7964
| 33> H 	 55.2694 	 20.1268 	 45.6171
| 34> H 	 56.282 	 21.4141 	 45.2093
| 35> C 	 56.888 	 19.6317 	 44.2925
| 36> H 	 57.5342 	 19.2971 	 45.0588
| 37> H 	 57.5284 	 20.1719 	 43.5737
| 38> H 	 56.6719 	 18.7024 	 43.769
| 39> H 	 56.8943 	 26.8229 	 41.889
| 40> H 	 50.7859 	 22.5918 	 45.612
| 41> *
| 42>
| 43>                          ****END OF INPUT****

CARTESIAN COORDINATES (ANGSTROEM)
---------------------------------
  S     54.755400   25.637000   42.539900
  C     56.494600   26.096900   42.545300
  C     57.168500   25.243700   43.393400
  C     56.324000   24.313600   44.122800
  C     54.986800   24.405600   43.780000
  H     56.597700   23.515000   44.842700
  C     58.669200   25.197900   43.453100
  H     59.042500   25.220600   42.410700
  H     58.949100   24.232000   43.770000
  C     59.349100   26.303900   44.346100
  H     60.390000   26.061300   44.427200
  H     59.277100   27.282800   43.907500
  C     58.701600   26.282400   45.734300
  H     57.837300   26.847500   45.608900
  H     58.415900   25.280600   46.117700
  H     59.342000   26.809600   46.464800
  S     52.447900   24.230700   44.725800
  C     51.779300   22.688400   45.209100
  C     52.576500   21.619100   44.812200
  C     53.833200   22.105000   44.251400
  C     53.913600   23.481500   44.233400
  H     52.242900   20.636400   44.960900
  C     54.906300   21.130800   43.717700
  H     55.486100   21.591800   43.005800
  H     54.432100   20.211100   43.213000
  C     55.792700   20.592900   44.796400
  H     55.269400   20.126800   45.617100
  H     56.282000   21.414100   45.209300
  C     56.888000   19.631700   44.292500
  H     57.534200   19.297100   45.058800
  H     57.528400   20.171900   43.573700
  H     56.671900   18.702400   43.769000
  H     56.894300   26.822900   41.889000
  H     50.785900   22.591800   45.612000

 Total Charge           Charge          ....    0
 Multiplicity           Mult            ....    1
 Number of Electrons    NEL             ....  134
 Basis Dimension        Dim             ....  322

ORBITAL ENERGIES
----------------

  NO   OCC          E(Eh)            E(eV)
   0   2.0000     -88.965287     -2420.8685
   1   2.0000     -88.965020     -2420.8613
   2   2.0000     -10.334323      -281.2112
   3   2.0000     -10.327640      -281.0294
   4   2.0000     -10.318971      -280.7935
   5   2.0000     -10.316978      -280.7392
   6   2.0000     -10.309637      -280.5395
   7   2.0000     -10.305193      -280.4186
   8   2.0000     -10.300009      -280.2775
   9   2.0000     -10.297652      -280.2134
  10   2.0000     -10.290474      -280.0180
  11   2.0000     -10.289292      -279.9859
  12   2.0000     -10.284936      -279.8673
  13   2.0000     -10.280237      -279.7395
  14   2.0000     -10.275691      -279.6158
  15   2.0000     -10.271157      -279.4924
  16   2.0000      -8.080846      -219.8910
  17   2.0000      -8.078897      -219.8380
  18   2.0000      -6.039246      -164.3362
  19   2.0000      -6.037549      -164.2901
  20   2.0000      -6.035289      -164.2286
  21   2.0000      -6.033498      -164.1798
  22   2.0000      -6.031625      -164.1289
  23   2.0000      -6.029569      -164.0729
  24   2.0000      -1.005863       -27.3709
  25   2.0000      -0.981122       -26.6977
  26   2.0000      -0.914973       -24.8977
  27   2.0000      -0.909512       -24.7491
  28   2.0000      -0.867521       -23.6064
  29   2.0000      -0.850222       -23.1357
  30   2.0000      -0.840750       -22.8780
  31   2.0000      -0.818048       -22.2602
  32   2.0000      -0.783622       -21.3234
  33   2.0000      -0.773330       -21.0434
  34   2.0000      -0.707736       -19.2585
  35   2.0000      -0.705061       -19.1857
  36   2.0000      -0.695335       -18.9210
  37   2.0000      -0.668530       -18.1916
  38   2.0000      -0.643833       -17.5196
  39   2.0000      -0.612571       -16.6689
  40   2.0000      -0.597374       -16.2554
  41   2.0000      -0.575327       -15.6554
  42   2.0000      -0.569742       -15.5035
  43   2.0000      -0.546480       -14.8705
  44   2.0000      -0.542865       -14.7721
  45   2.0000      -0.525688       -14.3047
  46   2.0000      -0.521024       -14.1778
  47   2.0000      -0.515380       -14.0242
  48   2.0000      -0.508803       -13.8452
  49   2.0000      -0.499557       -13.5936
  50   2.0000      -0.489245       -13.3130
  51   2.0000      -0.475147       -12.9294
  52   2.0000      -0.469097       -12.7648
  53   2.0000      -0.465422       -12.6648
  54   2.0000      -0.459280       -12.4976
  55   2.0000      -0.452577       -12.3152
  56   2.0000      -0.442384       -12.0379
  57   2.0000      -0.438190       -11.9238
  58   2.0000      -0.434070       -11.8116
  59   2.0000      -0.427696       -11.6382
  60   2.0000      -0.421304       -11.4643
  61   2.0000      -0.418784       -11.3957
  62   2.0000      -0.413284       -11.2460
  63   2.0000      -0.347199        -9.4478
  64   2.0000      -0.330436        -8.9916
  65   2.0000      -0.328954        -8.9513
  66   2.0000      -0.298298        -8.1171
  67   0.0000       0.032405         0.8818
  68   0.0000       0.067077         1.8253
  69   0.0000       0.104415         2.8413
  70   0.0000       0.115188         3.1344
  71   0.0000       0.128011         3.4834

MULLIKEN ATOMIC CHARGES
-----------------------
   0 S :    0.093116
   1 C :   -0.112168
   2 C :   -0.095370
   3 C :    0.009103
   4 C :   -0.115560
   5 H :    0.024751
   6 C :    0.063151
   7 H :    0.031841
   8 H :    0.004533
   9 C :   -0.047628
  10 H :    0.026247
  11 H :    0.028536
  12 C :   -0.050409
  13 H :    0.031555
  14 H :    0.034297
  15 H :    0.035800
  16 S :    0.110345
  17 C :   -0.094823
  18 C :   -0.006995
  19 C :   -0.034954
  20 C :   -0.176810
  21 H :    0.004535
  22 C :    0.082431
  23 H :    0.005319
  24 H :    0.034063
  25 C :   -0.024489
  26 H :    0.022622
  27 H :   -0.006914
  28 C :   -0.042948
  29 H :    0.021654
  30 H :    0.018905
  31 H :    0.027453
  32 H :    0.042049
  33 H :    0.056763
Sum of atomic charges:    0.0000000

LOEWDIN ATOMIC CHARGES
----------------------
   0 S :    0.375818
   1 C :   -0.174679
   2 C :   -0.060022
   3 C :   -0.074706
   4 C :   -0.185610
   5 H :    0.036149
   6 C :   -0.030831
   7 H :    0.033859
   8 H :    0.021014
   9 C :   -0.029439
  10 H :    0.018759
  11 H :    0.021184
  12 C :   -0.062724
  13 H :    0.020377
  14 H :    0.026693
  15 H :    0.028034
  16 S :    0.419619
  17 C :   -0.179157
  18 C :   -0.058543
  19 C :   -0.048004
  20 C :   -0.210495
  21 H :    0.025043
  22 C :   -0.023026
  23 H :    0.016613
  24 H :    0.039693
  25 C :   -0.033045
  26 H :    0.022645
  27 H :    0.012351
  28 C :   -0.068210
  29 H :    0.021496
  30 H :    0.025670
  31 H :    0.024144
  32 H :    0.023223
  33 H :    0.026111

  Mayer bond orders larger than 0.100000
B(  0-S ,  1-C ) :   1.1148 B(  0-S ,  4-C ) :   1.1549 B(  1-C ,  2-C ) :   1.6170
B(  1-C , 32-H ) :   0.9818 B(  2-C ,  3-C ) :   1.2063 B(  2-C ,  6-C ) :   1.0193
B(  3-C ,  4-C ) :   1.5940 B(  3-C ,  5-H ) :   0.9897 B(  4-C , 20-C ) :   1.0099
B(  6-C ,  7-H ) :   0.9456 B(  6-C ,  8-H ) :   0.9417 B(  6-C ,  9-C ) :   1.0659
B(  9-C , 10-H ) :   0.9610 B(  9-C , 11-H ) :   0.9611 B(  9-C , 12-C ) :   1.0683
B( 12-C , 13-H ) :   0.9707 B( 12-C , 14-H ) :   0.9787 B( 12-C , 15-H ) :   0.9737
B( 16-S , 17-C ) :   1.1615 B( 16-S , 20-C ) :   1.1447 B( 17-C , 18-C ) :   1.6114
B( 17-C , 33-H ) :   0.9696 B( 18-C , 19-C ) :   1.2164 B( 18-C , 21-H ) :   1.0034
B( 19-C , 20-C ) :   1.6143 B( 19-C , 22-C ) :   1.0433 B( 22-C , 23-H ) :   0.9292
B( 22-C , 24-H ) :   0.9406 B( 22-C , 25-C ) :   1.0718 B( 25-C , 26-H ) :   0.9531
B( 25-C , 27-H ) :   0.9437 B( 25-C , 28-C ) :   1.0815 B( 28-C , 29-H ) :   0.9733
B( 28-C , 30-H ) :   0.9724 B( 28-C , 31-H ) :   0.9768

Dispersion correction           -0.014764883
FINAL SINGLE POINT ENERGY     -1339.878626628030

DIPOLE MOMENT
-------------
                                X             Y             Z
Electronic contribution:    -25.15179      11.26580      -5.88365
Nuclear contribution   :     25.62392     -11.72014       5.92565
                        -----------------------------------------
Total Dipole Moment    :      0.47214      -0.45434       0.04200
                        -----------------------------------------
Magnitude (a.u.)       :      0.65658
Magnitude (Debye)      :      1.66890

Rotational constants in cm-1:     0.017362     0.009353     0.007075
Rotational constants in MHz :   520.488277   280.390361   212.111571

                             ****ORCA TERMINATED NORMALLY****
TOTAL RUN TIME: 0 days 0 hours 0 minutes 30 seconds 625 msec
