                         Program Version 4.2.1 -  RELEASE  -
|  1> ! wB97X-D3 SP def2-SVP
|  2> %pal
|  3> nprocs 16
|  4> end
|  5>
|  6> * xyz 0 1
|  7> S 	 7.97946 	 -21.0456 	 79.2865
|  8> C 	 8.06884 	 -22.1462 	 80.605
|  9> C 	 7.92411 	 -21.5043 	 81.8097
| 10> C 	 7.68843 	 -20.1387 	 81.7051
| 11> C 	 7.76261 	 -19.6783 	 80.3894
| 12> H 	 7.54053 	 -19.4284 	 82.4962
| 13> C 	 7.98166 	 -22.2164 	 83.1641
| 14> H 	 8.82799 	 -21.8726 	 83.69
| 15> H 	 8.31997 	 -23.2765 	 83.109
| 16> C 	 6.69702 	 -21.8643 	 83.9298
| 17> H 	 6.61956 	 -20.8105 	 84.1632
| 18> H 	 5.84313 	 -21.9915 	 83.2246
| 19> C 	 6.55208 	 -22.8158 	 85.1027
| 20> H 	 6.68847 	 -23.8538 	 84.7891
| 21> H 	 7.48158 	 -22.7276 	 85.7518
| 22> H 	 5.73 	 -22.6663 	 85.7872
| 23> S 	 6.05018 	 -18.0415 	 78.9895
| 24> C 	 6.57211 	 -16.3696 	 78.6702
| 25> C 	 7.71004 	 -16.1183 	 79.3884
| 26> C 	 8.23506 	 -17.1307 	 80.2257
| 27> C 	 7.48583 	 -18.303 	 80.0118
| 28> H 	 8.03335 	 -15.0647 	 79.4217
| 29> C 	 9.45008 	 -16.9737 	 81.1732
| 30> H 	 9.97389 	 -17.9544 	 81.1047
| 31> H 	 9.09575 	 -16.8515 	 82.1627
| 32> C 	 10.3748 	 -15.7691 	 80.8255
| 33> H 	 9.77823 	 -14.8328 	 80.8482
| 34> H 	 10.794 	 -15.7716 	 79.8411
| 35> C 	 11.4903 	 -15.718 	 81.8424
| 36> H 	 12.1432 	 -16.6116 	 81.7249
| 37> H 	 11.099 	 -15.7029 	 82.9061
| 38> H 	 12.1753 	 -14.9368 	 81.7515
| 39> H 	 8.12422 	 -23.1955 	 80.5174
| 40> H 	 6.00729 	 -15.6002 	 78.1366
| 41> *
| 42>
| 43>                          ****END OF INPUT****

CARTESIAN COORDINATES (ANGSTROEM)
---------------------------------
  S      7.979460  -21.045600   79.286500
  C      8.068840  -22.146200   80.605000
  C      7.924110  -21.504300   81.809700
  C      7.688430  -20.138700   81.705100
  C      7.762610  -19.678300   80.389400
  H      7.540530  -19.428400   82.496200
  C      7.981660  -22.216400   83.164100
  H      8.827990  -21.872600   83.690000
  H      8.319970  -23.276500   83.109000
  C      6.697020  -21.864300   83.929800
  H      6.619560  -20.810500   84.163200
  H      5.843130  -21.991500   83.224600
  C      6.552080  -22.815800   85.102700
  H      6.688470  -23.853800   84.789100
  H      7.481580  -22.727600   85.751800
  H      5.730000  -22.666300   85.787200
  S      6.050180  -18.041500   78.989500
  C      6.572110  -16.369600   78.670200
  C      7.710040  -16.118300   79.388400
  C      8.235060  -17.130700   80.225700
  C      7.485830  -18.303000   80.011800
  H      8.033350  -15.064700   79.421700
  C      9.450080  -16.973700   81.173200
  H      9.973890  -17.954400   81.104700
  H      9.095750  -16.851500   82.162700
  C     10.374800  -15.769100   80.825500
  H      9.778230  -14.832800   80.848200
  H     10.794000  -15.771600   79.841100
  C     11.490300  -15.718000   81.842400
  H     12.143200  -16.611600   81.724900
  H     11.099000  -15.702900   82.906100
  H     12.175300  -14.936800   81.751500
  H      8.124220  -23.195500   80.517400
  H      6.007290  -15.600200   78.136600

 Total Charge           Charge          ....    0
 Multiplicity           Mult            ....    1
 Number of Electrons    NEL             ....  134
 Basis Dimension        Dim             ....  322

ORBITAL ENERGIES
----------------

  NO   OCC          E(Eh)            E(eV)
   0   2.0000     -88.966873     -2420.9117
   1   2.0000     -88.963767     -2420.8272
   2   2.0000     -10.327257      -281.0190
   3   2.0000     -10.326927      -281.0100
   4   2.0000     -10.317575      -280.7555
   5   2.0000     -10.306275      -280.4480
   6   2.0000     -10.306110      -280.4435
   7   2.0000     -10.298599      -280.2391
   8   2.0000     -10.294124      -280.1173
   9   2.0000     -10.290900      -280.0296
  10   2.0000     -10.289974      -280.0044
  11   2.0000     -10.289903      -280.0025
  12   2.0000     -10.289318      -279.9866
  13   2.0000     -10.288298      -279.9588
  14   2.0000     -10.280703      -279.7522
  15   2.0000     -10.278889      -279.7028
  16   2.0000      -8.081537      -219.9098
  17   2.0000      -8.077545      -219.8012
  18   2.0000      -6.039982      -164.3563
  19   2.0000      -6.036069      -164.2498
  20   2.0000      -6.035967      -164.2470
  21   2.0000      -6.032458      -164.1515
  22   2.0000      -6.032215      -164.1449
  23   2.0000      -6.028307      -164.0386
  24   2.0000      -1.004618       -27.3370
  25   2.0000      -0.981520       -26.7085
  26   2.0000      -0.913111       -24.8470
  27   2.0000      -0.908606       -24.7244
  28   2.0000      -0.868864       -23.6430
  29   2.0000      -0.851310       -23.1653
  30   2.0000      -0.846568       -23.0363
  31   2.0000      -0.811751       -22.0889
  32   2.0000      -0.779921       -21.2227
  33   2.0000      -0.768530       -20.9128
  34   2.0000      -0.712792       -19.3961
  35   2.0000      -0.706540       -19.2259
  36   2.0000      -0.696925       -18.9643
  37   2.0000      -0.649187       -17.6653
  38   2.0000      -0.644058       -17.5257
  39   2.0000      -0.619152       -16.8480
  40   2.0000      -0.596674       -16.2363
  41   2.0000      -0.569621       -15.5002
  42   2.0000      -0.566044       -15.4028
  43   2.0000      -0.557600       -15.1731
  44   2.0000      -0.532448       -14.4887
  45   2.0000      -0.527254       -14.3473
  46   2.0000      -0.512837       -13.9550
  47   2.0000      -0.507548       -13.8111
  48   2.0000      -0.502804       -13.6820
  49   2.0000      -0.499730       -13.5983
  50   2.0000      -0.491514       -13.3748
  51   2.0000      -0.473643       -12.8885
  52   2.0000      -0.471912       -12.8414
  53   2.0000      -0.464049       -12.6274
  54   2.0000      -0.460753       -12.5377
  55   2.0000      -0.449178       -12.2228
  56   2.0000      -0.447843       -12.1864
  57   2.0000      -0.442276       -12.0350
  58   2.0000      -0.438327       -11.9275
  59   2.0000      -0.422258       -11.4902
  60   2.0000      -0.419801       -11.4234
  61   2.0000      -0.417603       -11.3635
  62   2.0000      -0.407197       -11.0804
  63   2.0000      -0.341801        -9.3009
  64   2.0000      -0.330651        -8.9975
  65   2.0000      -0.325787        -8.8651
  66   2.0000      -0.294319        -8.0088
  67   0.0000       0.030877         0.8402
  68   0.0000       0.064143         1.7454
  69   0.0000       0.116199         3.1619
  70   0.0000       0.129629         3.5274
  71   0.0000       0.138556         3.7703

MULLIKEN ATOMIC CHARGES
-----------------------
   0 S :    0.126794
   1 C :   -0.113448
   2 C :   -0.060050
   3 C :    0.018050
   4 C :   -0.166077
   5 H :    0.010705
   6 C :    0.077005
   7 H :    0.017149
   8 H :    0.014912
   9 C :   -0.090614
  10 H :    0.035468
  11 H :    0.040495
  12 C :   -0.028786
  13 H :    0.027467
  14 H :    0.014453
  15 H :    0.039632
  16 S :    0.103116
  17 C :   -0.093144
  18 C :   -0.060856
  19 C :   -0.007998
  20 C :   -0.205605
  21 H :    0.021457
  22 C :    0.084165
  23 H :    0.047417
  24 H :    0.030624
  25 C :   -0.092351
  26 H :    0.034339
  27 H :    0.032234
  28 C :   -0.026989
  29 H :    0.028218
  30 H :    0.032507
  31 H :    0.016937
  32 H :    0.029969
  33 H :    0.062804
Sum of atomic charges:    0.0000000

LOEWDIN ATOMIC CHARGES
----------------------
   0 S :    0.416587
   1 C :   -0.202022
   2 C :   -0.064376
   3 C :   -0.056636
   4 C :   -0.197302
   5 H :    0.029991
   6 C :   -0.030376
   7 H :    0.024813
   8 H :    0.032956
   9 C :   -0.042255
  10 H :    0.023780
  11 H :    0.029042
  12 C :   -0.071156
  13 H :    0.026729
  14 H :    0.028397
  15 H :    0.022930
  16 S :    0.382219
  17 C :   -0.182635
  18 C :   -0.081851
  19 C :   -0.052705
  20 C :   -0.190360
  21 H :    0.032044
  22 C :   -0.020755
  23 H :    0.040809
  24 H :    0.027977
  25 C :   -0.041379
  26 H :    0.025279
  27 H :    0.024047
  28 C :   -0.065172
  29 H :    0.029706
  30 H :    0.030373
  31 H :    0.014914
  32 H :    0.021037
  33 H :    0.035351

  Mayer bond orders larger than 0.100000
B(  0-S ,  1-C ) :   1.1458 B(  0-S ,  4-C ) :   1.1584 B(  1-C ,  2-C ) :   1.5953
B(  1-C , 32-H ) :   0.9729 B(  2-C ,  3-C ) :   1.2618 B(  2-C ,  6-C ) :   1.0181
B(  3-C ,  4-C ) :   1.5431 B(  3-C ,  5-H ) :   0.9980 B(  4-C , 20-C ) :   1.0552
B(  6-C ,  7-H ) :   0.9303 B(  6-C ,  8-H ) :   0.9497 B(  6-C ,  9-C ) :   1.0330
B(  9-C , 10-H ) :   0.9513 B(  9-C , 11-H ) :   0.9634 B(  9-C , 12-C ) :   1.0817
B( 12-C , 13-H ) :   0.9740 B( 12-C , 14-H ) :   0.9672 B( 12-C , 15-H ) :   0.9743
B( 16-S , 17-C ) :   1.1304 B( 16-S , 20-C ) :   1.1548 B( 17-C , 18-C ) :   1.6230
B( 17-C , 20-C ) :   0.1052 B( 17-C , 33-H ) :   0.9624 B( 18-C , 19-C ) :   1.2621
B( 18-C , 21-H ) :   0.9738 B( 19-C , 20-C ) :   1.5780 B( 19-C , 22-C ) :   1.0145
B( 22-C , 23-H ) :   0.9332 B( 22-C , 24-H ) :   0.9332 B( 22-C , 25-C ) :   1.0738
B( 25-C , 26-H ) :   0.9460 B( 25-C , 27-H ) :   0.9569 B( 25-C , 28-C ) :   1.0921
B( 28-C , 29-H ) :   0.9717 B( 28-C , 30-H ) :   0.9726 B( 28-C , 31-H ) :   0.9719

Dispersion correction           -0.013533699
FINAL SINGLE POINT ENERGY     -1339.875779454253

DIPOLE MOMENT
-------------
                                X             Y             Z
Electronic contribution:    -11.32732      -1.75780     -24.00359
Nuclear contribution   :     11.63774       1.97591      24.61301
                        -----------------------------------------
Total Dipole Moment    :      0.31042       0.21811       0.60942
                        -----------------------------------------
Magnitude (a.u.)       :      0.71786
Magnitude (Debye)      :      1.82466

Rotational constants in cm-1:     0.017146     0.007909     0.006507
Rotational constants in MHz :   514.022605   237.095811   195.088581

                             ****ORCA TERMINATED NORMALLY****
TOTAL RUN TIME: 0 days 0 hours 0 minutes 33 seconds 705 msec
