                         Program Version 4.2.1 -  RELEASE  -
|  1> ! wB97X-D3 SP def2-SVP
|  2> %pal
|  3> nprocs 16
|  4> end
|  5>
|  6> * xyz 0 1
|  7> S 	 49.8005 	 10.7518 	 51.4102
|  8> C 	 49.6912 	 9.79121 	 49.9269
|  9> C 	 49.8722 	 10.5638 	 48.7882
| 10> C 	 49.9164 	 11.9475 	 49.1078
| 11> C 	 49.9208 	 12.1964 	 50.4658
| 12> H 	 50.1399 	 12.6936 	 48.382
| 13> C 	 49.6904 	 10.0553 	 47.3544
| 14> H 	 50.0393 	 9.03449 	 47.1931
| 15> H 	 50.5232 	 10.5492 	 46.7503
| 16> C 	 48.3096 	 10.183 	 46.7422
| 17> H 	 47.9739 	 11.2115 	 46.7452
| 18> H 	 48.3848 	 9.98464 	 45.6599
| 19> C 	 47.2406 	 9.30941 	 47.4452
| 20> H 	 47.0365 	 9.73362 	 48.3688
| 21> H 	 46.2685 	 9.39229 	 46.9945
| 22> H 	 47.4354 	 8.26526 	 47.5693
| 23> S 	 51.4155 	 13.7405 	 52.1764
| 24> C 	 50.8403 	 15.3849 	 52.477
| 25> C 	 49.757 	 15.72 	 51.7948
| 26> C 	 49.3266 	 14.6797 	 50.9287
| 27> C 	 50.1134 	 13.5185 	 51.0582
| 28> H 	 49.4017 	 16.7996 	 51.8059
| 29> C 	 48.1036 	 14.8654 	 50.1533
| 30> H 	 48.0301 	 14.0452 	 49.4906
| 31> H 	 48.3524 	 15.7298 	 49.4495
| 32> C 	 46.6991 	 15.1306 	 50.8548
| 33> H 	 45.9139 	 15.3804 	 50.0968
| 34> H 	 46.6965 	 16.0777 	 51.4782
| 35> C 	 46.2782 	 14.1238 	 51.8998
| 36> H 	 45.4759 	 14.6914 	 52.3847
| 37> H 	 47.0276 	 13.89 	 52.6771
| 38> H 	 45.8098 	 13.2058 	 51.5975
| 39> H 	 49.6072 	 8.76134 	 50.002
| 40> H 	 51.3771 	 16.0581 	 53.1057
| 41> *
| 42>
| 43>                          ****END OF INPUT****

CARTESIAN COORDINATES (ANGSTROEM)
---------------------------------
  S     49.800500   10.751800   51.410200
  C     49.691200    9.791210   49.926900
  C     49.872200   10.563800   48.788200
  C     49.916400   11.947500   49.107800
  C     49.920800   12.196400   50.465800
  H     50.139900   12.693600   48.382000
  C     49.690400   10.055300   47.354400
  H     50.039300    9.034490   47.193100
  H     50.523200   10.549200   46.750300
  C     48.309600   10.183000   46.742200
  H     47.973900   11.211500   46.745200
  H     48.384800    9.984640   45.659900
  C     47.240600    9.309410   47.445200
  H     47.036500    9.733620   48.368800
  H     46.268500    9.392290   46.994500
  H     47.435400    8.265260   47.569300
  S     51.415500   13.740500   52.176400
  C     50.840300   15.384900   52.477000
  C     49.757000   15.720000   51.794800
  C     49.326600   14.679700   50.928700
  C     50.113400   13.518500   51.058200
  H     49.401700   16.799600   51.805900
  C     48.103600   14.865400   50.153300
  H     48.030100   14.045200   49.490600
  H     48.352400   15.729800   49.449500
  C     46.699100   15.130600   50.854800
  H     45.913900   15.380400   50.096800
  H     46.696500   16.077700   51.478200
  C     46.278200   14.123800   51.899800
  H     45.475900   14.691400   52.384700
  H     47.027600   13.890000   52.677100
  H     45.809800   13.205800   51.597500
  H     49.607200    8.761340   50.002000
  H     51.377100   16.058100   53.105700

 Total Charge           Charge          ....    0
 Multiplicity           Mult            ....    1
 Number of Electrons    NEL             ....  134
 Basis Dimension        Dim             ....  322

ORBITAL ENERGIES
----------------

  NO   OCC          E(Eh)            E(eV)
   0   2.0000     -88.967168     -2420.9197
   1   2.0000     -88.963744     -2420.8265
   2   2.0000     -10.326791      -281.0063
   3   2.0000     -10.324489      -280.9436
   4   2.0000     -10.311155      -280.5808
   5   2.0000     -10.309238      -280.5286
   6   2.0000     -10.301844      -280.3274
   7   2.0000     -10.298588      -280.2388
   8   2.0000     -10.297499      -280.2092
   9   2.0000     -10.296668      -280.1866
  10   2.0000     -10.289592      -279.9940
  11   2.0000     -10.289235      -279.9843
  12   2.0000     -10.288829      -279.9733
  13   2.0000     -10.287648      -279.9411
  14   2.0000     -10.271708      -279.5074
  15   2.0000     -10.267145      -279.3832
  16   2.0000      -8.082027      -219.9231
  17   2.0000      -8.078862      -219.8370
  18   2.0000      -6.040446      -164.3689
  19   2.0000      -6.037283      -164.2828
  20   2.0000      -6.036557      -164.2631
  21   2.0000      -6.033467      -164.1790
  22   2.0000      -6.032846      -164.1621
  23   2.0000      -6.029553      -164.0725
  24   2.0000      -1.008554       -27.4441
  25   2.0000      -0.985904       -26.8278
  26   2.0000      -0.910024       -24.7630
  27   2.0000      -0.903244       -24.5785
  28   2.0000      -0.869984       -23.6735
  29   2.0000      -0.853104       -23.2141
  30   2.0000      -0.847444       -23.0601
  31   2.0000      -0.816397       -22.2153
  32   2.0000      -0.787421       -21.4268
  33   2.0000      -0.770707       -20.9720
  34   2.0000      -0.708679       -19.2841
  35   2.0000      -0.700407       -19.0590
  36   2.0000      -0.692735       -18.8503
  37   2.0000      -0.653777       -17.7902
  38   2.0000      -0.645367       -17.5613
  39   2.0000      -0.623012       -16.9530
  40   2.0000      -0.595577       -16.2065
  41   2.0000      -0.566821       -15.4240
  42   2.0000      -0.548845       -14.9348
  43   2.0000      -0.545673       -14.8485
  44   2.0000      -0.539358       -14.6767
  45   2.0000      -0.530344       -14.4314
  46   2.0000      -0.520214       -14.1557
  47   2.0000      -0.513629       -13.9765
  48   2.0000      -0.496149       -13.5009
  49   2.0000      -0.493594       -13.4314
  50   2.0000      -0.490650       -13.3513
  51   2.0000      -0.478977       -13.0336
  52   2.0000      -0.467256       -12.7147
  53   2.0000      -0.464103       -12.6289
  54   2.0000      -0.459455       -12.5024
  55   2.0000      -0.448748       -12.2110
  56   2.0000      -0.446991       -12.1632
  57   2.0000      -0.442134       -12.0311
  58   2.0000      -0.427918       -11.6442
  59   2.0000      -0.425027       -11.5656
  60   2.0000      -0.419671       -11.4198
  61   2.0000      -0.411687       -11.2026
  62   2.0000      -0.406402       -11.0588
  63   2.0000      -0.347643        -9.4599
  64   2.0000      -0.334374        -9.0988
  65   2.0000      -0.328546        -8.9402
  66   2.0000      -0.291351        -7.9281
  67   0.0000       0.036226         0.9858
  68   0.0000       0.069919         1.9026
  69   0.0000       0.111973         3.0469
  70   0.0000       0.121308         3.3010
  71   0.0000       0.127816         3.4780

MULLIKEN ATOMIC CHARGES
-----------------------
   0 S :    0.112580
   1 C :   -0.105754
   2 C :   -0.063622
   3 C :    0.034451
   4 C :   -0.153371
   5 H :    0.008686
   6 C :    0.027639
   7 H :    0.017258
   8 H :    0.030489
   9 C :   -0.042005
  10 H :    0.020617
  11 H :    0.030105
  12 C :   -0.017418
  13 H :    0.020221
  14 H :    0.019641
  15 H :    0.026128
  16 S :    0.103365
  17 C :   -0.081108
  18 C :   -0.039662
  19 C :   -0.058773
  20 C :   -0.159076
  21 H :    0.045733
  22 C :    0.093229
  23 H :   -0.000514
  24 H :    0.033827
  25 C :   -0.090523
  26 H :    0.039362
  27 H :    0.026010
  28 C :   -0.043605
  29 H :    0.021788
  30 H :    0.050131
  31 H :    0.030616
  32 H :    0.023561
  33 H :    0.039992
Sum of atomic charges:    0.0000000

LOEWDIN ATOMIC CHARGES
----------------------
   0 S :    0.407278
   1 C :   -0.174499
   2 C :   -0.060734
   3 C :   -0.061626
   4 C :   -0.198387
   5 H :    0.028871
   6 C :   -0.041810
   7 H :    0.028304
   8 H :    0.038014
   9 C :   -0.037210
  10 H :    0.022921
  11 H :    0.027001
  12 C :   -0.060814
  13 H :    0.020350
  14 H :    0.027488
  15 H :    0.021527
  16 S :    0.397976
  17 C :   -0.167757
  18 C :   -0.077662
  19 C :   -0.061208
  20 C :   -0.205990
  21 H :    0.048721
  22 C :   -0.042625
  23 H :    0.020553
  24 H :    0.042219
  25 C :   -0.043852
  26 H :    0.032210
  27 H :    0.027493
  28 C :   -0.070716
  29 H :    0.029981
  30 H :    0.033482
  31 H :    0.019073
  32 H :    0.010169
  33 H :    0.021261

  Mayer bond orders larger than 0.100000
B(  0-S ,  1-C ) :   1.1371 B(  0-S ,  4-C ) :   1.1609 B(  1-C ,  2-C ) :   1.5927
B(  1-C , 32-H ) :   0.9827 B(  2-C ,  3-C ) :   1.2466 B(  2-C ,  6-C ) :   1.0332
B(  3-C ,  4-C ) :   1.5658 B(  3-C ,  5-H ) :   0.9961 B(  4-C , 20-C ) :   1.0288
B(  6-C ,  7-H ) :   0.9424 B(  6-C ,  8-H ) :   0.9352 B(  6-C ,  9-C ) :   1.0698
B(  9-C , 10-H ) :   0.9552 B(  9-C , 11-H ) :   0.9533 B(  9-C , 12-C ) :   1.0719
B( 12-C , 13-H ) :   0.9708 B( 12-C , 14-H ) :   0.9693 B( 12-C , 15-H ) :   0.9783
B( 16-S , 17-C ) :   1.1342 B( 16-S , 20-C ) :   1.1434 B( 17-C , 18-C ) :   1.6564
B( 17-C , 33-H ) :   0.9657 B( 18-C , 19-C ) :   1.2158 B( 18-C , 21-H ) :   0.9781
B( 19-C , 20-C ) :   1.5853 B( 19-C , 22-C ) :   1.0719 B( 22-C , 23-H ) :   0.9213
B( 22-C , 24-H ) :   0.9228 B( 22-C , 25-C ) :   1.0540 B( 25-C , 26-H ) :   0.9547
B( 25-C , 27-H ) :   0.9618 B( 25-C , 28-C ) :   1.0652 B( 28-C , 29-H ) :   0.9753
B( 28-C , 30-H ) :   0.9717 B( 28-C , 31-H ) :   0.9774

Dispersion correction           -0.015026701
FINAL SINGLE POINT ENERGY     -1339.874120342869

DIPOLE MOMENT
-------------
                                X             Y             Z
Electronic contribution:     20.84000       0.66508      15.52688
Nuclear contribution   :    -21.19568      -0.44616     -15.94291
                        -----------------------------------------
Total Dipole Moment    :     -0.35568       0.21892      -0.41603
                        -----------------------------------------
Magnitude (a.u.)       :      0.58951
Magnitude (Debye)      :      1.49841

Rotational constants in cm-1:     0.020079     0.008903     0.007345
Rotational constants in MHz :   601.945485   266.908627   220.209109

                             ****ORCA TERMINATED NORMALLY****
TOTAL RUN TIME: 0 days 0 hours 0 minutes 35 seconds 778 msec
