                         Program Version 4.2.1 -  RELEASE  -
|  1> ! wB97X-D3 SP def2-SVP
|  2> %pal
|  3> nprocs 16
|  4> end
|  5>
|  6> * xyz 0 1
|  7> S 	 -1.5586 	 43.9396 	 34.5546
|  8> C 	 -1.69532 	 42.5493 	 35.6342
|  9> C 	 -2.68787 	 42.6386 	 36.5524
| 10> C 	 -3.38418 	 43.8794 	 36.4074
| 11> C 	 -2.96447 	 44.7141 	 35.4
| 12> H 	 -4.20893 	 44.1881 	 37.0565
| 13> C 	 -3.06652 	 41.6974 	 37.6376
| 14> H 	 -3.65904 	 42.2154 	 38.3854
| 15> H 	 -2.18099 	 41.4853 	 38.2329
| 16> C 	 -3.88143 	 40.4731 	 37.1043
| 17> H 	 -4.78885 	 40.8781 	 36.6253
| 18> H 	 -3.28744 	 39.9231 	 36.3439
| 19> C 	 -4.22954 	 39.647 	 38.3945
| 20> H 	 -3.44246 	 39.485 	 39.1274
| 21> H 	 -5.03618 	 40.1756 	 38.9448
| 22> H 	 -4.67272 	 38.681 	 38.0925
| 23> S 	 -2.44769 	 47.3222 	 34.6184
| 24> C 	 -3.78109 	 48.311 	 34.1553
| 25> C 	 -4.997 	 47.5852 	 34.1501
| 26> C 	 -4.82525 	 46.1949 	 34.3824
| 27> C 	 -3.5487 	 45.9593 	 34.857
| 28> H 	 -5.90421 	 48.2041 	 33.85
| 29> C 	 -5.90853 	 45.1718 	 34.4791
| 30> H 	 -6.87879 	 45.5247 	 34.6675
| 31> H 	 -5.66765 	 44.3235 	 35.2228
| 32> C 	 -6.04575 	 44.3358 	 33.1907
| 33> H 	 -6.68953 	 43.5081 	 33.4387
| 34> H 	 -5.05898 	 43.9411 	 33.031
| 35> C 	 -6.54885 	 45.174 	 32.0058
| 36> H 	 -7.03224 	 44.5756 	 31.2505
| 37> H 	 -5.71251 	 45.7863 	 31.6484
| 38> H 	 -7.3661 	 45.8915 	 32.2332
| 39> H 	 -1.02473 	 41.6946 	 35.6135
| 40> H 	 -3.75673 	 49.3798 	 34.0625
| 41> *
| 42>
| 43>                          ****END OF INPUT****

CARTESIAN COORDINATES (ANGSTROEM)
---------------------------------
  S     -1.558600   43.939600   34.554600
  C     -1.695320   42.549300   35.634200
  C     -2.687870   42.638600   36.552400
  C     -3.384180   43.879400   36.407400
  C     -2.964470   44.714100   35.400000
  H     -4.208930   44.188100   37.056500
  C     -3.066520   41.697400   37.637600
  H     -3.659040   42.215400   38.385400
  H     -2.180990   41.485300   38.232900
  C     -3.881430   40.473100   37.104300
  H     -4.788850   40.878100   36.625300
  H     -3.287440   39.923100   36.343900
  C     -4.229540   39.647000   38.394500
  H     -3.442460   39.485000   39.127400
  H     -5.036180   40.175600   38.944800
  H     -4.672720   38.681000   38.092500
  S     -2.447690   47.322200   34.618400
  C     -3.781090   48.311000   34.155300
  C     -4.997000   47.585200   34.150100
  C     -4.825250   46.194900   34.382400
  C     -3.548700   45.959300   34.857000
  H     -5.904210   48.204100   33.850000
  C     -5.908530   45.171800   34.479100
  H     -6.878790   45.524700   34.667500
  H     -5.667650   44.323500   35.222800
  C     -6.045750   44.335800   33.190700
  H     -6.689530   43.508100   33.438700
  H     -5.058980   43.941100   33.031000
  C     -6.548850   45.174000   32.005800
  H     -7.032240   44.575600   31.250500
  H     -5.712510   45.786300   31.648400
  H     -7.366100   45.891500   32.233200
  H     -1.024730   41.694600   35.613500
  H     -3.756730   49.379800   34.062500

 Total Charge           Charge          ....    0
 Multiplicity           Mult            ....    1
 Number of Electrons    NEL             ....  134
 Basis Dimension        Dim             ....  322

ORBITAL ENERGIES
----------------

  NO   OCC          E(Eh)            E(eV)
   0   2.0000     -88.968842     -2420.9653
   1   2.0000     -88.964200     -2420.8390
   2   2.0000     -10.332407      -281.1591
   3   2.0000     -10.328379      -281.0495
   4   2.0000     -10.317283      -280.7475
   5   2.0000     -10.312357      -280.6135
   6   2.0000     -10.305981      -280.4400
   7   2.0000     -10.302951      -280.3576
   8   2.0000     -10.299774      -280.2711
   9   2.0000     -10.294695      -280.1329
  10   2.0000     -10.293734      -280.1067
  11   2.0000     -10.291446      -280.0445
  12   2.0000     -10.287520      -279.9377
  13   2.0000     -10.286361      -279.9061
  14   2.0000     -10.277827      -279.6739
  15   2.0000     -10.273753      -279.5630
  16   2.0000      -8.083659      -219.9675
  17   2.0000      -8.077866      -219.8099
  18   2.0000      -6.042011      -164.4115
  19   2.0000      -6.038163      -164.3068
  20   2.0000      -6.036525      -164.2622
  21   2.0000      -6.034576      -164.2091
  22   2.0000      -6.032601      -164.1554
  23   2.0000      -6.028448      -164.0424
  24   2.0000      -1.004208       -27.3259
  25   2.0000      -0.982610       -26.7382
  26   2.0000      -0.911972       -24.8160
  27   2.0000      -0.909907       -24.7598
  28   2.0000      -0.863770       -23.5044
  29   2.0000      -0.849870       -23.1261
  30   2.0000      -0.842386       -22.9225
  31   2.0000      -0.810213       -22.0470
  32   2.0000      -0.782549       -21.2942
  33   2.0000      -0.770177       -20.9576
  34   2.0000      -0.708870       -19.2893
  35   2.0000      -0.705576       -19.1997
  36   2.0000      -0.688039       -18.7225
  37   2.0000      -0.659279       -17.9399
  38   2.0000      -0.639428       -17.3997
  39   2.0000      -0.619183       -16.8488
  40   2.0000      -0.597647       -16.2628
  41   2.0000      -0.569583       -15.4991
  42   2.0000      -0.556272       -15.1369
  43   2.0000      -0.549116       -14.9422
  44   2.0000      -0.543594       -14.7919
  45   2.0000      -0.524632       -14.2760
  46   2.0000      -0.508173       -13.8281
  47   2.0000      -0.506262       -13.7761
  48   2.0000      -0.499163       -13.5829
  49   2.0000      -0.496558       -13.5120
  50   2.0000      -0.486246       -13.2314
  51   2.0000      -0.481135       -13.0923
  52   2.0000      -0.472543       -12.8585
  53   2.0000      -0.465892       -12.6776
  54   2.0000      -0.459709       -12.5093
  55   2.0000      -0.453461       -12.3393
  56   2.0000      -0.442770       -12.0484
  57   2.0000      -0.438126       -11.9220
  58   2.0000      -0.427743       -11.6395
  59   2.0000      -0.427555       -11.6344
  60   2.0000      -0.423693       -11.5293
  61   2.0000      -0.413521       -11.2525
  62   2.0000      -0.411074       -11.1859
  63   2.0000      -0.341746        -9.2994
  64   2.0000      -0.333634        -9.0786
  65   2.0000      -0.329886        -8.9766
  66   2.0000      -0.291391        -7.9292
  67   0.0000       0.029466         0.8018
  68   0.0000       0.062126         1.6905
  69   0.0000       0.106006         2.8846
  70   0.0000       0.118396         3.2217
  71   0.0000       0.129981         3.5370

MULLIKEN ATOMIC CHARGES
-----------------------
   0 S :    0.092771
   1 C :   -0.123566
   2 C :   -0.070628
   3 C :    0.015725
   4 C :   -0.130461
   5 H :    0.022327
   6 C :    0.044587
   7 H :    0.009944
   8 H :    0.031512
   9 C :   -0.071143
  10 H :    0.039527
  11 H :    0.043946
  12 C :   -0.056168
  13 H :    0.038613
  14 H :    0.032565
  15 H :    0.038233
  16 S :    0.122340
  17 C :   -0.095468
  18 C :   -0.076212
  19 C :    0.027778
  20 C :   -0.195193
  21 H :    0.047158
  22 C :    0.037836
  23 H :    0.010230
  24 H :    0.038632
  25 C :   -0.067295
  26 H :    0.022836
  27 H :    0.030365
  28 C :   -0.053867
  29 H :    0.032173
  30 H :    0.049624
  31 H :    0.017393
  32 H :    0.039299
  33 H :    0.054586
Sum of atomic charges:   -0.0000000

LOEWDIN ATOMIC CHARGES
----------------------
   0 S :    0.364509
   1 C :   -0.185264
   2 C :   -0.071169
   3 C :   -0.063159
   4 C :   -0.174407
   5 H :    0.032850
   6 C :   -0.036210
   7 H :    0.028155
   8 H :    0.032139
   9 C :   -0.029803
  10 H :    0.030178
  11 H :    0.026035
  12 C :   -0.071578
  13 H :    0.024881
  14 H :    0.029184
  15 H :    0.026435
  16 S :    0.415715
  17 C :   -0.197124
  18 C :   -0.076225
  19 C :   -0.054548
  20 C :   -0.193935
  21 H :    0.044258
  22 C :   -0.030733
  23 H :    0.017774
  24 H :    0.043310
  25 C :   -0.033016
  26 H :    0.019094
  27 H :    0.022923
  28 C :   -0.073339
  29 H :    0.024512
  30 H :    0.031894
  31 H :    0.023760
  32 H :    0.026706
  33 H :    0.026195

  Mayer bond orders larger than 0.100000
B(  0-S ,  1-C ) :   1.1236 B(  0-S ,  4-C ) :   1.1197 B(  1-C ,  2-C ) :   1.6507
B(  1-C , 32-H ) :   0.9628 B(  2-C ,  3-C ) :   1.2243 B(  2-C ,  6-C ) :   1.0157
B(  3-C ,  4-C ) :   1.6220 B(  3-C ,  5-H ) :   0.9843 B(  4-C , 20-C ) :   1.0187
B(  6-C ,  7-H ) :   0.9438 B(  6-C ,  8-H ) :   0.9386 B(  6-C ,  9-C ) :   1.0453
B(  9-C , 10-H ) :   0.9556 B(  9-C , 11-H ) :   0.9649 B(  9-C , 12-C ) :   1.0645
B( 12-C , 13-H ) :   0.9772 B( 12-C , 14-H ) :   0.9752 B( 12-C , 15-H ) :   0.9754
B( 16-S , 17-C ) :   1.1644 B( 16-S , 20-C ) :   1.1527 B( 17-C , 18-C ) :   1.6101
B( 17-C , 20-C ) :   0.1079 B( 17-C , 33-H ) :   0.9676 B( 18-C , 19-C ) :   1.2211
B( 18-C , 21-H ) :   0.9785 B( 19-C , 20-C ) :   1.5776 B( 19-C , 22-C ) :   1.0441
B( 22-C , 23-H ) :   0.9439 B( 22-C , 24-H ) :   0.9391 B( 22-C , 25-C ) :   1.0613
B( 25-C , 26-H ) :   0.9596 B( 25-C , 27-H ) :   0.9585 B( 25-C , 28-C ) :   1.0709
B( 28-C , 29-H ) :   0.9756 B( 28-C , 30-H ) :   0.9730 B( 28-C , 31-H ) :   0.9747

Dispersion correction           -0.014602503
FINAL SINGLE POINT ENERGY     -1339.876526185640

DIPOLE MOMENT
-------------
                                X             Y             Z
Electronic contribution:     19.38878      19.26878      -4.77036
Nuclear contribution   :    -19.96401     -19.57003       5.10655
                        -----------------------------------------
Total Dipole Moment    :     -0.57522      -0.30124       0.33618
                        -----------------------------------------
Magnitude (a.u.)       :      0.73120
Magnitude (Debye)      :      1.85855

Rotational constants in cm-1:     0.020612     0.008114     0.006724
Rotational constants in MHz :   617.939620   243.255767   201.589596

                             ****ORCA TERMINATED NORMALLY****
TOTAL RUN TIME: 0 days 0 hours 0 minutes 34 seconds 45 msec
