                         Program Version 4.2.1 -  RELEASE  -
|  1> ! wB97X-D3 SP def2-SVP
|  2> %pal
|  3> nprocs 16
|  4> end
|  5>
|  6> * xyz 0 1
|  7> S 	 -85.4641 	 49.1667 	 128.535
|  8> C 	 -86.9182 	 48.5368 	 129.276
|  9> C 	 -87.3979 	 49.3176 	 130.368
| 10> C 	 -86.4857 	 50.4806 	 130.561
| 11> C 	 -85.3301 	 50.4864 	 129.768
| 12> H 	 -86.6413 	 51.2401 	 131.271
| 13> C 	 -88.6942 	 49.0511 	 131.13
| 14> H 	 -89.5432 	 48.9238 	 130.458
| 15> H 	 -88.8152 	 49.9247 	 131.707
| 16> C 	 -88.6271 	 47.8934 	 132.129
| 17> H 	 -89.4592 	 48.1215 	 132.791
| 18> H 	 -88.8619 	 46.9562 	 131.638
| 19> C 	 -87.419 	 47.6403 	 132.949
| 20> H 	 -86.6702 	 47.1073 	 132.36
| 21> H 	 -87.0483 	 48.5165 	 133.44
| 22> H 	 -87.5205 	 46.9307 	 133.726
| 23> S 	 -83.6656 	 52.195 	 128.379
| 24> C 	 -82.3506 	 52.9949 	 129.212
| 25> C 	 -82.3475 	 52.7369 	 130.546
| 26> C 	 -83.4315 	 51.8652 	 130.922
| 27> C 	 -84.1707 	 51.3517 	 129.853
| 28> H 	 -81.6716 	 53.1778 	 131.321
| 29> C 	 -83.4225 	 51.5617 	 132.407
| 30> H 	 -84.4289 	 51.3692 	 132.761
| 31> H 	 -83.1317 	 52.4571 	 133.043
| 32> C 	 -82.4328 	 50.409 	 132.785
| 33> H 	 -82.4201 	 50.3214 	 133.82
| 34> H 	 -81.4532 	 50.7175 	 132.331
| 35> C 	 -82.8909 	 49.1144 	 132.236
| 36> H 	 -82.2366 	 48.303 	 132.591
| 37> H 	 -82.9168 	 49.2397 	 131.217
| 38> H 	 -83.8793 	 48.8763 	 132.508
| 39> H 	 -87.4049 	 47.6107 	 128.997
| 40> H 	 -81.7419 	 53.7586 	 128.801
| 41> *
| 42>
| 43>                          ****END OF INPUT****

CARTESIAN COORDINATES (ANGSTROEM)
---------------------------------
  S    -85.464100   49.166700  128.535000
  C    -86.918200   48.536800  129.276000
  C    -87.397900   49.317600  130.368000
  C    -86.485700   50.480600  130.561000
  C    -85.330100   50.486400  129.768000
  H    -86.641300   51.240100  131.271000
  C    -88.694200   49.051100  131.130000
  H    -89.543200   48.923800  130.458000
  H    -88.815200   49.924700  131.707000
  C    -88.627100   47.893400  132.129000
  H    -89.459200   48.121500  132.791000
  H    -88.861900   46.956200  131.638000
  C    -87.419000   47.640300  132.949000
  H    -86.670200   47.107300  132.360000
  H    -87.048300   48.516500  133.440000
  H    -87.520500   46.930700  133.726000
  S    -83.665600   52.195000  128.379000
  C    -82.350600   52.994900  129.212000
  C    -82.347500   52.736900  130.546000
  C    -83.431500   51.865200  130.922000
  C    -84.170700   51.351700  129.853000
  H    -81.671600   53.177800  131.321000
  C    -83.422500   51.561700  132.407000
  H    -84.428900   51.369200  132.761000
  H    -83.131700   52.457100  133.043000
  C    -82.432800   50.409000  132.785000
  H    -82.420100   50.321400  133.820000
  H    -81.453200   50.717500  132.331000
  C    -82.890900   49.114400  132.236000
  H    -82.236600   48.303000  132.591000
  H    -82.916800   49.239700  131.217000
  H    -83.879300   48.876300  132.508000
  H    -87.404900   47.610700  128.997000
  H    -81.741900   53.758600  128.801000

 Total Charge           Charge          ....    0
 Multiplicity           Mult            ....    1
 Number of Electrons    NEL             ....  134
 Basis Dimension        Dim             ....  322

ORBITAL ENERGIES
----------------

  NO   OCC          E(Eh)            E(eV)
   0   2.0000     -88.968013     -2420.9427
   1   2.0000     -88.965497     -2420.8742
   2   2.0000     -10.337206      -281.2897
   3   2.0000     -10.333357      -281.1849
   4   2.0000     -10.319048      -280.7956
   5   2.0000     -10.315561      -280.7007
   6   2.0000     -10.310989      -280.5763
   7   2.0000     -10.306299      -280.4487
   8   2.0000     -10.301577      -280.3201
   9   2.0000     -10.295180      -280.1461
  10   2.0000     -10.293568      -280.1022
  11   2.0000     -10.293047      -280.0880
  12   2.0000     -10.282866      -279.8110
  13   2.0000     -10.278136      -279.6823
  14   2.0000     -10.268728      -279.4263
  15   2.0000     -10.253523      -279.0125
  16   2.0000      -8.081549      -219.9101
  17   2.0000      -8.080094      -219.8705
  18   2.0000      -6.040145      -164.3607
  19   2.0000      -6.038730      -164.3222
  20   2.0000      -6.036209      -164.2536
  21   2.0000      -6.034627      -164.2105
  22   2.0000      -6.032298      -164.1472
  23   2.0000      -6.030707      -164.1039
  24   2.0000      -1.000745       -27.2317
  25   2.0000      -0.973739       -26.4968
  26   2.0000      -0.916275       -24.9331
  27   2.0000      -0.911652       -24.8073
  28   2.0000      -0.870274       -23.6814
  29   2.0000      -0.850238       -23.1362
  30   2.0000      -0.844849       -22.9895
  31   2.0000      -0.815042       -22.1784
  32   2.0000      -0.786074       -21.3901
  33   2.0000      -0.772686       -21.0259
  34   2.0000      -0.705434       -19.1958
  35   2.0000      -0.701812       -19.0973
  36   2.0000      -0.689912       -18.7735
  37   2.0000      -0.662274       -18.0214
  38   2.0000      -0.638320       -17.3696
  39   2.0000      -0.612949       -16.6792
  40   2.0000      -0.599377       -16.3099
  41   2.0000      -0.579183       -15.7604
  42   2.0000      -0.561496       -15.2791
  43   2.0000      -0.559006       -15.2113
  44   2.0000      -0.539199       -14.6724
  45   2.0000      -0.531257       -14.4562
  46   2.0000      -0.517804       -14.0902
  47   2.0000      -0.511045       -13.9062
  48   2.0000      -0.504394       -13.7253
  49   2.0000      -0.499533       -13.5930
  50   2.0000      -0.497087       -13.5264
  51   2.0000      -0.477305       -12.9881
  52   2.0000      -0.470318       -12.7980
  53   2.0000      -0.465867       -12.6769
  54   2.0000      -0.457430       -12.4473
  55   2.0000      -0.451967       -12.2986
  56   2.0000      -0.443020       -12.0552
  57   2.0000      -0.435980       -11.8636
  58   2.0000      -0.422644       -11.5007
  59   2.0000      -0.421426       -11.4676
  60   2.0000      -0.418127       -11.3778
  61   2.0000      -0.413906       -11.2630
  62   2.0000      -0.407900       -11.0995
  63   2.0000      -0.351697        -9.5702
  64   2.0000      -0.329603        -8.9689
  65   2.0000      -0.327002        -8.8982
  66   2.0000      -0.288834        -7.8596
  67   0.0000       0.024642         0.6705
  68   0.0000       0.063415         1.7256
  69   0.0000       0.104102         2.8328
  70   0.0000       0.119868         3.2618
  71   0.0000       0.122168         3.3244

MULLIKEN ATOMIC CHARGES
-----------------------
   0 S :    0.107861
   1 C :   -0.107157
   2 C :   -0.148772
   3 C :    0.055539
   4 C :   -0.153747
   5 H :   -0.001687
   6 C :    0.124887
   7 H :    0.045473
   8 H :    0.001748
   9 C :   -0.090062
  10 H :    0.023962
  11 H :    0.020762
  12 C :   -0.003186
  13 H :    0.030765
  14 H :    0.019645
  15 H :    0.014973
  16 S :    0.096288
  17 C :   -0.058019
  18 C :   -0.048579
  19 C :   -0.053737
  20 C :   -0.139870
  21 H :    0.041948
  22 C :    0.010376
  23 H :    0.007453
  24 H :    0.032633
  25 C :   -0.039008
  26 H :    0.014214
  27 H :    0.029364
  28 C :    0.009870
  29 H :    0.033872
  30 H :    0.016749
  31 H :    0.008184
  32 H :    0.050065
  33 H :    0.047194
Sum of atomic charges:    0.0000000

LOEWDIN ATOMIC CHARGES
----------------------
   0 S :    0.383257
   1 C :   -0.196729
   2 C :   -0.057696
   3 C :   -0.051307
   4 C :   -0.182077
   5 H :    0.020414
   6 C :   -0.025576
   7 H :    0.039225
   8 H :    0.024624
   9 C :   -0.042298
  10 H :    0.025186
  11 H :    0.021437
  12 C :   -0.064850
  13 H :    0.030883
  14 H :    0.020840
  15 H :    0.025135
  16 S :    0.397007
  17 C :   -0.174490
  18 C :   -0.074643
  19 C :   -0.053473
  20 C :   -0.200465
  21 H :    0.042054
  22 C :   -0.036749
  23 H :    0.019097
  24 H :    0.035774
  25 C :   -0.027715
  26 H :    0.012664
  27 H :    0.028151
  28 C :   -0.054550
  29 H :    0.029575
  30 H :    0.015751
  31 H :    0.019308
  32 H :    0.027207
  33 H :    0.025026

  Mayer bond orders larger than 0.100000
B(  0-S ,  1-C ) :   1.1451 B(  0-S ,  4-C ) :   1.1226 B(  1-C ,  2-C ) :   1.6062
B(  1-C , 32-H ) :   0.9680 B(  2-C ,  3-C ) :   1.2245 B(  2-C ,  6-C ) :   1.0232
B(  3-C ,  4-C ) :   1.5916 B(  3-C ,  5-H ) :   0.9934 B(  4-C , 20-C ) :   1.0575
B(  6-C ,  7-H ) :   0.9444 B(  6-C ,  8-H ) :   0.9287 B(  6-C ,  9-C ) :   1.0697
B(  9-C , 10-H ) :   0.9561 B(  9-C , 11-H ) :   0.9545 B(  9-C , 12-C ) :   1.1056
B( 12-C , 13-H ) :   0.9622 B( 12-C , 14-H ) :   0.9716 B( 12-C , 15-H ) :   0.9639
B( 16-S , 17-C ) :   1.1491 B( 16-S , 20-C ) :   1.1218 B( 17-C , 18-C ) :   1.6128
B( 17-C , 33-H ) :   0.9680 B( 18-C , 19-C ) :   1.2380 B( 18-C , 21-H ) :   0.9789
B( 19-C , 20-C ) :   1.5988 B( 19-C , 22-C ) :   1.0490 B( 22-C , 23-H ) :   0.9348
B( 22-C , 24-H ) :   0.9390 B( 22-C , 25-C ) :   1.0703 B( 25-C , 26-H ) :   0.9523
B( 25-C , 27-H ) :   0.9521 B( 25-C , 28-C ) :   1.0875 B( 28-C , 29-H ) :   0.9689
B( 28-C , 30-H ) :   0.9716 B( 28-C , 31-H ) :   0.9680

Dispersion correction           -0.015728132
FINAL SINGLE POINT ENERGY     -1339.863883713123

DIPOLE MOMENT
-------------
                                X             Y             Z
Electronic contribution:      5.18861      11.36259     -24.83692
Nuclear contribution   :     -5.43907     -11.36254      25.59758
                        -----------------------------------------
Total Dipole Moment    :     -0.25046       0.00005       0.76066
                        -----------------------------------------
Magnitude (a.u.)       :      0.80083
Magnitude (Debye)      :      2.03555

Rotational constants in cm-1:     0.020960     0.009239     0.007352
Rotational constants in MHz :   628.351610   276.981918   220.416771

                             ****ORCA TERMINATED NORMALLY****
TOTAL RUN TIME: 0 days 0 hours 0 minutes 36 seconds 324 msec
