                         Program Version 4.2.1 -  RELEASE  -
|  1> ! wB97X-D3 SP def2-SVP
|  2> %pal
|  3> nprocs 16
|  4> end
|  5>
|  6> * xyz 0 1
|  7> S 	 -102.196 	 56.1866 	 120.154
|  8> C 	 -101.264 	 57.1084 	 119.042
|  9> C 	 -101.445 	 58.4808 	 119.229
| 10> C 	 -102.376 	 58.7504 	 120.286
| 11> C 	 -102.944 	 57.6067 	 120.841
| 12> H 	 -102.693 	 59.7449 	 120.73
| 13> C 	 -100.914 	 59.6372 	 118.428
| 14> H 	 -99.9503 	 59.5686 	 118.042
| 15> H 	 -100.913 	 60.4817 	 119.084
| 16> C 	 -101.875 	 59.9119 	 117.273
| 17> H 	 -102.946 	 59.8436 	 117.507
| 18> H 	 -101.816 	 60.9181 	 116.906
| 19> C 	 -101.751 	 58.9915 	 116.141
| 20> H 	 -102.109 	 57.9657 	 116.48
| 21> H 	 -102.23 	 59.2125 	 115.264
| 22> H 	 -100.701 	 58.7449 	 115.84
| 23> S 	 -102.861 	 56.8777 	 123.536
| 24> C 	 -104.205 	 57.2519 	 124.476
| 25> C 	 -105.334 	 57.5274 	 123.748
| 26> C 	 -105.132 	 57.639 	 122.33
| 27> C 	 -103.763 	 57.3549 	 122.043
| 28> H 	 -106.304 	 57.6417 	 124.287
| 29> C 	 -106.095 	 58.0092 	 121.174
| 30> H 	 -107.065 	 57.4955 	 121.224
| 31> H 	 -105.61 	 57.779 	 120.166
| 32> C 	 -106.363 	 59.4819 	 121.156
| 33> H 	 -105.417 	 60.0523 	 121.092
| 34> H 	 -106.655 	 59.8788 	 122.117
| 35> C 	 -107.395 	 59.9931 	 120.18
| 36> H 	 -108.266 	 59.3399 	 120.309
| 37> H 	 -107 	 60.0014 	 119.209
| 38> H 	 -107.641 	 60.9563 	 120.47
| 39> H 	 -100.554 	 56.5531 	 118.385
| 40> H 	 -104.252 	 57.288 	 125.534
| 41> *
| 42>
| 43>                          ****END OF INPUT****

CARTESIAN COORDINATES (ANGSTROEM)
---------------------------------
  S    -102.196000   56.186600  120.154000
  C    -101.264000   57.108400  119.042000
  C    -101.445000   58.480800  119.229000
  C    -102.376000   58.750400  120.286000
  C    -102.944000   57.606700  120.841000
  H    -102.693000   59.744900  120.730000
  C    -100.914000   59.637200  118.428000
  H    -99.950300   59.568600  118.042000
  H    -100.913000   60.481700  119.084000
  C    -101.875000   59.911900  117.273000
  H    -102.946000   59.843600  117.507000
  H    -101.816000   60.918100  116.906000
  C    -101.751000   58.991500  116.141000
  H    -102.109000   57.965700  116.480000
  H    -102.230000   59.212500  115.264000
  H    -100.701000   58.744900  115.840000
  S    -102.861000   56.877700  123.536000
  C    -104.205000   57.251900  124.476000
  C    -105.334000   57.527400  123.748000
  C    -105.132000   57.639000  122.330000
  C    -103.763000   57.354900  122.043000
  H    -106.304000   57.641700  124.287000
  C    -106.095000   58.009200  121.174000
  H    -107.065000   57.495500  121.224000
  H    -105.610000   57.779000  120.166000
  C    -106.363000   59.481900  121.156000
  H    -105.417000   60.052300  121.092000
  H    -106.655000   59.878800  122.117000
  C    -107.395000   59.993100  120.180000
  H    -108.266000   59.339900  120.309000
  H    -107.000000   60.001400  119.209000
  H    -107.641000   60.956300  120.470000
  H    -100.554000   56.553100  118.385000
  H    -104.252000   57.288000  125.534000

 Total Charge           Charge          ....    0
 Multiplicity           Mult            ....    1
 Number of Electrons    NEL             ....  134
 Basis Dimension        Dim             ....  322

ORBITAL ENERGIES
----------------

  NO   OCC          E(Eh)            E(eV)
   0   2.0000     -88.966248     -2420.8947
   1   2.0000     -88.960471     -2420.7375
   2   2.0000     -10.330483      -281.1067
   3   2.0000     -10.328221      -281.0452
   4   2.0000     -10.317614      -280.7565
   5   2.0000     -10.314187      -280.6633
   6   2.0000     -10.310810      -280.5714
   7   2.0000     -10.305818      -280.4356
   8   2.0000     -10.301954      -280.3304
   9   2.0000     -10.299385      -280.2605
  10   2.0000     -10.296407      -280.1795
  11   2.0000     -10.286526      -279.9106
  12   2.0000     -10.277844      -279.6743
  13   2.0000     -10.276467      -279.6369
  14   2.0000     -10.268430      -279.4182
  15   2.0000     -10.266919      -279.3771
  16   2.0000      -8.081412      -219.9064
  17   2.0000      -8.076260      -219.7662
  18   2.0000      -6.039718      -164.3491
  19   2.0000      -6.035932      -164.2461
  20   2.0000      -6.034588      -164.2095
  21   2.0000      -6.032263      -164.1462
  22   2.0000      -6.030424      -164.0962
  23   2.0000      -6.027346      -164.0124
  24   2.0000      -1.004647       -27.3378
  25   2.0000      -0.984938       -26.8015
  26   2.0000      -0.921482       -25.0748
  27   2.0000      -0.914802       -24.8930
  28   2.0000      -0.865951       -23.5637
  29   2.0000      -0.854076       -23.2406
  30   2.0000      -0.848205       -23.0808
  31   2.0000      -0.811409       -22.0795
  32   2.0000      -0.789416       -21.4811
  33   2.0000      -0.774075       -21.0637
  34   2.0000      -0.703186       -19.1347
  35   2.0000      -0.694081       -18.8869
  36   2.0000      -0.690051       -18.7773
  37   2.0000      -0.652322       -17.7506
  38   2.0000      -0.646702       -17.5977
  39   2.0000      -0.620324       -16.8799
  40   2.0000      -0.600261       -16.3339
  41   2.0000      -0.574729       -15.6392
  42   2.0000      -0.567541       -15.4436
  43   2.0000      -0.553127       -15.0513
  44   2.0000      -0.533349       -14.5132
  45   2.0000      -0.531330       -14.4582
  46   2.0000      -0.516158       -14.0454
  47   2.0000      -0.512634       -13.9495
  48   2.0000      -0.508552       -13.8384
  49   2.0000      -0.496426       -13.5084
  50   2.0000      -0.485675       -13.2159
  51   2.0000      -0.484209       -13.1760
  52   2.0000      -0.478523       -13.0213
  53   2.0000      -0.465534       -12.6678
  54   2.0000      -0.455414       -12.3924
  55   2.0000      -0.448631       -12.2079
  56   2.0000      -0.443562       -12.0699
  57   2.0000      -0.439126       -11.9492
  58   2.0000      -0.436434       -11.8760
  59   2.0000      -0.425809       -11.5869
  60   2.0000      -0.423716       -11.5299
  61   2.0000      -0.405289       -11.0285
  62   2.0000      -0.403359       -10.9760
  63   2.0000      -0.338408        -9.2085
  64   2.0000      -0.330669        -8.9980
  65   2.0000      -0.323558        -8.8045
  66   2.0000      -0.298234        -8.1153
  67   0.0000       0.040221         1.0945
  68   0.0000       0.052475         1.4279
  69   0.0000       0.119519         3.2523
  70   0.0000       0.120239         3.2719
  71   0.0000       0.130096         3.5401

MULLIKEN ATOMIC CHARGES
-----------------------
   0 S :    0.096920
   1 C :   -0.137766
   2 C :   -0.101191
   3 C :    0.024292
   4 C :   -0.187435
   5 H :    0.041541
   6 C :    0.144099
   7 H :    0.009738
   8 H :    0.012751
   9 C :   -0.055160
  10 H :    0.025134
  11 H :    0.015221
  12 C :   -0.046222
  13 H :    0.028573
  14 H :    0.017234
  15 H :    0.010714
  16 S :    0.131026
  17 C :   -0.072030
  18 C :   -0.067333
  19 C :    0.003286
  20 C :   -0.186927
  21 H :    0.030227
  22 C :    0.083164
  23 H :    0.027380
  24 H :    0.048246
  25 C :   -0.132315
  26 H :    0.009656
  27 H :    0.006421
  28 C :    0.044221
  29 H :    0.023387
  30 H :    0.024932
  31 H :    0.014191
  32 H :    0.070833
  33 H :    0.043192
Sum of atomic charges:   -0.0000000

LOEWDIN ATOMIC CHARGES
----------------------
   0 S :    0.420082
   1 C :   -0.212635
   2 C :   -0.062464
   3 C :   -0.064737
   4 C :   -0.205806
   5 H :    0.043974
   6 C :   -0.015756
   7 H :    0.022295
   8 H :    0.030933
   9 C :   -0.043547
  10 H :    0.030387
  11 H :    0.018627
  12 C :   -0.065820
  13 H :    0.030353
  14 H :    0.012819
  15 H :    0.020717
  16 S :    0.417542
  17 C :   -0.199523
  18 C :   -0.085298
  19 C :   -0.037811
  20 C :   -0.199406
  21 H :    0.036945
  22 C :   -0.029905
  23 H :    0.030866
  24 H :    0.043069
  25 C :   -0.054383
  26 H :    0.021479
  27 H :    0.017132
  28 C :   -0.047183
  29 H :    0.027802
  30 H :    0.018755
  31 H :    0.019654
  32 H :    0.035283
  33 H :    0.025559

  Mayer bond orders larger than 0.100000
B(  0-S ,  1-C ) :   1.1622 B(  0-S ,  4-C ) :   1.1696 B(  1-C ,  2-C ) :   1.5733
B(  1-C , 32-H ) :   0.9676 B(  2-C ,  3-C ) :   1.2486 B(  2-C ,  6-C ) :   1.0373
B(  3-C ,  4-C ) :   1.5822 B(  3-C ,  5-H ) :   0.9818 B(  4-C , 20-C ) :   0.9951
B(  6-C ,  7-H ) :   0.9427 B(  6-C ,  8-H ) :   0.9298 B(  6-C ,  9-C ) :   1.0621
B(  9-C , 10-H ) :   0.9508 B(  9-C , 11-H ) :   0.9531 B(  9-C , 12-C ) :   1.0869
B( 12-C , 13-H ) :   0.9672 B( 12-C , 14-H ) :   0.9714 B( 12-C , 15-H ) :   0.9711
B( 16-S , 17-C ) :   1.1734 B( 16-S , 20-C ) :   1.1411 B( 17-C , 18-C ) :   1.6131
B( 17-C , 33-H ) :   0.9664 B( 18-C , 19-C ) :   1.2414 B( 18-C , 21-H ) :   0.9827
B( 19-C , 20-C ) :   1.5878 B( 19-C , 22-C ) :   1.0376 B( 22-C , 23-H ) :   0.9343
B( 22-C , 24-H ) :   0.9326 B( 22-C , 25-C ) :   1.0643 B( 25-C , 26-H ) :   0.9418
B( 25-C , 27-H ) :   0.9566 B( 25-C , 28-C ) :   1.0863 B( 28-C , 29-H ) :   0.9700
B( 28-C , 30-H ) :   0.9746 B( 28-C , 31-H ) :   0.9694

Dispersion correction           -0.014548582
FINAL SINGLE POINT ENERGY     -1339.863303906483

DIPOLE MOMENT
-------------
                                X             Y             Z
Electronic contribution:     10.46918     -18.14497      19.46899
Nuclear contribution   :    -10.68481      18.71729     -19.58168
                        -----------------------------------------
Total Dipole Moment    :     -0.21563       0.57232      -0.11270
                        -----------------------------------------
Magnitude (a.u.)       :      0.62189
Magnitude (Debye)      :      1.58073

Rotational constants in cm-1:     0.018141     0.009314     0.006887
Rotational constants in MHz :   543.849452   279.235865   206.471880

                             ****ORCA TERMINATED NORMALLY****
TOTAL RUN TIME: 0 days 0 hours 0 minutes 35 seconds 548 msec
