                         Program Version 4.2.1 -  RELEASE  -
|  1> ! wB97X-D3 SP def2-SVP
|  2> %pal
|  3> nprocs 16
|  4> end
|  5>
|  6> * xyz 0 1
|  7> S 	 41.614 	 11.7167 	 67.4513
|  8> C 	 39.8514 	 11.3985 	 67.7805
|  9> C 	 39.1236 	 12.5915 	 67.6103
| 10> C 	 39.9236 	 13.7008 	 67.0979
| 11> C 	 41.2426 	 13.3453 	 66.9464
| 12> H 	 39.5664 	 14.6883 	 66.9539
| 13> C 	 37.6914 	 12.7067 	 68.0923
| 14> H 	 37.268 	 11.7098 	 67.9969
| 15> H 	 37.1181 	 13.4512 	 67.5499
| 16> C 	 37.5565 	 13.1201 	 69.5721
| 17> H 	 38.1435 	 12.3696 	 70.0709
| 18> H 	 37.9442 	 14.092 	 69.6513
| 19> C 	 36.0871 	 13.15 	 70.0048
| 20> H 	 35.5786 	 12.2238 	 69.8878
| 21> H 	 35.9929 	 13.5277 	 71.0011
| 22> H 	 35.6186 	 13.7539 	 69.2836
| 23> S 	 43.6955 	 13.2885 	 65.672
| 24> C 	 44.2825 	 14.7476 	 65.0316
| 25> C 	 43.7405 	 15.8335 	 65.6441
| 26> C 	 42.576 	 15.5306 	 66.3308
| 27> C 	 42.3026 	 14.1781 	 66.3499
| 28> H 	 44.2497 	 16.7573 	 65.686
| 29> C 	 41.7907 	 16.6477 	 67.0443
| 30> H 	 40.7482 	 16.6263 	 66.6715
| 31> H 	 42.2534 	 17.6216 	 66.7915
| 32> C 	 41.6154 	 16.6114 	 68.557
| 33> H 	 42.5677 	 16.8794 	 69.01
| 34> H 	 41.2689 	 15.5875 	 68.7983
| 35> C 	 40.657 	 17.7131 	 69.0255
| 36> H 	 40.3436 	 17.4809 	 70.0557
| 37> H 	 39.706 	 17.5292 	 68.517
| 38> H 	 40.9295 	 18.7654 	 68.8697
| 39> H 	 39.4551 	 10.4398 	 68.1318
| 40> H 	 45.2358 	 14.8342 	 64.5205
| 41> *
| 42>
| 43>                          ****END OF INPUT****

CARTESIAN COORDINATES (ANGSTROEM)
---------------------------------
  S     41.614000   11.716700   67.451300
  C     39.851400   11.398500   67.780500
  C     39.123600   12.591500   67.610300
  C     39.923600   13.700800   67.097900
  C     41.242600   13.345300   66.946400
  H     39.566400   14.688300   66.953900
  C     37.691400   12.706700   68.092300
  H     37.268000   11.709800   67.996900
  H     37.118100   13.451200   67.549900
  C     37.556500   13.120100   69.572100
  H     38.143500   12.369600   70.070900
  H     37.944200   14.092000   69.651300
  C     36.087100   13.150000   70.004800
  H     35.578600   12.223800   69.887800
  H     35.992900   13.527700   71.001100
  H     35.618600   13.753900   69.283600
  S     43.695500   13.288500   65.672000
  C     44.282500   14.747600   65.031600
  C     43.740500   15.833500   65.644100
  C     42.576000   15.530600   66.330800
  C     42.302600   14.178100   66.349900
  H     44.249700   16.757300   65.686000
  C     41.790700   16.647700   67.044300
  H     40.748200   16.626300   66.671500
  H     42.253400   17.621600   66.791500
  C     41.615400   16.611400   68.557000
  H     42.567700   16.879400   69.010000
  H     41.268900   15.587500   68.798300
  C     40.657000   17.713100   69.025500
  H     40.343600   17.480900   70.055700
  H     39.706000   17.529200   68.517000
  H     40.929500   18.765400   68.869700
  H     39.455100   10.439800   68.131800
  H     45.235800   14.834200   64.520500

 Total Charge           Charge          ....    0
 Multiplicity           Mult            ....    1
 Number of Electrons    NEL             ....  134
 Basis Dimension        Dim             ....  322

ORBITAL ENERGIES
----------------

  NO   OCC          E(Eh)            E(eV)
   0   2.0000     -88.968340     -2420.9516
   1   2.0000     -88.965900     -2420.8852
   2   2.0000     -10.335142      -281.2335
   3   2.0000     -10.329090      -281.0688
   4   2.0000     -10.322368      -280.8859
   5   2.0000     -10.310715      -280.5688
   6   2.0000     -10.309493      -280.5356
   7   2.0000     -10.301901      -280.3290
   8   2.0000     -10.295457      -280.1536
   9   2.0000     -10.295212      -280.1470
  10   2.0000     -10.290039      -280.0062
  11   2.0000     -10.286231      -279.9026
  12   2.0000     -10.284507      -279.8557
  13   2.0000     -10.281669      -279.7784
  14   2.0000     -10.279483      -279.7190
  15   2.0000     -10.270513      -279.4749
  16   2.0000      -8.082118      -219.9256
  17   2.0000      -8.081298      -219.9033
  18   2.0000      -6.040837      -164.3795
  19   2.0000      -6.039653      -164.3473
  20   2.0000      -6.036925      -164.2731
  21   2.0000      -6.036058      -164.2495
  22   2.0000      -6.032559      -164.1543
  23   2.0000      -6.031834      -164.1346
  24   2.0000      -1.011814       -27.5328
  25   2.0000      -0.982268       -26.7289
  26   2.0000      -0.917015       -24.9533
  27   2.0000      -0.912327       -24.8257
  28   2.0000      -0.868902       -23.6440
  29   2.0000      -0.858236       -23.3538
  30   2.0000      -0.844445       -22.9785
  31   2.0000      -0.816520       -22.2186
  32   2.0000      -0.783448       -21.3187
  33   2.0000      -0.772032       -21.0081
  34   2.0000      -0.707209       -19.2441
  35   2.0000      -0.702111       -19.1054
  36   2.0000      -0.688224       -18.7275
  37   2.0000      -0.666842       -18.1457
  38   2.0000      -0.639801       -17.4099
  39   2.0000      -0.622766       -16.9463
  40   2.0000      -0.599018       -16.3001
  41   2.0000      -0.584224       -15.8976
  42   2.0000      -0.575760       -15.6672
  43   2.0000      -0.560201       -15.2438
  44   2.0000      -0.529525       -14.4091
  45   2.0000      -0.523736       -14.2516
  46   2.0000      -0.513782       -13.9807
  47   2.0000      -0.510025       -13.8785
  48   2.0000      -0.506977       -13.7955
  49   2.0000      -0.498700       -13.5703
  50   2.0000      -0.497088       -13.5265
  51   2.0000      -0.482812       -13.1380
  52   2.0000      -0.477854       -13.0031
  53   2.0000      -0.466211       -12.6863
  54   2.0000      -0.460486       -12.5305
  55   2.0000      -0.455892       -12.4054
  56   2.0000      -0.447979       -12.1901
  57   2.0000      -0.435770       -11.8579
  58   2.0000      -0.428957       -11.6725
  59   2.0000      -0.425339       -11.5740
  60   2.0000      -0.423935       -11.5358
  61   2.0000      -0.418990       -11.4013
  62   2.0000      -0.417504       -11.3609
  63   2.0000      -0.355545        -9.6749
  64   2.0000      -0.335680        -9.1343
  65   2.0000      -0.327020        -8.8987
  66   2.0000      -0.282804        -7.6955
  67   0.0000       0.016957         0.4614
  68   0.0000       0.068015         1.8508
  69   0.0000       0.090393         2.4597
  70   0.0000       0.121258         3.2996
  71   0.0000       0.126849         3.4517

MULLIKEN ATOMIC CHARGES
-----------------------
   0 S :    0.086706
   1 C :   -0.135106
   2 C :   -0.073250
   3 C :    0.019083
   4 C :   -0.093820
   5 H :   -0.010204
   6 C :    0.027996
   7 H :    0.021532
   8 H :    0.016530
   9 C :   -0.049503
  10 H :    0.021775
  11 H :    0.015983
  12 C :    0.013491
  13 H :    0.015863
  14 H :    0.039927
  15 H :    0.004753
  16 S :    0.099341
  17 C :   -0.065372
  18 C :   -0.042271
  19 C :   -0.005841
  20 C :   -0.146156
  21 H :    0.005793
  22 C :    0.023452
  23 H :    0.026477
  24 H :    0.016955
  25 C :   -0.065895
  26 H :    0.029173
  27 H :    0.047429
  28 C :   -0.049941
  29 H :    0.035335
  30 H :    0.007768
  31 H :    0.048396
  32 H :    0.057953
  33 H :    0.055649
Sum of atomic charges:    0.0000000

LOEWDIN ATOMIC CHARGES
----------------------
   0 S :    0.371731
   1 C :   -0.187785
   2 C :   -0.047022
   3 C :   -0.071532
   4 C :   -0.176299
   5 H :    0.023727
   6 C :   -0.031618
   7 H :    0.029014
   8 H :    0.023130
   9 C :   -0.026355
  10 H :    0.019186
  11 H :    0.016115
  12 C :   -0.054169
  13 H :    0.021370
  14 H :    0.026895
  15 H :    0.019241
  16 S :    0.410622
  17 C :   -0.192753
  18 C :   -0.070084
  19 C :   -0.056057
  20 C :   -0.181762
  21 H :    0.027737
  22 C :   -0.034048
  23 H :    0.028277
  24 H :    0.029167
  25 C :   -0.041034
  26 H :    0.023200
  27 H :    0.030300
  28 C :   -0.070348
  29 H :    0.031869
  30 H :    0.019814
  31 H :    0.029266
  32 H :    0.031105
  33 H :    0.029098

  Mayer bond orders larger than 0.100000
B(  0-S ,  1-C ) :   1.0960 B(  0-S ,  4-C ) :   1.1453 B(  1-C ,  2-C ) :   1.6225
B(  1-C , 32-H ) :   0.9699 B(  2-C ,  3-C ) :   1.2125 B(  2-C ,  6-C ) :   1.0436
B(  3-C ,  4-C ) :   1.5700 B(  3-C ,  5-H ) :   1.0015 B(  4-C , 20-C ) :   1.0664
B(  6-C ,  7-H ) :   0.9405 B(  6-C ,  8-H ) :   0.9390 B(  6-C ,  9-C ) :   1.0630
B(  9-C , 10-H ) :   0.9564 B(  9-C , 11-H ) :   0.9559 B(  9-C , 12-C ) :   1.0831
B( 12-C , 13-H ) :   0.9732 B( 12-C , 14-H ) :   0.9736 B( 12-C , 15-H ) :   0.9685
B( 16-S , 17-C ) :   1.1762 B( 16-S , 20-C ) :   1.1337 B( 17-C , 18-C ) :   1.5837
B( 17-C , 20-C ) :   0.1005 B( 17-C , 33-H ) :   0.9614 B( 18-C , 19-C ) :   1.2856
B( 18-C , 21-H ) :   0.9943 B( 19-C , 20-C ) :   1.5668 B( 19-C , 22-C ) :   1.0272
B( 22-C , 23-H ) :   0.9338 B( 22-C , 24-H ) :   0.9378 B( 22-C , 25-C ) :   1.0695
B( 25-C , 26-H ) :   0.9531 B( 25-C , 27-H ) :   0.9504 B( 25-C , 28-C ) :   1.0819
B( 28-C , 29-H ) :   0.9705 B( 28-C , 30-H ) :   0.9689 B( 28-C , 31-H ) :   0.9756

Dispersion correction           -0.014159217
FINAL SINGLE POINT ENERGY     -1339.866299522591

DIPOLE MOMENT
-------------
                                X             Y             Z
Electronic contribution:     23.34216     -15.97818     -16.24213
Nuclear contribution   :    -23.63981      16.50243      16.60272
                        -----------------------------------------
Total Dipole Moment    :     -0.29765       0.52425       0.36058
                        -----------------------------------------
Magnitude (a.u.)       :      0.70246
Magnitude (Debye)      :      1.78552

Rotational constants in cm-1:     0.019341     0.008974     0.006489
Rotational constants in MHz :   579.839976   269.039272   194.522247

                             ****ORCA TERMINATED NORMALLY****
TOTAL RUN TIME: 0 days 0 hours 0 minutes 29 seconds 739 msec
