                         Program Version 4.2.1 -  RELEASE  -
|  1> ! wB97X-D3 SP def2-SVP
|  2> %pal
|  3> nprocs 16
|  4> end
|  5>
|  6> * xyz 0 1
|  7> S 	 -50.6678 	 59.2406 	 134.426
|  8> C 	 -51.3277 	 58.3418 	 133.094
|  9> C 	 -51.6923 	 59.1883 	 132.055
| 10> C 	 -51.4221 	 60.5554 	 132.385
| 11> C 	 -50.9208 	 60.7576 	 133.629
| 12> H 	 -51.6211 	 61.4203 	 131.807
| 13> C 	 -52.2263 	 58.7233 	 130.662
| 14> H 	 -53.0238 	 58.0638 	 130.895
| 15> H 	 -51.5014 	 58.1479 	 130.141
| 16> C 	 -52.5416 	 59.8845 	 129.716
| 17> H 	 -53.4923 	 60.5285 	 130.071
| 18> H 	 -51.7251 	 60.4996 	 129.473
| 19> C 	 -52.7041 	 59.3657 	 128.265
| 20> H 	 -53.7414 	 59.044 	 128.045
| 21> H 	 -52.4916 	 60.0453 	 127.374
| 22> H 	 -52.098 	 58.4556 	 128.22
| 23> S 	 -50.6881 	 61.9479 	 136.112
| 24> C 	 -50.6757 	 63.6941 	 136.235
| 25> C 	 -50.443 	 64.2224 	 135.019
| 26> C 	 -50.5625 	 63.3409 	 133.843
| 27> C 	 -50.6317 	 62.0087 	 134.312
| 28> H 	 -50.4264 	 65.3111 	 134.981
| 29> C 	 -50.5563 	 63.9542 	 132.406
| 30> H 	 -50.6325 	 65.038 	 132.503
| 31> H 	 -51.4504 	 63.5423 	 131.839
| 32> C 	 -49.2826 	 63.8271 	 131.533
| 33> H 	 -49.1005 	 62.8169 	 131.169
| 34> H 	 -48.4979 	 64.0833 	 132.164
| 35> C 	 -49.2445 	 64.7398 	 130.326
| 36> H 	 -49.5099 	 65.792 	 130.516
| 37> H 	 -50.0034 	 64.2465 	 129.685
| 38> H 	 -48.3326 	 64.789 	 129.73
| 39> H 	 -51.319 	 57.2947 	 132.851
| 40> H 	 -50.7149 	 64.3002 	 137.134
| 41> *
| 42>
| 43>                          ****END OF INPUT****

CARTESIAN COORDINATES (ANGSTROEM)
---------------------------------
  S    -50.667800   59.240600  134.426000
  C    -51.327700   58.341800  133.094000
  C    -51.692300   59.188300  132.055000
  C    -51.422100   60.555400  132.385000
  C    -50.920800   60.757600  133.629000
  H    -51.621100   61.420300  131.807000
  C    -52.226300   58.723300  130.662000
  H    -53.023800   58.063800  130.895000
  H    -51.501400   58.147900  130.141000
  C    -52.541600   59.884500  129.716000
  H    -53.492300   60.528500  130.071000
  H    -51.725100   60.499600  129.473000
  C    -52.704100   59.365700  128.265000
  H    -53.741400   59.044000  128.045000
  H    -52.491600   60.045300  127.374000
  H    -52.098000   58.455600  128.220000
  S    -50.688100   61.947900  136.112000
  C    -50.675700   63.694100  136.235000
  C    -50.443000   64.222400  135.019000
  C    -50.562500   63.340900  133.843000
  C    -50.631700   62.008700  134.312000
  H    -50.426400   65.311100  134.981000
  C    -50.556300   63.954200  132.406000
  H    -50.632500   65.038000  132.503000
  H    -51.450400   63.542300  131.839000
  C    -49.282600   63.827100  131.533000
  H    -49.100500   62.816900  131.169000
  H    -48.497900   64.083300  132.164000
  C    -49.244500   64.739800  130.326000
  H    -49.509900   65.792000  130.516000
  H    -50.003400   64.246500  129.685000
  H    -48.332600   64.789000  129.730000
  H    -51.319000   57.294700  132.851000
  H    -50.714900   64.300200  137.134000

 Total Charge           Charge          ....    0
 Multiplicity           Mult            ....    1
 Number of Electrons    NEL             ....  134
 Basis Dimension        Dim             ....  322

ORBITAL ENERGIES
----------------

  NO   OCC          E(Eh)            E(eV)
   0   2.0000     -88.966991     -2420.9149
   1   2.0000     -88.964644     -2420.8510
   2   2.0000     -10.338342      -281.3206
   3   2.0000     -10.325671      -280.9758
   4   2.0000     -10.318305      -280.7754
   5   2.0000     -10.315679      -280.7039
   6   2.0000     -10.310237      -280.5558
   7   2.0000     -10.308797      -280.5166
   8   2.0000     -10.303056      -280.3604
   9   2.0000     -10.298374      -280.2330
  10   2.0000     -10.295822      -280.1636
  11   2.0000     -10.294132      -280.1176
  12   2.0000     -10.286682      -279.9149
  13   2.0000     -10.286598      -279.9126
  14   2.0000     -10.282055      -279.7889
  15   2.0000     -10.281900      -279.7847
  16   2.0000      -8.081913      -219.9200
  17   2.0000      -8.078844      -219.8365
  18   2.0000      -6.040583      -164.3726
  19   2.0000      -6.037646      -164.2927
  20   2.0000      -6.036345      -164.2573
  21   2.0000      -6.033518      -164.1804
  22   2.0000      -6.032544      -164.1539
  23   2.0000      -6.029219      -164.0634
  24   2.0000      -1.008037       -27.4301
  25   2.0000      -0.981341       -26.7037
  26   2.0000      -0.914838       -24.8940
  27   2.0000      -0.910337       -24.7715
  28   2.0000      -0.873666       -23.7737
  29   2.0000      -0.853232       -23.2176
  30   2.0000      -0.841481       -22.8979
  31   2.0000      -0.818718       -22.2784
  32   2.0000      -0.782670       -21.2975
  33   2.0000      -0.773578       -21.0501
  34   2.0000      -0.713777       -19.4229
  35   2.0000      -0.698461       -19.0061
  36   2.0000      -0.688248       -18.7282
  37   2.0000      -0.661287       -17.9945
  38   2.0000      -0.638070       -17.3628
  39   2.0000      -0.621184       -16.9033
  40   2.0000      -0.594775       -16.1847
  41   2.0000      -0.576318       -15.6824
  42   2.0000      -0.575911       -15.6713
  43   2.0000      -0.564388       -15.3578
  44   2.0000      -0.531088       -14.4516
  45   2.0000      -0.528525       -14.3819
  46   2.0000      -0.516053       -14.0425
  47   2.0000      -0.508276       -13.8309
  48   2.0000      -0.501365       -13.6428
  49   2.0000      -0.496944       -13.5225
  50   2.0000      -0.493656       -13.4331
  51   2.0000      -0.482284       -13.1236
  52   2.0000      -0.469730       -12.7820
  53   2.0000      -0.467930       -12.7330
  54   2.0000      -0.458151       -12.4669
  55   2.0000      -0.455631       -12.3984
  56   2.0000      -0.446058       -12.1378
  57   2.0000      -0.433710       -11.8018
  58   2.0000      -0.430143       -11.7048
  59   2.0000      -0.428695       -11.6654
  60   2.0000      -0.420099       -11.4315
  61   2.0000      -0.413873       -11.2621
  62   2.0000      -0.406911       -11.0726
  63   2.0000      -0.364683        -9.9235
  64   2.0000      -0.335513        -9.1298
  65   2.0000      -0.326271        -8.8783
  66   2.0000      -0.283886        -7.7249
  67   0.0000       0.020387         0.5548
  68   0.0000       0.079799         2.1715
  69   0.0000       0.102328         2.7845
  70   0.0000       0.116575         3.1722
  71   0.0000       0.130959         3.5636

MULLIKEN ATOMIC CHARGES
-----------------------
   0 S :    0.111570
   1 C :   -0.097778
   2 C :   -0.118439
   3 C :   -0.004530
   4 C :   -0.088071
   5 H :   -0.034146
   6 C :    0.109980
   7 H :    0.033560
   8 H :    0.023077
   9 C :   -0.113207
  10 H :    0.062152
  11 H :    0.035929
  12 C :   -0.083861
  13 H :    0.027977
  14 H :    0.050021
  15 H :    0.025967
  16 S :    0.080635
  17 C :   -0.085541
  18 C :   -0.028715
  19 C :   -0.068478
  20 C :   -0.097492
  21 H :    0.018125
  22 C :    0.023611
  23 H :    0.015985
  24 H :    0.053985
  25 C :   -0.020228
  26 H :    0.031057
  27 H :    0.012644
  28 C :   -0.075930
  29 H :    0.032905
  30 H :    0.027112
  31 H :    0.042214
  32 H :    0.035856
  33 H :    0.062052
Sum of atomic charges:    0.0000000

LOEWDIN ATOMIC CHARGES
----------------------
   0 S :    0.417075
   1 C :   -0.209701
   2 C :   -0.056114
   3 C :   -0.069996
   4 C :   -0.191859
   5 H :    0.021209
   6 C :   -0.023585
   7 H :    0.031737
   8 H :    0.027434
   9 C :   -0.051513
  10 H :    0.040587
  11 H :    0.022987
  12 C :   -0.076414
  13 H :    0.022564
  14 H :    0.033501
  15 H :    0.023523
  16 S :    0.374682
  17 C :   -0.184382
  18 C :   -0.075572
  19 C :   -0.052163
  20 C :   -0.170795
  21 H :    0.028960
  22 C :   -0.029673
  23 H :    0.032175
  24 H :    0.034848
  25 C :   -0.037625
  26 H :    0.025232
  27 H :    0.014558
  28 C :   -0.070821
  29 H :    0.023712
  30 H :    0.028738
  31 H :    0.029498
  32 H :    0.030283
  33 H :    0.036913

  Mayer bond orders larger than 0.100000
B(  0-S ,  1-C ) :   1.1346 B(  0-S ,  4-C ) :   1.1394 B(  1-C ,  2-C ) :   1.6361
B(  1-C , 32-H ) :   0.9687 B(  2-C ,  3-C ) :   1.2551 B(  2-C ,  6-C ) :   0.9896
B(  3-C ,  4-C ) :   1.5771 B(  3-C ,  5-H ) :   0.9962 B(  4-C , 20-C ) :   1.0682
B(  6-C ,  7-H ) :   0.9367 B(  6-C ,  8-H ) :   0.9335 B(  6-C ,  9-C ) :   1.1000
B(  9-C , 10-H ) :   0.9514 B(  9-C , 11-H ) :   0.9483 B(  9-C , 12-C ) :   1.0501
B( 12-C , 13-H ) :   0.9738 B( 12-C , 14-H ) :   0.9805 B( 12-C , 15-H ) :   0.9722
B( 16-S , 17-C ) :   1.1229 B( 16-S , 20-C ) :   1.1208 B( 17-C , 18-C ) :   1.6756
B( 17-C , 33-H ) :   0.9631 B( 18-C , 19-C ) :   1.2100 B( 18-C , 21-H ) :   0.9758
B( 19-C , 20-C ) :   1.6063 B( 19-C , 22-C ) :   1.0411 B( 22-C , 23-H ) :   0.9305
B( 22-C , 24-H ) :   0.9313 B( 22-C , 25-C ) :   1.0627 B( 25-C , 26-H ) :   0.9546
B( 25-C , 27-H ) :   0.9507 B( 25-C , 28-C ) :   1.0794 B( 28-C , 29-H ) :   0.9737
B( 28-C , 30-H ) :   0.9779 B( 28-C , 31-H ) :   0.9743

Dispersion correction           -0.013482542
FINAL SINGLE POINT ENERGY     -1339.850830666069

DIPOLE MOMENT
-------------
                                X             Y             Z
Electronic contribution:      2.62059      -7.90156      33.11455
Nuclear contribution   :     -2.68403       8.24821     -33.84667
                        -----------------------------------------
Total Dipole Moment    :     -0.06344       0.34664      -0.73212
                        -----------------------------------------
Magnitude (a.u.)       :      0.81252
Magnitude (Debye)      :      2.06526

Rotational constants in cm-1:     0.015858     0.009654     0.006412
Rotational constants in MHz :   475.402589   289.405239   192.213662

                             ****ORCA TERMINATED NORMALLY****
TOTAL RUN TIME: 0 days 0 hours 0 minutes 32 seconds 22 msec
