                         Program Version 4.2.1 -  RELEASE  -
|  1> ! wB97X-D3 SP def2-SVP
|  2> %pal
|  3> nprocs 16
|  4> end
|  5>
|  6> * xyz 0 1
|  7> S 	 -19.9461 	 0.339195 	 78.9124
|  8> C 	 -19.2676 	 -0.103637 	 77.408
|  9> C 	 -19.6411 	 0.725578 	 76.3604
| 10> C 	 -20.7206 	 1.64665 	 76.8067
| 11> C 	 -21.0946 	 1.37287 	 78.1172
| 12> H 	 -21.2433 	 2.35417 	 76.1087
| 13> C 	 -19.1747 	 0.694518 	 74.933
| 14> H 	 -20.1276 	 0.882139 	 74.3583
| 15> H 	 -18.7425 	 -0.313764 	 74.6749
| 16> C 	 -18.3052 	 1.80777 	 74.5045
| 17> H 	 -17.4229 	 1.45647 	 74.9381
| 18> H 	 -18.2796 	 1.65568 	 73.4013
| 19> C 	 -18.618 	 3.28785 	 75.0372
| 20> H 	 -19.6004 	 3.68116 	 74.6447
| 21> H 	 -18.5314 	 3.46848 	 76.0585
| 22> H 	 -17.7788 	 3.77434 	 74.5309
| 23> S 	 -21.5504 	 3.15366 	 80.2002
| 24> C 	 -23.1551 	 3.69741 	 80.514
| 25> C 	 -24.016 	 3.23954 	 79.5363
| 26> C 	 -23.4344 	 2.31966 	 78.633
| 27> C 	 -22.0945 	 2.11711 	 78.8408
| 28> H 	 -25.0975 	 3.60736 	 79.4459
| 29> C 	 -24.2347 	 1.67462 	 77.4799
| 30> H 	 -23.6304 	 1.30549 	 76.6729
| 31> H 	 -24.9131 	 2.32273 	 76.9868
| 32> C 	 -24.8909 	 0.369173 	 77.9486
| 33> H 	 -25.3139 	 0.341088 	 78.9186
| 34> H 	 -24.1025 	 -0.440786 	 77.9705
| 35> C 	 -25.9588 	 -0.122567 	 77.0467
| 36> H 	 -27.0412 	 0.104617 	 77.2858
| 37> H 	 -26.097 	 -1.21204 	 77.0514
| 38> H 	 -25.8253 	 0.217041 	 75.9722
| 39> H 	 -18.5196 	 -0.886647 	 77.2316
| 40> H 	 -23.4002 	 4.41283 	 81.3472
| 41> *
| 42>
| 43>                          ****END OF INPUT****

CARTESIAN COORDINATES (ANGSTROEM)
---------------------------------
  S    -19.946100    0.339195   78.912400
  C    -19.267600   -0.103637   77.408000
  C    -19.641100    0.725578   76.360400
  C    -20.720600    1.646650   76.806700
  C    -21.094600    1.372870   78.117200
  H    -21.243300    2.354170   76.108700
  C    -19.174700    0.694518   74.933000
  H    -20.127600    0.882139   74.358300
  H    -18.742500   -0.313764   74.674900
  C    -18.305200    1.807770   74.504500
  H    -17.422900    1.456470   74.938100
  H    -18.279600    1.655680   73.401300
  C    -18.618000    3.287850   75.037200
  H    -19.600400    3.681160   74.644700
  H    -18.531400    3.468480   76.058500
  H    -17.778800    3.774340   74.530900
  S    -21.550400    3.153660   80.200200
  C    -23.155100    3.697410   80.514000
  C    -24.016000    3.239540   79.536300
  C    -23.434400    2.319660   78.633000
  C    -22.094500    2.117110   78.840800
  H    -25.097500    3.607360   79.445900
  C    -24.234700    1.674620   77.479900
  H    -23.630400    1.305490   76.672900
  H    -24.913100    2.322730   76.986800
  C    -24.890900    0.369173   77.948600
  H    -25.313900    0.341088   78.918600
  H    -24.102500   -0.440786   77.970500
  C    -25.958800   -0.122567   77.046700
  H    -27.041200    0.104617   77.285800
  H    -26.097000   -1.212040   77.051400
  H    -25.825300    0.217041   75.972200
  H    -18.519600   -0.886647   77.231600
  H    -23.400200    4.412830   81.347200

 Total Charge           Charge          ....    0
 Multiplicity           Mult            ....    1
 Number of Electrons    NEL             ....  134
 Basis Dimension        Dim             ....  322

ORBITAL ENERGIES
----------------

  NO   OCC          E(Eh)            E(eV)
   0   2.0000     -88.966916     -2420.9129
   1   2.0000     -88.961431     -2420.7636
   2   2.0000     -10.327943      -281.0376
   3   2.0000     -10.323866      -280.9267
   4   2.0000     -10.319897      -280.8187
   5   2.0000     -10.312699      -280.6228
   6   2.0000     -10.303878      -280.3828
   7   2.0000     -10.302543      -280.3464
   8   2.0000     -10.301832      -280.3271
   9   2.0000     -10.297128      -280.1991
  10   2.0000     -10.293414      -280.0980
  11   2.0000     -10.287976      -279.9501
  12   2.0000     -10.286564      -279.9116
  13   2.0000     -10.285559      -279.8843
  14   2.0000     -10.278979      -279.7052
  15   2.0000     -10.278480      -279.6917
  16   2.0000      -8.082586      -219.9383
  17   2.0000      -8.076314      -219.7677
  18   2.0000      -6.041123      -164.3873
  19   2.0000      -6.037113      -164.2782
  20   2.0000      -6.034758      -164.2141
  21   2.0000      -6.033118      -164.1695
  22   2.0000      -6.030836      -164.1074
  23   2.0000      -6.027095      -164.0056
  24   2.0000      -1.007901       -27.4264
  25   2.0000      -0.985074       -26.8052
  26   2.0000      -0.919523       -25.0215
  27   2.0000      -0.910331       -24.7714
  28   2.0000      -0.869764       -23.6675
  29   2.0000      -0.849761       -23.1232
  30   2.0000      -0.840561       -22.8728
  31   2.0000      -0.808970       -22.0132
  32   2.0000      -0.787147       -21.4194
  33   2.0000      -0.774946       -21.0874
  34   2.0000      -0.701584       -19.0911
  35   2.0000      -0.699040       -19.0218
  36   2.0000      -0.691001       -18.8031
  37   2.0000      -0.657592       -17.8940
  38   2.0000      -0.634170       -17.2566
  39   2.0000      -0.613467       -16.6933
  40   2.0000      -0.597951       -16.2711
  41   2.0000      -0.576785       -15.6951
  42   2.0000      -0.554906       -15.0998
  43   2.0000      -0.548305       -14.9201
  44   2.0000      -0.537912       -14.6373
  45   2.0000      -0.525338       -14.2952
  46   2.0000      -0.520577       -14.1656
  47   2.0000      -0.515753       -14.0344
  48   2.0000      -0.500338       -13.6149
  49   2.0000      -0.499930       -13.6038
  50   2.0000      -0.495800       -13.4914
  51   2.0000      -0.478520       -13.0212
  52   2.0000      -0.466388       -12.6911
  53   2.0000      -0.462746       -12.5920
  54   2.0000      -0.456629       -12.4255
  55   2.0000      -0.450410       -12.2563
  56   2.0000      -0.446631       -12.1535
  57   2.0000      -0.433288       -11.7904
  58   2.0000      -0.427934       -11.6447
  59   2.0000      -0.423523       -11.5246
  60   2.0000      -0.417536       -11.3617
  61   2.0000      -0.413974       -11.2648
  62   2.0000      -0.398694       -10.8490
  63   2.0000      -0.343848        -9.3566
  64   2.0000      -0.330742        -8.9999
  65   2.0000      -0.321401        -8.7458
  66   2.0000      -0.295105        -8.0302
  67   0.0000       0.034823         0.9476
  68   0.0000       0.064409         1.7527
  69   0.0000       0.109873         2.9898
  70   0.0000       0.115048         3.1306
  71   0.0000       0.127847         3.4789

MULLIKEN ATOMIC CHARGES
-----------------------
   0 S :    0.125650
   1 C :   -0.107433
   2 C :   -0.119582
   3 C :    0.023039
   4 C :   -0.164569
   5 H :    0.039366
   6 C :    0.033148
   7 H :    0.022387
   8 H :    0.034963
   9 C :   -0.064048
  10 H :    0.007465
  11 H :    0.043614
  12 C :   -0.048746
  13 H :    0.042366
  14 H :    0.048197
  15 H :    0.043414
  16 S :    0.094168
  17 C :   -0.112217
  18 C :   -0.061186
  19 C :   -0.022416
  20 C :   -0.160665
  21 H :    0.044823
  22 C :    0.098214
  23 H :    0.014120
  24 H :    0.018862
  25 C :   -0.059437
  26 H :    0.023218
  27 H :    0.040061
  28 C :   -0.088395
  29 H :    0.029340
  30 H :    0.026979
  31 H :    0.029006
  32 H :    0.045363
  33 H :    0.080931
Sum of atomic charges:   -0.0000000

LOEWDIN ATOMIC CHARGES
----------------------
   0 S :    0.423490
   1 C :   -0.215193
   2 C :   -0.063147
   3 C :   -0.052609
   4 C :   -0.206422
   5 H :    0.039004
   6 C :   -0.045943
   7 H :    0.030597
   8 H :    0.035769
   9 C :   -0.040236
  10 H :    0.015647
  11 H :    0.033631
  12 C :   -0.060185
  13 H :    0.029545
  14 H :    0.021361
  15 H :    0.035223
  16 S :    0.391461
  17 C :   -0.200182
  18 C :   -0.085400
  19 C :   -0.055108
  20 C :   -0.186789
  21 H :    0.044466
  22 C :   -0.022650
  23 H :    0.030170
  24 H :    0.023132
  25 C :   -0.044681
  26 H :    0.019719
  27 H :    0.034499
  28 C :   -0.083071
  29 H :    0.027593
  30 H :    0.026685
  31 H :    0.025733
  32 H :    0.031059
  33 H :    0.042831

  Mayer bond orders larger than 0.100000
B(  0-S ,  1-C ) :   1.1311 B(  0-S ,  4-C ) :   1.1447 B(  1-C ,  2-C ) :   1.6379
B(  1-C , 32-H ) :   0.9624 B(  2-C ,  3-C ) :   1.2085 B(  2-C ,  6-C ) :   1.0258
B(  3-C ,  4-C ) :   1.5817 B(  3-C ,  5-H ) :   0.9793 B(  4-C , 20-C ) :   1.0414
B(  6-C ,  7-H ) :   0.9342 B(  6-C ,  8-H ) :   0.9469 B(  6-C ,  9-C ) :   1.0576
B(  9-C , 10-H ) :   0.9502 B(  9-C , 11-H ) :   0.9572 B(  9-C , 12-C ) :   1.0718
B( 12-C , 13-H ) :   0.9746 B( 12-C , 14-H ) :   0.9695 B( 12-C , 15-H ) :   0.9736
B( 16-S , 17-C ) :   1.1620 B( 16-S , 20-C ) :   1.1316 B( 17-C , 18-C ) :   1.5926
B( 17-C , 20-C ) :   0.1019 B( 17-C , 33-H ) :   0.9620 B( 18-C , 19-C ) :   1.2510
B( 18-C , 21-H ) :   0.9778 B( 19-C , 20-C ) :   1.6251 B( 19-C , 22-C ) :   1.0460
B( 22-C , 23-H ) :   0.9243 B( 22-C , 24-H ) :   0.9483 B( 22-C , 25-C ) :   1.0506
B( 25-C , 26-H ) :   0.9608 B( 25-C , 27-H ) :   0.9581 B( 25-C , 28-C ) :   1.0757
B( 28-C , 29-H ) :   0.9737 B( 28-C , 30-H ) :   0.9713 B( 28-C , 31-H ) :   0.9707

Dispersion correction           -0.014426290
FINAL SINGLE POINT ENERGY     -1339.850895936530

DIPOLE MOMENT
-------------
                                X             Y             Z
Electronic contribution:      7.82788       2.76699      22.03877
Nuclear contribution   :     -7.91626      -2.70453     -22.64688
                        -----------------------------------------
Total Dipole Moment    :     -0.08838       0.06246      -0.60811
                        -----------------------------------------
Magnitude (a.u.)       :      0.61766
Magnitude (Debye)      :      1.56997

Rotational constants in cm-1:     0.017478     0.008859     0.007513
Rotational constants in MHz :   523.989903   265.577154   225.236186

                             ****ORCA TERMINATED NORMALLY****
TOTAL RUN TIME: 0 days 0 hours 0 minutes 33 seconds 718 msec
