                         Program Version 4.2.1 -  RELEASE  -
|  1> ! wB97X-D3 SP def2-SVP
|  2> %pal
|  3> nprocs 16
|  4> end
|  5>
|  6> * xyz 0 1
|  7> S 	 -19.2033 	 -0.0742466 	 79.2224
|  8> C 	 -18.0089 	 -0.0728641 	 77.9531
|  9> C 	 -18.567 	 -0.48048 	 76.7725
| 10> C 	 -19.9778 	 -0.740352 	 76.9625
| 11> C 	 -20.4711 	 -0.598528 	 78.2466
| 12> H 	 -20.7589 	 -1.04059 	 76.2205
| 13> C 	 -17.919 	 -0.536871 	 75.4035
| 14> H 	 -17.0809 	 0.191033 	 75.4175
| 15> H 	 -18.6536 	 -0.146327 	 74.7136
| 16> C 	 -17.4128 	 -1.85503 	 74.8245
| 17> H 	 -18.1912 	 -2.63697 	 74.6564
| 18> H 	 -16.9863 	 -1.65093 	 73.815
| 19> C 	 -16.295 	 -2.48913 	 75.7334
| 20> H 	 -15.4683 	 -1.77129 	 75.9208
| 21> H 	 -16.7926 	 -2.89054 	 76.6628
| 22> H 	 -15.7695 	 -3.3811 	 75.2668
| 23> S 	 -22.5896 	 0.587568 	 79.5353
| 24> C 	 -24.2465 	 -0.110428 	 79.3418
| 25> C 	 -24.1532 	 -1.3845 	 78.8175
| 26> C 	 -22.7998 	 -1.75973 	 78.4924
| 27> C 	 -21.8488 	 -0.7911 	 78.7842
| 28> H 	 -24.9664 	 -1.89708 	 78.4639
| 29> C 	 -22.621 	 -3.01519 	 77.5707
| 30> H 	 -21.5423 	 -3.17187 	 77.4458
| 31> H 	 -23.0448 	 -2.72076 	 76.6237
| 32> C 	 -23.214 	 -4.222 	 78.1699
| 33> H 	 -24.2091 	 -4.16588 	 78.4824
| 34> H 	 -22.6367 	 -4.43813 	 79.1178
| 35> C 	 -23.0052 	 -5.45081 	 77.215
| 36> H 	 -21.9238 	 -5.5013 	 77.2302
| 37> H 	 -23.267 	 -5.13445 	 76.2906
| 38> H 	 -23.4941 	 -6.36607 	 77.5535
| 39> H 	 -16.9977 	 0.378196 	 78.0431
| 40> H 	 -25.2197 	 0.334163 	 79.5748
| 41> *
| 42>
| 43>                          ****END OF INPUT****

CARTESIAN COORDINATES (ANGSTROEM)
---------------------------------
  S    -19.203300   -0.074247   79.222400
  C    -18.008900   -0.072864   77.953100
  C    -18.567000   -0.480480   76.772500
  C    -19.977800   -0.740352   76.962500
  C    -20.471100   -0.598528   78.246600
  H    -20.758900   -1.040590   76.220500
  C    -17.919000   -0.536871   75.403500
  H    -17.080900    0.191033   75.417500
  H    -18.653600   -0.146327   74.713600
  C    -17.412800   -1.855030   74.824500
  H    -18.191200   -2.636970   74.656400
  H    -16.986300   -1.650930   73.815000
  C    -16.295000   -2.489130   75.733400
  H    -15.468300   -1.771290   75.920800
  H    -16.792600   -2.890540   76.662800
  H    -15.769500   -3.381100   75.266800
  S    -22.589600    0.587568   79.535300
  C    -24.246500   -0.110428   79.341800
  C    -24.153200   -1.384500   78.817500
  C    -22.799800   -1.759730   78.492400
  C    -21.848800   -0.791100   78.784200
  H    -24.966400   -1.897080   78.463900
  C    -22.621000   -3.015190   77.570700
  H    -21.542300   -3.171870   77.445800
  H    -23.044800   -2.720760   76.623700
  C    -23.214000   -4.222000   78.169900
  H    -24.209100   -4.165880   78.482400
  H    -22.636700   -4.438130   79.117800
  C    -23.005200   -5.450810   77.215000
  H    -21.923800   -5.501300   77.230200
  H    -23.267000   -5.134450   76.290600
  H    -23.494100   -6.366070   77.553500
  H    -16.997700    0.378196   78.043100
  H    -25.219700    0.334163   79.574800

 Total Charge           Charge          ....    0
 Multiplicity           Mult            ....    1
 Number of Electrons    NEL             ....  134
 Basis Dimension        Dim             ....  322

ORBITAL ENERGIES
----------------

  NO   OCC          E(Eh)            E(eV)
   0   2.0000     -88.967421     -2420.9266
   1   2.0000     -88.962462     -2420.7917
   2   2.0000     -10.331639      -281.1382
   3   2.0000     -10.328159      -281.0435
   4   2.0000     -10.327064      -281.0137
   5   2.0000     -10.316151      -280.7168
   6   2.0000     -10.307089      -280.4701
   7   2.0000     -10.304720      -280.4057
   8   2.0000     -10.296430      -280.1801
   9   2.0000     -10.296308      -280.1768
  10   2.0000     -10.296126      -280.1718
  11   2.0000     -10.292812      -280.0817
  12   2.0000     -10.291954      -280.0583
  13   2.0000     -10.287584      -279.9394
  14   2.0000     -10.281379      -279.7705
  15   2.0000     -10.270799      -279.4826
  16   2.0000      -8.081525      -219.9095
  17   2.0000      -8.078743      -219.8338
  18   2.0000      -6.040316      -164.3654
  19   2.0000      -6.037206      -164.2807
  20   2.0000      -6.036042      -164.2490
  21   2.0000      -6.032815      -164.1612
  22   2.0000      -6.032062      -164.1408
  23   2.0000      -6.029669      -164.0756
  24   2.0000      -1.011475       -27.5236
  25   2.0000      -0.985967       -26.8295
  26   2.0000      -0.917045       -24.9541
  27   2.0000      -0.910307       -24.7707
  28   2.0000      -0.869352       -23.6563
  29   2.0000      -0.847245       -23.0547
  30   2.0000      -0.840768       -22.8784
  31   2.0000      -0.815846       -22.2003
  32   2.0000      -0.781230       -21.2583
  33   2.0000      -0.773967       -21.0607
  34   2.0000      -0.706129       -19.2147
  35   2.0000      -0.699545       -19.0356
  36   2.0000      -0.692286       -18.8381
  37   2.0000      -0.664922       -18.0935
  38   2.0000      -0.641830       -17.4651
  39   2.0000      -0.615905       -16.7596
  40   2.0000      -0.595381       -16.2011
  41   2.0000      -0.573986       -15.6189
  42   2.0000      -0.571020       -15.5382
  43   2.0000      -0.547263       -14.8918
  44   2.0000      -0.540982       -14.7209
  45   2.0000      -0.534982       -14.5576
  46   2.0000      -0.515788       -14.0353
  47   2.0000      -0.514504       -14.0004
  48   2.0000      -0.508139       -13.8272
  49   2.0000      -0.502173       -13.6648
  50   2.0000      -0.488219       -13.2851
  51   2.0000      -0.475147       -12.9294
  52   2.0000      -0.470453       -12.8017
  53   2.0000      -0.461357       -12.5542
  54   2.0000      -0.460110       -12.5202
  55   2.0000      -0.455325       -12.3900
  56   2.0000      -0.443532       -12.0691
  57   2.0000      -0.436253       -11.8710
  58   2.0000      -0.431223       -11.7342
  59   2.0000      -0.423989       -11.5373
  60   2.0000      -0.421305       -11.4643
  61   2.0000      -0.413662       -11.2563
  62   2.0000      -0.406150       -11.0519
  63   2.0000      -0.350481        -9.5371
  64   2.0000      -0.330062        -8.9815
  65   2.0000      -0.327235        -8.9045
  66   2.0000      -0.301434        -8.2024
  67   0.0000       0.033197         0.9033
  68   0.0000       0.070348         1.9143
  69   0.0000       0.108056         2.9404
  70   0.0000       0.118732         3.2309
  71   0.0000       0.123638         3.3644

MULLIKEN ATOMIC CHARGES
-----------------------
   0 S :    0.105124
   1 C :   -0.133543
   2 C :   -0.082082
   3 C :    0.000468
   4 C :   -0.166165
   5 H :    0.020461
   6 C :    0.070319
   7 H :    0.024529
   8 H :    0.029391
   9 C :   -0.072564
  10 H :    0.037336
  11 H :    0.037053
  12 C :   -0.107479
  13 H :    0.034951
  14 H :    0.057816
  15 H :    0.039935
  16 S :    0.098279
  17 C :   -0.095413
  18 C :    0.002415
  19 C :   -0.071725
  20 C :   -0.108755
  21 H :   -0.001182
  22 C :    0.053244
  23 H :    0.031041
  24 H :    0.038016
  25 C :   -0.115737
  26 H :    0.017440
  27 H :    0.036505
  28 C :    0.029141
  29 H :    0.018161
  30 H :   -0.001540
  31 H :    0.043959
  32 H :    0.064532
  33 H :    0.066070
Sum of atomic charges:   -0.0000000

LOEWDIN ATOMIC CHARGES
----------------------
   0 S :    0.433258
   1 C :   -0.204311
   2 C :   -0.067916
   3 C :   -0.077797
   4 C :   -0.218550
   5 H :    0.035058
   6 C :   -0.033532
   7 H :    0.033633
   8 H :    0.033667
   9 C :   -0.044687
  10 H :    0.026820
  11 H :    0.028380
  12 C :   -0.081180
  13 H :    0.023826
  14 H :    0.033716
  15 H :    0.029585
  16 S :    0.392115
  17 C :   -0.163386
  18 C :   -0.061078
  19 C :   -0.048590
  20 C :   -0.208957
  21 H :    0.017412
  22 C :   -0.028316
  23 H :    0.032430
  24 H :    0.027372
  25 C :   -0.040754
  26 H :    0.008581
  27 H :    0.033488
  28 C :   -0.047843
  29 H :    0.027066
  30 H :    0.005928
  31 H :    0.028805
  32 H :    0.039008
  33 H :    0.036749

  Mayer bond orders larger than 0.100000
B(  0-S ,  1-C ) :   1.1499 B(  0-S ,  4-C ) :   1.1759 B(  1-C ,  2-C ) :   1.6002
B(  1-C , 32-H ) :   0.9641 B(  2-C ,  3-C ) :   1.2377 B(  2-C ,  6-C ) :   1.0165
B(  3-C ,  4-C ) :   1.5826 B(  3-C ,  5-H ) :   0.9888 B(  4-C , 20-C ) :   0.9856
B(  6-C ,  7-H ) :   0.9419 B(  6-C ,  8-H ) :   0.9375 B(  6-C ,  9-C ) :   1.0774
B(  9-C , 10-H ) :   0.9568 B(  9-C , 11-H ) :   0.9541 B(  9-C , 12-C ) :   1.0652
B( 12-C , 13-H ) :   0.9767 B( 12-C , 14-H ) :   0.9745 B( 12-C , 15-H ) :   0.9760
B( 16-S , 17-C ) :   1.1416 B( 16-S , 20-C ) :   1.1314 B( 17-C , 18-C ) :   1.6290
B( 17-C , 33-H ) :   0.9650 B( 18-C , 19-C ) :   1.2296 B( 18-C , 21-H ) :   0.9949
B( 19-C , 20-C ) :   1.6295 B( 19-C , 22-C ) :   1.0286 B( 22-C , 23-H ) :   0.9357
B( 22-C , 24-H ) :   0.9372 B( 22-C , 25-C ) :   1.0630 B( 25-C , 26-H ) :   0.9613
B( 25-C , 27-H ) :   0.9562 B( 25-C , 28-C ) :   1.0662 B( 28-C , 29-H ) :   0.9760
B( 28-C , 30-H ) :   0.9738 B( 28-C , 31-H ) :   0.9749

Dispersion correction           -0.013767003
FINAL SINGLE POINT ENERGY     -1339.867196257503

DIPOLE MOMENT
-------------
                                X             Y             Z
Electronic contribution:     -6.52343      21.89927      18.66406
Nuclear contribution   :      6.32722     -22.19466     -19.38157
                        -----------------------------------------
Total Dipole Moment    :     -0.19621      -0.29540      -0.71751
                        -----------------------------------------
Magnitude (a.u.)       :      0.80036
Magnitude (Debye)      :      2.03435

Rotational constants in cm-1:     0.017400     0.008757     0.006388
Rotational constants in MHz :   521.651863   262.524038   191.511412

                             ****ORCA TERMINATED NORMALLY****
TOTAL RUN TIME: 0 days 0 hours 0 minutes 32 seconds 774 msec
