                         Program Version 4.2.1 -  RELEASE  -
|  1> ! wB97X-D3 SP def2-SVP
|  2> %pal
|  3> nprocs 16
|  4> end
|  5>
|  6> * xyz 0 1
|  7> S 	 49.9471 	 11.7174 	 78.6415
|  8> C 	 48.8458 	 10.4213 	 78.8964
|  9> C 	 47.8884 	 10.6623 	 79.8879
| 10> C 	 48.1061 	 11.9461 	 80.4452
| 11> C 	 49.0868 	 12.661 	 79.8534
| 12> H 	 47.5935 	 12.5328 	 81.1823
| 13> C 	 46.9107 	 9.60542 	 80.3902
| 14> H 	 47.2097 	 8.65032 	 79.9579
| 15> H 	 45.9404 	 9.83656 	 79.9378
| 16> C 	 46.9232 	 9.46054 	 81.8493
| 17> H 	 47.9821 	 9.15451 	 82.1632
| 18> H 	 46.8017 	 10.4162 	 82.3854
| 19> C 	 45.7748 	 8.48442 	 82.2795
| 20> H 	 45.6617 	 8.3783 	 83.3221
| 21> H 	 44.7717 	 8.70135 	 81.9067
| 22> H 	 45.8986 	 7.52206 	 81.8826
| 23> S 	 50.9153 	 14.5632 	 80.8499
| 24> C 	 50.5235 	 16.2918 	 80.6335
| 25> C 	 49.3527 	 16.4264 	 79.9011
| 26> C 	 48.754 	 15.2008 	 79.5363
| 27> C 	 49.4245 	 14.1141 	 80.0241
| 28> H 	 48.9873 	 17.4023 	 79.5266
| 29> C 	 47.5252 	 15.1311 	 78.6449
| 30> H 	 47.5188 	 14.1197 	 78.1979
| 31> H 	 47.6584 	 15.7499 	 77.7951
| 32> C 	 46.1962 	 15.449 	 79.2478
| 33> H 	 46.2213 	 16.3736 	 79.7293
| 34> H 	 46.0797 	 14.6452 	 80.0349
| 35> C 	 45.0696 	 15.2884 	 78.2095
| 36> H 	 45.2326 	 16.014 	 77.4126
| 37> H 	 44.1661 	 15.5818 	 78.6544
| 38> H 	 44.9033 	 14.2596 	 77.8263
| 39> H 	 48.9961 	 9.44739 	 78.5082
| 40> H 	 51.1834 	 17.0876 	 80.9456
| 41> *
| 42>
| 43>                          ****END OF INPUT****

CARTESIAN COORDINATES (ANGSTROEM)
---------------------------------
  S     49.947100   11.717400   78.641500
  C     48.845800   10.421300   78.896400
  C     47.888400   10.662300   79.887900
  C     48.106100   11.946100   80.445200
  C     49.086800   12.661000   79.853400
  H     47.593500   12.532800   81.182300
  C     46.910700    9.605420   80.390200
  H     47.209700    8.650320   79.957900
  H     45.940400    9.836560   79.937800
  C     46.923200    9.460540   81.849300
  H     47.982100    9.154510   82.163200
  H     46.801700   10.416200   82.385400
  C     45.774800    8.484420   82.279500
  H     45.661700    8.378300   83.322100
  H     44.771700    8.701350   81.906700
  H     45.898600    7.522060   81.882600
  S     50.915300   14.563200   80.849900
  C     50.523500   16.291800   80.633500
  C     49.352700   16.426400   79.901100
  C     48.754000   15.200800   79.536300
  C     49.424500   14.114100   80.024100
  H     48.987300   17.402300   79.526600
  C     47.525200   15.131100   78.644900
  H     47.518800   14.119700   78.197900
  H     47.658400   15.749900   77.795100
  C     46.196200   15.449000   79.247800
  H     46.221300   16.373600   79.729300
  H     46.079700   14.645200   80.034900
  C     45.069600   15.288400   78.209500
  H     45.232600   16.014000   77.412600
  H     44.166100   15.581800   78.654400
  H     44.903300   14.259600   77.826300
  H     48.996100    9.447390   78.508200
  H     51.183400   17.087600   80.945600

 Total Charge           Charge          ....    0
 Multiplicity           Mult            ....    1
 Number of Electrons    NEL             ....  134
 Basis Dimension        Dim             ....  322

ORBITAL ENERGIES
----------------

  NO   OCC          E(Eh)            E(eV)
   0   2.0000     -88.965011     -2420.8610
   1   2.0000     -88.964198     -2420.8389
   2   2.0000     -10.325118      -280.9607
   3   2.0000     -10.324735      -280.9503
   4   2.0000     -10.321915      -280.8736
   5   2.0000     -10.309256      -280.5291
   6   2.0000     -10.301247      -280.3112
   7   2.0000     -10.297639      -280.2130
   8   2.0000     -10.295978      -280.1678
   9   2.0000     -10.293526      -280.1011
  10   2.0000     -10.290474      -280.0180
  11   2.0000     -10.290031      -280.0060
  12   2.0000     -10.281822      -279.7826
  13   2.0000     -10.281044      -279.7614
  14   2.0000     -10.276075      -279.6262
  15   2.0000     -10.273157      -279.5468
  16   2.0000      -8.079393      -219.8514
  17   2.0000      -8.079082      -219.8430
  18   2.0000      -6.037703      -164.2943
  19   2.0000      -6.037607      -164.2916
  20   2.0000      -6.033830      -164.1889
  21   2.0000      -6.033728      -164.1861
  22   2.0000      -6.030341      -164.0939
  23   2.0000      -6.029830      -164.0800
  24   2.0000      -1.005964       -27.3737
  25   2.0000      -0.984641       -26.7934
  26   2.0000      -0.917851       -24.9760
  27   2.0000      -0.912392       -24.8274
  28   2.0000      -0.864490       -23.5240
  29   2.0000      -0.850469       -23.1424
  30   2.0000      -0.848218       -23.0812
  31   2.0000      -0.816987       -22.2313
  32   2.0000      -0.784163       -21.3382
  33   2.0000      -0.773194       -21.0397
  34   2.0000      -0.709385       -19.3033
  35   2.0000      -0.699444       -19.0329
  36   2.0000      -0.689333       -18.7577
  37   2.0000      -0.660602       -17.9759
  38   2.0000      -0.651502       -17.7283
  39   2.0000      -0.617929       -16.8147
  40   2.0000      -0.599380       -16.3099
  41   2.0000      -0.570050       -15.5119
  42   2.0000      -0.566551       -15.4166
  43   2.0000      -0.560541       -15.2531
  44   2.0000      -0.526686       -14.3319
  45   2.0000      -0.524128       -14.2622
  46   2.0000      -0.512847       -13.9553
  47   2.0000      -0.509233       -13.8569
  48   2.0000      -0.508159       -13.8277
  49   2.0000      -0.495027       -13.4704
  50   2.0000      -0.491636       -13.3781
  51   2.0000      -0.476005       -12.9527
  52   2.0000      -0.472764       -12.8646
  53   2.0000      -0.467592       -12.7238
  54   2.0000      -0.460441       -12.5292
  55   2.0000      -0.449699       -12.2369
  56   2.0000      -0.447051       -12.1649
  57   2.0000      -0.442804       -12.0493
  58   2.0000      -0.436622       -11.8811
  59   2.0000      -0.422243       -11.4898
  60   2.0000      -0.419991       -11.4285
  61   2.0000      -0.415707       -11.3120
  62   2.0000      -0.412604       -11.2275
  63   2.0000      -0.340506        -9.2657
  64   2.0000      -0.332236        -9.0406
  65   2.0000      -0.323716        -8.8088
  66   2.0000      -0.307022        -8.3545
  67   0.0000       0.043269         1.1774
  68   0.0000       0.059810         1.6275
  69   0.0000       0.114247         3.1088
  70   0.0000       0.127079         3.4580
  71   0.0000       0.132075         3.5939

MULLIKEN ATOMIC CHARGES
-----------------------
   0 S :    0.121737
   1 C :   -0.101385
   2 C :   -0.093778
   3 C :    0.056122
   4 C :   -0.200638
   5 H :    0.004832
   6 C :    0.103231
   7 H :    0.010720
   8 H :    0.036586
   9 C :   -0.112265
  10 H :    0.044036
  11 H :    0.038062
  12 C :   -0.001418
  13 H :    0.024155
  14 H :    0.018733
  15 H :    0.008687
  16 S :    0.099976
  17 C :   -0.100274
  18 C :   -0.025642
  19 C :   -0.006592
  20 C :   -0.195207
  21 H :    0.027094
  22 C :    0.073157
  23 H :    0.026434
  24 H :    0.004237
  25 C :   -0.062354
  26 H :    0.015429
  27 H :    0.024296
  28 C :   -0.016024
  29 H :    0.024412
  30 H :    0.016028
  31 H :    0.044223
  32 H :    0.032071
  33 H :    0.061318
Sum of atomic charges:    0.0000000

LOEWDIN ATOMIC CHARGES
----------------------
   0 S :    0.411265
   1 C :   -0.198878
   2 C :   -0.061153
   3 C :   -0.062675
   4 C :   -0.190557
   5 H :    0.032281
   6 C :   -0.031838
   7 H :    0.029719
   8 H :    0.032898
   9 C :   -0.043355
  10 H :    0.036959
  11 H :    0.023996
  12 C :   -0.061034
  13 H :    0.020424
  14 H :    0.028152
  15 H :    0.018180
  16 S :    0.385641
  17 C :   -0.171283
  18 C :   -0.072021
  19 C :   -0.057291
  20 C :   -0.200656
  21 H :    0.036090
  22 C :   -0.032625
  23 H :    0.034557
  24 H :    0.021159
  25 C :   -0.034973
  26 H :    0.014425
  27 H :    0.028104
  28 C :   -0.058713
  29 H :    0.024499
  30 H :    0.018736
  31 H :    0.033405
  32 H :    0.017586
  33 H :    0.028975

  Mayer bond orders larger than 0.100000
B(  0-S ,  1-C ) :   1.1556 B(  0-S ,  4-C ) :   1.1501 B(  1-C ,  2-C ) :   1.6157
B(  1-C , 32-H ) :   0.9667 B(  2-C ,  3-C ) :   1.2087 B(  2-C ,  6-C ) :   1.0103
B(  3-C ,  4-C ) :   1.6331 B(  3-C ,  5-H ) :   0.9931 B(  4-C , 20-C ) :   0.9795
B(  6-C ,  7-H ) :   0.9394 B(  6-C ,  8-H ) :   0.9322 B(  6-C ,  9-C ) :   1.0684
B(  9-C , 10-H ) :   0.9532 B(  9-C , 11-H ) :   0.9556 B(  9-C , 12-C ) :   1.0701
B( 12-C , 13-H ) :   0.9752 B( 12-C , 14-H ) :   0.9736 B( 12-C , 15-H ) :   0.9721
B( 16-S , 17-C ) :   1.1498 B( 16-S , 20-C ) :   1.1406 B( 17-C , 18-C ) :   1.6002
B( 17-C , 33-H ) :   0.9708 B( 18-C , 19-C ) :   1.2488 B( 18-C , 21-H ) :   0.9822
B( 19-C , 20-C ) :   1.6244 B( 19-C , 22-C ) :   1.0353 B( 22-C , 23-H ) :   0.9268
B( 22-C , 24-H ) :   0.9306 B( 22-C , 25-C ) :   1.0693 B( 25-C , 26-H ) :   0.9558
B( 25-C , 27-H ) :   0.9493 B( 25-C , 28-C ) :   1.0866 B( 28-C , 29-H ) :   0.9724
B( 28-C , 30-H ) :   0.9721 B( 28-C , 31-H ) :   0.9742

Dispersion correction           -0.014221056
FINAL SINGLE POINT ENERGY     -1339.883195755593

DIPOLE MOMENT
-------------
                                X             Y             Z
Electronic contribution:     27.16696       6.99889      -2.48107
Nuclear contribution   :    -27.75840      -6.99453       2.46425
                        -----------------------------------------
Total Dipole Moment    :     -0.59144       0.00437      -0.01682
                        -----------------------------------------
Magnitude (a.u.)       :      0.59170
Magnitude (Debye)      :      1.50397

Rotational constants in cm-1:     0.017275     0.008393     0.006929
Rotational constants in MHz :   517.881208   251.626031   207.734449

                             ****ORCA TERMINATED NORMALLY****
TOTAL RUN TIME: 0 days 0 hours 0 minutes 29 seconds 642 msec
