                         Program Version 4.2.1 -  RELEASE  -
|  1> ! wB97X-D3 SP def2-SVP
|  2> %pal
|  3> nprocs 16
|  4> end
|  5>
|  6> * xyz 0 1
|  7> S 	 -30.039 	 61.4257 	 111.042
|  8> C 	 -29.8441 	 59.8339 	 110.306
|  9> C 	 -30.0507 	 58.8262 	 111.226
| 10> C 	 -30.1919 	 59.3176 	 112.54
| 11> C 	 -30.2667 	 60.6862 	 112.609
| 12> H 	 -30.3122 	 58.685 	 113.379
| 13> C 	 -30.1139 	 57.4055 	 110.833
| 14> H 	 -29.7388 	 57.264 	 109.774
| 15> H 	 -31.0802 	 56.964 	 111.004
| 16> C 	 -29.2464 	 56.4586 	 111.714
| 17> H 	 -29.5406 	 56.592 	 112.77
| 18> H 	 -29.4128 	 55.4449 	 111.468
| 19> C 	 -27.7231 	 56.7238 	 111.76
| 20> H 	 -27.4663 	 57.7131 	 112.16
| 21> H 	 -27.2328 	 55.9975 	 112.463
| 22> H 	 -27.1767 	 56.6132 	 110.811
| 23> S 	 -31.955 	 62.4251 	 113.91
| 24> C 	 -31.449 	 63.0525 	 115.541
| 25> C 	 -30.2264 	 62.5935 	 115.871
| 26> C 	 -29.6324 	 61.7422 	 114.885
| 27> C 	 -30.4426 	 61.5622 	 113.741
| 28> H 	 -29.8167 	 62.8442 	 116.849
| 29> C 	 -28.3079 	 61.0148 	 115.092
| 30> H 	 -27.8398 	 60.8638 	 114.172
| 31> H 	 -28.6689 	 60.0792 	 115.552
| 32> C 	 -27.3006 	 61.6376 	 116.085
| 33> H 	 -27.6655 	 61.3951 	 117.104
| 34> H 	 -27.357 	 62.7379 	 115.887
| 35> C 	 -25.9235 	 61.0831 	 116.004
| 36> H 	 -25.4177 	 61.2509 	 115.061
| 37> H 	 -25.9076 	 60.0001 	 116.073
| 38> H 	 -25.2215 	 61.4781 	 116.746
| 39> H 	 -29.5264 	 59.6591 	 109.333
| 40> H 	 -32.0038 	 63.7389 	 116.216
| 41> *
| 42>
| 43>                          ****END OF INPUT****

CARTESIAN COORDINATES (ANGSTROEM)
---------------------------------
  S    -30.039000   61.425700  111.042000
  C    -29.844100   59.833900  110.306000
  C    -30.050700   58.826200  111.226000
  C    -30.191900   59.317600  112.540000
  C    -30.266700   60.686200  112.609000
  H    -30.312200   58.685000  113.379000
  C    -30.113900   57.405500  110.833000
  H    -29.738800   57.264000  109.774000
  H    -31.080200   56.964000  111.004000
  C    -29.246400   56.458600  111.714000
  H    -29.540600   56.592000  112.770000
  H    -29.412800   55.444900  111.468000
  C    -27.723100   56.723800  111.760000
  H    -27.466300   57.713100  112.160000
  H    -27.232800   55.997500  112.463000
  H    -27.176700   56.613200  110.811000
  S    -31.955000   62.425100  113.910000
  C    -31.449000   63.052500  115.541000
  C    -30.226400   62.593500  115.871000
  C    -29.632400   61.742200  114.885000
  C    -30.442600   61.562200  113.741000
  H    -29.816700   62.844200  116.849000
  C    -28.307900   61.014800  115.092000
  H    -27.839800   60.863800  114.172000
  H    -28.668900   60.079200  115.552000
  C    -27.300600   61.637600  116.085000
  H    -27.665500   61.395100  117.104000
  H    -27.357000   62.737900  115.887000
  C    -25.923500   61.083100  116.004000
  H    -25.417700   61.250900  115.061000
  H    -25.907600   60.000100  116.073000
  H    -25.221500   61.478100  116.746000
  H    -29.526400   59.659100  109.333000
  H    -32.003800   63.738900  116.216000

 Total Charge           Charge          ....    0
 Multiplicity           Mult            ....    1
 Number of Electrons    NEL             ....  134
 Basis Dimension        Dim             ....  322

ORBITAL ENERGIES
----------------

  NO   OCC          E(Eh)            E(eV)
   0   2.0000     -88.965138     -2420.8645
   1   2.0000     -88.964424     -2420.8451
   2   2.0000     -10.327939      -281.0375
   3   2.0000     -10.324513      -280.9443
   4   2.0000     -10.320971      -280.8479
   5   2.0000     -10.308928      -280.5202
   6   2.0000     -10.305767      -280.4342
   7   2.0000     -10.296715      -280.1879
   8   2.0000     -10.295147      -280.1452
   9   2.0000     -10.292149      -280.0636
  10   2.0000     -10.291678      -280.0508
  11   2.0000     -10.290148      -280.0092
  12   2.0000     -10.287463      -279.9361
  13   2.0000     -10.286973      -279.9228
  14   2.0000     -10.280170      -279.7377
  15   2.0000     -10.275836      -279.6197
  16   2.0000      -8.079856      -219.8641
  17   2.0000      -8.078108      -219.8165
  18   2.0000      -6.038297      -164.3104
  19   2.0000      -6.036815      -164.2701
  20   2.0000      -6.034367      -164.2035
  21   2.0000      -6.032758      -164.1597
  22   2.0000      -6.030685      -164.1033
  23   2.0000      -6.028703      -164.0494
  24   2.0000      -1.006336       -27.3838
  25   2.0000      -0.981142       -26.6982
  26   2.0000      -0.914009       -24.8714
  27   2.0000      -0.909807       -24.7571
  28   2.0000      -0.871296       -23.7092
  29   2.0000      -0.849295       -23.1105
  30   2.0000      -0.845138       -22.9974
  31   2.0000      -0.821382       -22.3509
  32   2.0000      -0.784819       -21.3560
  33   2.0000      -0.769303       -20.9338
  34   2.0000      -0.712275       -19.3820
  35   2.0000      -0.698724       -19.0132
  36   2.0000      -0.693196       -18.8628
  37   2.0000      -0.647972       -17.6322
  38   2.0000      -0.643693       -17.5158
  39   2.0000      -0.628077       -17.0908
  40   2.0000      -0.592420       -16.1206
  41   2.0000      -0.576582       -15.6896
  42   2.0000      -0.569812       -15.5054
  43   2.0000      -0.551498       -15.0070
  44   2.0000      -0.542082       -14.7508
  45   2.0000      -0.523833       -14.2542
  46   2.0000      -0.520583       -14.1658
  47   2.0000      -0.518935       -14.1209
  48   2.0000      -0.500870       -13.6294
  49   2.0000      -0.497505       -13.5378
  50   2.0000      -0.488810       -13.3012
  51   2.0000      -0.486623       -13.2417
  52   2.0000      -0.471675       -12.8349
  53   2.0000      -0.462809       -12.5937
  54   2.0000      -0.458905       -12.4875
  55   2.0000      -0.453064       -12.3285
  56   2.0000      -0.447515       -12.1775
  57   2.0000      -0.432474       -11.7682
  58   2.0000      -0.425600       -11.5812
  59   2.0000      -0.424861       -11.5611
  60   2.0000      -0.418720       -11.3940
  61   2.0000      -0.417075       -11.3492
  62   2.0000      -0.415392       -11.3034
  63   2.0000      -0.344598        -9.3770
  64   2.0000      -0.332487        -9.0474
  65   2.0000      -0.322932        -8.7874
  66   2.0000      -0.296186        -8.0596
  67   0.0000       0.037667         1.0250
  68   0.0000       0.059462         1.6181
  69   0.0000       0.112939         3.0732
  70   0.0000       0.123598         3.3633
  71   0.0000       0.127371         3.4659

MULLIKEN ATOMIC CHARGES
-----------------------
   0 S :    0.115476
   1 C :   -0.104236
   2 C :   -0.074544
   3 C :    0.061284
   4 C :   -0.178143
   5 H :   -0.005356
   6 C :    0.090940
   7 H :    0.031043
   8 H :    0.040703
   9 C :   -0.098983
  10 H :    0.025179
  11 H :    0.024469
  12 C :   -0.078419
  13 H :    0.037358
  14 H :    0.034178
  15 H :    0.030223
  16 S :    0.100859
  17 C :   -0.097610
  18 C :   -0.038785
  19 C :   -0.047251
  20 C :   -0.162929
  21 H :    0.024582
  22 C :    0.094864
  23 H :    0.024423
  24 H :    0.038741
  25 C :   -0.105014
  26 H :    0.032094
  27 H :    0.044837
  28 C :   -0.024164
  29 H :    0.021391
  30 H :    0.021271
  31 H :    0.036205
  32 H :    0.020776
  33 H :    0.064539
Sum of atomic charges:   -0.0000000

LOEWDIN ATOMIC CHARGES
----------------------
   0 S :    0.406459
   1 C :   -0.179515
   2 C :   -0.064462
   3 C :   -0.052417
   4 C :   -0.191860
   5 H :    0.025975
   6 C :   -0.029204
   7 H :    0.037038
   8 H :    0.036298
   9 C :   -0.041075
  10 H :    0.023357
  11 H :    0.018242
  12 C :   -0.075667
  13 H :    0.024684
  14 H :    0.030700
  15 H :    0.021542
  16 S :    0.379283
  17 C :   -0.169174
  18 C :   -0.078243
  19 C :   -0.049782
  20 C :   -0.213943
  21 H :    0.035941
  22 C :   -0.026862
  23 H :    0.021853
  24 H :    0.039048
  25 C :   -0.048168
  26 H :    0.026469
  27 H :    0.029568
  28 C :   -0.068674
  29 H :    0.023347
  30 H :    0.025418
  31 H :    0.030403
  32 H :    0.013661
  33 H :    0.039759

  Mayer bond orders larger than 0.100000
B(  0-S ,  1-C ) :   1.1369 B(  0-S ,  4-C ) :   1.1623 B(  1-C ,  2-C ) :   1.6032
B(  1-C ,  4-C ) :   0.1015 B(  1-C , 32-H ) :   0.9766 B(  2-C ,  3-C ) :   1.2317
B(  2-C ,  6-C ) :   1.0396 B(  3-C ,  4-C ) :   1.5807 B(  3-C ,  5-H ) :   1.0049
B(  4-C , 20-C ) :   1.0167 B(  6-C ,  7-H ) :   0.9433 B(  6-C ,  8-H ) :   0.9316
B(  6-C ,  9-C ) :   1.0633 B(  9-C , 10-H ) :   0.9537 B(  9-C , 11-H ) :   0.9590
B(  9-C , 12-C ) :   1.0738 B( 12-C , 13-H ) :   0.9735 B( 12-C , 14-H ) :   0.9743
B( 12-C , 15-H ) :   0.9768 B( 16-S , 17-C ) :   1.1295 B( 16-S , 20-C ) :   1.1363
B( 17-C , 18-C ) :   1.6450 B( 17-C , 33-H ) :   0.9580 B( 18-C , 19-C ) :   1.2251
B( 18-C , 21-H ) :   0.9846 B( 19-C , 20-C ) :   1.6044 B( 19-C , 22-C ) :   1.0338
B( 22-C , 23-H ) :   0.9386 B( 22-C , 24-H ) :   0.9216 B( 22-C , 25-C ) :   1.0743
B( 25-C , 26-H ) :   0.9432 B( 25-C , 27-H ) :   0.9604 B( 25-C , 28-C ) :   1.0990
B( 28-C , 29-H ) :   0.9702 B( 28-C , 30-H ) :   0.9677 B( 28-C , 31-H ) :   0.9708

Dispersion correction           -0.014242406
FINAL SINGLE POINT ENERGY     -1339.883971104967

DIPOLE MOMENT
-------------
                                X             Y             Z
Electronic contribution:    -21.35996      18.71696      -8.05664
Nuclear contribution   :     21.76975     -19.26782       8.43878
                        -----------------------------------------
Total Dipole Moment    :      0.40979      -0.55086       0.38214
                        -----------------------------------------
Magnitude (a.u.)       :      0.78575
Magnitude (Debye)      :      1.99723

Rotational constants in cm-1:     0.016445     0.009438     0.006928
Rotational constants in MHz :   493.004559   282.950800   207.686447

                             ****ORCA TERMINATED NORMALLY****
TOTAL RUN TIME: 0 days 0 hours 0 minutes 30 seconds 403 msec
