                         Program Version 4.2.1 -  RELEASE  -
|  1> ! wB97X-D3 SP def2-SVP
|  2> %pal
|  3> nprocs 16
|  4> end
|  5>
|  6> * xyz 0 1
|  7> S 	 10.5919 	 -2.09896 	 84.6865
|  8> C 	 11.9765 	 -1.04947 	 84.5262
|  9> C 	 11.67 	 0.139748 	 83.9024
| 10> C 	 10.2661 	 0.215425 	 83.628
| 11> C 	 9.64572 	 -0.915868 	 83.8444
| 12> H 	 9.76928 	 0.990359 	 83.105
| 13> C 	 12.6889 	 1.17536 	 83.4685
| 14> H 	 13.6615 	 0.65901 	 83.448
| 15> H 	 12.7994 	 1.95616 	 84.2587
| 16> C 	 12.4806 	 1.84187 	 82.0686
| 17> H 	 11.5154 	 2.22709 	 82.1086
| 18> H 	 13.3032 	 2.53181 	 81.842
| 19> C 	 12.5178 	 0.824514 	 80.9292
| 20> H 	 13.4666 	 0.303933 	 80.8188
| 21> H 	 11.6716 	 0.100434 	 81.0657
| 22> H 	 12.2987 	 1.44576 	 80.0526
| 23> S 	 7.33373 	 -2.08419 	 84.5444
| 24> C 	 5.94458 	 -1.9765 	 83.5264
| 25> C 	 6.27596 	 -1.41025 	 82.2868
| 26> C 	 7.62432 	 -0.922386 	 82.2241
| 27> C 	 8.26473 	 -1.17262 	 83.4253
| 28> H 	 5.54826 	 -1.46394 	 81.4931
| 29> C 	 8.12728 	 -0.232291 	 81.02
| 30> H 	 7.91709 	 -0.850347 	 80.1037
| 31> H 	 9.23563 	 -0.321002 	 80.9824
| 32> C 	 7.65976 	 1.20833 	 80.9186
| 33> H 	 7.91042 	 1.8028 	 81.7576
| 34> H 	 6.61628 	 1.01602 	 80.9493
| 35> C 	 8.03663 	 1.82738 	 79.5721
| 36> H 	 9.13687 	 2.03409 	 79.6498
| 37> H 	 7.52791 	 2.77528 	 79.5847
| 38> H 	 7.85478 	 1.30062 	 78.6464
| 39> H 	 12.9831 	 -1.40583 	 84.6164
| 40> H 	 4.89142 	 -2.28569 	 83.688
| 41> *
| 42>
| 43>                          ****END OF INPUT****

CARTESIAN COORDINATES (ANGSTROEM)
---------------------------------
  S     10.591900   -2.098960   84.686500
  C     11.976500   -1.049470   84.526200
  C     11.670000    0.139748   83.902400
  C     10.266100    0.215425   83.628000
  C      9.645720   -0.915868   83.844400
  H      9.769280    0.990359   83.105000
  C     12.688900    1.175360   83.468500
  H     13.661500    0.659010   83.448000
  H     12.799400    1.956160   84.258700
  C     12.480600    1.841870   82.068600
  H     11.515400    2.227090   82.108600
  H     13.303200    2.531810   81.842000
  C     12.517800    0.824514   80.929200
  H     13.466600    0.303933   80.818800
  H     11.671600    0.100434   81.065700
  H     12.298700    1.445760   80.052600
  S      7.333730   -2.084190   84.544400
  C      5.944580   -1.976500   83.526400
  C      6.275960   -1.410250   82.286800
  C      7.624320   -0.922386   82.224100
  C      8.264730   -1.172620   83.425300
  H      5.548260   -1.463940   81.493100
  C      8.127280   -0.232291   81.020000
  H      7.917090   -0.850347   80.103700
  H      9.235630   -0.321002   80.982400
  C      7.659760    1.208330   80.918600
  H      7.910420    1.802800   81.757600
  H      6.616280    1.016020   80.949300
  C      8.036630    1.827380   79.572100
  H      9.136870    2.034090   79.649800
  H      7.527910    2.775280   79.584700
  H      7.854780    1.300620   78.646400
  H     12.983100   -1.405830   84.616400
  H      4.891420   -2.285690   83.688000

 Total Charge           Charge          ....    0
 Multiplicity           Mult            ....    1
 Number of Electrons    NEL             ....  134
 Basis Dimension        Dim             ....  322

ORBITAL ENERGIES
----------------

  NO   OCC          E(Eh)            E(eV)
   0   2.0000     -88.967558     -2420.9303
   1   2.0000     -88.964112     -2420.8366
   2   2.0000     -10.322704      -280.8951
   3   2.0000     -10.319389      -280.8048
   4   2.0000     -10.317193      -280.7451
   5   2.0000     -10.307785      -280.4891
   6   2.0000     -10.300602      -280.2936
   7   2.0000     -10.300556      -280.2924
   8   2.0000     -10.294788      -280.1354
   9   2.0000     -10.293037      -280.0878
  10   2.0000     -10.291938      -280.0579
  11   2.0000     -10.286190      -279.9015
  12   2.0000     -10.283009      -279.8149
  13   2.0000     -10.281352      -279.7698
  14   2.0000     -10.281349      -279.7697
  15   2.0000     -10.279174      -279.7106
  16   2.0000      -8.083139      -219.9534
  17   2.0000      -8.079644      -219.8583
  18   2.0000      -6.041577      -164.3997
  19   2.0000      -6.038183      -164.3073
  20   2.0000      -6.037520      -164.2893
  21   2.0000      -6.034262      -164.2006
  22   2.0000      -6.033948      -164.1921
  23   2.0000      -6.030109      -164.0876
  24   2.0000      -1.016776       -27.6679
  25   2.0000      -0.990314       -26.9478
  26   2.0000      -0.920378       -25.0448
  27   2.0000      -0.911215       -24.7954
  28   2.0000      -0.871397       -23.7119
  29   2.0000      -0.858847       -23.3704
  30   2.0000      -0.848189       -23.0804
  31   2.0000      -0.818462       -22.2715
  32   2.0000      -0.782826       -21.3018
  33   2.0000      -0.770512       -20.9667
  34   2.0000      -0.709356       -19.3026
  35   2.0000      -0.700489       -19.0613
  36   2.0000      -0.689885       -18.7727
  37   2.0000      -0.663150       -18.0452
  38   2.0000      -0.641375       -17.4527
  39   2.0000      -0.630451       -17.1555
  40   2.0000      -0.597627       -16.2623
  41   2.0000      -0.571532       -15.5522
  42   2.0000      -0.567127       -15.4323
  43   2.0000      -0.548373       -14.9220
  44   2.0000      -0.547015       -14.8850
  45   2.0000      -0.532391       -14.4871
  46   2.0000      -0.519106       -14.1256
  47   2.0000      -0.513206       -13.9650
  48   2.0000      -0.507582       -13.8120
  49   2.0000      -0.498181       -13.5562
  50   2.0000      -0.493377       -13.4255
  51   2.0000      -0.485225       -13.2036
  52   2.0000      -0.471588       -12.8326
  53   2.0000      -0.464276       -12.6336
  54   2.0000      -0.461156       -12.5487
  55   2.0000      -0.452955       -12.3255
  56   2.0000      -0.449775       -12.2390
  57   2.0000      -0.439026       -11.9465
  58   2.0000      -0.432579       -11.7711
  59   2.0000      -0.426808       -11.6140
  60   2.0000      -0.423384       -11.5209
  61   2.0000      -0.417021       -11.3477
  62   2.0000      -0.407913       -11.0999
  63   2.0000      -0.352695        -9.5973
  64   2.0000      -0.333148        -9.0654
  65   2.0000      -0.329670        -8.9708
  66   2.0000      -0.288722        -7.8565
  67   0.0000       0.035776         0.9735
  68   0.0000       0.074028         2.0144
  69   0.0000       0.104280         2.8376
  70   0.0000       0.115442         3.1413
  71   0.0000       0.124202         3.3797

MULLIKEN ATOMIC CHARGES
-----------------------
   0 S :    0.106116
   1 C :   -0.109019
   2 C :   -0.094666
   3 C :    0.011737
   4 C :   -0.097598
   5 H :   -0.022454
   6 C :    0.058771
   7 H :    0.011113
   8 H :    0.050104
   9 C :   -0.066293
  10 H :    0.020625
  11 H :    0.042004
  12 C :   -0.082065
  13 H :    0.037384
  14 H :    0.054237
  15 H :    0.036005
  16 S :    0.118922
  17 C :   -0.096305
  18 C :   -0.056291
  19 C :   -0.020304
  20 C :   -0.166006
  21 H :    0.015612
  22 C :    0.021266
  23 H :    0.031635
  24 H :    0.008930
  25 C :   -0.042534
  26 H :    0.031637
  27 H :    0.012502
  28 C :   -0.025912
  29 H :    0.030379
  30 H :    0.033561
  31 H :    0.040323
  32 H :    0.042361
  33 H :    0.064225
Sum of atomic charges:   -0.0000000

LOEWDIN ATOMIC CHARGES
----------------------
   0 S :    0.397297
   1 C :   -0.197723
   2 C :   -0.055012
   3 C :   -0.069495
   4 C :   -0.185179
   5 H :    0.024511
   6 C :   -0.036688
   7 H :    0.027709
   8 H :    0.036844
   9 C :   -0.034945
  10 H :    0.012958
  11 H :    0.031408
  12 C :   -0.066566
  13 H :    0.023914
  14 H :    0.027645
  15 H :    0.027294
  16 S :    0.430086
  17 C :   -0.206624
  18 C :   -0.069070
  19 C :   -0.060618
  20 C :   -0.198718
  21 H :    0.027978
  22 C :   -0.044247
  23 H :    0.039070
  24 H :    0.024902
  25 C :   -0.032770
  26 H :    0.021614
  27 H :    0.021024
  28 C :   -0.062012
  29 H :    0.030037
  30 H :    0.026734
  31 H :    0.026212
  32 H :    0.023293
  33 H :    0.039135

  Mayer bond orders larger than 0.100000
B(  0-S ,  1-C ) :   1.1154 B(  0-S ,  4-C ) :   1.1371 B(  1-C ,  2-C ) :   1.6637
B(  1-C , 32-H ) :   0.9626 B(  2-C ,  3-C ) :   1.1826 B(  2-C ,  6-C ) :   1.0181
B(  3-C ,  4-C ) :   1.6392 B(  3-C ,  5-H ) :   1.0037 B(  4-C , 20-C ) :   1.0118
B(  6-C ,  7-H ) :   0.9412 B(  6-C ,  8-H ) :   0.9363 B(  6-C ,  9-C ) :   1.0708
B(  9-C , 10-H ) :   0.9542 B(  9-C , 11-H ) :   0.9566 B(  9-C , 12-C ) :   1.0811
B( 12-C , 13-H ) :   0.9732 B( 12-C , 14-H ) :   0.9706 B( 12-C , 15-H ) :   0.9737
B( 16-S , 17-C ) :   1.1549 B( 16-S , 20-C ) :   1.1538 B( 17-C , 18-C ) :   1.6138
B( 17-C , 33-H ) :   0.9630 B( 18-C , 19-C ) :   1.2345 B( 18-C , 21-H ) :   0.9877
B( 19-C , 20-C ) :   1.5896 B( 19-C , 22-C ) :   1.0581 B( 22-C , 23-H ) :   0.9305
B( 22-C , 24-H ) :   0.9199 B( 22-C , 25-C ) :   1.0480 B( 25-C , 26-H ) :   0.9500
B( 25-C , 27-H ) :   0.9524 B( 25-C , 28-C ) :   1.0800 B( 28-C , 29-H ) :   0.9731
B( 28-C , 30-H ) :   0.9724 B( 28-C , 31-H ) :   0.9754

Dispersion correction           -0.015834071
FINAL SINGLE POINT ENERGY     -1339.873918857878

DIPOLE MOMENT
-------------
                                X             Y             Z
Electronic contribution:     -8.33525     -20.22904      23.48201
Nuclear contribution   :      8.38809      20.65064     -24.16195
                        -----------------------------------------
Total Dipole Moment    :      0.05284       0.42160      -0.67994
                        -----------------------------------------
Magnitude (a.u.)       :      0.80179
Magnitude (Debye)      :      2.03798

Rotational constants in cm-1:     0.016650     0.011784     0.007324
Rotational constants in MHz :   499.159899   353.273409   219.581589

                             ****ORCA TERMINATED NORMALLY****
TOTAL RUN TIME: 0 days 0 hours 0 minutes 36 seconds 9 msec
