                         Program Version 4.2.1 -  RELEASE  -
|  1> ! wB97X-D3 SP def2-SVP
|  2> %pal
|  3> nprocs 16
|  4> end
|  5>
|  6> * xyz 0 1
|  7> S 	 -43.2536 	 16.087 	 70.6302
|  8> C 	 -41.8531 	 16.2166 	 69.5642
|  9> C 	 -41.0496 	 17.3494 	 69.7333
| 10> C 	 -41.6411 	 18.1234 	 70.8182
| 11> C 	 -42.8651 	 17.606 	 71.3015
| 12> H 	 -41.1764 	 18.9352 	 71.324
| 13> C 	 -39.7167 	 17.5692 	 69.0557
| 14> H 	 -39.3777 	 18.5755 	 69.3016
| 15> H 	 -39.9565 	 17.7425 	 67.9754
| 16> C 	 -38.5876 	 16.5212 	 69.328
| 17> H 	 -38.9048 	 15.5843 	 68.9325
| 18> H 	 -37.6802 	 16.8051 	 68.7744
| 19> C 	 -38.2058 	 16.2789 	 70.801
| 20> H 	 -39.1874 	 16.1051 	 71.2648
| 21> H 	 -37.55 	 15.467 	 70.8114
| 22> H 	 -37.8916 	 17.2437 	 71.1848
| 23> S 	 -44.3838 	 19.5528 	 72.3321
| 24> C 	 -44.4456 	 19.7957 	 74.0521
| 25> C 	 -44.0488 	 18.584 	 74.6805
| 26> C 	 -43.4328 	 17.6467 	 73.8116
| 27> C 	 -43.5018 	 18.1122 	 72.4934
| 28> H 	 -44.1208 	 18.6323 	 75.7755
| 29> C 	 -42.6686 	 16.464 	 74.3938
| 30> H 	 -42.834 	 15.654 	 73.7352
| 31> H 	 -43.1641 	 16.1537 	 75.2685
| 32> C 	 -41.2232 	 16.8135 	 74.538
| 33> H 	 -40.7315 	 17.3003 	 73.6448
| 34> H 	 -40.7284 	 15.8794 	 74.7956
| 35> C 	 -41.0279 	 17.797 	 75.6994
| 36> H 	 -41.3607 	 18.806 	 75.5808
| 37> H 	 -39.9747 	 17.8032 	 76.1832
| 38> H 	 -41.6174 	 17.4305 	 76.4733
| 39> H 	 -41.5809 	 15.416 	 68.9022
| 40> H 	 -44.982 	 20.5617 	 74.6533
| 41> *
| 42>
| 43>                          ****END OF INPUT****

CARTESIAN COORDINATES (ANGSTROEM)
---------------------------------
  S    -43.253600   16.087000   70.630200
  C    -41.853100   16.216600   69.564200
  C    -41.049600   17.349400   69.733300
  C    -41.641100   18.123400   70.818200
  C    -42.865100   17.606000   71.301500
  H    -41.176400   18.935200   71.324000
  C    -39.716700   17.569200   69.055700
  H    -39.377700   18.575500   69.301600
  H    -39.956500   17.742500   67.975400
  C    -38.587600   16.521200   69.328000
  H    -38.904800   15.584300   68.932500
  H    -37.680200   16.805100   68.774400
  C    -38.205800   16.278900   70.801000
  H    -39.187400   16.105100   71.264800
  H    -37.550000   15.467000   70.811400
  H    -37.891600   17.243700   71.184800
  S    -44.383800   19.552800   72.332100
  C    -44.445600   19.795700   74.052100
  C    -44.048800   18.584000   74.680500
  C    -43.432800   17.646700   73.811600
  C    -43.501800   18.112200   72.493400
  H    -44.120800   18.632300   75.775500
  C    -42.668600   16.464000   74.393800
  H    -42.834000   15.654000   73.735200
  H    -43.164100   16.153700   75.268500
  C    -41.223200   16.813500   74.538000
  H    -40.731500   17.300300   73.644800
  H    -40.728400   15.879400   74.795600
  C    -41.027900   17.797000   75.699400
  H    -41.360700   18.806000   75.580800
  H    -39.974700   17.803200   76.183200
  H    -41.617400   17.430500   76.473300
  H    -41.580900   15.416000   68.902200
  H    -44.982000   20.561700   74.653300

 Total Charge           Charge          ....    0
 Multiplicity           Mult            ....    1
 Number of Electrons    NEL             ....  134
 Basis Dimension        Dim             ....  322

ORBITAL ENERGIES
----------------

  NO   OCC          E(Eh)            E(eV)
   0   2.0000     -88.972419     -2421.0626
   1   2.0000     -88.965687     -2420.8794
   2   2.0000     -10.324139      -280.9341
   3   2.0000     -10.318647      -280.7847
   4   2.0000     -10.315212      -280.6912
   5   2.0000     -10.314788      -280.6797
   6   2.0000     -10.308204      -280.5005
   7   2.0000     -10.300448      -280.2895
   8   2.0000     -10.300374      -280.2874
   9   2.0000     -10.297817      -280.2178
  10   2.0000     -10.292902      -280.0841
  11   2.0000     -10.288394      -279.9614
  12   2.0000     -10.286157      -279.9006
  13   2.0000     -10.281912      -279.7851
  14   2.0000     -10.273919      -279.5675
  15   2.0000     -10.269716      -279.4532
  16   2.0000      -8.087132      -220.0620
  17   2.0000      -8.081103      -219.8980
  18   2.0000      -6.045422      -164.5043
  19   2.0000      -6.041640      -164.4014
  20   2.0000      -6.039407      -164.3406
  21   2.0000      -6.038147      -164.3063
  22   2.0000      -6.035395      -164.2314
  23   2.0000      -6.032151      -164.1432
  24   2.0000      -1.009889       -27.4805
  25   2.0000      -0.983336       -26.7579
  26   2.0000      -0.917490       -24.9662
  27   2.0000      -0.911468       -24.8023
  28   2.0000      -0.866369       -23.5751
  29   2.0000      -0.851280       -23.1645
  30   2.0000      -0.843173       -22.9439
  31   2.0000      -0.808459       -21.9993
  32   2.0000      -0.788128       -21.4461
  33   2.0000      -0.773675       -21.0528
  34   2.0000      -0.705013       -19.1844
  35   2.0000      -0.703245       -19.1363
  36   2.0000      -0.689258       -18.7557
  37   2.0000      -0.656269       -17.8580
  38   2.0000      -0.642963       -17.4959
  39   2.0000      -0.609837       -16.5945
  40   2.0000      -0.593283       -16.1441
  41   2.0000      -0.574708       -15.6386
  42   2.0000      -0.561690       -15.2844
  43   2.0000      -0.551913       -15.0183
  44   2.0000      -0.545419       -14.8416
  45   2.0000      -0.536906       -14.6100
  46   2.0000      -0.518440       -14.1075
  47   2.0000      -0.510165       -13.8823
  48   2.0000      -0.500464       -13.6183
  49   2.0000      -0.493516       -13.4293
  50   2.0000      -0.482678       -13.1343
  51   2.0000      -0.477790       -13.0013
  52   2.0000      -0.473258       -12.8780
  53   2.0000      -0.462999       -12.5988
  54   2.0000      -0.461316       -12.5530
  55   2.0000      -0.448027       -12.1914
  56   2.0000      -0.446446       -12.1484
  57   2.0000      -0.435891       -11.8612
  58   2.0000      -0.431268       -11.7354
  59   2.0000      -0.423435       -11.5223
  60   2.0000      -0.418605       -11.3908
  61   2.0000      -0.417085       -11.3495
  62   2.0000      -0.414932       -11.2909
  63   2.0000      -0.335557        -9.1310
  64   2.0000      -0.329286        -8.9603
  65   2.0000      -0.324846        -8.8395
  66   2.0000      -0.298325        -8.1178
  67   0.0000       0.034747         0.9455
  68   0.0000       0.062304         1.6954
  69   0.0000       0.108487         2.9521
  70   0.0000       0.120528         3.2797
  71   0.0000       0.121772         3.3136

MULLIKEN ATOMIC CHARGES
-----------------------
   0 S :    0.135789
   1 C :   -0.134568
   2 C :   -0.101833
   3 C :    0.046775
   4 C :   -0.168077
   5 H :    0.006924
   6 C :    0.064889
   7 H :    0.011565
   8 H :    0.047486
   9 C :   -0.077909
  10 H :    0.016208
  11 H :    0.031599
  12 C :   -0.015707
  13 H :    0.042050
  14 H :    0.037940
  15 H :    0.025811
  16 S :    0.140911
  17 C :   -0.133338
  18 C :   -0.075100
  19 C :   -0.034585
  20 C :   -0.215182
  21 H :    0.026182
  22 C :    0.157597
  23 H :   -0.001006
  24 H :    0.008926
  25 C :   -0.055298
  26 H :    0.055458
  27 H :    0.029778
  28 C :   -0.056341
  29 H :    0.042057
  30 H :    0.039093
  31 H :   -0.008308
  32 H :    0.041456
  33 H :    0.068758
Sum of atomic charges:    0.0000000

LOEWDIN ATOMIC CHARGES
----------------------
   0 S :    0.433191
   1 C :   -0.191031
   2 C :   -0.062897
   3 C :   -0.049906
   4 C :   -0.224294
   5 H :    0.023987
   6 C :   -0.040254
   7 H :    0.027742
   8 H :    0.044922
   9 C :   -0.034391
  10 H :    0.014257
  11 H :    0.024446
  12 C :   -0.053456
  13 H :    0.030902
  14 H :    0.021354
  15 H :    0.023963
  16 S :    0.449446
  17 C :   -0.218041
  18 C :   -0.075141
  19 C :   -0.054284
  20 C :   -0.226417
  21 H :    0.031330
  22 C :   -0.022791
  23 H :    0.020951
  24 H :    0.026440
  25 C :   -0.034926
  26 H :    0.035476
  27 H :    0.026302
  28 C :   -0.070661
  29 H :    0.021857
  30 H :    0.035280
  31 H :    0.010017
  32 H :    0.018845
  33 H :    0.037781

  Mayer bond orders larger than 0.100000
B(  0-S ,  1-C ) :   1.1598 B(  0-S ,  4-C ) :   1.1656 B(  1-C ,  2-C ) :   1.5865
B(  1-C , 32-H ) :   0.9699 B(  2-C ,  3-C ) :   1.2492 B(  2-C ,  6-C ) :   1.0195
B(  3-C ,  4-C ) :   1.5598 B(  3-C ,  5-H ) :   0.9922 B(  4-C , 20-C ) :   1.0184
B(  6-C ,  7-H ) :   0.9399 B(  6-C ,  8-H ) :   0.9341 B(  6-C ,  9-C ) :   1.0601
B(  9-C , 10-H ) :   0.9592 B(  9-C , 11-H ) :   0.9562 B(  9-C , 12-C ) :   1.0692
B( 12-C , 13-H ) :   0.9747 B( 12-C , 14-H ) :   0.9736 B( 12-C , 15-H ) :   0.9773
B( 16-S , 17-C ) :   1.1695 B( 16-S , 20-C ) :   1.1921 B( 17-C , 18-C ) :   1.5826
B( 17-C , 20-C ) :   0.1105 B( 17-C , 33-H ) :   0.9624 B( 18-C , 19-C ) :   1.2723
B( 18-C , 21-H ) :   0.9810 B( 19-C , 20-C ) :   1.5452 B( 19-C , 22-C ) :   1.0349
B( 22-C , 23-H ) :   0.9134 B( 22-C , 24-H ) :   0.9274 B( 22-C , 25-C ) :   1.0794
B( 25-C , 26-H ) :   0.9536 B( 25-C , 27-H ) :   0.9515 B( 25-C , 28-C ) :   1.0728
B( 28-C , 29-H ) :   0.9708 B( 28-C , 30-H ) :   0.9721 B( 28-C , 31-H ) :   0.9689

Dispersion correction           -0.016310673
FINAL SINGLE POINT ENERGY     -1339.860282358521

DIPOLE MOMENT
-------------
                                X             Y             Z
Electronic contribution:    -24.55497       5.36143      -7.69842
Nuclear contribution   :     25.10713      -5.56743       7.90241
                        -----------------------------------------
Total Dipole Moment    :      0.55216      -0.20600       0.20399
                        -----------------------------------------
Magnitude (a.u.)       :      0.62364
Magnitude (Debye)      :      1.58516

Rotational constants in cm-1:     0.020211     0.009408     0.007830
Rotational constants in MHz :   605.910567   282.047480   234.752119

                             ****ORCA TERMINATED NORMALLY****
TOTAL RUN TIME: 0 days 0 hours 0 minutes 31 seconds 329 msec
