                         Program Version 4.2.1 -  RELEASE  -
|  1> ! wB97X-D3 SP def2-SVP
|  2> %pal
|  3> nprocs 16
|  4> end
|  5>
|  6> * xyz 0 1
|  7> S 	 21.6356 	 8.3827 	 65.2846
|  8> C 	 23.3005 	 8.71275 	 64.9796
|  9> C 	 24.0352 	 9.14862 	 66.0418
| 10> C 	 23.181 	 9.15566 	 67.1911
| 11> C 	 21.8753 	 8.72014 	 66.991
| 12> H 	 23.5049 	 9.34951 	 68.2692
| 13> C 	 25.436 	 9.6885 	 66.1237
| 14> H 	 25.8894 	 9.52173 	 65.1689
| 15> H 	 25.9718 	 9.12768 	 66.9228
| 16> C 	 25.5229 	 11.2323 	 66.2904
| 17> H 	 24.8458 	 11.5758 	 67.038
| 18> H 	 26.5231 	 11.6192 	 66.5063
| 19> C 	 25.1445 	 11.9138 	 64.9937
| 20> H 	 25.2143 	 12.9729 	 64.9125
| 21> H 	 25.7783 	 11.433 	 64.2229
| 22> H 	 24.1168 	 11.7251 	 64.71
| 23> S 	 19.2068 	 8.82877 	 67.3666
| 24> C 	 18.5701 	 8.90943 	 68.978
| 25> C 	 19.535 	 8.5179 	 69.9061
| 26> C 	 20.8416 	 8.2987 	 69.3344
| 27> C 	 20.798 	 8.70527 	 67.9548
| 28> H 	 19.2941 	 8.53436 	 70.9875
| 29> C 	 22.0668 	 8.00434 	 70.1597
| 30> H 	 21.9325 	 7.93675 	 71.2554
| 31> H 	 22.6281 	 8.90984 	 70.082
| 32> C 	 22.963 	 6.90084 	 69.6488
| 33> H 	 22.8934 	 6.80185 	 68.5383
| 34> H 	 22.4304 	 6.06637 	 69.9362
| 35> C 	 24.459 	 6.73874 	 70.1749
| 36> H 	 25.1546 	 7.56628 	 69.9424
| 37> H 	 24.8669 	 5.84905 	 69.7094
| 38> H 	 24.4082 	 6.50383 	 71.2217
| 39> H 	 23.8115 	 8.5652 	 64.0363
| 40> H 	 17.6228 	 9.14998 	 69.4378
| 41> *
| 42>
| 43>                          ****END OF INPUT****

CARTESIAN COORDINATES (ANGSTROEM)
---------------------------------
  S     21.635600    8.382700   65.284600
  C     23.300500    8.712750   64.979600
  C     24.035200    9.148620   66.041800
  C     23.181000    9.155660   67.191100
  C     21.875300    8.720140   66.991000
  H     23.504900    9.349510   68.269200
  C     25.436000    9.688500   66.123700
  H     25.889400    9.521730   65.168900
  H     25.971800    9.127680   66.922800
  C     25.522900   11.232300   66.290400
  H     24.845800   11.575800   67.038000
  H     26.523100   11.619200   66.506300
  C     25.144500   11.913800   64.993700
  H     25.214300   12.972900   64.912500
  H     25.778300   11.433000   64.222900
  H     24.116800   11.725100   64.710000
  S     19.206800    8.828770   67.366600
  C     18.570100    8.909430   68.978000
  C     19.535000    8.517900   69.906100
  C     20.841600    8.298700   69.334400
  C     20.798000    8.705270   67.954800
  H     19.294100    8.534360   70.987500
  C     22.066800    8.004340   70.159700
  H     21.932500    7.936750   71.255400
  H     22.628100    8.909840   70.082000
  C     22.963000    6.900840   69.648800
  H     22.893400    6.801850   68.538300
  H     22.430400    6.066370   69.936200
  C     24.459000    6.738740   70.174900
  H     25.154600    7.566280   69.942400
  H     24.866900    5.849050   69.709400
  H     24.408200    6.503830   71.221700
  H     23.811500    8.565200   64.036300
  H     17.622800    9.149980   69.437800

 Total Charge           Charge          ....    0
 Multiplicity           Mult            ....    1
 Number of Electrons    NEL             ....  134
 Basis Dimension        Dim             ....  322

ORBITAL ENERGIES
----------------

  NO   OCC          E(Eh)            E(eV)
   0   2.0000     -88.972268     -2421.0585
   1   2.0000     -88.968503     -2420.9560
   2   2.0000     -10.328484      -281.0523
   3   2.0000     -10.328193      -281.0444
   4   2.0000     -10.314236      -280.6646
   5   2.0000     -10.311417      -280.5879
   6   2.0000     -10.310410      -280.5605
   7   2.0000     -10.299250      -280.2568
   8   2.0000     -10.297448      -280.2078
   9   2.0000     -10.296757      -280.1890
  10   2.0000     -10.296475      -280.1813
  11   2.0000     -10.291091      -280.0348
  12   2.0000     -10.285559      -279.8843
  13   2.0000     -10.283398      -279.8255
  14   2.0000     -10.279076      -279.7079
  15   2.0000     -10.270347      -279.4703
  16   2.0000      -8.087589      -220.0745
  17   2.0000      -8.083627      -219.9667
  18   2.0000      -6.046156      -164.5243
  19   2.0000      -6.042201      -164.4166
  20   2.0000      -6.042128      -164.4147
  21   2.0000      -6.038239      -164.3088
  22   2.0000      -6.038150      -164.3064
  23   2.0000      -6.034157      -164.1977
  24   2.0000      -1.012558       -27.5531
  25   2.0000      -0.988190       -26.8900
  26   2.0000      -0.917176       -24.9576
  27   2.0000      -0.910754       -24.7829
  28   2.0000      -0.872166       -23.7328
  29   2.0000      -0.850019       -23.1302
  30   2.0000      -0.846566       -23.0362
  31   2.0000      -0.813102       -22.1256
  32   2.0000      -0.785040       -21.3620
  33   2.0000      -0.774822       -21.0840
  34   2.0000      -0.714103       -19.4317
  35   2.0000      -0.701557       -19.0903
  36   2.0000      -0.691841       -18.8259
  37   2.0000      -0.660804       -17.9814
  38   2.0000      -0.634969       -17.2784
  39   2.0000      -0.621528       -16.9126
  40   2.0000      -0.595161       -16.1952
  41   2.0000      -0.569899       -15.5078
  42   2.0000      -0.560934       -15.2638
  43   2.0000      -0.556743       -15.1498
  44   2.0000      -0.543630       -14.7929
  45   2.0000      -0.519024       -14.1233
  46   2.0000      -0.514487       -13.9999
  47   2.0000      -0.506109       -13.7719
  48   2.0000      -0.502416       -13.6714
  49   2.0000      -0.497726       -13.5438
  50   2.0000      -0.496035       -13.4978
  51   2.0000      -0.483547       -13.1580
  52   2.0000      -0.472979       -12.8704
  53   2.0000      -0.467197       -12.7131
  54   2.0000      -0.453278       -12.3343
  55   2.0000      -0.449891       -12.2422
  56   2.0000      -0.445372       -12.1192
  57   2.0000      -0.435103       -11.8398
  58   2.0000      -0.433970       -11.8089
  59   2.0000      -0.428838       -11.6693
  60   2.0000      -0.423696       -11.5293
  61   2.0000      -0.422764       -11.5040
  62   2.0000      -0.411707       -11.2031
  63   2.0000      -0.356675        -9.7056
  64   2.0000      -0.334822        -9.1110
  65   2.0000      -0.327630        -8.9153
  66   2.0000      -0.278562        -7.5800
  67   0.0000       0.020574         0.5599
  68   0.0000       0.077215         2.1011
  69   0.0000       0.098065         2.6685
  70   0.0000       0.115331         3.1383
  71   0.0000       0.135759         3.6942

MULLIKEN ATOMIC CHARGES
-----------------------
   0 S :    0.109457
   1 C :   -0.107721
   2 C :   -0.098886
   3 C :   -0.029314
   4 C :   -0.145022
   5 H :    0.029652
   6 C :    0.088966
   7 H :    0.002613
   8 H :    0.046381
   9 C :   -0.037856
  10 H :    0.026612
  11 H :    0.034315
  12 C :   -0.069170
  13 H :    0.031117
  14 H :    0.017262
  15 H :    0.032767
  16 S :    0.123513
  17 C :   -0.070695
  18 C :   -0.071506
  19 C :   -0.032465
  20 C :   -0.134163
  21 H :    0.031075
  22 C :    0.076807
  23 H :    0.023615
  24 H :    0.018157
  25 C :   -0.112558
  26 H :    0.057627
  27 H :    0.005222
  28 C :   -0.030239
  29 H :    0.039670
  30 H :    0.031689
  31 H :    0.029500
  32 H :    0.036824
  33 H :    0.046754
Sum of atomic charges:    0.0000000

LOEWDIN ATOMIC CHARGES
----------------------
   0 S :    0.403204
   1 C :   -0.199790
   2 C :   -0.068536
   3 C :   -0.068408
   4 C :   -0.196475
   5 H :    0.038267
   6 C :   -0.024263
   7 H :    0.023456
   8 H :    0.038109
   9 C :   -0.033669
  10 H :    0.019141
  11 H :    0.027403
  12 C :   -0.065992
  13 H :    0.021597
  14 H :    0.023278
  15 H :    0.024078
  16 S :    0.438644
  17 C :   -0.206479
  18 C :   -0.070943
  19 C :   -0.049090
  20 C :   -0.209582
  21 H :    0.035330
  22 C :   -0.039891
  23 H :    0.034198
  24 H :    0.025464
  25 C :   -0.047887
  26 H :    0.034289
  27 H :    0.015293
  28 C :   -0.061275
  29 H :    0.025324
  30 H :    0.030185
  31 H :    0.023033
  32 H :    0.027254
  33 H :    0.034732

  Mayer bond orders larger than 0.100000
B(  0-S ,  1-C ) :   1.1383 B(  0-S ,  4-C ) :   1.1247 B(  1-C ,  2-C ) :   1.6365
B(  1-C , 32-H ) :   0.9548 B(  2-C ,  3-C ) :   1.2354 B(  2-C ,  6-C ) :   1.0305
B(  3-C ,  4-C ) :   1.5858 B(  3-C ,  5-H ) :   0.9724 B(  4-C , 20-C ) :   1.0981
B(  6-C ,  7-H ) :   0.9373 B(  6-C ,  8-H ) :   0.9366 B(  6-C ,  9-C ) :   1.0612
B(  9-C , 10-H ) :   0.9580 B(  9-C , 11-H ) :   0.9582 B(  9-C , 12-C ) :   1.0687
B( 12-C , 13-H ) :   0.9742 B( 12-C , 14-H ) :   0.9743 B( 12-C , 15-H ) :   0.9764
B( 16-S , 17-C ) :   1.1465 B( 16-S , 20-C ) :   1.1582 B( 17-C , 18-C ) :   1.6139
B( 17-C , 20-C ) :   0.1023 B( 17-C , 33-H ) :   0.9670 B( 18-C , 19-C ) :   1.2610
B( 18-C , 21-H ) :   0.9809 B( 19-C , 20-C ) :   1.5120 B( 19-C , 22-C ) :   1.0386
B( 22-C , 23-H ) :   0.9357 B( 22-C , 24-H ) :   0.9341 B( 22-C , 25-C ) :   1.0313
B( 25-C , 26-H ) :   0.9600 B( 25-C , 27-H ) :   0.9488 B( 25-C , 28-C ) :   1.0758
B( 28-C , 29-H ) :   0.9774 B( 28-C , 30-H ) :   0.9731 B( 28-C , 31-H ) :   0.9745

Dispersion correction           -0.015131239
FINAL SINGLE POINT ENERGY     -1339.860077476262

DIPOLE MOMENT
-------------
                                X             Y             Z
Electronic contribution:    -25.44198      -3.78678      -8.50962
Nuclear contribution   :     25.92660       3.86578       8.96151
                        -----------------------------------------
Total Dipole Moment    :      0.48463       0.07900       0.45189
                        -----------------------------------------
Magnitude (a.u.)       :      0.66731
Magnitude (Debye)      :      1.69617

Rotational constants in cm-1:     0.018312     0.009601     0.007463
Rotational constants in MHz :   548.984683   287.843652   223.738331

                             ****ORCA TERMINATED NORMALLY****
TOTAL RUN TIME: 0 days 0 hours 0 minutes 31 seconds 651 msec
