                         Program Version 4.2.1 -  RELEASE  -
|  1> ! wB97X-D3 SP def2-SVP
|  2> %pal
|  3> nprocs 16
|  4> end
|  5>
|  6> * xyz 0 1
|  7> S 	 -32.3595 	 58.6501 	 113.244
|  8> C 	 -33.7052 	 58.1313 	 112.134
|  9> C 	 -34.8468 	 57.8632 	 112.871
| 10> C 	 -34.6967 	 57.9989 	 114.327
| 11> C 	 -33.3997 	 58.4522 	 114.685
| 12> H 	 -35.4423 	 57.734 	 115.086
| 13> C 	 -36.1335 	 57.2739 	 112.342
| 14> H 	 -36.1201 	 56.1975 	 112.409
| 15> H 	 -36.0491 	 57.3851 	 111.262
| 16> C 	 -37.4391 	 57.7743 	 112.951
| 17> H 	 -37.6034 	 57.4065 	 113.964
| 18> H 	 -37.5017 	 58.8411 	 113.018
| 19> C 	 -38.6848 	 57.3535 	 112.024
| 20> H 	 -38.4594 	 57.5106 	 110.968
| 21> H 	 -39.1069 	 56.387 	 112.177
| 22> H 	 -39.4768 	 58.0784 	 112.241
| 23> S 	 -31.1506 	 58.758 	 116.39
| 24> C 	 -31.371 	 59.0837 	 118.105
| 25> C 	 -32.7197 	 59.2125 	 118.348
| 26> C 	 -33.6081 	 59.1962 	 117.163
| 27> C 	 -32.9147 	 58.7724 	 115.994
| 28> H 	 -33.0545 	 59.2986 	 119.366
| 29> C 	 -35.0875 	 59.3134 	 117.378
| 30> H 	 -35.6479 	 59.3947 	 116.448
| 31> H 	 -35.3442 	 60.2708 	 117.849
| 32> C 	 -35.5954 	 58.1409 	 118.19
| 33> H 	 -35.2018 	 58.0508 	 119.215
| 34> H 	 -35.1307 	 57.2487 	 117.759
| 35> C 	 -37.0413 	 57.9085 	 118.13
| 36> H 	 -37.4194 	 57.3683 	 117.165
| 37> H 	 -37.5809 	 58.8281 	 118.348
| 38> H 	 -37.2694 	 57.3604 	 119.024
| 39> H 	 -33.6309 	 57.8898 	 111.118
| 40> H 	 -30.6127 	 59.0538 	 118.894
| 41> *
| 42>
| 43>                          ****END OF INPUT****

CARTESIAN COORDINATES (ANGSTROEM)
---------------------------------
  S    -32.359500   58.650100  113.244000
  C    -33.705200   58.131300  112.134000
  C    -34.846800   57.863200  112.871000
  C    -34.696700   57.998900  114.327000
  C    -33.399700   58.452200  114.685000
  H    -35.442300   57.734000  115.086000
  C    -36.133500   57.273900  112.342000
  H    -36.120100   56.197500  112.409000
  H    -36.049100   57.385100  111.262000
  C    -37.439100   57.774300  112.951000
  H    -37.603400   57.406500  113.964000
  H    -37.501700   58.841100  113.018000
  C    -38.684800   57.353500  112.024000
  H    -38.459400   57.510600  110.968000
  H    -39.106900   56.387000  112.177000
  H    -39.476800   58.078400  112.241000
  S    -31.150600   58.758000  116.390000
  C    -31.371000   59.083700  118.105000
  C    -32.719700   59.212500  118.348000
  C    -33.608100   59.196200  117.163000
  C    -32.914700   58.772400  115.994000
  H    -33.054500   59.298600  119.366000
  C    -35.087500   59.313400  117.378000
  H    -35.647900   59.394700  116.448000
  H    -35.344200   60.270800  117.849000
  C    -35.595400   58.140900  118.190000
  H    -35.201800   58.050800  119.215000
  H    -35.130700   57.248700  117.759000
  C    -37.041300   57.908500  118.130000
  H    -37.419400   57.368300  117.165000
  H    -37.580900   58.828100  118.348000
  H    -37.269400   57.360400  119.024000
  H    -33.630900   57.889800  111.118000
  H    -30.612700   59.053800  118.894000

 Total Charge           Charge          ....    0
 Multiplicity           Mult            ....    1
 Number of Electrons    NEL             ....  134
 Basis Dimension        Dim             ....  322

ORBITAL ENERGIES
----------------

  NO   OCC          E(Eh)            E(eV)
   0   2.0000     -88.967814     -2420.9373
   1   2.0000     -88.964178     -2420.8384
   2   2.0000     -10.340514      -281.3797
   3   2.0000     -10.337335      -281.2932
   4   2.0000     -10.323681      -280.9216
   5   2.0000     -10.317002      -280.7399
   6   2.0000     -10.313870      -280.6547
   7   2.0000     -10.307203      -280.4733
   8   2.0000     -10.303491      -280.3722
   9   2.0000     -10.297792      -280.2172
  10   2.0000     -10.294096      -280.1166
  11   2.0000     -10.291735      -280.0524
  12   2.0000     -10.291203      -280.0379
  13   2.0000     -10.283489      -279.8280
  14   2.0000     -10.282837      -279.8102
  15   2.0000     -10.281955      -279.7862
  16   2.0000      -8.080713      -219.8874
  17   2.0000      -8.077894      -219.8107
  18   2.0000      -6.039623      -164.3465
  19   2.0000      -6.036766      -164.2687
  20   2.0000      -6.035556      -164.2358
  21   2.0000      -6.032498      -164.1526
  22   2.0000      -6.031072      -164.1138
  23   2.0000      -6.028355      -164.0399
  24   2.0000      -0.994823       -27.0705
  25   2.0000      -0.970888       -26.4192
  26   2.0000      -0.921421       -25.0732
  27   2.0000      -0.909362       -24.7450
  28   2.0000      -0.870554       -23.6890
  29   2.0000      -0.852761       -23.2048
  30   2.0000      -0.837153       -22.7801
  31   2.0000      -0.813485       -22.1361
  32   2.0000      -0.781998       -21.2792
  33   2.0000      -0.773090       -21.0369
  34   2.0000      -0.717333       -19.5196
  35   2.0000      -0.701648       -19.0928
  36   2.0000      -0.699246       -19.0275
  37   2.0000      -0.657148       -17.8819
  38   2.0000      -0.638318       -17.3695
  39   2.0000      -0.620004       -16.8712
  40   2.0000      -0.599171       -16.3043
  41   2.0000      -0.570924       -15.5356
  42   2.0000      -0.568665       -15.4742
  43   2.0000      -0.559534       -15.2257
  44   2.0000      -0.533306       -14.5120
  45   2.0000      -0.526421       -14.3246
  46   2.0000      -0.516819       -14.0634
  47   2.0000      -0.514138       -13.9904
  48   2.0000      -0.507643       -13.8137
  49   2.0000      -0.501756       -13.6535
  50   2.0000      -0.492698       -13.4070
  51   2.0000      -0.484653       -13.1881
  52   2.0000      -0.469442       -12.7742
  53   2.0000      -0.464160       -12.6304
  54   2.0000      -0.460036       -12.5182
  55   2.0000      -0.449508       -12.2317
  56   2.0000      -0.444713       -12.1013
  57   2.0000      -0.439936       -11.9713
  58   2.0000      -0.433572       -11.7981
  59   2.0000      -0.429212       -11.6795
  60   2.0000      -0.415416       -11.3040
  61   2.0000      -0.412570       -11.2266
  62   2.0000      -0.406266       -11.0551
  63   2.0000      -0.359230        -9.7751
  64   2.0000      -0.329105        -8.9554
  65   2.0000      -0.323503        -8.8030
  66   2.0000      -0.283643        -7.7183
  67   0.0000       0.012326         0.3354
  68   0.0000       0.081217         2.2100
  69   0.0000       0.095709         2.6044
  70   0.0000       0.109890         2.9903
  71   0.0000       0.122325         3.3286

MULLIKEN ATOMIC CHARGES
-----------------------
   0 S :    0.091243
   1 C :   -0.098337
   2 C :   -0.076788
   3 C :   -0.012650
   4 C :   -0.110783
   5 H :    0.021279
   6 C :    0.071028
   7 H :    0.039305
   8 H :    0.005620
   9 C :   -0.083548
  10 H :    0.035809
  11 H :    0.032107
  12 C :   -0.059462
  13 H :    0.032686
  14 H :    0.038062
  15 H :    0.028362
  16 S :    0.083130
  17 C :   -0.078396
  18 C :   -0.046363
  19 C :   -0.055229
  20 C :   -0.118684
  21 H :    0.020338
  22 C :    0.076612
  23 H :    0.015210
  24 H :    0.028632
  25 C :   -0.108300
  26 H :    0.029066
  27 H :    0.026093
  28 C :   -0.028676
  29 H :    0.059875
  30 H :    0.020476
  31 H :    0.021256
  32 H :    0.030689
  33 H :    0.070339
Sum of atomic charges:    0.0000000

LOEWDIN ATOMIC CHARGES
----------------------
   0 S :    0.362840
   1 C :   -0.177132
   2 C :   -0.052127
   3 C :   -0.068245
   4 C :   -0.167451
   5 H :    0.032085
   6 C :   -0.039602
   7 H :    0.035672
   8 H :    0.028084
   9 C :   -0.033222
  10 H :    0.023488
  11 H :    0.023033
  12 C :   -0.062633
  13 H :    0.025621
  14 H :    0.019904
  15 H :    0.028052
  16 S :    0.369705
  17 C :   -0.180401
  18 C :   -0.071119
  19 C :   -0.041945
  20 C :   -0.184734
  21 H :    0.026840
  22 C :   -0.038476
  23 H :    0.028852
  24 H :    0.033423
  25 C :   -0.054763
  26 H :    0.027287
  27 H :    0.028498
  28 C :   -0.072569
  29 H :    0.037622
  30 H :    0.023887
  31 H :    0.028948
  32 H :    0.020524
  33 H :    0.040054

  Mayer bond orders larger than 0.100000
B(  0-S ,  1-C ) :   1.0950 B(  0-S ,  4-C ) :   1.1290 B(  1-C ,  2-C ) :   1.6518
B(  1-C , 32-H ) :   0.9710 B(  2-C ,  3-C ) :   1.2009 B(  2-C ,  6-C ) :   1.0322
B(  3-C ,  4-C ) :   1.5674 B(  3-C ,  5-H ) :   0.9824 B(  4-C , 20-C ) :   1.1274
B(  6-C ,  7-H ) :   0.9340 B(  6-C ,  8-H ) :   0.9384 B(  6-C ,  9-C ) :   1.0582
B(  9-C , 10-H ) :   0.9492 B(  9-C , 11-H ) :   0.9675 B(  9-C , 12-C ) :   1.0729
B( 12-C , 13-H ) :   0.9783 B( 12-C , 14-H ) :   0.9802 B( 12-C , 15-H ) :   0.9790
B( 16-S , 17-C ) :   1.1342 B( 16-S , 20-C ) :   1.1079 B( 17-C , 18-C ) :   1.6399
B( 17-C , 33-H ) :   0.9659 B( 18-C , 19-C ) :   1.2042 B( 18-C , 21-H ) :   0.9882
B( 19-C , 20-C ) :   1.5666 B( 19-C , 22-C ) :   1.0730 B( 22-C , 23-H ) :   0.9350
B( 22-C , 24-H ) :   0.9157 B( 22-C , 25-C ) :   1.0519 B( 25-C , 26-H ) :   0.9495
B( 25-C , 27-H ) :   0.9489 B( 25-C , 28-C ) :   1.0997 B( 28-C , 29-H ) :   0.9702
B( 28-C , 30-H ) :   0.9650 B( 28-C , 31-H ) :   0.9644

Dispersion correction           -0.014223496
FINAL SINGLE POINT ENERGY     -1339.863532550101

DIPOLE MOMENT
-------------
                                X             Y             Z
Electronic contribution:     33.52855       6.14811      -2.15802
Nuclear contribution   :    -34.37224      -6.42197       2.54548
                        -----------------------------------------
Total Dipole Moment    :     -0.84369      -0.27385       0.38746
                        -----------------------------------------
Magnitude (a.u.)       :      0.96795
Magnitude (Debye)      :      2.46034

Rotational constants in cm-1:     0.017526     0.009377     0.006267
Rotational constants in MHz :   525.427395   281.114485   187.892607

                             ****ORCA TERMINATED NORMALLY****
TOTAL RUN TIME: 0 days 0 hours 0 minutes 28 seconds 725 msec
