                         Program Version 4.2.1 -  RELEASE  -
|  1> ! wB97X-D3 SP def2-SVP
|  2> %pal
|  3> nprocs 16
|  4> end
|  5>
|  6> * xyz 0 1
|  7> S 	 -4.39225 	 51.0951 	 33.9351
|  8> C 	 -4.26762 	 49.5641 	 34.6457
|  9> C 	 -5.49559 	 49.0216 	 34.8437
| 10> C 	 -6.54162 	 49.9183 	 34.528
| 11> C 	 -6.1018 	 51.1736 	 34.1952
| 12> H 	 -7.57068 	 49.7768 	 34.6861
| 13> C 	 -5.74169 	 47.6337 	 35.4684
| 14> H 	 -4.94822 	 47.215 	 36.0401
| 15> H 	 -5.93473 	 46.9572 	 34.6802
| 16> C 	 -7.04081 	 47.5491 	 36.2977
| 17> H 	 -7.37822 	 48.4329 	 36.8913
| 18> H 	 -7.91396 	 47.3686 	 35.6394
| 19> C 	 -7.22531 	 46.4278 	 37.2445
| 20> H 	 -7.10839 	 45.38 	 36.7891
| 21> H 	 -6.49939 	 46.6415 	 37.9695
| 22> H 	 -8.17535 	 46.2594 	 37.6844
| 23> S 	 -6.27809 	 53.3253 	 32.5659
| 24> C 	 -7.75923 	 54.3032 	 32.6382
| 25> C 	 -8.56544 	 54.0444 	 33.7284
| 26> C 	 -8.14248 	 52.9212 	 34.4612
| 27> C 	 -6.88585 	 52.4288 	 33.9202
| 28> H 	 -9.46184 	 54.6054 	 33.952
| 29> C 	 -8.91325 	 52.4381 	 35.6838
| 30> H 	 -9.60449 	 51.5974 	 35.4517
| 31> H 	 -9.6986 	 53.2303 	 35.959
| 32> C 	 -8.14578 	 52.1981 	 36.9541
| 33> H 	 -7.80836 	 53.1887 	 37.2611
| 34> H 	 -7.25134 	 51.6962 	 36.7567
| 35> C 	 -9.03557 	 51.5196 	 38.0732
| 36> H 	 -9.26508 	 50.5184 	 37.6835
| 37> H 	 -9.95284 	 52.0603 	 38.3929
| 38> H 	 -8.29565 	 51.3293 	 38.7677
| 39> H 	 -3.28944 	 49.1704 	 34.9695
| 40> H 	 -7.93004 	 55.0061 	 31.7978
| 41> *
| 42>
| 43>                          ****END OF INPUT****

CARTESIAN COORDINATES (ANGSTROEM)
---------------------------------
  S     -4.392250   51.095100   33.935100
  C     -4.267620   49.564100   34.645700
  C     -5.495590   49.021600   34.843700
  C     -6.541620   49.918300   34.528000
  C     -6.101800   51.173600   34.195200
  H     -7.570680   49.776800   34.686100
  C     -5.741690   47.633700   35.468400
  H     -4.948220   47.215000   36.040100
  H     -5.934730   46.957200   34.680200
  C     -7.040810   47.549100   36.297700
  H     -7.378220   48.432900   36.891300
  H     -7.913960   47.368600   35.639400
  C     -7.225310   46.427800   37.244500
  H     -7.108390   45.380000   36.789100
  H     -6.499390   46.641500   37.969500
  H     -8.175350   46.259400   37.684400
  S     -6.278090   53.325300   32.565900
  C     -7.759230   54.303200   32.638200
  C     -8.565440   54.044400   33.728400
  C     -8.142480   52.921200   34.461200
  C     -6.885850   52.428800   33.920200
  H     -9.461840   54.605400   33.952000
  C     -8.913250   52.438100   35.683800
  H     -9.604490   51.597400   35.451700
  H     -9.698600   53.230300   35.959000
  C     -8.145780   52.198100   36.954100
  H     -7.808360   53.188700   37.261100
  H     -7.251340   51.696200   36.756700
  C     -9.035570   51.519600   38.073200
  H     -9.265080   50.518400   37.683500
  H     -9.952840   52.060300   38.392900
  H     -8.295650   51.329300   38.767700
  H     -3.289440   49.170400   34.969500
  H     -7.930040   55.006100   31.797800

 Total Charge           Charge          ....    0
 Multiplicity           Mult            ....    1
 Number of Electrons    NEL             ....  134
 Basis Dimension        Dim             ....  322

ORBITAL ENERGIES
----------------

  NO   OCC          E(Eh)            E(eV)
   0   2.0000     -88.971153     -2421.0282
   1   2.0000     -88.959942     -2420.7231
   2   2.0000     -10.336005      -281.2570
   3   2.0000     -10.328139      -281.0429
   4   2.0000     -10.321701      -280.8678
   5   2.0000     -10.311162      -280.5810
   6   2.0000     -10.307504      -280.4814
   7   2.0000     -10.299516      -280.2641
   8   2.0000     -10.297754      -280.2161
   9   2.0000     -10.296285      -280.1762
  10   2.0000     -10.292166      -280.0641
  11   2.0000     -10.285402      -279.8800
  12   2.0000     -10.285324      -279.8779
  13   2.0000     -10.280104      -279.7359
  14   2.0000     -10.279120      -279.7091
  15   2.0000     -10.273033      -279.5435
  16   2.0000      -8.085846      -220.0270
  17   2.0000      -8.076639      -219.7765
  18   2.0000      -6.044097      -164.4683
  19   2.0000      -6.040493      -164.3702
  20   2.0000      -6.036745      -164.2682
  21   2.0000      -6.035028      -164.2215
  22   2.0000      -6.030960      -164.1108
  23   2.0000      -6.027336      -164.0121
  24   2.0000      -1.013013       -27.5655
  25   2.0000      -0.987302       -26.8658
  26   2.0000      -0.915712       -24.9178
  27   2.0000      -0.909042       -24.7363
  28   2.0000      -0.872436       -23.7402
  29   2.0000      -0.852587       -23.2001
  30   2.0000      -0.851462       -23.1695
  31   2.0000      -0.815839       -22.2001
  32   2.0000      -0.786068       -21.3900
  33   2.0000      -0.771199       -20.9854
  34   2.0000      -0.709155       -19.2971
  35   2.0000      -0.696454       -18.9515
  36   2.0000      -0.679596       -18.4927
  37   2.0000      -0.664462       -18.0809
  38   2.0000      -0.643704       -17.5161
  39   2.0000      -0.624465       -16.9926
  40   2.0000      -0.602062       -16.3829
  41   2.0000      -0.578417       -15.7395
  42   2.0000      -0.564857       -15.3705
  43   2.0000      -0.561351       -15.2751
  44   2.0000      -0.527809       -14.3624
  45   2.0000      -0.523057       -14.2331
  46   2.0000      -0.514398       -13.9975
  47   2.0000      -0.513152       -13.9636
  48   2.0000      -0.509291       -13.8585
  49   2.0000      -0.497494       -13.5375
  50   2.0000      -0.493207       -13.4209
  51   2.0000      -0.488119       -13.2824
  52   2.0000      -0.480177       -13.0663
  53   2.0000      -0.468313       -12.7434
  54   2.0000      -0.458913       -12.4877
  55   2.0000      -0.456963       -12.4346
  56   2.0000      -0.449597       -12.2341
  57   2.0000      -0.437127       -11.8948
  58   2.0000      -0.426630       -11.6092
  59   2.0000      -0.421363       -11.4659
  60   2.0000      -0.414882       -11.2895
  61   2.0000      -0.408512       -11.1162
  62   2.0000      -0.405413       -11.0319
  63   2.0000      -0.356137        -9.6910
  64   2.0000      -0.337061        -9.1719
  65   2.0000      -0.327587        -8.9141
  66   2.0000      -0.280849        -7.6423
  67   0.0000       0.023936         0.6513
  68   0.0000       0.073135         1.9901
  69   0.0000       0.096443         2.6244
  70   0.0000       0.122552         3.3348
  71   0.0000       0.126445         3.4407

MULLIKEN ATOMIC CHARGES
-----------------------
   0 S :    0.091527
   1 C :   -0.138649
   2 C :   -0.080940
   3 C :    0.039146
   4 C :   -0.138018
   5 H :   -0.010814
   6 C :    0.162500
   7 H :    0.014991
   8 H :    0.026670
   9 C :   -0.146425
  10 H :    0.037353
  11 H :    0.021368
  12 C :   -0.044602
  13 H :    0.024561
  14 H :    0.022474
  15 H :    0.025786
  16 S :    0.106888
  17 C :   -0.116202
  18 C :   -0.009557
  19 C :   -0.019675
  20 C :   -0.142665
  21 H :    0.020686
  22 C :    0.015152
  23 H :    0.035312
  24 H :    0.019033
  25 C :   -0.078118
  26 H :    0.023734
  27 H :    0.028568
  28 C :   -0.017489
  29 H :    0.023490
  30 H :    0.054440
  31 H :    0.020803
  32 H :    0.058752
  33 H :    0.069921
Sum of atomic charges:   -0.0000000

LOEWDIN ATOMIC CHARGES
----------------------
   0 S :    0.417700
   1 C :   -0.215340
   2 C :   -0.062291
   3 C :   -0.066828
   4 C :   -0.193616
   5 H :    0.023473
   6 C :   -0.016538
   7 H :    0.025208
   8 H :    0.035255
   9 C :   -0.057403
  10 H :    0.026932
  11 H :    0.022578
  12 C :   -0.067233
  13 H :    0.028912
  14 H :    0.016102
  15 H :    0.023356
  16 S :    0.410860
  17 C :   -0.180634
  18 C :   -0.065582
  19 C :   -0.055466
  20 C :   -0.197701
  21 H :    0.035536
  22 C :   -0.045477
  23 H :    0.029301
  24 H :    0.035959
  25 C :   -0.035590
  26 H :    0.025137
  27 H :    0.016363
  28 C :   -0.057470
  29 H :    0.025234
  30 H :    0.033470
  31 H :    0.020311
  32 H :    0.034882
  33 H :    0.030603

  Mayer bond orders larger than 0.100000
B(  0-S ,  1-C ) :   1.1471 B(  0-S ,  4-C ) :   1.1665 B(  1-C ,  2-C ) :   1.6115
B(  1-C , 32-H ) :   0.9715 B(  2-C ,  3-C ) :   1.2430 B(  2-C ,  6-C ) :   1.0124
B(  3-C ,  4-C ) :   1.5635 B(  3-C ,  5-H ) :   1.0050 B(  4-C , 20-C ) :   1.0206
B(  6-C ,  7-H ) :   0.9575 B(  6-C ,  8-H ) :   0.9175 B(  6-C ,  9-C ) :   1.0478
B(  9-C , 10-H ) :   0.9607 B(  9-C , 11-H ) :   0.9477 B(  9-C , 12-C ) :   1.0916
B( 12-C , 13-H ) :   0.9693 B( 12-C , 14-H ) :   0.9755 B( 12-C , 15-H ) :   0.9716
B( 16-S , 17-C ) :   1.1582 B( 16-S , 20-C ) :   1.1733 B( 17-C , 18-C ) :   1.5743
B( 17-C , 20-C ) :   0.1090 B( 17-C , 33-H ) :   0.9664 B( 18-C , 19-C ) :   1.2829
B( 18-C , 21-H ) :   0.9890 B( 19-C , 20-C ) :   1.5366 B( 19-C , 22-C ) :   1.0309
B( 22-C , 23-H ) :   0.9301 B( 22-C , 24-H ) :   0.9404 B( 22-C , 25-C ) :   1.0567
B( 25-C , 26-H ) :   0.9509 B( 25-C , 27-H ) :   0.9593 B( 25-C , 28-C ) :   1.0723
B( 28-C , 29-H ) :   0.9725 B( 28-C , 30-H ) :   0.9749 B( 28-C , 31-H ) :   0.9725

Dispersion correction           -0.014662973
FINAL SINGLE POINT ENERGY     -1339.844546265434

DIPOLE MOMENT
-------------
                                X             Y             Z
Electronic contribution:     15.80893      17.99800     -23.69360
Nuclear contribution   :    -16.28800     -18.26787      24.07796
                        -----------------------------------------
Total Dipole Moment    :     -0.47906      -0.26987       0.38436
                        -----------------------------------------
Magnitude (a.u.)       :      0.67087
Magnitude (Debye)      :      1.70521

Rotational constants in cm-1:     0.018033     0.009754     0.006891
Rotational constants in MHz :   540.622012   292.417676   206.578008

                             ****ORCA TERMINATED NORMALLY****
TOTAL RUN TIME: 0 days 0 hours 0 minutes 35 seconds 369 msec
