                         Program Version 4.2.1 -  RELEASE  -
|  1> ! wB97X-D3 SP def2-SVP
|  2> %pal
|  3> nprocs 16
|  4> end
|  5>
|  6> * xyz 0 1
|  7> S 	 -9.63017 	 72.1695 	 48.4034
|  8> C 	 -9.87044 	 71.6943 	 46.7674
|  9> C 	 -11.1907 	 71.5631 	 46.4227
| 10> C 	 -12.041 	 71.9204 	 47.5178
| 11> C 	 -11.4088 	 72.4679 	 48.6347
| 12> H 	 -13.1508 	 71.9498 	 47.4433
| 13> C 	 -11.8305 	 71.1101 	 45.1159
| 14> H 	 -11.5631 	 71.7602 	 44.2712
| 15> H 	 -12.9392 	 71.2785 	 45.2457
| 16> C 	 -11.5887 	 69.6366 	 44.7241
| 17> H 	 -10.552 	 69.4764 	 44.5769
| 18> H 	 -11.9832 	 68.9233 	 45.5249
| 19> C 	 -12.2812 	 69.1519 	 43.478
| 20> H 	 -12.2288 	 69.8409 	 42.6196
| 21> H 	 -11.942 	 68.1625 	 43.0785
| 22> H 	 -13.3116 	 68.9126 	 43.7702
| 23> S 	 -12.5652 	 71.6162 	 50.9601
| 24> C 	 -13.2766 	 72.7077 	 52.1636
| 25> C 	 -13.0126 	 74.0046 	 51.7011
| 26> C 	 -12.3061 	 74.0921 	 50.4564
| 27> C 	 -12.0416 	 72.8687 	 49.9004
| 28> H 	 -13.4288 	 74.83 	 52.2967
| 29> C 	 -11.8663 	 75.4029 	 49.8035
| 30> H 	 -10.9881 	 75.1595 	 49.2181
| 31> H 	 -11.4263 	 76.2216 	 50.4919
| 32> C 	 -12.8348 	 76.0155 	 48.8073
| 33> H 	 -13.6865 	 76.3099 	 49.4028
| 34> H 	 -13.1684 	 75.3806 	 48.0188
| 35> C 	 -12.4484 	 77.3655 	 48.1902
| 36> H 	 -13.3 	 77.8907 	 47.7786
| 37> H 	 -11.8064 	 77.1624 	 47.3057
| 38> H 	 -12.0539 	 77.9459 	 48.9899
| 39> H 	 -9.11062 	 71.3921 	 46.0703
| 40> H 	 -13.7067 	 72.4179 	 53.0728
| 41> *
| 42>
| 43>                          ****END OF INPUT****

CARTESIAN COORDINATES (ANGSTROEM)
---------------------------------
  S     -9.630170   72.169500   48.403400
  C     -9.870440   71.694300   46.767400
  C    -11.190700   71.563100   46.422700
  C    -12.041000   71.920400   47.517800
  C    -11.408800   72.467900   48.634700
  H    -13.150800   71.949800   47.443300
  C    -11.830500   71.110100   45.115900
  H    -11.563100   71.760200   44.271200
  H    -12.939200   71.278500   45.245700
  C    -11.588700   69.636600   44.724100
  H    -10.552000   69.476400   44.576900
  H    -11.983200   68.923300   45.524900
  C    -12.281200   69.151900   43.478000
  H    -12.228800   69.840900   42.619600
  H    -11.942000   68.162500   43.078500
  H    -13.311600   68.912600   43.770200
  S    -12.565200   71.616200   50.960100
  C    -13.276600   72.707700   52.163600
  C    -13.012600   74.004600   51.701100
  C    -12.306100   74.092100   50.456400
  C    -12.041600   72.868700   49.900400
  H    -13.428800   74.830000   52.296700
  C    -11.866300   75.402900   49.803500
  H    -10.988100   75.159500   49.218100
  H    -11.426300   76.221600   50.491900
  C    -12.834800   76.015500   48.807300
  H    -13.686500   76.309900   49.402800
  H    -13.168400   75.380600   48.018800
  C    -12.448400   77.365500   48.190200
  H    -13.300000   77.890700   47.778600
  H    -11.806400   77.162400   47.305700
  H    -12.053900   77.945900   48.989900
  H     -9.110620   71.392100   46.070300
  H    -13.706700   72.417900   53.072800

 Total Charge           Charge          ....    0
 Multiplicity           Mult            ....    1
 Number of Electrons    NEL             ....  134
 Basis Dimension        Dim             ....  322

ORBITAL ENERGIES
----------------

  NO   OCC          E(Eh)            E(eV)
   0   2.0000     -88.969381     -2420.9799
   1   2.0000     -88.962815     -2420.8013
   2   2.0000     -10.336784      -281.2782
   3   2.0000     -10.326332      -280.9938
   4   2.0000     -10.320482      -280.8346
   5   2.0000     -10.315331      -280.6944
   6   2.0000     -10.305596      -280.4295
   7   2.0000     -10.301464      -280.3171
   8   2.0000     -10.301426      -280.3161
   9   2.0000     -10.301171      -280.3091
  10   2.0000     -10.299402      -280.2610
  11   2.0000     -10.293253      -280.0937
  12   2.0000     -10.288995      -279.9778
  13   2.0000     -10.281677      -279.7787
  14   2.0000     -10.274344      -279.5791
  15   2.0000     -10.272671      -279.5336
  16   2.0000      -8.083314      -219.9582
  17   2.0000      -8.077722      -219.8060
  18   2.0000      -6.041907      -164.4086
  19   2.0000      -6.037940      -164.3007
  20   2.0000      -6.036220      -164.2539
  21   2.0000      -6.034005      -164.1936
  22   2.0000      -6.031957      -164.1379
  23   2.0000      -6.028688      -164.0489
  24   2.0000      -1.005629       -27.3646
  25   2.0000      -0.985083       -26.8055
  26   2.0000      -0.909822       -24.7575
  27   2.0000      -0.906551       -24.6685
  28   2.0000      -0.871331       -23.7101
  29   2.0000      -0.851691       -23.1757
  30   2.0000      -0.847886       -23.0721
  31   2.0000      -0.815010       -22.1776
  32   2.0000      -0.778939       -21.1960
  33   2.0000      -0.771726       -20.9997
  34   2.0000      -0.707278       -19.2460
  35   2.0000      -0.695360       -18.9217
  36   2.0000      -0.690092       -18.7784
  37   2.0000      -0.663353       -18.0507
  38   2.0000      -0.640323       -17.4241
  39   2.0000      -0.616821       -16.7845
  40   2.0000      -0.595493       -16.2042
  41   2.0000      -0.571779       -15.5589
  42   2.0000      -0.571093       -15.5402
  43   2.0000      -0.566862       -15.4251
  44   2.0000      -0.525786       -14.3074
  45   2.0000      -0.521711       -14.1965
  46   2.0000      -0.516645       -14.0586
  47   2.0000      -0.512923       -13.9573
  48   2.0000      -0.507933       -13.8216
  49   2.0000      -0.502088       -13.6625
  50   2.0000      -0.493158       -13.4195
  51   2.0000      -0.479666       -13.0524
  52   2.0000      -0.466378       -12.6908
  53   2.0000      -0.465235       -12.6597
  54   2.0000      -0.462657       -12.5895
  55   2.0000      -0.449467       -12.2306
  56   2.0000      -0.441658       -12.0181
  57   2.0000      -0.432578       -11.7710
  58   2.0000      -0.427294       -11.6272
  59   2.0000      -0.425310       -11.5733
  60   2.0000      -0.415444       -11.3048
  61   2.0000      -0.415078       -11.2949
  62   2.0000      -0.397209       -10.8086
  63   2.0000      -0.337758        -9.1909
  64   2.0000      -0.331051        -9.0083
  65   2.0000      -0.323820        -8.8116
  66   2.0000      -0.312667        -8.5081
  67   0.0000       0.038669         1.0522
  68   0.0000       0.048843         1.3291
  69   0.0000       0.111994         3.0475
  70   0.0000       0.125015         3.4018
  71   0.0000       0.126279         3.4362

MULLIKEN ATOMIC CHARGES
-----------------------
   0 S :    0.117313
   1 C :   -0.101530
   2 C :   -0.079354
   3 C :    0.018209
   4 C :   -0.163399
   5 H :    0.034319
   6 C :    0.052099
   7 H :    0.037793
   8 H :    0.024373
   9 C :   -0.074329
  10 H :    0.022262
  11 H :    0.042141
  12 C :   -0.067500
  13 H :    0.033318
  14 H :    0.035480
  15 H :    0.029482
  16 S :    0.109877
  17 C :   -0.089103
  18 C :   -0.048688
  19 C :    0.006316
  20 C :   -0.176864
  21 H :    0.029575
  22 C :    0.049188
  23 H :    0.012773
  24 H :    0.038551
  25 C :   -0.068068
  26 H :    0.011840
  27 H :    0.024763
  28 C :   -0.040187
  29 H :    0.029385
  30 H :    0.038985
  31 H :    0.023974
  32 H :    0.041390
  33 H :    0.045616
Sum of atomic charges:    0.0000000

LOEWDIN ATOMIC CHARGES
----------------------
   0 S :    0.397284
   1 C :   -0.192977
   2 C :   -0.073695
   3 C :   -0.051992
   4 C :   -0.187709
   5 H :    0.037620
   6 C :   -0.033588
   7 H :    0.033391
   8 H :    0.034285
   9 C :   -0.046125
  10 H :    0.015199
  11 H :    0.036564
  12 C :   -0.074324
  13 H :    0.022769
  14 H :    0.031868
  15 H :    0.025564
  16 S :    0.416534
  17 C :   -0.172911
  18 C :   -0.071024
  19 C :   -0.056388
  20 C :   -0.210681
  21 H :    0.034586
  22 C :   -0.039904
  23 H :    0.025426
  24 H :    0.040142
  25 C :   -0.042014
  26 H :    0.019176
  27 H :    0.020005
  28 C :   -0.060914
  29 H :    0.025593
  30 H :    0.028277
  31 H :    0.019578
  32 H :    0.028820
  33 H :    0.021563

  Mayer bond orders larger than 0.100000
B(  0-S ,  1-C ) :   1.1564 B(  0-S ,  4-C ) :   1.1209 B(  1-C ,  2-C ) :   1.6132
B(  1-C , 32-H ) :   0.9643 B(  2-C ,  3-C ) :   1.2609 B(  2-C ,  6-C ) :   1.0145
B(  3-C ,  4-C ) :   1.5923 B(  3-C ,  5-H ) :   0.9790 B(  4-C , 20-C ) :   1.0212
B(  6-C ,  7-H ) :   0.9360 B(  6-C ,  8-H ) :   0.9450 B(  6-C ,  9-C ) :   1.0619
B(  9-C , 10-H ) :   0.9582 B(  9-C , 11-H ) :   0.9575 B(  9-C , 12-C ) :   1.0834
B( 12-C , 13-H ) :   0.9728 B( 12-C , 14-H ) :   0.9723 B( 12-C , 15-H ) :   0.9778
B( 16-S , 17-C ) :   1.1594 B( 16-S , 20-C ) :   1.1632 B( 17-C , 18-C ) :   1.5805
B( 17-C , 20-C ) :   0.1037 B( 17-C , 33-H ) :   0.9810 B( 18-C , 19-C ) :   1.2510
B( 18-C , 21-H ) :   0.9897 B( 19-C , 20-C ) :   1.5923 B( 19-C , 22-C ) :   1.0407
B( 22-C , 23-H ) :   0.9233 B( 22-C , 24-H ) :   0.9397 B( 22-C , 25-C ) :   1.0682
B( 25-C , 26-H ) :   0.9563 B( 25-C , 27-H ) :   0.9555 B( 25-C , 28-C ) :   1.0868
B( 28-C , 29-H ) :   0.9747 B( 28-C , 30-H ) :   0.9772 B( 28-C , 31-H ) :   0.9727

Dispersion correction           -0.013616596
FINAL SINGLE POINT ENERGY     -1339.872717796199

DIPOLE MOMENT
-------------
                                X             Y             Z
Electronic contribution:      7.43918      -7.23145      21.24226
Nuclear contribution   :     -7.72557       7.33166     -21.60631
                        -----------------------------------------
Total Dipole Moment    :     -0.28639       0.10021      -0.36405
                        -----------------------------------------
Magnitude (a.u.)       :      0.47391
Magnitude (Debye)      :      1.20459

Rotational constants in cm-1:     0.018639     0.007488     0.006450
Rotational constants in MHz :   558.795635   224.472014   193.361590

                             ****ORCA TERMINATED NORMALLY****
TOTAL RUN TIME: 0 days 0 hours 0 minutes 32 seconds 4 msec
