                         Program Version 4.2.1 -  RELEASE  -
|  1> ! wB97X-D3 SP def2-SVP
|  2> %pal
|  3> nprocs 16
|  4> end
|  5>
|  6> * xyz 0 1
|  7> S 	 -69.0052 	 40.4345 	 138.539
|  8> C 	 -67.3162 	 40.9949 	 138.382
|  9> C 	 -66.5134 	 39.8715 	 138.241
| 10> C 	 -67.2011 	 38.6899 	 138.535
| 11> C 	 -68.5566 	 38.7711 	 138.666
| 12> H 	 -66.8082 	 37.7142 	 138.547
| 13> C 	 -65.0467 	 39.8246 	 137.808
| 14> H 	 -64.9387 	 40.7386 	 137.223
| 15> H 	 -64.9261 	 39.069 	 137.081
| 16> C 	 -63.8632 	 39.865 	 138.821
| 17> H 	 -62.8801 	 39.7202 	 138.254
| 18> H 	 -63.8925 	 40.8379 	 139.193
| 19> C 	 -63.9316 	 38.7726 	 139.981
| 20> H 	 -63.914 	 37.8084 	 139.451
| 21> H 	 -63.0158 	 38.9136 	 140.667
| 22> H 	 -64.8919 	 38.7305 	 140.44
| 23> S 	 -70.1929 	 37.6201 	 140.496
| 24> C 	 -71.0104 	 36.1456 	 140.211
| 25> C 	 -70.7344 	 35.7565 	 138.943
| 26> C 	 -69.7643 	 36.5362 	 138.278
| 27> C 	 -69.4966 	 37.7167 	 138.934
| 28> H 	 -71.1522 	 34.8079 	 138.606
| 29> C 	 -69.1613 	 36.1577 	 136.899
| 30> H 	 -68.9247 	 37.1548 	 136.499
| 31> H 	 -69.9786 	 35.7175 	 136.288
| 32> C 	 -67.943 	 35.2894 	 136.976
| 33> H 	 -67.1989 	 35.9142 	 137.429
| 34> H 	 -67.5584 	 35.1408 	 135.975
| 35> C 	 -68.17 	 33.9665 	 137.775
| 36> H 	 -68.3991 	 33.9079 	 138.794
| 37> H 	 -67.1959 	 33.4785 	 137.808
| 38> H 	 -68.8451 	 33.2601 	 137.317
| 39> H 	 -67.0557 	 42.0217 	 138.129
| 40> H 	 -71.4905 	 35.567 	 140.984
| 41> *
| 42>
| 43>                          ****END OF INPUT****

CARTESIAN COORDINATES (ANGSTROEM)
---------------------------------
  S    -69.005200   40.434500  138.539000
  C    -67.316200   40.994900  138.382000
  C    -66.513400   39.871500  138.241000
  C    -67.201100   38.689900  138.535000
  C    -68.556600   38.771100  138.666000
  H    -66.808200   37.714200  138.547000
  C    -65.046700   39.824600  137.808000
  H    -64.938700   40.738600  137.223000
  H    -64.926100   39.069000  137.081000
  C    -63.863200   39.865000  138.821000
  H    -62.880100   39.720200  138.254000
  H    -63.892500   40.837900  139.193000
  C    -63.931600   38.772600  139.981000
  H    -63.914000   37.808400  139.451000
  H    -63.015800   38.913600  140.667000
  H    -64.891900   38.730500  140.440000
  S    -70.192900   37.620100  140.496000
  C    -71.010400   36.145600  140.211000
  C    -70.734400   35.756500  138.943000
  C    -69.764300   36.536200  138.278000
  C    -69.496600   37.716700  138.934000
  H    -71.152200   34.807900  138.606000
  C    -69.161300   36.157700  136.899000
  H    -68.924700   37.154800  136.499000
  H    -69.978600   35.717500  136.288000
  C    -67.943000   35.289400  136.976000
  H    -67.198900   35.914200  137.429000
  H    -67.558400   35.140800  135.975000
  C    -68.170000   33.966500  137.775000
  H    -68.399100   33.907900  138.794000
  H    -67.195900   33.478500  137.808000
  H    -68.845100   33.260100  137.317000
  H    -67.055700   42.021700  138.129000
  H    -71.490500   35.567000  140.984000

 Total Charge           Charge          ....    0
 Multiplicity           Mult            ....    1
 Number of Electrons    NEL             ....  134
 Basis Dimension        Dim             ....  322

ORBITAL ENERGIES
----------------

  NO   OCC          E(Eh)            E(eV)
   0   2.0000     -88.964840     -2420.8564
   1   2.0000     -88.959624     -2420.7144
   2   2.0000     -10.325831      -280.9801
   3   2.0000     -10.320802      -280.8433
   4   2.0000     -10.320071      -280.8234
   5   2.0000     -10.312064      -280.6055
   6   2.0000     -10.303798      -280.3806
   7   2.0000     -10.300415      -280.2885
   8   2.0000     -10.293063      -280.0885
   9   2.0000     -10.290712      -280.0245
  10   2.0000     -10.290579      -280.0209
  11   2.0000     -10.288980      -279.9774
  12   2.0000     -10.288470      -279.9635
  13   2.0000     -10.285239      -279.8756
  14   2.0000     -10.284560      -279.8571
  15   2.0000     -10.274200      -279.5752
  16   2.0000      -8.079515      -219.8548
  17   2.0000      -8.076157      -219.7634
  18   2.0000      -6.038010      -164.3026
  19   2.0000      -6.034471      -164.2063
  20   2.0000      -6.033941      -164.1919
  21   2.0000      -6.030350      -164.0942
  22   2.0000      -6.030285      -164.0924
  23   2.0000      -6.027099      -164.0057
  24   2.0000      -1.018159       -27.7055
  25   2.0000      -0.993297       -27.0290
  26   2.0000      -0.911441       -24.8016
  27   2.0000      -0.906812       -24.6756
  28   2.0000      -0.873361       -23.7654
  29   2.0000      -0.846066       -23.0226
  30   2.0000      -0.842045       -22.9132
  31   2.0000      -0.818951       -22.2848
  32   2.0000      -0.789110       -21.4728
  33   2.0000      -0.779522       -21.2119
  34   2.0000      -0.712164       -19.3790
  35   2.0000      -0.703516       -19.1437
  36   2.0000      -0.699006       -19.0209
  37   2.0000      -0.662562       -18.0292
  38   2.0000      -0.647131       -17.6093
  39   2.0000      -0.617541       -16.8042
  40   2.0000      -0.590308       -16.0631
  41   2.0000      -0.574541       -15.6341
  42   2.0000      -0.561627       -15.2827
  43   2.0000      -0.550298       -14.9744
  44   2.0000      -0.544914       -14.8279
  45   2.0000      -0.537060       -14.6141
  46   2.0000      -0.514680       -14.0051
  47   2.0000      -0.513745       -13.9797
  48   2.0000      -0.507195       -13.8015
  49   2.0000      -0.500585       -13.6216
  50   2.0000      -0.494158       -13.4467
  51   2.0000      -0.483926       -13.1683
  52   2.0000      -0.475596       -12.9416
  53   2.0000      -0.471843       -12.8395
  54   2.0000      -0.460806       -12.5392
  55   2.0000      -0.443483       -12.0678
  56   2.0000      -0.435608       -11.8535
  57   2.0000      -0.434951       -11.8356
  58   2.0000      -0.431084       -11.7304
  59   2.0000      -0.424299       -11.5458
  60   2.0000      -0.417724       -11.3669
  61   2.0000      -0.415983       -11.3195
  62   2.0000      -0.410325       -11.1655
  63   2.0000      -0.344047        -9.3620
  64   2.0000      -0.332751        -9.0546
  65   2.0000      -0.325837        -8.8665
  66   2.0000      -0.304863        -8.2957
  67   0.0000       0.037071         1.0087
  68   0.0000       0.062778         1.7083
  69   0.0000       0.109999         2.9932
  70   0.0000       0.126870         3.4523
  71   0.0000       0.138603         3.7716

MULLIKEN ATOMIC CHARGES
-----------------------
   0 S :    0.105297
   1 C :   -0.125195
   2 C :   -0.087959
   3 C :    0.050445
   4 C :   -0.170077
   5 H :   -0.018587
   6 C :    0.066393
   7 H :    0.013340
   8 H :    0.019050
   9 C :   -0.056804
  10 H :    0.042405
  11 H :    0.018943
  12 C :   -0.077134
  13 H :    0.024404
  14 H :    0.061408
  15 H :    0.043457
  16 S :    0.110219
  17 C :   -0.093514
  18 C :   -0.029904
  19 C :   -0.061262
  20 C :   -0.146653
  21 H :    0.014416
  22 C :    0.048671
  23 H :    0.033039
  24 H :    0.032377
  25 C :    0.001753
  26 H :    0.000040
  27 H :    0.030073
  28 C :   -0.044061
  29 H :    0.029098
  30 H :    0.020942
  31 H :    0.025460
  32 H :    0.058222
  33 H :    0.061697
Sum of atomic charges:    0.0000000

LOEWDIN ATOMIC CHARGES
----------------------
   0 S :    0.406847
   1 C :   -0.185670
   2 C :   -0.063256
   3 C :   -0.064988
   4 C :   -0.201827
   5 H :    0.019414
   6 C :   -0.032743
   7 H :    0.033103
   8 H :    0.023040
   9 C :   -0.032758
  10 H :    0.034087
  11 H :    0.011603
  12 C :   -0.074111
  13 H :    0.024209
  14 H :    0.039975
  15 H :    0.021694
  16 S :    0.440680
  17 C :   -0.194165
  18 C :   -0.078470
  19 C :   -0.053263
  20 C :   -0.221538
  21 H :    0.030483
  22 C :   -0.032214
  23 H :    0.032847
  24 H :    0.030625
  25 C :   -0.032446
  26 H :    0.019109
  27 H :    0.029005
  28 C :   -0.069431
  29 H :    0.021828
  30 H :    0.030609
  31 H :    0.023763
  32 H :    0.030898
  33 H :    0.033061

  Mayer bond orders larger than 0.100000
B(  0-S ,  1-C ) :   1.1438 B(  0-S ,  4-C ) :   1.1622 B(  1-C ,  2-C ) :   1.5880
B(  1-C ,  4-C ) :   0.1052 B(  1-C , 32-H ) :   0.9689 B(  2-C ,  3-C ) :   1.2451
B(  2-C ,  6-C ) :   1.0095 B(  3-C ,  4-C ) :   1.5780 B(  3-C ,  5-H ) :   1.0031
B(  4-C , 20-C ) :   1.0051 B(  6-C ,  7-H ) :   0.9366 B(  6-C ,  8-H ) :   0.9448
B(  6-C ,  9-C ) :   1.0687 B(  9-C , 10-H ) :   0.9556 B(  9-C , 11-H ) :   0.9595
B(  9-C , 12-C ) :   1.0686 B( 12-C , 13-H ) :   0.9755 B( 12-C , 14-H ) :   0.9751
B( 12-C , 15-H ) :   0.9751 B( 16-S , 17-C ) :   1.1791 B( 16-S , 20-C ) :   1.1667
B( 17-C , 18-C ) :   1.5722 B( 17-C , 20-C ) :   0.1025 B( 17-C , 33-H ) :   0.9716
B( 18-C , 19-C ) :   1.2695 B( 18-C , 21-H ) :   0.9907 B( 19-C , 20-C ) :   1.5791
B( 19-C , 22-C ) :   1.0204 B( 22-C , 23-H ) :   0.9332 B( 22-C , 24-H ) :   0.9440
B( 22-C , 25-C ) :   1.0840 B( 25-C , 26-H ) :   0.9468 B( 25-C , 27-H ) :   0.9485
B( 25-C , 28-C ) :   1.0697 B( 28-C , 29-H ) :   0.9723 B( 28-C , 30-H ) :   0.9700
B( 28-C , 31-H ) :   0.9770

Dispersion correction           -0.015348129
FINAL SINGLE POINT ENERGY     -1339.863922712350

DIPOLE MOMENT
-------------
                                X             Y             Z
Electronic contribution:    -22.04458      12.81069       7.42831
Nuclear contribution   :     22.54783     -13.29506      -7.75546
                        -----------------------------------------
Total Dipole Moment    :      0.50325      -0.48438      -0.32715
                        -----------------------------------------
Magnitude (a.u.)       :      0.77130
Magnitude (Debye)      :      1.96050

Rotational constants in cm-1:     0.018635     0.009228     0.007540
Rotational constants in MHz :   558.672962   276.657832   226.041858

                             ****ORCA TERMINATED NORMALLY****
TOTAL RUN TIME: 0 days 0 hours 0 minutes 36 seconds 590 msec
