                         Program Version 4.2.1 -  RELEASE  -
|  1> ! wB97X-D3 SP def2-SVP
|  2> %pal
|  3> nprocs 16
|  4> end
|  5>
|  6> * xyz 0 1
|  7> S 	 -10.7622 	 49.442 	 43.3945
|  8> C 	 -12.0612 	 50.28 	 42.4035
|  9> C 	 -12.8775 	 51.042 	 43.2425
| 10> C 	 -12.5363 	 50.8283 	 44.5967
| 11> C 	 -11.5168 	 49.9594 	 44.8771
| 12> H 	 -13.0575 	 51.2698 	 45.3804
| 13> C 	 -13.8465 	 52.0952 	 42.8093
| 14> H 	 -14.3091 	 52.4508 	 43.7828
| 15> H 	 -14.5453 	 51.5256 	 42.1673
| 16> C 	 -13.2837 	 53.2435 	 41.9497
| 17> H 	 -12.4377 	 53.7716 	 42.4261
| 18> H 	 -13.043 	 52.7924 	 40.9738
| 19> C 	 -14.2927 	 54.2483 	 41.5539
| 20> H 	 -13.8558 	 54.9132 	 40.8648
| 21> H 	 -15.0828 	 53.8266 	 40.954
| 22> H 	 -14.8224 	 54.7969 	 42.3632
| 23> S 	 -9.31708 	 49.0998 	 46.2542
| 24> C 	 -9.41978 	 48.9399 	 47.9767
| 25> C 	 -10.6949 	 49.0479 	 48.4634
| 26> C 	 -11.6058 	 49.614 	 47.4924
| 27> C 	 -11.0125 	 49.5665 	 46.2179
| 28> H 	 -10.912 	 48.7835 	 49.4181
| 29> C 	 -13.0213 	 50.0276 	 47.8058
| 30> H 	 -13.3523 	 49.3486 	 48.5855
| 31> H 	 -13.7154 	 50.0119 	 46.9787
| 32> C 	 -13.0719 	 51.489 	 48.2719
| 33> H 	 -12.7834 	 52.091 	 47.4347
| 34> H 	 -12.4091 	 51.8063 	 49.1605
| 35> C 	 -14.4118 	 51.9648 	 48.8062
| 36> H 	 -14.8089 	 51.3147 	 49.5795
| 37> H 	 -15.1343 	 52.0292 	 47.9841
| 38> H 	 -14.2315 	 52.9576 	 49.2933
| 39> H 	 -12.2879 	 50.1427 	 41.3385
| 40> H 	 -8.6361 	 48.6268 	 48.5812
| 41> *
| 42>
| 43>                          ****END OF INPUT****

CARTESIAN COORDINATES (ANGSTROEM)
---------------------------------
  S    -10.762200   49.442000   43.394500
  C    -12.061200   50.280000   42.403500
  C    -12.877500   51.042000   43.242500
  C    -12.536300   50.828300   44.596700
  C    -11.516800   49.959400   44.877100
  H    -13.057500   51.269800   45.380400
  C    -13.846500   52.095200   42.809300
  H    -14.309100   52.450800   43.782800
  H    -14.545300   51.525600   42.167300
  C    -13.283700   53.243500   41.949700
  H    -12.437700   53.771600   42.426100
  H    -13.043000   52.792400   40.973800
  C    -14.292700   54.248300   41.553900
  H    -13.855800   54.913200   40.864800
  H    -15.082800   53.826600   40.954000
  H    -14.822400   54.796900   42.363200
  S     -9.317080   49.099800   46.254200
  C     -9.419780   48.939900   47.976700
  C    -10.694900   49.047900   48.463400
  C    -11.605800   49.614000   47.492400
  C    -11.012500   49.566500   46.217900
  H    -10.912000   48.783500   49.418100
  C    -13.021300   50.027600   47.805800
  H    -13.352300   49.348600   48.585500
  H    -13.715400   50.011900   46.978700
  C    -13.071900   51.489000   48.271900
  H    -12.783400   52.091000   47.434700
  H    -12.409100   51.806300   49.160500
  C    -14.411800   51.964800   48.806200
  H    -14.808900   51.314700   49.579500
  H    -15.134300   52.029200   47.984100
  H    -14.231500   52.957600   49.293300
  H    -12.287900   50.142700   41.338500
  H     -8.636100   48.626800   48.581200

 Total Charge           Charge          ....    0
 Multiplicity           Mult            ....    1
 Number of Electrons    NEL             ....  134
 Basis Dimension        Dim             ....  322

ORBITAL ENERGIES
----------------

  NO   OCC          E(Eh)            E(eV)
   0   2.0000     -88.966919     -2420.9130
   1   2.0000     -88.966591     -2420.9040
   2   2.0000     -10.331491      -281.1342
   3   2.0000     -10.330203      -281.0991
   4   2.0000     -10.319173      -280.7990
   5   2.0000     -10.310886      -280.5735
   6   2.0000     -10.309141      -280.5260
   7   2.0000     -10.299481      -280.2631
   8   2.0000     -10.298950      -280.2487
   9   2.0000     -10.295583      -280.1571
  10   2.0000     -10.289887      -280.0021
  11   2.0000     -10.289828      -280.0005
  12   2.0000     -10.289420      -279.9894
  13   2.0000     -10.282408      -279.7985
  14   2.0000     -10.281694      -279.7791
  15   2.0000     -10.271817      -279.5103
  16   2.0000      -8.081983      -219.9220
  17   2.0000      -8.080020      -219.8685
  18   2.0000      -6.040480      -164.3698
  19   2.0000      -6.038800      -164.3241
  20   2.0000      -6.036641      -164.2654
  21   2.0000      -6.034798      -164.2152
  22   2.0000      -6.032566      -164.1545
  23   2.0000      -6.030494      -164.0981
  24   2.0000      -1.004954       -27.3462
  25   2.0000      -0.981251       -26.7012
  26   2.0000      -0.918179       -24.9849
  27   2.0000      -0.915525       -24.9127
  28   2.0000      -0.872570       -23.7438
  29   2.0000      -0.856251       -23.2998
  30   2.0000      -0.846903       -23.0454
  31   2.0000      -0.816815       -22.2267
  32   2.0000      -0.786636       -21.4055
  33   2.0000      -0.773256       -21.0414
  34   2.0000      -0.704964       -19.1830
  35   2.0000      -0.698440       -19.0055
  36   2.0000      -0.690031       -18.7767
  37   2.0000      -0.669882       -18.2284
  38   2.0000      -0.635249       -17.2860
  39   2.0000      -0.625430       -17.0188
  40   2.0000      -0.602739       -16.4014
  41   2.0000      -0.577691       -15.7198
  42   2.0000      -0.571729       -15.5575
  43   2.0000      -0.561370       -15.2756
  44   2.0000      -0.529632       -14.4120
  45   2.0000      -0.526753       -14.3337
  46   2.0000      -0.523733       -14.2515
  47   2.0000      -0.515884       -14.0379
  48   2.0000      -0.508518       -13.8375
  49   2.0000      -0.500824       -13.6281
  50   2.0000      -0.496049       -13.4982
  51   2.0000      -0.481199       -13.0941
  52   2.0000      -0.473496       -12.8845
  53   2.0000      -0.464355       -12.6357
  54   2.0000      -0.457891       -12.4598
  55   2.0000      -0.452883       -12.3236
  56   2.0000      -0.444843       -12.1048
  57   2.0000      -0.436195       -11.8695
  58   2.0000      -0.431691       -11.7469
  59   2.0000      -0.425916       -11.5898
  60   2.0000      -0.424844       -11.5606
  61   2.0000      -0.415682       -11.3113
  62   2.0000      -0.414398       -11.2763
  63   2.0000      -0.353867        -9.6292
  64   2.0000      -0.334527        -9.1029
  65   2.0000      -0.326975        -8.8974
  66   2.0000      -0.280005        -7.6193
  67   0.0000       0.021336         0.5806
  68   0.0000       0.071599         1.9483
  69   0.0000       0.095172         2.5898
  70   0.0000       0.119518         3.2522
  71   0.0000       0.126460         3.4412

MULLIKEN ATOMIC CHARGES
-----------------------
   0 S :    0.087438
   1 C :   -0.147257
   2 C :   -0.054991
   3 C :    0.004327
   4 C :   -0.074805
   5 H :   -0.055584
   6 C :    0.043443
   7 H :    0.031006
   8 H :    0.034345
   9 C :   -0.061533
  10 H :    0.045649
  11 H :    0.024282
  12 C :   -0.022893
  13 H :    0.021843
  14 H :    0.009009
  15 H :    0.032470
  16 S :    0.101042
  17 C :   -0.054371
  18 C :    0.017215
  19 C :   -0.064445
  20 C :   -0.120063
  21 H :   -0.023824
  22 C :    0.087415
  23 H :    0.020544
  24 H :    0.027900
  25 C :   -0.130000
  26 H :    0.032183
  27 H :    0.038569
  28 C :   -0.037345
  29 H :    0.030148
  30 H :    0.027097
  31 H :    0.043699
  32 H :    0.056099
  33 H :    0.031386
Sum of atomic charges:   -0.0000000

LOEWDIN ATOMIC CHARGES
----------------------
   0 S :    0.370169
   1 C :   -0.183158
   2 C :   -0.059440
   3 C :   -0.075897
   4 C :   -0.181988
   5 H :    0.012252
   6 C :   -0.035790
   7 H :    0.034376
   8 H :    0.038353
   9 C :   -0.039068
  10 H :    0.031075
  11 H :    0.030406
  12 C :   -0.066814
  13 H :    0.023147
  14 H :    0.021375
  15 H :    0.025706
  16 S :    0.403406
  17 C :   -0.173373
  18 C :   -0.049881
  19 C :   -0.045861
  20 C :   -0.185946
  21 H :    0.014168
  22 C :   -0.028382
  23 H :    0.031443
  24 H :    0.029453
  25 C :   -0.047874
  26 H :    0.017910
  27 H :    0.033390
  28 C :   -0.067371
  29 H :    0.022592
  30 H :    0.019909
  31 H :    0.034108
  32 H :    0.032103
  33 H :    0.015502

  Mayer bond orders larger than 0.100000
B(  0-S ,  1-C ) :   1.1135 B(  0-S ,  4-C ) :   1.1381 B(  1-C ,  2-C ) :   1.5988
B(  1-C ,  4-C ) :   0.1002 B(  1-C , 32-H ) :   0.9668 B(  2-C ,  3-C ) :   1.2599
B(  2-C ,  6-C ) :   1.0193 B(  3-C ,  4-C ) :   1.5675 B(  3-C ,  5-H ) :   0.9966
B(  4-C , 20-C ) :   1.0510 B(  6-C ,  7-H ) :   0.9443 B(  6-C ,  8-H ) :   0.9262
B(  6-C ,  9-C ) :   1.0778 B(  9-C , 10-H ) :   0.9579 B(  9-C , 11-H ) :   0.9435
B(  9-C , 12-C ) :   1.0999 B( 12-C , 13-H ) :   0.9694 B( 12-C , 14-H ) :   0.9671
B( 12-C , 15-H ) :   0.9713 B( 16-S , 17-C ) :   1.1492 B( 16-S , 20-C ) :   1.1327
B( 17-C , 18-C ) :   1.6306 B( 17-C , 33-H ) :   0.9714 B( 18-C , 19-C ) :   1.2174
B( 18-C , 21-H ) :   1.0014 B( 19-C , 20-C ) :   1.5986 B( 19-C , 22-C ) :   1.0539
B( 22-C , 23-H ) :   0.9294 B( 22-C , 24-H ) :   0.9347 B( 22-C , 25-C ) :   1.0514
B( 25-C , 26-H ) :   0.9517 B( 25-C , 27-H ) :   0.9600 B( 25-C , 28-C ) :   1.0833
B( 28-C , 29-H ) :   0.9738 B( 28-C , 30-H ) :   0.9714 B( 28-C , 31-H ) :   0.9765

Dispersion correction           -0.013691134
FINAL SINGLE POINT ENERGY     -1339.861873436477

DIPOLE MOMENT
-------------
                                X             Y             Z
Electronic contribution:     23.82234     -21.10212      -1.60936
Nuclear contribution   :    -24.38768      21.47165       1.87195
                        -----------------------------------------
Total Dipole Moment    :     -0.56535       0.36954       0.26259
                        -----------------------------------------
Magnitude (a.u.)       :      0.72466
Magnitude (Debye)      :      1.84193

Rotational constants in cm-1:     0.017860     0.008722     0.006199
Rotational constants in MHz :   535.415974   261.481585   185.846526

                             ****ORCA TERMINATED NORMALLY****
TOTAL RUN TIME: 0 days 0 hours 0 minutes 35 seconds 332 msec
