                         Program Version 4.2.1 -  RELEASE  -
|  1> ! wB97X-D3 SP def2-SVP
|  2> %pal
|  3> nprocs 16
|  4> end
|  5>
|  6> * xyz 0 1
|  7> S 	 -36.2964 	 70.8628 	 109.735
|  8> C 	 -36.1249 	 70.0003 	 108.262
|  9> C 	 -35.512 	 70.6939 	 107.261
| 10> C 	 -35.1106 	 72.0068 	 107.685
| 11> C 	 -35.5133 	 72.2747 	 108.987
| 12> H 	 -34.5684 	 72.7823 	 107.18
| 13> C 	 -35.0896 	 70.1111 	 105.888
| 14> H 	 -35.1602 	 70.7638 	 105.022
| 15> H 	 -35.8025 	 69.3929 	 105.748
| 16> C 	 -33.6996 	 69.4577 	 106.009
| 17> H 	 -33.0235 	 70.1698 	 106.557
| 18> H 	 -33.8602 	 68.4488 	 106.424
| 19> C 	 -32.9773 	 69.2722 	 104.711
| 20> H 	 -31.9869 	 68.994 	 105.083
| 21> H 	 -33.4195 	 68.5263 	 104.047
| 22> H 	 -32.7669 	 70.1886 	 104.1
| 23> S 	 -34.4688 	 73.4856 	 111.305
| 24> C 	 -34.2416 	 75.1762 	 111.423
| 25> C 	 -34.7224 	 75.8168 	 110.277
| 26> C 	 -35.1708 	 74.8677 	 109.288
| 27> C 	 -35.1887 	 73.5354 	 109.706
| 28> H 	 -34.5369 	 76.8973 	 110.259
| 29> C 	 -35.7983 	 75.4026 	 108.012
| 30> H 	 -36.4341 	 74.6033 	 107.618
| 31> H 	 -35.062 	 75.5181 	 107.308
| 32> C 	 -36.6633 	 76.6996 	 108.041
| 33> H 	 -36.7785 	 76.9985 	 107.006
| 34> H 	 -36.1847 	 77.5722 	 108.627
| 35> C 	 -38.0869 	 76.5793 	 108.491
| 36> H 	 -38.4042 	 77.5829 	 108.49
| 37> H 	 -38.1186 	 76.2603 	 109.52
| 38> H 	 -38.6684 	 75.931 	 107.874
| 39> H 	 -36.409 	 68.9431 	 108.226
| 40> H 	 -33.4858 	 75.5992 	 112.064
| 41> *
| 42>
| 43>                          ****END OF INPUT****

CARTESIAN COORDINATES (ANGSTROEM)
---------------------------------
  S    -36.296400   70.862800  109.735000
  C    -36.124900   70.000300  108.262000
  C    -35.512000   70.693900  107.261000
  C    -35.110600   72.006800  107.685000
  C    -35.513300   72.274700  108.987000
  H    -34.568400   72.782300  107.180000
  C    -35.089600   70.111100  105.888000
  H    -35.160200   70.763800  105.022000
  H    -35.802500   69.392900  105.748000
  C    -33.699600   69.457700  106.009000
  H    -33.023500   70.169800  106.557000
  H    -33.860200   68.448800  106.424000
  C    -32.977300   69.272200  104.711000
  H    -31.986900   68.994000  105.083000
  H    -33.419500   68.526300  104.047000
  H    -32.766900   70.188600  104.100000
  S    -34.468800   73.485600  111.305000
  C    -34.241600   75.176200  111.423000
  C    -34.722400   75.816800  110.277000
  C    -35.170800   74.867700  109.288000
  C    -35.188700   73.535400  109.706000
  H    -34.536900   76.897300  110.259000
  C    -35.798300   75.402600  108.012000
  H    -36.434100   74.603300  107.618000
  H    -35.062000   75.518100  107.308000
  C    -36.663300   76.699600  108.041000
  H    -36.778500   76.998500  107.006000
  H    -36.184700   77.572200  108.627000
  C    -38.086900   76.579300  108.491000
  H    -38.404200   77.582900  108.490000
  H    -38.118600   76.260300  109.520000
  H    -38.668400   75.931000  107.874000
  H    -36.409000   68.943100  108.226000
  H    -33.485800   75.599200  112.064000

 Total Charge           Charge          ....    0
 Multiplicity           Mult            ....    1
 Number of Electrons    NEL             ....  134
 Basis Dimension        Dim             ....  322

ORBITAL ENERGIES
----------------

  NO   OCC          E(Eh)            E(eV)
   0   2.0000     -88.968594     -2420.9585
   1   2.0000     -88.961510     -2420.7658
   2   2.0000     -10.334681      -281.2210
   3   2.0000     -10.330583      -281.1094
   4   2.0000     -10.313536      -280.6456
   5   2.0000     -10.312393      -280.6145
   6   2.0000     -10.306366      -280.4505
   7   2.0000     -10.303081      -280.3611
   8   2.0000     -10.296690      -280.1872
   9   2.0000     -10.295105      -280.1440
  10   2.0000     -10.289612      -279.9946
  11   2.0000     -10.287863      -279.9470
  12   2.0000     -10.284873      -279.8656
  13   2.0000     -10.281783      -279.7815
  14   2.0000     -10.278361      -279.6884
  15   2.0000     -10.262577      -279.2589
  16   2.0000      -8.083492      -219.9630
  17   2.0000      -8.077111      -219.7894
  18   2.0000      -6.041979      -164.4106
  19   2.0000      -6.038112      -164.3054
  20   2.0000      -6.035497      -164.2342
  21   2.0000      -6.034135      -164.1972
  22   2.0000      -6.031312      -164.1203
  23   2.0000      -6.028123      -164.0336
  24   2.0000      -1.005476       -27.3604
  25   2.0000      -0.986550       -26.8454
  26   2.0000      -0.913421       -24.8555
  27   2.0000      -0.907667       -24.6989
  28   2.0000      -0.870387       -23.6844
  29   2.0000      -0.855289       -23.2736
  30   2.0000      -0.848367       -23.0852
  31   2.0000      -0.817042       -22.2328
  32   2.0000      -0.785513       -21.3749
  33   2.0000      -0.773756       -21.0550
  34   2.0000      -0.699388       -19.0313
  35   2.0000      -0.690858       -18.7992
  36   2.0000      -0.688708       -18.7407
  37   2.0000      -0.656005       -17.8508
  38   2.0000      -0.642263       -17.4769
  39   2.0000      -0.620261       -16.8782
  40   2.0000      -0.596175       -16.2227
  41   2.0000      -0.572984       -15.5917
  42   2.0000      -0.567262       -15.4360
  43   2.0000      -0.554258       -15.0821
  44   2.0000      -0.541006       -14.7215
  45   2.0000      -0.533950       -14.5295
  46   2.0000      -0.524924       -14.2839
  47   2.0000      -0.518770       -14.1165
  48   2.0000      -0.505120       -13.7450
  49   2.0000      -0.495886       -13.4937
  50   2.0000      -0.490656       -13.3514
  51   2.0000      -0.478722       -13.0267
  52   2.0000      -0.470799       -12.8111
  53   2.0000      -0.460524       -12.5315
  54   2.0000      -0.454620       -12.3708
  55   2.0000      -0.450215       -12.2510
  56   2.0000      -0.438894       -11.9429
  57   2.0000      -0.434140       -11.8135
  58   2.0000      -0.429204       -11.6792
  59   2.0000      -0.424833       -11.5603
  60   2.0000      -0.418361       -11.3842
  61   2.0000      -0.414384       -11.2760
  62   2.0000      -0.406930       -11.0731
  63   2.0000      -0.353667        -9.6238
  64   2.0000      -0.332005        -9.0343
  65   2.0000      -0.327681        -8.9166
  66   2.0000      -0.289822        -7.8865
  67   0.0000       0.029883         0.8132
  68   0.0000       0.070929         1.9301
  69   0.0000       0.115168         3.1339
  70   0.0000       0.125085         3.4037
  71   0.0000       0.136181         3.7057

MULLIKEN ATOMIC CHARGES
-----------------------
   0 S :    0.118005
   1 C :   -0.136835
   2 C :   -0.082516
   3 C :    0.020932
   4 C :   -0.151593
   5 H :    0.012274
   6 C :    0.129530
   7 H :    0.021567
   8 H :   -0.009295
   9 C :   -0.091752
  10 H :    0.043299
  11 H :    0.038946
  12 C :   -0.062092
  13 H :    0.031845
  14 H :    0.035473
  15 H :    0.033861
  16 S :    0.096035
  17 C :   -0.102199
  18 C :   -0.062810
  19 C :   -0.055673
  20 C :   -0.132729
  21 H :    0.034936
  22 C :    0.097092
  23 H :    0.020736
  24 H :    0.010772
  25 C :   -0.119261
  26 H :    0.020536
  27 H :    0.036452
  28 C :    0.003535
  29 H :    0.020618
  30 H :    0.028384
  31 H :    0.028388
  32 H :    0.053956
  33 H :    0.069584
Sum of atomic charges:   -0.0000000

LOEWDIN ATOMIC CHARGES
----------------------
   0 S :    0.405926
   1 C :   -0.207739
   2 C :   -0.058636
   3 C :   -0.056888
   4 C :   -0.181430
   5 H :    0.031464
   6 C :   -0.025516
   7 H :    0.028147
   8 H :    0.015593
   9 C :   -0.040678
  10 H :    0.033683
  11 H :    0.031772
  12 C :   -0.074181
  13 H :    0.030450
  14 H :    0.021684
  15 H :    0.026483
  16 S :    0.418830
  17 C :   -0.201787
  18 C :   -0.078311
  19 C :   -0.058885
  20 C :   -0.201386
  21 H :    0.036386
  22 C :   -0.033531
  23 H :    0.032958
  24 H :    0.018401
  25 C :   -0.041414
  26 H :    0.024472
  27 H :    0.028782
  28 C :   -0.055749
  29 H :    0.023803
  30 H :    0.024392
  31 H :    0.020770
  32 H :    0.030294
  33 H :    0.031840

  Mayer bond orders larger than 0.100000
B(  0-S ,  1-C ) :   1.1398 B(  0-S ,  4-C ) :   1.1461 B(  1-C ,  2-C ) :   1.6310
B(  1-C , 32-H ) :   0.9623 B(  2-C ,  3-C ) :   1.2179 B(  2-C ,  6-C ) :   1.0215
B(  3-C ,  4-C ) :   1.5850 B(  3-C ,  5-H ) :   0.9987 B(  4-C , 20-C ) :   1.0377
B(  6-C ,  7-H ) :   0.9491 B(  6-C ,  8-H ) :   0.9262 B(  6-C ,  9-C ) :   1.0593
B(  9-C , 10-H ) :   0.9652 B(  9-C , 11-H ) :   0.9517 B(  9-C , 12-C ) :   1.0872
B( 12-C , 13-H ) :   0.9742 B( 12-C , 14-H ) :   0.9722 B( 12-C , 15-H ) :   0.9735
B( 16-S , 17-C ) :   1.1869 B( 16-S , 20-C ) :   1.1423 B( 17-C , 18-C ) :   1.5836
B( 17-C , 33-H ) :   0.9619 B( 18-C , 19-C ) :   1.2570 B( 18-C , 21-H ) :   0.9881
B( 19-C , 20-C ) :   1.5731 B( 19-C , 22-C ) :   1.0312 B( 22-C , 23-H ) :   0.9377
B( 22-C , 24-H ) :   0.9208 B( 22-C , 25-C ) :   1.0756 B( 25-C , 26-H ) :   0.9503
B( 25-C , 27-H ) :   0.9522 B( 25-C , 28-C ) :   1.0920 B( 28-C , 29-H ) :   0.9705
B( 28-C , 30-H ) :   0.9744 B( 28-C , 31-H ) :   0.9715

Dispersion correction           -0.013680155
FINAL SINGLE POINT ENERGY     -1339.861522588155

DIPOLE MOMENT
-------------
                                X             Y             Z
Electronic contribution:     -0.48544      -4.57557      23.18330
Nuclear contribution   :      0.75315       4.71214     -23.83496
                        -----------------------------------------
Total Dipole Moment    :      0.26771       0.13657      -0.65167
                        -----------------------------------------
Magnitude (a.u.)       :      0.71763
Magnitude (Debye)      :      1.82406

Rotational constants in cm-1:     0.019264     0.007454     0.006621
Rotational constants in MHz :   577.505832   223.457497   198.488697

                             ****ORCA TERMINATED NORMALLY****
TOTAL RUN TIME: 0 days 0 hours 0 minutes 29 seconds 446 msec
