                         Program Version 4.2.1 -  RELEASE  -
|  1> ! wB97X-D3 SP def2-SVP
|  2> %pal
|  3> nprocs 16
|  4> end
|  5>
|  6> * xyz 0 1
|  7> S 	 -38.3339 	 38.7515 	 80.9604
|  8> C 	 -36.8814 	 39.0116 	 80.0166
|  9> C 	 -36.5746 	 37.7811 	 79.395
| 10> C 	 -37.6158 	 36.7796 	 79.5779
| 11> C 	 -38.69 	 37.1274 	 80.3585
| 12> H 	 -37.6258 	 35.8472 	 79.0573
| 13> C 	 -35.4236 	 37.4286 	 78.4673
| 14> H 	 -35.7935 	 36.9191 	 77.5679
| 15> H 	 -34.8977 	 36.6413 	 79.0069
| 16> C 	 -34.4139 	 38.4644 	 78.0766
| 17> H 	 -34.8586 	 39.2263 	 77.474
| 18> H 	 -34.0066 	 38.9082 	 79.0184
| 19> C 	 -33.2427 	 37.9456 	 77.1539
| 20> H 	 -32.9039 	 36.912 	 77.2704
| 21> H 	 -33.4992 	 37.959 	 76.0949
| 22> H 	 -32.3986 	 38.6855 	 77.2466
| 23> S 	 -41.4211 	 37.3452 	 80.5025
| 24> C 	 -42.3952 	 35.9548 	 81.0035
| 25> C 	 -41.6264 	 34.8602 	 81.0283
| 26> C 	 -40.1811 	 35.1113 	 80.9362
| 27> C 	 -39.9323 	 36.4205 	 80.6549
| 28> H 	 -42.1566 	 33.9131 	 81.1693
| 29> C 	 -39.222 	 33.9749 	 81.02
| 30> H 	 -38.275 	 34.2886 	 80.5566
| 31> H 	 -39.5282 	 33.2379 	 80.2822
| 32> C 	 -39.1219 	 33.4434 	 82.4038
| 33> H 	 -40.0534 	 32.9439 	 82.7395
| 34> H 	 -38.8715 	 34.2749 	 83.1252
| 35> C 	 -38.0403 	 32.2836 	 82.5316
| 36> H 	 -37.0425 	 32.6529 	 82.3692
| 37> H 	 -38.0998 	 31.4905 	 81.794
| 38> H 	 -37.9705 	 31.8135 	 83.5292
| 39> H 	 -36.275 	 39.911 	 80.0996
| 40> H 	 -43.4392 	 35.9064 	 81.204
| 41> *
| 42>
| 43>                          ****END OF INPUT****

CARTESIAN COORDINATES (ANGSTROEM)
---------------------------------
  S    -38.333900   38.751500   80.960400
  C    -36.881400   39.011600   80.016600
  C    -36.574600   37.781100   79.395000
  C    -37.615800   36.779600   79.577900
  C    -38.690000   37.127400   80.358500
  H    -37.625800   35.847200   79.057300
  C    -35.423600   37.428600   78.467300
  H    -35.793500   36.919100   77.567900
  H    -34.897700   36.641300   79.006900
  C    -34.413900   38.464400   78.076600
  H    -34.858600   39.226300   77.474000
  H    -34.006600   38.908200   79.018400
  C    -33.242700   37.945600   77.153900
  H    -32.903900   36.912000   77.270400
  H    -33.499200   37.959000   76.094900
  H    -32.398600   38.685500   77.246600
  S    -41.421100   37.345200   80.502500
  C    -42.395200   35.954800   81.003500
  C    -41.626400   34.860200   81.028300
  C    -40.181100   35.111300   80.936200
  C    -39.932300   36.420500   80.654900
  H    -42.156600   33.913100   81.169300
  C    -39.222000   33.974900   81.020000
  H    -38.275000   34.288600   80.556600
  H    -39.528200   33.237900   80.282200
  C    -39.121900   33.443400   82.403800
  H    -40.053400   32.943900   82.739500
  H    -38.871500   34.274900   83.125200
  C    -38.040300   32.283600   82.531600
  H    -37.042500   32.652900   82.369200
  H    -38.099800   31.490500   81.794000
  H    -37.970500   31.813500   83.529200
  H    -36.275000   39.911000   80.099600
  H    -43.439200   35.906400   81.204000

 Total Charge           Charge          ....    0
 Multiplicity           Mult            ....    1
 Number of Electrons    NEL             ....  134
 Basis Dimension        Dim             ....  322

ORBITAL ENERGIES
----------------

  NO   OCC          E(Eh)            E(eV)
   0   2.0000     -88.961334     -2420.7610
   1   2.0000     -88.960537     -2420.7393
   2   2.0000     -10.333061      -281.1769
   3   2.0000     -10.329395      -281.0771
   4   2.0000     -10.321832      -280.8713
   5   2.0000     -10.313492      -280.6444
   6   2.0000     -10.310193      -280.5546
   7   2.0000     -10.304655      -280.4039
   8   2.0000     -10.295602      -280.1576
   9   2.0000     -10.294243      -280.1206
  10   2.0000     -10.292840      -280.0824
  11   2.0000     -10.291802      -280.0542
  12   2.0000     -10.291107      -280.0353
  13   2.0000     -10.290378      -280.0154
  14   2.0000     -10.286832      -279.9189
  15   2.0000     -10.278593      -279.6947
  16   2.0000      -8.076011      -219.7594
  17   2.0000      -8.075085      -219.7342
  18   2.0000      -6.034819      -164.2158
  19   2.0000      -6.033708      -164.1856
  20   2.0000      -6.030639      -164.1020
  21   2.0000      -6.029436      -164.0693
  22   2.0000      -6.026305      -163.9841
  23   2.0000      -6.025872      -163.9723
  24   2.0000      -1.006346       -27.3841
  25   2.0000      -0.982868       -26.7452
  26   2.0000      -0.913627       -24.8611
  27   2.0000      -0.911486       -24.8028
  28   2.0000      -0.872878       -23.7522
  29   2.0000      -0.846669       -23.0390
  30   2.0000      -0.839905       -22.8550
  31   2.0000      -0.819638       -22.3035
  32   2.0000      -0.781241       -21.2586
  33   2.0000      -0.773574       -21.0500
  34   2.0000      -0.711008       -19.3475
  35   2.0000      -0.705988       -19.2109
  36   2.0000      -0.696016       -18.9396
  37   2.0000      -0.660940       -17.9851
  38   2.0000      -0.643583       -17.5128
  39   2.0000      -0.614939       -16.7333
  40   2.0000      -0.596807       -16.2399
  41   2.0000      -0.573050       -15.5935
  42   2.0000      -0.567254       -15.4358
  43   2.0000      -0.561835       -15.2883
  44   2.0000      -0.533101       -14.5064
  45   2.0000      -0.522506       -14.2181
  46   2.0000      -0.521170       -14.1818
  47   2.0000      -0.512766       -13.9531
  48   2.0000      -0.508349       -13.8329
  49   2.0000      -0.497884       -13.5481
  50   2.0000      -0.491617       -13.3776
  51   2.0000      -0.486342       -13.2340
  52   2.0000      -0.473514       -12.8850
  53   2.0000      -0.460203       -12.5228
  54   2.0000      -0.451749       -12.2927
  55   2.0000      -0.448064       -12.1924
  56   2.0000      -0.443370       -12.0647
  57   2.0000      -0.441186       -12.0053
  58   2.0000      -0.437175       -11.8961
  59   2.0000      -0.422855       -11.5065
  60   2.0000      -0.417438       -11.3591
  61   2.0000      -0.413768       -11.2592
  62   2.0000      -0.406685       -11.0665
  63   2.0000      -0.354936        -9.6583
  64   2.0000      -0.327092        -8.9006
  65   2.0000      -0.321963        -8.7611
  66   2.0000      -0.298410        -8.1202
  67   0.0000       0.028327         0.7708
  68   0.0000       0.080949         2.2027
  69   0.0000       0.107145         2.9156
  70   0.0000       0.118897         3.2353
  71   0.0000       0.134545         3.6612

MULLIKEN ATOMIC CHARGES
-----------------------
   0 S :    0.090802
   1 C :   -0.130577
   2 C :   -0.074136
   3 C :    0.011658
   4 C :   -0.130203
   5 H :    0.008229
   6 C :    0.036226
   7 H :    0.032694
   8 H :    0.031690
   9 C :   -0.069698
  10 H :    0.031822
  11 H :    0.037018
  12 C :   -0.076281
  13 H :    0.032510
  14 H :    0.030842
  15 H :    0.044323
  16 S :    0.095805
  17 C :   -0.073161
  18 C :   -0.041525
  19 C :   -0.054712
  20 C :   -0.133567
  21 H :    0.024937
  22 C :    0.105746
  23 H :    0.002483
  24 H :    0.025768
  25 C :   -0.093627
  26 H :    0.040446
  27 H :    0.053342
  28 C :   -0.047648
  29 H :    0.017292
  30 H :    0.021925
  31 H :    0.038002
  32 H :    0.065008
  33 H :    0.046566
Sum of atomic charges:    0.0000000

LOEWDIN ATOMIC CHARGES
----------------------
   0 S :    0.393649
   1 C :   -0.202229
   2 C :   -0.059343
   3 C :   -0.065643
   4 C :   -0.185124
   5 H :    0.024219
   6 C :   -0.043038
   7 H :    0.032863
   8 H :    0.035645
   9 C :   -0.042444
  10 H :    0.023561
  11 H :    0.027411
  12 C :   -0.071699
  13 H :    0.023259
  14 H :    0.024760
  15 H :    0.035335
  16 S :    0.383941
  17 C :   -0.169880
  18 C :   -0.070410
  19 C :   -0.051347
  20 C :   -0.191658
  21 H :    0.034108
  22 C :   -0.039723
  23 H :    0.029635
  24 H :    0.035331
  25 C :   -0.037396
  26 H :    0.028284
  27 H :    0.037587
  28 C :   -0.073567
  29 H :    0.019717
  30 H :    0.021565
  31 H :    0.028853
  32 H :    0.034296
  33 H :    0.029486

  Mayer bond orders larger than 0.100000
B(  0-S ,  1-C ) :   1.1343 B(  0-S ,  4-C ) :   1.1435 B(  1-C ,  2-C ) :   1.5831
B(  1-C , 32-H ) :   0.9726 B(  2-C ,  3-C ) :   1.2447 B(  2-C ,  6-C ) :   1.0155
B(  3-C ,  4-C ) :   1.5811 B(  3-C ,  5-H ) :   0.9936 B(  4-C , 20-C ) :   1.0392
B(  6-C ,  7-H ) :   0.9468 B(  6-C ,  8-H ) :   0.9294 B(  6-C ,  9-C ) :   1.0865
B(  9-C , 10-H ) :   0.9542 B(  9-C , 11-H ) :   0.9536 B(  9-C , 12-C ) :   1.0693
B( 12-C , 13-H ) :   0.9793 B( 12-C , 14-H ) :   0.9770 B( 12-C , 15-H ) :   0.9763
B( 16-S , 17-C ) :   1.1153 B( 16-S , 20-C ) :   1.1218 B( 17-C , 18-C ) :   1.6873
B( 17-C , 33-H ) :   0.9682 B( 18-C , 19-C ) :   1.1718 B( 18-C , 21-H ) :   0.9827
B( 19-C , 20-C ) :   1.6446 B( 19-C , 22-C ) :   1.0523 B( 22-C , 23-H ) :   0.9269
B( 22-C , 24-H ) :   0.9222 B( 22-C , 25-C ) :   1.0587 B( 25-C , 26-H ) :   0.9576
B( 25-C , 27-H ) :   0.9557 B( 25-C , 28-C ) :   1.0709 B( 28-C , 29-H ) :   0.9755
B( 28-C , 30-H ) :   0.9748 B( 28-C , 31-H ) :   0.9778

Dispersion correction           -0.013228211
FINAL SINGLE POINT ENERGY     -1339.877777275812

DIPOLE MOMENT
-------------
                                X             Y             Z
Electronic contribution:    -23.13146      16.01715       5.37658
Nuclear contribution   :     23.48983     -16.66407      -5.65610
                        -----------------------------------------
Total Dipole Moment    :      0.35837      -0.64692      -0.27953
                        -----------------------------------------
Magnitude (a.u.)       :      0.79062
Magnitude (Debye)      :      2.00959

Rotational constants in cm-1:     0.018979     0.007422     0.005865
Rotational constants in MHz :   568.967274   222.506089   175.822713

                             ****ORCA TERMINATED NORMALLY****
TOTAL RUN TIME: 0 days 0 hours 0 minutes 29 seconds 146 msec
