                         Program Version 4.2.1 -  RELEASE  -
|  1> ! wB97X-D3 SP def2-SVP
|  2> %pal
|  3> nprocs 16
|  4> end
|  5>
|  6> * xyz 0 1
|  7> S 	 -16.3385 	 -8.51705 	 90.1759
|  8> C 	 -17.3359 	 -8.02554 	 88.811
|  9> C 	 -16.6547 	 -8.24278 	 87.6198
| 10> C 	 -15.4904 	 -9.04203 	 87.8046
| 11> C 	 -15.232 	 -9.35659 	 89.1222
| 12> H 	 -14.8751 	 -9.57168 	 87.0992
| 13> C 	 -17.0708 	 -7.66708 	 86.2364
| 14> H 	 -16.4823 	 -6.66446 	 86.1137
| 15> H 	 -18.1641 	 -7.5059 	 86.1905
| 16> C 	 -16.8439 	 -8.5514 	 84.9966
| 17> H 	 -15.8111 	 -8.83888 	 84.6697
| 18> H 	 -17.454 	 -9.46255 	 85.1042
| 19> C 	 -17.2675 	 -7.75166 	 83.7181
| 20> H 	 -17.31 	 -8.39488 	 82.8283
| 21> H 	 -18.2552 	 -7.40908 	 83.8913
| 22> H 	 -16.5577 	 -6.96302 	 83.5752
| 23> S 	 -13.3646 	 -9.44434 	 91.1169
| 24> C 	 -12.2758 	 -10.7267 	 91.0702
| 25> C 	 -12.5116 	 -11.696 	 90.1
| 26> C 	 -13.5173 	 -11.3131 	 89.1853
| 27> C 	 -14.0656 	 -10.1314 	 89.6352
| 28> H 	 -11.9084 	 -12.6305 	 90.1348
| 29> C 	 -13.9776 	 -12.1615 	 88.0116
| 30> H 	 -13.1714 	 -12.8767 	 87.7788
| 31> H 	 -13.9259 	 -11.5077 	 87.0927
| 32> C 	 -15.3478 	 -12.8737 	 88.0974
| 33> H 	 -15.772 	 -12.8055 	 87.1382
| 34> H 	 -16.1074 	 -12.3496 	 88.7002
| 35> C 	 -15.2981 	 -14.3788 	 88.5844
| 36> H 	 -14.9929 	 -14.5172 	 89.605
| 37> H 	 -14.573 	 -14.9332 	 88.0164
| 38> H 	 -16.2014 	 -14.9904 	 88.355
| 39> H 	 -18.1654 	 -7.33249 	 88.7589
| 40> H 	 -11.3306 	 -10.7219 	 91.6637
| 41> *
| 42>
| 43>                          ****END OF INPUT****

CARTESIAN COORDINATES (ANGSTROEM)
---------------------------------
  S    -16.338500   -8.517050   90.175900
  C    -17.335900   -8.025540   88.811000
  C    -16.654700   -8.242780   87.619800
  C    -15.490400   -9.042030   87.804600
  C    -15.232000   -9.356590   89.122200
  H    -14.875100   -9.571680   87.099200
  C    -17.070800   -7.667080   86.236400
  H    -16.482300   -6.664460   86.113700
  H    -18.164100   -7.505900   86.190500
  C    -16.843900   -8.551400   84.996600
  H    -15.811100   -8.838880   84.669700
  H    -17.454000   -9.462550   85.104200
  C    -17.267500   -7.751660   83.718100
  H    -17.310000   -8.394880   82.828300
  H    -18.255200   -7.409080   83.891300
  H    -16.557700   -6.963020   83.575200
  S    -13.364600   -9.444340   91.116900
  C    -12.275800  -10.726700   91.070200
  C    -12.511600  -11.696000   90.100000
  C    -13.517300  -11.313100   89.185300
  C    -14.065600  -10.131400   89.635200
  H    -11.908400  -12.630500   90.134800
  C    -13.977600  -12.161500   88.011600
  H    -13.171400  -12.876700   87.778800
  H    -13.925900  -11.507700   87.092700
  C    -15.347800  -12.873700   88.097400
  H    -15.772000  -12.805500   87.138200
  H    -16.107400  -12.349600   88.700200
  C    -15.298100  -14.378800   88.584400
  H    -14.992900  -14.517200   89.605000
  H    -14.573000  -14.933200   88.016400
  H    -16.201400  -14.990400   88.355000
  H    -18.165400   -7.332490   88.758900
  H    -11.330600  -10.721900   91.663700

 Total Charge           Charge          ....    0
 Multiplicity           Mult            ....    1
 Number of Electrons    NEL             ....  134
 Basis Dimension        Dim             ....  322

ORBITAL ENERGIES
----------------

  NO   OCC          E(Eh)            E(eV)
   0   2.0000     -88.970846     -2421.0198
   1   2.0000     -88.966090     -2420.8904
   2   2.0000     -10.328662      -281.0572
   3   2.0000     -10.327161      -281.0163
   4   2.0000     -10.313529      -280.6454
   5   2.0000     -10.309834      -280.5448
   6   2.0000     -10.307362      -280.4776
   7   2.0000     -10.305453      -280.4256
   8   2.0000     -10.303729      -280.3787
   9   2.0000     -10.302981      -280.3584
  10   2.0000     -10.295246      -280.1479
  11   2.0000     -10.292843      -280.0825
  12   2.0000     -10.288908      -279.9754
  13   2.0000     -10.286234      -279.9027
  14   2.0000     -10.278775      -279.6997
  15   2.0000     -10.276110      -279.6272
  16   2.0000      -8.086493      -220.0447
  17   2.0000      -8.080415      -219.8793
  18   2.0000      -6.044607      -164.4821
  19   2.0000      -6.041104      -164.3868
  20   2.0000      -6.039039      -164.3306
  21   2.0000      -6.037381      -164.2855
  22   2.0000      -6.035064      -164.2225
  23   2.0000      -6.031012      -164.1122
  24   2.0000      -1.010032       -27.4844
  25   2.0000      -0.985624       -26.8202
  26   2.0000      -0.906709       -24.6728
  27   2.0000      -0.906177       -24.6583
  28   2.0000      -0.864033       -23.5115
  29   2.0000      -0.856123       -23.2963
  30   2.0000      -0.842261       -22.9191
  31   2.0000      -0.808607       -22.0033
  32   2.0000      -0.786378       -21.3984
  33   2.0000      -0.769581       -20.9414
  34   2.0000      -0.714685       -19.4476
  35   2.0000      -0.695378       -18.9222
  36   2.0000      -0.684652       -18.6303
  37   2.0000      -0.659929       -17.9576
  38   2.0000      -0.635035       -17.2802
  39   2.0000      -0.615273       -16.7424
  40   2.0000      -0.596181       -16.2229
  41   2.0000      -0.573611       -15.6088
  42   2.0000      -0.560282       -15.2460
  43   2.0000      -0.548502       -14.9255
  44   2.0000      -0.532441       -14.4885
  45   2.0000      -0.518724       -14.1152
  46   2.0000      -0.517808       -14.0903
  47   2.0000      -0.504979       -13.7412
  48   2.0000      -0.497569       -13.5395
  49   2.0000      -0.491470       -13.3736
  50   2.0000      -0.485605       -13.2140
  51   2.0000      -0.480480       -13.0745
  52   2.0000      -0.475361       -12.9352
  53   2.0000      -0.464757       -12.6467
  54   2.0000      -0.458008       -12.4630
  55   2.0000      -0.452878       -12.3234
  56   2.0000      -0.446447       -12.1484
  57   2.0000      -0.437816       -11.9136
  58   2.0000      -0.432493       -11.7687
  59   2.0000      -0.427018       -11.6198
  60   2.0000      -0.420808       -11.4508
  61   2.0000      -0.418713       -11.3938
  62   2.0000      -0.411101       -11.1866
  63   2.0000      -0.350631        -9.5412
  64   2.0000      -0.339415        -9.2360
  65   2.0000      -0.328343        -8.9347
  66   2.0000      -0.281808        -7.6684
  67   0.0000       0.028529         0.7763
  68   0.0000       0.066829         1.8185
  69   0.0000       0.103877         2.8266
  70   0.0000       0.121661         3.3106
  71   0.0000       0.127828         3.4784

MULLIKEN ATOMIC CHARGES
-----------------------
   0 S :    0.095554
   1 C :   -0.094821
   2 C :   -0.085234
   3 C :    0.026707
   4 C :   -0.132305
   5 H :   -0.010274
   6 C :    0.021543
   7 H :    0.063698
   8 H :    0.031605
   9 C :   -0.123566
  10 H :    0.039561
  11 H :    0.039742
  12 C :   -0.033462
  13 H :    0.035968
  14 H :    0.014755
  15 H :    0.033849
  16 S :    0.128908
  17 C :   -0.106438
  18 C :   -0.066214
  19 C :   -0.014680
  20 C :   -0.169314
  21 H :    0.030352
  22 C :    0.034544
  23 H :    0.019567
  24 H :    0.041734
  25 C :   -0.021827
  26 H :    0.013799
  27 H :    0.048045
  28 C :   -0.059233
  29 H :    0.039206
  30 H :    0.009586
  31 H :    0.039172
  32 H :    0.041154
  33 H :    0.068318
Sum of atomic charges:   -0.0000000

LOEWDIN ATOMIC CHARGES
----------------------
   0 S :    0.394860
   1 C :   -0.208837
   2 C :   -0.061328
   3 C :   -0.076172
   4 C :   -0.187429
   5 H :    0.025463
   6 C :   -0.037953
   7 H :    0.046703
   8 H :    0.033494
   9 C :   -0.050254
  10 H :    0.025223
  11 H :    0.025015
  12 C :   -0.056600
  13 H :    0.027953
  14 H :    0.014243
  15 H :    0.022240
  16 S :    0.425830
  17 C :   -0.214805
  18 C :   -0.077443
  19 C :   -0.057753
  20 C :   -0.179822
  21 H :    0.038236
  22 C :   -0.033104
  23 H :    0.033811
  24 H :    0.038568
  25 C :   -0.034718
  26 H :    0.021064
  27 H :    0.034288
  28 C :   -0.069889
  29 H :    0.023918
  30 H :    0.018029
  31 H :    0.033097
  32 H :    0.029262
  33 H :    0.034808

  Mayer bond orders larger than 0.100000
B(  0-S ,  1-C ) :   1.1175 B(  0-S ,  4-C ) :   1.1466 B(  1-C ,  2-C ) :   1.6363
B(  1-C , 32-H ) :   0.9640 B(  2-C ,  3-C ) :   1.2277 B(  2-C ,  6-C ) :   1.0132
B(  3-C ,  4-C ) :   1.5830 B(  3-C ,  5-H ) :   0.9955 B(  4-C , 20-C ) :   1.0345
B(  6-C ,  7-H ) :   0.9387 B(  6-C ,  8-H ) :   0.9457 B(  6-C ,  9-C ) :   1.0598
B(  9-C , 10-H ) :   0.9547 B(  9-C , 11-H ) :   0.9596 B(  9-C , 12-C ) :   1.0736
B( 12-C , 13-H ) :   0.9749 B( 12-C , 14-H ) :   0.9751 B( 12-C , 15-H ) :   0.9792
B( 16-S , 17-C ) :   1.1719 B( 16-S , 20-C ) :   1.1503 B( 17-C , 18-C ) :   1.6061
B( 17-C , 33-H ) :   0.9579 B( 18-C , 19-C ) :   1.2464 B( 18-C , 21-H ) :   0.9846
B( 19-C , 20-C ) :   1.5991 B( 19-C , 22-C ) :   1.0369 B( 22-C , 23-H ) :   0.9324
B( 22-C , 24-H ) :   0.9379 B( 22-C , 25-C ) :   1.0445 B( 25-C , 26-H ) :   0.9525
B( 25-C , 27-H ) :   0.9625 B( 25-C , 28-C ) :   1.0730 B( 28-C , 29-H ) :   0.9801
B( 28-C , 30-H ) :   0.9746 B( 28-C , 31-H ) :   0.9758

Dispersion correction           -0.014094749
FINAL SINGLE POINT ENERGY     -1339.862447356892

DIPOLE MOMENT
-------------
                                X             Y             Z
Electronic contribution:      8.06579      10.87558      26.75762
Nuclear contribution   :     -7.94147     -11.15086     -27.40315
                        -----------------------------------------
Total Dipole Moment    :      0.12432      -0.27528      -0.64552
                        -----------------------------------------
Magnitude (a.u.)       :      0.71269
Magnitude (Debye)      :      1.81153

Rotational constants in cm-1:     0.017807     0.008639     0.006788
Rotational constants in MHz :   533.853270   258.991366   203.490943

                             ****ORCA TERMINATED NORMALLY****
TOTAL RUN TIME: 0 days 0 hours 0 minutes 31 seconds 265 msec
