                         Program Version 4.2.1 -  RELEASE  -
|  1> ! wB97X-D3 SP def2-SVP
|  2> %pal
|  3> nprocs 16
|  4> end
|  5>
|  6> * xyz 0 1
|  7> S 	 38.0392 	 11.0025 	 77.8669
|  8> C 	 39.2491 	 11.3573 	 76.6206
|  9> C 	 40.5101 	 11.6261 	 77.1845
| 10> C 	 40.4483 	 11.602 	 78.6118
| 11> C 	 39.2944 	 11.0988 	 79.105
| 12> H 	 41.185 	 11.8058 	 79.4141
| 13> C 	 41.7296 	 12.1159 	 76.4836
| 14> H 	 42.1487 	 13.0113 	 76.9092
| 15> H 	 41.4653 	 12.3152 	 75.4087
| 16> C 	 42.7765 	 11.0134 	 76.3938
| 17> H 	 42.3634 	 10.2241 	 75.8343
| 18> H 	 43.6832 	 11.3985 	 75.8549
| 19> C 	 43.3045 	 10.3708 	 77.6259
| 20> H 	 43.5664 	 11.1036 	 78.3524
| 21> H 	 42.6021 	 9.68439 	 78.0341
| 22> H 	 44.1763 	 9.79018 	 77.3243
| 23> S 	 37.5138 	 11.4514 	 81.0996
| 24> C 	 37.8353 	 10.8919 	 82.7423
| 25> C 	 39.0847 	 10.2707 	 82.8177
| 26> C 	 39.8033 	 10.26 	 81.5109
| 27> C 	 39.0554 	 10.8418 	 80.5291
| 28> H 	 39.3492 	 9.76731 	 83.6669
| 29> C 	 41.1019 	 9.46486 	 81.2564
| 30> H 	 41.1535 	 9.3304 	 80.1651
| 31> H 	 40.9606 	 8.57716 	 81.7587
| 32> C 	 42.3865 	 10.0644 	 81.701
| 33> H 	 42.3 	 11.0671 	 81.2625
| 34> H 	 43.1745 	 9.47364 	 81.2828
| 35> C 	 42.6327 	 10.2403 	 83.2718
| 36> H 	 42.0468 	 11.1016 	 83.6382
| 37> H 	 43.7306 	 10.4209 	 83.4548
| 38> H 	 42.2338 	 9.38717 	 83.8474
| 39> H 	 39.0284 	 11.4236 	 75.5856
| 40> H 	 37.1198 	 10.9574 	 83.5633
| 41> *
| 42>
| 43>                          ****END OF INPUT****

CARTESIAN COORDINATES (ANGSTROEM)
---------------------------------
  S     38.039200   11.002500   77.866900
  C     39.249100   11.357300   76.620600
  C     40.510100   11.626100   77.184500
  C     40.448300   11.602000   78.611800
  C     39.294400   11.098800   79.105000
  H     41.185000   11.805800   79.414100
  C     41.729600   12.115900   76.483600
  H     42.148700   13.011300   76.909200
  H     41.465300   12.315200   75.408700
  C     42.776500   11.013400   76.393800
  H     42.363400   10.224100   75.834300
  H     43.683200   11.398500   75.854900
  C     43.304500   10.370800   77.625900
  H     43.566400   11.103600   78.352400
  H     42.602100    9.684390   78.034100
  H     44.176300    9.790180   77.324300
  S     37.513800   11.451400   81.099600
  C     37.835300   10.891900   82.742300
  C     39.084700   10.270700   82.817700
  C     39.803300   10.260000   81.510900
  C     39.055400   10.841800   80.529100
  H     39.349200    9.767310   83.666900
  C     41.101900    9.464860   81.256400
  H     41.153500    9.330400   80.165100
  H     40.960600    8.577160   81.758700
  C     42.386500   10.064400   81.701000
  H     42.300000   11.067100   81.262500
  H     43.174500    9.473640   81.282800
  C     42.632700   10.240300   83.271800
  H     42.046800   11.101600   83.638200
  H     43.730600   10.420900   83.454800
  H     42.233800    9.387170   83.847400
  H     39.028400   11.423600   75.585600
  H     37.119800   10.957400   83.563300

 Total Charge           Charge          ....    0
 Multiplicity           Mult            ....    1
 Number of Electrons    NEL             ....  134
 Basis Dimension        Dim             ....  322

ORBITAL ENERGIES
----------------

  NO   OCC          E(Eh)            E(eV)
   0   2.0000     -88.968742     -2420.9626
   1   2.0000     -88.962528     -2420.7935
   2   2.0000     -10.327131      -281.0155
   3   2.0000     -10.326321      -280.9935
   4   2.0000     -10.322937      -280.9014
   5   2.0000     -10.319224      -280.8004
   6   2.0000     -10.308375      -280.5051
   7   2.0000     -10.306172      -280.4452
   8   2.0000     -10.297227      -280.2018
   9   2.0000     -10.293040      -280.0879
  10   2.0000     -10.292441      -280.0715
  11   2.0000     -10.288692      -279.9695
  12   2.0000     -10.286501      -279.9099
  13   2.0000     -10.285492      -279.8825
  14   2.0000     -10.278341      -279.6879
  15   2.0000     -10.267443      -279.3913
  16   2.0000      -8.082784      -219.9437
  17   2.0000      -8.077370      -219.7964
  18   2.0000      -6.041435      -164.3958
  19   2.0000      -6.037506      -164.2889
  20   2.0000      -6.036022      -164.2485
  21   2.0000      -6.033323      -164.1751
  22   2.0000      -6.031847      -164.1349
  23   2.0000      -6.027995      -164.0301
  24   2.0000      -1.006326       -27.3835
  25   2.0000      -0.980082       -26.6694
  26   2.0000      -0.920014       -25.0349
  27   2.0000      -0.911980       -24.8162
  28   2.0000      -0.870901       -23.6984
  29   2.0000      -0.852010       -23.1844
  30   2.0000      -0.838850       -22.8263
  31   2.0000      -0.819873       -22.3099
  32   2.0000      -0.787344       -21.4247
  33   2.0000      -0.776934       -21.1414
  34   2.0000      -0.705447       -19.1962
  35   2.0000      -0.697468       -18.9791
  36   2.0000      -0.687755       -18.7148
  37   2.0000      -0.670512       -18.2455
  38   2.0000      -0.645911       -17.5761
  39   2.0000      -0.612167       -16.6579
  40   2.0000      -0.593730       -16.1562
  41   2.0000      -0.582086       -15.8394
  42   2.0000      -0.560604       -15.2548
  43   2.0000      -0.554317       -15.0837
  44   2.0000      -0.546231       -14.8637
  45   2.0000      -0.538860       -14.6631
  46   2.0000      -0.521497       -14.1907
  47   2.0000      -0.512939       -13.9578
  48   2.0000      -0.503860       -13.7107
  49   2.0000      -0.502221       -13.6661
  50   2.0000      -0.490699       -13.3526
  51   2.0000      -0.481566       -13.1041
  52   2.0000      -0.476075       -12.9547
  53   2.0000      -0.463856       -12.6222
  54   2.0000      -0.461201       -12.5499
  55   2.0000      -0.449613       -12.2346
  56   2.0000      -0.441597       -12.0165
  57   2.0000      -0.437078       -11.8935
  58   2.0000      -0.431236       -11.7345
  59   2.0000      -0.423253       -11.5173
  60   2.0000      -0.418767       -11.3952
  61   2.0000      -0.416218       -11.3259
  62   2.0000      -0.412268       -11.2184
  63   2.0000      -0.351256        -9.5582
  64   2.0000      -0.332299        -9.0423
  65   2.0000      -0.328000        -8.9253
  66   2.0000      -0.293731        -7.9928
  67   0.0000       0.028187         0.7670
  68   0.0000       0.071344         1.9414
  69   0.0000       0.102308         2.7839
  70   0.0000       0.115168         3.1339
  71   0.0000       0.131161         3.5691

MULLIKEN ATOMIC CHARGES
-----------------------
   0 S :    0.107514
   1 C :   -0.103317
   2 C :   -0.081588
   3 C :    0.001874
   4 C :   -0.135677
   5 H :    0.020051
   6 C :    0.092808
   7 H :    0.033794
   8 H :    0.022240
   9 C :   -0.093928
  10 H :    0.010482
  11 H :    0.031025
  12 C :   -0.021295
  13 H :    0.019354
  14 H :    0.031159
  15 H :    0.031677
  16 S :    0.086944
  17 C :   -0.093945
  18 C :    0.001942
  19 C :   -0.075800
  20 C :   -0.149967
  21 H :   -0.013270
  22 C :    0.093091
  23 H :    0.036796
  24 H :    0.003409
  25 C :   -0.064628
  26 H :    0.026087
  27 H :    0.037187
  28 C :   -0.086745
  29 H :    0.042710
  30 H :    0.053512
  31 H :    0.032956
  32 H :    0.038326
  33 H :    0.065223
Sum of atomic charges:    0.0000000

LOEWDIN ATOMIC CHARGES
----------------------
   0 S :    0.385400
   1 C :   -0.182013
   2 C :   -0.057852
   3 C :   -0.066290
   4 C :   -0.188594
   5 H :    0.038369
   6 C :   -0.030784
   7 H :    0.030004
   8 H :    0.037801
   9 C :   -0.042977
  10 H :    0.018444
  11 H :    0.026925
  12 C :   -0.061084
  13 H :    0.017355
  14 H :    0.018793
  15 H :    0.031911
  16 S :    0.386653
  17 C :   -0.176601
  18 C :   -0.057983
  19 C :   -0.054688
  20 C :   -0.189765
  21 H :    0.013758
  22 C :   -0.024423
  23 H :    0.036750
  24 H :    0.017521
  25 C :   -0.038053
  26 H :    0.023082
  27 H :    0.023412
  28 C :   -0.074874
  29 H :    0.028457
  30 H :    0.035379
  31 H :    0.022288
  32 H :    0.021392
  33 H :    0.032286

  Mayer bond orders larger than 0.100000
B(  0-S ,  1-C ) :   1.1273 B(  0-S ,  4-C ) :   1.1311 B(  1-C ,  2-C ) :   1.6193
B(  1-C , 32-H ) :   0.9733 B(  2-C ,  3-C ) :   1.1959 B(  2-C ,  6-C ) :   1.0302
B(  3-C ,  4-C ) :   1.6137 B(  3-C ,  5-H ) :   0.9850 B(  4-C , 20-C ) :   1.0247
B(  6-C ,  7-H ) :   0.9445 B(  6-C ,  8-H ) :   0.9342 B(  6-C ,  9-C ) :   1.0763
B(  9-C , 10-H ) :   0.9466 B(  9-C , 11-H ) :   0.9569 B(  9-C , 12-C ) :   1.1050
B( 12-C , 13-H ) :   0.9703 B( 12-C , 14-H ) :   0.9664 B( 12-C , 15-H ) :   0.9657
B( 16-S , 17-C ) :   1.1372 B( 16-S , 20-C ) :   1.1243 B( 17-C , 18-C ) :   1.6414
B( 17-C , 33-H ) :   0.9677 B( 18-C , 19-C ) :   1.1819 B( 18-C , 21-H ) :   1.0009
B( 19-C , 20-C ) :   1.6596 B( 19-C , 22-C ) :   1.0319 B( 22-C , 23-H ) :   0.9323
B( 22-C , 24-H ) :   0.9273 B( 22-C , 25-C ) :   1.0807 B( 25-C , 26-H ) :   0.9486
B( 25-C , 27-H ) :   0.9552 B( 25-C , 28-C ) :   1.0668 B( 28-C , 29-H ) :   0.9748
B( 28-C , 30-H ) :   0.9755 B( 28-C , 31-H ) :   0.9778

Dispersion correction           -0.015920478
FINAL SINGLE POINT ENERGY     -1339.871404803687

DIPOLE MOMENT
-------------
                                X             Y             Z
Electronic contribution:    -29.74900       4.82354      -1.51278
Nuclear contribution   :     30.37827      -4.97857       1.56183
                        -----------------------------------------
Total Dipole Moment    :      0.62927      -0.15503       0.04905
                        -----------------------------------------
Magnitude (a.u.)       :      0.64994
Magnitude (Debye)      :      1.65202

Rotational constants in cm-1:     0.017276     0.011031     0.007088
Rotational constants in MHz :   517.920249   330.687460   212.483112

                             ****ORCA TERMINATED NORMALLY****
TOTAL RUN TIME: 0 days 0 hours 0 minutes 30 seconds 796 msec
