                         Program Version 4.2.1 -  RELEASE  -
|  1> ! wB97X-D3 SP def2-SVP
|  2> %pal
|  3> nprocs 16
|  4> end
|  5>
|  6> * xyz 0 1
|  7> S 	 -18.0754 	 59.0171 	 64.2617
|  8> C 	 -17.8281 	 57.5429 	 63.4861
|  9> C 	 -17.309 	 57.6236 	 62.2061
| 10> C 	 -17.198 	 58.9893 	 61.8259
| 11> C 	 -17.667 	 59.8624 	 62.7766
| 12> H 	 -16.9924 	 59.3523 	 60.8186
| 13> C 	 -16.8262 	 56.4571 	 61.3976
| 14> H 	 -17.3581 	 55.5509 	 61.7729
| 15> H 	 -15.851 	 56.2027 	 61.7748
| 16> C 	 -16.8106 	 56.6311 	 59.9121
| 17> H 	 -16.3684 	 57.5959 	 59.6827
| 18> H 	 -16.1704 	 55.8603 	 59.5163
| 19> C 	 -18.2099 	 56.4581 	 59.2621
| 20> H 	 -18.1724 	 56.836 	 58.1723
| 21> H 	 -18.6553 	 55.4538 	 59.2673
| 22> H 	 -18.8084 	 57.2015 	 59.8424
| 23> S 	 -19.8119 	 61.4171 	 62.3556
| 24> C 	 -19.7097 	 63.1151 	 62.4383
| 25> C 	 -18.4948 	 63.5165 	 62.9369
| 26> C 	 -17.535 	 62.4335 	 62.9309
| 27> C 	 -18.1152 	 61.2252 	 62.6377
| 28> H 	 -18.4876 	 64.5803 	 63.2571
| 29> C 	 -16.0835 	 62.74 	 63.3152
| 30> H 	 -15.809 	 63.6358 	 62.8294
| 31> H 	 -15.2704 	 62.1047 	 62.9424
| 32> C 	 -15.6878 	 62.9898 	 64.8185
| 33> H 	 -16.424 	 63.7383 	 65.1614
| 34> H 	 -14.6853 	 63.4311 	 64.9333
| 35> C 	 -15.8607 	 61.8088 	 65.7561
| 36> H 	 -15.6181 	 61.9499 	 66.8097
| 37> H 	 -15.1019 	 61.0847 	 65.5518
| 38> H 	 -16.7859 	 61.2571 	 65.6033
| 39> H 	 -17.7975 	 56.6175 	 63.995
| 40> H 	 -20.481 	 63.8414 	 62.2101
| 41> *
| 42>
| 43>                          ****END OF INPUT****

CARTESIAN COORDINATES (ANGSTROEM)
---------------------------------
  S    -18.075400   59.017100   64.261700
  C    -17.828100   57.542900   63.486100
  C    -17.309000   57.623600   62.206100
  C    -17.198000   58.989300   61.825900
  C    -17.667000   59.862400   62.776600
  H    -16.992400   59.352300   60.818600
  C    -16.826200   56.457100   61.397600
  H    -17.358100   55.550900   61.772900
  H    -15.851000   56.202700   61.774800
  C    -16.810600   56.631100   59.912100
  H    -16.368400   57.595900   59.682700
  H    -16.170400   55.860300   59.516300
  C    -18.209900   56.458100   59.262100
  H    -18.172400   56.836000   58.172300
  H    -18.655300   55.453800   59.267300
  H    -18.808400   57.201500   59.842400
  S    -19.811900   61.417100   62.355600
  C    -19.709700   63.115100   62.438300
  C    -18.494800   63.516500   62.936900
  C    -17.535000   62.433500   62.930900
  C    -18.115200   61.225200   62.637700
  H    -18.487600   64.580300   63.257100
  C    -16.083500   62.740000   63.315200
  H    -15.809000   63.635800   62.829400
  H    -15.270400   62.104700   62.942400
  C    -15.687800   62.989800   64.818500
  H    -16.424000   63.738300   65.161400
  H    -14.685300   63.431100   64.933300
  C    -15.860700   61.808800   65.756100
  H    -15.618100   61.949900   66.809700
  H    -15.101900   61.084700   65.551800
  H    -16.785900   61.257100   65.603300
  H    -17.797500   56.617500   63.995000
  H    -20.481000   63.841400   62.210100

 Total Charge           Charge          ....    0
 Multiplicity           Mult            ....    1
 Number of Electrons    NEL             ....  134
 Basis Dimension        Dim             ....  322

ORBITAL ENERGIES
----------------

  NO   OCC          E(Eh)            E(eV)
   0   2.0000     -88.966613     -2420.9046
   1   2.0000     -88.961547     -2420.7668
   2   2.0000     -10.323697      -280.9221
   3   2.0000     -10.320899      -280.8459
   4   2.0000     -10.311254      -280.5835
   5   2.0000     -10.309488      -280.5354
   6   2.0000     -10.303109      -280.3618
   7   2.0000     -10.297034      -280.1966
   8   2.0000     -10.294421      -280.1254
   9   2.0000     -10.293760      -280.1075
  10   2.0000     -10.289117      -279.9811
  11   2.0000     -10.288653      -279.9685
  12   2.0000     -10.287019      -279.9240
  13   2.0000     -10.286199      -279.9017
  14   2.0000     -10.285439      -279.8810
  15   2.0000     -10.264632      -279.3148
  16   2.0000      -8.082083      -219.9246
  17   2.0000      -8.077786      -219.8077
  18   2.0000      -6.040362      -164.3666
  19   2.0000      -6.036514      -164.2619
  20   2.0000      -6.036170      -164.2525
  21   2.0000      -6.033023      -164.1669
  22   2.0000      -6.032136      -164.1428
  23   2.0000      -6.028501      -164.0439
  24   2.0000      -1.015530       -27.6340
  25   2.0000      -0.992359       -27.0035
  26   2.0000      -0.917950       -24.9787
  27   2.0000      -0.901197       -24.5228
  28   2.0000      -0.873441       -23.7675
  29   2.0000      -0.848988       -23.1021
  30   2.0000      -0.846311       -23.0293
  31   2.0000      -0.817454       -22.2441
  32   2.0000      -0.786044       -21.3893
  33   2.0000      -0.772495       -21.0207
  34   2.0000      -0.712853       -19.3977
  35   2.0000      -0.693648       -18.8751
  36   2.0000      -0.686068       -18.6688
  37   2.0000      -0.655218       -17.8294
  38   2.0000      -0.644594       -17.5403
  39   2.0000      -0.629157       -17.1202
  40   2.0000      -0.600251       -16.3336
  41   2.0000      -0.570425       -15.5220
  42   2.0000      -0.553905       -15.0725
  43   2.0000      -0.548673       -14.9302
  44   2.0000      -0.538021       -14.6403
  45   2.0000      -0.533618       -14.5205
  46   2.0000      -0.516251       -14.0479
  47   2.0000      -0.510050       -13.8792
  48   2.0000      -0.502223       -13.6662
  49   2.0000      -0.496066       -13.4986
  50   2.0000      -0.487312       -13.2604
  51   2.0000      -0.476754       -12.9731
  52   2.0000      -0.473877       -12.8949
  53   2.0000      -0.463828       -12.6214
  54   2.0000      -0.455636       -12.3985
  55   2.0000      -0.448352       -12.2003
  56   2.0000      -0.442777       -12.0486
  57   2.0000      -0.437340       -11.9006
  58   2.0000      -0.431677       -11.7465
  59   2.0000      -0.429661       -11.6917
  60   2.0000      -0.422407       -11.4943
  61   2.0000      -0.413582       -11.2541
  62   2.0000      -0.398748       -10.8505
  63   2.0000      -0.343040        -9.3346
  64   2.0000      -0.326971        -8.8973
  65   2.0000      -0.318589        -8.6693
  66   2.0000      -0.306163        -8.3311
  67   0.0000       0.046876         1.2756
  68   0.0000       0.051783         1.4091
  69   0.0000       0.109931         2.9914
  70   0.0000       0.124472         3.3871
  71   0.0000       0.132766         3.6127

MULLIKEN ATOMIC CHARGES
-----------------------
   0 S :    0.129174
   1 C :   -0.089640
   2 C :   -0.120869
   3 C :    0.046195
   4 C :   -0.185695
   5 H :    0.017158
   6 C :    0.074509
   7 H :    0.015350
   8 H :    0.029971
   9 C :   -0.050041
  10 H :    0.033025
  11 H :    0.022314
  12 C :   -0.087839
  13 H :    0.045922
  14 H :    0.048241
  15 H :    0.041628
  16 S :    0.127681
  17 C :   -0.099061
  18 C :   -0.065716
  19 C :   -0.002248
  20 C :   -0.168241
  21 H :    0.039196
  22 C :    0.081546
  23 H :    0.008327
  24 H :    0.021914
  25 C :   -0.085958
  26 H :    0.021393
  27 H :    0.034780
  28 C :   -0.024544
  29 H :    0.028657
  30 H :    0.002819
  31 H :    0.026044
  32 H :    0.026870
  33 H :    0.057139
Sum of atomic charges:   -0.0000000

LOEWDIN ATOMIC CHARGES
----------------------
   0 S :    0.443029
   1 C :   -0.210726
   2 C :   -0.067338
   3 C :   -0.057331
   4 C :   -0.198395
   5 H :    0.033083
   6 C :   -0.039131
   7 H :    0.035124
   8 H :    0.034374
   9 C :   -0.041742
  10 H :    0.025144
  11 H :    0.023702
  12 C :   -0.073172
  13 H :    0.034342
  14 H :    0.027484
  15 H :    0.029955
  16 S :    0.434748
  17 C :   -0.199396
  18 C :   -0.080051
  19 C :   -0.051643
  20 C :   -0.214924
  21 H :    0.041512
  22 C :   -0.033993
  23 H :    0.027311
  24 H :    0.031101
  25 C :   -0.039000
  26 H :    0.020320
  27 H :    0.027717
  28 C :   -0.075780
  29 H :    0.028181
  30 H :    0.019229
  31 H :    0.017038
  32 H :    0.017376
  33 H :    0.031851

  Mayer bond orders larger than 0.100000
B(  0-S ,  1-C ) :   1.1648 B(  0-S ,  4-C ) :   1.1652 B(  1-C ,  2-C ) :   1.6075
B(  1-C , 32-H ) :   0.9635 B(  2-C ,  3-C ) :   1.2483 B(  2-C ,  6-C ) :   1.0147
B(  3-C ,  4-C ) :   1.5960 B(  3-C ,  5-H ) :   0.9843 B(  4-C , 20-C ) :   1.0125
B(  6-C ,  7-H ) :   0.9335 B(  6-C ,  8-H ) :   0.9258 B(  6-C ,  9-C ) :   1.0816
B(  9-C , 10-H ) :   0.9505 B(  9-C , 11-H ) :   0.9482 B(  9-C , 12-C ) :   1.0702
B( 12-C , 13-H ) :   0.9747 B( 12-C , 14-H ) :   0.9751 B( 12-C , 15-H ) :   0.9776
B( 16-S , 17-C ) :   1.1671 B( 16-S , 20-C ) :   1.1495 B( 17-C , 18-C ) :   1.6313
B( 17-C , 33-H ) :   0.9657 B( 18-C , 19-C ) :   1.2144 B( 18-C , 21-H ) :   0.9859
B( 19-C , 20-C ) :   1.6107 B( 19-C , 22-C ) :   1.0382 B( 22-C , 23-H ) :   0.9266
B( 22-C , 24-H ) :   0.9435 B( 22-C , 25-C ) :   1.0728 B( 25-C , 26-H ) :   0.9566
B( 25-C , 27-H ) :   0.9547 B( 25-C , 28-C ) :   1.0797 B( 28-C , 29-H ) :   0.9708
B( 28-C , 30-H ) :   0.9680 B( 28-C , 31-H ) :   0.9724

Dispersion correction           -0.014891543
FINAL SINGLE POINT ENERGY     -1339.866051129446

DIPOLE MOMENT
-------------
                                X             Y             Z
Electronic contribution:    -13.44154       5.24590       4.70190
Nuclear contribution   :     13.80707      -5.29849      -4.84442
                        -----------------------------------------
Total Dipole Moment    :      0.36553      -0.05259      -0.14252
                        -----------------------------------------
Magnitude (a.u.)       :      0.39584
Magnitude (Debye)      :      1.00615

Rotational constants in cm-1:     0.021098     0.008607     0.007414
Rotational constants in MHz :   632.514295   258.045367   222.273172

                             ****ORCA TERMINATED NORMALLY****
TOTAL RUN TIME: 0 days 0 hours 0 minutes 32 seconds 478 msec
