                         Program Version 4.2.1 -  RELEASE  -
|  1> ! wB97X-D3 SP def2-SVP
|  2> %pal
|  3> nprocs 16
|  4> end
|  5>
|  6> * xyz 0 1
|  7> S 	 41.8438 	 13.1201 	 83.968
|  8> C 	 40.806 	 11.7391 	 84.0452
|  9> C 	 41.4767 	 10.508 	 83.793
| 10> C 	 42.8236 	 10.7285 	 83.4606
| 11> C 	 43.2764 	 12.0389 	 83.6255
| 12> H 	 43.5483 	 9.97599 	 83.1218
| 13> C 	 40.8743 	 9.16631 	 83.7096
| 14> H 	 41.6048 	 8.42201 	 83.3508
| 15> H 	 40.2547 	 9.25663 	 82.8242
| 16> C 	 40.1963 	 8.58002 	 84.9679
| 17> H 	 41.0077 	 8.30952 	 85.6837
| 18> H 	 39.5284 	 9.33219 	 85.4647
| 19> C 	 39.3678 	 7.29921 	 84.6909
| 20> H 	 38.5499 	 7.54816 	 83.9827
| 21> H 	 39.9864 	 6.67026 	 84.1034
| 22> H 	 38.862 	 6.68314 	 85.425
| 23> S 	 44.9408 	 14.1156 	 82.7664
| 24> C 	 46.6594 	 13.9777 	 83.0179
| 25> C 	 46.9915 	 12.8972 	 83.7451
| 26> C 	 45.8133 	 12.1032 	 84.0991
| 27> C 	 44.6251 	 12.5573 	 83.5999
| 28> H 	 48.0064 	 12.7704 	 84.0601
| 29> C 	 45.9958 	 10.8876 	 84.873
| 30> H 	 46.81 	 10.3137 	 84.3995
| 31> H 	 45.1683 	 10.2044 	 84.9432
| 32> C 	 46.3206 	 11.1047 	 86.3304
| 33> H 	 47.0649 	 11.8906 	 86.4568
| 34> H 	 46.8096 	 10.2101 	 86.6446
| 35> C 	 45.1361 	 11.4607 	 87.2237
| 36> H 	 45.5064 	 11.4829 	 88.2373
| 37> H 	 44.3184 	 10.7843 	 87.2637
| 38> H 	 44.6938 	 12.3947 	 86.8144
| 39> H 	 39.72 	 11.7968 	 84.2276
| 40> H 	 47.3256 	 14.6886 	 82.6005
| 41> *
| 42>
| 43>                          ****END OF INPUT****

CARTESIAN COORDINATES (ANGSTROEM)
---------------------------------
  S     41.843800   13.120100   83.968000
  C     40.806000   11.739100   84.045200
  C     41.476700   10.508000   83.793000
  C     42.823600   10.728500   83.460600
  C     43.276400   12.038900   83.625500
  H     43.548300    9.975990   83.121800
  C     40.874300    9.166310   83.709600
  H     41.604800    8.422010   83.350800
  H     40.254700    9.256630   82.824200
  C     40.196300    8.580020   84.967900
  H     41.007700    8.309520   85.683700
  H     39.528400    9.332190   85.464700
  C     39.367800    7.299210   84.690900
  H     38.549900    7.548160   83.982700
  H     39.986400    6.670260   84.103400
  H     38.862000    6.683140   85.425000
  S     44.940800   14.115600   82.766400
  C     46.659400   13.977700   83.017900
  C     46.991500   12.897200   83.745100
  C     45.813300   12.103200   84.099100
  C     44.625100   12.557300   83.599900
  H     48.006400   12.770400   84.060100
  C     45.995800   10.887600   84.873000
  H     46.810000   10.313700   84.399500
  H     45.168300   10.204400   84.943200
  C     46.320600   11.104700   86.330400
  H     47.064900   11.890600   86.456800
  H     46.809600   10.210100   86.644600
  C     45.136100   11.460700   87.223700
  H     45.506400   11.482900   88.237300
  H     44.318400   10.784300   87.263700
  H     44.693800   12.394700   86.814400
  H     39.720000   11.796800   84.227600
  H     47.325600   14.688600   82.600500

 Total Charge           Charge          ....    0
 Multiplicity           Mult            ....    1
 Number of Electrons    NEL             ....  134
 Basis Dimension        Dim             ....  322

ORBITAL ENERGIES
----------------

  NO   OCC          E(Eh)            E(eV)
   0   2.0000     -88.970253     -2421.0037
   1   2.0000     -88.957573     -2420.6586
   2   2.0000     -10.335411      -281.2408
   3   2.0000     -10.327689      -281.0307
   4   2.0000     -10.319802      -280.8161
   5   2.0000     -10.314913      -280.6831
   6   2.0000     -10.303121      -280.3622
   7   2.0000     -10.302601      -280.3480
   8   2.0000     -10.299454      -280.2624
   9   2.0000     -10.297400      -280.2065
  10   2.0000     -10.293877      -280.1106
  11   2.0000     -10.293224      -280.0929
  12   2.0000     -10.280493      -279.7464
  13   2.0000     -10.278731      -279.6985
  14   2.0000     -10.277028      -279.6522
  15   2.0000     -10.268825      -279.4289
  16   2.0000      -8.083870      -219.9733
  17   2.0000      -8.072638      -219.6676
  18   2.0000      -6.042386      -164.4217
  19   2.0000      -6.038524      -164.3166
  20   2.0000      -6.034708      -164.2127
  21   2.0000      -6.031310      -164.1203
  22   2.0000      -6.027194      -164.0083
  23   2.0000      -6.023113      -163.8972
  24   2.0000      -1.003322       -27.3018
  25   2.0000      -0.982270       -26.7289
  26   2.0000      -0.917015       -24.9532
  27   2.0000      -0.911901       -24.8141
  28   2.0000      -0.871502       -23.7148
  29   2.0000      -0.855162       -23.2701
  30   2.0000      -0.845217       -22.9995
  31   2.0000      -0.817052       -22.2331
  32   2.0000      -0.783719       -21.3261
  33   2.0000      -0.770689       -20.9715
  34   2.0000      -0.708787       -19.2871
  35   2.0000      -0.706561       -19.2265
  36   2.0000      -0.694465       -18.8973
  37   2.0000      -0.661638       -18.0041
  38   2.0000      -0.639893       -17.4124
  39   2.0000      -0.620679       -16.8895
  40   2.0000      -0.606149       -16.4941
  41   2.0000      -0.576102       -15.6765
  42   2.0000      -0.562479       -15.3058
  43   2.0000      -0.557660       -15.1747
  44   2.0000      -0.535520       -14.5722
  45   2.0000      -0.520734       -14.1699
  46   2.0000      -0.519060       -14.1243
  47   2.0000      -0.510707       -13.8970
  48   2.0000      -0.507907       -13.8208
  49   2.0000      -0.499627       -13.5955
  50   2.0000      -0.491907       -13.3855
  51   2.0000      -0.483101       -13.1458
  52   2.0000      -0.477057       -12.9814
  53   2.0000      -0.464748       -12.6464
  54   2.0000      -0.457564       -12.4509
  55   2.0000      -0.443590       -12.0707
  56   2.0000      -0.441628       -12.0173
  57   2.0000      -0.438181       -11.9235
  58   2.0000      -0.428828       -11.6690
  59   2.0000      -0.426365       -11.6020
  60   2.0000      -0.420440       -11.4407
  61   2.0000      -0.418765       -11.3952
  62   2.0000      -0.406213       -11.0536
  63   2.0000      -0.355279        -9.6676
  64   2.0000      -0.333489        -9.0747
  65   2.0000      -0.324859        -8.8399
  66   2.0000      -0.284426        -7.7396
  67   0.0000       0.023508         0.6397
  68   0.0000       0.068227         1.8566
  69   0.0000       0.105479         2.8702
  70   0.0000       0.118517         3.2250
  71   0.0000       0.130317         3.5461

MULLIKEN ATOMIC CHARGES
-----------------------
   0 S :    0.114251
   1 C :   -0.120607
   2 C :   -0.085294
   3 C :    0.018233
   4 C :   -0.151968
   5 H :    0.029024
   6 C :    0.038819
   7 H :    0.017966
   8 H :    0.038038
   9 C :   -0.076849
  10 H :    0.042706
  11 H :    0.039810
  12 C :   -0.038476
  13 H :    0.020399
  14 H :    0.009949
  15 H :    0.042811
  16 S :    0.069576
  17 C :   -0.066702
  18 C :   -0.014437
  19 C :   -0.040731
  20 C :   -0.128024
  21 H :    0.017206
  22 C :    0.053032
  23 H :    0.027820
  24 H :    0.008236
  25 C :   -0.065277
  26 H :    0.017205
  27 H :    0.011581
  28 C :   -0.030616
  29 H :    0.033531
  30 H :    0.017003
  31 H :    0.043382
  32 H :    0.059588
  33 H :    0.048814
Sum of atomic charges:   -0.0000000

LOEWDIN ATOMIC CHARGES
----------------------
   0 S :    0.392185
   1 C :   -0.206221
   2 C :   -0.067158
   3 C :   -0.059655
   4 C :   -0.172332
   5 H :    0.037493
   6 C :   -0.040881
   7 H :    0.032863
   8 H :    0.036893
   9 C :   -0.037751
  10 H :    0.030513
  11 H :    0.025629
  12 C :   -0.073451
  13 H :    0.027628
  14 H :    0.017463
  15 H :    0.028220
  16 S :    0.367886
  17 C :   -0.162571
  18 C :   -0.069660
  19 C :   -0.051296
  20 C :   -0.187048
  21 H :    0.032022
  22 C :   -0.039895
  23 H :    0.035959
  24 H :    0.026562
  25 C :   -0.035096
  26 H :    0.020012
  27 H :    0.017929
  28 C :   -0.062304
  29 H :    0.027894
  30 H :    0.017313
  31 H :    0.034345
  32 H :    0.032274
  33 H :    0.024235

  Mayer bond orders larger than 0.100000
B(  0-S ,  1-C ) :   1.1566 B(  0-S ,  4-C ) :   1.1345 B(  1-C ,  2-C ) :   1.5649
B(  1-C ,  4-C ) :   0.1157 B(  1-C , 32-H ) :   0.9643 B(  2-C ,  3-C ) :   1.2734
B(  2-C ,  6-C ) :   1.0226 B(  3-C ,  4-C ) :   1.5585 B(  3-C ,  5-H ) :   0.9843
B(  4-C , 20-C ) :   1.0724 B(  6-C ,  7-H ) :   0.9392 B(  6-C ,  8-H ) :   0.9363
B(  6-C ,  9-C ) :   1.0439 B(  9-C , 10-H ) :   0.9563 B(  9-C , 11-H ) :   0.9649
B(  9-C , 12-C ) :   1.0652 B( 12-C , 13-H ) :   0.9747 B( 12-C , 14-H ) :   0.9727
B( 12-C , 15-H ) :   0.9783 B( 16-S , 17-C ) :   1.1467 B( 16-S , 20-C ) :   1.0880
B( 17-C , 18-C ) :   1.6467 B( 17-C , 33-H ) :   0.9697 B( 18-C , 19-C ) :   1.1748
B( 18-C , 21-H ) :   0.9968 B( 19-C , 20-C ) :   1.6362 B( 19-C , 22-C ) :   1.0740
B( 22-C , 23-H ) :   0.9247 B( 22-C , 24-H ) :   0.9330 B( 22-C , 25-C ) :   1.0737
B( 25-C , 26-H ) :   0.9568 B( 25-C , 27-H ) :   0.9499 B( 25-C , 28-C ) :   1.0783
B( 28-C , 29-H ) :   0.9723 B( 28-C , 30-H ) :   0.9737 B( 28-C , 31-H ) :   0.9744

Dispersion correction           -0.014433470
FINAL SINGLE POINT ENERGY     -1339.877101249660

DIPOLE MOMENT
-------------
                                X             Y             Z
Electronic contribution:      4.51416      24.86500     -13.75854
Nuclear contribution   :     -4.31556     -25.56632      13.90387
                        -----------------------------------------
Total Dipole Moment    :      0.19860      -0.70132       0.14533
                        -----------------------------------------
Magnitude (a.u.)       :      0.74325
Magnitude (Debye)      :      1.88919

Rotational constants in cm-1:     0.021635     0.007948     0.006587
Rotational constants in MHz :   648.600908   238.276606   197.459345

                             ****ORCA TERMINATED NORMALLY****
TOTAL RUN TIME: 0 days 0 hours 0 minutes 30 seconds 796 msec
