                         Program Version 4.2.1 -  RELEASE  -
|  1> ! wB97X-D3 SP def2-SVP
|  2> %pal
|  3> nprocs 16
|  4> end
|  5>
|  6> * xyz 0 1
|  7> S 	 -26.8616 	 53.9364 	 109.555
|  8> C 	 -28.2848 	 53.1765 	 110.181
|  9> C 	 -28.5626 	 53.5995 	 111.436
| 10> C 	 -27.618 	 54.605 	 111.945
| 11> C 	 -26.6981 	 54.9333 	 110.997
| 12> H 	 -27.5639 	 55.2322 	 112.844
| 13> C 	 -29.7704 	 53.1382 	 112.268
| 14> H 	 -30.6465 	 52.9319 	 111.585
| 15> H 	 -30.0723 	 53.9525 	 112.88
| 16> C 	 -29.457 	 51.9732 	 113.198
| 17> H 	 -30.3142 	 51.6355 	 113.84
| 18> H 	 -29.1464 	 51.0986 	 112.611
| 19> C 	 -28.3724 	 52.2487 	 114.197
| 20> H 	 -27.5759 	 52.5659 	 113.573
| 21> H 	 -28.6931 	 52.9831 	 114.954
| 22> H 	 -28.0919 	 51.3107 	 114.69
| 23> S 	 -25.704 	 56.8625 	 109.502
| 24> C 	 -24.5069 	 58.0135 	 110.151
| 25> C 	 -24.1195 	 57.6565 	 111.492
| 26> C 	 -24.932 	 56.6047 	 112.028
| 27> C 	 -25.7068 	 56.0174 	 111.007
| 28> H 	 -23.2756 	 58.2436 	 111.871
| 29> C 	 -24.8491 	 56.1337 	 113.451
| 30> H 	 -25.8301 	 55.8327 	 113.85
| 31> H 	 -24.6998 	 57.0224 	 114.029
| 32> C 	 -23.7735 	 55.2012 	 113.824
| 33> H 	 -23.9309 	 54.2865 	 113.367
| 34> H 	 -23.6997 	 55.0581 	 114.922
| 35> C 	 -22.4404 	 55.8164 	 113.353
| 36> H 	 -22.361 	 56.7959 	 113.678
| 37> H 	 -22.2414 	 55.7304 	 112.262
| 38> H 	 -21.6987 	 55.1952 	 113.808
| 39> H 	 -28.8125 	 52.4143 	 109.624
| 40> H 	 -23.8375 	 58.6909 	 109.649
| 41> *
| 42>
| 43>                          ****END OF INPUT****

CARTESIAN COORDINATES (ANGSTROEM)
---------------------------------
  S    -26.861600   53.936400  109.555000
  C    -28.284800   53.176500  110.181000
  C    -28.562600   53.599500  111.436000
  C    -27.618000   54.605000  111.945000
  C    -26.698100   54.933300  110.997000
  H    -27.563900   55.232200  112.844000
  C    -29.770400   53.138200  112.268000
  H    -30.646500   52.931900  111.585000
  H    -30.072300   53.952500  112.880000
  C    -29.457000   51.973200  113.198000
  H    -30.314200   51.635500  113.840000
  H    -29.146400   51.098600  112.611000
  C    -28.372400   52.248700  114.197000
  H    -27.575900   52.565900  113.573000
  H    -28.693100   52.983100  114.954000
  H    -28.091900   51.310700  114.690000
  S    -25.704000   56.862500  109.502000
  C    -24.506900   58.013500  110.151000
  C    -24.119500   57.656500  111.492000
  C    -24.932000   56.604700  112.028000
  C    -25.706800   56.017400  111.007000
  H    -23.275600   58.243600  111.871000
  C    -24.849100   56.133700  113.451000
  H    -25.830100   55.832700  113.850000
  H    -24.699800   57.022400  114.029000
  C    -23.773500   55.201200  113.824000
  H    -23.930900   54.286500  113.367000
  H    -23.699700   55.058100  114.922000
  C    -22.440400   55.816400  113.353000
  H    -22.361000   56.795900  113.678000
  H    -22.241400   55.730400  112.262000
  H    -21.698700   55.195200  113.808000
  H    -28.812500   52.414300  109.624000
  H    -23.837500   58.690900  109.649000

 Total Charge           Charge          ....    0
 Multiplicity           Mult            ....    1
 Number of Electrons    NEL             ....  134
 Basis Dimension        Dim             ....  322

ORBITAL ENERGIES
----------------

  NO   OCC          E(Eh)            E(eV)
   0   2.0000     -88.971091     -2421.0265
   1   2.0000     -88.963330     -2420.8153
   2   2.0000     -10.329792      -281.0879
   3   2.0000     -10.329027      -281.0671
   4   2.0000     -10.318753      -280.7875
   5   2.0000     -10.312672      -280.6221
   6   2.0000     -10.309651      -280.5399
   7   2.0000     -10.306561      -280.4558
   8   2.0000     -10.303193      -280.3641
   9   2.0000     -10.297401      -280.2065
  10   2.0000     -10.292729      -280.0794
  11   2.0000     -10.285486      -279.8823
  12   2.0000     -10.282961      -279.8136
  13   2.0000     -10.278062      -279.6803
  14   2.0000     -10.269457      -279.4461
  15   2.0000     -10.268295      -279.4145
  16   2.0000      -8.085208      -220.0097
  17   2.0000      -8.078787      -219.8350
  18   2.0000      -6.043729      -164.4582
  19   2.0000      -6.039738      -164.3496
  20   2.0000      -6.037364      -164.2850
  21   2.0000      -6.036009      -164.2482
  22   2.0000      -6.033196      -164.1716
  23   2.0000      -6.029405      -164.0685
  24   2.0000      -1.009515       -27.4703
  25   2.0000      -0.981977       -26.7210
  26   2.0000      -0.923479       -25.1291
  27   2.0000      -0.913591       -24.8601
  28   2.0000      -0.870657       -23.6918
  29   2.0000      -0.852164       -23.1886
  30   2.0000      -0.841883       -22.9088
  31   2.0000      -0.816727       -22.2243
  32   2.0000      -0.786032       -21.3890
  33   2.0000      -0.773401       -21.0453
  34   2.0000      -0.710158       -19.3244
  35   2.0000      -0.692793       -18.8519
  36   2.0000      -0.688740       -18.7416
  37   2.0000      -0.665833       -18.1182
  38   2.0000      -0.644462       -17.5367
  39   2.0000      -0.610370       -16.6090
  40   2.0000      -0.594985       -16.1904
  41   2.0000      -0.577122       -15.7043
  42   2.0000      -0.561692       -15.2844
  43   2.0000      -0.551927       -15.0187
  44   2.0000      -0.547102       -14.8874
  45   2.0000      -0.541853       -14.7446
  46   2.0000      -0.523060       -14.2332
  47   2.0000      -0.514108       -13.9896
  48   2.0000      -0.502764       -13.6809
  49   2.0000      -0.492384       -13.3984
  50   2.0000      -0.489981       -13.3331
  51   2.0000      -0.480422       -13.0729
  52   2.0000      -0.476035       -12.9536
  53   2.0000      -0.463078       -12.6010
  54   2.0000      -0.458229       -12.4691
  55   2.0000      -0.448572       -12.2063
  56   2.0000      -0.444105       -12.0847
  57   2.0000      -0.437493       -11.9048
  58   2.0000      -0.429216       -11.6796
  59   2.0000      -0.425583       -11.5807
  60   2.0000      -0.419329       -11.4105
  61   2.0000      -0.412014       -11.2115
  62   2.0000      -0.406871       -11.0715
  63   2.0000      -0.354187        -9.6379
  64   2.0000      -0.333496        -9.0749
  65   2.0000      -0.329182        -8.9575
  66   2.0000      -0.289045        -7.8653
  67   0.0000       0.025498         0.6938
  68   0.0000       0.072546         1.9741
  69   0.0000       0.106865         2.9080
  70   0.0000       0.114403         3.1131
  71   0.0000       0.127084         3.4581

MULLIKEN ATOMIC CHARGES
-----------------------
   0 S :    0.094893
   1 C :   -0.110794
   2 C :   -0.109067
   3 C :    0.017430
   4 C :   -0.143882
   5 H :    0.023180
   6 C :    0.092561
   7 H :    0.038567
   8 H :    0.011382
   9 C :   -0.088519
  10 H :    0.031075
  11 H :    0.023697
  12 C :   -0.050457
  13 H :    0.035084
  14 H :    0.033121
  15 H :    0.033827
  16 S :    0.118363
  17 C :   -0.091844
  18 C :   -0.083672
  19 C :   -0.040338
  20 C :   -0.135051
  21 H :    0.034188
  22 C :    0.074094
  23 H :    0.009379
  24 H :    0.008985
  25 C :   -0.018137
  26 H :    0.016372
  27 H :    0.034033
  28 C :   -0.043778
  29 H :    0.010783
  30 H :    0.053464
  31 H :    0.019374
  32 H :    0.049756
  33 H :    0.051931
Sum of atomic charges:    0.0000000

LOEWDIN ATOMIC CHARGES
----------------------
   0 S :    0.392744
   1 C :   -0.196062
   2 C :   -0.061370
   3 C :   -0.072157
   4 C :   -0.186448
   5 H :    0.037053
   6 C :   -0.031356
   7 H :    0.037946
   8 H :    0.023917
   9 C :   -0.047414
  10 H :    0.025230
  11 H :    0.022006
  12 C :   -0.064521
  13 H :    0.020544
  14 H :    0.024672
  15 H :    0.028824
  16 S :    0.418770
  17 C :   -0.197482
  18 C :   -0.061085
  19 C :   -0.057071
  20 C :   -0.197122
  21 H :    0.036563
  22 C :   -0.039721
  23 H :    0.026679
  24 H :    0.029349
  25 C :   -0.026981
  26 H :    0.015956
  27 H :    0.031070
  28 C :   -0.055966
  29 H :    0.009844
  30 H :    0.034011
  31 H :    0.022655
  32 H :    0.030750
  33 H :    0.026171

  Mayer bond orders larger than 0.100000
B(  0-S ,  1-C ) :   1.1161 B(  0-S ,  4-C ) :   1.1395 B(  1-C ,  2-C ) :   1.6649
B(  1-C , 32-H ) :   0.9714 B(  2-C ,  3-C ) :   1.1698 B(  2-C ,  6-C ) :   1.0137
B(  3-C ,  4-C ) :   1.6339 B(  3-C ,  5-H ) :   0.9852 B(  4-C , 20-C ) :   1.0209
B(  6-C ,  7-H ) :   0.9468 B(  6-C ,  8-H ) :   0.9384 B(  6-C ,  9-C ) :   1.0674
B(  9-C , 10-H ) :   0.9565 B(  9-C , 11-H ) :   0.9563 B(  9-C , 12-C ) :   1.0837
B( 12-C , 13-H ) :   0.9723 B( 12-C , 14-H ) :   0.9746 B( 12-C , 15-H ) :   0.9691
B( 16-S , 17-C ) :   1.1402 B( 16-S , 20-C ) :   1.1652 B( 17-C , 18-C ) :   1.6256
B( 17-C , 20-C ) :   0.1113 B( 17-C , 33-H ) :   0.9622 B( 18-C , 19-C ) :   1.2266
B( 18-C , 21-H ) :   0.9837 B( 19-C , 20-C ) :   1.5720 B( 19-C , 22-C ) :   1.0423
B( 22-C , 23-H ) :   0.9284 B( 22-C , 24-H ) :   0.9191 B( 22-C , 25-C ) :   1.0892
B( 25-C , 26-H ) :   0.9489 B( 25-C , 27-H ) :   0.9513 B( 25-C , 28-C ) :   1.0893
B( 28-C , 29-H ) :   0.9736 B( 28-C , 30-H ) :   0.9669 B( 28-C , 31-H ) :   0.9693

Dispersion correction           -0.014882104
FINAL SINGLE POINT ENERGY     -1339.863803604738

DIPOLE MOMENT
-------------
                                X             Y             Z
Electronic contribution:     -1.37906       8.78854     -24.69259
Nuclear contribution   :      1.43538      -8.88328      25.25983
                        -----------------------------------------
Total Dipole Moment    :      0.05632      -0.09474       0.56724
                        -----------------------------------------
Magnitude (a.u.)       :      0.57784
Magnitude (Debye)      :      1.46876

Rotational constants in cm-1:     0.020035     0.009393     0.007058
Rotational constants in MHz :   600.647392   281.594651   211.580790

                             ****ORCA TERMINATED NORMALLY****
TOTAL RUN TIME: 0 days 0 hours 0 minutes 31 seconds 194 msec
