                         Program Version 4.2.1 -  RELEASE  -
|  1> ! wB97X-D3 SP def2-SVP
|  2> %pal
|  3> nprocs 16
|  4> end
|  5>
|  6> * xyz 0 1
|  7> S 	 18.7386 	 18.3792 	 38.3789
|  8> C 	 18.8904 	 18.4331 	 36.6675
|  9> C 	 17.6021 	 18.4888 	 36.1016
| 10> C 	 16.6162 	 18.8711 	 37.0557
| 11> C 	 17.0278 	 18.82 	 38.3762
| 12> H 	 15.5216 	 19.0656 	 36.8021
| 13> C 	 17.1696 	 18.2624 	 34.6311
| 14> H 	 16.4212 	 17.5375 	 34.5323
| 15> H 	 18.0986 	 17.8899 	 34.1466
| 16> C 	 16.7051 	 19.4983 	 33.9164
| 17> H 	 16.6749 	 19.2203 	 32.8701
| 18> H 	 15.6565 	 19.7721 	 34.0867
| 19> C 	 17.6693 	 20.6887 	 33.8923
| 20> H 	 18.6409 	 20.2911 	 33.5762
| 21> H 	 17.3842 	 21.4978 	 33.1897
| 22> H 	 17.7864 	 21.2703 	 34.801
| 23> S 	 15.8189 	 17.6638 	 40.6619
| 24> C 	 14.663 	 18.699 	 41.481
| 25> C 	 14.6324 	 20.0026 	 41.0457
| 26> C 	 15.444 	 20.1907 	 39.881
| 27> C 	 16.0945 	 19.0451 	 39.4778
| 28> H 	 14.1028 	 20.7457 	 41.5734
| 29> C 	 15.5357 	 21.5705 	 39.1144
| 30> H 	 14.6375 	 21.616 	 38.4854
| 31> H 	 16.4343 	 21.5383 	 38.5467
| 32> C 	 15.8049 	 22.8853 	 39.9891
| 33> H 	 15.3181 	 23.6272 	 39.2858
| 34> H 	 16.8478 	 23.1363 	 39.9779
| 35> C 	 15.0814 	 23.155 	 41.2735
| 36> H 	 15.2274 	 22.4016 	 42.1236
| 37> H 	 13.9939 	 23.165 	 41.067
| 38> H 	 15.3549 	 24.1197 	 41.6717
| 39> H 	 19.6523 	 17.9703 	 36.1133
| 40> H 	 13.8895 	 18.2736 	 42.1742
| 41> *
| 42>
| 43>                          ****END OF INPUT****

CARTESIAN COORDINATES (ANGSTROEM)
---------------------------------
  S     18.738600   18.379200   38.378900
  C     18.890400   18.433100   36.667500
  C     17.602100   18.488800   36.101600
  C     16.616200   18.871100   37.055700
  C     17.027800   18.820000   38.376200
  H     15.521600   19.065600   36.802100
  C     17.169600   18.262400   34.631100
  H     16.421200   17.537500   34.532300
  H     18.098600   17.889900   34.146600
  C     16.705100   19.498300   33.916400
  H     16.674900   19.220300   32.870100
  H     15.656500   19.772100   34.086700
  C     17.669300   20.688700   33.892300
  H     18.640900   20.291100   33.576200
  H     17.384200   21.497800   33.189700
  H     17.786400   21.270300   34.801000
  S     15.818900   17.663800   40.661900
  C     14.663000   18.699000   41.481000
  C     14.632400   20.002600   41.045700
  C     15.444000   20.190700   39.881000
  C     16.094500   19.045100   39.477800
  H     14.102800   20.745700   41.573400
  C     15.535700   21.570500   39.114400
  H     14.637500   21.616000   38.485400
  H     16.434300   21.538300   38.546700
  C     15.804900   22.885300   39.989100
  H     15.318100   23.627200   39.285800
  H     16.847800   23.136300   39.977900
  C     15.081400   23.155000   41.273500
  H     15.227400   22.401600   42.123600
  H     13.993900   23.165000   41.067000
  H     15.354900   24.119700   41.671700
  H     19.652300   17.970300   36.113300
  H     13.889500   18.273600   42.174200

 Total Charge           Charge          ....    0
 Multiplicity           Mult            ....    1
 Number of Electrons    NEL             ....  134
 Basis Dimension        Dim             ....  322

ORBITAL ENERGIES
----------------

  NO   OCC          E(Eh)            E(eV)
   0   2.0000     -88.966826     -2420.9104
   1   2.0000     -88.963801     -2420.8281
   2   2.0000     -10.330212      -281.0994
   3   2.0000     -10.328967      -281.0655
   4   2.0000     -10.321281      -280.8563
   5   2.0000     -10.310065      -280.5511
   6   2.0000     -10.307609      -280.4843
   7   2.0000     -10.302039      -280.3327
   8   2.0000     -10.298953      -280.2488
   9   2.0000     -10.293508      -280.1006
  10   2.0000     -10.293183      -280.0917
  11   2.0000     -10.292793      -280.0811
  12   2.0000     -10.290439      -280.0171
  13   2.0000     -10.285418      -279.8804
  14   2.0000     -10.284772      -279.8629
  15   2.0000     -10.276712      -279.6436
  16   2.0000      -8.081333      -219.9042
  17   2.0000      -8.077534      -219.8009
  18   2.0000      -6.039970      -164.3559
  19   2.0000      -6.036005      -164.2480
  20   2.0000      -6.035819      -164.2430
  21   2.0000      -6.032477      -164.1520
  22   2.0000      -6.032005      -164.1392
  23   2.0000      -6.028103      -164.0330
  24   2.0000      -1.000556       -27.2265
  25   2.0000      -0.978748       -26.6331
  26   2.0000      -0.913169       -24.8486
  27   2.0000      -0.900158       -24.4946
  28   2.0000      -0.869245       -23.6534
  29   2.0000      -0.846940       -23.0464
  30   2.0000      -0.841299       -22.8929
  31   2.0000      -0.811778       -22.0896
  32   2.0000      -0.787217       -21.4213
  33   2.0000      -0.776099       -21.1187
  34   2.0000      -0.705145       -19.1880
  35   2.0000      -0.696408       -18.9502
  36   2.0000      -0.687883       -18.7182
  37   2.0000      -0.658031       -17.9059
  38   2.0000      -0.633483       -17.2380
  39   2.0000      -0.614433       -16.7196
  40   2.0000      -0.583323       -15.8730
  41   2.0000      -0.569658       -15.5012
  42   2.0000      -0.565480       -15.3875
  43   2.0000      -0.560255       -15.2453
  44   2.0000      -0.536429       -14.5970
  45   2.0000      -0.530095       -14.4246
  46   2.0000      -0.519057       -14.1243
  47   2.0000      -0.510062       -13.8795
  48   2.0000      -0.501604       -13.6493
  49   2.0000      -0.493193       -13.4205
  50   2.0000      -0.485046       -13.1988
  51   2.0000      -0.482359       -13.1257
  52   2.0000      -0.470832       -12.8120
  53   2.0000      -0.464869       -12.6497
  54   2.0000      -0.453706       -12.3460
  55   2.0000      -0.445725       -12.1288
  56   2.0000      -0.443826       -12.0771
  57   2.0000      -0.437254       -11.8983
  58   2.0000      -0.432996       -11.7824
  59   2.0000      -0.427005       -11.6194
  60   2.0000      -0.422574       -11.4988
  61   2.0000      -0.404596       -11.0096
  62   2.0000      -0.396881       -10.7997
  63   2.0000      -0.341923        -9.3042
  64   2.0000      -0.333101        -9.0641
  65   2.0000      -0.324861        -8.8399
  66   2.0000      -0.294477        -8.0131
  67   0.0000       0.034114         0.9283
  68   0.0000       0.055616         1.5134
  69   0.0000       0.110868         3.0169
  70   0.0000       0.116212         3.1623
  71   0.0000       0.124719         3.3938

MULLIKEN ATOMIC CHARGES
-----------------------
   0 S :    0.114372
   1 C :   -0.077715
   2 C :   -0.138503
   3 C :   -0.005343
   4 C :   -0.149899
   5 H :    0.038872
   6 C :    0.106752
   7 H :    0.027127
   8 H :    0.012874
   9 C :   -0.078944
  10 H :    0.023006
  11 H :    0.027615
  12 C :   -0.052958
  13 H :    0.022358
  14 H :    0.030731
  15 H :    0.037040
  16 S :    0.090627
  17 C :   -0.102393
  18 C :   -0.024557
  19 C :   -0.030707
  20 C :   -0.186413
  21 H :    0.004098
  22 C :    0.079331
  23 H :    0.050769
  24 H :    0.036948
  25 C :   -0.100108
  26 H :    0.033790
  27 H :    0.040578
  28 C :   -0.069254
  29 H :    0.052049
  30 H :    0.034242
  31 H :    0.034771
  32 H :    0.042017
  33 H :    0.076829
Sum of atomic charges:   -0.0000000

LOEWDIN ATOMIC CHARGES
----------------------
   0 S :    0.415701
   1 C :   -0.214596
   2 C :   -0.058148
   3 C :   -0.070389
   4 C :   -0.200408
   5 H :    0.041549
   6 C :   -0.023429
   7 H :    0.027730
   8 H :    0.030753
   9 C :   -0.048584
  10 H :    0.028727
  11 H :    0.022182
  12 C :   -0.068062
  13 H :    0.024877
  14 H :    0.029525
  15 H :    0.023034
  16 S :    0.357626
  17 C :   -0.178023
  18 C :   -0.074237
  19 C :   -0.046113
  20 C :   -0.173465
  21 H :    0.025496
  22 C :   -0.022129
  23 H :    0.034095
  24 H :    0.032390
  25 C :   -0.044347
  26 H :    0.037758
  27 H :    0.023048
  28 C :   -0.076373
  29 H :    0.029573
  30 H :    0.027443
  31 H :    0.027371
  32 H :    0.020540
  33 H :    0.038885

  Mayer bond orders larger than 0.100000
B(  0-S ,  1-C ) :   1.1496 B(  0-S ,  4-C ) :   1.1434 B(  1-C ,  2-C ) :   1.5950
B(  1-C , 32-H ) :   0.9589 B(  2-C ,  3-C ) :   1.2567 B(  2-C ,  6-C ) :   1.0263
B(  3-C ,  4-C ) :   1.5619 B(  3-C ,  5-H ) :   0.9820 B(  4-C , 20-C ) :   1.0605
B(  6-C ,  7-H ) :   0.9402 B(  6-C ,  8-H ) :   0.9338 B(  6-C ,  9-C ) :   1.0892
B(  9-C , 10-H ) :   0.9501 B(  9-C , 11-H ) :   0.9519 B(  9-C , 12-C ) :   1.0716
B( 12-C , 13-H ) :   0.9744 B( 12-C , 14-H ) :   0.9741 B( 12-C , 15-H ) :   0.9742
B( 16-S , 17-C ) :   1.1506 B( 16-S , 20-C ) :   1.1002 B( 17-C , 18-C ) :   1.6348
B( 17-C , 33-H ) :   0.9540 B( 18-C , 19-C ) :   1.2081 B( 18-C , 21-H ) :   0.9931
B( 19-C , 20-C ) :   1.6546 B( 19-C , 22-C ) :   1.0098 B( 22-C , 23-H ) :   0.9482
B( 22-C , 24-H ) :   0.9347 B( 22-C , 25-C ) :   1.0553 B( 25-C , 26-H ) :   0.9527
B( 25-C , 27-H ) :   0.9668 B( 25-C , 28-C ) :   1.0885 B( 28-C , 29-H ) :   0.9638
B( 28-C , 30-H ) :   0.9724 B( 28-C , 31-H ) :   0.9657

Dispersion correction           -0.014413124
FINAL SINGLE POINT ENERGY     -1339.852127841591

DIPOLE MOMENT
-------------
                                X             Y             Z
Electronic contribution:      5.92755     -20.77264      14.73881
Nuclear contribution   :     -6.39821      21.19778     -15.18211
                        -----------------------------------------
Total Dipole Moment    :     -0.47066       0.42514      -0.44330
                        -----------------------------------------
Magnitude (a.u.)       :      0.77381
Magnitude (Debye)      :      1.96687

Rotational constants in cm-1:     0.018822     0.008409     0.006791
Rotational constants in MHz :   564.267871   252.107112   203.577825

                             ****ORCA TERMINATED NORMALLY****
TOTAL RUN TIME: 0 days 0 hours 0 minutes 34 seconds 839 msec
