                         Program Version 4.2.1 -  RELEASE  -
|  1> ! wB97X-D3 SP def2-SVP
|  2> %pal
|  3> nprocs 16
|  4> end
|  5>
|  6> * xyz 0 1
|  7> S 	 -44.8397 	 18.1527 	 76.8619
|  8> C 	 -43.4035 	 18.7312 	 77.5283
|  9> C 	 -42.3316 	 17.8655 	 77.3026
| 10> C 	 -42.7311 	 16.7402 	 76.5231
| 11> C 	 -44.0948 	 16.6436 	 76.3828
| 12> H 	 -42.1192 	 15.9826 	 76.1152
| 13> C 	 -40.9396 	 18.0684 	 77.7988
| 14> H 	 -40.6757 	 17.1389 	 78.2675
| 15> H 	 -40.8574 	 18.8703 	 78.5404
| 16> C 	 -39.8929 	 18.3692 	 76.7428
| 17> H 	 -39.8998 	 17.4635 	 76.0333
| 18> H 	 -40.1983 	 19.1334 	 76.0035
| 19> C 	 -38.4825 	 18.5107 	 77.2558
| 20> H 	 -37.7674 	 18.7174 	 76.4521
| 21> H 	 -38.4432 	 19.2744 	 77.9433
| 22> H 	 -38.2313 	 17.6605 	 77.8772
| 23> S 	 -46.1816 	 14.9693 	 76.454
| 24> C 	 -46.7918 	 14.2051 	 75.0154
| 25> C 	 -46.0252 	 14.5802 	 73.8781
| 26> C 	 -44.9213 	 15.3725 	 74.3102
| 27> C 	 -44.8637 	 15.7209 	 75.6169
| 28> H 	 -46.2273 	 14.2131 	 72.9197
| 29> C 	 -43.9366 	 15.916 	 73.2782
| 30> H 	 -44.0827 	 15.3991 	 72.3183
| 31> H 	 -42.9819 	 15.7168 	 73.6651
| 32> C 	 -44.0462 	 17.3586 	 72.8812
| 33> H 	 -43.5876 	 17.9524 	 73.7285
| 34> H 	 -45.0899 	 17.6543 	 72.9013
| 35> C 	 -43.3245 	 17.6573 	 71.5336
| 36> H 	 -42.2205 	 17.6339 	 71.6063
| 37> H 	 -43.6093 	 18.6659 	 71.2113
| 38> H 	 -43.6413 	 17.0649 	 70.6692
| 39> H 	 -43.445 	 19.6669 	 78.0366
| 40> H 	 -47.4868 	 13.3517 	 75.04
| 41> *
| 42>
| 43>                          ****END OF INPUT****

CARTESIAN COORDINATES (ANGSTROEM)
---------------------------------
  S    -44.839700   18.152700   76.861900
  C    -43.403500   18.731200   77.528300
  C    -42.331600   17.865500   77.302600
  C    -42.731100   16.740200   76.523100
  C    -44.094800   16.643600   76.382800
  H    -42.119200   15.982600   76.115200
  C    -40.939600   18.068400   77.798800
  H    -40.675700   17.138900   78.267500
  H    -40.857400   18.870300   78.540400
  C    -39.892900   18.369200   76.742800
  H    -39.899800   17.463500   76.033300
  H    -40.198300   19.133400   76.003500
  C    -38.482500   18.510700   77.255800
  H    -37.767400   18.717400   76.452100
  H    -38.443200   19.274400   77.943300
  H    -38.231300   17.660500   77.877200
  S    -46.181600   14.969300   76.454000
  C    -46.791800   14.205100   75.015400
  C    -46.025200   14.580200   73.878100
  C    -44.921300   15.372500   74.310200
  C    -44.863700   15.720900   75.616900
  H    -46.227300   14.213100   72.919700
  C    -43.936600   15.916000   73.278200
  H    -44.082700   15.399100   72.318300
  H    -42.981900   15.716800   73.665100
  C    -44.046200   17.358600   72.881200
  H    -43.587600   17.952400   73.728500
  H    -45.089900   17.654300   72.901300
  C    -43.324500   17.657300   71.533600
  H    -42.220500   17.633900   71.606300
  H    -43.609300   18.665900   71.211300
  H    -43.641300   17.064900   70.669200
  H    -43.445000   19.666900   78.036600
  H    -47.486800   13.351700   75.040000

 Total Charge           Charge          ....    0
 Multiplicity           Mult            ....    1
 Number of Electrons    NEL             ....  134
 Basis Dimension        Dim             ....  322

ORBITAL ENERGIES
----------------

  NO   OCC          E(Eh)            E(eV)
   0   2.0000     -88.963150     -2420.8104
   1   2.0000     -88.962472     -2420.7919
   2   2.0000     -10.324484      -280.9435
   3   2.0000     -10.321935      -280.8741
   4   2.0000     -10.316535      -280.7272
   5   2.0000     -10.310267      -280.5566
   6   2.0000     -10.302702      -280.3508
   7   2.0000     -10.298221      -280.2289
   8   2.0000     -10.295087      -280.1436
   9   2.0000     -10.293354      -280.0964
  10   2.0000     -10.289512      -279.9919
  11   2.0000     -10.289358      -279.9877
  12   2.0000     -10.282669      -279.8057
  13   2.0000     -10.280917      -279.7580
  14   2.0000     -10.278190      -279.6838
  15   2.0000     -10.272650      -279.5330
  16   2.0000      -8.079342      -219.8501
  17   2.0000      -8.077888      -219.8105
  18   2.0000      -6.037607      -164.2916
  19   2.0000      -6.036255      -164.2548
  20   2.0000      -6.033602      -164.1827
  21   2.0000      -6.032085      -164.1414
  22   2.0000      -6.030301      -164.0928
  23   2.0000      -6.028961      -164.0564
  24   2.0000      -1.015689       -27.6383
  25   2.0000      -0.989939       -26.9376
  26   2.0000      -0.918187       -24.9851
  27   2.0000      -0.907609       -24.6973
  28   2.0000      -0.875503       -23.8236
  29   2.0000      -0.857046       -23.3214
  30   2.0000      -0.845729       -23.0135
  31   2.0000      -0.818117       -22.2621
  32   2.0000      -0.782915       -21.3042
  33   2.0000      -0.770412       -20.9640
  34   2.0000      -0.707464       -19.2511
  35   2.0000      -0.696535       -18.9537
  36   2.0000      -0.688490       -18.7348
  37   2.0000      -0.672617       -18.3028
  38   2.0000      -0.655555       -17.8386
  39   2.0000      -0.624965       -17.0062
  40   2.0000      -0.593441       -16.1483
  41   2.0000      -0.574715       -15.6388
  42   2.0000      -0.567962       -15.4550
  43   2.0000      -0.556959       -15.1556
  44   2.0000      -0.536011       -14.5856
  45   2.0000      -0.522035       -14.2053
  46   2.0000      -0.517169       -14.0729
  47   2.0000      -0.514057       -13.9882
  48   2.0000      -0.512414       -13.9435
  49   2.0000      -0.501482       -13.6460
  50   2.0000      -0.490435       -13.3454
  51   2.0000      -0.485139       -13.2013
  52   2.0000      -0.472126       -12.8472
  53   2.0000      -0.469892       -12.7864
  54   2.0000      -0.461354       -12.5541
  55   2.0000      -0.449122       -12.2212
  56   2.0000      -0.447540       -12.1782
  57   2.0000      -0.442941       -12.0530
  58   2.0000      -0.430929       -11.7262
  59   2.0000      -0.426839       -11.6149
  60   2.0000      -0.411902       -11.2084
  61   2.0000      -0.409095       -11.1320
  62   2.0000      -0.403427       -10.9778
  63   2.0000      -0.343041        -9.3346
  64   2.0000      -0.332959        -9.0603
  65   2.0000      -0.328466        -8.9380
  66   2.0000      -0.295237        -8.0338
  67   0.0000       0.036890         1.0038
  68   0.0000       0.059595         1.6217
  69   0.0000       0.113226         3.0810
  70   0.0000       0.123873         3.3708
  71   0.0000       0.131277         3.5722

MULLIKEN ATOMIC CHARGES
-----------------------
   0 S :    0.121263
   1 C :   -0.119508
   2 C :   -0.058314
   3 C :    0.019864
   4 C :   -0.134393
   5 H :    0.004625
   6 C :    0.095028
   7 H :    0.024132
   8 H :    0.016029
   9 C :   -0.137628
  10 H :    0.018682
  11 H :    0.031835
  12 C :    0.025984
  13 H :    0.045096
  14 H :    0.000413
  15 H :    0.018481
  16 S :    0.106876
  17 C :   -0.105012
  18 C :   -0.020102
  19 C :   -0.037312
  20 C :   -0.177088
  21 H :    0.002495
  22 C :    0.100799
  23 H :    0.003165
  24 H :    0.005198
  25 C :   -0.077673
  26 H :    0.039834
  27 H :    0.027643
  28 C :   -0.059564
  29 H :    0.041354
  30 H :    0.028564
  31 H :    0.031545
  32 H :    0.043742
  33 H :    0.073946
Sum of atomic charges:    0.0000000

LOEWDIN ATOMIC CHARGES
----------------------
   0 S :    0.438004
   1 C :   -0.207230
   2 C :   -0.061303
   3 C :   -0.052515
   4 C :   -0.199595
   5 H :    0.026347
   6 C :   -0.032169
   7 H :    0.031500
   8 H :    0.028391
   9 C :   -0.050633
  10 H :    0.023384
  11 H :    0.024915
  12 C :   -0.058353
  13 H :    0.034036
  14 H :    0.011885
  15 H :    0.027589
  16 S :    0.424324
  17 C :   -0.188812
  18 C :   -0.062847
  19 C :   -0.053726
  20 C :   -0.218741
  21 H :    0.023364
  22 C :   -0.031040
  23 H :    0.026871
  24 H :    0.019309
  25 C :   -0.043828
  26 H :    0.030937
  27 H :    0.022978
  28 C :   -0.070555
  29 H :    0.029199
  30 H :    0.028161
  31 H :    0.024086
  32 H :    0.022253
  33 H :    0.033812

  Mayer bond orders larger than 0.100000
B(  0-S ,  1-C ) :   1.1706 B(  0-S ,  4-C ) :   1.1664 B(  1-C ,  2-C ) :   1.5629
B(  1-C ,  4-C ) :   0.1008 B(  1-C , 32-H ) :   0.9778 B(  2-C ,  3-C ) :   1.2389
B(  2-C ,  6-C ) :   1.0341 B(  3-C ,  4-C ) :   1.5703 B(  3-C ,  5-H ) :   1.0089
B(  4-C , 20-C ) :   1.0233 B(  6-C ,  7-H ) :   0.9302 B(  6-C ,  8-H ) :   0.9434
B(  6-C ,  9-C ) :   1.0589 B(  9-C , 10-H ) :   0.9514 B(  9-C , 11-H ) :   0.9557
B(  9-C , 12-C ) :   1.0843 B( 12-C , 13-H ) :   0.9711 B( 12-C , 14-H ) :   0.9696
B( 12-C , 15-H ) :   0.9669 B( 16-S , 17-C ) :   1.1904 B( 16-S , 20-C ) :   1.1384
B( 17-C , 18-C ) :   1.5508 B( 17-C , 20-C ) :   0.1053 B( 17-C , 33-H ) :   0.9636
B( 18-C , 19-C ) :   1.2680 B( 18-C , 21-H ) :   1.0034 B( 19-C , 20-C ) :   1.5895
B( 19-C , 22-C ) :   1.0424 B( 22-C , 23-H ) :   0.9347 B( 22-C , 24-H ) :   0.9288
B( 22-C , 25-C ) :   1.0664 B( 25-C , 26-H ) :   0.9482 B( 25-C , 27-H ) :   0.9572
B( 25-C , 28-C ) :   1.0813 B( 28-C , 29-H ) :   0.9762 B( 28-C , 30-H ) :   0.9741
B( 28-C , 31-H ) :   0.9738

Dispersion correction           -0.014611263
FINAL SINGLE POINT ENERGY     -1339.876320028276

DIPOLE MOMENT
-------------
                                X             Y             Z
Electronic contribution:    -25.21486      -8.50461      12.41355
Nuclear contribution   :     25.71428       8.58150     -12.70637
                        -----------------------------------------
Total Dipole Moment    :      0.49942       0.07689      -0.29282
                        -----------------------------------------
Magnitude (a.u.)       :      0.58402
Magnitude (Debye)      :      1.48446

Rotational constants in cm-1:     0.019270     0.008572     0.006956
Rotational constants in MHz :   577.708329   256.986649   208.522252

                             ****ORCA TERMINATED NORMALLY****
TOTAL RUN TIME: 0 days 0 hours 0 minutes 28 seconds 935 msec
