                         Program Version 4.2.1 -  RELEASE  -
|  1> ! wB97X-D3 SP def2-SVP
|  2> %pal
|  3> nprocs 16
|  4> end
|  5>
|  6> * xyz 0 1
|  7> S 	 39.8866 	 10.8995 	 77.0392
|  8> C 	 40.9963 	 10.6182 	 75.6785
|  9> C 	 42.3193 	 10.8338 	 76.0912
| 10> C 	 42.4406 	 11.2711 	 77.4096
| 11> C 	 41.2401 	 11.4258 	 78.0821
| 12> H 	 43.3522 	 11.4768 	 77.9951
| 13> C 	 43.5517 	 10.3992 	 75.2769
| 14> H 	 43.2113 	 9.63115 	 74.5987
| 15> H 	 44.268 	 9.89073 	 75.843
| 16> C 	 44.1889 	 11.5211 	 74.419
| 17> H 	 44.7288 	 12.1012 	 75.0983
| 18> H 	 44.8986 	 11.0651 	 73.7181
| 19> C 	 43.2754 	 12.5417 	 73.7933
| 20> H 	 42.8324 	 13.1411 	 74.627
| 21> H 	 43.7811 	 13.3365 	 73.2098
| 22> H 	 42.5341 	 11.9324 	 73.2685
| 23> S 	 41.7159 	 13.3964 	 79.7503
| 24> C 	 40.8817 	 13.6534 	 81.2405
| 25> C 	 40.0634 	 12.5872 	 81.4733
| 26> C 	 40.041 	 11.5868 	 80.4421
| 27> C 	 40.9474 	 11.9306 	 79.4072
| 28> H 	 39.3376 	 12.4592 	 82.2326
| 29> C 	 39.1386 	 10.3601 	 80.4152
| 30> H 	 38.5745 	 10.2597 	 79.4235
| 31> H 	 38.3051 	 10.5623 	 81.1002
| 32> C 	 39.7663 	 8.9797 	 80.7181
| 33> H 	 40.5373 	 8.61164 	 80.0444
| 34> H 	 38.8754 	 8.4762 	 80.5384
| 35> C 	 40.1668 	 8.59602 	 82.1892
| 36> H 	 40.957 	 9.18203 	 82.4714
| 37> H 	 40.4532 	 7.6044 	 82.2431
| 38> H 	 39.3992 	 8.79526 	 82.8571
| 39> H 	 40.7861 	 10.1016 	 74.739
| 40> H 	 40.9964 	 14.5265 	 81.8518
| 41> *
| 42>
| 43>                          ****END OF INPUT****

CARTESIAN COORDINATES (ANGSTROEM)
---------------------------------
  S     39.886600   10.899500   77.039200
  C     40.996300   10.618200   75.678500
  C     42.319300   10.833800   76.091200
  C     42.440600   11.271100   77.409600
  C     41.240100   11.425800   78.082100
  H     43.352200   11.476800   77.995100
  C     43.551700   10.399200   75.276900
  H     43.211300    9.631150   74.598700
  H     44.268000    9.890730   75.843000
  C     44.188900   11.521100   74.419000
  H     44.728800   12.101200   75.098300
  H     44.898600   11.065100   73.718100
  C     43.275400   12.541700   73.793300
  H     42.832400   13.141100   74.627000
  H     43.781100   13.336500   73.209800
  H     42.534100   11.932400   73.268500
  S     41.715900   13.396400   79.750300
  C     40.881700   13.653400   81.240500
  C     40.063400   12.587200   81.473300
  C     40.041000   11.586800   80.442100
  C     40.947400   11.930600   79.407200
  H     39.337600   12.459200   82.232600
  C     39.138600   10.360100   80.415200
  H     38.574500   10.259700   79.423500
  H     38.305100   10.562300   81.100200
  C     39.766300    8.979700   80.718100
  H     40.537300    8.611640   80.044400
  H     38.875400    8.476200   80.538400
  C     40.166800    8.596020   82.189200
  H     40.957000    9.182030   82.471400
  H     40.453200    7.604400   82.243100
  H     39.399200    8.795260   82.857100
  H     40.786100   10.101600   74.739000
  H     40.996400   14.526500   81.851800

 Total Charge           Charge          ....    0
 Multiplicity           Mult            ....    1
 Number of Electrons    NEL             ....  134
 Basis Dimension        Dim             ....  322

ORBITAL ENERGIES
----------------

  NO   OCC          E(Eh)            E(eV)
   0   2.0000     -88.968170     -2420.9470
   1   2.0000     -88.965260     -2420.8678
   2   2.0000     -10.333398      -281.1860
   3   2.0000     -10.323563      -280.9184
   4   2.0000     -10.318013      -280.7674
   5   2.0000     -10.314970      -280.6846
   6   2.0000     -10.303753      -280.3794
   7   2.0000     -10.302267      -280.3389
   8   2.0000     -10.301013      -280.3048
   9   2.0000     -10.294687      -280.1327
  10   2.0000     -10.292305      -280.0678
  11   2.0000     -10.287310      -279.9319
  12   2.0000     -10.279625      -279.7228
  13   2.0000     -10.275962      -279.6231
  14   2.0000     -10.275699      -279.6160
  15   2.0000     -10.258420      -279.1458
  16   2.0000      -8.081417      -219.9065
  17   2.0000      -8.081314      -219.9037
  18   2.0000      -6.039962      -164.3557
  19   2.0000      -6.039765      -164.3504
  20   2.0000      -6.036017      -164.2484
  21   2.0000      -6.035468      -164.2334
  22   2.0000      -6.032504      -164.1528
  23   2.0000      -6.032065      -164.1408
  24   2.0000      -1.011750       -27.5311
  25   2.0000      -0.983509       -26.7626
  26   2.0000      -0.910795       -24.7840
  27   2.0000      -0.905238       -24.6328
  28   2.0000      -0.872554       -23.7434
  29   2.0000      -0.852144       -23.1880
  30   2.0000      -0.843521       -22.9534
  31   2.0000      -0.814698       -22.1690
  32   2.0000      -0.789587       -21.4858
  33   2.0000      -0.776625       -21.1330
  34   2.0000      -0.711521       -19.3615
  35   2.0000      -0.694417       -18.8960
  36   2.0000      -0.688246       -18.7281
  37   2.0000      -0.671523       -18.2731
  38   2.0000      -0.635579       -17.2950
  39   2.0000      -0.617302       -16.7976
  40   2.0000      -0.599848       -16.3227
  41   2.0000      -0.567553       -15.4439
  42   2.0000      -0.561605       -15.2820
  43   2.0000      -0.551070       -14.9954
  44   2.0000      -0.544588       -14.8190
  45   2.0000      -0.538217       -14.6456
  46   2.0000      -0.519049       -14.1240
  47   2.0000      -0.514669       -14.0049
  48   2.0000      -0.502874       -13.6839
  49   2.0000      -0.496071       -13.4988
  50   2.0000      -0.487157       -13.2562
  51   2.0000      -0.478446       -13.0192
  52   2.0000      -0.473553       -12.8860
  53   2.0000      -0.469098       -12.7648
  54   2.0000      -0.457009       -12.4358
  55   2.0000      -0.454622       -12.3709
  56   2.0000      -0.446408       -12.1474
  57   2.0000      -0.440914       -11.9979
  58   2.0000      -0.436404       -11.8752
  59   2.0000      -0.416348       -11.3294
  60   2.0000      -0.411771       -11.2049
  61   2.0000      -0.408633       -11.1195
  62   2.0000      -0.404869       -11.0170
  63   2.0000      -0.351156        -9.5554
  64   2.0000      -0.335362        -9.1257
  65   2.0000      -0.328122        -8.9287
  66   2.0000      -0.287634        -7.8269
  67   0.0000       0.022981         0.6253
  68   0.0000       0.073527         2.0008
  69   0.0000       0.105762         2.8779
  70   0.0000       0.123679         3.3655
  71   0.0000       0.129037         3.5113

MULLIKEN ATOMIC CHARGES
-----------------------
   0 S :    0.096804
   1 C :   -0.109644
   2 C :   -0.110837
   3 C :    0.018359
   4 C :   -0.142322
   5 H :    0.022938
   6 C :    0.095094
   7 H :    0.006993
   8 H :    0.017657
   9 C :   -0.067837
  10 H :    0.004659
  11 H :    0.032414
  12 C :   -0.052637
  13 H :    0.045639
  14 H :    0.043295
  15 H :    0.026174
  16 S :    0.116075
  17 C :   -0.081372
  18 C :    0.001934
  19 C :   -0.051741
  20 C :   -0.153783
  21 H :   -0.003183
  22 C :    0.005234
  23 H :    0.048979
  24 H :    0.013109
  25 C :   -0.058945
  26 H :    0.042441
  27 H :    0.013272
  28 C :    0.032572
  29 H :    0.012118
  30 H :    0.019731
  31 H :    0.003853
  32 H :    0.055964
  33 H :    0.056992
Sum of atomic charges:   -0.0000000

LOEWDIN ATOMIC CHARGES
----------------------
   0 S :    0.391051
   1 C :   -0.196042
   2 C :   -0.060668
   3 C :   -0.075651
   4 C :   -0.177958
   5 H :    0.037030
   6 C :   -0.020995
   7 H :    0.025290
   8 H :    0.025101
   9 C :   -0.042473
  10 H :    0.012804
  11 H :    0.023427
  12 C :   -0.068459
  13 H :    0.034199
  14 H :    0.031609
  15 H :    0.021636
  16 S :    0.456441
  17 C :   -0.195272
  18 C :   -0.066999
  19 C :   -0.064750
  20 C :   -0.221618
  21 H :    0.023410
  22 C :   -0.041189
  23 H :    0.036105
  24 H :    0.030121
  25 C :   -0.031659
  26 H :    0.027786
  27 H :    0.018800
  28 C :   -0.043776
  29 H :    0.015113
  30 H :    0.020495
  31 H :    0.015550
  32 H :    0.031728
  33 H :    0.029811

  Mayer bond orders larger than 0.100000
B(  0-S ,  1-C ) :   1.1353 B(  0-S ,  4-C ) :   1.1400 B(  1-C ,  2-C ) :   1.6034
B(  1-C ,  4-C ) :   0.1098 B(  1-C , 32-H ) :   0.9597 B(  2-C ,  3-C ) :   1.2474
B(  2-C ,  6-C ) :   1.0176 B(  3-C ,  4-C ) :   1.5659 B(  3-C ,  5-H ) :   0.9907
B(  4-C , 20-C ) :   1.0437 B(  6-C ,  7-H ) :   0.9373 B(  6-C ,  8-H ) :   0.9515
B(  6-C ,  9-C ) :   1.0581 B(  9-C , 10-H ) :   0.9557 B(  9-C , 11-H ) :   0.9579
B(  9-C , 12-C ) :   1.0903 B( 12-C , 13-H ) :   0.9633 B( 12-C , 14-H ) :   0.9718
B( 12-C , 15-H ) :   0.9780 B( 16-S , 17-C ) :   1.1679 B( 16-S , 20-C ) :   1.1880
B( 17-C , 18-C ) :   1.5419 B( 17-C , 33-H ) :   0.9771 B( 18-C , 19-C ) :   1.3081
B( 18-C , 21-H ) :   0.9902 B( 19-C , 20-C ) :   1.5128 B( 19-C , 22-C ) :   1.0395
B( 22-C , 23-H ) :   0.9399 B( 22-C , 24-H ) :   0.9286 B( 22-C , 25-C ) :   1.0561
B( 25-C , 26-H ) :   0.9614 B( 25-C , 27-H ) :   0.9543 B( 25-C , 28-C ) :   1.0797
B( 28-C , 29-H ) :   0.9758 B( 28-C , 30-H ) :   0.9726 B( 28-C , 31-H ) :   0.9721

Dispersion correction           -0.014550968
FINAL SINGLE POINT ENERGY     -1339.857759715444

DIPOLE MOMENT
-------------
                                X             Y             Z
Electronic contribution:     -5.27295      10.82126       4.00335
Nuclear contribution   :      5.37273     -11.09182      -3.84722
                        -----------------------------------------
Total Dipole Moment    :      0.09978      -0.27056       0.15613
                        -----------------------------------------
Magnitude (a.u.)       :      0.32793
Magnitude (Debye)      :      0.83352

Rotational constants in cm-1:     0.022677     0.007976     0.006796
Rotational constants in MHz :   679.830817   239.115213   203.742554

                             ****ORCA TERMINATED NORMALLY****
TOTAL RUN TIME: 0 days 0 hours 0 minutes 28 seconds 268 msec
