                         Program Version 4.2.1 -  RELEASE  -
|  1> ! wB97X-D3 SP def2-SVP
|  2> %pal
|  3> nprocs 16
|  4> end
|  5>
|  6> * xyz 0 1
|  7> S 	 -49.0537 	 35.4766 	 109.058
|  8> C 	 -48.0218 	 36.8353 	 109.514
|  9> C 	 -48.4432 	 38.0014 	 109.037
| 10> C 	 -49.7252 	 37.9156 	 108.329
| 11> C 	 -50.196 	 36.6096 	 108.288
| 12> H 	 -50.3733 	 38.7129 	 107.952
| 13> C 	 -47.6771 	 39.2967 	 109.114
| 14> H 	 -47.5456 	 39.6778 	 108.102
| 15> H 	 -46.678 	 39.1719 	 109.633
| 16> C 	 -48.4501 	 40.5278 	 109.703
| 17> H 	 -49.3569 	 40.7537 	 109.201
| 18> H 	 -48.6243 	 40.2529 	 110.752
| 19> C 	 -47.5853 	 41.71 	 109.676
| 20> H 	 -47.0464 	 41.9074 	 108.727
| 21> H 	 -48.25 	 42.5522 	 109.82
| 22> H 	 -46.8152 	 41.6492 	 110.477
| 23> S 	 -51.3095 	 36.0107 	 105.912
| 24> C 	 -52.995 	 35.6624 	 105.767
| 25> C 	 -53.5835 	 35.6487 	 107.005
| 26> C 	 -52.6325 	 35.8323 	 108.077
| 27> C 	 -51.38 	 36.1033 	 107.622
| 28> H 	 -54.6255 	 35.4469 	 107.03
| 29> C 	 -52.9773 	 36.0593 	 109.555
| 30> H 	 -52.205 	 36.5197 	 110.194
| 31> H 	 -53.2522 	 35.1166 	 109.991
| 32> C 	 -54.2199 	 37.0643 	 109.814
| 33> H 	 -54.3753 	 37.0095 	 110.857
| 34> H 	 -55.1696 	 36.7935 	 109.315
| 35> C 	 -53.9524 	 38.4835 	 109.263
| 36> H 	 -53.0413 	 38.9022 	 109.77
| 37> H 	 -54.8077 	 39.1687 	 109.302
| 38> H 	 -53.8403 	 38.3736 	 108.203
| 39> H 	 -47.0317 	 36.6709 	 109.944
| 40> H 	 -53.5278 	 35.5277 	 104.891
| 41> *
| 42>
| 43>                          ****END OF INPUT****

CARTESIAN COORDINATES (ANGSTROEM)
---------------------------------
  S    -49.053700   35.476600  109.058000
  C    -48.021800   36.835300  109.514000
  C    -48.443200   38.001400  109.037000
  C    -49.725200   37.915600  108.329000
  C    -50.196000   36.609600  108.288000
  H    -50.373300   38.712900  107.952000
  C    -47.677100   39.296700  109.114000
  H    -47.545600   39.677800  108.102000
  H    -46.678000   39.171900  109.633000
  C    -48.450100   40.527800  109.703000
  H    -49.356900   40.753700  109.201000
  H    -48.624300   40.252900  110.752000
  C    -47.585300   41.710000  109.676000
  H    -47.046400   41.907400  108.727000
  H    -48.250000   42.552200  109.820000
  H    -46.815200   41.649200  110.477000
  S    -51.309500   36.010700  105.912000
  C    -52.995000   35.662400  105.767000
  C    -53.583500   35.648700  107.005000
  C    -52.632500   35.832300  108.077000
  C    -51.380000   36.103300  107.622000
  H    -54.625500   35.446900  107.030000
  C    -52.977300   36.059300  109.555000
  H    -52.205000   36.519700  110.194000
  H    -53.252200   35.116600  109.991000
  C    -54.219900   37.064300  109.814000
  H    -54.375300   37.009500  110.857000
  H    -55.169600   36.793500  109.315000
  C    -53.952400   38.483500  109.263000
  H    -53.041300   38.902200  109.770000
  H    -54.807700   39.168700  109.302000
  H    -53.840300   38.373600  108.203000
  H    -47.031700   36.670900  109.944000
  H    -53.527800   35.527700  104.891000

 Total Charge           Charge          ....    0
 Multiplicity           Mult            ....    1
 Number of Electrons    NEL             ....  134
 Basis Dimension        Dim             ....  322

ORBITAL ENERGIES
----------------

  NO   OCC          E(Eh)            E(eV)
   0   2.0000     -88.961501     -2420.7655
   1   2.0000     -88.961342     -2420.7612
   2   2.0000     -10.331696      -281.1397
   3   2.0000     -10.317830      -280.7624
   4   2.0000     -10.310924      -280.5745
   5   2.0000     -10.309592      -280.5383
   6   2.0000     -10.303490      -280.3722
   7   2.0000     -10.301294      -280.3125
   8   2.0000     -10.299274      -280.2575
   9   2.0000     -10.295500      -280.1548
  10   2.0000     -10.294098      -280.1166
  11   2.0000     -10.293327      -280.0957
  12   2.0000     -10.286486      -279.9095
  13   2.0000     -10.281775      -279.7813
  14   2.0000     -10.277169      -279.6560
  15   2.0000     -10.275841      -279.6198
  16   2.0000      -8.077564      -219.8017
  17   2.0000      -8.075699      -219.7509
  18   2.0000      -6.035963      -164.2469
  19   2.0000      -6.034281      -164.2011
  20   2.0000      -6.031808      -164.1338
  21   2.0000      -6.030408      -164.0957
  22   2.0000      -6.028418      -164.0416
  23   2.0000      -6.026252      -163.9827
  24   2.0000      -1.011023       -27.5113
  25   2.0000      -0.984497       -26.7895
  26   2.0000      -0.916838       -24.9484
  27   2.0000      -0.898062       -24.4375
  28   2.0000      -0.878349       -23.9011
  29   2.0000      -0.847626       -23.0651
  30   2.0000      -0.843791       -22.9607
  31   2.0000      -0.818957       -22.2850
  32   2.0000      -0.779006       -21.1978
  33   2.0000      -0.770811       -20.9748
  34   2.0000      -0.709132       -19.2965
  35   2.0000      -0.695101       -18.9147
  36   2.0000      -0.689852       -18.7718
  37   2.0000      -0.659939       -17.9578
  38   2.0000      -0.643016       -17.4974
  39   2.0000      -0.616773       -16.7832
  40   2.0000      -0.599189       -16.3048
  41   2.0000      -0.578793       -15.7498
  42   2.0000      -0.571143       -15.5416
  43   2.0000      -0.549842       -14.9620
  44   2.0000      -0.538377       -14.6500
  45   2.0000      -0.525951       -14.3119
  46   2.0000      -0.522633       -14.2216
  47   2.0000      -0.513120       -13.9627
  48   2.0000      -0.503094       -13.6899
  49   2.0000      -0.499438       -13.5904
  50   2.0000      -0.482445       -13.1280
  51   2.0000      -0.477668       -12.9980
  52   2.0000      -0.470021       -12.7899
  53   2.0000      -0.469021       -12.7627
  54   2.0000      -0.457499       -12.4492
  55   2.0000      -0.451867       -12.2959
  56   2.0000      -0.443311       -12.0631
  57   2.0000      -0.435533       -11.8515
  58   2.0000      -0.430830       -11.7235
  59   2.0000      -0.422232       -11.4895
  60   2.0000      -0.420429       -11.4405
  61   2.0000      -0.412118       -11.2143
  62   2.0000      -0.407325       -11.0839
  63   2.0000      -0.334601        -9.1050
  64   2.0000      -0.331391        -9.0176
  65   2.0000      -0.322358        -8.7718
  66   2.0000      -0.313596        -8.5334
  67   0.0000       0.048063         1.3079
  68   0.0000       0.061771         1.6809
  69   0.0000       0.113631         3.0920
  70   0.0000       0.117849         3.2068
  71   0.0000       0.135695         3.6924

MULLIKEN ATOMIC CHARGES
-----------------------
   0 S :    0.096916
   1 C :   -0.141002
   2 C :   -0.021322
   3 C :    0.038613
   4 C :   -0.181622
   5 H :    0.027305
   6 C :    0.028255
   7 H :    0.027052
   8 H :    0.032093
   9 C :   -0.082347
  10 H :    0.027025
  11 H :    0.032486
  12 C :   -0.040936
  13 H :    0.027899
  14 H :    0.029460
  15 H :    0.034075
  16 S :    0.121824
  17 C :   -0.064090
  18 C :   -0.041065
  19 C :    0.008534
  20 C :   -0.185023
  21 H :    0.010149
  22 C :    0.057092
  23 H :    0.046810
  24 H :    0.030004
  25 C :   -0.091725
  26 H :    0.024952
  27 H :    0.025426
  28 C :   -0.061569
  29 H :    0.040164
  30 H :    0.033952
  31 H :    0.031835
  32 H :    0.049874
  33 H :    0.028904
Sum of atomic charges:   -0.0000000

LOEWDIN ATOMIC CHARGES
----------------------
   0 S :    0.373940
   1 C :   -0.189957
   2 C :   -0.067314
   3 C :   -0.055532
   4 C :   -0.179336
   5 H :    0.036768
   6 C :   -0.033043
   7 H :    0.031292
   8 H :    0.035045
   9 C :   -0.040670
  10 H :    0.017898
  11 H :    0.027698
  12 C :   -0.067086
  13 H :    0.024864
  14 H :    0.027119
  15 H :    0.028507
  16 S :    0.431992
  17 C :   -0.177101
  18 C :   -0.068855
  19 C :   -0.056364
  20 C :   -0.220087
  21 H :    0.027219
  22 C :   -0.024065
  23 H :    0.035899
  24 H :    0.028375
  25 C :   -0.036409
  26 H :    0.015073
  27 H :    0.020951
  28 C :   -0.072085
  29 H :    0.027671
  30 H :    0.026383
  31 H :    0.023438
  32 H :    0.030765
  33 H :    0.017005

  Mayer bond orders larger than 0.100000
B(  0-S ,  1-C ) :   1.1052 B(  0-S ,  4-C ) :   1.1341 B(  1-C ,  2-C ) :   1.6893
B(  1-C , 32-H ) :   0.9620 B(  2-C ,  3-C ) :   1.1584 B(  2-C ,  6-C ) :   1.0328
B(  3-C ,  4-C ) :   1.6494 B(  3-C ,  5-H ) :   0.9885 B(  4-C , 20-C ) :   0.9985
B(  6-C ,  7-H ) :   0.9334 B(  6-C ,  8-H ) :   0.9495 B(  6-C ,  9-C ) :   1.0560
B(  9-C , 10-H ) :   0.9556 B(  9-C , 11-H ) :   0.9518 B(  9-C , 12-C ) :   1.0991
B( 12-C , 13-H ) :   0.9701 B( 12-C , 14-H ) :   0.9715 B( 12-C , 15-H ) :   0.9727
B( 16-S , 17-C ) :   1.1600 B( 16-S , 20-C ) :   1.1593 B( 17-C , 18-C ) :   1.6198
B( 17-C , 33-H ) :   0.9769 B( 18-C , 19-C ) :   1.2163 B( 18-C , 21-H ) :   0.9982
B( 19-C , 20-C ) :   1.6095 B( 19-C , 22-C ) :   1.0404 B( 22-C , 23-H ) :   0.9459
B( 22-C , 24-H ) :   0.9301 B( 22-C , 25-C ) :   1.0623 B( 25-C , 26-H ) :   0.9621
B( 25-C , 27-H ) :   0.9573 B( 25-C , 28-C ) :   1.0665 B( 28-C , 29-H ) :   0.9760
B( 28-C , 30-H ) :   0.9744 B( 28-C , 31-H ) :   0.9732

Dispersion correction           -0.014845911
FINAL SINGLE POINT ENERGY     -1339.877221282902

DIPOLE MOMENT
-------------
                                X             Y             Z
Electronic contribution:      3.82588     -23.24700     -12.61029
Nuclear contribution   :     -4.07000      23.78323      12.72359
                        -----------------------------------------
Total Dipole Moment    :     -0.24412       0.53623       0.11331
                        -----------------------------------------
Magnitude (a.u.)       :      0.59998
Magnitude (Debye)      :      1.52502

Rotational constants in cm-1:     0.018967     0.008325     0.007291
Rotational constants in MHz :   568.603612   249.591995   218.575611

                             ****ORCA TERMINATED NORMALLY****
TOTAL RUN TIME: 0 days 0 hours 0 minutes 30 seconds 587 msec
