                         Program Version 4.2.1 -  RELEASE  -
|  1> ! wB97X-D3 SP def2-SVP
|  2> %pal
|  3> nprocs 16
|  4> end
|  5>
|  6> * xyz 0 1
|  7> S 	 -8.27185 	 68.8919 	 47.9163
|  8> C 	 -8.5549 	 67.3093 	 47.2541
|  9> C 	 -9.19845 	 66.5129 	 48.1439
| 10> C 	 -9.73309 	 67.3013 	 49.2245
| 11> C 	 -9.45629 	 68.687 	 49.2119
| 12> H 	 -10.2459 	 66.9573 	 50.0922
| 13> C 	 -9.36823 	 64.999 	 47.9618
| 14> H 	 -9.88083 	 64.7922 	 48.8931
| 15> H 	 -8.35689 	 64.5311 	 47.9145
| 16> C 	 -10.258 	 64.454 	 46.8215
| 17> H 	 -9.68428 	 64.7528 	 45.9518
| 18> H 	 -10.2128 	 63.4138 	 46.8617
| 19> C 	 -11.6959 	 64.9886 	 46.7847
| 20> H 	 -11.7136 	 66.055 	 46.8094
| 21> H 	 -12.1225 	 64.4662 	 45.8391
| 22> H 	 -12.1974 	 64.5717 	 47.6488
| 23> S 	 -8.8942 	 69.9526 	 51.5683
| 24> C 	 -9.83467 	 71.3178 	 52.1013
| 25> C 	 -10.9968 	 71.469 	 51.3302
| 26> C 	 -11.0011 	 70.6 	 50.1822
| 27> C 	 -9.81991 	 69.7742 	 50.0804
| 28> H 	 -11.7525 	 72.2107 	 51.5852
| 29> C 	 -12.1014 	 70.6153 	 49.1982
| 30> H 	 -12.8216 	 69.8031 	 49.492
| 31> H 	 -11.6969 	 70.2196 	 48.243
| 32> C 	 -12.8209 	 71.9337 	 49.0455
| 33> H 	 -12.2367 	 72.8264 	 48.9326
| 34> H 	 -13.3185 	 72.249 	 49.9417
| 35> C 	 -13.8421 	 71.8383 	 47.8915
| 36> H 	 -14.3638 	 70.8745 	 47.8495
| 37> H 	 -13.4173 	 72.0844 	 46.8741
| 38> H 	 -14.6387 	 72.6412 	 48.1226
| 39> H 	 -7.96754 	 67.022 	 46.375
| 40> H 	 -9.70075 	 71.7443 	 53.0792
| 41> *
| 42>
| 43>                          ****END OF INPUT****

CARTESIAN COORDINATES (ANGSTROEM)
---------------------------------
  S     -8.271850   68.891900   47.916300
  C     -8.554900   67.309300   47.254100
  C     -9.198450   66.512900   48.143900
  C     -9.733090   67.301300   49.224500
  C     -9.456290   68.687000   49.211900
  H    -10.245900   66.957300   50.092200
  C     -9.368230   64.999000   47.961800
  H     -9.880830   64.792200   48.893100
  H     -8.356890   64.531100   47.914500
  C    -10.258000   64.454000   46.821500
  H     -9.684280   64.752800   45.951800
  H    -10.212800   63.413800   46.861700
  C    -11.695900   64.988600   46.784700
  H    -11.713600   66.055000   46.809400
  H    -12.122500   64.466200   45.839100
  H    -12.197400   64.571700   47.648800
  S     -8.894200   69.952600   51.568300
  C     -9.834670   71.317800   52.101300
  C    -10.996800   71.469000   51.330200
  C    -11.001100   70.600000   50.182200
  C     -9.819910   69.774200   50.080400
  H    -11.752500   72.210700   51.585200
  C    -12.101400   70.615300   49.198200
  H    -12.821600   69.803100   49.492000
  H    -11.696900   70.219600   48.243000
  C    -12.820900   71.933700   49.045500
  H    -12.236700   72.826400   48.932600
  H    -13.318500   72.249000   49.941700
  C    -13.842100   71.838300   47.891500
  H    -14.363800   70.874500   47.849500
  H    -13.417300   72.084400   46.874100
  H    -14.638700   72.641200   48.122600
  H     -7.967540   67.022000   46.375000
  H     -9.700750   71.744300   53.079200

 Total Charge           Charge          ....    0
 Multiplicity           Mult            ....    1
 Number of Electrons    NEL             ....  134
 Basis Dimension        Dim             ....  322

ORBITAL ENERGIES
----------------

  NO   OCC          E(Eh)            E(eV)
   0   2.0000     -88.965323     -2420.8695
   1   2.0000     -88.958165     -2420.6747
   2   2.0000     -10.331281      -281.1285
   3   2.0000     -10.328538      -281.0538
   4   2.0000     -10.319753      -280.8148
   5   2.0000     -10.312241      -280.6103
   6   2.0000     -10.310350      -280.5589
   7   2.0000     -10.301818      -280.3267
   8   2.0000     -10.298939      -280.2484
   9   2.0000     -10.298775      -280.2439
  10   2.0000     -10.293496      -280.1003
  11   2.0000     -10.291983      -280.0591
  12   2.0000     -10.287756      -279.9441
  13   2.0000     -10.283140      -279.8185
  14   2.0000     -10.282569      -279.8029
  15   2.0000     -10.281814      -279.7824
  16   2.0000      -8.079900      -219.8653
  17   2.0000      -8.073359      -219.6873
  18   2.0000      -6.038289      -164.3102
  19   2.0000      -6.034340      -164.2028
  20   2.0000      -6.031742      -164.1320
  21   2.0000      -6.030884      -164.1087
  22   2.0000      -6.027755      -164.0235
  23   2.0000      -6.024252      -163.9282
  24   2.0000      -1.002129       -27.2693
  25   2.0000      -0.981667       -26.7125
  26   2.0000      -0.913710       -24.8633
  27   2.0000      -0.909938       -24.7607
  28   2.0000      -0.870658       -23.6918
  29   2.0000      -0.847246       -23.0547
  30   2.0000      -0.842288       -22.9198
  31   2.0000      -0.812065       -22.0974
  32   2.0000      -0.781422       -21.2636
  33   2.0000      -0.765041       -20.8178
  34   2.0000      -0.711146       -19.3513
  35   2.0000      -0.703763       -19.1504
  36   2.0000      -0.699485       -19.0339
  37   2.0000      -0.650701       -17.7065
  38   2.0000      -0.645521       -17.5655
  39   2.0000      -0.609649       -16.5894
  40   2.0000      -0.595511       -16.2047
  41   2.0000      -0.573521       -15.6063
  42   2.0000      -0.559266       -15.2184
  43   2.0000      -0.551361       -15.0033
  44   2.0000      -0.547740       -14.9048
  45   2.0000      -0.529616       -14.4116
  46   2.0000      -0.513075       -13.9615
  47   2.0000      -0.510145       -13.8817
  48   2.0000      -0.502766       -13.6810
  49   2.0000      -0.500536       -13.6203
  50   2.0000      -0.488738       -13.2992
  51   2.0000      -0.476037       -12.9536
  52   2.0000      -0.468209       -12.7406
  53   2.0000      -0.467164       -12.7122
  54   2.0000      -0.460390       -12.5278
  55   2.0000      -0.448666       -12.2088
  56   2.0000      -0.444985       -12.1087
  57   2.0000      -0.438582       -11.9344
  58   2.0000      -0.433151       -11.7866
  59   2.0000      -0.425684       -11.5834
  60   2.0000      -0.421233       -11.4623
  61   2.0000      -0.408017       -11.1027
  62   2.0000      -0.402858       -10.9623
  63   2.0000      -0.332244        -9.0408
  64   2.0000      -0.324395        -8.8272
  65   2.0000      -0.317032        -8.6269
  66   2.0000      -0.308288        -8.3889
  67   0.0000       0.038630         1.0512
  68   0.0000       0.041020         1.1162
  69   0.0000       0.108322         2.9476
  70   0.0000       0.114436         3.1139
  71   0.0000       0.137311         3.7364

MULLIKEN ATOMIC CHARGES
-----------------------
   0 S :    0.099438
   1 C :   -0.135689
   2 C :   -0.099189
   3 C :    0.054673
   4 C :   -0.203232
   5 H :    0.000651
   6 C :    0.058043
   7 H :    0.005835
   8 H :    0.049560
   9 C :   -0.044337
  10 H :    0.016050
  11 H :    0.020121
  12 C :   -0.055354
  13 H :    0.051094
  14 H :    0.051615
  15 H :    0.029485
  16 S :    0.111404
  17 C :   -0.077961
  18 C :   -0.056441
  19 C :   -0.028696
  20 C :   -0.165065
  21 H :    0.028574
  22 C :    0.068951
  23 H :    0.045678
  24 H :    0.036970
  25 C :   -0.070297
  26 H :    0.023809
  27 H :    0.017817
  28 C :   -0.078906
  29 H :    0.036925
  30 H :    0.052154
  31 H :    0.034902
  32 H :    0.061742
  33 H :    0.059675
Sum of atomic charges:    0.0000000

LOEWDIN ATOMIC CHARGES
----------------------
   0 S :    0.402532
   1 C :   -0.191889
   2 C :   -0.077119
   3 C :   -0.056725
   4 C :   -0.204676
   5 H :    0.024668
   6 C :   -0.032170
   7 H :    0.023521
   8 H :    0.038883
   9 C :   -0.036410
  10 H :    0.018587
  11 H :    0.017219
  12 C :   -0.060729
  13 H :    0.024749
  14 H :    0.042421
  15 H :    0.023235
  16 S :    0.418409
  17 C :   -0.183490
  18 C :   -0.077483
  19 C :   -0.039452
  20 C :   -0.222523
  21 H :    0.033788
  22 C :   -0.041867
  23 H :    0.045211
  24 H :    0.038288
  25 C :   -0.048270
  26 H :    0.026091
  27 H :    0.019819
  28 C :   -0.070461
  29 H :    0.024049
  30 H :    0.031685
  31 H :    0.033351
  32 H :    0.030168
  33 H :    0.026591

  Mayer bond orders larger than 0.100000
B(  0-S ,  1-C ) :   1.1677 B(  0-S ,  4-C ) :   1.1479 B(  1-C ,  2-C ) :   1.5792
B(  1-C ,  4-C ) :   0.1066 B(  1-C , 32-H ) :   0.9710 B(  2-C ,  3-C ) :   1.2455
B(  2-C ,  6-C ) :   1.0041 B(  3-C ,  4-C ) :   1.5715 B(  3-C ,  5-H ) :   0.9993
B(  4-C , 20-C ) :   1.0436 B(  6-C ,  7-H ) :   0.9377 B(  6-C ,  8-H ) :   0.9403
B(  6-C ,  9-C ) :   1.0738 B(  9-C , 10-H ) :   0.9546 B(  9-C , 11-H ) :   0.9544
B(  9-C , 12-C ) :   1.0701 B( 12-C , 13-H ) :   0.9763 B( 12-C , 14-H ) :   0.9730
B( 12-C , 15-H ) :   0.9765 B( 16-S , 17-C ) :   1.1868 B( 16-S , 20-C ) :   1.1526
B( 17-C , 18-C ) :   1.5615 B( 17-C , 20-C ) :   0.1120 B( 17-C , 33-H ) :   0.9648
B( 18-C , 19-C ) :   1.2769 B( 18-C , 21-H ) :   0.9871 B( 19-C , 20-C ) :   1.5329
B( 19-C , 22-C ) :   1.0612 B( 22-C , 23-H ) :   0.9105 B( 22-C , 24-H ) :   0.9360
B( 22-C , 25-C ) :   1.0670 B( 25-C , 26-H ) :   0.9562 B( 25-C , 27-H ) :   0.9436
B( 25-C , 28-C ) :   1.0788 B( 28-C , 29-H ) :   0.9739 B( 28-C , 30-H ) :   0.9770
B( 28-C , 31-H ) :   0.9759

Dispersion correction           -0.013738878
FINAL SINGLE POINT ENERGY     -1339.861481004484

DIPOLE MOMENT
-------------
                                X             Y             Z
Electronic contribution:     21.59526       7.55326      12.65322
Nuclear contribution   :    -22.09737      -7.84146     -12.62671
                        -----------------------------------------
Total Dipole Moment    :     -0.50211      -0.28821       0.02651
                        -----------------------------------------
Magnitude (a.u.)       :      0.57955
Magnitude (Debye)      :      1.47310

Rotational constants in cm-1:     0.017879     0.008135     0.006488
Rotational constants in MHz :   536.008749   243.887677   194.514335

                             ****ORCA TERMINATED NORMALLY****
TOTAL RUN TIME: 0 days 0 hours 0 minutes 32 seconds 676 msec
