                         Program Version 4.2.1 -  RELEASE  -
|  1> ! wB97X-D3 SP def2-SVP
|  2> %pal
|  3> nprocs 16
|  4> end
|  5>
|  6> * xyz 0 1
|  7> S 	 -48.4547 	 33.2316 	 94.0628
|  8> C 	 -48.69 	 32.7096 	 92.4158
|  9> C 	 -49.5332 	 33.5911 	 91.7442
| 10> C 	 -50.0743 	 34.623 	 92.5902
| 11> C 	 -49.6326 	 34.5257 	 93.9342
| 12> H 	 -50.8217 	 35.3972 	 92.3341
| 13> C 	 -49.9106 	 33.4096 	 90.3326
| 14> H 	 -48.9943 	 33.4851 	 89.7484
| 15> H 	 -50.4885 	 34.2217 	 89.9455
| 16> C 	 -50.6523 	 32.1261 	 89.9231
| 17> H 	 -50.6557 	 32.0121 	 88.859
| 18> H 	 -50.1191 	 31.2686 	 90.385
| 19> C 	 -52.1238 	 32.0688 	 90.4517
| 20> H 	 -52.0705 	 31.6997 	 91.4997
| 21> H 	 -52.6049 	 33.0366 	 90.3308
| 22> H 	 -52.6494 	 31.3819 	 89.8044
| 23> S 	 -49.2451 	 36.228 	 96.0745
| 24> C 	 -50.5835 	 36.9642 	 96.8693
| 25> C 	 -51.7392 	 36.344 	 96.5534
| 26> C 	 -51.5776 	 35.4544 	 95.4198
| 27> C 	 -50.2436 	 35.2178 	 95.0563
| 28> H 	 -52.6732 	 36.5478 	 97.0857
| 29> C 	 -52.7549 	 34.7552 	 94.793
| 30> H 	 -52.6265 	 33.6736 	 95.0584
| 31> H 	 -52.5998 	 34.6725 	 93.7275
| 32> C 	 -54.1954 	 35.2938 	 95.051
| 33> H 	 -54.2975 	 35.3794 	 96.1553
| 34> H 	 -54.8901 	 34.5154 	 94.6169
| 35> C 	 -54.3638 	 36.6292 	 94.4833
| 36> H 	 -53.7236 	 37.3442 	 95.0667
| 37> H 	 -55.4066 	 36.9381 	 94.636
| 38> H 	 -54.2016 	 36.6504 	 93.4479
| 39> H 	 -48.0206 	 31.9503 	 91.8901
| 40> H 	 -50.5466 	 37.6856 	 97.6867
| 41> *
| 42>
| 43>                          ****END OF INPUT****

CARTESIAN COORDINATES (ANGSTROEM)
---------------------------------
  S    -48.454700   33.231600   94.062800
  C    -48.690000   32.709600   92.415800
  C    -49.533200   33.591100   91.744200
  C    -50.074300   34.623000   92.590200
  C    -49.632600   34.525700   93.934200
  H    -50.821700   35.397200   92.334100
  C    -49.910600   33.409600   90.332600
  H    -48.994300   33.485100   89.748400
  H    -50.488500   34.221700   89.945500
  C    -50.652300   32.126100   89.923100
  H    -50.655700   32.012100   88.859000
  H    -50.119100   31.268600   90.385000
  C    -52.123800   32.068800   90.451700
  H    -52.070500   31.699700   91.499700
  H    -52.604900   33.036600   90.330800
  H    -52.649400   31.381900   89.804400
  S    -49.245100   36.228000   96.074500
  C    -50.583500   36.964200   96.869300
  C    -51.739200   36.344000   96.553400
  C    -51.577600   35.454400   95.419800
  C    -50.243600   35.217800   95.056300
  H    -52.673200   36.547800   97.085700
  C    -52.754900   34.755200   94.793000
  H    -52.626500   33.673600   95.058400
  H    -52.599800   34.672500   93.727500
  C    -54.195400   35.293800   95.051000
  H    -54.297500   35.379400   96.155300
  H    -54.890100   34.515400   94.616900
  C    -54.363800   36.629200   94.483300
  H    -53.723600   37.344200   95.066700
  H    -55.406600   36.938100   94.636000
  H    -54.201600   36.650400   93.447900
  H    -48.020600   31.950300   91.890100
  H    -50.546600   37.685600   97.686700

 Total Charge           Charge          ....    0
 Multiplicity           Mult            ....    1
 Number of Electrons    NEL             ....  134
 Basis Dimension        Dim             ....  322

ORBITAL ENERGIES
----------------

  NO   OCC          E(Eh)            E(eV)
   0   2.0000     -88.968303     -2420.9506
   1   2.0000     -88.961064     -2420.7536
   2   2.0000     -10.333943      -281.2009
   3   2.0000     -10.325974      -280.9840
   4   2.0000     -10.320416      -280.8328
   5   2.0000     -10.315562      -280.7007
   6   2.0000     -10.308026      -280.4956
   7   2.0000     -10.303421      -280.3703
   8   2.0000     -10.302013      -280.3320
   9   2.0000     -10.294321      -280.1227
  10   2.0000     -10.291109      -280.0353
  11   2.0000     -10.287543      -279.9383
  12   2.0000     -10.287516      -279.9375
  13   2.0000     -10.284772      -279.8629
  14   2.0000     -10.278664      -279.6967
  15   2.0000     -10.272470      -279.5281
  16   2.0000      -8.082819      -219.9447
  17   2.0000      -8.076692      -219.7780
  18   2.0000      -6.041354      -164.3936
  19   2.0000      -6.037143      -164.2790
  20   2.0000      -6.035253      -164.2276
  21   2.0000      -6.033777      -164.1874
  22   2.0000      -6.030941      -164.1102
  23   2.0000      -6.027456      -164.0154
  24   2.0000      -1.006993       -27.4017
  25   2.0000      -0.985987       -26.8301
  26   2.0000      -0.914822       -24.8936
  27   2.0000      -0.913232       -24.8503
  28   2.0000      -0.872077       -23.7304
  29   2.0000      -0.851146       -23.1609
  30   2.0000      -0.844681       -22.9849
  31   2.0000      -0.816271       -22.2119
  32   2.0000      -0.783081       -21.3087
  33   2.0000      -0.770194       -20.9581
  34   2.0000      -0.704091       -19.1593
  35   2.0000      -0.700875       -19.0718
  36   2.0000      -0.692217       -18.8362
  37   2.0000      -0.652960       -17.7679
  38   2.0000      -0.636587       -17.3224
  39   2.0000      -0.612923       -16.6785
  40   2.0000      -0.600788       -16.3483
  41   2.0000      -0.582355       -15.8467
  42   2.0000      -0.552913       -15.0455
  43   2.0000      -0.550255       -14.9732
  44   2.0000      -0.544256       -14.8100
  45   2.0000      -0.541391       -14.7320
  46   2.0000      -0.518593       -14.1116
  47   2.0000      -0.509604       -13.8670
  48   2.0000      -0.504298       -13.7226
  49   2.0000      -0.501453       -13.6452
  50   2.0000      -0.492178       -13.3928
  51   2.0000      -0.477193       -12.9851
  52   2.0000      -0.473197       -12.8763
  53   2.0000      -0.471289       -12.8244
  54   2.0000      -0.461789       -12.5659
  55   2.0000      -0.442447       -12.0396
  56   2.0000      -0.440274       -11.9805
  57   2.0000      -0.436385       -11.8746
  58   2.0000      -0.434560       -11.8250
  59   2.0000      -0.422485       -11.4964
  60   2.0000      -0.419542       -11.4163
  61   2.0000      -0.417501       -11.3608
  62   2.0000      -0.408722       -11.1219
  63   2.0000      -0.346039        -9.4162
  64   2.0000      -0.330343        -8.9891
  65   2.0000      -0.321779        -8.7560
  66   2.0000      -0.293640        -7.9903
  67   0.0000       0.028133         0.7655
  68   0.0000       0.064151         1.7457
  69   0.0000       0.116545         3.1714
  70   0.0000       0.119582         3.2540
  71   0.0000       0.128639         3.5004

MULLIKEN ATOMIC CHARGES
-----------------------
   0 S :    0.121181
   1 C :   -0.151898
   2 C :   -0.095843
   3 C :    0.024996
   4 C :   -0.157306
   5 H :    0.034729
   6 C :    0.072634
   7 H :    0.029607
   8 H :    0.004394
   9 C :   -0.084187
  10 H :    0.026886
  11 H :    0.027809
  12 C :   -0.055367
  13 H :    0.057001
  14 H :    0.025709
  15 H :    0.031017
  16 S :    0.100617
  17 C :   -0.075402
  18 C :   -0.053611
  19 C :   -0.067218
  20 C :   -0.137752
  21 H :    0.029927
  22 C :    0.038931
  23 H :    0.045612
  24 H :    0.005532
  25 C :   -0.080107
  26 H :    0.031400
  27 H :    0.043549
  28 C :   -0.021524
  29 H :    0.039496
  30 H :    0.029502
  31 H :    0.019212
  32 H :    0.082993
  33 H :    0.057483
Sum of atomic charges:   -0.0000000

LOEWDIN ATOMIC CHARGES
----------------------
   0 S :    0.415523
   1 C :   -0.216743
   2 C :   -0.067700
   3 C :   -0.059898
   4 C :   -0.200293
   5 H :    0.038002
   6 C :   -0.039987
   7 H :    0.035450
   8 H :    0.023597
   9 C :   -0.034671
  10 H :    0.019021
  11 H :    0.023876
  12 C :   -0.064995
  13 H :    0.034826
  14 H :    0.020490
  15 H :    0.024457
  16 S :    0.415384
  17 C :   -0.187480
  18 C :   -0.083622
  19 C :   -0.046100
  20 C :   -0.213035
  21 H :    0.034705
  22 C :   -0.046312
  23 H :    0.043314
  24 H :    0.024486
  25 C :   -0.045174
  26 H :    0.023693
  27 H :    0.034282
  28 C :   -0.064259
  29 H :    0.033128
  30 H :    0.028460
  31 H :    0.016600
  32 H :    0.046407
  33 H :    0.034566

  Mayer bond orders larger than 0.100000
B(  0-S ,  1-C ) :   1.1466 B(  0-S ,  4-C ) :   1.1697 B(  1-C ,  2-C ) :   1.5747
B(  1-C ,  4-C ) :   0.1049 B(  1-C , 32-H ) :   0.9573 B(  2-C ,  3-C ) :   1.2616
B(  2-C ,  6-C ) :   1.0370 B(  3-C ,  4-C ) :   1.5379 B(  3-C ,  5-H ) :   0.9867
B(  4-C , 20-C ) :   1.0257 B(  6-C ,  7-H ) :   0.9262 B(  6-C ,  8-H ) :   0.9415
B(  6-C ,  9-C ) :   1.0802 B(  9-C , 10-H ) :   0.9579 B(  9-C , 11-H ) :   0.9581
B(  9-C , 12-C ) :   1.0668 B( 12-C , 13-H ) :   0.9784 B( 12-C , 14-H ) :   0.9776
B( 12-C , 15-H ) :   0.9769 B( 16-S , 17-C ) :   1.1762 B( 16-S , 20-C ) :   1.1270
B( 17-C , 18-C ) :   1.6114 B( 17-C , 33-H ) :   0.9596 B( 18-C , 19-C ) :   1.2401
B( 18-C , 21-H ) :   0.9797 B( 19-C , 20-C ) :   1.5945 B( 19-C , 22-C ) :   1.0352
B( 22-C , 23-H ) :   0.9263 B( 22-C , 24-H ) :   0.9281 B( 22-C , 25-C ) :   1.0740
B( 25-C , 26-H ) :   0.9477 B( 25-C , 27-H ) :   0.9491 B( 25-C , 28-C ) :   1.0929
B( 28-C , 29-H ) :   0.9664 B( 28-C , 30-H ) :   0.9680 B( 28-C , 31-H ) :   0.9722

Dispersion correction           -0.014729745
FINAL SINGLE POINT ENERGY     -1339.878891787086

DIPOLE MOMENT
-------------
                                X             Y             Z
Electronic contribution:     23.96651       4.27778      16.27363
Nuclear contribution   :    -24.59275      -4.31167     -16.68187
                        -----------------------------------------
Total Dipole Moment    :     -0.62623      -0.03389      -0.40824
                        -----------------------------------------
Magnitude (a.u.)       :      0.74832
Magnitude (Debye)      :      1.90207

Rotational constants in cm-1:     0.018576     0.009372     0.006730
Rotational constants in MHz :   556.906043   280.974223   201.749757

                             ****ORCA TERMINATED NORMALLY****
TOTAL RUN TIME: 0 days 0 hours 0 minutes 30 seconds 639 msec
