                         Program Version 4.2.1 -  RELEASE  -
|  1> ! wB97X-D3 SP def2-SVP
|  2> %pal
|  3> nprocs 16
|  4> end
|  5>
|  6> * xyz 0 1
|  7> S 	 -18.4714 	 -9.53207 	 83.9214
|  8> C 	 -17.8257 	 -10.307 	 82.5515
|  9> C 	 -16.4148 	 -10.4567 	 82.7099
| 10> C 	 -15.9757 	 -10.1436 	 84.032
| 11> C 	 -16.9457 	 -9.58742 	 84.8039
| 12> H 	 -14.9116 	 -10.2732 	 84.4029
| 13> C 	 -15.407 	 -11.0514 	 81.7076
| 14> H 	 -15.9113 	 -11.0704 	 80.6951
| 15> H 	 -15.2571 	 -12.0867 	 81.99
| 16> C 	 -14.0935 	 -10.3188 	 81.5604
| 17> H 	 -14.3591 	 -9.25038 	 81.5955
| 18> H 	 -13.3865 	 -10.3818 	 82.4237
| 19> C 	 -13.2772 	 -10.6234 	 80.2539
| 20> H 	 -13.3142 	 -11.7524 	 80.0063
| 21> H 	 -13.7466 	 -10.0488 	 79.4394
| 22> H 	 -12.1626 	 -10.3553 	 80.2835
| 23> S 	 -17.9447 	 -9.28356 	 87.3906
| 24> C 	 -16.953 	 -8.2888 	 88.5029
| 25> C 	 -15.837 	 -7.75674 	 87.9302
| 26> C 	 -15.669 	 -8.17706 	 86.5914
| 27> C 	 -16.6882 	 -9.03122 	 86.1584
| 28> H 	 -15.1404 	 -7.13509 	 88.4905
| 29> C 	 -14.5566 	 -7.63271 	 85.717
| 30> H 	 -14.8991 	 -7.17776 	 84.7721
| 31> H 	 -14.0101 	 -8.54782 	 85.5059
| 32> C 	 -13.5123 	 -6.69168 	 86.355
| 33> H 	 -13.0819 	 -7.23095 	 87.1895
| 34> H 	 -13.9408 	 -5.8383 	 86.8661
| 35> C 	 -12.5187 	 -6.14339 	 85.4368
| 36> H 	 -11.6725 	 -6.8453 	 85.1591
| 37> H 	 -11.9702 	 -5.32561 	 85.8254
| 38> H 	 -13.0129 	 -5.76064 	 84.4582
| 39> H 	 -18.3892 	 -10.4881 	 81.6975
| 40> H 	 -17.1863 	 -8.01782 	 89.4671
| 41> *
| 42>
| 43>                          ****END OF INPUT****

CARTESIAN COORDINATES (ANGSTROEM)
---------------------------------
  S    -18.471400   -9.532070   83.921400
  C    -17.825700  -10.307000   82.551500
  C    -16.414800  -10.456700   82.709900
  C    -15.975700  -10.143600   84.032000
  C    -16.945700   -9.587420   84.803900
  H    -14.911600  -10.273200   84.402900
  C    -15.407000  -11.051400   81.707600
  H    -15.911300  -11.070400   80.695100
  H    -15.257100  -12.086700   81.990000
  C    -14.093500  -10.318800   81.560400
  H    -14.359100   -9.250380   81.595500
  H    -13.386500  -10.381800   82.423700
  C    -13.277200  -10.623400   80.253900
  H    -13.314200  -11.752400   80.006300
  H    -13.746600  -10.048800   79.439400
  H    -12.162600  -10.355300   80.283500
  S    -17.944700   -9.283560   87.390600
  C    -16.953000   -8.288800   88.502900
  C    -15.837000   -7.756740   87.930200
  C    -15.669000   -8.177060   86.591400
  C    -16.688200   -9.031220   86.158400
  H    -15.140400   -7.135090   88.490500
  C    -14.556600   -7.632710   85.717000
  H    -14.899100   -7.177760   84.772100
  H    -14.010100   -8.547820   85.505900
  C    -13.512300   -6.691680   86.355000
  H    -13.081900   -7.230950   87.189500
  H    -13.940800   -5.838300   86.866100
  C    -12.518700   -6.143390   85.436800
  H    -11.672500   -6.845300   85.159100
  H    -11.970200   -5.325610   85.825400
  H    -13.012900   -5.760640   84.458200
  H    -18.389200  -10.488100   81.697500
  H    -17.186300   -8.017820   89.467100

 Total Charge           Charge          ....    0
 Multiplicity           Mult            ....    1
 Number of Electrons    NEL             ....  134
 Basis Dimension        Dim             ....  322

ORBITAL ENERGIES
----------------

  NO   OCC          E(Eh)            E(eV)
   0   2.0000     -88.968549     -2420.9573
   1   2.0000     -88.966983     -2420.9147
   2   2.0000     -10.329975      -281.0929
   3   2.0000     -10.327661      -281.0299
   4   2.0000     -10.313154      -280.6352
   5   2.0000     -10.312850      -280.6269
   6   2.0000     -10.305776      -280.4344
   7   2.0000     -10.305002      -280.4134
   8   2.0000     -10.296268      -280.1757
   9   2.0000     -10.295792      -280.1628
  10   2.0000     -10.293772      -280.1078
  11   2.0000     -10.293410      -280.0979
  12   2.0000     -10.292250      -280.0664
  13   2.0000     -10.292161      -280.0640
  14   2.0000     -10.284494      -279.8553
  15   2.0000     -10.284087      -279.8442
  16   2.0000      -8.082201      -219.9279
  17   2.0000      -8.082086      -219.9247
  18   2.0000      -6.040675      -164.3751
  19   2.0000      -6.040643      -164.3743
  20   2.0000      -6.036889      -164.2721
  21   2.0000      -6.036570      -164.2634
  22   2.0000      -6.033051      -164.1677
  23   2.0000      -6.032728      -164.1589
  24   2.0000      -1.004506       -27.3340
  25   2.0000      -0.983278       -26.7564
  26   2.0000      -0.915725       -24.9181
  27   2.0000      -0.906099       -24.6562
  28   2.0000      -0.869997       -23.6738
  29   2.0000      -0.856797       -23.3146
  30   2.0000      -0.843727       -22.9590
  31   2.0000      -0.816236       -22.2109
  32   2.0000      -0.779043       -21.1988
  33   2.0000      -0.767305       -20.8794
  34   2.0000      -0.706169       -19.2158
  35   2.0000      -0.703020       -19.1301
  36   2.0000      -0.692682       -18.8488
  37   2.0000      -0.652119       -17.7451
  38   2.0000      -0.643538       -17.5116
  39   2.0000      -0.619287       -16.8516
  40   2.0000      -0.601872       -16.3778
  41   2.0000      -0.574345       -15.6287
  42   2.0000      -0.566438       -15.4136
  43   2.0000      -0.559575       -15.2268
  44   2.0000      -0.527920       -14.3654
  45   2.0000      -0.521647       -14.1947
  46   2.0000      -0.514864       -14.0102
  47   2.0000      -0.506688       -13.7877
  48   2.0000      -0.501707       -13.6521
  49   2.0000      -0.500414       -13.6169
  50   2.0000      -0.490239       -13.3401
  51   2.0000      -0.480576       -13.0771
  52   2.0000      -0.473668       -12.8892
  53   2.0000      -0.465901       -12.6778
  54   2.0000      -0.462350       -12.5812
  55   2.0000      -0.454429       -12.3656
  56   2.0000      -0.448121       -12.1940
  57   2.0000      -0.434204       -11.8153
  58   2.0000      -0.429140       -11.6775
  59   2.0000      -0.422384       -11.4937
  60   2.0000      -0.418248       -11.3811
  61   2.0000      -0.413463       -11.2509
  62   2.0000      -0.411774       -11.2049
  63   2.0000      -0.352041        -9.5795
  64   2.0000      -0.335892        -9.1401
  65   2.0000      -0.326581        -8.8867
  66   2.0000      -0.287115        -7.8128
  67   0.0000       0.027325         0.7435
  68   0.0000       0.073311         1.9949
  69   0.0000       0.104869         2.8536
  70   0.0000       0.124306         3.3825
  71   0.0000       0.128409         3.4942

MULLIKEN ATOMIC CHARGES
-----------------------
   0 S :    0.119125
   1 C :   -0.096941
   2 C :   -0.111132
   3 C :   -0.016023
   4 C :   -0.115944
   5 H :    0.042781
   6 C :    0.070801
   7 H :    0.023765
   8 H :    0.043745
   9 C :   -0.103767
  10 H :    0.033216
  11 H :    0.032809
  12 C :   -0.103008
  13 H :    0.047135
  14 H :    0.044895
  15 H :    0.052346
  16 S :    0.103113
  17 C :   -0.028308
  18 C :   -0.053710
  19 C :   -0.036855
  20 C :   -0.178848
  21 H :    0.023507
  22 C :    0.066510
  23 H :    0.047630
  24 H :    0.028692
  25 C :   -0.074290
  26 H :    0.019431
  27 H :    0.024238
  28 C :   -0.046841
  29 H :    0.034307
  30 H :    0.022671
  31 H :    0.040395
  32 H :    0.030525
  33 H :    0.014031
Sum of atomic charges:    0.0000000

LOEWDIN ATOMIC CHARGES
----------------------
   0 S :    0.422405
   1 C :   -0.206153
   2 C :   -0.060988
   3 C :   -0.071607
   4 C :   -0.195608
   5 H :    0.043442
   6 C :   -0.036883
   7 H :    0.034747
   8 H :    0.031871
   9 C :   -0.056496
  10 H :    0.027024
  11 H :    0.023435
  12 C :   -0.079289
  13 H :    0.033072
  14 H :    0.026545
  15 H :    0.035604
  16 S :    0.379406
  17 C :   -0.154607
  18 C :   -0.069730
  19 C :   -0.051921
  20 C :   -0.188189
  21 H :    0.035626
  22 C :   -0.029928
  23 H :    0.035571
  24 H :    0.034568
  25 C :   -0.053367
  26 H :    0.023369
  27 H :    0.022516
  28 C :   -0.069696
  29 H :    0.029736
  30 H :    0.021860
  31 H :    0.036288
  32 H :    0.015874
  33 H :    0.011504

  Mayer bond orders larger than 0.100000
B(  0-S ,  1-C ) :   1.1582 B(  0-S ,  4-C ) :   1.1539 B(  1-C ,  2-C ) :   1.5652
B(  1-C , 32-H ) :   0.9810 B(  2-C ,  3-C ) :   1.2616 B(  2-C ,  6-C ) :   1.0293
B(  3-C ,  4-C ) :   1.5681 B(  3-C ,  5-H ) :   0.9819 B(  4-C , 20-C ) :   1.0466
B(  6-C ,  7-H ) :   0.9457 B(  6-C ,  8-H ) :   0.9349 B(  6-C ,  9-C ) :   1.0532
B(  9-C , 10-H ) :   0.9622 B(  9-C , 11-H ) :   0.9513 B(  9-C , 12-C ) :   1.0689
B( 12-C , 13-H ) :   0.9759 B( 12-C , 14-H ) :   0.9767 B( 12-C , 15-H ) :   0.9763
B( 16-S , 17-C ) :   1.1388 B( 16-S , 20-C ) :   1.1264 B( 17-C , 18-C ) :   1.6296
B( 17-C , 33-H ) :   0.9640 B( 18-C , 19-C ) :   1.2567 B( 18-C , 21-H ) :   0.9798
B( 19-C , 20-C ) :   1.6083 B( 19-C , 22-C ) :   1.0103 B( 22-C , 23-H ) :   0.9354
B( 22-C , 24-H ) :   0.9240 B( 22-C , 25-C ) :   1.0884 B( 25-C , 26-H ) :   0.9414
B( 25-C , 27-H ) :   0.9458 B( 25-C , 28-C ) :   1.1003 B( 28-C , 29-H ) :   0.9700
B( 28-C , 30-H ) :   0.9686 B( 28-C , 31-H ) :   0.9680

Dispersion correction           -0.013754074
FINAL SINGLE POINT ENERGY     -1339.870893386201

DIPOLE MOMENT
-------------
                                X             Y             Z
Electronic contribution:    -29.74643      -5.52139      15.28203
Nuclear contribution   :     30.46946       5.79218     -15.44815
                        -----------------------------------------
Total Dipole Moment    :      0.72303       0.27079      -0.16613
                        -----------------------------------------
Magnitude (a.u.)       :      0.78974
Magnitude (Debye)      :      2.00737

Rotational constants in cm-1:     0.015633     0.009528     0.006299
Rotational constants in MHz :   468.679171   285.644155   188.837526

                             ****ORCA TERMINATED NORMALLY****
TOTAL RUN TIME: 0 days 0 hours 0 minutes 33 seconds 42 msec
