                         Program Version 4.2.1 -  RELEASE  -
|  1> ! wB97X-D3 SP def2-SVP
|  2> %pal
|  3> nprocs 16
|  4> end
|  5>
|  6> * xyz 0 1
|  7> S 	 -52.8694 	 7.43892 	 92.7362
|  8> C 	 -52.5708 	 7.07091 	 94.3758
|  9> C 	 -52.3501 	 8.18069 	 95.1471
| 10> C 	 -52.6247 	 9.3771 	 94.3847
| 11> C 	 -52.8053 	 9.16999 	 93.0397
| 12> H 	 -52.4291 	 10.3675 	 94.72
| 13> C 	 -51.9172 	 8.33335 	 96.5907
| 14> H 	 -52.6891 	 7.79706 	 97.2341
| 15> H 	 -51.8597 	 9.38885 	 96.8555
| 16> C 	 -50.5764 	 7.72461 	 96.8152
| 17> H 	 -50.5106 	 7.49356 	 97.8787
| 18> H 	 -50.5739 	 6.70162 	 96.3964
| 19> C 	 -49.3272 	 8.39523 	 96.3457
| 20> H 	 -48.408 	 7.83632 	 96.6689
| 21> H 	 -49.3917 	 8.51821 	 95.2665
| 22> H 	 -49.2996 	 9.42772 	 96.7584
| 23> S 	 -51.4167 	 9.97584 	 90.7778
| 24> C 	 -52.0021 	 11.4417 	 90.0151
| 25> C 	 -53.1026 	 11.9351 	 90.5029
| 26> C 	 -53.5541 	 11.1973 	 91.688
| 27> C 	 -52.7218 	 10.1137 	 91.9405
| 28> H 	 -53.5983 	 12.8137 	 90.0628
| 29> C 	 -54.8697 	 11.4506 	 92.3578
| 30> H 	 -54.8533 	 11.0755 	 93.4287
| 31> H 	 -55.7255 	 10.8412 	 91.909
| 32> C 	 -55.4954 	 12.8495 	 92.2264
| 33> H 	 -56.4581 	 12.8224 	 92.6742
| 34> H 	 -55.6152 	 13.0775 	 91.1207
| 35> C 	 -54.8719 	 14.0951 	 92.9049
| 36> H 	 -54.4426 	 13.8504 	 93.8392
| 37> H 	 -55.6356 	 14.9002 	 92.9665
| 38> H 	 -54.1387 	 14.5625 	 92.2596
| 39> H 	 -52.6808 	 6.11025 	 94.9728
| 40> H 	 -51.4485 	 11.8083 	 89.1482
| 41> *
| 42>
| 43>                          ****END OF INPUT****

CARTESIAN COORDINATES (ANGSTROEM)
---------------------------------
  S    -52.869400    7.438920   92.736200
  C    -52.570800    7.070910   94.375800
  C    -52.350100    8.180690   95.147100
  C    -52.624700    9.377100   94.384700
  C    -52.805300    9.169990   93.039700
  H    -52.429100   10.367500   94.720000
  C    -51.917200    8.333350   96.590700
  H    -52.689100    7.797060   97.234100
  H    -51.859700    9.388850   96.855500
  C    -50.576400    7.724610   96.815200
  H    -50.510600    7.493560   97.878700
  H    -50.573900    6.701620   96.396400
  C    -49.327200    8.395230   96.345700
  H    -48.408000    7.836320   96.668900
  H    -49.391700    8.518210   95.266500
  H    -49.299600    9.427720   96.758400
  S    -51.416700    9.975840   90.777800
  C    -52.002100   11.441700   90.015100
  C    -53.102600   11.935100   90.502900
  C    -53.554100   11.197300   91.688000
  C    -52.721800   10.113700   91.940500
  H    -53.598300   12.813700   90.062800
  C    -54.869700   11.450600   92.357800
  H    -54.853300   11.075500   93.428700
  H    -55.725500   10.841200   91.909000
  C    -55.495400   12.849500   92.226400
  H    -56.458100   12.822400   92.674200
  H    -55.615200   13.077500   91.120700
  C    -54.871900   14.095100   92.904900
  H    -54.442600   13.850400   93.839200
  H    -55.635600   14.900200   92.966500
  H    -54.138700   14.562500   92.259600
  H    -52.680800    6.110250   94.972800
  H    -51.448500   11.808300   89.148200

 Total Charge           Charge          ....    0
 Multiplicity           Mult            ....    1
 Number of Electrons    NEL             ....  134
 Basis Dimension        Dim             ....  322

ORBITAL ENERGIES
----------------

  NO   OCC          E(Eh)            E(eV)
   0   2.0000     -88.965722     -2420.8804
   1   2.0000     -88.962937     -2420.8046
   2   2.0000     -10.325755      -280.9781
   3   2.0000     -10.325146      -280.9615
   4   2.0000     -10.313106      -280.6339
   5   2.0000     -10.310966      -280.5757
   6   2.0000     -10.305230      -280.4196
   7   2.0000     -10.299165      -280.2545
   8   2.0000     -10.296708      -280.1877
   9   2.0000     -10.295985      -280.1680
  10   2.0000     -10.291624      -280.0493
  11   2.0000     -10.288703      -279.9699
  12   2.0000     -10.288697      -279.9697
  13   2.0000     -10.278784      -279.6999
  14   2.0000     -10.278469      -279.6914
  15   2.0000     -10.274325      -279.5786
  16   2.0000      -8.080937      -219.8935
  17   2.0000      -8.078230      -219.8198
  18   2.0000      -6.039498      -164.3431
  19   2.0000      -6.036780      -164.2691
  20   2.0000      -6.035310      -164.2291
  21   2.0000      -6.032841      -164.1620
  22   2.0000      -6.031673      -164.1302
  23   2.0000      -6.028722      -164.0499
  24   2.0000      -1.009812       -27.4784
  25   2.0000      -0.988735       -26.9048
  26   2.0000      -0.919329       -25.0162
  27   2.0000      -0.904943       -24.6247
  28   2.0000      -0.874858       -23.8061
  29   2.0000      -0.850069       -23.1316
  30   2.0000      -0.845239       -23.0001
  31   2.0000      -0.818859       -22.2823
  32   2.0000      -0.786163       -21.3926
  33   2.0000      -0.774707       -21.0809
  34   2.0000      -0.705299       -19.1922
  35   2.0000      -0.697051       -18.9677
  36   2.0000      -0.688367       -18.7314
  37   2.0000      -0.653542       -17.7838
  38   2.0000      -0.634133       -17.2556
  39   2.0000      -0.612088       -16.6558
  40   2.0000      -0.601019       -16.3546
  41   2.0000      -0.577022       -15.7016
  42   2.0000      -0.557712       -15.1761
  43   2.0000      -0.547893       -14.9089
  44   2.0000      -0.541292       -14.7293
  45   2.0000      -0.535594       -14.5743
  46   2.0000      -0.516798       -14.0628
  47   2.0000      -0.509324       -13.8594
  48   2.0000      -0.506895       -13.7933
  49   2.0000      -0.494261       -13.4495
  50   2.0000      -0.489791       -13.3279
  51   2.0000      -0.479861       -13.0577
  52   2.0000      -0.475806       -12.9473
  53   2.0000      -0.466091       -12.6830
  54   2.0000      -0.460113       -12.5203
  55   2.0000      -0.447297       -12.1716
  56   2.0000      -0.444069       -12.0837
  57   2.0000      -0.435049       -11.8383
  58   2.0000      -0.430209       -11.7066
  59   2.0000      -0.418552       -11.3894
  60   2.0000      -0.417940       -11.3727
  61   2.0000      -0.414445       -11.2776
  62   2.0000      -0.405141       -11.0244
  63   2.0000      -0.352815        -9.6006
  64   2.0000      -0.330198        -8.9851
  65   2.0000      -0.326776        -8.8920
  66   2.0000      -0.293422        -7.9844
  67   0.0000       0.038419         1.0454
  68   0.0000       0.065857         1.7921
  69   0.0000       0.115929         3.1546
  70   0.0000       0.122989         3.3467
  71   0.0000       0.127540         3.4705

MULLIKEN ATOMIC CHARGES
-----------------------
   0 S :    0.120675
   1 C :   -0.119171
   2 C :   -0.147035
   3 C :    0.066630
   4 C :   -0.194409
   5 H :   -0.000891
   6 C :    0.084972
   7 H :    0.046175
   8 H :    0.019385
   9 C :   -0.093855
  10 H :    0.016211
  11 H :    0.015921
  12 C :   -0.037297
  13 H :    0.050904
  14 H :    0.040321
  15 H :    0.023409
  16 S :    0.106269
  17 C :   -0.087699
  18 C :   -0.018222
  19 C :   -0.014236
  20 C :   -0.145792
  21 H :    0.029086
  22 C :    0.023547
  23 H :    0.037291
  24 H :    0.056472
  25 C :   -0.113695
  26 H :    0.025387
  27 H :    0.032530
  28 C :   -0.024269
  29 H :    0.028792
  30 H :    0.031126
  31 H :    0.019552
  32 H :    0.066379
  33 H :    0.055537
Sum of atomic charges:    0.0000000

LOEWDIN ATOMIC CHARGES
----------------------
   0 S :    0.419670
   1 C :   -0.228677
   2 C :   -0.069987
   3 C :   -0.060082
   4 C :   -0.192139
   5 H :    0.024018
   6 C :   -0.030234
   7 H :    0.043828
   8 H :    0.028891
   9 C :   -0.056231
  10 H :    0.020877
  11 H :    0.023285
  12 C :   -0.065611
  13 H :    0.037030
  14 H :    0.027493
  15 H :    0.024486
  16 S :    0.390613
  17 C :   -0.172222
  18 C :   -0.074214
  19 C :   -0.054524
  20 C :   -0.199419
  21 H :    0.039360
  22 C :   -0.046618
  23 H :    0.037300
  24 H :    0.050078
  25 C :   -0.048858
  26 H :    0.022821
  27 H :    0.027110
  28 C :   -0.065195
  29 H :    0.018917
  30 H :    0.030916
  31 H :    0.020329
  32 H :    0.047499
  33 H :    0.029491

  Mayer bond orders larger than 0.100000
B(  0-S ,  1-C ) :   1.1383 B(  0-S ,  4-C ) :   1.1491 B(  1-C ,  2-C ) :   1.6325
B(  1-C , 32-H ) :   0.9468 B(  2-C ,  3-C ) :   1.2470 B(  2-C ,  6-C ) :   1.0174
B(  3-C ,  4-C ) :   1.5913 B(  3-C ,  5-H ) :   0.9894 B(  4-C , 20-C ) :   1.0276
B(  6-C ,  7-H ) :   0.9303 B(  6-C ,  8-H ) :   0.9444 B(  6-C ,  9-C ) :   1.0810
B(  9-C , 10-H ) :   0.9492 B(  9-C , 11-H ) :   0.9493 B(  9-C , 12-C ) :   1.0828
B( 12-C , 13-H ) :   0.9701 B( 12-C , 14-H ) :   0.9737 B( 12-C , 15-H ) :   0.9703
B( 16-S , 17-C ) :   1.1263 B( 16-S , 20-C ) :   1.1294 B( 17-C , 18-C ) :   1.6826
B( 17-C , 33-H ) :   0.9595 B( 18-C , 19-C ) :   1.1804 B( 18-C , 21-H ) :   0.9847
B( 19-C , 20-C ) :   1.6357 B( 19-C , 22-C ) :   1.0542 B( 22-C , 23-H ) :   0.9277
B( 22-C , 24-H ) :   0.9282 B( 22-C , 25-C ) :   1.0836 B( 25-C , 26-H ) :   0.9566
B( 25-C , 27-H ) :   0.9482 B( 25-C , 28-C ) :   1.0718 B( 28-C , 29-H ) :   0.9761
B( 28-C , 30-H ) :   0.9760 B( 28-C , 31-H ) :   0.9749

Dispersion correction           -0.014176611
FINAL SINGLE POINT ENERGY     -1339.874031460167

DIPOLE MOMENT
-------------
                                X             Y             Z
Electronic contribution:      2.46494     -12.37623     -17.51403
Nuclear contribution   :     -2.64190      12.74325      17.86320
                        -----------------------------------------
Total Dipole Moment    :     -0.17696       0.36702       0.34917
                        -----------------------------------------
Magnitude (a.u.)       :      0.53660
Magnitude (Debye)      :      1.36392

Rotational constants in cm-1:     0.020059     0.007880     0.006976
Rotational constants in MHz :   601.352365   236.221772   209.122720

                             ****ORCA TERMINATED NORMALLY****
TOTAL RUN TIME: 0 days 0 hours 0 minutes 29 seconds 952 msec
