                         Program Version 4.2.1 -  RELEASE  -
|  1> ! wB97X-D3 SP def2-SVP
|  2> %pal
|  3> nprocs 16
|  4> end
|  5>
|  6> * xyz 0 1
|  7> S 	 -8.36642 	 59.2048 	 57.0514
|  8> C 	 -7.57261 	 58.8288 	 58.5535
|  9> C 	 -7.30357 	 59.9559 	 59.2665
| 10> C 	 -7.60123 	 61.1625 	 58.6507
| 11> C 	 -8.15379 	 60.9336 	 57.4168
| 12> H 	 -7.46365 	 62.1569 	 58.9396
| 13> C 	 -6.61001 	 59.9292 	 60.6069
| 14> H 	 -5.46542 	 60.0319 	 60.4811
| 15> H 	 -6.76278 	 58.9682 	 61.169
| 16> C 	 -6.9329 	 61.1467 	 61.5054
| 17> H 	 -6.73372 	 62.1469 	 61.0453
| 18> H 	 -7.96849 	 61.0696 	 61.5429
| 19> C 	 -6.45701 	 60.9052 	 62.9791
| 20> H 	 -6.87038 	 61.6019 	 63.7075
| 21> H 	 -6.61038 	 59.9 	 63.4362
| 22> H 	 -5.43178 	 61.1944 	 62.9305
| 23> S 	 -10.0165 	 61.4566 	 55.4915
| 24> C 	 -10.0536 	 62.9826 	 54.7093
| 25> C 	 -9.1008 	 63.8373 	 55.1983
| 26> C 	 -8.23615 	 63.1742 	 56.1072
| 27> C 	 -8.61132 	 61.9102 	 56.4516
| 28> H 	 -9.02484 	 64.8452 	 54.8461
| 29> C 	 -6.97532 	 63.9084 	 56.5453
| 30> H 	 -6.4056 	 63.2985 	 57.1814
| 31> H 	 -7.21213 	 64.9018 	 57.0243
| 32> C 	 -6.10596 	 64.2782 	 55.2695
| 33> H 	 -6.58429 	 65.1793 	 54.7239
| 34> H 	 -5.9451 	 63.4146 	 54.6152
| 35> C 	 -4.73651 	 64.7404 	 55.7056
| 36> H 	 -4.79471 	 65.5885 	 56.3579
| 37> H 	 -4.2734 	 64.9661 	 54.7736
| 38> H 	 -4.12603 	 63.9278 	 56.1086
| 39> H 	 -7.30473 	 57.7762 	 58.7676
| 40> H 	 -10.9378 	 63.2384 	 54.1023
| 41> *
| 42>
| 43>                          ****END OF INPUT****

CARTESIAN COORDINATES (ANGSTROEM)
---------------------------------
  S     -8.366420   59.204800   57.051400
  C     -7.572610   58.828800   58.553500
  C     -7.303570   59.955900   59.266500
  C     -7.601230   61.162500   58.650700
  C     -8.153790   60.933600   57.416800
  H     -7.463650   62.156900   58.939600
  C     -6.610010   59.929200   60.606900
  H     -5.465420   60.031900   60.481100
  H     -6.762780   58.968200   61.169000
  C     -6.932900   61.146700   61.505400
  H     -6.733720   62.146900   61.045300
  H     -7.968490   61.069600   61.542900
  C     -6.457010   60.905200   62.979100
  H     -6.870380   61.601900   63.707500
  H     -6.610380   59.900000   63.436200
  H     -5.431780   61.194400   62.930500
  S    -10.016500   61.456600   55.491500
  C    -10.053600   62.982600   54.709300
  C     -9.100800   63.837300   55.198300
  C     -8.236150   63.174200   56.107200
  C     -8.611320   61.910200   56.451600
  H     -9.024840   64.845200   54.846100
  C     -6.975320   63.908400   56.545300
  H     -6.405600   63.298500   57.181400
  H     -7.212130   64.901800   57.024300
  C     -6.105960   64.278200   55.269500
  H     -6.584290   65.179300   54.723900
  H     -5.945100   63.414600   54.615200
  C     -4.736510   64.740400   55.705600
  H     -4.794710   65.588500   56.357900
  H     -4.273400   64.966100   54.773600
  H     -4.126030   63.927800   56.108600
  H     -7.304730   57.776200   58.767600
  H    -10.937800   63.238400   54.102300

 Total Charge           Charge          ....    0
 Multiplicity           Mult            ....    1
 Number of Electrons    NEL             ....  134
 Basis Dimension        Dim             ....  322

ORBITAL ENERGIES
----------------

  NO   OCC          E(Eh)            E(eV)
   0   2.0000     -88.965050     -2420.8621
   1   2.0000     -88.959146     -2420.7014
   2   2.0000     -10.330002      -281.0936
   3   2.0000     -10.321895      -280.8730
   4   2.0000     -10.314697      -280.6772
   5   2.0000     -10.311380      -280.5869
   6   2.0000     -10.298720      -280.2424
   7   2.0000     -10.297508      -280.2094
   8   2.0000     -10.296600      -280.1847
   9   2.0000     -10.293709      -280.1061
  10   2.0000     -10.293158      -280.0911
  11   2.0000     -10.289592      -279.9940
  12   2.0000     -10.287735      -279.9435
  13   2.0000     -10.285969      -279.8954
  14   2.0000     -10.280890      -279.7572
  15   2.0000     -10.270964      -279.4872
  16   2.0000      -8.079809      -219.8628
  17   2.0000      -8.075030      -219.7327
  18   2.0000      -6.038242      -164.3089
  19   2.0000      -6.034439      -164.2054
  20   2.0000      -6.033455      -164.1786
  21   2.0000      -6.030532      -164.0991
  22   2.0000      -6.029432      -164.0692
  23   2.0000      -6.025751      -163.9690
  24   2.0000      -1.012881       -27.5619
  25   2.0000      -0.990706       -26.9585
  26   2.0000      -0.909962       -24.7613
  27   2.0000      -0.907583       -24.6966
  28   2.0000      -0.872417       -23.7397
  29   2.0000      -0.857806       -23.3421
  30   2.0000      -0.848359       -23.0850
  31   2.0000      -0.815797       -22.1990
  32   2.0000      -0.779722       -21.2173
  33   2.0000      -0.768878       -20.9222
  34   2.0000      -0.710635       -19.3374
  35   2.0000      -0.692421       -18.8417
  36   2.0000      -0.687862       -18.7177
  37   2.0000      -0.662412       -18.0251
  38   2.0000      -0.645142       -17.5552
  39   2.0000      -0.626643       -17.0518
  40   2.0000      -0.598903       -16.2970
  41   2.0000      -0.573709       -15.6114
  42   2.0000      -0.568396       -15.4669
  43   2.0000      -0.562050       -15.2941
  44   2.0000      -0.530092       -14.4245
  45   2.0000      -0.525047       -14.2872
  46   2.0000      -0.518181       -14.1004
  47   2.0000      -0.512755       -13.9528
  48   2.0000      -0.500077       -13.6078
  49   2.0000      -0.496418       -13.5082
  50   2.0000      -0.490147       -13.3376
  51   2.0000      -0.484962       -13.1965
  52   2.0000      -0.475461       -12.9380
  53   2.0000      -0.468037       -12.7359
  54   2.0000      -0.454327       -12.3629
  55   2.0000      -0.451988       -12.2992
  56   2.0000      -0.445253       -12.1160
  57   2.0000      -0.441384       -12.0107
  58   2.0000      -0.434181       -11.8147
  59   2.0000      -0.426014       -11.5924
  60   2.0000      -0.417968       -11.3735
  61   2.0000      -0.409964       -11.1557
  62   2.0000      -0.405040       -11.0217
  63   2.0000      -0.359072        -9.7708
  64   2.0000      -0.335779        -9.1370
  65   2.0000      -0.327312        -8.9066
  66   2.0000      -0.282388        -7.6842
  67   0.0000       0.026758         0.7281
  68   0.0000       0.077566         2.1107
  69   0.0000       0.102658         2.7935
  70   0.0000       0.119336         3.2473
  71   0.0000       0.139071         3.7843

MULLIKEN ATOMIC CHARGES
-----------------------
   0 S :    0.099651
   1 C :   -0.146296
   2 C :   -0.013795
   3 C :    0.014280
   4 C :   -0.118192
   5 H :   -0.006634
   6 C :    0.010907
   7 H :    0.045099
   8 H :    0.032159
   9 C :   -0.107207
  10 H :    0.049472
  11 H :    0.016641
  12 C :   -0.038897
  13 H :    0.029804
  14 H :    0.046638
  15 H :    0.024626
  16 S :    0.081804
  17 C :   -0.095495
  18 C :   -0.021407
  19 C :   -0.060752
  20 C :   -0.124507
  21 H :    0.015653
  22 C :    0.082514
  23 H :    0.000419
  24 H :    0.037584
  25 C :   -0.148907
  26 H :    0.043582
  27 H :    0.046161
  28 C :   -0.009247
  29 H :    0.027291
  30 H :    0.022370
  31 H :    0.033324
  32 H :    0.060540
  33 H :    0.070816
Sum of atomic charges:    0.0000000

LOEWDIN ATOMIC CHARGES
----------------------
   0 S :    0.391116
   1 C :   -0.200549
   2 C :   -0.068906
   3 C :   -0.059771
   4 C :   -0.163698
   5 H :    0.026406
   6 C :   -0.037064
   7 H :    0.036129
   8 H :    0.032804
   9 C :   -0.046744
  10 H :    0.030103
  11 H :    0.013015
  12 C :   -0.066979
  13 H :    0.026288
  14 H :    0.033342
  15 H :    0.021759
  16 S :    0.401667
  17 C :   -0.190101
  18 C :   -0.068700
  19 C :   -0.062706
  20 C :   -0.195809
  21 H :    0.029985
  22 C :   -0.028130
  23 H :    0.014640
  24 H :    0.037205
  25 C :   -0.039226
  26 H :    0.030415
  27 H :    0.027904
  28 C :   -0.063677
  29 H :    0.020111
  30 H :    0.024640
  31 H :    0.026040
  32 H :    0.034885
  33 H :    0.033606

  Mayer bond orders larger than 0.100000
B(  0-S ,  1-C ) :   1.1228 B(  0-S ,  4-C ) :   1.1517 B(  1-C ,  2-C ) :   1.6146
B(  1-C ,  4-C ) :   0.1005 B(  1-C , 32-H ) :   0.9717 B(  2-C ,  3-C ) :   1.2180
B(  2-C ,  6-C ) :   1.0211 B(  3-C ,  4-C ) :   1.5754 B(  3-C ,  5-H ) :   1.0066
B(  4-C , 20-C ) :   1.0560 B(  6-C ,  7-H ) :   0.9351 B(  6-C ,  8-H ) :   0.9498
B(  6-C ,  9-C ) :   1.0554 B(  9-C , 10-H ) :   0.9485 B(  9-C , 11-H ) :   0.9633
B(  9-C , 12-C ) :   1.0688 B( 12-C , 13-H ) :   0.9743 B( 12-C , 14-H ) :   0.9748
B( 12-C , 15-H ) :   0.9772 B( 16-S , 17-C ) :   1.1666 B( 16-S , 20-C ) :   1.1202
B( 17-C , 18-C ) :   1.6034 B( 17-C , 33-H ) :   0.9626 B( 18-C , 19-C ) :   1.2244
B( 18-C , 21-H ) :   0.9979 B( 19-C , 20-C ) :   1.6243 B( 19-C , 22-C ) :   1.0534
B( 22-C , 23-H ) :   0.9388 B( 22-C , 24-H ) :   0.9303 B( 22-C , 25-C ) :   1.0589
B( 25-C , 26-H ) :   0.9518 B( 25-C , 27-H ) :   0.9581 B( 25-C , 28-C ) :   1.0967
B( 28-C , 29-H ) :   0.9709 B( 28-C , 30-H ) :   0.9713 B( 28-C , 31-H ) :   0.9718

Dispersion correction           -0.013380285
FINAL SINGLE POINT ENERGY     -1339.868385347047

DIPOLE MOMENT
-------------
                                X             Y             Z
Electronic contribution:    -19.69329     -14.19315     -16.47782
Nuclear contribution   :     20.07369      14.68055      16.74644
                        -----------------------------------------
Total Dipole Moment    :      0.38040       0.48740       0.26863
                        -----------------------------------------
Magnitude (a.u.)       :      0.67411
Magnitude (Debye)      :      1.71345

Rotational constants in cm-1:     0.017047     0.008588     0.006550
Rotational constants in MHz :   511.058888   257.463735   196.361937

                             ****ORCA TERMINATED NORMALLY****
TOTAL RUN TIME: 0 days 0 hours 0 minutes 31 seconds 777 msec
