                         Program Version 4.2.1 -  RELEASE  -
|  1> ! wB97X-D3 SP def2-SVP
|  2> %pal
|  3> nprocs 16
|  4> end
|  5>
|  6> * xyz 0 1
|  7> S 	 -81.2262 	 44.735 	 121.742
|  8> C 	 -82.0148 	 43.5229 	 120.811
|  9> C 	 -82.5808 	 42.5133 	 121.61
| 10> C 	 -82.3276 	 42.7399 	 123.033
| 11> C 	 -81.5714 	 43.9344 	 123.278
| 12> H 	 -82.6445 	 42.1443 	 123.829
| 13> C 	 -83.354 	 41.3147 	 121.119
| 14> H 	 -84.013 	 41.5984 	 120.358
| 15> H 	 -84.1241 	 40.9641 	 121.837
| 16> C 	 -82.4929 	 40.1657 	 120.662
| 17> H 	 -81.9841 	 39.8529 	 121.59
| 18> H 	 -83.0841 	 39.3226 	 120.3
| 19> C 	 -81.2866 	 40.5677 	 119.707
| 20> H 	 -81.5417 	 41.1891 	 118.784
| 21> H 	 -80.5659 	 41.1735 	 120.366
| 22> H 	 -80.7787 	 39.7126 	 119.368
| 23> S 	 -82.5391 	 45.574 	 125.479
| 24> C 	 -81.3858 	 46.0522 	 126.677
| 25> C 	 -80.1434 	 45.4487 	 126.418
| 26> C 	 -80.2098 	 44.4941 	 125.343
| 27> C 	 -81.3893 	 44.5661 	 124.568
| 28> H 	 -79.2424 	 45.6438 	 126.889
| 29> C 	 -78.945 	 43.6736 	 125.045
| 30> H 	 -78.7037 	 43.6618 	 123.945
| 31> H 	 -79.2784 	 42.6174 	 125.187
| 32> C 	 -77.7054 	 43.987 	 125.899
| 33> H 	 -77.8808 	 44.0046 	 126.992
| 34> H 	 -77.4156 	 44.988 	 125.836
| 35> C 	 -76.4685 	 43.0711 	 125.575
| 36> H 	 -75.647 	 43.049 	 126.323
| 37> H 	 -76.0059 	 43.2546 	 124.675
| 38> H 	 -76.6838 	 41.976 	 125.454
| 39> H 	 -82.1442 	 43.4259 	 119.708
| 40> H 	 -81.4991 	 46.694 	 127.51
| 41> *
| 42>
| 43>                          ****END OF INPUT****

CARTESIAN COORDINATES (ANGSTROEM)
---------------------------------
  S    -81.226200   44.735000  121.742000
  C    -82.014800   43.522900  120.811000
  C    -82.580800   42.513300  121.610000
  C    -82.327600   42.739900  123.033000
  C    -81.571400   43.934400  123.278000
  H    -82.644500   42.144300  123.829000
  C    -83.354000   41.314700  121.119000
  H    -84.013000   41.598400  120.358000
  H    -84.124100   40.964100  121.837000
  C    -82.492900   40.165700  120.662000
  H    -81.984100   39.852900  121.590000
  H    -83.084100   39.322600  120.300000
  C    -81.286600   40.567700  119.707000
  H    -81.541700   41.189100  118.784000
  H    -80.565900   41.173500  120.366000
  H    -80.778700   39.712600  119.368000
  S    -82.539100   45.574000  125.479000
  C    -81.385800   46.052200  126.677000
  C    -80.143400   45.448700  126.418000
  C    -80.209800   44.494100  125.343000
  C    -81.389300   44.566100  124.568000
  H    -79.242400   45.643800  126.889000
  C    -78.945000   43.673600  125.045000
  H    -78.703700   43.661800  123.945000
  H    -79.278400   42.617400  125.187000
  C    -77.705400   43.987000  125.899000
  H    -77.880800   44.004600  126.992000
  H    -77.415600   44.988000  125.836000
  C    -76.468500   43.071100  125.575000
  H    -75.647000   43.049000  126.323000
  H    -76.005900   43.254600  124.675000
  H    -76.683800   41.976000  125.454000
  H    -82.144200   43.425900  119.708000
  H    -81.499100   46.694000  127.510000

 Total Charge           Charge          ....    0
 Multiplicity           Mult            ....    1
 Number of Electrons    NEL             ....  134
 Basis Dimension        Dim             ....  322

ORBITAL ENERGIES
----------------

  NO   OCC          E(Eh)            E(eV)
   0   2.0000     -88.972541     -2421.0659
   1   2.0000     -88.968181     -2420.9473
   2   2.0000     -10.333008      -281.1754
   3   2.0000     -10.326473      -280.9976
   4   2.0000     -10.320367      -280.8315
   5   2.0000     -10.318780      -280.7883
   6   2.0000     -10.305469      -280.4261
   7   2.0000     -10.305067      -280.4151
   8   2.0000     -10.300176      -280.2820
   9   2.0000     -10.298898      -280.2473
  10   2.0000     -10.292085      -280.0619
  11   2.0000     -10.290595      -280.0213
  12   2.0000     -10.288409      -279.9619
  13   2.0000     -10.287419      -279.9349
  14   2.0000     -10.286297      -279.9044
  15   2.0000     -10.280044      -279.7342
  16   2.0000      -8.086698      -220.0502
  17   2.0000      -8.082127      -219.9258
  18   2.0000      -6.045202      -164.4983
  19   2.0000      -6.041046      -164.3852
  20   2.0000      -6.040716      -164.3762
  21   2.0000      -6.037724      -164.2948
  22   2.0000      -6.036547      -164.2628
  23   2.0000      -6.033016      -164.1667
  24   2.0000      -0.998413       -27.1682
  25   2.0000      -0.979153       -26.6441
  26   2.0000      -0.912204       -24.8223
  27   2.0000      -0.903333       -24.5809
  28   2.0000      -0.865913       -23.5627
  29   2.0000      -0.843443       -22.9513
  30   2.0000      -0.840909       -22.8823
  31   2.0000      -0.807407       -21.9707
  32   2.0000      -0.784657       -21.3516
  33   2.0000      -0.772512       -21.0211
  34   2.0000      -0.719707       -19.5842
  35   2.0000      -0.705798       -19.2057
  36   2.0000      -0.692172       -18.8349
  37   2.0000      -0.652405       -17.7529
  38   2.0000      -0.642964       -17.4959
  39   2.0000      -0.614119       -16.7110
  40   2.0000      -0.598337       -16.2816
  41   2.0000      -0.577671       -15.7192
  42   2.0000      -0.554163       -15.0796
  43   2.0000      -0.546365       -14.8673
  44   2.0000      -0.539688       -14.6857
  45   2.0000      -0.526654       -14.3310
  46   2.0000      -0.512142       -13.9361
  47   2.0000      -0.505782       -13.7630
  48   2.0000      -0.504655       -13.7324
  49   2.0000      -0.494739       -13.4625
  50   2.0000      -0.485098       -13.2002
  51   2.0000      -0.477957       -13.0059
  52   2.0000      -0.473528       -12.8854
  53   2.0000      -0.462513       -12.5856
  54   2.0000      -0.459099       -12.4927
  55   2.0000      -0.450297       -12.2532
  56   2.0000      -0.442484       -12.0406
  57   2.0000      -0.439819       -11.9681
  58   2.0000      -0.437266       -11.8986
  59   2.0000      -0.421654       -11.4738
  60   2.0000      -0.418627       -11.3914
  61   2.0000      -0.415479       -11.3057
  62   2.0000      -0.409995       -11.1565
  63   2.0000      -0.334053        -9.0900
  64   2.0000      -0.326229        -8.8771
  65   2.0000      -0.314157        -8.5486
  66   2.0000      -0.308824        -8.4035
  67   0.0000       0.039116         1.0644
  68   0.0000       0.043154         1.1743
  69   0.0000       0.112231         3.0540
  70   0.0000       0.123122         3.3503
  71   0.0000       0.133423         3.6306

MULLIKEN ATOMIC CHARGES
-----------------------
   0 S :    0.142557
   1 C :   -0.113040
   2 C :   -0.134274
   3 C :    0.066258
   4 C :   -0.206712
   5 H :   -0.003011
   6 C :    0.085898
   7 H :    0.006861
   8 H :    0.025802
   9 C :   -0.066726
  10 H :    0.026239
  11 H :    0.038011
  12 C :   -0.092742
  13 H :    0.037157
  14 H :    0.061544
  15 H :    0.029980
  16 S :    0.129769
  17 C :   -0.058005
  18 C :   -0.018882
  19 C :   -0.071108
  20 C :   -0.149599
  21 H :   -0.009605
  22 C :    0.065866
  23 H :    0.042987
  24 H :    0.038375
  25 C :   -0.073482
  26 H :    0.032991
  27 H :    0.020834
  28 C :   -0.033522
  29 H :    0.032691
  30 H :    0.014223
  31 H :    0.025006
  32 H :    0.061894
  33 H :    0.045763
Sum of atomic charges:   -0.0000000

LOEWDIN ATOMIC CHARGES
----------------------
   0 S :    0.430746
   1 C :   -0.211569
   2 C :   -0.063927
   3 C :   -0.038486
   4 C :   -0.204117
   5 H :    0.021942
   6 C :   -0.041245
   7 H :    0.020877
   8 H :    0.037608
   9 C :   -0.038800
  10 H :    0.027681
  11 H :    0.023504
  12 C :   -0.074142
  13 H :    0.025279
  14 H :    0.038328
  15 H :    0.016743
  16 S :    0.414358
  17 C :   -0.184315
  18 C :   -0.070300
  19 C :   -0.041693
  20 C :   -0.221586
  21 H :    0.016200
  22 C :   -0.038631
  23 H :    0.038413
  24 H :    0.041204
  25 C :   -0.044957
  26 H :    0.028997
  27 H :    0.017289
  28 C :   -0.067443
  29 H :    0.030838
  30 H :    0.012728
  31 H :    0.030845
  32 H :    0.040664
  33 H :    0.026963

  Mayer bond orders larger than 0.100000
B(  0-S ,  1-C ) :   1.1644 B(  0-S ,  4-C ) :   1.1502 B(  1-C ,  2-C ) :   1.5850
B(  1-C , 32-H ) :   0.9564 B(  2-C ,  3-C ) :   1.2600 B(  2-C ,  6-C ) :   1.0273
B(  3-C ,  4-C ) :   1.5411 B(  3-C ,  5-H ) :   1.0016 B(  4-C , 20-C ) :   1.0738
B(  6-C ,  7-H ) :   0.9332 B(  6-C ,  8-H ) :   0.9416 B(  6-C ,  9-C ) :   1.0694
B(  9-C , 10-H ) :   0.9548 B(  9-C , 11-H ) :   0.9593 B(  9-C , 12-C ) :   1.0695
B( 12-C , 13-H ) :   0.9761 B( 12-C , 14-H ) :   0.9682 B( 12-C , 15-H ) :   0.9747
B( 16-S , 17-C ) :   1.1802 B( 16-S , 20-C ) :   1.1181 B( 17-C , 18-C ) :   1.5506
B( 17-C , 20-C ) :   0.1011 B( 17-C , 33-H ) :   0.9678 B( 18-C , 19-C ) :   1.3055
B( 18-C , 21-H ) :   0.9855 B( 19-C , 20-C ) :   1.5539 B( 19-C , 22-C ) :   1.0297
B( 22-C , 23-H ) :   0.9320 B( 22-C , 24-H ) :   0.9239 B( 22-C , 25-C ) :   1.0727
B( 25-C , 26-H ) :   0.9484 B( 25-C , 27-H ) :   0.9489 B( 25-C , 28-C ) :   1.0647
B( 28-C , 29-H ) :   0.9763 B( 28-C , 30-H ) :   0.9766 B( 28-C , 31-H ) :   0.9759

Dispersion correction           -0.014243226
FINAL SINGLE POINT ENERGY     -1339.852819555056

DIPOLE MOMENT
-------------
                                X             Y             Z
Electronic contribution:    -14.76140      19.82794       4.59525
Nuclear contribution   :     14.98976     -20.27575      -4.60831
                        -----------------------------------------
Total Dipole Moment    :      0.22836      -0.44780      -0.01306
                        -----------------------------------------
Magnitude (a.u.)       :      0.50284
Magnitude (Debye)      :      1.27811

Rotational constants in cm-1:     0.018674     0.007957     0.006380
Rotational constants in MHz :   559.836663   238.540781   191.277572

                             ****ORCA TERMINATED NORMALLY****
TOTAL RUN TIME: 0 days 0 hours 0 minutes 32 seconds 403 msec
