                         Program Version 4.2.1 -  RELEASE  -
|  1> ! wB97X-D3 SP def2-SVP
|  2> %pal
|  3> nprocs 16
|  4> end
|  5>
|  6> * xyz 0 1
|  7> S 	 -49.0706 	 11.3033 	 80.5514
|  8> C 	 -47.7089 	 10.638 	 81.4019
|  9> C 	 -46.8246 	 11.625 	 81.7477
| 10> C 	 -47.3961 	 12.9218 	 81.6008
| 11> C 	 -48.504 	 12.936 	 80.8185
| 12> H 	 -46.9395 	 13.8793 	 81.929
| 13> C 	 -45.5819 	 11.3679 	 82.6572
| 14> H 	 -45.9888 	 10.8012 	 83.5434
| 15> H 	 -45.2093 	 12.3175 	 83.0971
| 16> C 	 -44.4457 	 10.6745 	 81.8305
| 17> H 	 -43.6198 	 10.5399 	 82.5092
| 18> H 	 -44.7443 	 9.60526 	 81.5253
| 19> C 	 -44.0901 	 11.4924 	 80.6529
| 20> H 	 -43.1676 	 11.1756 	 80.2487
| 21> H 	 -44.8834 	 11.3369 	 79.8973
| 22> H 	 -43.9961 	 12.5444 	 80.8939
| 23> S 	 -48.382 	 15.1348 	 79.1521
| 24> C 	 -49.7871 	 15.9853 	 78.5908
| 25> C 	 -50.7992 	 15.6331 	 79.4364
| 26> C 	 -50.5431 	 14.5697 	 80.3575
| 27> C 	 -49.2264 	 14.0602 	 80.2111
| 28> H 	 -51.6646 	 16.0546 	 79.1788
| 29> C 	 -51.7106 	 14.0145 	 81.2678
| 30> H 	 -51.6426 	 12.9714 	 81.0857
| 31> H 	 -52.6252 	 14.2665 	 80.8254
| 32> C 	 -51.7061 	 14.4713 	 82.7638
| 33> H 	 -52.096 	 15.4968 	 82.8744
| 34> H 	 -50.7755 	 14.3106 	 83.2481
| 35> C 	 -52.7677 	 13.669 	 83.6461
| 36> H 	 -52.795 	 14.1534 	 84.6372
| 37> H 	 -52.4499 	 12.6368 	 83.6674
| 38> H 	 -53.7617 	 13.6944 	 83.2263
| 39> H 	 -47.525 	 9.54836 	 81.5203
| 40> H 	 -49.7763 	 16.7417 	 77.8147
| 41> *
| 42>
| 43>                          ****END OF INPUT****

CARTESIAN COORDINATES (ANGSTROEM)
---------------------------------
  S    -49.070600   11.303300   80.551400
  C    -47.708900   10.638000   81.401900
  C    -46.824600   11.625000   81.747700
  C    -47.396100   12.921800   81.600800
  C    -48.504000   12.936000   80.818500
  H    -46.939500   13.879300   81.929000
  C    -45.581900   11.367900   82.657200
  H    -45.988800   10.801200   83.543400
  H    -45.209300   12.317500   83.097100
  C    -44.445700   10.674500   81.830500
  H    -43.619800   10.539900   82.509200
  H    -44.744300    9.605260   81.525300
  C    -44.090100   11.492400   80.652900
  H    -43.167600   11.175600   80.248700
  H    -44.883400   11.336900   79.897300
  H    -43.996100   12.544400   80.893900
  S    -48.382000   15.134800   79.152100
  C    -49.787100   15.985300   78.590800
  C    -50.799200   15.633100   79.436400
  C    -50.543100   14.569700   80.357500
  C    -49.226400   14.060200   80.211100
  H    -51.664600   16.054600   79.178800
  C    -51.710600   14.014500   81.267800
  H    -51.642600   12.971400   81.085700
  H    -52.625200   14.266500   80.825400
  C    -51.706100   14.471300   82.763800
  H    -52.096000   15.496800   82.874400
  H    -50.775500   14.310600   83.248100
  C    -52.767700   13.669000   83.646100
  H    -52.795000   14.153400   84.637200
  H    -52.449900   12.636800   83.667400
  H    -53.761700   13.694400   83.226300
  H    -47.525000    9.548360   81.520300
  H    -49.776300   16.741700   77.814700

 Total Charge           Charge          ....    0
 Multiplicity           Mult            ....    1
 Number of Electrons    NEL             ....  134
 Basis Dimension        Dim             ....  322

ORBITAL ENERGIES
----------------

  NO   OCC          E(Eh)            E(eV)
   0   2.0000     -88.965320     -2420.8694
   1   2.0000     -88.959626     -2420.7145
   2   2.0000     -10.329543      -281.0812
   3   2.0000     -10.328206      -281.0448
   4   2.0000     -10.315011      -280.6857
   5   2.0000     -10.314908      -280.6829
   6   2.0000     -10.309471      -280.5350
   7   2.0000     -10.300286      -280.2850
   8   2.0000     -10.299763      -280.2708
   9   2.0000     -10.293948      -280.1126
  10   2.0000     -10.289069      -279.9798
  11   2.0000     -10.288638      -279.9681
  12   2.0000     -10.287651      -279.9412
  13   2.0000     -10.281511      -279.7741
  14   2.0000     -10.275953      -279.6229
  15   2.0000     -10.268101      -279.4092
  16   2.0000      -8.080267      -219.8752
  17   2.0000      -8.075173      -219.7366
  18   2.0000      -6.038776      -164.3235
  19   2.0000      -6.034708      -164.2128
  20   2.0000      -6.033624      -164.1833
  21   2.0000      -6.031055      -164.1133
  22   2.0000      -6.029325      -164.0663
  23   2.0000      -6.026168      -163.9804
  24   2.0000      -1.009600       -27.4726
  25   2.0000      -0.989191       -26.9173
  26   2.0000      -0.910312       -24.7708
  27   2.0000      -0.895298       -24.3623
  28   2.0000      -0.872051       -23.7297
  29   2.0000      -0.848320       -23.0840
  30   2.0000      -0.840862       -22.8810
  31   2.0000      -0.818001       -22.2589
  32   2.0000      -0.780062       -21.2266
  33   2.0000      -0.769052       -20.9270
  34   2.0000      -0.703705       -19.1488
  35   2.0000      -0.695273       -18.9193
  36   2.0000      -0.693276       -18.8650
  37   2.0000      -0.661908       -18.0114
  38   2.0000      -0.639188       -17.3932
  39   2.0000      -0.612078       -16.6555
  40   2.0000      -0.588921       -16.0254
  41   2.0000      -0.577347       -15.7104
  42   2.0000      -0.565617       -15.3912
  43   2.0000      -0.554760       -15.0958
  44   2.0000      -0.545616       -14.8470
  45   2.0000      -0.523580       -14.2473
  46   2.0000      -0.518322       -14.1042
  47   2.0000      -0.508979       -13.8500
  48   2.0000      -0.505572       -13.7573
  49   2.0000      -0.491458       -13.3732
  50   2.0000      -0.490374       -13.3437
  51   2.0000      -0.478350       -13.0166
  52   2.0000      -0.467886       -12.7318
  53   2.0000      -0.466840       -12.7034
  54   2.0000      -0.463398       -12.6097
  55   2.0000      -0.442719       -12.0470
  56   2.0000      -0.439601       -11.9622
  57   2.0000      -0.436435       -11.8760
  58   2.0000      -0.435853       -11.8602
  59   2.0000      -0.422875       -11.5070
  60   2.0000      -0.416738       -11.3400
  61   2.0000      -0.409843       -11.1524
  62   2.0000      -0.401837       -10.9345
  63   2.0000      -0.342077        -9.3084
  64   2.0000      -0.333352        -9.0710
  65   2.0000      -0.325139        -8.8475
  66   2.0000      -0.299423        -8.1477
  67   0.0000       0.034827         0.9477
  68   0.0000       0.062871         1.7108
  69   0.0000       0.110582         3.0091
  70   0.0000       0.124512         3.3882
  71   0.0000       0.133051         3.6205

MULLIKEN ATOMIC CHARGES
-----------------------
   0 S :    0.113109
   1 C :   -0.131675
   2 C :   -0.103345
   3 C :    0.026392
   4 C :   -0.152481
   5 H :    0.026138
   6 C :    0.006451
   7 H :    0.051402
   8 H :    0.027774
   9 C :   -0.087413
  10 H :    0.024415
  11 H :    0.035786
  12 C :   -0.012936
  13 H :    0.021681
  14 H :    0.051068
  15 H :    0.025473
  16 S :    0.100130
  17 C :   -0.103597
  18 C :    0.010150
  19 C :   -0.034932
  20 C :   -0.165104
  21 H :   -0.033207
  22 C :    0.126869
  23 H :    0.009571
  24 H :   -0.003717
  25 C :   -0.063314
  26 H :    0.037041
  27 H :    0.036578
  28 C :   -0.074563
  29 H :    0.042571
  30 H :    0.035990
  31 H :    0.026479
  32 H :    0.068178
  33 H :    0.063040
Sum of atomic charges:    0.0000000

LOEWDIN ATOMIC CHARGES
----------------------
   0 S :    0.413282
   1 C :   -0.202471
   2 C :   -0.071100
   3 C :   -0.068878
   4 C :   -0.194589
   5 H :    0.038073
   6 C :   -0.032531
   7 H :    0.037143
   8 H :    0.027901
   9 C :   -0.045855
  10 H :    0.017595
  11 H :    0.028891
  12 C :   -0.061404
  13 H :    0.020698
  14 H :    0.035445
  15 H :    0.024947
  16 S :    0.421167
  17 C :   -0.182769
  18 C :   -0.067053
  19 C :   -0.049126
  20 C :   -0.213589
  21 H :    0.007756
  22 C :   -0.022749
  23 H :    0.022100
  24 H :    0.021344
  25 C :   -0.028783
  26 H :    0.027977
  27 H :    0.021143
  28 C :   -0.064654
  29 H :    0.029030
  30 H :    0.021860
  31 H :    0.018780
  32 H :    0.036800
  33 H :    0.033616

  Mayer bond orders larger than 0.100000
B(  0-S ,  1-C ) :   1.1455 B(  0-S ,  4-C ) :   1.1501 B(  1-C ,  2-C ) :   1.6133
B(  1-C , 32-H ) :   0.9632 B(  2-C ,  3-C ) :   1.2248 B(  2-C ,  6-C ) :   1.0003
B(  3-C ,  4-C ) :   1.6110 B(  3-C ,  5-H ) :   0.9866 B(  4-C , 20-C ) :   1.0234
B(  6-C ,  7-H ) :   0.9547 B(  6-C ,  8-H ) :   0.9517 B(  6-C ,  9-C ) :   1.0579
B(  9-C , 10-H ) :   0.9585 B(  9-C , 11-H ) :   0.9565 B(  9-C , 12-C ) :   1.0803
B( 12-C , 13-H ) :   0.9693 B( 12-C , 14-H ) :   0.9652 B( 12-C , 15-H ) :   0.9742
B( 16-S , 17-C ) :   1.1677 B( 16-S , 20-C ) :   1.1640 B( 17-C , 18-C ) :   1.5777
B( 17-C , 20-C ) :   0.1061 B( 17-C , 33-H ) :   0.9723 B( 18-C , 19-C ) :   1.2574
B( 18-C , 21-H ) :   1.0097 B( 19-C , 20-C ) :   1.5408 B( 19-C , 22-C ) :   1.0197
B( 22-C , 23-H ) :   0.9373 B( 22-C , 24-H ) :   0.9333 B( 22-C , 25-C ) :   1.0603
B( 25-C , 26-H ) :   0.9600 B( 25-C , 27-H ) :   0.9640 B( 25-C , 28-C ) :   1.0716
B( 28-C , 29-H ) :   0.9777 B( 28-C , 30-H ) :   0.9801 B( 28-C , 31-H ) :   0.9781

Dispersion correction           -0.014306089
FINAL SINGLE POINT ENERGY     -1339.861134966153

DIPOLE MOMENT
-------------
                                X             Y             Z
Electronic contribution:     -2.11367       4.33680     -14.28813
Nuclear contribution   :      2.10151      -4.29430      14.55089
                        -----------------------------------------
Total Dipole Moment    :     -0.01216       0.04250       0.26276
                        -----------------------------------------
Magnitude (a.u.)       :      0.26645
Magnitude (Debye)      :      0.67726

Rotational constants in cm-1:     0.019674     0.008352     0.006628
Rotational constants in MHz :   589.809369   250.399098   198.694861

                             ****ORCA TERMINATED NORMALLY****
TOTAL RUN TIME: 0 days 0 hours 0 minutes 29 seconds 343 msec
