                         Program Version 4.2.1 -  RELEASE  -
|  1> ! wB97X-D3 SP def2-SVP
|  2> %pal
|  3> nprocs 16
|  4> end
|  5>
|  6> * xyz 0 1
|  7> S 	 -65.5767 	 36.3225 	 144.122
|  8> C 	 -66.7421 	 35.3142 	 143.477
|  9> C 	 -66.8617 	 35.3056 	 142.103
| 10> C 	 -65.9855 	 36.3236 	 141.628
| 11> C 	 -65.0648 	 36.8168 	 142.53
| 12> H 	 -65.823 	 36.5822 	 140.619
| 13> C 	 -67.6693 	 34.4331 	 141.099
| 14> H 	 -68.4303 	 35.1559 	 140.894
| 15> H 	 -68.116 	 33.5629 	 141.518
| 16> C 	 -66.914 	 33.9752 	 139.881
| 17> H 	 -66.5043 	 34.8173 	 139.269
| 18> H 	 -65.8829 	 33.6113 	 140.17
| 19> C 	 -67.5963 	 32.8589 	 139.049
| 20> H 	 -67.5302 	 31.8828 	 139.573
| 21> H 	 -68.6917 	 32.9738 	 138.868
| 22> H 	 -67.0796 	 32.8961 	 138.066
| 23> S 	 -62.4185 	 36.4575 	 142.069
| 24> C 	 -61.442 	 37.8198 	 141.629
| 25> C 	 -62.1767 	 38.9741 	 141.65
| 26> C 	 -63.5568 	 38.8796 	 142.019
| 27> C 	 -63.8644 	 37.5113 	 142.31
| 28> H 	 -61.663 	 39.9552 	 141.428
| 29> C 	 -64.5354 	 40.0765 	 141.995
| 30> H 	 -65.541 	 39.7728 	 142.157
| 31> H 	 -64.3479 	 40.565 	 140.975
| 32> C 	 -64.1334 	 41.2419 	 142.984
| 33> H 	 -64.5546 	 42.1838 	 142.699
| 34> H 	 -63.0735 	 41.3621 	 142.884
| 35> C 	 -64.1586 	 40.9027 	 144.442
| 36> H 	 -65.2254 	 40.7442 	 144.751
| 37> H 	 -63.7277 	 41.6855 	 145.07
| 38> H 	 -63.6158 	 39.9229 	 144.585
| 39> H 	 -67.1957 	 34.6812 	 144.229
| 40> H 	 -60.357 	 37.7281 	 141.555
| 41> *
| 42>
| 43>                          ****END OF INPUT****

CARTESIAN COORDINATES (ANGSTROEM)
---------------------------------
  S    -65.576700   36.322500  144.122000
  C    -66.742100   35.314200  143.477000
  C    -66.861700   35.305600  142.103000
  C    -65.985500   36.323600  141.628000
  C    -65.064800   36.816800  142.530000
  H    -65.823000   36.582200  140.619000
  C    -67.669300   34.433100  141.099000
  H    -68.430300   35.155900  140.894000
  H    -68.116000   33.562900  141.518000
  C    -66.914000   33.975200  139.881000
  H    -66.504300   34.817300  139.269000
  H    -65.882900   33.611300  140.170000
  C    -67.596300   32.858900  139.049000
  H    -67.530200   31.882800  139.573000
  H    -68.691700   32.973800  138.868000
  H    -67.079600   32.896100  138.066000
  S    -62.418500   36.457500  142.069000
  C    -61.442000   37.819800  141.629000
  C    -62.176700   38.974100  141.650000
  C    -63.556800   38.879600  142.019000
  C    -63.864400   37.511300  142.310000
  H    -61.663000   39.955200  141.428000
  C    -64.535400   40.076500  141.995000
  H    -65.541000   39.772800  142.157000
  H    -64.347900   40.565000  140.975000
  C    -64.133400   41.241900  142.984000
  H    -64.554600   42.183800  142.699000
  H    -63.073500   41.362100  142.884000
  C    -64.158600   40.902700  144.442000
  H    -65.225400   40.744200  144.751000
  H    -63.727700   41.685500  145.070000
  H    -63.615800   39.922900  144.585000
  H    -67.195700   34.681200  144.229000
  H    -60.357000   37.728100  141.555000

 Total Charge           Charge          ....    0
 Multiplicity           Mult            ....    1
 Number of Electrons    NEL             ....  134
 Basis Dimension        Dim             ....  322

ORBITAL ENERGIES
----------------

  NO   OCC          E(Eh)            E(eV)
   0   2.0000     -88.962548     -2420.7940
   1   2.0000     -88.958476     -2420.6832
   2   2.0000     -10.328221      -281.0452
   3   2.0000     -10.317670      -280.7581
   4   2.0000     -10.316576      -280.7283
   5   2.0000     -10.314225      -280.6643
   6   2.0000     -10.306603      -280.4569
   7   2.0000     -10.303089      -280.3613
   8   2.0000     -10.303013      -280.3592
   9   2.0000     -10.297340      -280.2049
  10   2.0000     -10.292949      -280.0854
  11   2.0000     -10.292443      -280.0716
  12   2.0000     -10.289115      -279.9810
  13   2.0000     -10.287526      -279.9378
  14   2.0000     -10.280521      -279.7472
  15   2.0000     -10.276673      -279.6425
  16   2.0000      -8.077080      -219.7885
  17   2.0000      -8.075502      -219.7456
  18   2.0000      -6.035554      -164.2358
  19   2.0000      -6.033656      -164.1841
  20   2.0000      -6.031582      -164.1277
  21   2.0000      -6.029660      -164.0754
  22   2.0000      -6.027912      -164.0278
  23   2.0000      -6.026529      -163.9902
  24   2.0000      -1.010369       -27.4935
  25   2.0000      -0.982802       -26.7434
  26   2.0000      -0.911752       -24.8100
  27   2.0000      -0.906519       -24.6676
  28   2.0000      -0.873788       -23.7770
  29   2.0000      -0.849929       -23.1277
  30   2.0000      -0.846667       -23.0390
  31   2.0000      -0.807872       -21.9833
  32   2.0000      -0.784693       -21.3526
  33   2.0000      -0.770485       -20.9660
  34   2.0000      -0.708446       -19.2778
  35   2.0000      -0.694558       -18.8999
  36   2.0000      -0.688578       -18.7372
  37   2.0000      -0.654613       -17.8129
  38   2.0000      -0.647773       -17.6268
  39   2.0000      -0.622213       -16.9313
  40   2.0000      -0.601380       -16.3644
  41   2.0000      -0.562684       -15.3114
  42   2.0000      -0.556103       -15.1323
  43   2.0000      -0.550691       -14.9851
  44   2.0000      -0.538834       -14.6624
  45   2.0000      -0.524924       -14.2839
  46   2.0000      -0.518409       -14.1066
  47   2.0000      -0.510962       -13.9040
  48   2.0000      -0.503030       -13.6881
  49   2.0000      -0.497415       -13.5354
  50   2.0000      -0.487026       -13.2526
  51   2.0000      -0.481938       -13.1142
  52   2.0000      -0.471527       -12.8309
  53   2.0000      -0.469387       -12.7727
  54   2.0000      -0.457033       -12.4365
  55   2.0000      -0.447777       -12.1846
  56   2.0000      -0.441683       -12.0188
  57   2.0000      -0.440764       -11.9938
  58   2.0000      -0.431449       -11.7403
  59   2.0000      -0.424942       -11.5633
  60   2.0000      -0.421698       -11.4750
  61   2.0000      -0.407185       -11.0801
  62   2.0000      -0.401475       -10.9247
  63   2.0000      -0.336182        -9.1480
  64   2.0000      -0.325680        -8.8622
  65   2.0000      -0.314133        -8.5480
  66   2.0000      -0.307450        -8.3661
  67   0.0000       0.041894         1.1400
  68   0.0000       0.054644         1.4869
  69   0.0000       0.112711         3.0670
  70   0.0000       0.122405         3.3308
  71   0.0000       0.133943         3.6448

MULLIKEN ATOMIC CHARGES
-----------------------
   0 S :    0.121424
   1 C :   -0.146700
   2 C :   -0.083046
   3 C :    0.059063
   4 C :   -0.209588
   5 H :   -0.008917
   6 C :    0.152445
   7 H :    0.038400
   8 H :    0.012533
   9 C :   -0.139617
  10 H :    0.031191
  11 H :    0.036333
  12 C :   -0.063800
  13 H :    0.047461
  14 H :    0.037189
  15 H :    0.048124
  16 S :    0.104702
  17 C :   -0.093845
  18 C :   -0.065621
  19 C :   -0.011962
  20 C :   -0.201477
  21 H :    0.038458
  22 C :    0.085258
  23 H :    0.030670
  24 H :    0.048494
  25 C :   -0.063729
  26 H :    0.026067
  27 H :    0.008335
  28 C :   -0.073349
  29 H :    0.028836
  30 H :    0.041705
  31 H :    0.049951
  32 H :    0.046903
  33 H :    0.068108
Sum of atomic charges:    0.0000000

LOEWDIN ATOMIC CHARGES
----------------------
   0 S :    0.438685
   1 C :   -0.215844
   2 C :   -0.063640
   3 C :   -0.047096
   4 C :   -0.221259
   5 H :    0.020792
   6 C :   -0.024074
   7 H :    0.036898
   8 H :    0.026436
   9 C :   -0.058961
  10 H :    0.024919
  11 H :    0.033434
  12 C :   -0.071947
  13 H :    0.030296
  14 H :    0.027238
  15 H :    0.036251
  16 S :    0.394925
  17 C :   -0.190992
  18 C :   -0.086004
  19 C :   -0.046549
  20 C :   -0.195028
  21 H :    0.037404
  22 C :   -0.019828
  23 H :    0.024242
  24 H :    0.047534
  25 C :   -0.045857
  26 H :    0.019657
  27 H :    0.020503
  28 C :   -0.070574
  29 H :    0.022476
  30 H :    0.026569
  31 H :    0.034838
  32 H :    0.020876
  33 H :    0.033683

  Mayer bond orders larger than 0.100000
B(  0-S ,  1-C ) :   1.1878 B(  0-S ,  4-C ) :   1.1500 B(  1-C ,  2-C ) :   1.5866
B(  1-C , 32-H ) :   0.9686 B(  2-C ,  3-C ) :   1.2504 B(  2-C ,  6-C ) :   0.9929
B(  3-C ,  4-C ) :   1.5937 B(  3-C ,  5-H ) :   0.9935 B(  4-C , 20-C ) :   1.0534
B(  6-C ,  7-H ) :   0.9279 B(  6-C ,  8-H ) :   0.9496 B(  6-C ,  9-C ) :   1.0621
B(  9-C , 10-H ) :   0.9511 B(  9-C , 11-H ) :   0.9541 B(  9-C , 12-C ) :   1.0738
B( 12-C , 13-H ) :   0.9741 B( 12-C , 14-H ) :   0.9772 B( 12-C , 15-H ) :   0.9741
B( 16-S , 17-C ) :   1.1551 B( 16-S , 20-C ) :   1.1457 B( 17-C , 18-C ) :   1.6151
B( 17-C , 20-C ) :   0.1090 B( 17-C , 33-H ) :   0.9652 B( 18-C , 19-C ) :   1.2388
B( 18-C , 21-H ) :   0.9721 B( 19-C , 20-C ) :   1.5615 B( 19-C , 22-C ) :   1.0394
B( 22-C , 23-H ) :   0.9431 B( 22-C , 24-H ) :   0.9353 B( 22-C , 25-C ) :   1.0588
B( 25-C , 26-H ) :   0.9578 B( 25-C , 27-H ) :   0.9568 B( 25-C , 28-C ) :   1.0689
B( 28-C , 29-H ) :   0.9761 B( 28-C , 30-H ) :   0.9734 B( 28-C , 31-H ) :   0.9703

Dispersion correction           -0.014199785
FINAL SINGLE POINT ENERGY     -1339.859325252992

DIPOLE MOMENT
-------------
                                X             Y             Z
Electronic contribution:     10.11569      -4.12000       9.25665
Nuclear contribution   :    -10.21775       4.25383      -9.63546
                        -----------------------------------------
Total Dipole Moment    :     -0.10206       0.13383      -0.37881
                        -----------------------------------------
Magnitude (a.u.)       :      0.41452
Magnitude (Debye)      :      1.05361

Rotational constants in cm-1:     0.021213     0.007597     0.006812
Rotational constants in MHz :   635.958950   227.762315   204.221562

                             ****ORCA TERMINATED NORMALLY****
TOTAL RUN TIME: 0 days 0 hours 0 minutes 36 seconds 105 msec
