                         Program Version 4.2.1 -  RELEASE  -
|  1> ! wB97X-D3 SP def2-SVP
|  2> %pal
|  3> nprocs 16
|  4> end
|  5>
|  6> * xyz 0 1
|  7> S 	 -58.3161 	 38.0588 	 118.77
|  8> C 	 -58.868 	 38.5868 	 120.273
|  9> C 	 -59.9925 	 39.3695 	 120.176
| 10> C 	 -60.5308 	 39.4143 	 118.918
| 11> C 	 -59.8349 	 38.5808 	 118.063
| 12> H 	 -61.3816 	 40.0262 	 118.611
| 13> C 	 -60.6037 	 40.2332 	 121.356
| 14> H 	 -60.2182 	 41.2132 	 121.053
| 15> H 	 -60.1205 	 40.0005 	 122.29
| 16> C 	 -62.1689 	 40.2908 	 121.433
| 17> H 	 -62.4791 	 41.1134 	 122.088
| 18> H 	 -62.7335 	 40.453 	 120.499
| 19> C 	 -62.693 	 38.9533 	 122.003
| 20> H 	 -62.4027 	 38.9153 	 122.968
| 21> H 	 -63.7401 	 38.947 	 122.059
| 22> H 	 -62.3974 	 38.0745 	 121.334
| 23> S 	 -59.4488 	 36.9118 	 115.876
| 24> C 	 -60.7267 	 36.6232 	 114.771
| 25> C 	 -61.7117 	 37.5816 	 114.941
| 26> C 	 -61.437 	 38.5552 	 115.993
| 27> C 	 -60.2893 	 38.1915 	 116.728
| 28> H 	 -62.5015 	 37.5938 	 114.254
| 29> C 	 -62.5538 	 39.4929 	 116.355
| 30> H 	 -62.8548 	 39.4064 	 117.426
| 31> H 	 -63.4405 	 38.954 	 115.984
| 32> C 	 -62.5844 	 40.8569 	 115.737
| 33> H 	 -63.5512 	 41.2956 	 116.001
| 34> H 	 -62.6102 	 40.8785 	 114.613
| 35> C 	 -61.5056 	 41.8109 	 116.29
| 36> H 	 -61.5153 	 42.0836 	 117.375
| 37> H 	 -61.5504 	 42.7671 	 115.689
| 38> H 	 -60.4455 	 41.5027 	 116.108
| 39> H 	 -58.2722 	 38.4733 	 121.179
| 40> H 	 -60.7788 	 35.8279 	 114.003
| 41> *
| 42>
| 43>                          ****END OF INPUT****

CARTESIAN COORDINATES (ANGSTROEM)
---------------------------------
  S    -58.316100   38.058800  118.770000
  C    -58.868000   38.586800  120.273000
  C    -59.992500   39.369500  120.176000
  C    -60.530800   39.414300  118.918000
  C    -59.834900   38.580800  118.063000
  H    -61.381600   40.026200  118.611000
  C    -60.603700   40.233200  121.356000
  H    -60.218200   41.213200  121.053000
  H    -60.120500   40.000500  122.290000
  C    -62.168900   40.290800  121.433000
  H    -62.479100   41.113400  122.088000
  H    -62.733500   40.453000  120.499000
  C    -62.693000   38.953300  122.003000
  H    -62.402700   38.915300  122.968000
  H    -63.740100   38.947000  122.059000
  H    -62.397400   38.074500  121.334000
  S    -59.448800   36.911800  115.876000
  C    -60.726700   36.623200  114.771000
  C    -61.711700   37.581600  114.941000
  C    -61.437000   38.555200  115.993000
  C    -60.289300   38.191500  116.728000
  H    -62.501500   37.593800  114.254000
  C    -62.553800   39.492900  116.355000
  H    -62.854800   39.406400  117.426000
  H    -63.440500   38.954000  115.984000
  C    -62.584400   40.856900  115.737000
  H    -63.551200   41.295600  116.001000
  H    -62.610200   40.878500  114.613000
  C    -61.505600   41.810900  116.290000
  H    -61.515300   42.083600  117.375000
  H    -61.550400   42.767100  115.689000
  H    -60.445500   41.502700  116.108000
  H    -58.272200   38.473300  121.179000
  H    -60.778800   35.827900  114.003000

 Total Charge           Charge          ....    0
 Multiplicity           Mult            ....    1
 Number of Electrons    NEL             ....  134
 Basis Dimension        Dim             ....  322

ORBITAL ENERGIES
----------------

  NO   OCC          E(Eh)            E(eV)
   0   2.0000     -88.967906     -2420.9398
   1   2.0000     -88.962260     -2420.7862
   2   2.0000     -10.330756      -281.1142
   3   2.0000     -10.330144      -281.0975
   4   2.0000     -10.316127      -280.7161
   5   2.0000     -10.305422      -280.4248
   6   2.0000     -10.304813      -280.4082
   7   2.0000     -10.298399      -280.2337
   8   2.0000     -10.295580      -280.1570
   9   2.0000     -10.294441      -280.1260
  10   2.0000     -10.292946      -280.0853
  11   2.0000     -10.292560      -280.0748
  12   2.0000     -10.289777      -279.9991
  13   2.0000     -10.286449      -279.9085
  14   2.0000     -10.284381      -279.8522
  15   2.0000     -10.266840      -279.3749
  16   2.0000      -8.083706      -219.9688
  17   2.0000      -8.077723      -219.8060
  18   2.0000      -6.042089      -164.4136
  19   2.0000      -6.038282      -164.3100
  20   2.0000      -6.036287      -164.2557
  21   2.0000      -6.034348      -164.2029
  22   2.0000      -6.032043      -164.1402
  23   2.0000      -6.028483      -164.0434
  24   2.0000      -1.014066       -27.5941
  25   2.0000      -0.988987       -26.9117
  26   2.0000      -0.912560       -24.8320
  27   2.0000      -0.904160       -24.6034
  28   2.0000      -0.869216       -23.6526
  29   2.0000      -0.856669       -23.3112
  30   2.0000      -0.844523       -22.9806
  31   2.0000      -0.812325       -22.1045
  32   2.0000      -0.782427       -21.2909
  33   2.0000      -0.772435       -21.0190
  34   2.0000      -0.711314       -19.3558
  35   2.0000      -0.696743       -18.9593
  36   2.0000      -0.689747       -18.7690
  37   2.0000      -0.661693       -18.0056
  38   2.0000      -0.636212       -17.3122
  39   2.0000      -0.627547       -17.0764
  40   2.0000      -0.595407       -16.2019
  41   2.0000      -0.565401       -15.3853
  42   2.0000      -0.552390       -15.0313
  43   2.0000      -0.549774       -14.9601
  44   2.0000      -0.541118       -14.7246
  45   2.0000      -0.535466       -14.5708
  46   2.0000      -0.518417       -14.1068
  47   2.0000      -0.513732       -13.9794
  48   2.0000      -0.502977       -13.6867
  49   2.0000      -0.499752       -13.5989
  50   2.0000      -0.489631       -13.3235
  51   2.0000      -0.477251       -12.9867
  52   2.0000      -0.470863       -12.8128
  53   2.0000      -0.465587       -12.6693
  54   2.0000      -0.459513       -12.5040
  55   2.0000      -0.453851       -12.3499
  56   2.0000      -0.440560       -11.9882
  57   2.0000      -0.436248       -11.8709
  58   2.0000      -0.432868       -11.7789
  59   2.0000      -0.427731       -11.6391
  60   2.0000      -0.415628       -11.3098
  61   2.0000      -0.409559       -11.1447
  62   2.0000      -0.406707       -11.0670
  63   2.0000      -0.362569        -9.8660
  64   2.0000      -0.335984        -9.1426
  65   2.0000      -0.324682        -8.8351
  66   2.0000      -0.274940        -7.4815
  67   0.0000       0.016245         0.4421
  68   0.0000       0.091585         2.4922
  69   0.0000       0.099658         2.7118
  70   0.0000       0.119087         3.2405
  71   0.0000       0.133104         3.6219

MULLIKEN ATOMIC CHARGES
-----------------------
   0 S :    0.128181
   1 C :   -0.133989
   2 C :   -0.071960
   3 C :   -0.033772
   4 C :   -0.097779
   5 H :   -0.002948
   6 C :    0.086127
   7 H :    0.039413
   8 H :    0.016328
   9 C :   -0.099693
  10 H :    0.030796
  11 H :    0.032765
  12 C :   -0.013492
  13 H :    0.002965
  14 H :    0.011980
  15 H :    0.057496
  16 S :    0.094930
  17 C :   -0.092693
  18 C :   -0.031593
  19 C :   -0.037925
  20 C :   -0.114797
  21 H :    0.000616
  22 C :   -0.004534
  23 H :    0.040841
  24 H :    0.012711
  25 C :   -0.016924
  26 H :    0.024929
  27 H :    0.039028
  28 C :   -0.110357
  29 H :    0.047396
  30 H :    0.035548
  31 H :    0.046170
  32 H :    0.045224
  33 H :    0.069012
Sum of atomic charges:    0.0000000

LOEWDIN ATOMIC CHARGES
----------------------
   0 S :    0.428713
   1 C :   -0.223218
   2 C :   -0.065015
   3 C :   -0.067295
   4 C :   -0.179599
   5 H :    0.031251
   6 C :   -0.021871
   7 H :    0.034858
   8 H :    0.025661
   9 C :   -0.042639
  10 H :    0.025767
  11 H :    0.023088
  12 C :   -0.057566
  13 H :    0.008013
  14 H :    0.016771
  15 H :    0.040074
  16 S :    0.409506
  17 C :   -0.202436
  18 C :   -0.067146
  19 C :   -0.062096
  20 C :   -0.188932
  21 H :    0.019974
  22 C :   -0.051286
  23 H :    0.037364
  24 H :    0.036662
  25 C :   -0.041862
  26 H :    0.027682
  27 H :    0.034412
  28 C :   -0.085393
  29 H :    0.027006
  30 H :    0.031446
  31 H :    0.030499
  32 H :    0.027901
  33 H :    0.039706

  Mayer bond orders larger than 0.100000
B(  0-S ,  1-C ) :   1.1473 B(  0-S ,  4-C ) :   1.1645 B(  1-C ,  2-C ) :   1.5854
B(  1-C , 32-H ) :   0.9663 B(  2-C ,  3-C ) :   1.2899 B(  2-C ,  6-C ) :   0.9946
B(  3-C ,  4-C ) :   1.5178 B(  3-C ,  5-H ) :   0.9881 B(  4-C , 20-C ) :   1.1087
B(  6-C ,  7-H ) :   0.9403 B(  6-C ,  8-H ) :   0.9491 B(  6-C ,  9-C ) :   1.0619
B(  9-C , 10-H ) :   0.9549 B(  9-C , 11-H ) :   0.9590 B(  9-C , 12-C ) :   1.0768
B( 12-C , 13-H ) :   0.9751 B( 12-C , 14-H ) :   0.9716 B( 12-C , 15-H ) :   0.9750
B( 16-S , 17-C ) :   1.1517 B( 16-S , 20-C ) :   1.1405 B( 17-C , 18-C ) :   1.6107
B( 17-C , 33-H ) :   0.9645 B( 18-C , 19-C ) :   1.2541 B( 18-C , 21-H ) :   0.9932
B( 19-C , 20-C ) :   1.5435 B( 19-C , 22-C ) :   1.0286 B( 22-C , 23-H ) :   0.9303
B( 22-C , 24-H ) :   0.9279 B( 22-C , 25-C ) :   1.0852 B( 25-C , 26-H ) :   0.9461
B( 25-C , 27-H ) :   0.9526 B( 25-C , 28-C ) :   1.0747 B( 28-C , 29-H ) :   0.9687
B( 28-C , 30-H ) :   0.9723 B( 28-C , 31-H ) :   0.9754

Dispersion correction           -0.015166088
FINAL SINGLE POINT ENERGY     -1339.857165393601

DIPOLE MOMENT
-------------
                                X             Y             Z
Electronic contribution:     20.45491     -17.69560     -10.25710
Nuclear contribution   :    -21.08730      18.07815      10.41816
                        -----------------------------------------
Total Dipole Moment    :     -0.63239       0.38255       0.16106
                        -----------------------------------------
Magnitude (a.u.)       :      0.75644
Magnitude (Debye)      :      1.92273

Rotational constants in cm-1:     0.017588     0.010139     0.007666
Rotational constants in MHz :   527.262155   303.972677   229.807932

                             ****ORCA TERMINATED NORMALLY****
TOTAL RUN TIME: 0 days 0 hours 0 minutes 30 seconds 504 msec
