                         Program Version 4.2.1 -  RELEASE  -
|  1> ! wB97X-D3 SP def2-SVP
|  2> %pal
|  3> nprocs 16
|  4> end
|  5>
|  6> * xyz 0 1
|  7> S 	 0.924517 	 -20.5575 	 85.0478
|  8> C 	 1.03749 	 -22.246 	 85.4825
|  9> C 	 2.31247 	 -22.5457 	 85.8367
| 10> C 	 3.23108 	 -21.4325 	 85.7334
| 11> C 	 2.62604 	 -20.2408 	 85.4503
| 12> H 	 4.27719 	 -21.4231 	 85.9995
| 13> C 	 2.80606 	 -23.9968 	 86.0533
| 14> H 	 3.60337 	 -24.1373 	 85.2892
| 15> H 	 2.05005 	 -24.7187 	 85.765
| 16> C 	 3.40081 	 -24.3601 	 87.3886
| 17> H 	 3.70793 	 -25.4163 	 87.4385
| 18> H 	 4.36829 	 -23.8486 	 87.4543
| 19> C 	 2.63564 	 -24.1525 	 88.7101
| 20> H 	 3.30363 	 -24.1566 	 89.6268
| 21> H 	 2.01089 	 -23.2254 	 88.7177
| 22> H 	 1.89218 	 -24.9149 	 88.8377
| 23> S 	 2.60466 	 -17.9504 	 84.0412
| 24> C 	 3.97514 	 -16.8366 	 84.1939
| 25> C 	 4.70291 	 -17.079 	 85.3173
| 26> C 	 4.30945 	 -18.2964 	 85.9251
| 27> C 	 3.25208 	 -18.9114 	 85.3051
| 28> H 	 5.44479 	 -16.3868 	 85.6642
| 29> C 	 4.88699 	 -18.7875 	 87.2305
| 30> H 	 5.62901 	 -18.1195 	 87.5849
| 31> H 	 5.39563 	 -19.7483 	 87.0013
| 32> C 	 3.95833 	 -18.8445 	 88.4136
| 33> H 	 3.13503 	 -19.5246 	 88.1469
| 34> H 	 3.50178 	 -17.8703 	 88.6525
| 35> C 	 4.68474 	 -19.4598 	 89.675
| 36> H 	 3.96419 	 -19.7576 	 90.442
| 37> H 	 5.38802 	 -18.6793 	 90.0754
| 38> H 	 5.0802 	 -20.4684 	 89.533
| 39> H 	 0.223965 	 -22.9391 	 85.3788
| 40> H 	 4.15064 	 -16.0666 	 83.4005
| 41> *
| 42>
| 43>                          ****END OF INPUT****

CARTESIAN COORDINATES (ANGSTROEM)
---------------------------------
  S      0.924517  -20.557500   85.047800
  C      1.037490  -22.246000   85.482500
  C      2.312470  -22.545700   85.836700
  C      3.231080  -21.432500   85.733400
  C      2.626040  -20.240800   85.450300
  H      4.277190  -21.423100   85.999500
  C      2.806060  -23.996800   86.053300
  H      3.603370  -24.137300   85.289200
  H      2.050050  -24.718700   85.765000
  C      3.400810  -24.360100   87.388600
  H      3.707930  -25.416300   87.438500
  H      4.368290  -23.848600   87.454300
  C      2.635640  -24.152500   88.710100
  H      3.303630  -24.156600   89.626800
  H      2.010890  -23.225400   88.717700
  H      1.892180  -24.914900   88.837700
  S      2.604660  -17.950400   84.041200
  C      3.975140  -16.836600   84.193900
  C      4.702910  -17.079000   85.317300
  C      4.309450  -18.296400   85.925100
  C      3.252080  -18.911400   85.305100
  H      5.444790  -16.386800   85.664200
  C      4.886990  -18.787500   87.230500
  H      5.629010  -18.119500   87.584900
  H      5.395630  -19.748300   87.001300
  C      3.958330  -18.844500   88.413600
  H      3.135030  -19.524600   88.146900
  H      3.501780  -17.870300   88.652500
  C      4.684740  -19.459800   89.675000
  H      3.964190  -19.757600   90.442000
  H      5.388020  -18.679300   90.075400
  H      5.080200  -20.468400   89.533000
  H      0.223965  -22.939100   85.378800
  H      4.150640  -16.066600   83.400500

 Total Charge           Charge          ....    0
 Multiplicity           Mult            ....    1
 Number of Electrons    NEL             ....  134
 Basis Dimension        Dim             ....  322

ORBITAL ENERGIES
----------------

  NO   OCC          E(Eh)            E(eV)
   0   2.0000     -88.964284     -2420.8413
   1   2.0000     -88.962603     -2420.7955
   2   2.0000     -10.334342      -281.2117
   3   2.0000     -10.324896      -280.9547
   4   2.0000     -10.322059      -280.8775
   5   2.0000     -10.313153      -280.6352
   6   2.0000     -10.303646      -280.3764
   7   2.0000     -10.300759      -280.2979
   8   2.0000     -10.295878      -280.1651
   9   2.0000     -10.294775      -280.1351
  10   2.0000     -10.293570      -280.1023
  11   2.0000     -10.286852      -279.9195
  12   2.0000     -10.286637      -279.9136
  13   2.0000     -10.285811      -279.8911
  14   2.0000     -10.283181      -279.8196
  15   2.0000     -10.281156      -279.7645
  16   2.0000      -8.079897      -219.8652
  17   2.0000      -8.077345      -219.7957
  18   2.0000      -6.038306      -164.3107
  19   2.0000      -6.036049      -164.2492
  20   2.0000      -6.034395      -164.2042
  21   2.0000      -6.031914      -164.1367
  22   2.0000      -6.030589      -164.1007
  23   2.0000      -6.027836      -164.0258
  24   2.0000      -1.012589       -27.5539
  25   2.0000      -0.988311       -26.8933
  26   2.0000      -0.910211       -24.7681
  27   2.0000      -0.907825       -24.7032
  28   2.0000      -0.873947       -23.7813
  29   2.0000      -0.849694       -23.1213
  30   2.0000      -0.840305       -22.8659
  31   2.0000      -0.819998       -22.3133
  32   2.0000      -0.782696       -21.2982
  33   2.0000      -0.773373       -21.0445
  34   2.0000      -0.707889       -19.2626
  35   2.0000      -0.695439       -18.9239
  36   2.0000      -0.688463       -18.7340
  37   2.0000      -0.669003       -18.2045
  38   2.0000      -0.642188       -17.4748
  39   2.0000      -0.620697       -16.8900
  40   2.0000      -0.597782       -16.2665
  41   2.0000      -0.571611       -15.5543
  42   2.0000      -0.562797       -15.3145
  43   2.0000      -0.546847       -14.8805
  44   2.0000      -0.542387       -14.7591
  45   2.0000      -0.523714       -14.2510
  46   2.0000      -0.519206       -14.1283
  47   2.0000      -0.511083       -13.9073
  48   2.0000      -0.506095       -13.7716
  49   2.0000      -0.500310       -13.6141
  50   2.0000      -0.490874       -13.3574
  51   2.0000      -0.484900       -13.1948
  52   2.0000      -0.476270       -12.9600
  53   2.0000      -0.465450       -12.6655
  54   2.0000      -0.454609       -12.3705
  55   2.0000      -0.449166       -12.2224
  56   2.0000      -0.444329       -12.0908
  57   2.0000      -0.437026       -11.8921
  58   2.0000      -0.431791       -11.7496
  59   2.0000      -0.419879       -11.4255
  60   2.0000      -0.413060       -11.2399
  61   2.0000      -0.411402       -11.1948
  62   2.0000      -0.405989       -11.0475
  63   2.0000      -0.360587        -9.8121
  64   2.0000      -0.336274        -9.1505
  65   2.0000      -0.326071        -8.8728
  66   2.0000      -0.289486        -7.8773
  67   0.0000       0.025265         0.6875
  68   0.0000       0.075125         2.0443
  69   0.0000       0.101539         2.7630
  70   0.0000       0.119365         3.2481
  71   0.0000       0.124335         3.3833

MULLIKEN ATOMIC CHARGES
-----------------------
   0 S :    0.080866
   1 C :   -0.118577
   2 C :   -0.066426
   3 C :    0.016677
   4 C :   -0.112113
   5 H :    0.005357
   6 C :    0.062827
   7 H :    0.040890
   8 H :    0.015551
   9 C :   -0.079872
  10 H :    0.029490
  11 H :    0.019332
  12 C :   -0.069968
  13 H :    0.045612
  14 H :    0.038951
  15 H :    0.021697
  16 S :    0.096743
  17 C :   -0.118836
  18 C :   -0.004586
  19 C :   -0.055647
  20 C :   -0.129121
  21 H :    0.017530
  22 C :    0.075733
  23 H :   -0.005941
  24 H :    0.033763
  25 C :   -0.079599
  26 H :    0.038473
  27 H :    0.037442
  28 C :   -0.066782
  29 H :    0.028629
  30 H :    0.049068
  31 H :    0.028740
  32 H :    0.048358
  33 H :    0.075738
Sum of atomic charges:    0.0000000

LOEWDIN ATOMIC CHARGES
----------------------
   0 S :    0.377615
   1 C :   -0.189600
   2 C :   -0.063813
   3 C :   -0.069153
   4 C :   -0.173483
   5 H :    0.028689
   6 C :   -0.031303
   7 H :    0.042086
   8 H :    0.025168
   9 C :   -0.054246
  10 H :    0.029415
  11 H :    0.021329
  12 C :   -0.074993
  13 H :    0.035048
  14 H :    0.028209
  15 H :    0.018523
  16 S :    0.408464
  17 C :   -0.174597
  18 C :   -0.066950
  19 C :   -0.060411
  20 C :   -0.201602
  21 H :    0.034711
  22 C :   -0.035886
  23 H :    0.022061
  24 H :    0.033228
  25 C :   -0.038930
  26 H :    0.024355
  27 H :    0.028396
  28 C :   -0.074588
  29 H :    0.028444
  30 H :    0.030744
  31 H :    0.026769
  32 H :    0.029306
  33 H :    0.036995

  Mayer bond orders larger than 0.100000
B(  0-S ,  1-C ) :   1.1196 B(  0-S ,  4-C ) :   1.1317 B(  1-C ,  2-C ) :   1.6364
B(  1-C , 32-H ) :   0.9732 B(  2-C ,  3-C ) :   1.2055 B(  2-C ,  6-C ) :   1.0153
B(  3-C ,  4-C ) :   1.6103 B(  3-C ,  5-H ) :   0.9929 B(  4-C , 20-C ) :   1.0369
B(  6-C ,  7-H ) :   0.9404 B(  6-C ,  8-H ) :   0.9481 B(  6-C ,  9-C ) :   1.0768
B(  9-C , 10-H ) :   0.9525 B(  9-C , 11-H ) :   0.9562 B(  9-C , 12-C ) :   1.0698
B( 12-C , 13-H ) :   0.9750 B( 12-C , 14-H ) :   0.9757 B( 12-C , 15-H ) :   0.9756
B( 16-S , 17-C ) :   1.1597 B( 16-S , 20-C ) :   1.1415 B( 17-C , 18-C ) :   1.5921
B( 17-C , 33-H ) :   0.9640 B( 18-C , 19-C ) :   1.2458 B( 18-C , 21-H ) :   0.9993
B( 19-C , 20-C ) :   1.5946 B( 19-C , 22-C ) :   1.0395 B( 22-C , 23-H ) :   0.9306
B( 22-C , 24-H ) :   0.9285 B( 22-C , 25-C ) :   1.0642 B( 25-C , 26-H ) :   0.9541
B( 25-C , 27-H ) :   0.9547 B( 25-C , 28-C ) :   1.0807 B( 28-C , 29-H ) :   0.9727
B( 28-C , 30-H ) :   0.9763 B( 28-C , 31-H ) :   0.9722

Dispersion correction           -0.014785241
FINAL SINGLE POINT ENERGY     -1339.880599293938

DIPOLE MOMENT
-------------
                                X             Y             Z
Electronic contribution:    -11.65178      15.85700     -24.15076
Nuclear contribution   :     12.12386     -16.08314      24.44448
                        -----------------------------------------
Total Dipole Moment    :      0.47208      -0.22614       0.29372
                        -----------------------------------------
Magnitude (a.u.)       :      0.60022
Magnitude (Debye)      :      1.52565

Rotational constants in cm-1:     0.018777     0.009736     0.007126
Rotational constants in MHz :   562.919411   291.881481   213.639263

                             ****ORCA TERMINATED NORMALLY****
TOTAL RUN TIME: 0 days 0 hours 0 minutes 35 seconds 622 msec
