                         Program Version 4.2.1 -  RELEASE  -
|  1> ! wB97X-D3 SP def2-SVP
|  2> %pal
|  3> nprocs 16
|  4> end
|  5>
|  6> * xyz 0 1
|  7> S 	 12.5919 	 -13.9666 	 78.4514
|  8> C 	 11.9403 	 -15.5963 	 78.5562
|  9> C 	 11.0466 	 -15.8187 	 77.5251
| 10> C 	 11.0159 	 -14.7239 	 76.6482
| 11> C 	 11.8972 	 -13.7025 	 76.89
| 12> H 	 10.3651 	 -14.6106 	 75.8031
| 13> C 	 10.3876 	 -17.1893 	 77.2293
| 14> H 	 10.7267 	 -17.8655 	 77.9534
| 15> H 	 10.8164 	 -17.5477 	 76.3063
| 16> C 	 8.82855 	 -17.2042 	 77.0052
| 17> H 	 8.24881 	 -16.9708 	 77.8601
| 18> H 	 8.653 	 -16.4744 	 76.2581
| 19> C 	 8.5447 	 -18.5665 	 76.4033
| 20> H 	 9.03411 	 -19.2402 	 77.119
| 21> H 	 7.51928 	 -18.8578 	 76.1166
| 22> H 	 9.07839 	 -18.8479 	 75.5209
| 23> S 	 11.731 	 -10.9549 	 77.0512
| 24> C 	 11.8021 	 -10.1004 	 75.503
| 25> C 	 11.976 	 -10.8993 	 74.4176
| 26> C 	 12.2415 	 -12.2543 	 74.8265
| 27> C 	 12.0846 	 -12.4619 	 76.1392
| 28> H 	 11.7937 	 -10.6037 	 73.411
| 29> C 	 12.5421 	 -13.4499 	 73.9005
| 30> H 	 12.8353 	 -14.3803 	 74.4565
| 31> H 	 13.4789 	 -13.2989 	 73.3981
| 32> C 	 11.4603 	 -13.7935 	 72.8046
| 33> H 	 11.3215 	 -12.8927 	 72.2161
| 34> H 	 10.5205 	 -13.8639 	 73.2891
| 35> C 	 11.9143 	 -14.8982 	 71.8744
| 36> H 	 11.9759 	 -15.7983 	 72.4566
| 37> H 	 12.8132 	 -14.5936 	 71.3549
| 38> H 	 11.2118 	 -15.0792 	 71.0355
| 39> H 	 12.3807 	 -16.3536 	 79.1232
| 40> H 	 11.4738 	 -9.05849 	 75.4506
| 41> *
| 42>
| 43>                          ****END OF INPUT****

CARTESIAN COORDINATES (ANGSTROEM)
---------------------------------
  S     12.591900  -13.966600   78.451400
  C     11.940300  -15.596300   78.556200
  C     11.046600  -15.818700   77.525100
  C     11.015900  -14.723900   76.648200
  C     11.897200  -13.702500   76.890000
  H     10.365100  -14.610600   75.803100
  C     10.387600  -17.189300   77.229300
  H     10.726700  -17.865500   77.953400
  H     10.816400  -17.547700   76.306300
  C      8.828550  -17.204200   77.005200
  H      8.248810  -16.970800   77.860100
  H      8.653000  -16.474400   76.258100
  C      8.544700  -18.566500   76.403300
  H      9.034110  -19.240200   77.119000
  H      7.519280  -18.857800   76.116600
  H      9.078390  -18.847900   75.520900
  S     11.731000  -10.954900   77.051200
  C     11.802100  -10.100400   75.503000
  C     11.976000  -10.899300   74.417600
  C     12.241500  -12.254300   74.826500
  C     12.084600  -12.461900   76.139200
  H     11.793700  -10.603700   73.411000
  C     12.542100  -13.449900   73.900500
  H     12.835300  -14.380300   74.456500
  H     13.478900  -13.298900   73.398100
  C     11.460300  -13.793500   72.804600
  H     11.321500  -12.892700   72.216100
  H     10.520500  -13.863900   73.289100
  C     11.914300  -14.898200   71.874400
  H     11.975900  -15.798300   72.456600
  H     12.813200  -14.593600   71.354900
  H     11.211800  -15.079200   71.035500
  H     12.380700  -16.353600   79.123200
  H     11.473800   -9.058490   75.450600

 Total Charge           Charge          ....    0
 Multiplicity           Mult            ....    1
 Number of Electrons    NEL             ....  134
 Basis Dimension        Dim             ....  322

ORBITAL ENERGIES
----------------

  NO   OCC          E(Eh)            E(eV)
   0   2.0000     -88.963643     -2420.8238
   1   2.0000     -88.961476     -2420.7648
   2   2.0000     -10.325765      -280.9784
   3   2.0000     -10.324881      -280.9543
   4   2.0000     -10.320413      -280.8327
   5   2.0000     -10.308708      -280.5142
   6   2.0000     -10.303381      -280.3692
   7   2.0000     -10.300416      -280.2886
   8   2.0000     -10.296438      -280.1803
   9   2.0000     -10.293738      -280.1068
  10   2.0000     -10.293254      -280.0937
  11   2.0000     -10.287271      -279.9309
  12   2.0000     -10.286237      -279.9027
  13   2.0000     -10.285598      -279.8854
  14   2.0000     -10.281329      -279.7692
  15   2.0000     -10.277516      -279.6654
  16   2.0000      -8.078032      -219.8144
  17   2.0000      -8.076725      -219.7789
  18   2.0000      -6.036608      -164.2644
  19   2.0000      -6.035164      -164.2252
  20   2.0000      -6.032915      -164.1640
  21   2.0000      -6.031170      -164.1165
  22   2.0000      -6.028398      -164.0411
  23   2.0000      -6.027516      -164.0171
  24   2.0000      -1.009655       -27.4741
  25   2.0000      -0.986146       -26.8344
  26   2.0000      -0.914181       -24.8761
  27   2.0000      -0.905687       -24.6450
  28   2.0000      -0.873819       -23.7778
  29   2.0000      -0.854886       -23.2626
  30   2.0000      -0.844711       -22.9858
  31   2.0000      -0.817542       -22.2465
  32   2.0000      -0.781401       -21.2630
  33   2.0000      -0.771286       -20.9878
  34   2.0000      -0.716205       -19.4889
  35   2.0000      -0.706320       -19.2200
  36   2.0000      -0.697695       -18.9852
  37   2.0000      -0.664685       -18.0870
  38   2.0000      -0.647795       -17.6274
  39   2.0000      -0.620892       -16.8953
  40   2.0000      -0.601463       -16.3666
  41   2.0000      -0.570913       -15.5353
  42   2.0000      -0.569548       -15.4982
  43   2.0000      -0.564469       -15.3600
  44   2.0000      -0.533219       -14.5096
  45   2.0000      -0.525528       -14.3004
  46   2.0000      -0.521327       -14.1860
  47   2.0000      -0.505368       -13.7518
  48   2.0000      -0.504589       -13.7306
  49   2.0000      -0.498478       -13.5643
  50   2.0000      -0.493287       -13.4230
  51   2.0000      -0.479929       -13.0595
  52   2.0000      -0.469039       -12.7632
  53   2.0000      -0.464755       -12.6466
  54   2.0000      -0.461700       -12.5635
  55   2.0000      -0.458961       -12.4890
  56   2.0000      -0.448411       -12.2019
  57   2.0000      -0.438993       -11.9456
  58   2.0000      -0.434461       -11.8223
  59   2.0000      -0.426699       -11.6111
  60   2.0000      -0.422273       -11.4906
  61   2.0000      -0.414969       -11.2919
  62   2.0000      -0.412301       -11.2193
  63   2.0000      -0.348050        -9.4709
  64   2.0000      -0.333605        -9.0779
  65   2.0000      -0.329344        -8.9619
  66   2.0000      -0.294059        -8.0018
  67   0.0000       0.033049         0.8993
  68   0.0000       0.063458         1.7268
  69   0.0000       0.102108         2.7785
  70   0.0000       0.121064         3.2943
  71   0.0000       0.130499         3.5510

MULLIKEN ATOMIC CHARGES
-----------------------
   0 S :    0.095430
   1 C :   -0.104422
   2 C :   -0.068584
   3 C :    0.036143
   4 C :   -0.165479
   5 H :   -0.003392
   6 C :    0.052180
   7 H :    0.003404
   8 H :    0.026974
   9 C :   -0.015767
  10 H :    0.038455
  11 H :    0.020282
  12 C :   -0.054523
  13 H :    0.018971
  14 H :    0.039298
  15 H :    0.014471
  16 S :    0.087268
  17 C :   -0.086928
  18 C :   -0.012869
  19 C :   -0.027097
  20 C :   -0.126563
  21 H :    0.016993
  22 C :    0.025540
  23 H :    0.037582
  24 H :    0.013610
  25 C :   -0.067318
  26 H :    0.012732
  27 H :    0.018003
  28 C :   -0.027252
  29 H :    0.035568
  30 H :    0.032999
  31 H :    0.035238
  32 H :    0.034268
  33 H :    0.064785
Sum of atomic charges:   -0.0000000

LOEWDIN ATOMIC CHARGES
----------------------
   0 S :    0.403638
   1 C :   -0.187148
   2 C :   -0.061365
   3 C :   -0.065842
   4 C :   -0.195096
   5 H :    0.024866
   6 C :   -0.016757
   7 H :    0.018489
   8 H :    0.031633
   9 C :   -0.024647
  10 H :    0.024095
  11 H :    0.018245
  12 C :   -0.073021
  13 H :    0.027670
  14 H :    0.027375
  15 H :    0.021146
  16 S :    0.365714
  17 C :   -0.166357
  18 C :   -0.063733
  19 C :   -0.054766
  20 C :   -0.175803
  21 H :    0.030556
  22 C :   -0.033936
  23 H :    0.035371
  24 H :    0.025174
  25 C :   -0.040093
  26 H :    0.019269
  27 H :    0.014773
  28 C :   -0.061012
  29 H :    0.024445
  30 H :    0.028264
  31 H :    0.031308
  32 H :    0.017310
  33 H :    0.030235

  Mayer bond orders larger than 0.100000
B(  0-S ,  1-C ) :   1.1407 B(  0-S ,  4-C ) :   1.1571 B(  1-C ,  2-C ) :   1.6017
B(  1-C ,  4-C ) :   0.1059 B(  1-C , 32-H ) :   0.9719 B(  2-C ,  3-C ) :   1.2480
B(  2-C ,  6-C ) :   1.0143 B(  3-C ,  4-C ) :   1.5719 B(  3-C ,  5-H ) :   0.9990
B(  4-C , 20-C ) :   1.0128 B(  6-C ,  7-H ) :   0.9413 B(  6-C ,  8-H ) :   0.9487
B(  6-C ,  9-C ) :   1.0458 B(  9-C , 10-H ) :   0.9597 B(  9-C , 11-H ) :   0.9577
B(  9-C , 12-C ) :   1.0735 B( 12-C , 13-H ) :   0.9715 B( 12-C , 14-H ) :   0.9727
B( 12-C , 15-H ) :   0.9730 B( 16-S , 17-C ) :   1.1344 B( 16-S , 20-C ) :   1.1064
B( 17-C , 18-C ) :   1.6600 B( 17-C , 33-H ) :   0.9617 B( 18-C , 19-C ) :   1.1822
B( 18-C , 21-H ) :   0.9962 B( 19-C , 20-C ) :   1.6968 B( 19-C , 22-C ) :   1.0322
B( 22-C , 23-H ) :   0.9413 B( 22-C , 24-H ) :   0.9315 B( 22-C , 25-C ) :   1.0451
B( 25-C , 26-H ) :   0.9512 B( 25-C , 27-H ) :   0.9587 B( 25-C , 28-C ) :   1.0838
B( 28-C , 29-H ) :   0.9773 B( 28-C , 30-H ) :   0.9710 B( 28-C , 31-H ) :   0.9721

Dispersion correction           -0.013959146
FINAL SINGLE POINT ENERGY     -1339.861709047407

DIPOLE MOMENT
-------------
                                X             Y             Z
Electronic contribution:     10.99769      23.69259      19.85851
Nuclear contribution   :    -11.31068     -24.14563     -20.62162
                        -----------------------------------------
Total Dipole Moment    :     -0.31299      -0.45304      -0.76311
                        -----------------------------------------
Magnitude (a.u.)       :      0.94104
Magnitude (Debye)      :      2.39193

Rotational constants in cm-1:     0.016338     0.009296     0.006720
Rotational constants in MHz :   489.805967   278.701378   201.456526

                             ****ORCA TERMINATED NORMALLY****
TOTAL RUN TIME: 0 days 0 hours 0 minutes 30 seconds 532 msec
