                         Program Version 4.2.1 -  RELEASE  -
|  1> ! wB97X-D3 SP def2-SVP
|  2> %pal
|  3> nprocs 16
|  4> end
|  5>
|  6> * xyz 0 1
|  7> S 	 -38.1117 	 -1.48011 	 99.3472
|  8> C 	 -36.54 	 -0.664838 	 99.2481
|  9> C 	 -36.335 	 -0.361824 	 97.8978
| 10> C 	 -37.3428 	 -0.819742 	 97.0123
| 11> C 	 -38.3374 	 -1.51964 	 97.6029
| 12> H 	 -37.349 	 -0.599012 	 95.9629
| 13> C 	 -35.3096 	 0.653001 	 97.3373
| 14> H 	 -35.385 	 1.66018 	 97.798
| 15> H 	 -35.5312 	 0.723111 	 96.2696
| 16> C 	 -33.8415 	 0.348822 	 97.4322
| 17> H 	 -33.6362 	 0.19972 	 98.5234
| 18> H 	 -33.6043 	 -0.63816 	 96.9476
| 19> C 	 -32.8798 	 1.35161 	 96.8576
| 20> H 	 -32.8333 	 2.18245 	 97.5388
| 21> H 	 -31.907 	 0.934351 	 96.8099
| 22> H 	 -33.1144 	 1.78354 	 95.8441
| 23> S 	 -40.8899 	 -1.54722 	 97.3231
| 24> C 	 -41.6847 	 -2.51634 	 96.0697
| 25> C 	 -40.7717 	 -3.24365 	 95.3303
| 26> C 	 -39.4681 	 -3.0305 	 95.8038
| 27> C 	 -39.426 	 -2.20265 	 96.8968
| 28> H 	 -41.1367 	 -3.94462 	 94.5407
| 29> C 	 -38.2758 	 -3.64643 	 95.1479
| 30> H 	 -37.411 	 -3.03695 	 95.2931
| 31> H 	 -38.3508 	 -3.64499 	 94.0844
| 32> C 	 -37.9489 	 -5.11369 	 95.561
| 33> H 	 -37.4043 	 -5.60153 	 94.7088
| 34> H 	 -38.8902 	 -5.62112 	 95.4567
| 35> C 	 -37.3257 	 -5.22838 	 96.9955
| 36> H 	 -36.9989 	 -6.25563 	 97.0882
| 37> H 	 -38.03 	 -5.11027 	 97.8607
| 38> H 	 -36.3752 	 -4.57693 	 97.0853
| 39> H 	 -35.9869 	 -0.263905 	 100.055
| 40> H 	 -42.7547 	 -2.67051 	 95.772
| 41> *
| 42>
| 43>                          ****END OF INPUT****

CARTESIAN COORDINATES (ANGSTROEM)
---------------------------------
  S    -38.111700   -1.480110   99.347200
  C    -36.540000   -0.664838   99.248100
  C    -36.335000   -0.361824   97.897800
  C    -37.342800   -0.819742   97.012300
  C    -38.337400   -1.519640   97.602900
  H    -37.349000   -0.599012   95.962900
  C    -35.309600    0.653001   97.337300
  H    -35.385000    1.660180   97.798000
  H    -35.531200    0.723111   96.269600
  C    -33.841500    0.348822   97.432200
  H    -33.636200    0.199720   98.523400
  H    -33.604300   -0.638160   96.947600
  C    -32.879800    1.351610   96.857600
  H    -32.833300    2.182450   97.538800
  H    -31.907000    0.934351   96.809900
  H    -33.114400    1.783540   95.844100
  S    -40.889900   -1.547220   97.323100
  C    -41.684700   -2.516340   96.069700
  C    -40.771700   -3.243650   95.330300
  C    -39.468100   -3.030500   95.803800
  C    -39.426000   -2.202650   96.896800
  H    -41.136700   -3.944620   94.540700
  C    -38.275800   -3.646430   95.147900
  H    -37.411000   -3.036950   95.293100
  H    -38.350800   -3.644990   94.084400
  C    -37.948900   -5.113690   95.561000
  H    -37.404300   -5.601530   94.708800
  H    -38.890200   -5.621120   95.456700
  C    -37.325700   -5.228380   96.995500
  H    -36.998900   -6.255630   97.088200
  H    -38.030000   -5.110270   97.860700
  H    -36.375200   -4.576930   97.085300
  H    -35.986900   -0.263905  100.055000
  H    -42.754700   -2.670510   95.772000

 Total Charge           Charge          ....    0
 Multiplicity           Mult            ....    1
 Number of Electrons    NEL             ....  134
 Basis Dimension        Dim             ....  322

ORBITAL ENERGIES
----------------

  NO   OCC          E(Eh)            E(eV)
   0   2.0000     -88.968911     -2420.9671
   1   2.0000     -88.967217     -2420.9211
   2   2.0000     -10.328209      -281.0449
   3   2.0000     -10.318756      -280.7876
   4   2.0000     -10.318112      -280.7701
   5   2.0000     -10.317971      -280.7663
   6   2.0000     -10.303310      -280.3673
   7   2.0000     -10.297738      -280.2157
   8   2.0000     -10.294543      -280.1288
   9   2.0000     -10.291681      -280.0509
  10   2.0000     -10.288296      -279.9588
  11   2.0000     -10.287472      -279.9363
  12   2.0000     -10.286467      -279.9090
  13   2.0000     -10.283550      -279.8296
  14   2.0000     -10.279529      -279.7202
  15   2.0000     -10.276607      -279.6407
  16   2.0000      -8.084826      -219.9993
  17   2.0000      -8.081269      -219.9025
  18   2.0000      -6.043303      -164.4466
  19   2.0000      -6.039914      -164.3544
  20   2.0000      -6.039039      -164.3306
  21   2.0000      -6.035788      -164.2421
  22   2.0000      -6.035642      -164.2382
  23   2.0000      -6.031984      -164.1386
  24   2.0000      -1.018500       -27.7148
  25   2.0000      -0.988120       -26.8881
  26   2.0000      -0.912768       -24.8377
  27   2.0000      -0.904595       -24.6153
  28   2.0000      -0.875394       -23.8207
  29   2.0000      -0.850128       -23.1332
  30   2.0000      -0.843830       -22.9618
  31   2.0000      -0.816078       -22.2066
  32   2.0000      -0.781190       -21.2573
  33   2.0000      -0.771979       -21.0066
  34   2.0000      -0.706400       -19.2221
  35   2.0000      -0.696412       -18.9503
  36   2.0000      -0.687780       -18.7154
  37   2.0000      -0.663439       -18.0531
  38   2.0000      -0.644370       -17.5342
  39   2.0000      -0.622723       -16.9452
  40   2.0000      -0.595237       -16.1972
  41   2.0000      -0.569139       -15.4871
  42   2.0000      -0.566152       -15.4058
  43   2.0000      -0.543422       -14.7873
  44   2.0000      -0.533053       -14.5051
  45   2.0000      -0.520529       -14.1643
  46   2.0000      -0.517946       -14.0940
  47   2.0000      -0.509832       -13.8732
  48   2.0000      -0.501736       -13.6529
  49   2.0000      -0.497923       -13.5492
  50   2.0000      -0.497702       -13.5432
  51   2.0000      -0.478588       -13.0231
  52   2.0000      -0.471642       -12.8340
  53   2.0000      -0.465616       -12.6701
  54   2.0000      -0.458473       -12.4757
  55   2.0000      -0.450784       -12.2665
  56   2.0000      -0.447867       -12.1871
  57   2.0000      -0.428689       -11.6652
  58   2.0000      -0.427211       -11.6250
  59   2.0000      -0.423170       -11.5150
  60   2.0000      -0.414121       -11.2688
  61   2.0000      -0.412502       -11.2247
  62   2.0000      -0.409291       -11.1374
  63   2.0000      -0.350073        -9.5260
  64   2.0000      -0.331971        -9.0334
  65   2.0000      -0.327200        -8.9036
  66   2.0000      -0.297832        -8.1044
  67   0.0000       0.033251         0.9048
  68   0.0000       0.066475         1.8089
  69   0.0000       0.105345         2.8666
  70   0.0000       0.124551         3.3892
  71   0.0000       0.132193         3.5972

MULLIKEN ATOMIC CHARGES
-----------------------
   0 S :    0.103198
   1 C :   -0.102085
   2 C :   -0.068778
   3 C :    0.034015
   4 C :   -0.145640
   5 H :    0.015508
   6 C :    0.052503
   7 H :    0.037717
   8 H :    0.012337
   9 C :   -0.116076
  10 H :    0.025995
  11 H :    0.027332
  12 C :   -0.022171
  13 H :    0.020061
  14 H :    0.029658
  15 H :    0.035628
  16 S :    0.128428
  17 C :   -0.101927
  18 C :   -0.072569
  19 C :   -0.025072
  20 C :   -0.146362
  21 H :    0.039559
  22 C :    0.088187
  23 H :   -0.000225
  24 H :    0.004735
  25 C :   -0.070059
  26 H :    0.030056
  27 H :    0.009540
  28 C :   -0.064947
  29 H :    0.027002
  30 H :    0.056514
  31 H :    0.053009
  32 H :    0.043176
  33 H :    0.061754
Sum of atomic charges:    0.0000000

LOEWDIN ATOMIC CHARGES
----------------------
   0 S :    0.395364
   1 C :   -0.185793
   2 C :   -0.059500
   3 C :   -0.066586
   4 C :   -0.195065
   5 H :    0.031190
   6 C :   -0.034992
   7 H :    0.034284
   8 H :    0.025721
   9 C :   -0.052632
  10 H :    0.024489
  11 H :    0.023813
  12 C :   -0.064916
  13 H :    0.021416
  14 H :    0.025210
  15 H :    0.030637
  16 S :    0.451561
  17 C :   -0.197463
  18 C :   -0.071741
  19 C :   -0.061505
  20 C :   -0.222369
  21 H :    0.043025
  22 C :   -0.033886
  23 H :    0.021501
  24 H :    0.026134
  25 C :   -0.041755
  26 H :    0.028926
  27 H :    0.018090
  28 C :   -0.075494
  29 H :    0.023441
  30 H :    0.035828
  31 H :    0.038104
  32 H :    0.024299
  33 H :    0.040667

  Mayer bond orders larger than 0.100000
B(  0-S ,  1-C ) :   1.1303 B(  0-S ,  4-C ) :   1.1518 B(  1-C ,  2-C ) :   1.5855
B(  1-C ,  4-C ) :   0.1046 B(  1-C , 32-H ) :   0.9793 B(  2-C ,  3-C ) :   1.2639
B(  2-C ,  6-C ) :   1.0111 B(  3-C ,  4-C ) :   1.5755 B(  3-C ,  5-H ) :   0.9941
B(  4-C , 20-C ) :   0.9801 B(  6-C ,  7-H ) :   0.9430 B(  6-C ,  8-H ) :   0.9434
B(  6-C ,  9-C ) :   1.0660 B(  9-C , 10-H ) :   0.9536 B(  9-C , 11-H ) :   0.9559
B(  9-C , 12-C ) :   1.0872 B( 12-C , 13-H ) :   0.9705 B( 12-C , 14-H ) :   0.9722
B( 12-C , 15-H ) :   0.9731 B( 16-S , 17-C ) :   1.1516 B( 16-S , 20-C ) :   1.1768
B( 17-C , 18-C ) :   1.6247 B( 17-C , 33-H ) :   0.9588 B( 18-C , 19-C ) :   1.2488
B( 18-C , 21-H ) :   0.9818 B( 19-C , 20-C ) :   1.5944 B( 19-C , 22-C ) :   1.0538
B( 22-C , 23-H ) :   0.9306 B( 22-C , 24-H ) :   0.9262 B( 22-C , 25-C ) :   1.0766
B( 25-C , 26-H ) :   0.9572 B( 25-C , 27-H ) :   0.9526 B( 25-C , 28-C ) :   1.0628
B( 28-C , 29-H ) :   0.9732 B( 28-C , 30-H ) :   0.9735 B( 28-C , 31-H ) :   0.9757

Dispersion correction           -0.014539157
FINAL SINGLE POINT ENERGY     -1339.865490373775

DIPOLE MOMENT
-------------
                                X             Y             Z
Electronic contribution:    -24.73839       2.44185      10.33500
Nuclear contribution   :     25.06046      -2.42007     -10.84258
                        -----------------------------------------
Total Dipole Moment    :      0.32207       0.02178      -0.50758
                        -----------------------------------------
Magnitude (a.u.)       :      0.60153
Magnitude (Debye)      :      1.52896

Rotational constants in cm-1:     0.020597     0.007959     0.007002
Rotational constants in MHz :   617.476999   238.604294   209.916994

                             ****ORCA TERMINATED NORMALLY****
TOTAL RUN TIME: 0 days 0 hours 0 minutes 30 seconds 201 msec
