                         Program Version 4.2.1 -  RELEASE  -
|  1> ! wB97X-D3 SP def2-SVP
|  2> %pal
|  3> nprocs 16
|  4> end
|  5>
|  6> * xyz 0 1
|  7> S 	 44.9079 	 8.19146 	 88.7384
|  8> C 	 44.4838 	 6.92092 	 89.8708
|  9> C 	 44.2939 	 7.3254 	 91.1735
| 10> C 	 44.6193 	 8.72481 	 91.3189
| 11> C 	 44.8334 	 9.35475 	 90.0951
| 12> H 	 44.7327 	 9.37558 	 92.223
| 13> C 	 44.0416 	 6.34403 	 92.3611
| 14> H 	 43.6946 	 5.43889 	 91.9443
| 15> H 	 43.2218 	 6.81629 	 92.8979
| 16> C 	 45.0995 	 6.0362 	 93.5146
| 17> H 	 44.6188 	 5.42762 	 94.2226
| 18> H 	 45.9341 	 5.47689 	 93.1478
| 19> C 	 45.7362 	 7.29576 	 94.3152
| 20> H 	 46.693 	 6.94629 	 94.7851
| 21> H 	 45.9651 	 7.98694 	 93.5984
| 22> H 	 45.0371 	 7.79673 	 94.9825
| 23> S 	 46.8618 	 10.8885 	 89.4508
| 24> C 	 46.753 	 12.6644 	 89.592
| 25> C 	 45.5101 	 13.0312 	 89.9902
| 26> C 	 44.6089 	 11.8867 	 90.2031
| 27> C 	 45.2197 	 10.7298 	 89.8885
| 28> H 	 45.3221 	 14.1098 	 90.1432
| 29> C 	 43.2866 	 12.1025 	 90.815
| 30> H 	 43.5144 	 12.6973 	 91.7245
| 31> H 	 42.8653 	 11.1843 	 91.0589
| 32> C 	 42.2854 	 12.7429 	 89.8755
| 33> H 	 41.9889 	 11.9476 	 89.2086
| 34> H 	 42.639 	 13.5524 	 89.3146
| 35> C 	 41.0346 	 13.3562 	 90.4603
| 36> H 	 40.404 	 13.8908 	 89.7102
| 37> H 	 41.2529 	 13.8976 	 91.3538
| 38> H 	 40.3606 	 12.6278 	 90.9268
| 39> H 	 44.5142 	 5.87667 	 89.547
| 40> H 	 47.5183 	 13.3042 	 89.3018
| 41> *
| 42>
| 43>                          ****END OF INPUT****

CARTESIAN COORDINATES (ANGSTROEM)
---------------------------------
  S     44.907900    8.191460   88.738400
  C     44.483800    6.920920   89.870800
  C     44.293900    7.325400   91.173500
  C     44.619300    8.724810   91.318900
  C     44.833400    9.354750   90.095100
  H     44.732700    9.375580   92.223000
  C     44.041600    6.344030   92.361100
  H     43.694600    5.438890   91.944300
  H     43.221800    6.816290   92.897900
  C     45.099500    6.036200   93.514600
  H     44.618800    5.427620   94.222600
  H     45.934100    5.476890   93.147800
  C     45.736200    7.295760   94.315200
  H     46.693000    6.946290   94.785100
  H     45.965100    7.986940   93.598400
  H     45.037100    7.796730   94.982500
  S     46.861800   10.888500   89.450800
  C     46.753000   12.664400   89.592000
  C     45.510100   13.031200   89.990200
  C     44.608900   11.886700   90.203100
  C     45.219700   10.729800   89.888500
  H     45.322100   14.109800   90.143200
  C     43.286600   12.102500   90.815000
  H     43.514400   12.697300   91.724500
  H     42.865300   11.184300   91.058900
  C     42.285400   12.742900   89.875500
  H     41.988900   11.947600   89.208600
  H     42.639000   13.552400   89.314600
  C     41.034600   13.356200   90.460300
  H     40.404000   13.890800   89.710200
  H     41.252900   13.897600   91.353800
  H     40.360600   12.627800   90.926800
  H     44.514200    5.876670   89.547000
  H     47.518300   13.304200   89.301800

 Total Charge           Charge          ....    0
 Multiplicity           Mult            ....    1
 Number of Electrons    NEL             ....  134
 Basis Dimension        Dim             ....  322

ORBITAL ENERGIES
----------------

  NO   OCC          E(Eh)            E(eV)
   0   2.0000     -88.966887     -2420.9121
   1   2.0000     -88.957760     -2420.6637
   2   2.0000     -10.328854      -281.0624
   3   2.0000     -10.315922      -280.7105
   4   2.0000     -10.315643      -280.7029
   5   2.0000     -10.312030      -280.6046
   6   2.0000     -10.308126      -280.4984
   7   2.0000     -10.302877      -280.3555
   8   2.0000     -10.299440      -280.2620
   9   2.0000     -10.297179      -280.2005
  10   2.0000     -10.296095      -280.1710
  11   2.0000     -10.290806      -280.0271
  12   2.0000     -10.284510      -279.8557
  13   2.0000     -10.278978      -279.7052
  14   2.0000     -10.274946      -279.5955
  15   2.0000     -10.274070      -279.5717
  16   2.0000      -8.081167      -219.8997
  17   2.0000      -8.073468      -219.6902
  18   2.0000      -6.039632      -164.3468
  19   2.0000      -6.035888      -164.2449
  20   2.0000      -6.032101      -164.1418
  21   2.0000      -6.031848      -164.1349
  22   2.0000      -6.027959      -164.0291
  23   2.0000      -6.023889      -163.9183
  24   2.0000      -1.009735       -27.4763
  25   2.0000      -0.980415       -26.6785
  26   2.0000      -0.917496       -24.9663
  27   2.0000      -0.897468       -24.4214
  28   2.0000      -0.871008       -23.7013
  29   2.0000      -0.853444       -23.2234
  30   2.0000      -0.842483       -22.9251
  31   2.0000      -0.817188       -22.2368
  32   2.0000      -0.784852       -21.3569
  33   2.0000      -0.774322       -21.0704
  34   2.0000      -0.709501       -19.3065
  35   2.0000      -0.702470       -19.1152
  36   2.0000      -0.696659       -18.9570
  37   2.0000      -0.666299       -18.1309
  38   2.0000      -0.642856       -17.4930
  39   2.0000      -0.612822       -16.6757
  40   2.0000      -0.600271       -16.3342
  41   2.0000      -0.568542       -15.4708
  42   2.0000      -0.564851       -15.3704
  43   2.0000      -0.542221       -14.7546
  44   2.0000      -0.535681       -14.5766
  45   2.0000      -0.533335       -14.5128
  46   2.0000      -0.519315       -14.1313
  47   2.0000      -0.513534       -13.9740
  48   2.0000      -0.508240       -13.8299
  49   2.0000      -0.497728       -13.5439
  50   2.0000      -0.489309       -13.3148
  51   2.0000      -0.480403       -13.0724
  52   2.0000      -0.469610       -12.7787
  53   2.0000      -0.462758       -12.5923
  54   2.0000      -0.456313       -12.4169
  55   2.0000      -0.450420       -12.2565
  56   2.0000      -0.443827       -12.0772
  57   2.0000      -0.436411       -11.8753
  58   2.0000      -0.433254       -11.7894
  59   2.0000      -0.426671       -11.6103
  60   2.0000      -0.420697       -11.4477
  61   2.0000      -0.419370       -11.4116
  62   2.0000      -0.413261       -11.2454
  63   2.0000      -0.344487        -9.3740
  64   2.0000      -0.330768        -9.0007
  65   2.0000      -0.322049        -8.7634
  66   2.0000      -0.302669        -8.2360
  67   0.0000       0.038371         1.0441
  68   0.0000       0.069576         1.8933
  69   0.0000       0.110592         3.0094
  70   0.0000       0.118533         3.2255
  71   0.0000       0.126134         3.4323

MULLIKEN ATOMIC CHARGES
-----------------------
   0 S :    0.107645
   1 C :   -0.126991
   2 C :   -0.078574
   3 C :    0.024788
   4 C :   -0.200084
   5 H :    0.042791
   6 C :    0.082770
   7 H :    0.012599
   8 H :    0.027634
   9 C :   -0.054306
  10 H :    0.025380
  11 H :    0.027855
  12 C :   -0.063810
  13 H :    0.048385
  14 H :    0.015858
  15 H :    0.036442
  16 S :    0.093635
  17 C :   -0.071072
  18 C :   -0.040013
  19 C :   -0.051882
  20 C :   -0.151672
  21 H :    0.032678
  22 C :    0.126138
  23 H :    0.033429
  24 H :   -0.001119
  25 C :   -0.063834
  26 H :    0.029337
  27 H :    0.017337
  28 C :   -0.039711
  29 H :    0.048032
  30 H :    0.012779
  31 H :    0.009310
  32 H :    0.054602
  33 H :    0.033646
Sum of atomic charges:    0.0000000

LOEWDIN ATOMIC CHARGES
----------------------
   0 S :    0.384949
   1 C :   -0.191335
   2 C :   -0.065725
   3 C :   -0.063299
   4 C :   -0.187817
   5 H :    0.042773
   6 C :   -0.025531
   7 H :    0.023994
   8 H :    0.032430
   9 C :   -0.024865
  10 H :    0.017971
  11 H :    0.019482
  12 C :   -0.062361
  13 H :    0.037140
  14 H :    0.009368
  15 H :    0.024380
  16 S :    0.397782
  17 C :   -0.160479
  18 C :   -0.067060
  19 C :   -0.053744
  20 C :   -0.217360
  21 H :    0.037740
  22 C :   -0.024710
  23 H :    0.036771
  24 H :    0.021907
  25 C :   -0.037047
  26 H :    0.029224
  27 H :    0.016665
  28 C :   -0.070438
  29 H :    0.034306
  30 H :    0.019511
  31 H :    0.021176
  32 H :    0.028308
  33 H :    0.015894

  Mayer bond orders larger than 0.100000
B(  0-S ,  1-C ) :   1.1357 B(  0-S ,  4-C ) :   1.1348 B(  1-C ,  2-C ) :   1.6387
B(  1-C , 32-H ) :   0.9627 B(  2-C ,  3-C ) :   1.1993 B(  2-C ,  6-C ) :   1.0188
B(  3-C ,  4-C ) :   1.6200 B(  3-C ,  5-H ) :   0.9769 B(  4-C , 20-C ) :   1.0048
B(  6-C ,  7-H ) :   0.9429 B(  6-C ,  8-H ) :   0.9392 B(  6-C ,  9-C ) :   1.0606
B(  9-C , 10-H ) :   0.9575 B(  9-C , 11-H ) :   0.9637 B(  9-C , 12-C ) :   1.0650
B( 12-C , 13-H ) :   0.9753 B( 12-C , 14-H ) :   0.9770 B( 12-C , 15-H ) :   0.9796
B( 16-S , 17-C ) :   1.1213 B( 16-S , 20-C ) :   1.1383 B( 17-C , 18-C ) :   1.6740
B( 17-C , 33-H ) :   0.9770 B( 18-C , 19-C ) :   1.1631 B( 18-C , 21-H ) :   0.9850
B( 19-C , 20-C ) :   1.6664 B( 19-C , 22-C ) :   1.0617 B( 22-C , 23-H ) :   0.9305
B( 22-C , 24-H ) :   0.9167 B( 22-C , 25-C ) :   1.0647 B( 25-C , 26-H ) :   0.9502
B( 25-C , 27-H ) :   0.9655 B( 25-C , 28-C ) :   1.0844 B( 28-C , 29-H ) :   0.9745
B( 28-C , 30-H ) :   0.9706 B( 28-C , 31-H ) :   0.9673

Dispersion correction           -0.013932832
FINAL SINGLE POINT ENERGY     -1339.856579068955

DIPOLE MOMENT
-------------
                                X             Y             Z
Electronic contribution:     14.24029      -1.68916     -18.74698
Nuclear contribution   :    -14.41769       1.77417      19.27017
                        -----------------------------------------
Total Dipole Moment    :     -0.17740       0.08500       0.52320
                        -----------------------------------------
Magnitude (a.u.)       :      0.55896
Magnitude (Debye)      :      1.42076

Rotational constants in cm-1:     0.017224     0.008183     0.007295
Rotational constants in MHz :   516.368008   245.326662   218.694161

                             ****ORCA TERMINATED NORMALLY****
TOTAL RUN TIME: 0 days 0 hours 0 minutes 29 seconds 470 msec
