                         Program Version 4.2.1 -  RELEASE  -
|  1> ! wB97X-D3 SP def2-SVP
|  2> %pal
|  3> nprocs 16
|  4> end
|  5>
|  6> * xyz 0 1
|  7> S 	 -78.1486 	 36.9859 	 136.155
|  8> C 	 -77.1278 	 35.5679 	 135.991
|  9> C 	 -76.9003 	 35.307 	 134.64
| 10> C 	 -77.8374 	 36.016 	 133.811
| 11> C 	 -78.4514 	 37.0901 	 134.433
| 12> H 	 -78.0544 	 35.8686 	 132.817
| 13> C 	 -75.9206 	 34.1827 	 134.141
| 14> H 	 -76.1609 	 34.2148 	 133.014
| 15> H 	 -76.3468 	 33.2976 	 134.609
| 16> C 	 -74.4643 	 34.3755 	 134.543
| 17> H 	 -74.4035 	 34.5982 	 135.582
| 18> H 	 -73.8638 	 33.4964 	 134.27
| 19> C 	 -73.8117 	 35.4577 	 133.744
| 20> H 	 -74.2644 	 36.4772 	 133.964
| 21> H 	 -72.8135 	 35.5745 	 134.03
| 22> H 	 -73.7587 	 35.2349 	 132.685
| 23> S 	 -80.893 	 38.4278 	 134.619
| 24> C 	 -81.3002 	 39.6785 	 133.488
| 25> C 	 -80.3496 	 39.7475 	 132.508
| 26> C 	 -79.2468 	 38.8635 	 132.672
| 27> C 	 -79.3488 	 38.1304 	 133.862
| 28> H 	 -80.5184 	 40.5022 	 131.716
| 29> C 	 -78.2389 	 38.8548 	 131.587
| 30> H 	 -78.6114 	 39.2674 	 130.691
| 31> H 	 -77.9212 	 37.7951 	 131.48
| 32> C 	 -76.9218 	 39.5664 	 131.992
| 33> H 	 -76.6014 	 39.3101 	 132.993
| 34> H 	 -77.0109 	 40.6327 	 132.162
| 35> C 	 -75.8478 	 39.5088 	 130.938
| 36> H 	 -75.4479 	 38.5034 	 130.71
| 37> H 	 -75.11 	 40.2098 	 131.314
| 38> H 	 -76.1647 	 39.8657 	 130.019
| 39> H 	 -76.6186 	 35.082 	 136.841
| 40> H 	 -82.1885 	 40.2997 	 133.487
| 41> *
| 42>
| 43>                          ****END OF INPUT****

CARTESIAN COORDINATES (ANGSTROEM)
---------------------------------
  S    -78.148600   36.985900  136.155000
  C    -77.127800   35.567900  135.991000
  C    -76.900300   35.307000  134.640000
  C    -77.837400   36.016000  133.811000
  C    -78.451400   37.090100  134.433000
  H    -78.054400   35.868600  132.817000
  C    -75.920600   34.182700  134.141000
  H    -76.160900   34.214800  133.014000
  H    -76.346800   33.297600  134.609000
  C    -74.464300   34.375500  134.543000
  H    -74.403500   34.598200  135.582000
  H    -73.863800   33.496400  134.270000
  C    -73.811700   35.457700  133.744000
  H    -74.264400   36.477200  133.964000
  H    -72.813500   35.574500  134.030000
  H    -73.758700   35.234900  132.685000
  S    -80.893000   38.427800  134.619000
  C    -81.300200   39.678500  133.488000
  C    -80.349600   39.747500  132.508000
  C    -79.246800   38.863500  132.672000
  C    -79.348800   38.130400  133.862000
  H    -80.518400   40.502200  131.716000
  C    -78.238900   38.854800  131.587000
  H    -78.611400   39.267400  130.691000
  H    -77.921200   37.795100  131.480000
  C    -76.921800   39.566400  131.992000
  H    -76.601400   39.310100  132.993000
  H    -77.010900   40.632700  132.162000
  C    -75.847800   39.508800  130.938000
  H    -75.447900   38.503400  130.710000
  H    -75.110000   40.209800  131.314000
  H    -76.164700   39.865700  130.019000
  H    -76.618600   35.082000  136.841000
  H    -82.188500   40.299700  133.487000

 Total Charge           Charge          ....    0
 Multiplicity           Mult            ....    1
 Number of Electrons    NEL             ....  134
 Basis Dimension        Dim             ....  322

ORBITAL ENERGIES
----------------

  NO   OCC          E(Eh)            E(eV)
   0   2.0000     -88.965376     -2420.8709
   1   2.0000     -88.963526     -2420.8206
   2   2.0000     -10.331673      -281.1391
   3   2.0000     -10.330474      -281.1065
   4   2.0000     -10.316255      -280.7196
   5   2.0000     -10.314182      -280.6631
   6   2.0000     -10.306023      -280.4411
   7   2.0000     -10.303004      -280.3590
   8   2.0000     -10.300630      -280.2944
   9   2.0000     -10.290880      -280.0291
  10   2.0000     -10.290525      -280.0194
  11   2.0000     -10.289304      -279.9862
  12   2.0000     -10.285496      -279.8826
  13   2.0000     -10.279011      -279.7061
  14   2.0000     -10.270966      -279.4872
  15   2.0000     -10.269593      -279.4498
  16   2.0000      -8.080367      -219.8780
  17   2.0000      -8.078121      -219.8168
  18   2.0000      -6.038894      -164.3267
  19   2.0000      -6.036591      -164.2640
  20   2.0000      -6.034755      -164.2140
  21   2.0000      -6.032582      -164.1549
  22   2.0000      -6.031166      -164.1164
  23   2.0000      -6.028986      -164.0570
  24   2.0000      -1.005996       -27.3745
  25   2.0000      -0.984816       -26.7982
  26   2.0000      -0.914005       -24.8713
  27   2.0000      -0.913064       -24.8457
  28   2.0000      -0.867198       -23.5977
  29   2.0000      -0.857060       -23.3218
  30   2.0000      -0.845392       -23.0043
  31   2.0000      -0.816442       -22.2165
  32   2.0000      -0.782450       -21.2915
  33   2.0000      -0.770855       -20.9760
  34   2.0000      -0.706733       -19.2312
  35   2.0000      -0.700903       -19.0725
  36   2.0000      -0.691190       -18.8082
  37   2.0000      -0.661112       -17.9898
  38   2.0000      -0.642172       -17.4744
  39   2.0000      -0.614084       -16.7101
  40   2.0000      -0.595212       -16.1965
  41   2.0000      -0.577108       -15.7039
  42   2.0000      -0.564401       -15.3581
  43   2.0000      -0.555711       -15.1217
  44   2.0000      -0.543794       -14.7974
  45   2.0000      -0.531003       -14.4493
  46   2.0000      -0.515769       -14.0348
  47   2.0000      -0.512335       -13.9413
  48   2.0000      -0.502725       -13.6798
  49   2.0000      -0.498821       -13.5736
  50   2.0000      -0.495606       -13.4861
  51   2.0000      -0.478822       -13.0294
  52   2.0000      -0.474257       -12.9052
  53   2.0000      -0.467015       -12.7081
  54   2.0000      -0.459411       -12.5012
  55   2.0000      -0.447200       -12.1689
  56   2.0000      -0.443694       -12.0735
  57   2.0000      -0.435356       -11.8466
  58   2.0000      -0.433788       -11.8040
  59   2.0000      -0.428391       -11.6571
  60   2.0000      -0.422774       -11.5043
  61   2.0000      -0.408576       -11.1179
  62   2.0000      -0.406075       -11.0499
  63   2.0000      -0.346547        -9.4300
  64   2.0000      -0.327977        -8.9247
  65   2.0000      -0.326136        -8.8746
  66   2.0000      -0.291432        -7.9303
  67   0.0000       0.026781         0.7287
  68   0.0000       0.074470         2.0264
  69   0.0000       0.114882         3.1261
  70   0.0000       0.120575         3.2810
  71   0.0000       0.126899         3.4531

MULLIKEN ATOMIC CHARGES
-----------------------
   0 S :    0.102781
   1 C :   -0.138728
   2 C :   -0.117754
   3 C :    0.053472
   4 C :   -0.156184
   5 H :   -0.015303
   6 C :    0.043305
   7 H :    0.035996
   8 H :    0.044735
   9 C :   -0.035212
  10 H :    0.024260
  11 H :    0.033671
  12 C :   -0.054066
  13 H :    0.045380
  14 H :    0.012458
  15 H :    0.028089
  16 S :    0.114306
  17 C :   -0.090532
  18 C :   -0.062438
  19 C :   -0.029142
  20 C :   -0.150373
  21 H :    0.027737
  22 C :    0.123799
  23 H :    0.009973
  24 H :    0.017408
  25 C :   -0.094748
  26 H :    0.026260
  27 H :    0.009587
  28 C :    0.004950
  29 H :    0.029387
  30 H :    0.030568
  31 H :    0.003449
  32 H :    0.066890
  33 H :    0.056019
Sum of atomic charges:   -0.0000000

LOEWDIN ATOMIC CHARGES
----------------------
   0 S :    0.401063
   1 C :   -0.205789
   2 C :   -0.061626
   3 C :   -0.062346
   4 C :   -0.189871
   5 H :    0.015261
   6 C :   -0.031711
   7 H :    0.037723
   8 H :    0.033266
   9 C :   -0.040497
  10 H :    0.021882
  11 H :    0.030940
  12 C :   -0.064555
  13 H :    0.033470
  14 H :    0.016319
  15 H :    0.023869
  16 S :    0.418220
  17 C :   -0.191069
  18 C :   -0.078925
  19 C :   -0.052156
  20 C :   -0.208702
  21 H :    0.036491
  22 C :   -0.024993
  23 H :    0.024725
  24 H :    0.035248
  25 C :   -0.040452
  26 H :    0.024941
  27 H :    0.022392
  28 C :   -0.057951
  29 H :    0.023997
  30 H :    0.031583
  31 H :    0.012787
  32 H :    0.033423
  33 H :    0.033044

  Mayer bond orders larger than 0.100000
B(  0-S ,  1-C ) :   1.1450 B(  0-S ,  4-C ) :   1.1558 B(  1-C ,  2-C ) :   1.5948
B(  1-C ,  4-C ) :   0.1020 B(  1-C , 32-H ) :   0.9664 B(  2-C ,  3-C ) :   1.2362
B(  2-C ,  6-C ) :   0.9883 B(  3-C ,  4-C ) :   1.5854 B(  3-C ,  5-H ) :   0.9968
B(  4-C , 20-C ) :   1.0254 B(  6-C ,  7-H ) :   0.9499 B(  6-C ,  8-H ) :   0.9444
B(  6-C ,  9-C ) :   1.0696 B(  9-C , 10-H ) :   0.9535 B(  9-C , 11-H ) :   0.9525
B(  9-C , 12-C ) :   1.0913 B( 12-C , 13-H ) :   0.9722 B( 12-C , 14-H ) :   0.9693
B( 12-C , 15-H ) :   0.9737 B( 16-S , 17-C ) :   1.1579 B( 16-S , 20-C ) :   1.1528
B( 17-C , 18-C ) :   1.6086 B( 17-C , 33-H ) :   0.9665 B( 18-C , 19-C ) :   1.2546
B( 18-C , 21-H ) :   0.9854 B( 19-C , 20-C ) :   1.5642 B( 19-C , 22-C ) :   1.0575
B( 22-C , 23-H ) :   0.9310 B( 22-C , 24-H ) :   0.9232 B( 22-C , 25-C ) :   1.0613
B( 25-C , 26-H ) :   0.9558 B( 25-C , 27-H ) :   0.9507 B( 25-C , 28-C ) :   1.0869
B( 28-C , 29-H ) :   0.9734 B( 28-C , 30-H ) :   0.9734 B( 28-C , 31-H ) :   0.9684

Dispersion correction           -0.014377734
FINAL SINGLE POINT ENERGY     -1339.867082878652

DIPOLE MOMENT
-------------
                                X             Y             Z
Electronic contribution:    -25.68808       2.88204      16.43026
Nuclear contribution   :     26.10539      -2.91338     -16.95650
                        -----------------------------------------
Total Dipole Moment    :      0.41731      -0.03134      -0.52624
                        -----------------------------------------
Magnitude (a.u.)       :      0.67235
Magnitude (Debye)      :      1.70899

Rotational constants in cm-1:     0.018700     0.009414     0.006787
Rotational constants in MHz :   560.613299   282.235534   203.482272

                             ****ORCA TERMINATED NORMALLY****
TOTAL RUN TIME: 0 days 0 hours 0 minutes 35 seconds 354 msec
