                         Program Version 4.2.1 -  RELEASE  -
|  1> ! wB97X-D3 SP def2-SVP
|  2> %pal
|  3> nprocs 16
|  4> end
|  5>
|  6> * xyz 0 1
|  7> S 	 12.381 	 -6.68744 	 74.1734
|  8> C 	 12.3241 	 -5.106 	 74.9441
|  9> C 	 11.5687 	 -4.19444 	 74.216
| 10> C 	 10.9601 	 -4.8154 	 73.0931
| 11> C 	 11.3231 	 -6.16509 	 72.9522
| 12> H 	 10.2869 	 -4.42002 	 72.4067
| 13> C 	 11.1986 	 -2.80937 	 74.6421
| 14> H 	 11.6011 	 -2.71777 	 75.5877
| 15> H 	 10.1163 	 -2.70403 	 74.6398
| 16> C 	 11.8613 	 -1.71125 	 73.8276
| 17> H 	 12.8685 	 -2.0618 	 73.6549
| 18> H 	 11.5478 	 -1.7218 	 72.8101
| 19> C 	 11.6335 	 -0.323849 	 74.4462
| 20> H 	 10.5264 	 -0.0789811 	 74.5707
| 21> H 	 12.1313 	 -0.149203 	 75.3617
| 22> H 	 11.9228 	 0.416231 	 73.6925
| 23> S 	 11.9188 	 -8.07448 	 70.943
| 24> C 	 10.6719 	 -8.55728 	 69.8712
| 25> C 	 9.51305 	 -7.99738 	 70.2129
| 26> C 	 9.60433 	 -7.11052 	 71.3551
| 27> C 	 10.8548 	 -7.10851 	 71.9498
| 28> H 	 8.63221 	 -8.08425 	 69.5829
| 29> C 	 8.37171 	 -6.50144 	 72.0808
| 30> H 	 8.04198 	 -5.61199 	 71.7231
| 31> H 	 8.57997 	 -6.27685 	 73.132
| 32> C 	 7.14642 	 -7.5295 	 72.2142
| 33> H 	 7.31516 	 -8.28323 	 73.0449
| 34> H 	 6.97051 	 -8.03083 	 71.2632
| 35> C 	 5.78924 	 -6.83684 	 72.52
| 36> H 	 5.61869 	 -5.9896 	 71.9029
| 37> H 	 5.74695 	 -6.52305 	 73.5636
| 38> H 	 4.99728 	 -7.54696 	 72.5075
| 39> H 	 12.7449 	 -4.82768 	 75.8941
| 40> H 	 10.8861 	 -9.24407 	 69.1266
| 41> *
| 42>
| 43>                          ****END OF INPUT****

CARTESIAN COORDINATES (ANGSTROEM)
---------------------------------
  S     12.381000   -6.687440   74.173400
  C     12.324100   -5.106000   74.944100
  C     11.568700   -4.194440   74.216000
  C     10.960100   -4.815400   73.093100
  C     11.323100   -6.165090   72.952200
  H     10.286900   -4.420020   72.406700
  C     11.198600   -2.809370   74.642100
  H     11.601100   -2.717770   75.587700
  H     10.116300   -2.704030   74.639800
  C     11.861300   -1.711250   73.827600
  H     12.868500   -2.061800   73.654900
  H     11.547800   -1.721800   72.810100
  C     11.633500   -0.323849   74.446200
  H     10.526400   -0.078981   74.570700
  H     12.131300   -0.149203   75.361700
  H     11.922800    0.416231   73.692500
  S     11.918800   -8.074480   70.943000
  C     10.671900   -8.557280   69.871200
  C      9.513050   -7.997380   70.212900
  C      9.604330   -7.110520   71.355100
  C     10.854800   -7.108510   71.949800
  H      8.632210   -8.084250   69.582900
  C      8.371710   -6.501440   72.080800
  H      8.041980   -5.611990   71.723100
  H      8.579970   -6.276850   73.132000
  C      7.146420   -7.529500   72.214200
  H      7.315160   -8.283230   73.044900
  H      6.970510   -8.030830   71.263200
  C      5.789240   -6.836840   72.520000
  H      5.618690   -5.989600   71.902900
  H      5.746950   -6.523050   73.563600
  H      4.997280   -7.546960   72.507500
  H     12.744900   -4.827680   75.894100
  H     10.886100   -9.244070   69.126600

 Total Charge           Charge          ....    0
 Multiplicity           Mult            ....    1
 Number of Electrons    NEL             ....  134
 Basis Dimension        Dim             ....  322

ORBITAL ENERGIES
----------------

  NO   OCC          E(Eh)            E(eV)
   0   2.0000     -88.968801     -2420.9642
   1   2.0000     -88.959272     -2420.7049
   2   2.0000     -10.326303      -280.9930
   3   2.0000     -10.324199      -280.9357
   4   2.0000     -10.313412      -280.6422
   5   2.0000     -10.308743      -280.5151
   6   2.0000     -10.304230      -280.3924
   7   2.0000     -10.298676      -280.2412
   8   2.0000     -10.291966      -280.0586
   9   2.0000     -10.291740      -280.0525
  10   2.0000     -10.289056      -279.9795
  11   2.0000     -10.288120      -279.9540
  12   2.0000     -10.283087      -279.8170
  13   2.0000     -10.282401      -279.7984
  14   2.0000     -10.280882      -279.7570
  15   2.0000     -10.271611      -279.5047
  16   2.0000      -8.084139      -219.9806
  17   2.0000      -8.075293      -219.7399
  18   2.0000      -6.042464      -164.4238
  19   2.0000      -6.038566      -164.3177
  20   2.0000      -6.035055      -164.2222
  21   2.0000      -6.033781      -164.1875
  22   2.0000      -6.029562      -164.0727
  23   2.0000      -6.026041      -163.9769
  24   2.0000      -1.011664       -27.5288
  25   2.0000      -0.989807       -26.9340
  26   2.0000      -0.920345       -25.0439
  27   2.0000      -0.898195       -24.4411
  28   2.0000      -0.873294       -23.7636
  29   2.0000      -0.853577       -23.2270
  30   2.0000      -0.842104       -22.9148
  31   2.0000      -0.816285       -22.2122
  32   2.0000      -0.786318       -21.3968
  33   2.0000      -0.775139       -21.0926
  34   2.0000      -0.712006       -19.3747
  35   2.0000      -0.701023       -19.0758
  36   2.0000      -0.697364       -18.9762
  37   2.0000      -0.657689       -17.8966
  38   2.0000      -0.644115       -17.5273
  39   2.0000      -0.623916       -16.9776
  40   2.0000      -0.606379       -16.5004
  41   2.0000      -0.576176       -15.6785
  42   2.0000      -0.565830       -15.3970
  43   2.0000      -0.560889       -15.2626
  44   2.0000      -0.526013       -14.3136
  45   2.0000      -0.522541       -14.2191
  46   2.0000      -0.519276       -14.1302
  47   2.0000      -0.514450       -13.9989
  48   2.0000      -0.505998       -13.7689
  49   2.0000      -0.503007       -13.6875
  50   2.0000      -0.494872       -13.4661
  51   2.0000      -0.479226       -13.0404
  52   2.0000      -0.475698       -12.9444
  53   2.0000      -0.465138       -12.6570
  54   2.0000      -0.460928       -12.5425
  55   2.0000      -0.451221       -12.2783
  56   2.0000      -0.447455       -12.1759
  57   2.0000      -0.438999       -11.9458
  58   2.0000      -0.434809       -11.8318
  59   2.0000      -0.425512       -11.5788
  60   2.0000      -0.418839       -11.3972
  61   2.0000      -0.413638       -11.2556
  62   2.0000      -0.408029       -11.1030
  63   2.0000      -0.352345        -9.5878
  64   2.0000      -0.333295        -9.0694
  65   2.0000      -0.327884        -8.9222
  66   2.0000      -0.291992        -7.9455
  67   0.0000       0.030542         0.8311
  68   0.0000       0.078995         2.1496
  69   0.0000       0.113926         3.1001
  70   0.0000       0.126127         3.4321
  71   0.0000       0.134679         3.6648

MULLIKEN ATOMIC CHARGES
-----------------------
   0 S :    0.124403
   1 C :   -0.110650
   2 C :   -0.114685
   3 C :    0.049509
   4 C :   -0.167036
   5 H :   -0.016450
   6 C :    0.134431
   7 H :   -0.015477
   8 H :    0.031889
   9 C :   -0.072686
  10 H :    0.020989
  11 H :    0.010838
  12 C :   -0.036352
  13 H :    0.034186
  14 H :    0.036095
  15 H :    0.033646
  16 S :    0.087524
  17 C :   -0.062214
  18 C :   -0.016043
  19 C :   -0.057357
  20 C :   -0.106501
  21 H :    0.025121
  22 C :    0.075622
  23 H :   -0.003406
  24 H :    0.042496
  25 C :   -0.121464
  26 H :    0.050885
  27 H :    0.031450
  28 C :   -0.035318
  29 H :    0.028904
  30 H :    0.020252
  31 H :    0.023908
  32 H :    0.036550
  33 H :    0.036940
Sum of atomic charges:   -0.0000000

LOEWDIN ATOMIC CHARGES
----------------------
   0 S :    0.432990
   1 C :   -0.199098
   2 C :   -0.057968
   3 C :   -0.051617
   4 C :   -0.203961
   5 H :    0.019627
   6 C :   -0.022230
   7 H :    0.018615
   8 H :    0.031778
   9 C :   -0.041962
  10 H :    0.026159
  11 H :    0.018665
  12 C :   -0.063972
  13 H :    0.034739
  14 H :    0.018959
  15 H :    0.030140
  16 S :    0.406195
  17 C :   -0.174518
  18 C :   -0.073740
  19 C :   -0.055155
  20 C :   -0.203490
  21 H :    0.033200
  22 C :   -0.025444
  23 H :    0.008207
  24 H :    0.037033
  25 C :   -0.036391
  26 H :    0.033524
  27 H :    0.016612
  28 C :   -0.064180
  29 H :    0.018229
  30 H :    0.023457
  31 H :    0.022898
  32 H :    0.024491
  33 H :    0.018207

  Mayer bond orders larger than 0.100000
B(  0-S ,  1-C ) :   1.1396 B(  0-S ,  4-C ) :   1.1767 B(  1-C ,  2-C ) :   1.6016
B(  1-C , 32-H ) :   0.9657 B(  2-C ,  3-C ) :   1.2401 B(  2-C ,  6-C ) :   1.0354
B(  3-C ,  4-C ) :   1.5491 B(  3-C ,  5-H ) :   1.0075 B(  4-C , 20-C ) :   1.0256
B(  6-C ,  7-H ) :   0.9270 B(  6-C ,  8-H ) :   0.9382 B(  6-C ,  9-C ) :   1.0602
B(  9-C , 10-H ) :   0.9507 B(  9-C , 11-H ) :   0.9535 B(  9-C , 12-C ) :   1.0795
B( 12-C , 13-H ) :   0.9710 B( 12-C , 14-H ) :   0.9781 B( 12-C , 15-H ) :   0.9734
B( 16-S , 17-C ) :   1.1621 B( 16-S , 20-C ) :   1.1319 B( 17-C , 18-C ) :   1.6008
B( 17-C , 33-H ) :   0.9794 B( 18-C , 19-C ) :   1.2412 B( 18-C , 21-H ) :   0.9910
B( 19-C , 20-C ) :   1.6089 B( 19-C , 22-C ) :   1.0265 B( 22-C , 23-H ) :   0.9372
B( 22-C , 24-H ) :   0.9475 B( 22-C , 25-C ) :   1.0478 B( 25-C , 26-H ) :   0.9618
B( 25-C , 27-H ) :   0.9608 B( 25-C , 28-C ) :   1.0812 B( 28-C , 29-H ) :   0.9772
B( 28-C , 30-H ) :   0.9749 B( 28-C , 31-H ) :   0.9730

Dispersion correction           -0.013542716
FINAL SINGLE POINT ENERGY     -1339.867517892986

DIPOLE MOMENT
-------------
                                X             Y             Z
Electronic contribution:     19.36193     -20.74271      -5.30519
Nuclear contribution   :    -19.90452      21.20805       5.30024
                        -----------------------------------------
Total Dipole Moment    :     -0.54260       0.46534      -0.00495
                        -----------------------------------------
Magnitude (a.u.)       :      0.71482
Magnitude (Debye)      :      1.81694

Rotational constants in cm-1:     0.017307     0.008000     0.006397
Rotational constants in MHz :   518.844741   239.843085   191.782462

                             ****ORCA TERMINATED NORMALLY****
TOTAL RUN TIME: 0 days 0 hours 0 minutes 34 seconds 520 msec
