                         Program Version 4.2.1 -  RELEASE  -
|  1> ! wB97X-D3 SP def2-SVP
|  2> %pal
|  3> nprocs 16
|  4> end
|  5>
|  6> * xyz 0 1
|  7> S 	 39.5269 	 30.2059 	 56.5303
|  8> C 	 38.4773 	 31.2304 	 55.6228
|  9> C 	 37.3482 	 31.562 	 56.3754
| 10> C 	 37.3989 	 31.0568 	 57.714
| 11> C 	 38.5757 	 30.3204 	 58.0157
| 12> H 	 36.6711 	 31.252 	 58.4929
| 13> C 	 36.0734 	 32.2128 	 55.775
| 14> H 	 36.2954 	 32.838 	 54.9168
| 15> H 	 35.8609 	 32.94 	 56.457
| 16> C 	 34.8854 	 31.3612 	 55.397
| 17> H 	 35.1398 	 30.8817 	 54.3931
| 18> H 	 34.7837 	 30.5196 	 56.132
| 19> C 	 33.5393 	 31.9447 	 55.1357
| 20> H 	 33.2747 	 32.3664 	 56.0556
| 21> H 	 33.6311 	 32.7293 	 54.3627
| 22> H 	 32.8227 	 31.1033 	 54.8837
| 23> S 	 40.5356 	 28.7785 	 59.3539
| 24> C 	 40.1216 	 27.9693 	 60.7906
| 25> C 	 38.8767 	 28.3026 	 61.2389
| 26> C 	 38.1941 	 29.2355 	 60.3921
| 27> C 	 38.9181 	 29.5509 	 59.2418
| 28> H 	 38.5017 	 27.9487 	 62.1644
| 29> C 	 36.8105 	 29.7155 	 60.7834
| 30> H 	 36.237 	 29.0261 	 61.3697
| 31> H 	 36.3281 	 29.8417 	 59.8347
| 32> C 	 36.8442 	 31.0562 	 61.431
| 33> H 	 37.2393 	 31.7646 	 60.7307
| 34> H 	 37.5414 	 30.9586 	 62.2546
| 35> C 	 35.4435 	 31.6286 	 61.8587
| 36> H 	 34.8278 	 31.8132 	 60.9977
| 37> H 	 35.5294 	 32.6255 	 62.3278
| 38> H 	 35.0266 	 30.8584 	 62.4837
| 39> H 	 38.6229 	 31.5928 	 54.5923
| 40> H 	 40.6748 	 27.2012 	 61.2377
| 41> *
| 42>
| 43>                          ****END OF INPUT****

CARTESIAN COORDINATES (ANGSTROEM)
---------------------------------
  S     39.526900   30.205900   56.530300
  C     38.477300   31.230400   55.622800
  C     37.348200   31.562000   56.375400
  C     37.398900   31.056800   57.714000
  C     38.575700   30.320400   58.015700
  H     36.671100   31.252000   58.492900
  C     36.073400   32.212800   55.775000
  H     36.295400   32.838000   54.916800
  H     35.860900   32.940000   56.457000
  C     34.885400   31.361200   55.397000
  H     35.139800   30.881700   54.393100
  H     34.783700   30.519600   56.132000
  C     33.539300   31.944700   55.135700
  H     33.274700   32.366400   56.055600
  H     33.631100   32.729300   54.362700
  H     32.822700   31.103300   54.883700
  S     40.535600   28.778500   59.353900
  C     40.121600   27.969300   60.790600
  C     38.876700   28.302600   61.238900
  C     38.194100   29.235500   60.392100
  C     38.918100   29.550900   59.241800
  H     38.501700   27.948700   62.164400
  C     36.810500   29.715500   60.783400
  H     36.237000   29.026100   61.369700
  H     36.328100   29.841700   59.834700
  C     36.844200   31.056200   61.431000
  H     37.239300   31.764600   60.730700
  H     37.541400   30.958600   62.254600
  C     35.443500   31.628600   61.858700
  H     34.827800   31.813200   60.997700
  H     35.529400   32.625500   62.327800
  H     35.026600   30.858400   62.483700
  H     38.622900   31.592800   54.592300
  H     40.674800   27.201200   61.237700

 Total Charge           Charge          ....    0
 Multiplicity           Mult            ....    1
 Number of Electrons    NEL             ....  134
 Basis Dimension        Dim             ....  322

ORBITAL ENERGIES
----------------

  NO   OCC          E(Eh)            E(eV)
   0   2.0000     -88.969614     -2420.9863
   1   2.0000     -88.967705     -2420.9343
   2   2.0000     -10.342152      -281.4243
   3   2.0000     -10.337985      -281.3109
   4   2.0000     -10.318185      -280.7721
   5   2.0000     -10.311710      -280.5959
   6   2.0000     -10.307040      -280.4688
   7   2.0000     -10.307002      -280.4678
   8   2.0000     -10.301061      -280.3061
   9   2.0000     -10.289630      -279.9951
  10   2.0000     -10.287771      -279.9445
  11   2.0000     -10.286603      -279.9127
  12   2.0000     -10.285991      -279.8961
  13   2.0000     -10.281887      -279.7844
  14   2.0000     -10.281500      -279.7738
  15   2.0000     -10.280316      -279.7416
  16   2.0000      -8.084132      -219.9804
  17   2.0000      -8.082659      -219.9403
  18   2.0000      -6.042685      -164.4298
  19   2.0000      -6.041248      -164.3907
  20   2.0000      -6.038559      -164.3175
  21   2.0000      -6.037125      -164.2785
  22   2.0000      -6.034960      -164.2196
  23   2.0000      -6.033342      -164.1756
  24   2.0000      -1.006104       -27.3775
  25   2.0000      -0.986400       -26.8413
  26   2.0000      -0.919784       -25.0286
  27   2.0000      -0.914359       -24.8810
  28   2.0000      -0.870498       -23.6875
  29   2.0000      -0.854696       -23.2575
  30   2.0000      -0.847659       -23.0660
  31   2.0000      -0.816903       -22.2291
  32   2.0000      -0.789237       -21.4762
  33   2.0000      -0.777612       -21.1599
  34   2.0000      -0.707183       -19.2434
  35   2.0000      -0.695541       -18.9266
  36   2.0000      -0.691132       -18.8067
  37   2.0000      -0.668718       -18.1967
  38   2.0000      -0.639905       -17.4127
  39   2.0000      -0.624486       -16.9931
  40   2.0000      -0.601550       -16.3690
  41   2.0000      -0.579669       -15.7736
  42   2.0000      -0.568371       -15.4662
  43   2.0000      -0.564992       -15.3742
  44   2.0000      -0.531586       -14.4652
  45   2.0000      -0.523849       -14.2546
  46   2.0000      -0.520164       -14.1544
  47   2.0000      -0.516584       -14.0570
  48   2.0000      -0.508223       -13.8295
  49   2.0000      -0.503355       -13.6970
  50   2.0000      -0.502577       -13.6758
  51   2.0000      -0.488811       -13.3012
  52   2.0000      -0.476911       -12.9774
  53   2.0000      -0.469504       -12.7759
  54   2.0000      -0.462496       -12.5851
  55   2.0000      -0.454802       -12.3758
  56   2.0000      -0.444586       -12.0978
  57   2.0000      -0.437939       -11.9169
  58   2.0000      -0.427526       -11.6336
  59   2.0000      -0.422353       -11.4928
  60   2.0000      -0.418714       -11.3938
  61   2.0000      -0.415729       -11.3126
  62   2.0000      -0.402951       -10.9649
  63   2.0000      -0.363815        -9.8999
  64   2.0000      -0.335069        -9.1177
  65   2.0000      -0.331070        -9.0089
  66   2.0000      -0.282669        -7.6918
  67   0.0000       0.016539         0.4500
  68   0.0000       0.089679         2.4403
  69   0.0000       0.096469         2.6250
  70   0.0000       0.117483         3.1969
  71   0.0000       0.127572         3.4714

MULLIKEN ATOMIC CHARGES
-----------------------
   0 S :    0.106317
   1 C :   -0.114833
   2 C :   -0.100225
   3 C :   -0.012344
   4 C :   -0.109615
   5 H :    0.007396
   6 C :    0.122137
   7 H :    0.003207
   8 H :   -0.009273
   9 C :   -0.114637
  10 H :    0.026574
  11 H :    0.030825
  12 C :   -0.019376
  13 H :    0.013682
  14 H :    0.035280
  15 H :    0.054866
  16 S :    0.102193
  17 C :   -0.049963
  18 C :   -0.019264
  19 C :   -0.081457
  20 C :   -0.122925
  21 H :    0.000128
  22 C :    0.092158
  23 H :    0.012595
  24 H :    0.004933
  25 C :   -0.080082
  26 H :    0.022206
  27 H :    0.022385
  28 C :   -0.024429
  29 H :    0.021965
  30 H :    0.045993
  31 H :    0.031095
  32 H :    0.061900
  33 H :    0.040585
Sum of atomic charges:   -0.0000000

LOEWDIN ATOMIC CHARGES
----------------------
   0 S :    0.413958
   1 C :   -0.208389
   2 C :   -0.059627
   3 C :   -0.073519
   4 C :   -0.181231
   5 H :    0.026918
   6 C :   -0.032455
   7 H :    0.029271
   8 H :    0.014634
   9 C :   -0.052840
  10 H :    0.027301
  11 H :    0.024995
  12 C :   -0.060248
  13 H :    0.013425
  14 H :    0.027044
  15 H :    0.041994
  16 S :    0.405655
  17 C :   -0.184885
  18 C :   -0.069205
  19 C :   -0.045791
  20 C :   -0.183570
  21 H :    0.025278
  22 C :   -0.028802
  23 H :    0.025080
  24 H :    0.023829
  25 C :   -0.037093
  26 H :    0.018800
  27 H :    0.021912
  28 C :   -0.060513
  29 H :    0.020906
  30 H :    0.033139
  31 H :    0.022007
  32 H :    0.039119
  33 H :    0.022905

  Mayer bond orders larger than 0.100000
B(  0-S ,  1-C ) :   1.1488 B(  0-S ,  4-C ) :   1.1605 B(  1-C ,  2-C ) :   1.5892
B(  1-C ,  4-C ) :   0.1022 B(  1-C , 32-H ) :   0.9638 B(  2-C ,  3-C ) :   1.2810
B(  2-C ,  6-C ) :   1.0225 B(  3-C ,  4-C ) :   1.5278 B(  3-C ,  5-H ) :   0.9827
B(  4-C , 20-C ) :   1.0831 B(  6-C ,  7-H ) :   0.9322 B(  6-C ,  8-H ) :   0.9304
B(  6-C ,  9-C ) :   1.0592 B(  9-C , 10-H ) :   0.9542 B(  9-C , 11-H ) :   0.9569
B(  9-C , 12-C ) :   1.0826 B( 12-C , 13-H ) :   0.9738 B( 12-C , 14-H ) :   0.9738
B( 12-C , 15-H ) :   0.9696 B( 16-S , 17-C ) :   1.1637 B( 16-S , 20-C ) :   1.1258
B( 17-C , 18-C ) :   1.5998 B( 17-C , 33-H ) :   0.9700 B( 18-C , 19-C ) :   1.2559
B( 18-C , 21-H ) :   0.9978 B( 19-C , 20-C ) :   1.5848 B( 19-C , 22-C ) :   1.0415
B( 22-C , 23-H ) :   0.9330 B( 22-C , 24-H ) :   0.9194 B( 22-C , 25-C ) :   1.0735
B( 25-C , 26-H ) :   0.9508 B( 25-C , 27-H ) :   0.9529 B( 25-C , 28-C ) :   1.0767
B( 28-C , 29-H ) :   0.9745 B( 28-C , 30-H ) :   0.9743 B( 28-C , 31-H ) :   0.9764

Dispersion correction           -0.013783888
FINAL SINGLE POINT ENERGY     -1339.869014110287

DIPOLE MOMENT
-------------
                                X             Y             Z
Electronic contribution:     30.22038     -12.24361      -2.20841
Nuclear contribution   :    -30.85849      12.34373       2.41123
                        -----------------------------------------
Total Dipole Moment    :     -0.63812       0.10012       0.20282
                        -----------------------------------------
Magnitude (a.u.)       :      0.67702
Magnitude (Debye)      :      1.72084

Rotational constants in cm-1:     0.017347     0.008915     0.006297
Rotational constants in MHz :   520.046033   267.273479   188.780305

                             ****ORCA TERMINATED NORMALLY****
TOTAL RUN TIME: 0 days 0 hours 0 minutes 34 seconds 186 msec
