                         Program Version 4.2.1 -  RELEASE  -
|  1> ! wB97X-D3 SP def2-SVP
|  2> %pal
|  3> nprocs 16
|  4> end
|  5>
|  6> * xyz 0 1
|  7> S 	 -57.5395 	 28.3152 	 93.2333
|  8> C 	 -56.2899 	 28.8672 	 94.3025
|  9> C 	 -55.8925 	 27.8068 	 95.149
| 10> C 	 -56.5917 	 26.5578 	 94.8137
| 11> C 	 -57.5652 	 26.6849 	 93.7893
| 12> H 	 -56.5528 	 25.6782 	 95.3784
| 13> C 	 -55.0308 	 27.9752 	 96.3224
| 14> H 	 -55.6116 	 27.9922 	 97.2942
| 15> H 	 -54.5803 	 29.0282 	 96.2599
| 16> C 	 -53.8669 	 26.9308 	 96.4666
| 17> H 	 -54.2519 	 25.9001 	 96.469
| 18> H 	 -53.2786 	 27.0368 	 95.5662
| 19> C 	 -52.9036 	 27.0569 	 97.7009
| 20> H 	 -53.4176 	 27.5782 	 98.5346
| 21> H 	 -52.6106 	 26.0807 	 97.9191
| 22> H 	 -52.0575 	 27.6221 	 97.4443
| 23> S 	 -59.629 	 24.9407 	 94.193
| 24> C 	 -60.0613 	 23.8909 	 92.9128
| 25> C 	 -59.3344 	 24.068 	 91.7838
| 26> C 	 -58.3764 	 25.1033 	 91.9395
| 27> C 	 -58.3578 	 25.6382 	 93.2394
| 28> H 	 -59.5045 	 23.4661 	 90.8614
| 29> C 	 -57.3882 	 25.4931 	 90.8185
| 30> H 	 -56.9524 	 24.5997 	 90.4876
| 31> H 	 -56.6115 	 26.1473 	 91.1562
| 32> C 	 -58.1203 	 25.9834 	 89.5835
| 33> H 	 -58.6653 	 25.1572 	 89.0725
| 34> H 	 -57.3538 	 26.0445 	 88.8297
| 35> C 	 -58.9917 	 27.248 	 89.5911
| 36> H 	 -59.8948 	 27.2507 	 90.2062
| 37> H 	 -59.2263 	 27.5338 	 88.5051
| 38> H 	 -58.3881 	 28.0064 	 90.0548
| 39> H 	 -56.0964 	 29.904 	 94.3179
| 40> H 	 -60.9212 	 23.1838 	 92.844
| 41> *
| 42>
| 43>                          ****END OF INPUT****

CARTESIAN COORDINATES (ANGSTROEM)
---------------------------------
  S    -57.539500   28.315200   93.233300
  C    -56.289900   28.867200   94.302500
  C    -55.892500   27.806800   95.149000
  C    -56.591700   26.557800   94.813700
  C    -57.565200   26.684900   93.789300
  H    -56.552800   25.678200   95.378400
  C    -55.030800   27.975200   96.322400
  H    -55.611600   27.992200   97.294200
  H    -54.580300   29.028200   96.259900
  C    -53.866900   26.930800   96.466600
  H    -54.251900   25.900100   96.469000
  H    -53.278600   27.036800   95.566200
  C    -52.903600   27.056900   97.700900
  H    -53.417600   27.578200   98.534600
  H    -52.610600   26.080700   97.919100
  H    -52.057500   27.622100   97.444300
  S    -59.629000   24.940700   94.193000
  C    -60.061300   23.890900   92.912800
  C    -59.334400   24.068000   91.783800
  C    -58.376400   25.103300   91.939500
  C    -58.357800   25.638200   93.239400
  H    -59.504500   23.466100   90.861400
  C    -57.388200   25.493100   90.818500
  H    -56.952400   24.599700   90.487600
  H    -56.611500   26.147300   91.156200
  C    -58.120300   25.983400   89.583500
  H    -58.665300   25.157200   89.072500
  H    -57.353800   26.044500   88.829700
  C    -58.991700   27.248000   89.591100
  H    -59.894800   27.250700   90.206200
  H    -59.226300   27.533800   88.505100
  H    -58.388100   28.006400   90.054800
  H    -56.096400   29.904000   94.317900
  H    -60.921200   23.183800   92.844000

 Total Charge           Charge          ....    0
 Multiplicity           Mult            ....    1
 Number of Electrons    NEL             ....  134
 Basis Dimension        Dim             ....  322

ORBITAL ENERGIES
----------------

  NO   OCC          E(Eh)            E(eV)
   0   2.0000     -88.967486     -2420.9284
   1   2.0000     -88.965099     -2420.8634
   2   2.0000     -10.328129      -281.0427
   3   2.0000     -10.321158      -280.8530
   4   2.0000     -10.316189      -280.7178
   5   2.0000     -10.314187      -280.6633
   6   2.0000     -10.308330      -280.5039
   7   2.0000     -10.302528      -280.3460
   8   2.0000     -10.299829      -280.2726
   9   2.0000     -10.295315      -280.1498
  10   2.0000     -10.291526      -280.0467
  11   2.0000     -10.287460      -279.9360
  12   2.0000     -10.284016      -279.8423
  13   2.0000     -10.282397      -279.7982
  14   2.0000     -10.276243      -279.6308
  15   2.0000     -10.273327      -279.5514
  16   2.0000      -8.082974      -219.9489
  17   2.0000      -8.080189      -219.8731
  18   2.0000      -6.041377      -164.3942
  19   2.0000      -6.038588      -164.3183
  20   2.0000      -6.037365      -164.2850
  21   2.0000      -6.034338      -164.2027
  22   2.0000      -6.033805      -164.1882
  23   2.0000      -6.031350      -164.1214
  24   2.0000      -1.009936       -27.4818
  25   2.0000      -0.985726       -26.8230
  26   2.0000      -0.908783       -24.7292
  27   2.0000      -0.906766       -24.6743
  28   2.0000      -0.873227       -23.7617
  29   2.0000      -0.847967       -23.0744
  30   2.0000      -0.843573       -22.9548
  31   2.0000      -0.814499       -22.1636
  32   2.0000      -0.786479       -21.4012
  33   2.0000      -0.770558       -20.9679
  34   2.0000      -0.710726       -19.3399
  35   2.0000      -0.697062       -18.9680
  36   2.0000      -0.688532       -18.7359
  37   2.0000      -0.657837       -17.9007
  38   2.0000      -0.644137       -17.5279
  39   2.0000      -0.615246       -16.7417
  40   2.0000      -0.595583       -16.2066
  41   2.0000      -0.569299       -15.4914
  42   2.0000      -0.559753       -15.2316
  43   2.0000      -0.549975       -14.9656
  44   2.0000      -0.537693       -14.6314
  45   2.0000      -0.527394       -14.3511
  46   2.0000      -0.513804       -13.9813
  47   2.0000      -0.509320       -13.8593
  48   2.0000      -0.508168       -13.8279
  49   2.0000      -0.500458       -13.6182
  50   2.0000      -0.493737       -13.4353
  51   2.0000      -0.482345       -13.1253
  52   2.0000      -0.471402       -12.8275
  53   2.0000      -0.460668       -12.5354
  54   2.0000      -0.458044       -12.4640
  55   2.0000      -0.450870       -12.2688
  56   2.0000      -0.448257       -12.1977
  57   2.0000      -0.439713       -11.9652
  58   2.0000      -0.427552       -11.6343
  59   2.0000      -0.425170       -11.5695
  60   2.0000      -0.417982       -11.3739
  61   2.0000      -0.413931       -11.2636
  62   2.0000      -0.399663       -10.8754
  63   2.0000      -0.340081        -9.2541
  64   2.0000      -0.332628        -9.0513
  65   2.0000      -0.321539        -8.7495
  66   2.0000      -0.298484        -8.1222
  67   0.0000       0.038091         1.0365
  68   0.0000       0.064422         1.7530
  69   0.0000       0.107030         2.9124
  70   0.0000       0.120833         3.2880
  71   0.0000       0.131977         3.5913

MULLIKEN ATOMIC CHARGES
-----------------------
   0 S :    0.117080
   1 C :   -0.123844
   2 C :   -0.060188
   3 C :    0.054374
   4 C :   -0.179030
   5 H :   -0.003738
   6 C :    0.023491
   7 H :    0.050568
   8 H :    0.027209
   9 C :   -0.128792
  10 H :    0.035614
  11 H :    0.029406
  12 C :    0.001906
  13 H :    0.033155
  14 H :    0.023281
  15 H :    0.024785
  16 S :    0.132437
  17 C :   -0.088952
  18 C :   -0.063125
  19 C :   -0.034567
  20 C :   -0.185145
  21 H :    0.034632
  22 C :    0.146634
  23 H :    0.007848
  24 H :    0.026904
  25 C :   -0.108660
  26 H :    0.015210
  27 H :    0.010625
  28 C :   -0.037357
  29 H :    0.042691
  30 H :    0.044718
  31 H :    0.020410
  32 H :    0.046269
  33 H :    0.064149
Sum of atomic charges:    0.0000000

LOEWDIN ATOMIC CHARGES
----------------------
   0 S :    0.435222
   1 C :   -0.197682
   2 C :   -0.062859
   3 C :   -0.053714
   4 C :   -0.211367
   5 H :    0.018955
   6 C :   -0.046481
   7 H :    0.037394
   8 H :    0.035680
   9 C :   -0.042095
  10 H :    0.022208
  11 H :    0.023137
  12 C :   -0.054450
  13 H :    0.029644
  14 H :    0.020858
  15 H :    0.019536
  16 S :    0.434144
  17 C :   -0.203437
  18 C :   -0.080874
  19 C :   -0.044749
  20 C :   -0.221424
  21 H :    0.040430
  22 C :   -0.020575
  23 H :    0.030257
  24 H :    0.025630
  25 C :   -0.051342
  26 H :    0.021852
  27 H :    0.022811
  28 C :   -0.071045
  29 H :    0.026778
  30 H :    0.038016
  31 H :    0.018241
  32 H :    0.020374
  33 H :    0.040928

  Mayer bond orders larger than 0.100000
B(  0-S ,  1-C ) :   1.1626 B(  0-S ,  4-C ) :   1.1717 B(  1-C ,  2-C ) :   1.5442
B(  1-C , 32-H ) :   0.9807 B(  2-C ,  3-C ) :   1.2516 B(  2-C ,  6-C ) :   1.0543
B(  3-C ,  4-C ) :   1.5429 B(  3-C ,  5-H ) :   0.9977 B(  4-C , 20-C ) :   1.0424
B(  6-C ,  7-H ) :   0.9311 B(  6-C ,  8-H ) :   0.9435 B(  6-C ,  9-C ) :   1.0484
B(  9-C , 10-H ) :   0.9661 B(  9-C , 11-H ) :   0.9608 B(  9-C , 12-C ) :   1.0707
B( 12-C , 13-H ) :   0.9774 B( 12-C , 14-H ) :   0.9771 B( 12-C , 15-H ) :   0.9788
B( 16-S , 17-C ) :   1.1642 B( 16-S , 20-C ) :   1.1462 B( 17-C , 18-C ) :   1.6193
B( 17-C , 33-H ) :   0.9556 B( 18-C , 19-C ) :   1.2532 B( 18-C , 21-H ) :   0.9825
B( 19-C , 20-C ) :   1.5715 B( 19-C , 22-C ) :   1.0463 B( 22-C , 23-H ) :   0.9198
B( 22-C , 24-H ) :   0.9370 B( 22-C , 25-C ) :   1.0844 B( 25-C , 26-H ) :   0.9492
B( 25-C , 27-H ) :   0.9480 B( 25-C , 28-C ) :   1.0658 B( 28-C , 29-H ) :   0.9746
B( 28-C , 30-H ) :   0.9714 B( 28-C , 31-H ) :   0.9725

Dispersion correction           -0.014533384
FINAL SINGLE POINT ENERGY     -1339.874713749673

DIPOLE MOMENT
-------------
                                X             Y             Z
Electronic contribution:    -15.96300      -1.99194       1.94610
Nuclear contribution   :     16.26656       1.86306      -2.02284
                        -----------------------------------------
Total Dipole Moment    :      0.30356      -0.12888      -0.07674
                        -----------------------------------------
Magnitude (a.u.)       :      0.33860
Magnitude (Debye)      :      0.86064

Rotational constants in cm-1:     0.022179     0.007513     0.006531
Rotational constants in MHz :   664.905057   225.229760   195.791523

                             ****ORCA TERMINATED NORMALLY****
TOTAL RUN TIME: 0 days 0 hours 0 minutes 29 seconds 845 msec
