                         Program Version 4.2.1 -  RELEASE  -
|  1> ! wB97X-D3 SP def2-SVP
|  2> %pal
|  3> nprocs 16
|  4> end
|  5>
|  6> * xyz 0 1
|  7> S 	 8.58538 	 23.138 	 67.1339
|  8> C 	 7.30114 	 23.0214 	 65.9373
|  9> C 	 6.9874 	 24.2198 	 65.3131
| 10> C 	 7.85063 	 25.2117 	 65.82
| 11> C 	 8.77094 	 24.8364 	 66.7827
| 12> H 	 7.84813 	 26.262 	 65.5468
| 13> C 	 5.80788 	 24.4749 	 64.3598
| 14> H 	 5.3909 	 23.571 	 64.1394
| 15> H 	 6.24127 	 24.8165 	 63.4179
| 16> C 	 4.78613 	 25.4206 	 65.0869
| 17> H 	 3.79493 	 25.2485 	 64.6737
| 18> H 	 4.66509 	 25.2548 	 66.1238
| 19> C 	 4.98498 	 26.9385 	 64.8765
| 20> H 	 4.48872 	 27.2776 	 63.9219
| 21> H 	 4.81292 	 27.6003 	 65.7635
| 22> H 	 6.06823 	 27.0532 	 64.7507
| 23> S 	 9.96223 	 25.5104 	 69.1392
| 24> C 	 11.1499 	 26.7424 	 69.2133
| 25> C 	 11.576 	 27.1168 	 67.9685
| 26> C 	 10.841 	 26.485 	 66.8602
| 27> C 	 9.74906 	 25.7354 	 67.4141
| 28> H 	 12.3082 	 27.9221 	 67.9365
| 29> C 	 11.1848 	 26.7748 	 65.41
| 30> H 	 10.3111 	 26.4323 	 64.897
| 31> H 	 11.9726 	 26.076 	 65.2325
| 32> C 	 11.6769 	 28.1543 	 65.0338
| 33> H 	 11.856 	 28.1186 	 64.0212
| 34> H 	 12.6292 	 28.3927 	 65.4928
| 35> C 	 10.6001 	 29.305 	 65.2757
| 36> H 	 9.53371 	 28.9592 	 65.1682
| 37> H 	 10.7664 	 30.1398 	 64.6299
| 38> H 	 10.5669 	 29.6842 	 66.2595
| 39> H 	 6.84634 	 22.0352 	 65.7312
| 40> H 	 11.5709 	 27.1274 	 70.1168
| 41> *
| 42>
| 43>                          ****END OF INPUT****

CARTESIAN COORDINATES (ANGSTROEM)
---------------------------------
  S      8.585380   23.138000   67.133900
  C      7.301140   23.021400   65.937300
  C      6.987400   24.219800   65.313100
  C      7.850630   25.211700   65.820000
  C      8.770940   24.836400   66.782700
  H      7.848130   26.262000   65.546800
  C      5.807880   24.474900   64.359800
  H      5.390900   23.571000   64.139400
  H      6.241270   24.816500   63.417900
  C      4.786130   25.420600   65.086900
  H      3.794930   25.248500   64.673700
  H      4.665090   25.254800   66.123800
  C      4.984980   26.938500   64.876500
  H      4.488720   27.277600   63.921900
  H      4.812920   27.600300   65.763500
  H      6.068230   27.053200   64.750700
  S      9.962230   25.510400   69.139200
  C     11.149900   26.742400   69.213300
  C     11.576000   27.116800   67.968500
  C     10.841000   26.485000   66.860200
  C      9.749060   25.735400   67.414100
  H     12.308200   27.922100   67.936500
  C     11.184800   26.774800   65.410000
  H     10.311100   26.432300   64.897000
  H     11.972600   26.076000   65.232500
  C     11.676900   28.154300   65.033800
  H     11.856000   28.118600   64.021200
  H     12.629200   28.392700   65.492800
  C     10.600100   29.305000   65.275700
  H      9.533710   28.959200   65.168200
  H     10.766400   30.139800   64.629900
  H     10.566900   29.684200   66.259500
  H      6.846340   22.035200   65.731200
  H     11.570900   27.127400   70.116800

 Total Charge           Charge          ....    0
 Multiplicity           Mult            ....    1
 Number of Electrons    NEL             ....  134
 Basis Dimension        Dim             ....  322

ORBITAL ENERGIES
----------------

  NO   OCC          E(Eh)            E(eV)
   0   2.0000     -88.965453     -2420.8730
   1   2.0000     -88.961410     -2420.7630
   2   2.0000     -10.329771      -281.0874
   3   2.0000     -10.326026      -280.9854
   4   2.0000     -10.314509      -280.6721
   5   2.0000     -10.313315      -280.6396
   6   2.0000     -10.310744      -280.5696
   7   2.0000     -10.300962      -280.3034
   8   2.0000     -10.294711      -280.1333
   9   2.0000     -10.293025      -280.0875
  10   2.0000     -10.287762      -279.9442
  11   2.0000     -10.287596      -279.9397
  12   2.0000     -10.287300      -279.9317
  13   2.0000     -10.286155      -279.9005
  14   2.0000     -10.283919      -279.8397
  15   2.0000     -10.277417      -279.6627
  16   2.0000      -8.080085      -219.8703
  17   2.0000      -8.077038      -219.7874
  18   2.0000      -6.038498      -164.3159
  19   2.0000      -6.035467      -164.2334
  20   2.0000      -6.034663      -164.2115
  21   2.0000      -6.031467      -164.1245
  22   2.0000      -6.030910      -164.1094
  23   2.0000      -6.027806      -164.0249
  24   2.0000      -1.003728       -27.3128
  25   2.0000      -0.982441       -26.7336
  26   2.0000      -0.911738       -24.8096
  27   2.0000      -0.908952       -24.7338
  28   2.0000      -0.865637       -23.5552
  29   2.0000      -0.846202       -23.0263
  30   2.0000      -0.839778       -22.8515
  31   2.0000      -0.814667       -22.1682
  32   2.0000      -0.787894       -21.4397
  33   2.0000      -0.773824       -21.0568
  34   2.0000      -0.716328       -19.4923
  35   2.0000      -0.702246       -19.1091
  36   2.0000      -0.692608       -18.8468
  37   2.0000      -0.652281       -17.7495
  38   2.0000      -0.639207       -17.3937
  39   2.0000      -0.621322       -16.9070
  40   2.0000      -0.594084       -16.1658
  41   2.0000      -0.567915       -15.4537
  42   2.0000      -0.557342       -15.1661
  43   2.0000      -0.543766       -14.7966
  44   2.0000      -0.539046       -14.6682
  45   2.0000      -0.535521       -14.5723
  46   2.0000      -0.520304       -14.1582
  47   2.0000      -0.515703       -14.0330
  48   2.0000      -0.496611       -13.5135
  49   2.0000      -0.494160       -13.4468
  50   2.0000      -0.491229       -13.3670
  51   2.0000      -0.484696       -13.1893
  52   2.0000      -0.467870       -12.7314
  53   2.0000      -0.462068       -12.5735
  54   2.0000      -0.455177       -12.3860
  55   2.0000      -0.447080       -12.1657
  56   2.0000      -0.442760       -12.0481
  57   2.0000      -0.438721       -11.9382
  58   2.0000      -0.437402       -11.9023
  59   2.0000      -0.430130       -11.7044
  60   2.0000      -0.425483       -11.5780
  61   2.0000      -0.415542       -11.3075
  62   2.0000      -0.412811       -11.2332
  63   2.0000      -0.345088        -9.3903
  64   2.0000      -0.332292        -9.0421
  65   2.0000      -0.324819        -8.8388
  66   2.0000      -0.287357        -7.8194
  67   0.0000       0.034230         0.9314
  68   0.0000       0.068654         1.8682
  69   0.0000       0.112228         3.0539
  70   0.0000       0.125703         3.4205
  71   0.0000       0.128541         3.4978

MULLIKEN ATOMIC CHARGES
-----------------------
   0 S :    0.115982
   1 C :   -0.158003
   2 C :   -0.086994
   3 C :   -0.007544
   4 C :   -0.142696
   5 H :    0.010767
   6 C :    0.156853
   7 H :   -0.013784
   8 H :    0.038153
   9 C :   -0.064408
  10 H :    0.026251
  11 H :    0.034346
  12 C :   -0.076452
  13 H :    0.046476
  14 H :    0.049925
  15 H :    0.007901
  16 S :    0.094902
  17 C :   -0.069519
  18 C :   -0.050407
  19 C :   -0.067122
  20 C :   -0.177357
  21 H :    0.021755
  22 C :    0.109623
  23 H :    0.011150
  24 H :    0.034926
  25 C :   -0.019908
  26 H :    0.014731
  27 H :    0.028587
  28 C :   -0.056600
  29 H :    0.031243
  30 H :    0.031034
  31 H :    0.024388
  32 H :    0.056167
  33 H :    0.045632
Sum of atomic charges:    0.0000000

LOEWDIN ATOMIC CHARGES
----------------------
   0 S :    0.400602
   1 C :   -0.199713
   2 C :   -0.061121
   3 C :   -0.073298
   4 C :   -0.202336
   5 H :    0.025880
   6 C :   -0.010989
   7 H :    0.016909
   8 H :    0.036383
   9 C :   -0.036460
  10 H :    0.024359
  11 H :    0.025211
  12 C :   -0.075918
  13 H :    0.031660
  14 H :    0.035181
  15 H :    0.017894
  16 S :    0.411207
  17 C :   -0.189205
  18 C :   -0.079118
  19 C :   -0.039514
  20 C :   -0.204534
  21 H :    0.030211
  22 C :   -0.029374
  23 H :    0.028315
  24 H :    0.038831
  25 C :   -0.027763
  26 H :    0.019221
  27 H :    0.025071
  28 C :   -0.065249
  29 H :    0.031889
  30 H :    0.022106
  31 H :    0.019254
  32 H :    0.028679
  33 H :    0.025729

  Mayer bond orders larger than 0.100000
B(  0-S ,  1-C ) :   1.1479 B(  0-S ,  4-C ) :   1.1448 B(  1-C ,  2-C ) :   1.6035
B(  1-C , 32-H ) :   0.9614 B(  2-C ,  3-C ) :   1.2448 B(  2-C ,  6-C ) :   1.0194
B(  3-C ,  4-C ) :   1.5917 B(  3-C ,  5-H ) :   0.9872 B(  4-C , 20-C ) :   1.0479
B(  6-C ,  7-H ) :   0.9290 B(  6-C ,  8-H ) :   0.9435 B(  6-C ,  9-C ) :   1.0505
B(  9-C , 10-H ) :   0.9638 B(  9-C , 11-H ) :   0.9629 B(  9-C , 12-C ) :   1.0582
B( 12-C , 13-H ) :   0.9756 B( 12-C , 14-H ) :   0.9749 B( 12-C , 15-H ) :   0.9783
B( 16-S , 17-C ) :   1.1577 B( 16-S , 20-C ) :   1.1412 B( 17-C , 18-C ) :   1.6339
B( 17-C , 33-H ) :   0.9679 B( 18-C , 19-C ) :   1.2114 B( 18-C , 21-H ) :   0.9849
B( 19-C , 20-C ) :   1.5678 B( 19-C , 22-C ) :   1.0276 B( 22-C , 23-H ) :   0.9312
B( 22-C , 24-H ) :   0.9154 B( 22-C , 25-C ) :   1.0976 B( 25-C , 26-H ) :   0.9502
B( 25-C , 27-H ) :   0.9460 B( 25-C , 28-C ) :   1.0595 B( 28-C , 29-H ) :   0.9783
B( 28-C , 30-H ) :   0.9792 B( 28-C , 31-H ) :   0.9762

Dispersion correction           -0.014589480
FINAL SINGLE POINT ENERGY     -1339.862499136424

DIPOLE MOMENT
-------------
                                X             Y             Z
Electronic contribution:      7.98537     -18.73522      18.76803
Nuclear contribution   :     -7.97979      19.12677     -19.27985
                        -----------------------------------------
Total Dipole Moment    :      0.00559       0.39155      -0.51182
                        -----------------------------------------
Magnitude (a.u.)       :      0.64443
Magnitude (Debye)      :      1.63802

Rotational constants in cm-1:     0.017196     0.009349     0.007164
Rotational constants in MHz :   515.519966   280.284148   214.782421

                             ****ORCA TERMINATED NORMALLY****
TOTAL RUN TIME: 0 days 0 hours 0 minutes 35 seconds 9 msec
