                         Program Version 4.2.1 -  RELEASE  -
|  1> ! wB97X-D3 SP def2-SVP
|  2> %pal
|  3> nprocs 16
|  4> end
|  5>
|  6> * xyz 0 1
|  7> S 	 5.64667 	 12.291 	 86.0632
|  8> C 	 4.36656 	 12.8329 	 85.042
|  9> C 	 4.77216 	 13.0608 	 83.7459
| 10> C 	 6.16382 	 12.7671 	 83.5852
| 11> C 	 6.81569 	 12.4609 	 84.7866
| 12> H 	 6.7355 	 12.8451 	 82.7196
| 13> C 	 3.9601 	 13.3162 	 82.4698
| 14> H 	 4.20847 	 12.4177 	 81.8079
| 15> H 	 4.30526 	 14.1295 	 81.8746
| 16> C 	 2.45805 	 13.4922 	 82.7448
| 17> H 	 2.08255 	 12.547 	 83.1585
| 18> H 	 2.27258 	 14.2819 	 83.4536
| 19> C 	 1.65017 	 13.7974 	 81.4906
| 20> H 	 2.13728 	 14.533 	 80.8259
| 21> H 	 1.52088 	 12.815 	 80.9582
| 22> H 	 0.721076 	 14.224 	 81.8286
| 23> S 	 9.05584 	 12.9157 	 86.5132
| 24> C 	 10.6429 	 12.2812 	 85.9217
| 25> C 	 10.5085 	 11.5414 	 84.7246
| 26> C 	 9.14756 	 11.5075 	 84.2793
| 27> C 	 8.26183 	 12.2028 	 85.092
| 28> H 	 11.3809 	 11.0448 	 84.3433
| 29> C 	 8.78756 	 10.9497 	 82.8892
| 30> H 	 7.75203 	 10.7353 	 82.9835
| 31> H 	 9.29526 	 9.95822 	 82.8291
| 32> C 	 9.14707 	 11.7901 	 81.658
| 33> H 	 10.2187 	 11.7523 	 81.3987
| 34> H 	 8.73155 	 12.8401 	 81.7975
| 35> C 	 8.46826 	 11.2452 	 80.4143
| 36> H 	 8.66543 	 11.8829 	 79.5679
| 37> H 	 7.46196 	 11.1956 	 80.5921
| 38> H 	 8.69233 	 10.1914 	 80.1336
| 39> H 	 3.31607 	 12.88 	 85.412
| 40> H 	 11.6938 	 12.2891 	 86.3537
| 41> *
| 42>
| 43>                          ****END OF INPUT****

CARTESIAN COORDINATES (ANGSTROEM)
---------------------------------
  S      5.646670   12.291000   86.063200
  C      4.366560   12.832900   85.042000
  C      4.772160   13.060800   83.745900
  C      6.163820   12.767100   83.585200
  C      6.815690   12.460900   84.786600
  H      6.735500   12.845100   82.719600
  C      3.960100   13.316200   82.469800
  H      4.208470   12.417700   81.807900
  H      4.305260   14.129500   81.874600
  C      2.458050   13.492200   82.744800
  H      2.082550   12.547000   83.158500
  H      2.272580   14.281900   83.453600
  C      1.650170   13.797400   81.490600
  H      2.137280   14.533000   80.825900
  H      1.520880   12.815000   80.958200
  H      0.721076   14.224000   81.828600
  S      9.055840   12.915700   86.513200
  C     10.642900   12.281200   85.921700
  C     10.508500   11.541400   84.724600
  C      9.147560   11.507500   84.279300
  C      8.261830   12.202800   85.092000
  H     11.380900   11.044800   84.343300
  C      8.787560   10.949700   82.889200
  H      7.752030   10.735300   82.983500
  H      9.295260    9.958220   82.829100
  C      9.147070   11.790100   81.658000
  H     10.218700   11.752300   81.398700
  H      8.731550   12.840100   81.797500
  C      8.468260   11.245200   80.414300
  H      8.665430   11.882900   79.567900
  H      7.461960   11.195600   80.592100
  H      8.692330   10.191400   80.133600
  H      3.316070   12.880000   85.412000
  H     11.693800   12.289100   86.353700

 Total Charge           Charge          ....    0
 Multiplicity           Mult            ....    1
 Number of Electrons    NEL             ....  134
 Basis Dimension        Dim             ....  322

ORBITAL ENERGIES
----------------

  NO   OCC          E(Eh)            E(eV)
   0   2.0000     -88.973628     -2421.0955
   1   2.0000     -88.964941     -2420.8591
   2   2.0000     -10.333350      -281.1848
   3   2.0000     -10.332425      -281.1596
   4   2.0000     -10.329002      -281.0664
   5   2.0000     -10.315239      -280.6919
   6   2.0000     -10.303457      -280.3713
   7   2.0000     -10.303400      -280.3698
   8   2.0000     -10.298681      -280.2414
   9   2.0000     -10.296686      -280.1871
  10   2.0000     -10.295499      -280.1548
  11   2.0000     -10.291373      -280.0425
  12   2.0000     -10.290916      -280.0301
  13   2.0000     -10.285766      -279.8899
  14   2.0000     -10.281980      -279.7869
  15   2.0000     -10.271906      -279.5128
  16   2.0000      -8.086360      -220.0411
  17   2.0000      -8.080425      -219.8795
  18   2.0000      -6.045208      -164.4985
  19   2.0000      -6.041174      -164.3887
  20   2.0000      -6.038884      -164.3264
  21   2.0000      -6.036827      -164.2704
  22   2.0000      -6.034780      -164.2147
  23   2.0000      -6.031256      -164.1188
  24   2.0000      -1.003346       -27.3024
  25   2.0000      -0.977995       -26.6126
  26   2.0000      -0.912452       -24.8291
  27   2.0000      -0.909588       -24.7512
  28   2.0000      -0.863674       -23.5018
  29   2.0000      -0.855005       -23.2659
  30   2.0000      -0.849158       -23.1068
  31   2.0000      -0.812038       -22.0967
  32   2.0000      -0.782187       -21.2844
  33   2.0000      -0.769035       -20.9265
  34   2.0000      -0.707187       -19.2435
  35   2.0000      -0.699156       -19.0250
  36   2.0000      -0.685487       -18.6531
  37   2.0000      -0.662768       -18.0348
  38   2.0000      -0.640626       -17.4323
  39   2.0000      -0.615528       -16.7494
  40   2.0000      -0.584080       -15.8936
  41   2.0000      -0.573806       -15.6141
  42   2.0000      -0.571103       -15.5405
  43   2.0000      -0.566831       -15.4242
  44   2.0000      -0.532109       -14.4794
  45   2.0000      -0.527308       -14.3488
  46   2.0000      -0.521318       -14.1858
  47   2.0000      -0.506922       -13.7940
  48   2.0000      -0.498957       -13.5773
  49   2.0000      -0.496608       -13.5134
  50   2.0000      -0.490952       -13.3595
  51   2.0000      -0.484379       -13.1806
  52   2.0000      -0.470399       -12.8002
  53   2.0000      -0.458960       -12.4889
  54   2.0000      -0.458204       -12.4684
  55   2.0000      -0.449513       -12.2319
  56   2.0000      -0.444661       -12.0998
  57   2.0000      -0.439063       -11.9475
  58   2.0000      -0.431892       -11.7524
  59   2.0000      -0.430005       -11.7010
  60   2.0000      -0.421563       -11.4713
  61   2.0000      -0.419172       -11.4062
  62   2.0000      -0.414334       -11.2746
  63   2.0000      -0.348122        -9.4729
  64   2.0000      -0.333104        -9.0642
  65   2.0000      -0.329615        -8.9693
  66   2.0000      -0.290346        -7.9007
  67   0.0000       0.028581         0.7777
  68   0.0000       0.072373         1.9694
  69   0.0000       0.105047         2.8585
  70   0.0000       0.111555         3.0356
  71   0.0000       0.129606         3.5268

MULLIKEN ATOMIC CHARGES
-----------------------
   0 S :    0.111381
   1 C :   -0.156347
   2 C :   -0.047311
   3 C :    0.040887
   4 C :   -0.155782
   5 H :   -0.041089
   6 C :    0.037007
   7 H :    0.043957
   8 H :    0.022922
   9 C :   -0.100703
  10 H :    0.032251
  11 H :    0.034038
  12 C :   -0.036098
  13 H :    0.032458
  14 H :    0.042513
  15 H :    0.031958
  16 S :    0.118354
  17 C :   -0.120059
  18 C :   -0.036601
  19 C :   -0.046007
  20 C :   -0.125649
  21 H :    0.019565
  22 C :    0.052005
  23 H :    0.019128
  24 H :    0.026644
  25 C :   -0.076142
  26 H :    0.039752
  27 H :    0.051537
  28 C :   -0.017596
  29 H :    0.035920
  30 H :   -0.002658
  31 H :    0.025830
  32 H :    0.066366
  33 H :    0.077569
Sum of atomic charges:   -0.0000000

LOEWDIN ATOMIC CHARGES
----------------------
   0 S :    0.418926
   1 C :   -0.214821
   2 C :   -0.063194
   3 C :   -0.059145
   4 C :   -0.185971
   5 H :    0.016021
   6 C :   -0.031651
   7 H :    0.043019
   8 H :    0.024365
   9 C :   -0.045880
  10 H :    0.026019
  11 H :    0.021553
  12 C :   -0.063752
  13 H :    0.024347
  14 H :    0.032421
  15 H :    0.024891
  16 S :    0.380239
  17 C :   -0.185520
  18 C :   -0.067403
  19 C :   -0.056363
  20 C :   -0.198449
  21 H :    0.031288
  22 C :   -0.035155
  23 H :    0.023175
  24 H :    0.035271
  25 C :   -0.040497
  26 H :    0.029804
  27 H :    0.032206
  28 C :   -0.061800
  29 H :    0.026372
  30 H :    0.008014
  31 H :    0.028455
  32 H :    0.035474
  33 H :    0.047743

  Mayer bond orders larger than 0.100000
B(  0-S ,  1-C ) :   1.1408 B(  0-S ,  4-C ) :   1.1673 B(  1-C ,  2-C ) :   1.6153
B(  1-C , 32-H ) :   0.9590 B(  2-C ,  3-C ) :   1.2452 B(  2-C ,  6-C ) :   1.0084
B(  3-C ,  4-C ) :   1.5616 B(  3-C ,  5-H ) :   1.0062 B(  4-C , 20-C ) :   1.0218
B(  6-C ,  7-H ) :   0.9437 B(  6-C ,  8-H ) :   0.9372 B(  6-C ,  9-C ) :   1.0777
B(  9-C , 10-H ) :   0.9511 B(  9-C , 11-H ) :   0.9570 B(  9-C , 12-C ) :   1.0856
B( 12-C , 13-H ) :   0.9755 B( 12-C , 14-H ) :   0.9767 B( 12-C , 15-H ) :   0.9740
B( 16-S , 17-C ) :   1.1317 B( 16-S , 20-C ) :   1.1207 B( 17-C , 18-C ) :   1.6400
B( 17-C , 33-H ) :   0.9551 B( 18-C , 19-C ) :   1.2227 B( 18-C , 21-H ) :   0.9894
B( 19-C , 20-C ) :   1.6095 B( 19-C , 22-C ) :   1.0498 B( 22-C , 23-H ) :   0.9311
B( 22-C , 24-H ) :   0.9258 B( 22-C , 25-C ) :   1.0658 B( 25-C , 26-H ) :   0.9515
B( 25-C , 27-H ) :   0.9488 B( 25-C , 28-C ) :   1.0821 B( 28-C , 29-H ) :   0.9734
B( 28-C , 30-H ) :   0.9723 B( 28-C , 31-H ) :   0.9699

Dispersion correction           -0.014125764
FINAL SINGLE POINT ENERGY     -1339.873093281847

DIPOLE MOMENT
-------------
                                X             Y             Z
Electronic contribution:     12.07478       1.01270      29.56059
Nuclear contribution   :    -12.12334      -1.15635     -30.29611
                        -----------------------------------------
Total Dipole Moment    :     -0.04856      -0.14365      -0.73551
                        -----------------------------------------
Magnitude (a.u.)       :      0.75098
Magnitude (Debye)      :      1.90885

Rotational constants in cm-1:     0.019805     0.008233     0.006087
Rotational constants in MHz :   593.725369   246.822341   182.487072

                             ****ORCA TERMINATED NORMALLY****
TOTAL RUN TIME: 0 days 0 hours 0 minutes 35 seconds 51 msec
