                         Program Version 4.2.1 -  RELEASE  -
|  1> ! wB97X-D3 SP def2-SVP
|  2> %pal
|  3> nprocs 16
|  4> end
|  5>
|  6> * xyz 0 1
|  7> S 	 24.1103 	 0.671057 	 84.8816
|  8> C 	 24.2566 	 2.36588 	 84.8579
|  9> C 	 23.0996 	 3.01056 	 84.4344
| 10> C 	 22.0489 	 2.10298 	 84.2192
| 11> C 	 22.3542 	 0.814045 	 84.6132
| 12> H 	 21.1132 	 2.46145 	 83.9724
| 13> C 	 23.0356 	 4.44173 	 84.0961
| 14> H 	 23.7285 	 5.07719 	 84.5404
| 15> H 	 22.0415 	 4.81166 	 84.3656
| 16> C 	 23.3299 	 4.83277 	 82.6518
| 17> H 	 24.3472 	 4.56748 	 82.3276
| 18> H 	 22.5361 	 4.42522 	 81.9717
| 19> C 	 23.4089 	 6.39516 	 82.4747
| 20> H 	 24.0446 	 6.77123 	 83.2564
| 21> H 	 23.8432 	 6.69158 	 81.5138
| 22> H 	 22.3916 	 6.88074 	 82.5629
| 23> S 	 21.5852 	 -1.46486 	 85.9685
| 24> C 	 20.6968 	 -2.66675 	 85.1459
| 25> C 	 20.074 	 -2.11283 	 84.051
| 26> C 	 20.5948 	 -0.813836 	 83.6303
| 27> C 	 21.4778 	 -0.344483 	 84.5983
| 28> H 	 19.422 	 -2.71652 	 83.3974
| 29> C 	 20.2186 	 -0.0562879 	 82.3484
| 30> H 	 20.671 	 0.978026 	 82.4253
| 31> H 	 19.1477 	 0.15027 	 82.3832
| 32> C 	 20.6487 	 -0.8358 	 81.0688
| 33> H 	 19.7367 	 -1.54847 	 80.9612
| 34> H 	 21.5026 	 -1.49562 	 81.1088
| 35> C 	 20.716 	 -0.05057 	 79.7053
| 36> H 	 21.7425 	 0.383587 	 79.6651
| 37> H 	 19.9603 	 0.720197 	 79.5791
| 38> H 	 20.5827 	 -0.633913 	 78.8502
| 39> H 	 25.1511 	 2.89843 	 85.0582
| 40> H 	 20.638 	 -3.71696 	 85.3739
| 41> *
| 42>
| 43>                          ****END OF INPUT****

CARTESIAN COORDINATES (ANGSTROEM)
---------------------------------
  S     24.110300    0.671057   84.881600
  C     24.256600    2.365880   84.857900
  C     23.099600    3.010560   84.434400
  C     22.048900    2.102980   84.219200
  C     22.354200    0.814045   84.613200
  H     21.113200    2.461450   83.972400
  C     23.035600    4.441730   84.096100
  H     23.728500    5.077190   84.540400
  H     22.041500    4.811660   84.365600
  C     23.329900    4.832770   82.651800
  H     24.347200    4.567480   82.327600
  H     22.536100    4.425220   81.971700
  C     23.408900    6.395160   82.474700
  H     24.044600    6.771230   83.256400
  H     23.843200    6.691580   81.513800
  H     22.391600    6.880740   82.562900
  S     21.585200   -1.464860   85.968500
  C     20.696800   -2.666750   85.145900
  C     20.074000   -2.112830   84.051000
  C     20.594800   -0.813836   83.630300
  C     21.477800   -0.344483   84.598300
  H     19.422000   -2.716520   83.397400
  C     20.218600   -0.056288   82.348400
  H     20.671000    0.978026   82.425300
  H     19.147700    0.150270   82.383200
  C     20.648700   -0.835800   81.068800
  H     19.736700   -1.548470   80.961200
  H     21.502600   -1.495620   81.108800
  C     20.716000   -0.050570   79.705300
  H     21.742500    0.383587   79.665100
  H     19.960300    0.720197   79.579100
  H     20.582700   -0.633913   78.850200
  H     25.151100    2.898430   85.058200
  H     20.638000   -3.716960   85.373900

 Total Charge           Charge          ....    0
 Multiplicity           Mult            ....    1
 Number of Electrons    NEL             ....  134
 Basis Dimension        Dim             ....  322

ORBITAL ENERGIES
----------------

  NO   OCC          E(Eh)            E(eV)
   0   2.0000     -88.967602     -2420.9315
   1   2.0000     -88.961358     -2420.7616
   2   2.0000     -10.329307      -281.0747
   3   2.0000     -10.324498      -280.9439
   4   2.0000     -10.313521      -280.6452
   5   2.0000     -10.307835      -280.4904
   6   2.0000     -10.307166      -280.4722
   7   2.0000     -10.302329      -280.3406
   8   2.0000     -10.297113      -280.1987
   9   2.0000     -10.295412      -280.1524
  10   2.0000     -10.293623      -280.1037
  11   2.0000     -10.292254      -280.0665
  12   2.0000     -10.288143      -279.9546
  13   2.0000     -10.284261      -279.8490
  14   2.0000     -10.284223      -279.8479
  15   2.0000     -10.277915      -279.6763
  16   2.0000      -8.082584      -219.9383
  17   2.0000      -8.076765      -219.7799
  18   2.0000      -6.040968      -164.3831
  19   2.0000      -6.037147      -164.2791
  20   2.0000      -6.035282      -164.2284
  21   2.0000      -6.033368      -164.1763
  22   2.0000      -6.031179      -164.1167
  23   2.0000      -6.027462      -164.0156
  24   2.0000      -1.007776       -27.4230
  25   2.0000      -0.986885       -26.8545
  26   2.0000      -0.916445       -24.9377
  27   2.0000      -0.900305       -24.4986
  28   2.0000      -0.868569       -23.6350
  29   2.0000      -0.855342       -23.2750
  30   2.0000      -0.843254       -22.9461
  31   2.0000      -0.813521       -22.1370
  32   2.0000      -0.783910       -21.3313
  33   2.0000      -0.769908       -20.9503
  34   2.0000      -0.705476       -19.1970
  35   2.0000      -0.697567       -18.9818
  36   2.0000      -0.694055       -18.8862
  37   2.0000      -0.656779       -17.8719
  38   2.0000      -0.643422       -17.5084
  39   2.0000      -0.632793       -17.2192
  40   2.0000      -0.594239       -16.1701
  41   2.0000      -0.572381       -15.5753
  42   2.0000      -0.565318       -15.3831
  43   2.0000      -0.555006       -15.1025
  44   2.0000      -0.525693       -14.3048
  45   2.0000      -0.521355       -14.1868
  46   2.0000      -0.520361       -14.1597
  47   2.0000      -0.508838       -13.8462
  48   2.0000      -0.505625       -13.7588
  49   2.0000      -0.499241       -13.5850
  50   2.0000      -0.492379       -13.3983
  51   2.0000      -0.484800       -13.1921
  52   2.0000      -0.471654       -12.8344
  53   2.0000      -0.462253       -12.5785
  54   2.0000      -0.459550       -12.5050
  55   2.0000      -0.449757       -12.2385
  56   2.0000      -0.445568       -12.1245
  57   2.0000      -0.443216       -12.0605
  58   2.0000      -0.438217       -11.9245
  59   2.0000      -0.424382       -11.5480
  60   2.0000      -0.420016       -11.4292
  61   2.0000      -0.415954       -11.3187
  62   2.0000      -0.398638       -10.8475
  63   2.0000      -0.346492        -9.4285
  64   2.0000      -0.331884        -9.0310
  65   2.0000      -0.324291        -8.8244
  66   2.0000      -0.288870        -7.8605
  67   0.0000       0.023751         0.6463
  68   0.0000       0.075900         2.0653
  69   0.0000       0.107840         2.9345
  70   0.0000       0.114945         3.1278
  71   0.0000       0.132358         3.6016

MULLIKEN ATOMIC CHARGES
-----------------------
   0 S :    0.130179
   1 C :   -0.100833
   2 C :   -0.064912
   3 C :    0.048524
   4 C :   -0.130816
   5 H :   -0.013517
   6 C :    0.094773
   7 H :   -0.012047
   8 H :    0.017701
   9 C :   -0.092309
  10 H :    0.031510
  11 H :    0.035704
  12 C :   -0.074708
  13 H :    0.025059
  14 H :    0.041348
  15 H :    0.038883
  16 S :    0.111496
  17 C :   -0.093369
  18 C :   -0.033411
  19 C :   -0.049168
  20 C :   -0.182934
  21 H :    0.022967
  22 C :    0.083889
  23 H :    0.021693
  24 H :    0.041236
  25 C :   -0.124349
  26 H :    0.032502
  27 H :    0.047238
  28 C :   -0.032590
  29 H :    0.043617
  30 H :    0.023864
  31 H :    0.022013
  32 H :    0.030018
  33 H :    0.060747
Sum of atomic charges:    0.0000000

LOEWDIN ATOMIC CHARGES
----------------------
   0 S :    0.422560
   1 C :   -0.200995
   2 C :   -0.064972
   3 C :   -0.048421
   4 C :   -0.183861
   5 H :    0.017920
   6 C :   -0.034923
   7 H :    0.020983
   8 H :    0.031017
   9 C :   -0.035410
  10 H :    0.025561
  11 H :    0.023431
  12 C :   -0.069189
  13 H :    0.018431
  14 H :    0.027073
  15 H :    0.028016
  16 S :    0.406547
  17 C :   -0.196423
  18 C :   -0.076763
  19 C :   -0.048520
  20 C :   -0.198278
  21 H :    0.029356
  22 C :   -0.033443
  23 H :    0.033071
  24 H :    0.035542
  25 C :   -0.044796
  26 H :    0.029784
  27 H :    0.026170
  28 C :   -0.066221
  29 H :    0.031941
  30 H :    0.023473
  31 H :    0.018188
  32 H :    0.020072
  33 H :    0.033081

  Mayer bond orders larger than 0.100000
B(  0-S ,  1-C ) :   1.1584 B(  0-S ,  4-C ) :   1.1525 B(  1-C ,  2-C ) :   1.5728
B(  1-C , 32-H ) :   0.9702 B(  2-C ,  3-C ) :   1.2788 B(  2-C ,  6-C ) :   1.0535
B(  3-C ,  4-C ) :   1.5306 B(  3-C ,  5-H ) :   0.9991 B(  4-C , 20-C ) :   1.0636
B(  6-C ,  7-H ) :   0.9328 B(  6-C ,  8-H ) :   0.9313 B(  6-C ,  9-C ) :   1.0585
B(  9-C , 10-H ) :   0.9582 B(  9-C , 11-H ) :   0.9557 B(  9-C , 12-C ) :   1.0729
B( 12-C , 13-H ) :   0.9735 B( 12-C , 14-H ) :   0.9775 B( 12-C , 15-H ) :   0.9763
B( 16-S , 17-C ) :   1.1537 B( 16-S , 20-C ) :   1.1361 B( 17-C , 18-C ) :   1.6140
B( 17-C , 33-H ) :   0.9702 B( 18-C , 19-C ) :   1.2276 B( 18-C , 21-H ) :   0.9804
B( 19-C , 20-C ) :   1.5996 B( 19-C , 22-C ) :   1.0383 B( 22-C , 23-H ) :   0.9363
B( 22-C , 24-H ) :   0.9340 B( 22-C , 25-C ) :   1.0273 B( 25-C , 26-H ) :   0.9577
B( 25-C , 27-H ) :   0.9705 B( 25-C , 28-C ) :   1.0776 B( 28-C , 29-H ) :   0.9777
B( 28-C , 30-H ) :   0.9749 B( 28-C , 31-H ) :   0.9764

Dispersion correction           -0.013609637
FINAL SINGLE POINT ENERGY     -1339.863017918207

DIPOLE MOMENT
-------------
                                X             Y             Z
Electronic contribution:      4.87009     -19.58912      24.05031
Nuclear contribution   :     -5.01486      19.89410     -24.65117
                        -----------------------------------------
Total Dipole Moment    :     -0.14478       0.30498      -0.60086
                        -----------------------------------------
Magnitude (a.u.)       :      0.68921
Magnitude (Debye)      :      1.75182

Rotational constants in cm-1:     0.018086     0.008521     0.006372
Rotational constants in MHz :   542.215126   255.460681   191.028995

                             ****ORCA TERMINATED NORMALLY****
TOTAL RUN TIME: 0 days 0 hours 0 minutes 33 seconds 851 msec
