                         Program Version 4.2.1 -  RELEASE  -
|  1> ! wB97X-D3 SP def2-SVP
|  2> %pal
|  3> nprocs 16
|  4> end
|  5>
|  6> * xyz 0 1
|  7> S 	 45.8846 	 15.9827 	 80.7076
|  8> C 	 45.3296 	 17.5142 	 80.1078
|  9> C 	 44.1606 	 17.8649 	 80.7596
| 10> C 	 43.6874 	 16.9024 	 81.6973
| 11> C 	 44.5458 	 15.8244 	 81.8318
| 12> H 	 42.6942 	 16.8132 	 82.2227
| 13> C 	 43.306 	 19.1233 	 80.4128
| 14> H 	 43.9685 	 19.766 	 79.8426
| 15> H 	 43.1116 	 19.6089 	 81.3732
| 16> C 	 41.9804 	 18.7454 	 79.6119
| 17> H 	 42.3785 	 18.1696 	 78.7578
| 18> H 	 41.3579 	 17.9982 	 80.1451
| 19> C 	 41.2457 	 19.9475 	 79.1067
| 20> H 	 40.8117 	 20.6333 	 79.8568
| 21> H 	 41.8815 	 20.609 	 78.4658
| 22> H 	 40.3978 	 19.6518 	 78.5106
| 23> S 	 43.3862 	 13.4824 	 82.5797
| 24> C 	 43.8868 	 12.6331 	 84.007
| 25> C 	 44.7294 	 13.4497 	 84.6869
| 26> C 	 45.0622 	 14.6525 	 84.0369
| 27> C 	 44.4849 	 14.7969 	 82.8267
| 28> H 	 45.1156 	 13.3017 	 85.6629
| 29> C 	 45.959 	 15.7378 	 84.619
| 30> H 	 46.3169 	 16.3314 	 83.8048
| 31> H 	 46.8159 	 15.1768 	 84.9874
| 32> C 	 45.429 	 16.6195 	 85.7506
| 33> H 	 46.2714 	 17.1871 	 86.1778
| 34> H 	 45.0367 	 15.9923 	 86.5449
| 35> C 	 44.3427 	 17.5928 	 85.1798
| 36> H 	 44.6784 	 18.3751 	 84.4746
| 37> H 	 43.7231 	 18.0241 	 85.9233
| 38> H 	 43.5824 	 16.9629 	 84.6568
| 39> H 	 45.6392 	 18.0111 	 79.1802
| 40> H 	 43.5488 	 11.6567 	 84.4079
| 41> *
| 42>
| 43>                          ****END OF INPUT****

CARTESIAN COORDINATES (ANGSTROEM)
---------------------------------
  S     45.884600   15.982700   80.707600
  C     45.329600   17.514200   80.107800
  C     44.160600   17.864900   80.759600
  C     43.687400   16.902400   81.697300
  C     44.545800   15.824400   81.831800
  H     42.694200   16.813200   82.222700
  C     43.306000   19.123300   80.412800
  H     43.968500   19.766000   79.842600
  H     43.111600   19.608900   81.373200
  C     41.980400   18.745400   79.611900
  H     42.378500   18.169600   78.757800
  H     41.357900   17.998200   80.145100
  C     41.245700   19.947500   79.106700
  H     40.811700   20.633300   79.856800
  H     41.881500   20.609000   78.465800
  H     40.397800   19.651800   78.510600
  S     43.386200   13.482400   82.579700
  C     43.886800   12.633100   84.007000
  C     44.729400   13.449700   84.686900
  C     45.062200   14.652500   84.036900
  C     44.484900   14.796900   82.826700
  H     45.115600   13.301700   85.662900
  C     45.959000   15.737800   84.619000
  H     46.316900   16.331400   83.804800
  H     46.815900   15.176800   84.987400
  C     45.429000   16.619500   85.750600
  H     46.271400   17.187100   86.177800
  H     45.036700   15.992300   86.544900
  C     44.342700   17.592800   85.179800
  H     44.678400   18.375100   84.474600
  H     43.723100   18.024100   85.923300
  H     43.582400   16.962900   84.656800
  H     45.639200   18.011100   79.180200
  H     43.548800   11.656700   84.407900

 Total Charge           Charge          ....    0
 Multiplicity           Mult            ....    1
 Number of Electrons    NEL             ....  134
 Basis Dimension        Dim             ....  322

ORBITAL ENERGIES
----------------

  NO   OCC          E(Eh)            E(eV)
   0   2.0000     -88.966807     -2420.9099
   1   2.0000     -88.960685     -2420.7433
   2   2.0000     -10.327239      -281.0185
   3   2.0000     -10.318329      -280.7760
   4   2.0000     -10.316400      -280.7235
   5   2.0000     -10.316299      -280.7208
   6   2.0000     -10.303318      -280.3675
   7   2.0000     -10.298984      -280.2496
   8   2.0000     -10.297090      -280.1981
   9   2.0000     -10.294503      -280.1277
  10   2.0000     -10.292175      -280.0643
  11   2.0000     -10.288676      -279.9691
  12   2.0000     -10.285184      -279.8741
  13   2.0000     -10.282143      -279.7913
  14   2.0000     -10.281111      -279.7633
  15   2.0000     -10.273630      -279.5597
  16   2.0000      -8.081316      -219.9038
  17   2.0000      -8.076319      -219.7678
  18   2.0000      -6.039797      -164.3512
  19   2.0000      -6.035666      -164.2388
  20   2.0000      -6.034901      -164.2180
  21   2.0000      -6.032286      -164.1469
  22   2.0000      -6.030556      -164.0998
  23   2.0000      -6.027065      -164.0048
  24   2.0000      -1.015116       -27.6227
  25   2.0000      -0.990021       -26.9398
  26   2.0000      -0.906335       -24.6626
  27   2.0000      -0.903836       -24.5946
  28   2.0000      -0.875964       -23.8362
  29   2.0000      -0.848598       -23.0915
  30   2.0000      -0.843132       -22.9428
  31   2.0000      -0.817146       -22.2357
  32   2.0000      -0.778859       -21.1938
  33   2.0000      -0.770539       -20.9674
  34   2.0000      -0.709350       -19.3024
  35   2.0000      -0.700260       -19.0550
  36   2.0000      -0.696075       -18.9412
  37   2.0000      -0.665701       -18.1146
  38   2.0000      -0.640664       -17.4333
  39   2.0000      -0.613167       -16.6851
  40   2.0000      -0.595229       -16.1970
  41   2.0000      -0.567978       -15.4555
  42   2.0000      -0.556279       -15.1371
  43   2.0000      -0.547871       -14.9083
  44   2.0000      -0.542052       -14.7500
  45   2.0000      -0.524930       -14.2841
  46   2.0000      -0.518604       -14.1119
  47   2.0000      -0.511065       -13.9068
  48   2.0000      -0.506142       -13.7728
  49   2.0000      -0.502133       -13.6637
  50   2.0000      -0.488904       -13.3038
  51   2.0000      -0.478072       -13.0090
  52   2.0000      -0.472275       -12.8513
  53   2.0000      -0.467421       -12.7192
  54   2.0000      -0.462847       -12.5947
  55   2.0000      -0.446324       -12.1451
  56   2.0000      -0.437373       -11.9015
  57   2.0000      -0.433441       -11.7945
  58   2.0000      -0.429997       -11.7008
  59   2.0000      -0.428704       -11.6656
  60   2.0000      -0.417675       -11.3655
  61   2.0000      -0.416101       -11.3227
  62   2.0000      -0.408236       -11.1087
  63   2.0000      -0.336707        -9.1623
  64   2.0000      -0.332463        -9.0468
  65   2.0000      -0.323898        -8.8137
  66   2.0000      -0.309017        -8.4088
  67   0.0000       0.045866         1.2481
  68   0.0000       0.054385         1.4799
  69   0.0000       0.118018         3.2114
  70   0.0000       0.125596         3.4177
  71   0.0000       0.132433         3.6037

MULLIKEN ATOMIC CHARGES
-----------------------
   0 S :    0.120230
   1 C :   -0.117457
   2 C :   -0.123326
   3 C :    0.038539
   4 C :   -0.192362
   5 H :    0.045598
   6 C :    0.069268
   7 H :    0.013005
   8 H :    0.035024
   9 C :   -0.080099
  10 H :    0.030470
  11 H :    0.039511
  12 C :   -0.038930
  13 H :    0.031869
  14 H :    0.030834
  15 H :    0.031514
  16 S :    0.103045
  17 C :   -0.082011
  18 C :   -0.014538
  19 C :   -0.044406
  20 C :   -0.189954
  21 H :   -0.005869
  22 C :    0.084110
  23 H :    0.016231
  24 H :    0.017696
  25 C :   -0.037450
  26 H :    0.036794
  27 H :    0.022247
  28 C :   -0.058034
  29 H :    0.046723
  30 H :    0.017559
  31 H :    0.023642
  32 H :    0.061112
  33 H :    0.069415
Sum of atomic charges:    0.0000000

LOEWDIN ATOMIC CHARGES
----------------------
   0 S :    0.416196
   1 C :   -0.212387
   2 C :   -0.066775
   3 C :   -0.063304
   4 C :   -0.199321
   5 H :    0.044217
   6 C :   -0.025408
   7 H :    0.023896
   8 H :    0.029021
   9 C :   -0.043520
  10 H :    0.029742
  11 H :    0.027731
  12 C :   -0.073035
  13 H :    0.026866
  14 H :    0.029614
  15 H :    0.026074
  16 S :    0.417600
  17 C :   -0.191177
  18 C :   -0.073266
  19 C :   -0.060423
  20 C :   -0.212630
  21 H :    0.023663
  22 C :   -0.028296
  23 H :    0.024457
  24 H :    0.029340
  25 C :   -0.032873
  26 H :    0.027667
  27 H :    0.022060
  28 C :   -0.071817
  29 H :    0.030223
  30 H :    0.017367
  31 H :    0.028223
  32 H :    0.037434
  33 H :    0.042837

  Mayer bond orders larger than 0.100000
B(  0-S ,  1-C ) :   1.1420 B(  0-S ,  4-C ) :   1.1564 B(  1-C ,  2-C ) :   1.6099
B(  1-C ,  4-C ) :   0.1029 B(  1-C , 32-H ) :   0.9623 B(  2-C ,  3-C ) :   1.2436
B(  2-C ,  6-C ) :   1.0217 B(  3-C ,  4-C ) :   1.5915 B(  3-C ,  5-H ) :   0.9767
B(  4-C , 20-C ) :   0.9965 B(  6-C ,  7-H ) :   0.9454 B(  6-C ,  8-H ) :   0.9412
B(  6-C ,  9-C ) :   1.0454 B(  9-C , 10-H ) :   0.9528 B(  9-C , 11-H ) :   0.9578
B(  9-C , 12-C ) :   1.0898 B( 12-C , 13-H ) :   0.9732 B( 12-C , 14-H ) :   0.9721
B( 12-C , 15-H ) :   0.9716 B( 16-S , 17-C ) :   1.1550 B( 16-S , 20-C ) :   1.1458
B( 17-C , 18-C ) :   1.5776 B( 17-C , 33-H ) :   0.9661 B( 18-C , 19-C ) :   1.2718
B( 18-C , 21-H ) :   0.9917 B( 19-C , 20-C ) :   1.6122 B( 19-C , 22-C ) :   1.0376
B( 22-C , 23-H ) :   0.9276 B( 22-C , 24-H ) :   0.9272 B( 22-C , 25-C ) :   1.0792
B( 25-C , 26-H ) :   0.9552 B( 25-C , 27-H ) :   0.9555 B( 25-C , 28-C ) :   1.0682
B( 28-C , 29-H ) :   0.9757 B( 28-C , 30-H ) :   0.9713 B( 28-C , 31-H ) :   0.9723

Dispersion correction           -0.015678962
FINAL SINGLE POINT ENERGY     -1339.887296513444

DIPOLE MOMENT
-------------
                                X             Y             Z
Electronic contribution:      8.34090     -22.04811      -3.82677
Nuclear contribution   :     -8.57474      22.42384       4.03035
                        -----------------------------------------
Total Dipole Moment    :     -0.23384       0.37574       0.20357
                        -----------------------------------------
Magnitude (a.u.)       :      0.48714
Magnitude (Debye)      :      1.23820

Rotational constants in cm-1:     0.020721     0.008074     0.007516
Rotational constants in MHz :   621.186131   242.058855   225.324315

                             ****ORCA TERMINATED NORMALLY****
TOTAL RUN TIME: 0 days 0 hours 0 minutes 31 seconds 452 msec
