                         Program Version 4.2.1 -  RELEASE  -
|  1> ! wB97X-D3 SP def2-SVP
|  2> %pal
|  3> nprocs 16
|  4> end
|  5>
|  6> * xyz 0 1
|  7> S 	 -15.9695 	 56.5604 	 60.255
|  8> C 	 -15.7205 	 54.8642 	 59.9265
|  9> C 	 -14.8055 	 54.2136 	 60.7631
| 10> C 	 -14.3828 	 55.1213 	 61.8193
| 11> C 	 -14.917 	 56.3768 	 61.6537
| 12> H 	 -13.6928 	 54.9368 	 62.5864
| 13> C 	 -14.5405 	 52.6966 	 60.7281
| 14> H 	 -13.5226 	 52.5137 	 61.0149
| 15> H 	 -14.6215 	 52.2893 	 59.6959
| 16> C 	 -15.4739 	 51.9439 	 61.5938
| 17> H 	 -16.5158 	 52.1218 	 61.3064
| 18> H 	 -15.3159 	 50.8746 	 61.4236
| 19> C 	 -15.3652 	 52.0778 	 63.1384
| 20> H 	 -15.9628 	 51.3046 	 63.6731
| 21> H 	 -14.3335 	 51.9233 	 63.468
| 22> H 	 -15.7009 	 53.0621 	 63.4507
| 23> S 	 -13.8967 	 58.8567 	 61.7776
| 24> C 	 -13.5125 	 59.6235 	 63.2822
| 25> C 	 -14.1929 	 58.9701 	 64.3186
| 26> C 	 -14.8684 	 57.7615 	 63.9163
| 27> C 	 -14.6087 	 57.4804 	 62.5724
| 28> H 	 -14.0142 	 59.2932 	 65.358
| 29> C 	 -15.526 	 56.786 	 64.8462
| 30> H 	 -15.313 	 55.7765 	 64.6186
| 31> H 	 -16.585 	 56.8217 	 64.4975
| 32> C 	 -15.5917 	 57.0491 	 66.3088
| 33> H 	 -16.0611 	 58.0414 	 66.5149
| 34> H 	 -14.6353 	 57.1455 	 66.7531
| 35> C 	 -16.2888 	 55.9121 	 67.0901
| 36> H 	 -16.6727 	 56.2462 	 68.0972
| 37> H 	 -15.5752 	 55.111 	 67.1742
| 38> H 	 -17.1801 	 55.534 	 66.6489
| 39> H 	 -16.283 	 54.4102 	 59.1431
| 40> H 	 -12.8719 	 60.5075 	 63.4277
| 41> *
| 42>
| 43>                          ****END OF INPUT****

CARTESIAN COORDINATES (ANGSTROEM)
---------------------------------
  S    -15.969500   56.560400   60.255000
  C    -15.720500   54.864200   59.926500
  C    -14.805500   54.213600   60.763100
  C    -14.382800   55.121300   61.819300
  C    -14.917000   56.376800   61.653700
  H    -13.692800   54.936800   62.586400
  C    -14.540500   52.696600   60.728100
  H    -13.522600   52.513700   61.014900
  H    -14.621500   52.289300   59.695900
  C    -15.473900   51.943900   61.593800
  H    -16.515800   52.121800   61.306400
  H    -15.315900   50.874600   61.423600
  C    -15.365200   52.077800   63.138400
  H    -15.962800   51.304600   63.673100
  H    -14.333500   51.923300   63.468000
  H    -15.700900   53.062100   63.450700
  S    -13.896700   58.856700   61.777600
  C    -13.512500   59.623500   63.282200
  C    -14.192900   58.970100   64.318600
  C    -14.868400   57.761500   63.916300
  C    -14.608700   57.480400   62.572400
  H    -14.014200   59.293200   65.358000
  C    -15.526000   56.786000   64.846200
  H    -15.313000   55.776500   64.618600
  H    -16.585000   56.821700   64.497500
  C    -15.591700   57.049100   66.308800
  H    -16.061100   58.041400   66.514900
  H    -14.635300   57.145500   66.753100
  C    -16.288800   55.912100   67.090100
  H    -16.672700   56.246200   68.097200
  H    -15.575200   55.111000   67.174200
  H    -17.180100   55.534000   66.648900
  H    -16.283000   54.410200   59.143100
  H    -12.871900   60.507500   63.427700

 Total Charge           Charge          ....    0
 Multiplicity           Mult            ....    1
 Number of Electrons    NEL             ....  134
 Basis Dimension        Dim             ....  322

ORBITAL ENERGIES
----------------

  NO   OCC          E(Eh)            E(eV)
   0   2.0000     -88.969640     -2420.9870
   1   2.0000     -88.960336     -2420.7338
   2   2.0000     -10.328140      -281.0430
   3   2.0000     -10.321187      -280.8538
   4   2.0000     -10.317071      -280.7418
   5   2.0000     -10.313425      -280.6425
   6   2.0000     -10.307414      -280.4790
   7   2.0000     -10.306280      -280.4481
   8   2.0000     -10.296545      -280.1832
   9   2.0000     -10.294707      -280.1332
  10   2.0000     -10.293714      -280.1062
  11   2.0000     -10.286341      -279.9056
  12   2.0000     -10.284790      -279.8634
  13   2.0000     -10.284736      -279.8619
  14   2.0000     -10.281210      -279.7660
  15   2.0000     -10.279471      -279.7186
  16   2.0000      -8.084358      -219.9866
  17   2.0000      -8.075706      -219.7511
  18   2.0000      -6.042747      -164.4315
  19   2.0000      -6.039039      -164.3306
  20   2.0000      -6.035074      -164.2227
  21   2.0000      -6.034123      -164.1968
  22   2.0000      -6.030069      -164.0865
  23   2.0000      -6.026589      -163.9918
  24   2.0000      -1.005032       -27.3483
  25   2.0000      -0.981191       -26.6996
  26   2.0000      -0.916360       -24.9354
  27   2.0000      -0.914397       -24.8820
  28   2.0000      -0.865246       -23.5446
  29   2.0000      -0.851022       -23.1575
  30   2.0000      -0.845630       -23.0108
  31   2.0000      -0.812736       -22.1157
  32   2.0000      -0.785075       -21.3630
  33   2.0000      -0.772392       -21.0179
  34   2.0000      -0.709613       -19.3096
  35   2.0000      -0.698242       -19.0001
  36   2.0000      -0.692744       -18.8505
  37   2.0000      -0.654422       -17.8077
  38   2.0000      -0.643644       -17.5145
  39   2.0000      -0.616902       -16.7868
  40   2.0000      -0.599491       -16.3130
  41   2.0000      -0.572412       -15.5761
  42   2.0000      -0.571323       -15.5465
  43   2.0000      -0.547986       -14.9115
  44   2.0000      -0.539484       -14.6801
  45   2.0000      -0.525839       -14.3088
  46   2.0000      -0.514167       -13.9912
  47   2.0000      -0.510078       -13.8799
  48   2.0000      -0.504944       -13.7402
  49   2.0000      -0.493057       -13.4168
  50   2.0000      -0.488089       -13.2816
  51   2.0000      -0.486247       -13.2314
  52   2.0000      -0.472306       -12.8521
  53   2.0000      -0.463676       -12.6173
  54   2.0000      -0.459195       -12.4953
  55   2.0000      -0.451763       -12.2931
  56   2.0000      -0.447872       -12.1872
  57   2.0000      -0.442082       -12.0297
  58   2.0000      -0.435274       -11.8444
  59   2.0000      -0.425111       -11.5679
  60   2.0000      -0.421624       -11.4730
  61   2.0000      -0.414548       -11.2804
  62   2.0000      -0.411672       -11.2022
  63   2.0000      -0.342355        -9.3159
  64   2.0000      -0.330955        -9.0058
  65   2.0000      -0.323921        -8.8143
  66   2.0000      -0.290803        -7.9131
  67   0.0000       0.039033         1.0621
  68   0.0000       0.057044         1.5522
  69   0.0000       0.111588         3.0365
  70   0.0000       0.120082         3.2676
  71   0.0000       0.130117         3.5407

MULLIKEN ATOMIC CHARGES
-----------------------
   0 S :    0.127666
   1 C :   -0.124382
   2 C :   -0.069720
   3 C :    0.030960
   4 C :   -0.145467
   5 H :    0.002850
   6 C :    0.093709
   7 H :    0.015811
   8 H :    0.031538
   9 C :   -0.072383
  10 H :    0.024800
  11 H :    0.025129
  12 C :   -0.065626
  13 H :    0.040345
  14 H :    0.023118
  15 H :    0.040546
  16 S :    0.101333
  17 C :   -0.095027
  18 C :   -0.072700
  19 C :    0.003180
  20 C :   -0.197417
  21 H :    0.030681
  22 C :    0.075444
  23 H :    0.007899
  24 H :    0.032238
  25 C :   -0.071534
  26 H :    0.031710
  27 H :    0.019626
  28 C :   -0.038719
  29 H :    0.037371
  30 H :    0.033382
  31 H :    0.018462
  32 H :    0.038907
  33 H :    0.066268
Sum of atomic charges:    0.0000000

LOEWDIN ATOMIC CHARGES
----------------------
   0 S :    0.402551
   1 C :   -0.191467
   2 C :   -0.053339
   3 C :   -0.052487
   4 C :   -0.194558
   5 H :    0.025631
   6 C :   -0.031021
   7 H :    0.026740
   8 H :    0.038928
   9 C :   -0.044630
  10 H :    0.024578
  11 H :    0.024758
  12 C :   -0.067124
  13 H :    0.032203
  14 H :    0.021423
  15 H :    0.020436
  16 S :    0.414501
  17 C :   -0.198319
  18 C :   -0.081152
  19 C :   -0.052536
  20 C :   -0.202251
  21 H :    0.033722
  22 C :   -0.040477
  23 H :    0.024758
  24 H :    0.047169
  25 C :   -0.043442
  26 H :    0.027363
  27 H :    0.016648
  28 C :   -0.059215
  29 H :    0.034378
  30 H :    0.024317
  31 H :    0.017805
  32 H :    0.017803
  33 H :    0.036306

  Mayer bond orders larger than 0.100000
B(  0-S ,  1-C ) :   1.1376 B(  0-S ,  4-C ) :   1.1428 B(  1-C ,  2-C ) :   1.6221
B(  1-C , 32-H ) :   0.9713 B(  2-C ,  3-C ) :   1.2026 B(  2-C ,  6-C ) :   1.0307
B(  3-C ,  4-C ) :   1.6046 B(  3-C ,  5-H ) :   1.0010 B(  4-C , 20-C ) :   1.0245
B(  6-C ,  7-H ) :   0.9345 B(  6-C ,  8-H ) :   0.9367 B(  6-C ,  9-C ) :   1.0840
B(  9-C , 10-H ) :   0.9518 B(  9-C , 11-H ) :   0.9524 B(  9-C , 12-C ) :   1.0803
B( 12-C , 13-H ) :   0.9729 B( 12-C , 14-H ) :   0.9743 B( 12-C , 15-H ) :   0.9740
B( 16-S , 17-C ) :   1.1671 B( 16-S , 20-C ) :   1.1509 B( 17-C , 18-C ) :   1.5918
B( 17-C , 20-C ) :   0.1076 B( 17-C , 33-H ) :   0.9655 B( 18-C , 19-C ) :   1.2420
B( 18-C , 21-H ) :   0.9817 B( 19-C , 20-C ) :   1.5825 B( 19-C , 22-C ) :   1.0295
B( 22-C , 23-H ) :   0.9417 B( 22-C , 24-H ) :   0.9059 B( 22-C , 25-C ) :   1.0851
B( 25-C , 26-H ) :   0.9468 B( 25-C , 27-H ) :   0.9517 B( 25-C , 28-C ) :   1.0781
B( 28-C , 29-H ) :   0.9738 B( 28-C , 30-H ) :   0.9768 B( 28-C , 31-H ) :   0.9771

Dispersion correction           -0.014485908
FINAL SINGLE POINT ENERGY     -1339.880457254031

DIPOLE MOMENT
-------------
                                X             Y             Z
Electronic contribution:      4.67418      21.85925     -21.17259
Nuclear contribution   :     -4.68608     -22.42446      21.62512
                        -----------------------------------------
Total Dipole Moment    :     -0.01190      -0.56520       0.45252
                        -----------------------------------------
Magnitude (a.u.)       :      0.72414
Magnitude (Debye)      :      1.84061

Rotational constants in cm-1:     0.016016     0.010059     0.006826
Rotational constants in MHz :   480.151709   301.563092   204.646201

                             ****ORCA TERMINATED NORMALLY****
TOTAL RUN TIME: 0 days 0 hours 0 minutes 33 seconds 619 msec
