                         Program Version 4.2.1 -  RELEASE  -
|  1> ! wB97X-D3 SP def2-SVP
|  2> %pal
|  3> nprocs 16
|  4> end
|  5>
|  6> * xyz 0 1
|  7> S 	 -5.45286 	 67.7344 	 48.8669
|  8> C 	 -5.71978 	 66.3488 	 47.8316
|  9> C 	 -6.57071 	 65.4145 	 48.3674
| 10> C 	 -7.01096 	 65.842 	 49.6687
| 11> C 	 -6.63236 	 67.0946 	 50.0236
| 12> H 	 -7.70817 	 65.262 	 50.392
| 13> C 	 -7.07158 	 64.1287 	 47.694
| 14> H 	 -7.71447 	 63.5732 	 48.4294
| 15> H 	 -6.18713 	 63.5366 	 47.487
| 16> C 	 -7.74591 	 64.1616 	 46.3621
| 17> H 	 -7.10856 	 64.4055 	 45.5454
| 18> H 	 -7.94242 	 63.1722 	 45.9757
| 19> C 	 -9.04042 	 64.8197 	 46.3453
| 20> H 	 -9.00027 	 65.8098 	 46.6959
| 21> H 	 -9.47448 	 64.9403 	 45.3216
| 22> H 	 -9.82005 	 64.3831 	 46.9851
| 23> S 	 -5.2278 	 67.3348 	 52.3696
| 24> C 	 -6.11229 	 67.8573 	 53.8457
| 25> C 	 -7.49212 	 67.9852 	 53.5749
| 26> C 	 -7.83159 	 67.7623 	 52.2086
| 27> C 	 -6.69951 	 67.5285 	 51.4168
| 28> H 	 -8.18567 	 68.2644 	 54.388
| 29> C 	 -9.27679 	 67.7213 	 51.8049
| 30> H 	 -9.58093 	 66.7078 	 51.7416
| 31> H 	 -9.39101 	 68.1354 	 50.8262
| 32> C 	 -10.4355 	 68.3449 	 52.6232
| 33> H 	 -10.1938 	 69.3121 	 52.7733
| 34> H 	 -10.5651 	 67.7821 	 53.5561
| 35> C 	 -11.807 	 68.375 	 51.9184
| 36> H 	 -12.165 	 67.4047 	 51.6546
| 37> H 	 -11.7713 	 68.9454 	 50.9585
| 38> H 	 -12.5822 	 68.7975 	 52.6169
| 39> H 	 -5.23505 	 66.1501 	 46.8838
| 40> H 	 -5.67055 	 67.826 	 54.8254
| 41> *
| 42>
| 43>                          ****END OF INPUT****

CARTESIAN COORDINATES (ANGSTROEM)
---------------------------------
  S     -5.452860   67.734400   48.866900
  C     -5.719780   66.348800   47.831600
  C     -6.570710   65.414500   48.367400
  C     -7.010960   65.842000   49.668700
  C     -6.632360   67.094600   50.023600
  H     -7.708170   65.262000   50.392000
  C     -7.071580   64.128700   47.694000
  H     -7.714470   63.573200   48.429400
  H     -6.187130   63.536600   47.487000
  C     -7.745910   64.161600   46.362100
  H     -7.108560   64.405500   45.545400
  H     -7.942420   63.172200   45.975700
  C     -9.040420   64.819700   46.345300
  H     -9.000270   65.809800   46.695900
  H     -9.474480   64.940300   45.321600
  H     -9.820050   64.383100   46.985100
  S     -5.227800   67.334800   52.369600
  C     -6.112290   67.857300   53.845700
  C     -7.492120   67.985200   53.574900
  C     -7.831590   67.762300   52.208600
  C     -6.699510   67.528500   51.416800
  H     -8.185670   68.264400   54.388000
  C     -9.276790   67.721300   51.804900
  H     -9.580930   66.707800   51.741600
  H     -9.391010   68.135400   50.826200
  C    -10.435500   68.344900   52.623200
  H    -10.193800   69.312100   52.773300
  H    -10.565100   67.782100   53.556100
  C    -11.807000   68.375000   51.918400
  H    -12.165000   67.404700   51.654600
  H    -11.771300   68.945400   50.958500
  H    -12.582200   68.797500   52.616900
  H     -5.235050   66.150100   46.883800
  H     -5.670550   67.826000   54.825400

 Total Charge           Charge          ....    0
 Multiplicity           Mult            ....    1
 Number of Electrons    NEL             ....  134
 Basis Dimension        Dim             ....  322

ORBITAL ENERGIES
----------------

  NO   OCC          E(Eh)            E(eV)
   0   2.0000     -88.968261     -2420.9495
   1   2.0000     -88.965631     -2420.8779
   2   2.0000     -10.326558      -280.9999
   3   2.0000     -10.323465      -280.9158
   4   2.0000     -10.320387      -280.8320
   5   2.0000     -10.315251      -280.6923
   6   2.0000     -10.304484      -280.3993
   7   2.0000     -10.302888      -280.3558
   8   2.0000     -10.299591      -280.2661
   9   2.0000     -10.297621      -280.2125
  10   2.0000     -10.296365      -280.1783
  11   2.0000     -10.284778      -279.8630
  12   2.0000     -10.284369      -279.8519
  13   2.0000     -10.281862      -279.7837
  14   2.0000     -10.277393      -279.6621
  15   2.0000     -10.267791      -279.4008
  16   2.0000      -8.082515      -219.9364
  17   2.0000      -8.079261      -219.8479
  18   2.0000      -6.041064      -164.3857
  19   2.0000      -6.037803      -164.2970
  20   2.0000      -6.037192      -164.2804
  21   2.0000      -6.034022      -164.1941
  22   2.0000      -6.033155      -164.1705
  23   2.0000      -6.029950      -164.0833
  24   2.0000      -1.004192       -27.3254
  25   2.0000      -0.977210       -26.5912
  26   2.0000      -0.922024       -25.0896
  27   2.0000      -0.909559       -24.7504
  28   2.0000      -0.869399       -23.6575
  29   2.0000      -0.852270       -23.1914
  30   2.0000      -0.847582       -23.0639
  31   2.0000      -0.810403       -22.0522
  32   2.0000      -0.785464       -21.3736
  33   2.0000      -0.773010       -21.0347
  34   2.0000      -0.710030       -19.3209
  35   2.0000      -0.706507       -19.2250
  36   2.0000      -0.695671       -18.9302
  37   2.0000      -0.653109       -17.7720
  38   2.0000      -0.637199       -17.3391
  39   2.0000      -0.609460       -16.5843
  40   2.0000      -0.595440       -16.2027
  41   2.0000      -0.580837       -15.8054
  42   2.0000      -0.571816       -15.5599
  43   2.0000      -0.560519       -15.2525
  44   2.0000      -0.544126       -14.8064
  45   2.0000      -0.521272       -14.1845
  46   2.0000      -0.514458       -13.9991
  47   2.0000      -0.507511       -13.8101
  48   2.0000      -0.502963       -13.6863
  49   2.0000      -0.492347       -13.3974
  50   2.0000      -0.488940       -13.3047
  51   2.0000      -0.476490       -12.9660
  52   2.0000      -0.470037       -12.7903
  53   2.0000      -0.468047       -12.7362
  54   2.0000      -0.460249       -12.5240
  55   2.0000      -0.450296       -12.2532
  56   2.0000      -0.440488       -11.9863
  57   2.0000      -0.437488       -11.9047
  58   2.0000      -0.433417       -11.7939
  59   2.0000      -0.433168       -11.7871
  60   2.0000      -0.428514       -11.6605
  61   2.0000      -0.412665       -11.2292
  62   2.0000      -0.401731       -10.9316
  63   2.0000      -0.345572        -9.4035
  64   2.0000      -0.327264        -8.9053
  65   2.0000      -0.324653        -8.8343
  66   2.0000      -0.296529        -8.0690
  67   0.0000       0.033015         0.8984
  68   0.0000       0.057478         1.5640
  69   0.0000       0.110531         3.0077
  70   0.0000       0.117473         3.1966
  71   0.0000       0.130485         3.5507

MULLIKEN ATOMIC CHARGES
-----------------------
   0 S :    0.109324
   1 C :   -0.116193
   2 C :   -0.081381
   3 C :   -0.004524
   4 C :   -0.166658
   5 H :    0.051131
   6 C :    0.072685
   7 H :    0.029411
   8 H :    0.031156
   9 C :   -0.022978
  10 H :    0.005044
  11 H :    0.009015
  12 C :   -0.038492
  13 H :    0.016946
  14 H :    0.029632
  15 H :    0.021449
  16 S :    0.104663
  17 C :   -0.095016
  18 C :   -0.057679
  19 C :   -0.018782
  20 C :   -0.153649
  21 H :    0.036583
  22 C :    0.060706
  23 H :    0.022741
  24 H :    0.020693
  25 C :   -0.048578
  26 H :    0.011422
  27 H :    0.032433
  28 C :   -0.066677
  29 H :    0.019360
  30 H :    0.039278
  31 H :    0.046526
  32 H :    0.043148
  33 H :    0.057261
Sum of atomic charges:   -0.0000000

LOEWDIN ATOMIC CHARGES
----------------------
   0 S :    0.396667
   1 C :   -0.188354
   2 C :   -0.069374
   3 C :   -0.058275
   4 C :   -0.205997
   5 H :    0.047355
   6 C :   -0.029134
   7 H :    0.035796
   8 H :    0.037076
   9 C :   -0.054401
  10 H :    0.022551
  11 H :    0.030004
  12 C :   -0.067945
  13 H :    0.017585
  14 H :    0.031723
  15 H :    0.025813
  16 S :    0.388384
  17 C :   -0.174570
  18 C :   -0.071381
  19 C :   -0.056092
  20 C :   -0.194962
  21 H :    0.037233
  22 C :   -0.032994
  23 H :    0.028352
  24 H :    0.029806
  25 C :   -0.030902
  26 H :    0.008455
  27 H :    0.024639
  28 C :   -0.062902
  29 H :    0.016157
  30 H :    0.029595
  31 H :    0.036208
  32 H :    0.028575
  33 H :    0.025308

  Mayer bond orders larger than 0.100000
B(  0-S ,  1-C ) :   1.1427 B(  0-S ,  4-C ) :   1.1261 B(  1-C ,  2-C ) :   1.6287
B(  1-C , 32-H ) :   0.9648 B(  2-C ,  3-C ) :   1.2330 B(  2-C ,  6-C ) :   1.0104
B(  3-C ,  4-C ) :   1.6135 B(  3-C ,  5-H ) :   0.9711 B(  4-C , 20-C ) :   1.0184
B(  6-C ,  7-H ) :   0.9459 B(  6-C ,  8-H ) :   0.9255 B(  6-C ,  9-C ) :   1.0995
B(  9-C , 10-H ) :   0.9399 B(  9-C , 11-H ) :   0.9356 B(  9-C , 12-C ) :   1.0905
B( 12-C , 13-H ) :   0.9734 B( 12-C , 14-H ) :   0.9677 B( 12-C , 15-H ) :   0.9694
B( 16-S , 17-C ) :   1.1474 B( 16-S , 20-C ) :   1.1491 B( 17-C , 18-C ) :   1.5979
B( 17-C , 20-C ) :   0.1022 B( 17-C , 33-H ) :   0.9685 B( 18-C , 19-C ) :   1.2556
B( 18-C , 21-H ) :   0.9807 B( 19-C , 20-C ) :   1.5989 B( 19-C , 22-C ) :   1.0406
B( 22-C , 23-H ) :   0.9240 B( 22-C , 24-H ) :   0.9305 B( 22-C , 25-C ) :   1.0790
B( 25-C , 26-H ) :   0.9553 B( 25-C , 27-H ) :   0.9453 B( 25-C , 28-C ) :   1.0912
B( 28-C , 29-H ) :   0.9760 B( 28-C , 30-H ) :   0.9730 B( 28-C , 31-H ) :   0.9725

Dispersion correction           -0.013704201
FINAL SINGLE POINT ENERGY     -1339.856395501145

DIPOLE MOMENT
-------------
                                X             Y             Z
Electronic contribution:     27.29744       8.16760       8.16189
Nuclear contribution   :    -27.86085      -8.69884      -8.23674
                        -----------------------------------------
Total Dipole Moment    :     -0.56341      -0.53124      -0.07485
                        -----------------------------------------
Magnitude (a.u.)       :      0.77798
Magnitude (Debye)      :      1.97746

Rotational constants in cm-1:     0.016603     0.008766     0.006372
Rotational constants in MHz :   497.739086   262.789832   191.028243

                             ****ORCA TERMINATED NORMALLY****
TOTAL RUN TIME: 0 days 0 hours 0 minutes 32 seconds 442 msec
