                         Program Version 4.2.1 -  RELEASE  -
|  1> ! wB97X-D3 SP def2-SVP
|  2> %pal
|  3> nprocs 16
|  4> end
|  5>
|  6> * xyz 0 1
|  7> S 	 -3.42072 	 -13.9563 	 79.3639
|  8> C 	 -5.07808 	 -14.278 	 79.0816
|  9> C 	 -5.86386 	 -13.703 	 80.1146
| 10> C 	 -5.01942 	 -13.2717 	 81.1981
| 11> C 	 -3.70676 	 -13.1996 	 80.8946
| 12> H 	 -5.2993 	 -12.8418 	 82.1446
| 13> C 	 -7.40703 	 -13.6585 	 80.171
| 14> H 	 -7.76071 	 -13.5049 	 81.2244
| 15> H 	 -7.77659 	 -14.6367 	 79.7403
| 16> C 	 -7.90674 	 -12.6139 	 79.2872
| 17> H 	 -7.46889 	 -11.6771 	 79.5643
| 18> H 	 -7.64034 	 -12.9198 	 78.2803
| 19> C 	 -9.47642 	 -12.4204 	 79.2859
| 20> H 	 -9.58205 	 -11.4123 	 78.8264
| 21> H 	 -10.1877 	 -13.0805 	 78.7153
| 22> H 	 -9.84639 	 -12.3875 	 80.2739
| 23> S 	 -1.55729 	 -13.8924 	 82.5923
| 24> C 	 -0.590442 	 -12.6653 	 83.4091
| 25> C 	 -1.1635 	 -11.436 	 83.1757
| 26> C 	 -2.35342 	 -11.414 	 82.2826
| 27> C 	 -2.62294 	 -12.6898 	 81.7892
| 28> H 	 -0.678745 	 -10.5581 	 83.6554
| 29> C 	 -2.98821 	 -10.1332 	 81.8679
| 30> H 	 -2.98093 	 -10.0387 	 80.8042
| 31> H 	 -2.39422 	 -9.32592 	 82.2735
| 32> C 	 -4.43259 	 -9.82381 	 82.3059
| 33> H 	 -5.20335 	 -10.6286 	 82.0381
| 34> H 	 -4.74823 	 -8.96784 	 81.7412
| 35> C 	 -4.56252 	 -9.56079 	 83.8087
| 36> H 	 -4.10506 	 -10.3593 	 84.3499
| 37> H 	 -5.55489 	 -9.44647 	 84.194
| 38> H 	 -4.06492 	 -8.56624 	 84.175
| 39> H 	 -5.43687 	 -14.5869 	 78.131
| 40> H 	 0.294824 	 -12.7547 	 83.9689
| 41> *
| 42>
| 43>                          ****END OF INPUT****

CARTESIAN COORDINATES (ANGSTROEM)
---------------------------------
  S     -3.420720  -13.956300   79.363900
  C     -5.078080  -14.278000   79.081600
  C     -5.863860  -13.703000   80.114600
  C     -5.019420  -13.271700   81.198100
  C     -3.706760  -13.199600   80.894600
  H     -5.299300  -12.841800   82.144600
  C     -7.407030  -13.658500   80.171000
  H     -7.760710  -13.504900   81.224400
  H     -7.776590  -14.636700   79.740300
  C     -7.906740  -12.613900   79.287200
  H     -7.468890  -11.677100   79.564300
  H     -7.640340  -12.919800   78.280300
  C     -9.476420  -12.420400   79.285900
  H     -9.582050  -11.412300   78.826400
  H    -10.187700  -13.080500   78.715300
  H     -9.846390  -12.387500   80.273900
  S     -1.557290  -13.892400   82.592300
  C     -0.590442  -12.665300   83.409100
  C     -1.163500  -11.436000   83.175700
  C     -2.353420  -11.414000   82.282600
  C     -2.622940  -12.689800   81.789200
  H     -0.678745  -10.558100   83.655400
  C     -2.988210  -10.133200   81.867900
  H     -2.980930  -10.038700   80.804200
  H     -2.394220   -9.325920   82.273500
  C     -4.432590   -9.823810   82.305900
  H     -5.203350  -10.628600   82.038100
  H     -4.748230   -8.967840   81.741200
  C     -4.562520   -9.560790   83.808700
  H     -4.105060  -10.359300   84.349900
  H     -5.554890   -9.446470   84.194000
  H     -4.064920   -8.566240   84.175000
  H     -5.436870  -14.586900   78.131000
  H      0.294824  -12.754700   83.968900

 Total Charge           Charge          ....    0
 Multiplicity           Mult            ....    1
 Number of Electrons    NEL             ....  134
 Basis Dimension        Dim             ....  322

ORBITAL ENERGIES
----------------

  NO   OCC          E(Eh)            E(eV)
   0   2.0000     -88.966775     -2420.9090
   1   2.0000     -88.962935     -2420.8045
   2   2.0000     -10.335174      -281.2344
   3   2.0000     -10.327455      -281.0243
   4   2.0000     -10.316752      -280.7331
   5   2.0000     -10.316473      -280.7255
   6   2.0000     -10.311713      -280.5960
   7   2.0000     -10.309600      -280.5385
   8   2.0000     -10.299943      -280.2757
   9   2.0000     -10.296946      -280.1942
  10   2.0000     -10.292747      -280.0799
  11   2.0000     -10.290795      -280.0268
  12   2.0000     -10.289096      -279.9805
  13   2.0000     -10.284378      -279.8521
  14   2.0000     -10.282292      -279.7954
  15   2.0000     -10.278565      -279.6940
  16   2.0000      -8.082436      -219.9343
  17   2.0000      -8.076761      -219.7798
  18   2.0000      -6.040786      -164.3782
  19   2.0000      -6.036665      -164.2660
  20   2.0000      -6.035465      -164.2334
  21   2.0000      -6.033447      -164.1784
  22   2.0000      -6.031341      -164.1211
  23   2.0000      -6.027396      -164.0138
  24   2.0000      -1.007656       -27.4197
  25   2.0000      -0.980233       -26.6735
  26   2.0000      -0.919034       -25.0082
  27   2.0000      -0.909839       -24.7580
  28   2.0000      -0.868605       -23.6360
  29   2.0000      -0.847737       -23.0681
  30   2.0000      -0.842840       -22.9349
  31   2.0000      -0.816480       -22.2175
  32   2.0000      -0.782778       -21.3005
  33   2.0000      -0.774529       -21.0760
  34   2.0000      -0.708106       -19.2686
  35   2.0000      -0.697006       -18.9665
  36   2.0000      -0.687989       -18.7211
  37   2.0000      -0.657814       -17.9000
  38   2.0000      -0.652803       -17.7637
  39   2.0000      -0.615886       -16.7591
  40   2.0000      -0.590067       -16.0566
  41   2.0000      -0.577314       -15.7095
  42   2.0000      -0.566347       -15.4111
  43   2.0000      -0.556689       -15.1483
  44   2.0000      -0.547771       -14.9056
  45   2.0000      -0.522998       -14.2315
  46   2.0000      -0.516806       -14.0630
  47   2.0000      -0.513081       -13.9616
  48   2.0000      -0.506149       -13.7730
  49   2.0000      -0.499509       -13.5923
  50   2.0000      -0.487013       -13.2523
  51   2.0000      -0.480288       -13.0693
  52   2.0000      -0.471243       -12.8232
  53   2.0000      -0.468666       -12.7530
  54   2.0000      -0.461431       -12.5562
  55   2.0000      -0.443051       -12.0560
  56   2.0000      -0.439318       -11.9544
  57   2.0000      -0.436805       -11.8861
  58   2.0000      -0.430205       -11.7065
  59   2.0000      -0.426269       -11.5994
  60   2.0000      -0.423323       -11.5192
  61   2.0000      -0.412998       -11.2382
  62   2.0000      -0.410316       -11.1653
  63   2.0000      -0.341964        -9.3053
  64   2.0000      -0.327170        -8.9027
  65   2.0000      -0.324486        -8.8297
  66   2.0000      -0.308619        -8.3979
  67   0.0000       0.035318         0.9611
  68   0.0000       0.059191         1.6107
  69   0.0000       0.119712         3.2575
  70   0.0000       0.123693         3.3658
  71   0.0000       0.125415         3.4127

MULLIKEN ATOMIC CHARGES
-----------------------
   0 S :    0.123854
   1 C :   -0.099906
   2 C :   -0.116594
   3 C :    0.056749
   4 C :   -0.182087
   5 H :    0.013161
   6 C :    0.069691
   7 H :    0.030678
   8 H :    0.035433
   9 C :   -0.077401
  10 H :    0.027267
  11 H :    0.025738
  12 C :   -0.055064
  13 H :    0.035626
  14 H :    0.044180
  15 H :    0.018476
  16 S :    0.096393
  17 C :   -0.066019
  18 C :   -0.059947
  19 C :   -0.031332
  20 C :   -0.159479
  21 H :    0.032700
  22 C :    0.103191
  23 H :    0.035580
  24 H :    0.010416
  25 C :   -0.081417
  26 H :    0.036128
  27 H :    0.022761
  28 C :   -0.070338
  29 H :    0.033887
  30 H :    0.027978
  31 H :    0.030964
  32 H :    0.046156
  33 H :    0.042574
Sum of atomic charges:    0.0000000

LOEWDIN ATOMIC CHARGES
----------------------
   0 S :    0.437191
   1 C :   -0.204695
   2 C :   -0.055164
   3 C :   -0.060193
   4 C :   -0.210662
   5 H :    0.029522
   6 C :   -0.036617
   7 H :    0.031425
   8 H :    0.037803
   9 C :   -0.039094
  10 H :    0.022360
  11 H :    0.024416
  12 C :   -0.072510
  13 H :    0.032686
  14 H :    0.030620
  15 H :    0.014531
  16 S :    0.379416
  17 C :   -0.177627
  18 C :   -0.077090
  19 C :   -0.053937
  20 C :   -0.182276
  21 H :    0.035056
  22 C :   -0.029648
  23 H :    0.035563
  24 H :    0.032018
  25 C :   -0.041828
  26 H :    0.029479
  27 H :    0.021386
  28 C :   -0.074264
  29 H :    0.021468
  30 H :    0.020863
  31 H :    0.031741
  32 H :    0.021286
  33 H :    0.026774

  Mayer bond orders larger than 0.100000
B(  0-S ,  1-C ) :   1.1694 B(  0-S ,  4-C ) :   1.1670 B(  1-C ,  2-C ) :   1.5727
B(  1-C , 32-H ) :   0.9711 B(  2-C ,  3-C ) :   1.2487 B(  2-C ,  6-C ) :   1.0192
B(  3-C ,  4-C ) :   1.5924 B(  3-C ,  5-H ) :   0.9844 B(  4-C , 20-C ) :   0.9961
B(  6-C ,  7-H ) :   0.9430 B(  6-C ,  8-H ) :   0.9408 B(  6-C ,  9-C ) :   1.0762
B(  9-C , 10-H ) :   0.9552 B(  9-C , 11-H ) :   0.9561 B(  9-C , 12-C ) :   1.0702
B( 12-C , 13-H ) :   0.9777 B( 12-C , 14-H ) :   0.9777 B( 12-C , 15-H ) :   0.9750
B( 16-S , 17-C ) :   1.1319 B( 16-S , 20-C ) :   1.1332 B( 17-C , 18-C ) :   1.6572
B( 17-C , 33-H ) :   0.9710 B( 18-C , 19-C ) :   1.2006 B( 18-C , 21-H ) :   0.9770
B( 19-C , 20-C ) :   1.6252 B( 19-C , 22-C ) :   1.0507 B( 22-C , 23-H ) :   0.9309
B( 22-C , 24-H ) :   0.9293 B( 22-C , 25-C ) :   1.0729 B( 25-C , 26-H ) :   0.9523
B( 25-C , 27-H ) :   0.9523 B( 25-C , 28-C ) :   1.0685 B( 28-C , 29-H ) :   0.9779
B( 28-C , 30-H ) :   0.9755 B( 28-C , 31-H ) :   0.9719

Dispersion correction           -0.014609196
FINAL SINGLE POINT ENERGY     -1339.869375969575

DIPOLE MOMENT
-------------
                                X             Y             Z
Electronic contribution:     25.11925     -17.38311      -1.61746
Nuclear contribution   :    -25.55970      17.94918       1.63459
                        -----------------------------------------
Total Dipole Moment    :     -0.44045       0.56607       0.01714
                        -----------------------------------------
Magnitude (a.u.)       :      0.71744
Magnitude (Debye)      :      1.82359

Rotational constants in cm-1:     0.019785     0.008614     0.006580
Rotational constants in MHz :   593.136194   258.242709   197.275066

                             ****ORCA TERMINATED NORMALLY****
TOTAL RUN TIME: 0 days 0 hours 0 minutes 32 seconds 604 msec
