                         Program Version 4.2.1 -  RELEASE  -
|  1> ! wB97X-D3 SP def2-SVP
|  2> %pal
|  3> nprocs 16
|  4> end
|  5>
|  6> * xyz 0 1
|  7> S 	 4.58275 	 -12.9679 	 57.2512
|  8> C 	 5.28876 	 -12.5152 	 58.793
|  9> C 	 4.86239 	 -13.383 	 59.8016
| 10> C 	 3.93887 	 -14.3374 	 59.2831
| 11> C 	 3.67209 	 -14.2721 	 57.9403
| 12> H 	 3.27851 	 -15.0093 	 59.821
| 13> C 	 5.04282 	 -13.2136 	 61.2901
| 14> H 	 4.51392 	 -12.2624 	 61.5792
| 15> H 	 6.06782 	 -13.1207 	 61.4626
| 16> C 	 4.68476 	 -14.3949 	 62.1117
| 17> H 	 4.97459 	 -14.0837 	 63.0913
| 18> H 	 3.61779 	 -14.5302 	 61.9982
| 19> C 	 5.46822 	 -15.6485 	 61.7672
| 20> H 	 6.49365 	 -15.4909 	 61.4533
| 21> H 	 5.48267 	 -16.4007 	 62.5057
| 22> H 	 5.0804 	 -16.2301 	 60.8523
| 23> S 	 1.8508 	 -14.2008 	 55.8923
| 24> C 	 1.22961 	 -15.7958 	 55.3846
| 25> C 	 1.48184 	 -16.8124 	 56.2324
| 26> C 	 2.35306 	 -16.4127 	 57.2414
| 27> C 	 2.68099 	 -15.0603 	 57.1568
| 28> H 	 1.26063 	 -17.8248 	 55.9931
| 29> C 	 2.82031 	 -17.4476 	 58.2628
| 30> H 	 1.87576 	 -17.7921 	 58.6658
| 31> H 	 3.35054 	 -17.0954 	 59.1144
| 32> C 	 3.61278 	 -18.6275 	 57.6866
| 33> H 	 3.16487 	 -19.0491 	 56.7941
| 34> H 	 3.73699 	 -19.3638 	 58.4774
| 35> C 	 5.04446 	 -18.1508 	 57.3715
| 36> H 	 5.46577 	 -17.5572 	 58.2412
| 37> H 	 5.06049 	 -17.4311 	 56.5497
| 38> H 	 5.79628 	 -18.8685 	 57.0474
| 39> H 	 6.15219 	 -11.8857 	 58.9521
| 40> H 	 0.50458 	 -15.8419 	 54.5768
| 41> *
| 42>
| 43>                          ****END OF INPUT****

CARTESIAN COORDINATES (ANGSTROEM)
---------------------------------
  S      4.582750  -12.967900   57.251200
  C      5.288760  -12.515200   58.793000
  C      4.862390  -13.383000   59.801600
  C      3.938870  -14.337400   59.283100
  C      3.672090  -14.272100   57.940300
  H      3.278510  -15.009300   59.821000
  C      5.042820  -13.213600   61.290100
  H      4.513920  -12.262400   61.579200
  H      6.067820  -13.120700   61.462600
  C      4.684760  -14.394900   62.111700
  H      4.974590  -14.083700   63.091300
  H      3.617790  -14.530200   61.998200
  C      5.468220  -15.648500   61.767200
  H      6.493650  -15.490900   61.453300
  H      5.482670  -16.400700   62.505700
  H      5.080400  -16.230100   60.852300
  S      1.850800  -14.200800   55.892300
  C      1.229610  -15.795800   55.384600
  C      1.481840  -16.812400   56.232400
  C      2.353060  -16.412700   57.241400
  C      2.680990  -15.060300   57.156800
  H      1.260630  -17.824800   55.993100
  C      2.820310  -17.447600   58.262800
  H      1.875760  -17.792100   58.665800
  H      3.350540  -17.095400   59.114400
  C      3.612780  -18.627500   57.686600
  H      3.164870  -19.049100   56.794100
  H      3.736990  -19.363800   58.477400
  C      5.044460  -18.150800   57.371500
  H      5.465770  -17.557200   58.241200
  H      5.060490  -17.431100   56.549700
  H      5.796280  -18.868500   57.047400
  H      6.152190  -11.885700   58.952100
  H      0.504580  -15.841900   54.576800

 Total Charge           Charge          ....    0
 Multiplicity           Mult            ....    1
 Number of Electrons    NEL             ....  134
 Basis Dimension        Dim             ....  322

ORBITAL ENERGIES
----------------

  NO   OCC          E(Eh)            E(eV)
   0   2.0000     -88.968771     -2420.9633
   1   2.0000     -88.964412     -2420.8447
   2   2.0000     -10.329023      -281.0670
   3   2.0000     -10.325814      -280.9797
   4   2.0000     -10.316849      -280.7357
   5   2.0000     -10.311128      -280.5801
   6   2.0000     -10.302402      -280.3426
   7   2.0000     -10.298710      -280.2422
   8   2.0000     -10.291057      -280.0339
   9   2.0000     -10.289021      -279.9785
  10   2.0000     -10.288954      -279.9767
  11   2.0000     -10.286097      -279.8989
  12   2.0000     -10.285783      -279.8904
  13   2.0000     -10.283086      -279.8170
  14   2.0000     -10.279294      -279.7138
  15   2.0000     -10.275324      -279.6058
  16   2.0000      -8.083341      -219.9589
  17   2.0000      -8.079061      -219.8424
  18   2.0000      -6.041658      -164.4019
  19   2.0000      -6.038168      -164.3069
  20   2.0000      -6.037595      -164.2913
  21   2.0000      -6.034017      -164.1940
  22   2.0000      -6.033427      -164.1779
  23   2.0000      -6.029964      -164.0837
  24   2.0000      -1.009051       -27.4577
  25   2.0000      -0.987214       -26.8634
  26   2.0000      -0.925441       -25.1825
  27   2.0000      -0.912217       -24.8227
  28   2.0000      -0.871212       -23.7069
  29   2.0000      -0.850118       -23.1329
  30   2.0000      -0.840530       -22.8720
  31   2.0000      -0.815305       -22.1856
  32   2.0000      -0.787331       -21.4244
  33   2.0000      -0.774383       -21.0720
  34   2.0000      -0.709953       -19.3188
  35   2.0000      -0.698790       -19.0150
  36   2.0000      -0.693214       -18.8633
  37   2.0000      -0.663298       -18.0493
  38   2.0000      -0.638967       -17.3872
  39   2.0000      -0.625872       -17.0308
  40   2.0000      -0.607388       -16.5279
  41   2.0000      -0.573877       -15.6160
  42   2.0000      -0.562529       -15.3072
  43   2.0000      -0.554391       -15.0858
  44   2.0000      -0.542705       -14.7677
  45   2.0000      -0.532312       -14.4849
  46   2.0000      -0.517155       -14.0725
  47   2.0000      -0.507892       -13.8204
  48   2.0000      -0.497730       -13.5439
  49   2.0000      -0.492553       -13.4030
  50   2.0000      -0.487130       -13.2555
  51   2.0000      -0.481605       -13.1051
  52   2.0000      -0.473410       -12.8821
  53   2.0000      -0.465374       -12.6635
  54   2.0000      -0.451980       -12.2990
  55   2.0000      -0.449574       -12.2335
  56   2.0000      -0.449059       -12.2195
  57   2.0000      -0.438932       -11.9439
  58   2.0000      -0.432357       -11.7650
  59   2.0000      -0.430991       -11.7279
  60   2.0000      -0.422330       -11.4922
  61   2.0000      -0.415819       -11.3150
  62   2.0000      -0.411465       -11.1965
  63   2.0000      -0.356021        -9.6878
  64   2.0000      -0.336923        -9.1681
  65   2.0000      -0.327610        -8.9147
  66   2.0000      -0.283940        -7.7264
  67   0.0000       0.027132         0.7383
  68   0.0000       0.074979         2.0403
  69   0.0000       0.100667         2.7393
  70   0.0000       0.115003         3.1294
  71   0.0000       0.135461         3.6861

MULLIKEN ATOMIC CHARGES
-----------------------
   0 S :    0.102132
   1 C :   -0.122116
   2 C :   -0.108282
   3 C :   -0.015659
   4 C :   -0.122199
   5 H :    0.015090
   6 C :    0.077988
   7 H :    0.060744
   8 H :    0.003016
   9 C :   -0.032043
  10 H :    0.024892
  11 H :    0.033752
  12 C :   -0.066527
  13 H :    0.025354
  14 H :    0.025557
  15 H :    0.032425
  16 S :    0.105056
  17 C :   -0.089473
  18 C :   -0.011357
  19 C :   -0.044290
  20 C :   -0.157280
  21 H :    0.016560
  22 C :    0.086480
  23 H :    0.028058
  24 H :   -0.004205
  25 C :   -0.046072
  26 H :    0.031100
  27 H :    0.032410
  28 C :   -0.084459
  29 H :    0.033343
  30 H :    0.032165
  31 H :    0.035077
  32 H :    0.050855
  33 H :    0.051904
Sum of atomic charges:   -0.0000000

LOEWDIN ATOMIC CHARGES
----------------------
   0 S :    0.407640
   1 C :   -0.205490
   2 C :   -0.062080
   3 C :   -0.079891
   4 C :   -0.194577
   5 H :    0.027512
   6 C :   -0.030920
   7 H :    0.045484
   8 H :    0.021302
   9 C :   -0.039039
  10 H :    0.028107
  11 H :    0.023892
  12 C :   -0.069722
  13 H :    0.026259
  14 H :    0.019387
  15 H :    0.032952
  16 S :    0.392154
  17 C :   -0.160752
  18 C :   -0.064663
  19 C :   -0.054952
  20 C :   -0.195707
  21 H :    0.032645
  22 C :   -0.025246
  23 H :    0.034124
  24 H :    0.020833
  25 C :   -0.033118
  26 H :    0.020991
  27 H :    0.026455
  28 C :   -0.075390
  29 H :    0.030376
  30 H :    0.025157
  31 H :    0.023259
  32 H :    0.029695
  33 H :    0.023325

  Mayer bond orders larger than 0.100000
B(  0-S ,  1-C ) :   1.1373 B(  0-S ,  4-C ) :   1.1568 B(  1-C ,  2-C ) :   1.6065
B(  1-C ,  4-C ) :   0.1008 B(  1-C , 32-H ) :   0.9680 B(  2-C ,  3-C ) :   1.2515
B(  2-C ,  6-C ) :   1.0066 B(  3-C ,  4-C ) :   1.5820 B(  3-C ,  5-H ) :   0.9811
B(  4-C , 20-C ) :   1.0276 B(  6-C ,  7-H ) :   0.9401 B(  6-C ,  8-H ) :   0.9248
B(  6-C ,  9-C ) :   1.1034 B(  9-C , 10-H ) :   0.9496 B(  9-C , 11-H ) :   0.9419
B(  9-C , 12-C ) :   1.0780 B( 12-C , 13-H ) :   0.9709 B( 12-C , 14-H ) :   0.9728
B( 12-C , 15-H ) :   0.9666 B( 16-S , 17-C ) :   1.1373 B( 16-S , 20-C ) :   1.1441
B( 17-C , 18-C ) :   1.6342 B( 17-C , 33-H ) :   0.9636 B( 18-C , 19-C ) :   1.2414
B( 18-C , 21-H ) :   0.9896 B( 19-C , 20-C ) :   1.6043 B( 19-C , 22-C ) :   1.0261
B( 22-C , 23-H ) :   0.9275 B( 22-C , 24-H ) :   0.9371 B( 22-C , 25-C ) :   1.0817
B( 25-C , 26-H ) :   0.9581 B( 25-C , 27-H ) :   0.9525 B( 25-C , 28-C ) :   1.0639
B( 28-C , 29-H ) :   0.9729 B( 28-C , 30-H ) :   0.9761 B( 28-C , 31-H ) :   0.9754

Dispersion correction           -0.015617789
FINAL SINGLE POINT ENERGY     -1339.870272877438

DIPOLE MOMENT
-------------
                                X             Y             Z
Electronic contribution:     -9.86170      18.05971     -19.19211
Nuclear contribution   :      9.87817     -18.54843      19.69172
                        -----------------------------------------
Total Dipole Moment    :      0.01647      -0.48872       0.49961
                        -----------------------------------------
Magnitude (a.u.)       :      0.69909
Magnitude (Debye)      :      1.77695

Rotational constants in cm-1:     0.018259     0.010500     0.007715
Rotational constants in MHz :   547.404482   314.770908   231.282669

                             ****ORCA TERMINATED NORMALLY****
TOTAL RUN TIME: 0 days 0 hours 0 minutes 32 seconds 748 msec
