                         Program Version 4.2.1 -  RELEASE  -
|  1> ! wB97X-D3 SP def2-SVP
|  2> %pal
|  3> nprocs 16
|  4> end
|  5>
|  6> * xyz 0 1
|  7> S 	 -48.6222 	 61.3836 	 129.49
|  8> C 	 -47.7268 	 61.7667 	 128.044
|  9> C 	 -48.5798 	 61.8766 	 126.922
| 10> C 	 -49.9241 	 61.9665 	 127.328
| 11> C 	 -50.0792 	 61.6286 	 128.647
| 12> H 	 -50.7366 	 62.3888 	 126.683
| 13> C 	 -48.0161 	 62.2696 	 125.596
| 14> H 	 -46.9677 	 62.1069 	 125.807
| 15> H 	 -48.071 	 63.3165 	 125.318
| 16> C 	 -48.4558 	 61.3562 	 124.389
| 17> H 	 -48.1492 	 60.3482 	 124.729
| 18> H 	 -49.4779 	 61.4225 	 124.212
| 19> C 	 -47.763 	 61.5638 	 122.97
| 20> H 	 -46.7214 	 61.3592 	 123.135
| 21> H 	 -48.1873 	 61.0285 	 122.124
| 22> H 	 -47.7695 	 62.6676 	 122.754
| 23> S 	 -51.1211 	 62.9335 	 130.715
| 24> C 	 -52.8465 	 63.0559 	 130.945
| 25> C 	 -53.535 	 62.2141 	 130.067
| 26> C 	 -52.6405 	 61.4771 	 129.207
| 27> C 	 -51.3123 	 61.891 	 129.312
| 28> H 	 -54.5524 	 62.125 	 130.1
| 29> C 	 -53.1491 	 60.3667 	 128.254
| 30> H 	 -52.4786 	 60.5007 	 127.434
| 31> H 	 -54.1091 	 60.6257 	 127.909
| 32> C 	 -53.105 	 58.8509 	 128.68
| 33> H 	 -53.8774 	 58.7216 	 129.448
| 34> H 	 -52.1954 	 58.5883 	 129.073
| 35> C 	 -53.2538 	 57.9259 	 127.423
| 36> H 	 -53.2749 	 56.8478 	 127.673
| 37> H 	 -52.4679 	 58.2064 	 126.795
| 38> H 	 -54.1729 	 58.2658 	 126.931
| 39> H 	 -46.66 	 61.936 	 128.073
| 40> H 	 -53.3567 	 63.5833 	 131.753
| 41> *
| 42>
| 43>                          ****END OF INPUT****

CARTESIAN COORDINATES (ANGSTROEM)
---------------------------------
  S    -48.622200   61.383600  129.490000
  C    -47.726800   61.766700  128.044000
  C    -48.579800   61.876600  126.922000
  C    -49.924100   61.966500  127.328000
  C    -50.079200   61.628600  128.647000
  H    -50.736600   62.388800  126.683000
  C    -48.016100   62.269600  125.596000
  H    -46.967700   62.106900  125.807000
  H    -48.071000   63.316500  125.318000
  C    -48.455800   61.356200  124.389000
  H    -48.149200   60.348200  124.729000
  H    -49.477900   61.422500  124.212000
  C    -47.763000   61.563800  122.970000
  H    -46.721400   61.359200  123.135000
  H    -48.187300   61.028500  122.124000
  H    -47.769500   62.667600  122.754000
  S    -51.121100   62.933500  130.715000
  C    -52.846500   63.055900  130.945000
  C    -53.535000   62.214100  130.067000
  C    -52.640500   61.477100  129.207000
  C    -51.312300   61.891000  129.312000
  H    -54.552400   62.125000  130.100000
  C    -53.149100   60.366700  128.254000
  H    -52.478600   60.500700  127.434000
  H    -54.109100   60.625700  127.909000
  C    -53.105000   58.850900  128.680000
  H    -53.877400   58.721600  129.448000
  H    -52.195400   58.588300  129.073000
  C    -53.253800   57.925900  127.423000
  H    -53.274900   56.847800  127.673000
  H    -52.467900   58.206400  126.795000
  H    -54.172900   58.265800  126.931000
  H    -46.660000   61.936000  128.073000
  H    -53.356700   63.583300  131.753000

 Total Charge           Charge          ....    0
 Multiplicity           Mult            ....    1
 Number of Electrons    NEL             ....  134
 Basis Dimension        Dim             ....  322

ORBITAL ENERGIES
----------------

  NO   OCC          E(Eh)            E(eV)
   0   2.0000     -88.972268     -2421.0585
   1   2.0000     -88.961498     -2420.7654
   2   2.0000     -10.322495      -280.8894
   3   2.0000     -10.321748      -280.8691
   4   2.0000     -10.317873      -280.7636
   5   2.0000     -10.316381      -280.7230
   6   2.0000     -10.305431      -280.4250
   7   2.0000     -10.303535      -280.3734
   8   2.0000     -10.295165      -280.1457
   9   2.0000     -10.291900      -280.0568
  10   2.0000     -10.288660      -279.9687
  11   2.0000     -10.288504      -279.9644
  12   2.0000     -10.286045      -279.8975
  13   2.0000     -10.283474      -279.8276
  14   2.0000     -10.280815      -279.7552
  15   2.0000     -10.275857      -279.6203
  16   2.0000      -8.087945      -220.0842
  17   2.0000      -8.076370      -219.7692
  18   2.0000      -6.046247      -164.5268
  19   2.0000      -6.042376      -164.4214
  20   2.0000      -6.038804      -164.3242
  21   2.0000      -6.034847      -164.2165
  22   2.0000      -6.030834      -164.1073
  23   2.0000      -6.027152      -164.0071
  24   2.0000      -1.016133       -27.6504
  25   2.0000      -0.982641       -26.7390
  26   2.0000      -0.909975       -24.7617
  27   2.0000      -0.900243       -24.4968
  28   2.0000      -0.869370       -23.6568
  29   2.0000      -0.854603       -23.2549
  30   2.0000      -0.845270       -23.0010
  31   2.0000      -0.815662       -22.1953
  32   2.0000      -0.780672       -21.2432
  33   2.0000      -0.766807       -20.8659
  34   2.0000      -0.711345       -19.3567
  35   2.0000      -0.700421       -19.0594
  36   2.0000      -0.692871       -18.8540
  37   2.0000      -0.665437       -18.1075
  38   2.0000      -0.643112       -17.5000
  39   2.0000      -0.622975       -16.9520
  40   2.0000      -0.587906       -15.9977
  41   2.0000      -0.572828       -15.5874
  42   2.0000      -0.568419       -15.4675
  43   2.0000      -0.558103       -15.1867
  44   2.0000      -0.529446       -14.4070
  45   2.0000      -0.524147       -14.2628
  46   2.0000      -0.517459       -14.0808
  47   2.0000      -0.508945       -13.8491
  48   2.0000      -0.505195       -13.7471
  49   2.0000      -0.496437       -13.5087
  50   2.0000      -0.491946       -13.3865
  51   2.0000      -0.486185       -13.2298
  52   2.0000      -0.469940       -12.7877
  53   2.0000      -0.462909       -12.5964
  54   2.0000      -0.459546       -12.5049
  55   2.0000      -0.455379       -12.3915
  56   2.0000      -0.444047       -12.0831
  57   2.0000      -0.435665       -11.8550
  58   2.0000      -0.429682       -11.6922
  59   2.0000      -0.424907       -11.5623
  60   2.0000      -0.423008       -11.5106
  61   2.0000      -0.416628       -11.3370
  62   2.0000      -0.413360       -11.2481
  63   2.0000      -0.345892        -9.4122
  64   2.0000      -0.333561        -9.0767
  65   2.0000      -0.326876        -8.8948
  66   2.0000      -0.287344        -7.8190
  67   0.0000       0.026280         0.7151
  68   0.0000       0.068734         1.8703
  69   0.0000       0.110063         2.9950
  70   0.0000       0.114901         3.1266
  71   0.0000       0.132806         3.6138

MULLIKEN ATOMIC CHARGES
-----------------------
   0 S :    0.130572
   1 C :   -0.153358
   2 C :   -0.065242
   3 C :   -0.000377
   4 C :   -0.135399
   5 H :    0.050667
   6 C :    0.069343
   7 H :    0.003441
   8 H :    0.038905
   9 C :   -0.092365
  10 H :    0.035130
  11 H :    0.024733
  12 C :   -0.055491
  13 H :    0.026391
  14 H :    0.052057
  15 H :    0.026548
  16 S :    0.095422
  17 C :   -0.090414
  18 C :   -0.001649
  19 C :   -0.057993
  20 C :   -0.157266
  21 H :   -0.018358
  22 C :    0.082293
  23 H :   -0.002354
  24 H :    0.004791
  25 C :   -0.020595
  26 H :    0.029407
  27 H :    0.009884
  28 C :   -0.050767
  29 H :    0.052365
  30 H :    0.025562
  31 H :    0.024802
  32 H :    0.058076
  33 H :    0.061240
Sum of atomic charges:   -0.0000000

LOEWDIN ATOMIC CHARGES
----------------------
   0 S :    0.434835
   1 C :   -0.197381
   2 C :   -0.061076
   3 C :   -0.058602
   4 C :   -0.220682
   5 H :    0.045842
   6 C :   -0.034127
   7 H :    0.029012
   8 H :    0.028892
   9 C :   -0.034216
  10 H :    0.027635
  11 H :    0.010339
  12 C :   -0.068406
  13 H :    0.021190
  14 H :    0.029316
  15 H :    0.026969
  16 S :    0.401195
  17 C :   -0.189289
  18 C :   -0.061762
  19 C :   -0.052723
  20 C :   -0.192591
  21 H :    0.014593
  22 C :   -0.025551
  23 H :    0.023574
  24 H :    0.019770
  25 C :   -0.023642
  26 H :    0.021952
  27 H :    0.010973
  28 C :   -0.057984
  29 H :    0.032287
  30 H :    0.018340
  31 H :    0.023806
  32 H :    0.025369
  33 H :    0.032147

  Mayer bond orders larger than 0.100000
B(  0-S ,  1-C ) :   1.1526 B(  0-S ,  4-C ) :   1.1623 B(  1-C ,  2-C ) :   1.5659
B(  1-C , 32-H ) :   0.9687 B(  2-C ,  3-C ) :   1.2608 B(  2-C ,  6-C ) :   1.0385
B(  3-C ,  4-C ) :   1.5541 B(  3-C ,  5-H ) :   0.9813 B(  4-C , 20-C ) :   1.0536
B(  6-C ,  7-H ) :   0.9359 B(  6-C ,  8-H ) :   0.9413 B(  6-C ,  9-C ) :   1.0423
B(  9-C , 10-H ) :   0.9616 B(  9-C , 11-H ) :   0.9669 B(  9-C , 12-C ) :   1.0726
B( 12-C , 13-H ) :   0.9783 B( 12-C , 14-H ) :   0.9771 B( 12-C , 15-H ) :   0.9756
B( 16-S , 17-C ) :   1.1560 B( 16-S , 20-C ) :   1.1316 B( 17-C , 18-C ) :   1.5961
B( 17-C , 20-C ) :   0.1001 B( 17-C , 33-H ) :   0.9662 B( 18-C , 19-C ) :   1.2428
B( 18-C , 21-H ) :   1.0056 B( 19-C , 20-C ) :   1.5899 B( 19-C , 22-C ) :   1.0326
B( 22-C , 23-H ) :   0.9314 B( 22-C , 24-H ) :   0.9340 B( 22-C , 25-C ) :   1.0617
B( 25-C , 26-H ) :   0.9589 B( 25-C , 27-H ) :   0.9577 B( 25-C , 28-C ) :   1.0680
B( 28-C , 29-H ) :   0.9749 B( 28-C , 30-H ) :   0.9776 B( 28-C , 31-H ) :   0.9787

Dispersion correction           -0.013427945
FINAL SINGLE POINT ENERGY     -1339.850795999571

DIPOLE MOMENT
-------------
                                X             Y             Z
Electronic contribution:      3.58681      11.91502      26.28703
Nuclear contribution   :     -3.68844     -11.90540     -26.71169
                        -----------------------------------------
Total Dipole Moment    :     -0.10163       0.00962      -0.42466
                        -----------------------------------------
Magnitude (a.u.)       :      0.43676
Magnitude (Debye)      :      1.11015

Rotational constants in cm-1:     0.017016     0.008468     0.006574
Rotational constants in MHz :   510.132485   253.875109   197.077911

                             ****ORCA TERMINATED NORMALLY****
TOTAL RUN TIME: 0 days 0 hours 0 minutes 32 seconds 737 msec
