                         Program Version 4.2.1 -  RELEASE  -
|  1> ! wB97X-D3 SP def2-SVP
|  2> %pal
|  3> nprocs 16
|  4> end
|  5>
|  6> * xyz 0 1
|  7> S 	 27.0682 	 6.95587 	 74.457
|  8> C 	 28.6688 	 7.54983 	 74.0911
|  9> C 	 29.5745 	 6.96605 	 74.9625
| 10> C 	 28.9463 	 6.12775 	 75.952
| 11> C 	 27.5952 	 6.08602 	 75.8196
| 12> H 	 29.4215 	 5.49336 	 76.7188
| 13> C 	 31.0445 	 7.15038 	 75.0067
| 14> H 	 31.3458 	 7.40074 	 76.035
| 15> H 	 31.1787 	 8.17573 	 74.5367
| 16> C 	 31.8621 	 6.07309 	 74.323
| 17> H 	 32.7827 	 6.14808 	 74.7914
| 18> H 	 31.518 	 5.08722 	 74.5727
| 19> C 	 32.0161 	 6.17753 	 72.758
| 20> H 	 32.4438 	 5.27705 	 72.2529
| 21> H 	 31.0248 	 6.41246 	 72.3334
| 22> H 	 32.6373 	 7.02174 	 72.4649
| 23> S 	 25.6005 	 4.1159 	 75.5812
| 24> C 	 25.0912 	 3.28796 	 77.0567
| 25> C 	 25.593 	 3.93091 	 78.1836
| 26> C 	 26.5196 	 4.94343 	 77.8779
| 27> C 	 26.6665 	 5.17748 	 76.4952
| 28> H 	 25.3383 	 3.644 	 79.2834
| 29> C 	 27.0494 	 5.81183 	 78.9586
| 30> H 	 28.1 	 6.12528 	 78.7269
| 31> H 	 27.1213 	 5.14292 	 79.7864
| 32> C 	 26.1459 	 7.11122 	 79.1399
| 33> H 	 25.1004 	 6.87347 	 79.246
| 34> H 	 26.2495 	 7.85419 	 78.3231
| 35> C 	 26.382 	 7.90872 	 80.4655
| 36> H 	 27.4419 	 8.0437 	 80.555
| 37> H 	 25.9361 	 7.42824 	 81.2876
| 38> H 	 25.9305 	 8.86565 	 80.5164
| 39> H 	 29.0926 	 8.11675 	 73.2543
| 40> H 	 24.3734 	 2.44615 	 77.1782
| 41> *
| 42>
| 43>                          ****END OF INPUT****

CARTESIAN COORDINATES (ANGSTROEM)
---------------------------------
  S     27.068200    6.955870   74.457000
  C     28.668800    7.549830   74.091100
  C     29.574500    6.966050   74.962500
  C     28.946300    6.127750   75.952000
  C     27.595200    6.086020   75.819600
  H     29.421500    5.493360   76.718800
  C     31.044500    7.150380   75.006700
  H     31.345800    7.400740   76.035000
  H     31.178700    8.175730   74.536700
  C     31.862100    6.073090   74.323000
  H     32.782700    6.148080   74.791400
  H     31.518000    5.087220   74.572700
  C     32.016100    6.177530   72.758000
  H     32.443800    5.277050   72.252900
  H     31.024800    6.412460   72.333400
  H     32.637300    7.021740   72.464900
  S     25.600500    4.115900   75.581200
  C     25.091200    3.287960   77.056700
  C     25.593000    3.930910   78.183600
  C     26.519600    4.943430   77.877900
  C     26.666500    5.177480   76.495200
  H     25.338300    3.644000   79.283400
  C     27.049400    5.811830   78.958600
  H     28.100000    6.125280   78.726900
  H     27.121300    5.142920   79.786400
  C     26.145900    7.111220   79.139900
  H     25.100400    6.873470   79.246000
  H     26.249500    7.854190   78.323100
  C     26.382000    7.908720   80.465500
  H     27.441900    8.043700   80.555000
  H     25.936100    7.428240   81.287600
  H     25.930500    8.865650   80.516400
  H     29.092600    8.116750   73.254300
  H     24.373400    2.446150   77.178200

 Total Charge           Charge          ....    0
 Multiplicity           Mult            ....    1
 Number of Electrons    NEL             ....  134
 Basis Dimension        Dim             ....  322

ORBITAL ENERGIES
----------------

  NO   OCC          E(Eh)            E(eV)
   0   2.0000     -88.971173     -2421.0287
   1   2.0000     -88.966286     -2420.8957
   2   2.0000     -10.328170      -281.0438
   3   2.0000     -10.324212      -280.9361
   4   2.0000     -10.323220      -280.9091
   5   2.0000     -10.313930      -280.6563
   6   2.0000     -10.300015      -280.2777
   7   2.0000     -10.297988      -280.2225
   8   2.0000     -10.297776      -280.2167
   9   2.0000     -10.294112      -280.1170
  10   2.0000     -10.293581      -280.1026
  11   2.0000     -10.290509      -280.0190
  12   2.0000     -10.289224      -279.9840
  13   2.0000     -10.284737      -279.8619
  14   2.0000     -10.283015      -279.8151
  15   2.0000     -10.265790      -279.3463
  16   2.0000      -8.084935      -220.0023
  17   2.0000      -8.081844      -219.9181
  18   2.0000      -6.043559      -164.4536
  19   2.0000      -6.040413      -164.3680
  20   2.0000      -6.039488      -164.3428
  21   2.0000      -6.036149      -164.2520
  22   2.0000      -6.035722      -164.2403
  23   2.0000      -6.032568      -164.1545
  24   2.0000      -1.011583       -27.5266
  25   2.0000      -0.985655       -26.8210
  26   2.0000      -0.915220       -24.9044
  27   2.0000      -0.902039       -24.5457
  28   2.0000      -0.866861       -23.5885
  29   2.0000      -0.852062       -23.1858
  30   2.0000      -0.844741       -22.9866
  31   2.0000      -0.813728       -22.1427
  32   2.0000      -0.782382       -21.2897
  33   2.0000      -0.770380       -20.9631
  34   2.0000      -0.712738       -19.3946
  35   2.0000      -0.704023       -19.1574
  36   2.0000      -0.693075       -18.8595
  37   2.0000      -0.657217       -17.8838
  38   2.0000      -0.637981       -17.3603
  39   2.0000      -0.616462       -16.7748
  40   2.0000      -0.590632       -16.0719
  41   2.0000      -0.570913       -15.5353
  42   2.0000      -0.556522       -15.1437
  43   2.0000      -0.547648       -14.9023
  44   2.0000      -0.530866       -14.4456
  45   2.0000      -0.521918       -14.2021
  46   2.0000      -0.520673       -14.1682
  47   2.0000      -0.514676       -14.0050
  48   2.0000      -0.503629       -13.7045
  49   2.0000      -0.495201       -13.4751
  50   2.0000      -0.491662       -13.3788
  51   2.0000      -0.481101       -13.0914
  52   2.0000      -0.471164       -12.8210
  53   2.0000      -0.459831       -12.5126
  54   2.0000      -0.458859       -12.4862
  55   2.0000      -0.450392       -12.2558
  56   2.0000      -0.448147       -12.1947
  57   2.0000      -0.442506       -12.0412
  58   2.0000      -0.430542       -11.7156
  59   2.0000      -0.422415       -11.4945
  60   2.0000      -0.417090       -11.3496
  61   2.0000      -0.414979       -11.2921
  62   2.0000      -0.412746       -11.2314
  63   2.0000      -0.350091        -9.5265
  64   2.0000      -0.332883        -9.0582
  65   2.0000      -0.328349        -8.9348
  66   2.0000      -0.289447        -7.8763
  67   0.0000       0.029398         0.8000
  68   0.0000       0.069733         1.8975
  69   0.0000       0.109987         2.9929
  70   0.0000       0.120002         3.2654
  71   0.0000       0.136007         3.7009

MULLIKEN ATOMIC CHARGES
-----------------------
   0 S :    0.106252
   1 C :   -0.094018
   2 C :   -0.128072
   3 C :    0.020977
   4 C :   -0.144998
   5 H :    0.026313
   6 C :    0.009718
   7 H :    0.034002
   8 H :    0.019805
   9 C :    0.010443
  10 H :    0.010114
  11 H :    0.022373
  12 C :   -0.069760
  13 H :    0.050027
  14 H :    0.028654
  15 H :    0.027771
  16 S :    0.120801
  17 C :   -0.110502
  18 C :   -0.063466
  19 C :   -0.064567
  20 C :   -0.143377
  21 H :    0.051567
  22 C :    0.090619
  23 H :    0.023205
  24 H :    0.013287
  25 C :   -0.077838
  26 H :    0.026716
  27 H :    0.047788
  28 C :   -0.025184
  29 H :    0.023547
  30 H :    0.017800
  31 H :    0.020621
  32 H :    0.048717
  33 H :    0.070666
Sum of atomic charges:   -0.0000000

LOEWDIN ATOMIC CHARGES
----------------------
   0 S :    0.426302
   1 C :   -0.214461
   2 C :   -0.063844
   3 C :   -0.069691
   4 C :   -0.205148
   5 H :    0.036371
   6 C :   -0.041346
   7 H :    0.035539
   8 H :    0.035753
   9 C :   -0.031705
  10 H :    0.016888
  11 H :    0.024167
  12 C :   -0.067677
  13 H :    0.033355
  14 H :    0.024813
  15 H :    0.022594
  16 S :    0.405287
  17 C :   -0.193676
  18 C :   -0.082018
  19 C :   -0.064693
  20 C :   -0.200167
  21 H :    0.047990
  22 C :   -0.030562
  23 H :    0.033495
  24 H :    0.025013
  25 C :   -0.030874
  26 H :    0.021689
  27 H :    0.032285
  28 C :   -0.062054
  29 H :    0.020104
  30 H :    0.016717
  31 H :    0.022675
  32 H :    0.036255
  33 H :    0.040624

  Mayer bond orders larger than 0.100000
B(  0-S ,  1-C ) :   1.1195 B(  0-S ,  4-C ) :   1.1575 B(  1-C ,  2-C ) :   1.6264
B(  1-C , 32-H ) :   0.9606 B(  2-C ,  3-C ) :   1.2311 B(  2-C ,  6-C ) :   1.0280
B(  3-C ,  4-C ) :   1.5894 B(  3-C ,  5-H ) :   0.9862 B(  4-C , 20-C ) :   1.0285
B(  6-C ,  7-H ) :   0.9444 B(  6-C ,  8-H ) :   0.9401 B(  6-C ,  9-C ) :   1.0528
B(  9-C , 10-H ) :   0.9525 B(  9-C , 11-H ) :   0.9587 B(  9-C , 12-C ) :   1.0663
B( 12-C , 13-H ) :   0.9769 B( 12-C , 14-H ) :   0.9781 B( 12-C , 15-H ) :   0.9764
B( 16-S , 17-C ) :   1.1575 B( 16-S , 20-C ) :   1.1394 B( 17-C , 18-C ) :   1.5881
B( 17-C , 20-C ) :   0.1064 B( 17-C , 33-H ) :   0.9615 B( 18-C , 19-C ) :   1.2903
B( 18-C , 21-H ) :   0.9668 B( 19-C , 20-C ) :   1.5531 B( 19-C , 22-C ) :   1.0660
B( 22-C , 23-H ) :   0.9216 B( 22-C , 24-H ) :   0.9346 B( 22-C , 25-C ) :   1.0426
B( 25-C , 26-H ) :   0.9650 B( 25-C , 27-H ) :   0.9600 B( 25-C , 28-C ) :   1.0794
B( 28-C , 29-H ) :   0.9762 B( 28-C , 30-H ) :   0.9792 B( 28-C , 31-H ) :   0.9730

Dispersion correction           -0.014310902
FINAL SINGLE POINT ENERGY     -1339.868330020865

DIPOLE MOMENT
-------------
                                X             Y             Z
Electronic contribution:    -17.27250      -8.36335     -10.20047
Nuclear contribution   :     17.68911       8.36052      10.62731
                        -----------------------------------------
Total Dipole Moment    :      0.41661      -0.00283       0.42684
                        -----------------------------------------
Magnitude (a.u.)       :      0.59646
Magnitude (Debye)      :      1.51609

Rotational constants in cm-1:     0.019592     0.008071     0.006857
Rotational constants in MHz :   587.340911   241.971511   205.560889

                             ****ORCA TERMINATED NORMALLY****
TOTAL RUN TIME: 0 days 0 hours 0 minutes 34 seconds 877 msec
