                         Program Version 4.2.1 -  RELEASE  -
|  1> ! wB97X-D3 SP def2-SVP
|  2> %pal
|  3> nprocs 16
|  4> end
|  5>
|  6> * xyz 0 1
|  7> S 	 13.2104 	 -7.91788 	 63.8559
|  8> C 	 12.8459 	 -7.17171 	 62.3267
|  9> C 	 13.5395 	 -6.02097 	 62.0483
| 10> C 	 14.4439 	 -5.74316 	 63.162
| 11> C 	 14.3448 	 -6.64012 	 64.1494
| 12> H 	 15.1677 	 -4.92255 	 63.1856
| 13> C 	 13.3944 	 -5.10427 	 60.8099
| 14> H 	 13.3663 	 -5.80438 	 60.0152
| 15> H 	 14.2862 	 -4.44257 	 60.5035
| 16> C 	 12.0301 	 -4.38241 	 60.8493
| 17> H 	 11.2933 	 -5.0712 	 61.2691
| 18> H 	 12.1039 	 -3.60385 	 61.6586
| 19> C 	 11.6294 	 -3.69722 	 59.5041
| 20> H 	 10.7373 	 -2.99954 	 59.6997
| 21> H 	 12.3868 	 -3.0137 	 59.1574
| 22> H 	 11.4424 	 -4.39309 	 58.7357
| 23> S 	 15.86 	 -8.06125 	 65.942
| 24> C 	 16.3894 	 -7.23879 	 67.4208
| 25> C 	 15.7778 	 -6.02584 	 67.5905
| 26> C 	 15.0853 	 -5.66107 	 66.3981
| 27> C 	 15.0706 	 -6.6152 	 65.4352
| 28> H 	 15.976 	 -5.44174 	 68.4708
| 29> C 	 14.3536 	 -4.30661 	 66.3416
| 30> H 	 14.4022 	 -4.02009 	 65.3177
| 31> H 	 14.8829 	 -3.54178 	 66.987
| 32> C 	 12.8663 	 -4.23828 	 66.6709
| 33> H 	 12.6241 	 -3.20807 	 67.0798
| 34> H 	 12.8943 	 -4.90487 	 67.5766
| 35> C 	 11.8318 	 -4.82261 	 65.6465
| 36> H 	 10.8731 	 -4.51971 	 65.9864
| 37> H 	 11.9053 	 -5.90039 	 65.4473
| 38> H 	 11.8733 	 -4.32385 	 64.6755
| 39> H 	 12.0873 	 -7.62736 	 61.6726
| 40> H 	 17.0616 	 -7.73062 	 68.0986
| 41> *
| 42>
| 43>                          ****END OF INPUT****

CARTESIAN COORDINATES (ANGSTROEM)
---------------------------------
  S     13.210400   -7.917880   63.855900
  C     12.845900   -7.171710   62.326700
  C     13.539500   -6.020970   62.048300
  C     14.443900   -5.743160   63.162000
  C     14.344800   -6.640120   64.149400
  H     15.167700   -4.922550   63.185600
  C     13.394400   -5.104270   60.809900
  H     13.366300   -5.804380   60.015200
  H     14.286200   -4.442570   60.503500
  C     12.030100   -4.382410   60.849300
  H     11.293300   -5.071200   61.269100
  H     12.103900   -3.603850   61.658600
  C     11.629400   -3.697220   59.504100
  H     10.737300   -2.999540   59.699700
  H     12.386800   -3.013700   59.157400
  H     11.442400   -4.393090   58.735700
  S     15.860000   -8.061250   65.942000
  C     16.389400   -7.238790   67.420800
  C     15.777800   -6.025840   67.590500
  C     15.085300   -5.661070   66.398100
  C     15.070600   -6.615200   65.435200
  H     15.976000   -5.441740   68.470800
  C     14.353600   -4.306610   66.341600
  H     14.402200   -4.020090   65.317700
  H     14.882900   -3.541780   66.987000
  C     12.866300   -4.238280   66.670900
  H     12.624100   -3.208070   67.079800
  H     12.894300   -4.904870   67.576600
  C     11.831800   -4.822610   65.646500
  H     10.873100   -4.519710   65.986400
  H     11.905300   -5.900390   65.447300
  H     11.873300   -4.323850   64.675500
  H     12.087300   -7.627360   61.672600
  H     17.061600   -7.730620   68.098600

 Total Charge           Charge          ....    0
 Multiplicity           Mult            ....    1
 Number of Electrons    NEL             ....  134
 Basis Dimension        Dim             ....  322

ORBITAL ENERGIES
----------------

  NO   OCC          E(Eh)            E(eV)
   0   2.0000     -88.969062     -2420.9713
   1   2.0000     -88.963423     -2420.8178
   2   2.0000     -10.323790      -280.9246
   3   2.0000     -10.319924      -280.8194
   4   2.0000     -10.316330      -280.7216
   5   2.0000     -10.314605      -280.6747
   6   2.0000     -10.307496      -280.4812
   7   2.0000     -10.300305      -280.2855
   8   2.0000     -10.298378      -280.2331
   9   2.0000     -10.294141      -280.1178
  10   2.0000     -10.292758      -280.0802
  11   2.0000     -10.292132      -280.0631
  12   2.0000     -10.289266      -279.9852
  13   2.0000     -10.286002      -279.8963
  14   2.0000     -10.284050      -279.8432
  15   2.0000     -10.270868      -279.4845
  16   2.0000      -8.084043      -219.9780
  17   2.0000      -8.078667      -219.8317
  18   2.0000      -6.042476      -164.4241
  19   2.0000      -6.038716      -164.3218
  20   2.0000      -6.037062      -164.2768
  21   2.0000      -6.034663      -164.2115
  22   2.0000      -6.033250      -164.1731
  23   2.0000      -6.029388      -164.0680
  24   2.0000      -1.012925       -27.5631
  25   2.0000      -0.988444       -26.8969
  26   2.0000      -0.908435       -24.7198
  27   2.0000      -0.899623       -24.4800
  28   2.0000      -0.868390       -23.6301
  29   2.0000      -0.850269       -23.1370
  30   2.0000      -0.841243       -22.8914
  31   2.0000      -0.816247       -22.2112
  32   2.0000      -0.783530       -21.3209
  33   2.0000      -0.772804       -21.0291
  34   2.0000      -0.703382       -19.1400
  35   2.0000      -0.697027       -18.9671
  36   2.0000      -0.685745       -18.6601
  37   2.0000      -0.664706       -18.0876
  38   2.0000      -0.644920       -17.5492
  39   2.0000      -0.619746       -16.8642
  40   2.0000      -0.592154       -16.1133
  41   2.0000      -0.570082       -15.5127
  42   2.0000      -0.554196       -15.0804
  43   2.0000      -0.549318       -14.9477
  44   2.0000      -0.532678       -14.4949
  45   2.0000      -0.520357       -14.1596
  46   2.0000      -0.513748       -13.9798
  47   2.0000      -0.506336       -13.7781
  48   2.0000      -0.502135       -13.6638
  49   2.0000      -0.497142       -13.5279
  50   2.0000      -0.488298       -13.2873
  51   2.0000      -0.480474       -13.0744
  52   2.0000      -0.470985       -12.8162
  53   2.0000      -0.466026       -12.6812
  54   2.0000      -0.456602       -12.4248
  55   2.0000      -0.452948       -12.3253
  56   2.0000      -0.447604       -12.1799
  57   2.0000      -0.439830       -11.9684
  58   2.0000      -0.428575       -11.6621
  59   2.0000      -0.427417       -11.6306
  60   2.0000      -0.420870       -11.4524
  61   2.0000      -0.413610       -11.2549
  62   2.0000      -0.395764       -10.7693
  63   2.0000      -0.349357        -9.5065
  64   2.0000      -0.333682        -9.0799
  65   2.0000      -0.331014        -9.0073
  66   2.0000      -0.295686        -8.0460
  67   0.0000       0.039561         1.0765
  68   0.0000       0.067240         1.8297
  69   0.0000       0.106249         2.8912
  70   0.0000       0.123855         3.3703
  71   0.0000       0.129886         3.5344

MULLIKEN ATOMIC CHARGES
-----------------------
   0 S :    0.113754
   1 C :   -0.143367
   2 C :   -0.084292
   3 C :    0.019537
   4 C :   -0.145879
   5 H :    0.024830
   6 C :    0.069178
   7 H :    0.012867
   8 H :    0.045453
   9 C :   -0.100828
  10 H :    0.033336
  11 H :    0.033099
  12 C :   -0.036446
  13 H :    0.045768
  14 H :    0.027270
  15 H :    0.033237
  16 S :    0.095353
  17 C :   -0.094628
  18 C :   -0.016388
  19 C :   -0.053053
  20 C :   -0.148476
  21 H :    0.020923
  22 C :    0.098288
  23 H :   -0.010689
  24 H :    0.029527
  25 C :   -0.103520
  26 H :    0.038136
  27 H :    0.022102
  28 C :   -0.014806
  29 H :    0.019745
  30 H :    0.046870
  31 H :    0.019901
  32 H :    0.052116
  33 H :    0.051083
Sum of atomic charges:   -0.0000000

LOEWDIN ATOMIC CHARGES
----------------------
   0 S :    0.413447
   1 C :   -0.201744
   2 C :   -0.053226
   3 C :   -0.063465
   4 C :   -0.191203
   5 H :    0.035963
   6 C :   -0.036997
   7 H :    0.023241
   8 H :    0.040932
   9 C :   -0.043922
  10 H :    0.024701
  11 H :    0.027227
  12 C :   -0.066401
  13 H :    0.039031
  14 H :    0.023779
  15 H :    0.017936
  16 S :    0.398101
  17 C :   -0.164622
  18 C :   -0.066274
  19 C :   -0.059791
  20 C :   -0.207728
  21 H :    0.034112
  22 C :   -0.037290
  23 H :    0.017534
  24 H :    0.036359
  25 C :   -0.048712
  26 H :    0.030644
  27 H :    0.026088
  28 C :   -0.067331
  29 H :    0.022452
  30 H :    0.024146
  31 H :    0.023281
  32 H :    0.027245
  33 H :    0.022485

  Mayer bond orders larger than 0.100000
B(  0-S ,  1-C ) :   1.1265 B(  0-S ,  4-C ) :   1.1426 B(  1-C ,  2-C ) :   1.6551
B(  1-C , 32-H ) :   0.9620 B(  2-C ,  3-C ) :   1.2027 B(  2-C ,  6-C ) :   1.0025
B(  3-C ,  4-C ) :   1.6451 B(  3-C ,  5-H ) :   0.9914 B(  4-C , 20-C ) :   0.9911
B(  6-C ,  7-H ) :   0.9361 B(  6-C ,  8-H ) :   0.9496 B(  6-C ,  9-C ) :   1.0511
B(  9-C , 10-H ) :   0.9607 B(  9-C , 11-H ) :   0.9551 B(  9-C , 12-C ) :   1.0689
B( 12-C , 13-H ) :   0.9745 B( 12-C , 14-H ) :   0.9734 B( 12-C , 15-H ) :   0.9788
B( 16-S , 17-C ) :   1.1508 B( 16-S , 20-C ) :   1.1368 B( 17-C , 18-C ) :   1.6148
B( 17-C , 33-H ) :   0.9718 B( 18-C , 19-C ) :   1.2205 B( 18-C , 21-H ) :   0.9959
B( 19-C , 20-C ) :   1.6323 B( 19-C , 22-C ) :   1.0404 B( 22-C , 23-H ) :   0.9232
B( 22-C , 24-H ) :   0.9352 B( 22-C , 25-C ) :   1.0652 B( 25-C , 26-H ) :   0.9574
B( 25-C , 27-H ) :   0.9540 B( 25-C , 28-C ) :   1.0758 B( 28-C , 29-H ) :   0.9702
B( 28-C , 30-H ) :   0.9662 B( 28-C , 31-H ) :   0.9720

Dispersion correction           -0.015981157
FINAL SINGLE POINT ENERGY     -1339.877507547396

DIPOLE MOMENT
-------------
                                X             Y             Z
Electronic contribution:     14.77782     -22.64725      11.26583
Nuclear contribution   :    -14.88278      23.18904     -11.45088
                        -----------------------------------------
Total Dipole Moment    :     -0.10496       0.54179      -0.18505
                        -----------------------------------------
Magnitude (a.u.)       :      0.58206
Magnitude (Debye)      :      1.47948

Rotational constants in cm-1:     0.024015     0.008352     0.007143
Rotational constants in MHz :   719.959606   250.375672   214.151928

                             ****ORCA TERMINATED NORMALLY****
TOTAL RUN TIME: 0 days 0 hours 0 minutes 34 seconds 772 msec
