                         Program Version 4.2.1 -  RELEASE  -
|  1> ! wB97X-D3 SP def2-SVP
|  2> %pal
|  3> nprocs 16
|  4> end
|  5>
|  6> * xyz 0 1
|  7> S 	 -78.2219 	 38.6525 	 134.703
|  8> C 	 -77.4634 	 37.4672 	 135.692
|  9> C 	 -78.382 	 36.4994 	 136.06
| 10> C 	 -79.677 	 36.7215 	 135.529
| 11> C 	 -79.7643 	 37.8508 	 134.773
| 12> H 	 -80.5659 	 36.1906 	 135.681
| 13> C 	 -78.0958 	 35.415 	 137.048
| 14> H 	 -79.049 	 34.9452 	 137.343
| 15> H 	 -77.6038 	 35.728 	 137.981
| 16> C 	 -77.262 	 34.3117 	 136.505
| 17> H 	 -76.3333 	 34.7262 	 136.181
| 18> H 	 -77.0395 	 33.5607 	 137.321
| 19> C 	 -77.893 	 33.4539 	 135.375
| 20> H 	 -78.2083 	 33.8337 	 134.429
| 21> H 	 -77.2244 	 32.6672 	 135.133
| 22> H 	 -78.6791 	 32.9537 	 135.906
| 23> S 	 -82.1923 	 39.1504 	 135.46
| 24> C 	 -83.1719 	 39.8642 	 134.217
| 25> C 	 -82.6106 	 39.5849 	 132.993
| 26> C 	 -81.3555 	 38.8621 	 133.031
| 27> C 	 -81.0054 	 38.5101 	 134.306
| 28> H 	 -83.25 	 39.8575 	 132.14
| 29> C 	 -80.3296 	 38.7404 	 131.859
| 30> H 	 -80.4277 	 37.6984 	 131.448
| 31> H 	 -79.301 	 38.7912 	 132.245
| 32> C 	 -80.539 	 39.8158 	 130.735
| 33> H 	 -80.6061 	 40.8647 	 131.121
| 34> H 	 -81.3985 	 39.6578 	 130.097
| 35> C 	 -79.5171 	 39.8562 	 129.668
| 36> H 	 -79.7897 	 40.7049 	 129.023
| 37> H 	 -79.5183 	 38.9348 	 129.089
| 38> H 	 -78.5409 	 39.982 	 130.218
| 39> H 	 -76.4252 	 37.6239 	 136.089
| 40> H 	 -84.1882 	 40.1816 	 134.28
| 41> *
| 42>
| 43>                          ****END OF INPUT****

CARTESIAN COORDINATES (ANGSTROEM)
---------------------------------
  S    -78.221900   38.652500  134.703000
  C    -77.463400   37.467200  135.692000
  C    -78.382000   36.499400  136.060000
  C    -79.677000   36.721500  135.529000
  C    -79.764300   37.850800  134.773000
  H    -80.565900   36.190600  135.681000
  C    -78.095800   35.415000  137.048000
  H    -79.049000   34.945200  137.343000
  H    -77.603800   35.728000  137.981000
  C    -77.262000   34.311700  136.505000
  H    -76.333300   34.726200  136.181000
  H    -77.039500   33.560700  137.321000
  C    -77.893000   33.453900  135.375000
  H    -78.208300   33.833700  134.429000
  H    -77.224400   32.667200  135.133000
  H    -78.679100   32.953700  135.906000
  S    -82.192300   39.150400  135.460000
  C    -83.171900   39.864200  134.217000
  C    -82.610600   39.584900  132.993000
  C    -81.355500   38.862100  133.031000
  C    -81.005400   38.510100  134.306000
  H    -83.250000   39.857500  132.140000
  C    -80.329600   38.740400  131.859000
  H    -80.427700   37.698400  131.448000
  H    -79.301000   38.791200  132.245000
  C    -80.539000   39.815800  130.735000
  H    -80.606100   40.864700  131.121000
  H    -81.398500   39.657800  130.097000
  C    -79.517100   39.856200  129.668000
  H    -79.789700   40.704900  129.023000
  H    -79.518300   38.934800  129.089000
  H    -78.540900   39.982000  130.218000
  H    -76.425200   37.623900  136.089000
  H    -84.188200   40.181600  134.280000

 Total Charge           Charge          ....    0
 Multiplicity           Mult            ....    1
 Number of Electrons    NEL             ....  134
 Basis Dimension        Dim             ....  322

ORBITAL ENERGIES
----------------

  NO   OCC          E(Eh)            E(eV)
   0   2.0000     -88.966578     -2420.9037
   1   2.0000     -88.963070     -2420.8082
   2   2.0000     -10.326419      -280.9961
   3   2.0000     -10.326222      -280.9908
   4   2.0000     -10.318488      -280.7803
   5   2.0000     -10.313412      -280.6422
   6   2.0000     -10.305554      -280.4284
   7   2.0000     -10.300889      -280.3014
   8   2.0000     -10.300704      -280.2964
   9   2.0000     -10.295347      -280.1506
  10   2.0000     -10.289972      -280.0044
  11   2.0000     -10.287302      -279.9317
  12   2.0000     -10.284332      -279.8509
  13   2.0000     -10.282948      -279.8132
  14   2.0000     -10.275799      -279.6187
  15   2.0000     -10.267351      -279.3888
  16   2.0000      -8.081784      -219.9165
  17   2.0000      -8.077535      -219.8009
  18   2.0000      -6.040177      -164.3616
  19   2.0000      -6.036148      -164.2519
  20   2.0000      -6.036093      -164.2504
  21   2.0000      -6.032766      -164.1599
  22   2.0000      -6.032003      -164.1392
  23   2.0000      -6.028254      -164.0371
  24   2.0000      -1.010615       -27.5002
  25   2.0000      -0.987205       -26.8632
  26   2.0000      -0.918027       -24.9808
  27   2.0000      -0.906351       -24.6631
  28   2.0000      -0.871576       -23.7168
  29   2.0000      -0.853313       -23.2198
  30   2.0000      -0.847105       -23.0509
  31   2.0000      -0.818092       -22.2614
  32   2.0000      -0.784602       -21.3501
  33   2.0000      -0.771140       -20.9838
  34   2.0000      -0.699826       -19.0432
  35   2.0000      -0.698518       -19.0076
  36   2.0000      -0.686849       -18.6901
  37   2.0000      -0.654143       -17.8001
  38   2.0000      -0.643425       -17.5085
  39   2.0000      -0.613581       -16.6964
  40   2.0000      -0.591445       -16.0940
  41   2.0000      -0.581537       -15.8244
  42   2.0000      -0.568537       -15.4707
  43   2.0000      -0.553145       -15.0518
  44   2.0000      -0.545813       -14.8523
  45   2.0000      -0.534777       -14.5520
  46   2.0000      -0.516889       -14.0653
  47   2.0000      -0.511913       -13.9299
  48   2.0000      -0.508348       -13.8329
  49   2.0000      -0.500247       -13.6124
  50   2.0000      -0.486915       -13.2496
  51   2.0000      -0.475295       -12.9334
  52   2.0000      -0.474685       -12.9168
  53   2.0000      -0.466762       -12.7013
  54   2.0000      -0.459529       -12.5044
  55   2.0000      -0.443416       -12.0660
  56   2.0000      -0.439235       -11.9522
  57   2.0000      -0.437186       -11.8964
  58   2.0000      -0.424980       -11.5643
  59   2.0000      -0.422678       -11.5017
  60   2.0000      -0.415474       -11.3056
  61   2.0000      -0.411242       -11.1905
  62   2.0000      -0.408953       -11.1282
  63   2.0000      -0.340319        -9.2605
  64   2.0000      -0.334003        -9.0887
  65   2.0000      -0.326686        -8.8896
  66   2.0000      -0.304630        -8.2894
  67   0.0000       0.037155         1.0110
  68   0.0000       0.061155         1.6641
  69   0.0000       0.113327         3.0838
  70   0.0000       0.122461         3.3323
  71   0.0000       0.129299         3.5184

MULLIKEN ATOMIC CHARGES
-----------------------
   0 S :    0.114020
   1 C :   -0.150260
   2 C :   -0.063837
   3 C :    0.046580
   4 C :   -0.166005
   5 H :   -0.007384
   6 C :    0.086909
   7 H :    0.010089
   8 H :    0.035788
   9 C :   -0.094238
  10 H :    0.015473
  11 H :    0.032884
  12 C :   -0.027435
  13 H :    0.040909
  14 H :    0.017515
  15 H :    0.012069
  16 S :    0.107700
  17 C :   -0.083147
  18 C :   -0.069760
  19 C :   -0.016130
  20 C :   -0.154220
  21 H :    0.030401
  22 C :    0.073174
  23 H :    0.042040
  24 H :    0.025110
  25 C :   -0.106617
  26 H :    0.041596
  27 H :    0.020487
  28 C :   -0.048495
  29 H :    0.040631
  30 H :    0.030095
  31 H :    0.033055
  32 H :    0.076344
  33 H :    0.054662
Sum of atomic charges:   -0.0000000

LOEWDIN ATOMIC CHARGES
----------------------
   0 S :    0.432127
   1 C :   -0.208215
   2 C :   -0.065115
   3 C :   -0.051382
   4 C :   -0.194930
   5 H :    0.027110
   6 C :   -0.036768
   7 H :    0.028395
   8 H :    0.035775
   9 C :   -0.037562
  10 H :    0.011820
  11 H :    0.030836
  12 C :   -0.064312
  13 H :    0.022453
  14 H :    0.023599
  15 H :    0.022477
  16 S :    0.397372
  17 C :   -0.192049
  18 C :   -0.076041
  19 C :   -0.057223
  20 C :   -0.195326
  21 H :    0.035221
  22 C :   -0.032088
  23 H :    0.040482
  24 H :    0.019287
  25 C :   -0.054521
  26 H :    0.030033
  27 H :    0.021684
  28 C :   -0.064052
  29 H :    0.031292
  30 H :    0.020858
  31 H :    0.026230
  32 H :    0.041770
  33 H :    0.030763

  Mayer bond orders larger than 0.100000
B(  0-S ,  1-C ) :   1.1615 B(  0-S ,  4-C ) :   1.1642 B(  1-C ,  2-C ) :   1.5789
B(  1-C , 32-H ) :   0.9650 B(  2-C ,  3-C ) :   1.2362 B(  2-C ,  6-C ) :   1.0219
B(  3-C ,  4-C ) :   1.5824 B(  3-C ,  5-H ) :   1.0155 B(  4-C , 20-C ) :   1.0072
B(  6-C ,  7-H ) :   0.9377 B(  6-C ,  8-H ) :   0.9393 B(  6-C ,  9-C ) :   1.0843
B(  9-C , 10-H ) :   0.9567 B(  9-C , 11-H ) :   0.9549 B(  9-C , 12-C ) :   1.0698
B( 12-C , 13-H ) :   0.9784 B( 12-C , 14-H ) :   0.9722 B( 12-C , 15-H ) :   0.9743
B( 16-S , 17-C ) :   1.1470 B( 16-S , 20-C ) :   1.1328 B( 17-C , 18-C ) :   1.6434
B( 17-C , 33-H ) :   0.9611 B( 18-C , 19-C ) :   1.2255 B( 18-C , 21-H ) :   0.9826
B( 19-C , 20-C ) :   1.6176 B( 19-C , 22-C ) :   1.0269 B( 22-C , 23-H ) :   0.9247
B( 22-C , 24-H ) :   0.9405 B( 22-C , 25-C ) :   1.0667 B( 25-C , 26-H ) :   0.9588
B( 25-C , 27-H ) :   0.9487 B( 25-C , 28-C ) :   1.0888 B( 28-C , 29-H ) :   0.9729
B( 28-C , 30-H ) :   0.9757 B( 28-C , 31-H ) :   0.9738

Dispersion correction           -0.013905081
FINAL SINGLE POINT ENERGY     -1339.871516275227

DIPOLE MOMENT
-------------
                                X             Y             Z
Electronic contribution:     -8.82857      12.72629      11.50543
Nuclear contribution   :      8.85219     -13.00466     -11.63064
                        -----------------------------------------
Total Dipole Moment    :      0.02362      -0.27837      -0.12521
                        -----------------------------------------
Magnitude (a.u.)       :      0.30615
Magnitude (Debye)      :      0.77816

Rotational constants in cm-1:     0.020131     0.007853     0.006550
Rotational constants in MHz :   603.508570   235.426728   196.364706

                             ****ORCA TERMINATED NORMALLY****
TOTAL RUN TIME: 0 days 0 hours 0 minutes 33 seconds 613 msec
