                         Program Version 4.2.1 -  RELEASE  -
|  1> ! wB97X-D3 SP def2-SVP
|  2> %pal
|  3> nprocs 16
|  4> end
|  5>
|  6> * xyz 0 1
|  7> S 	 1.46367 	 -12.6149 	 65.3946
|  8> C 	 2.23408 	 -12.2768 	 66.966
|  9> C 	 3.59258 	 -12.1258 	 66.8038
| 10> C 	 4.03544 	 -12.0461 	 65.4657
| 11> C 	 3.02756 	 -12.3694 	 64.5434
| 12> H 	 5.06871 	 -11.8166 	 65.2425
| 13> C 	 4.62062 	 -12.0822 	 67.9342
| 14> H 	 5.52948 	 -12.3044 	 67.4315
| 15> H 	 4.52193 	 -12.9788 	 68.5702
| 16> C 	 4.80242 	 -10.8481 	 68.8509
| 17> H 	 3.83348 	 -10.62 	 69.304
| 18> H 	 5.39557 	 -11.2132 	 69.6849
| 19> C 	 5.359 	 -9.59785 	 68.2718
| 20> H 	 5.69334 	 -8.90882 	 69.0963
| 21> H 	 6.19751 	 -9.8922 	 67.6449
| 22> H 	 4.56438 	 -9.14729 	 67.659
| 23> S 	 4.93917 	 -13.0715 	 62.547
| 24> C 	 4.36354 	 -13.4209 	 61.0072
| 25> C 	 3.04401 	 -13.0387 	 60.7867
| 26> C 	 2.45335 	 -12.3912 	 61.967
| 27> C 	 3.25951 	 -12.5866 	 63.0984
| 28> H 	 2.68143 	 -13.0243 	 59.7264
| 29> C 	 1.04489 	 -11.8574 	 62.0309
| 30> H 	 1.13297 	 -11.0659 	 62.7569
| 31> H 	 0.434561 	 -12.6794 	 62.3357
| 32> C 	 0.48823 	 -11.3277 	 60.7108
| 33> H 	 0.290365 	 -12.1983 	 60.0555
| 34> H 	 1.29397 	 -10.8606 	 60.1431
| 35> C 	 -0.874776 	 -10.516 	 60.7475
| 36> H 	 -1.75803 	 -11.0759 	 60.9939
| 37> H 	 -0.911575 	 -10.0433 	 59.786
| 38> H 	 -0.858784 	 -9.71263 	 61.4342
| 39> H 	 1.59684 	 -12.202 	 67.8574
| 40> H 	 5.07432 	 -13.8111 	 60.242
| 41> *
| 42>
| 43>                          ****END OF INPUT****

CARTESIAN COORDINATES (ANGSTROEM)
---------------------------------
  S      1.463670  -12.614900   65.394600
  C      2.234080  -12.276800   66.966000
  C      3.592580  -12.125800   66.803800
  C      4.035440  -12.046100   65.465700
  C      3.027560  -12.369400   64.543400
  H      5.068710  -11.816600   65.242500
  C      4.620620  -12.082200   67.934200
  H      5.529480  -12.304400   67.431500
  H      4.521930  -12.978800   68.570200
  C      4.802420  -10.848100   68.850900
  H      3.833480  -10.620000   69.304000
  H      5.395570  -11.213200   69.684900
  C      5.359000   -9.597850   68.271800
  H      5.693340   -8.908820   69.096300
  H      6.197510   -9.892200   67.644900
  H      4.564380   -9.147290   67.659000
  S      4.939170  -13.071500   62.547000
  C      4.363540  -13.420900   61.007200
  C      3.044010  -13.038700   60.786700
  C      2.453350  -12.391200   61.967000
  C      3.259510  -12.586600   63.098400
  H      2.681430  -13.024300   59.726400
  C      1.044890  -11.857400   62.030900
  H      1.132970  -11.065900   62.756900
  H      0.434561  -12.679400   62.335700
  C      0.488230  -11.327700   60.710800
  H      0.290365  -12.198300   60.055500
  H      1.293970  -10.860600   60.143100
  C     -0.874776  -10.516000   60.747500
  H     -1.758030  -11.075900   60.993900
  H     -0.911575  -10.043300   59.786000
  H     -0.858784   -9.712630   61.434200
  H      1.596840  -12.202000   67.857400
  H      5.074320  -13.811100   60.242000

 Total Charge           Charge          ....    0
 Multiplicity           Mult            ....    1
 Number of Electrons    NEL             ....  134
 Basis Dimension        Dim             ....  322

ORBITAL ENERGIES
----------------

  NO   OCC          E(Eh)            E(eV)
   0   2.0000     -88.968802     -2420.9642
   1   2.0000     -88.964109     -2420.8365
   2   2.0000     -10.338903      -281.3358
   3   2.0000     -10.332641      -281.1655
   4   2.0000     -10.319600      -280.8106
   5   2.0000     -10.317321      -280.7486
   6   2.0000     -10.310716      -280.5688
   7   2.0000     -10.300226      -280.2834
   8   2.0000     -10.299532      -280.2645
   9   2.0000     -10.293509      -280.1006
  10   2.0000     -10.290467      -280.0178
  11   2.0000     -10.288713      -279.9701
  12   2.0000     -10.286749      -279.9167
  13   2.0000     -10.282165      -279.7919
  14   2.0000     -10.277986      -279.6782
  15   2.0000     -10.276413      -279.6354
  16   2.0000      -8.081821      -219.9175
  17   2.0000      -8.079127      -219.8442
  18   2.0000      -6.040510      -164.3706
  19   2.0000      -6.037556      -164.2902
  20   2.0000      -6.036548      -164.2628
  21   2.0000      -6.033768      -164.1872
  22   2.0000      -6.032537      -164.1537
  23   2.0000      -6.029795      -164.0791
  24   2.0000      -0.997704       -27.1489
  25   2.0000      -0.979028       -26.6407
  26   2.0000      -0.910563       -24.7777
  27   2.0000      -0.907699       -24.6997
  28   2.0000      -0.865355       -23.5475
  29   2.0000      -0.850308       -23.1381
  30   2.0000      -0.845991       -23.0206
  31   2.0000      -0.806258       -21.9394
  32   2.0000      -0.788079       -21.4447
  33   2.0000      -0.772779       -21.0284
  34   2.0000      -0.710937       -19.3456
  35   2.0000      -0.698295       -19.0016
  36   2.0000      -0.691921       -18.8281
  37   2.0000      -0.650591       -17.7035
  38   2.0000      -0.634011       -17.2523
  39   2.0000      -0.608918       -16.5695
  40   2.0000      -0.593915       -16.1612
  41   2.0000      -0.572583       -15.5808
  42   2.0000      -0.566785       -15.4230
  43   2.0000      -0.547502       -14.8983
  44   2.0000      -0.539051       -14.6683
  45   2.0000      -0.526468       -14.3259
  46   2.0000      -0.517409       -14.0794
  47   2.0000      -0.515952       -14.0398
  48   2.0000      -0.501035       -13.6339
  49   2.0000      -0.489986       -13.3332
  50   2.0000      -0.484311       -13.1788
  51   2.0000      -0.484022       -13.1709
  52   2.0000      -0.474203       -12.9037
  53   2.0000      -0.465281       -12.6609
  54   2.0000      -0.462892       -12.5959
  55   2.0000      -0.449984       -12.2447
  56   2.0000      -0.442736       -12.0475
  57   2.0000      -0.436152       -11.8683
  58   2.0000      -0.428786       -11.6679
  59   2.0000      -0.422541       -11.4979
  60   2.0000      -0.418142       -11.3782
  61   2.0000      -0.415277       -11.3003
  62   2.0000      -0.409323       -11.1382
  63   2.0000      -0.352749        -9.5988
  64   2.0000      -0.332304        -9.0425
  65   2.0000      -0.327647        -8.9157
  66   2.0000      -0.279868        -7.6156
  67   0.0000       0.016282         0.4430
  68   0.0000       0.074303         2.0219
  69   0.0000       0.099946         2.7197
  70   0.0000       0.111194         3.0257
  71   0.0000       0.127293         3.4638

MULLIKEN ATOMIC CHARGES
-----------------------
   0 S :    0.091629
   1 C :   -0.150071
   2 C :   -0.072413
   3 C :   -0.003762
   4 C :   -0.121779
   5 H :    0.019584
   6 C :    0.060337
   7 H :   -0.003545
   8 H :    0.034832
   9 C :   -0.062206
  10 H :    0.017149
  11 H :    0.022218
  12 C :   -0.042101
  13 H :    0.048188
  14 H :    0.024021
  15 H :    0.045747
  16 S :    0.094421
  17 C :   -0.101027
  18 C :   -0.051276
  19 C :   -0.093299
  20 C :   -0.134080
  21 H :    0.043441
  22 C :    0.106687
  23 H :    0.033245
  24 H :    0.046895
  25 C :   -0.141795
  26 H :    0.028928
  27 H :    0.028088
  28 C :    0.006699
  29 H :    0.037441
  30 H :    0.029294
  31 H :    0.016764
  32 H :    0.064888
  33 H :    0.076858
Sum of atomic charges:   -0.0000000

LOEWDIN ATOMIC CHARGES
----------------------
   0 S :    0.380233
   1 C :   -0.189846
   2 C :   -0.066368
   3 C :   -0.071684
   4 C :   -0.171856
   5 H :    0.029368
   6 C :   -0.032329
   7 H :    0.021240
   8 H :    0.038733
   9 C :   -0.045655
  10 H :    0.020853
  11 H :    0.023211
  12 C :   -0.067135
  13 H :    0.036489
  14 H :    0.021982
  15 H :    0.031416
  16 S :    0.398508
  17 C :   -0.202453
  18 C :   -0.092924
  19 C :   -0.044481
  20 C :   -0.178217
  21 H :    0.040023
  22 C :   -0.036284
  23 H :    0.029639
  24 H :    0.034621
  25 C :   -0.044967
  26 H :    0.025548
  27 H :    0.022635
  28 C :   -0.054936
  29 H :    0.026133
  30 H :    0.029646
  31 H :    0.018375
  32 H :    0.032725
  33 H :    0.037758

  Mayer bond orders larger than 0.100000
B(  0-S ,  1-C ) :   1.1240 B(  0-S ,  4-C ) :   1.1463 B(  1-C ,  2-C ) :   1.5930
B(  1-C ,  4-C ) :   0.1002 B(  1-C , 32-H ) :   0.9727 B(  2-C ,  3-C ) :   1.2767
B(  2-C ,  6-C ) :   1.0063 B(  3-C ,  4-C ) :   1.5265 B(  3-C ,  5-H ) :   0.9849
B(  4-C , 20-C ) :   1.0969 B(  6-C ,  7-H ) :   0.9370 B(  6-C ,  8-H ) :   0.9405
B(  6-C ,  9-C ) :   1.0770 B(  9-C , 10-H ) :   0.9544 B(  9-C , 11-H ) :   0.9513
B(  9-C , 12-C ) :   1.0806 B( 12-C , 13-H ) :   0.9707 B( 12-C , 14-H ) :   0.9749
B( 12-C , 15-H ) :   0.9748 B( 16-S , 17-C ) :   1.1832 B( 16-S , 20-C ) :   1.1136
B( 17-C , 18-C ) :   1.6081 B( 17-C , 33-H ) :   0.9575 B( 18-C , 19-C ) :   1.2101
B( 18-C , 21-H ) :   0.9786 B( 19-C , 20-C ) :   1.5766 B( 19-C , 22-C ) :   1.0458
B( 22-C , 23-H ) :   0.9265 B( 22-C , 24-H ) :   0.9309 B( 22-C , 25-C ) :   1.0795
B( 25-C , 26-H ) :   0.9451 B( 25-C , 27-H ) :   0.9642 B( 25-C , 28-C ) :   1.0714
B( 28-C , 29-H ) :   0.9764 B( 28-C , 30-H ) :   0.9731 B( 28-C , 31-H ) :   0.9774

Dispersion correction           -0.013602758
FINAL SINGLE POINT ENERGY     -1339.867621335047

DIPOLE MOMENT
-------------
                                X             Y             Z
Electronic contribution:      4.11635     -13.10615      -4.48636
Nuclear contribution   :     -4.10885      13.29198       4.48965
                        -----------------------------------------
Total Dipole Moment    :      0.00750       0.18584       0.00329
                        -----------------------------------------
Magnitude (a.u.)       :      0.18602
Magnitude (Debye)      :      0.47282

Rotational constants in cm-1:     0.020527     0.007288     0.006059
Rotational constants in MHz :   615.394416   218.480371   181.650303

                             ****ORCA TERMINATED NORMALLY****
TOTAL RUN TIME: 0 days 0 hours 0 minutes 28 seconds 404 msec
