                         Program Version 4.2.1 -  RELEASE  -
|  1> ! wB97X-D3 SP def2-SVP
|  2> %pal
|  3> nprocs 16
|  4> end
|  5>
|  6> * xyz 0 1
|  7> S 	 40.6189 	 9.61344 	 79.038
|  8> C 	 41.99 	 9.09771 	 80.0194
|  9> C 	 42.6281 	 10.1661 	 80.6092
| 10> C 	 41.967 	 11.3895 	 80.2835
| 11> C 	 40.9054 	 11.3044 	 79.4462
| 12> H 	 42.2848 	 12.3206 	 80.6215
| 13> C 	 43.9585 	 10.0518 	 81.4839
| 14> H 	 44.0913 	 11.0242 	 81.7661
| 15> H 	 44.738 	 9.71927 	 80.7808
| 16> C 	 43.9843 	 9.22101 	 82.732
| 17> H 	 43.8951 	 8.12331 	 82.5012
| 18> H 	 44.9622 	 9.27949 	 83.2058
| 19> C 	 42.998 	 9.70152 	 83.849
| 20> H 	 42.013 	 9.66763 	 83.3521
| 21> H 	 42.9408 	 9.03071 	 84.6346
| 22> H 	 43.1819 	 10.6979 	 84.3123
| 23> S 	 40.5293 	 13.373 	 77.7776
| 24> C 	 39.0797 	 14.2582 	 77.6531
| 25> C 	 38.109 	 13.6581 	 78.3848
| 26> C 	 38.5922 	 12.559 	 79.1882
| 27> C 	 39.9761 	 12.3432 	 79.0009
| 28> H 	 37.1254 	 14.0923 	 78.411
| 29> C 	 37.627 	 11.8322 	 80.1363
| 30> H 	 37.801 	 10.7412 	 80.0118
| 31> H 	 36.6504 	 11.9936 	 79.8128
| 32> C 	 37.7711 	 12.2355 	 81.6292
| 33> H 	 38.8302 	 11.9927 	 81.948
| 34> H 	 36.9851 	 11.5599 	 82.0899
| 35> C 	 37.4042 	 13.7339 	 81.84
| 36> H 	 38.1109 	 14.4546 	 81.2408
| 37> H 	 37.443 	 13.9786 	 82.8311
| 38> H 	 36.3845 	 13.8496 	 81.3971
| 39> H 	 42.3026 	 8.11783 	 80.1945
| 40> H 	 38.8288 	 15.0306 	 76.9296
| 41> *
| 42>
| 43>                          ****END OF INPUT****

CARTESIAN COORDINATES (ANGSTROEM)
---------------------------------
  S     40.618900    9.613440   79.038000
  C     41.990000    9.097710   80.019400
  C     42.628100   10.166100   80.609200
  C     41.967000   11.389500   80.283500
  C     40.905400   11.304400   79.446200
  H     42.284800   12.320600   80.621500
  C     43.958500   10.051800   81.483900
  H     44.091300   11.024200   81.766100
  H     44.738000    9.719270   80.780800
  C     43.984300    9.221010   82.732000
  H     43.895100    8.123310   82.501200
  H     44.962200    9.279490   83.205800
  C     42.998000    9.701520   83.849000
  H     42.013000    9.667630   83.352100
  H     42.940800    9.030710   84.634600
  H     43.181900   10.697900   84.312300
  S     40.529300   13.373000   77.777600
  C     39.079700   14.258200   77.653100
  C     38.109000   13.658100   78.384800
  C     38.592200   12.559000   79.188200
  C     39.976100   12.343200   79.000900
  H     37.125400   14.092300   78.411000
  C     37.627000   11.832200   80.136300
  H     37.801000   10.741200   80.011800
  H     36.650400   11.993600   79.812800
  C     37.771100   12.235500   81.629200
  H     38.830200   11.992700   81.948000
  H     36.985100   11.559900   82.089900
  C     37.404200   13.733900   81.840000
  H     38.110900   14.454600   81.240800
  H     37.443000   13.978600   82.831100
  H     36.384500   13.849600   81.397100
  H     42.302600    8.117830   80.194500
  H     38.828800   15.030600   76.929600

 Total Charge           Charge          ....    0
 Multiplicity           Mult            ....    1
 Number of Electrons    NEL             ....  134
 Basis Dimension        Dim             ....  322

ORBITAL ENERGIES
----------------

  NO   OCC          E(Eh)            E(eV)
   0   2.0000     -88.965652     -2420.8785
   1   2.0000     -88.962547     -2420.7940
   2   2.0000     -10.328601      -281.0555
   3   2.0000     -10.323912      -280.9279
   4   2.0000     -10.310808      -280.5714
   5   2.0000     -10.309534      -280.5367
   6   2.0000     -10.304779      -280.4073
   7   2.0000     -10.302943      -280.3573
   8   2.0000     -10.293598      -280.1030
   9   2.0000     -10.292461      -280.0721
  10   2.0000     -10.292292      -280.0675
  11   2.0000     -10.289177      -279.9827
  12   2.0000     -10.288243      -279.9573
  13   2.0000     -10.285431      -279.8808
  14   2.0000     -10.279752      -279.7263
  15   2.0000     -10.276292      -279.6321
  16   2.0000      -8.079790      -219.8623
  17   2.0000      -8.079150      -219.8448
  18   2.0000      -6.038370      -164.3124
  19   2.0000      -6.037507      -164.2889
  20   2.0000      -6.034326      -164.2024
  21   2.0000      -6.033173      -164.1710
  22   2.0000      -6.030561      -164.0999
  23   2.0000      -6.030159      -164.0890
  24   2.0000      -1.012403       -27.5489
  25   2.0000      -0.988031       -26.8857
  26   2.0000      -0.910057       -24.7639
  27   2.0000      -0.902886       -24.5688
  28   2.0000      -0.872382       -23.7387
  29   2.0000      -0.845471       -23.0064
  30   2.0000      -0.838897       -22.8275
  31   2.0000      -0.818027       -22.2596
  32   2.0000      -0.786995       -21.4152
  33   2.0000      -0.773781       -21.0557
  34   2.0000      -0.707394       -19.2492
  35   2.0000      -0.703323       -19.1384
  36   2.0000      -0.682428       -18.5698
  37   2.0000      -0.659986       -17.9591
  38   2.0000      -0.644237       -17.5306
  39   2.0000      -0.616252       -16.7691
  40   2.0000      -0.589615       -16.0442
  41   2.0000      -0.574632       -15.6365
  42   2.0000      -0.559194       -15.2164
  43   2.0000      -0.551731       -15.0134
  44   2.0000      -0.546660       -14.8754
  45   2.0000      -0.536795       -14.6069
  46   2.0000      -0.515781       -14.0351
  47   2.0000      -0.511699       -13.9240
  48   2.0000      -0.505438       -13.7537
  49   2.0000      -0.491102       -13.3636
  50   2.0000      -0.485496       -13.2110
  51   2.0000      -0.475413       -12.9367
  52   2.0000      -0.470837       -12.8121
  53   2.0000      -0.469056       -12.7637
  54   2.0000      -0.462138       -12.5754
  55   2.0000      -0.450134       -12.2488
  56   2.0000      -0.439991       -11.9728
  57   2.0000      -0.437074       -11.8934
  58   2.0000      -0.430776       -11.7220
  59   2.0000      -0.429576       -11.6894
  60   2.0000      -0.419670       -11.4198
  61   2.0000      -0.408572       -11.1178
  62   2.0000      -0.403988       -10.9931
  63   2.0000      -0.340100        -9.2546
  64   2.0000      -0.334859        -9.1120
  65   2.0000      -0.323247        -8.7960
  66   2.0000      -0.305601        -8.3158
  67   0.0000       0.039244         1.0679
  68   0.0000       0.065514         1.7827
  69   0.0000       0.115949         3.1551
  70   0.0000       0.124178         3.3791
  71   0.0000       0.130131         3.5410

MULLIKEN ATOMIC CHARGES
-----------------------
   0 S :    0.114967
   1 C :   -0.104311
   2 C :   -0.127223
   3 C :    0.067622
   4 C :   -0.144645
   5 H :   -0.021597
   6 C :    0.143732
   7 H :   -0.012688
   8 H :    0.050280
   9 C :   -0.092528
  10 H :    0.032405
  11 H :    0.028991
  12 C :   -0.054063
  13 H :    0.040960
  14 H :    0.017142
  15 H :    0.042078
  16 S :    0.124849
  17 C :   -0.082902
  18 C :   -0.055494
  19 C :   -0.056976
  20 C :   -0.180005
  21 H :    0.015565
  22 C :    0.090629
  23 H :    0.030349
  24 H :   -0.003393
  25 C :   -0.095222
  26 H :    0.051148
  27 H :    0.044571
  28 C :   -0.055731
  29 H :    0.058331
  30 H :    0.025871
  31 H :    0.027478
  32 H :    0.020912
  33 H :    0.058901
Sum of atomic charges:   -0.0000000

LOEWDIN ATOMIC CHARGES
----------------------
   0 S :    0.398494
   1 C :   -0.180268
   2 C :   -0.062993
   3 C :   -0.054576
   4 C :   -0.194135
   5 H :    0.020125
   6 C :   -0.018663
   7 H :    0.015630
   8 H :    0.040775
   9 C :   -0.045587
  10 H :    0.026688
  11 H :    0.025969
  12 C :   -0.065522
  13 H :    0.030279
  14 H :    0.014691
  15 H :    0.030908
  16 S :    0.458921
  17 C :   -0.206750
  18 C :   -0.077367
  19 C :   -0.053024
  20 C :   -0.230033
  21 H :    0.029071
  22 C :   -0.032928
  23 H :    0.031062
  24 H :    0.015936
  25 C :   -0.040035
  26 H :    0.030553
  27 H :    0.031771
  28 C :   -0.067318
  29 H :    0.040167
  30 H :    0.009825
  31 H :    0.027139
  32 H :    0.015746
  33 H :    0.035449

  Mayer bond orders larger than 0.100000
B(  0-S ,  1-C ) :   1.1444 B(  0-S ,  4-C ) :   1.1312 B(  1-C ,  2-C ) :   1.6188
B(  1-C , 32-H ) :   0.9774 B(  2-C ,  3-C ) :   1.2431 B(  2-C ,  6-C ) :   0.9864
B(  3-C ,  4-C ) :   1.6072 B(  3-C ,  5-H ) :   1.0018 B(  4-C , 20-C ) :   1.0052
B(  6-C ,  7-H ) :   0.9320 B(  6-C ,  8-H ) :   0.9407 B(  6-C ,  9-C ) :   1.0876
B(  9-C , 10-H ) :   0.9550 B(  9-C , 11-H ) :   0.9514 B(  9-C , 12-C ) :   1.0683
B( 12-C , 13-H ) :   0.9772 B( 12-C , 14-H ) :   0.9741 B( 12-C , 15-H ) :   0.9752
B( 16-S , 17-C ) :   1.1760 B( 16-S , 20-C ) :   1.1862 B( 17-C , 18-C ) :   1.5908
B( 17-C , 33-H ) :   0.9643 B( 18-C , 19-C ) :   1.2674 B( 18-C , 21-H ) :   0.9913
B( 19-C , 20-C ) :   1.5504 B( 19-C , 22-C ) :   1.0401 B( 22-C , 23-H ) :   0.9300
B( 22-C , 24-H ) :   0.9331 B( 22-C , 25-C ) :   1.0655 B( 25-C , 26-H ) :   0.9572
B( 25-C , 27-H ) :   0.9561 B( 25-C , 28-C ) :   1.0653 B( 28-C , 29-H ) :   0.9711
B( 28-C , 30-H ) :   0.9764 B( 28-C , 31-H ) :   0.9739

Dispersion correction           -0.014934864
FINAL SINGLE POINT ENERGY     -1339.868934608021

DIPOLE MOMENT
-------------
                                X             Y             Z
Electronic contribution:      0.69712       1.58064     -24.13209
Nuclear contribution   :     -0.69117      -1.57024      24.57064
                        -----------------------------------------
Total Dipole Moment    :      0.00595       0.01040       0.43855
                        -----------------------------------------
Magnitude (a.u.)       :      0.43871
Magnitude (Debye)      :      1.11512

Rotational constants in cm-1:     0.020783     0.008160     0.007035
Rotational constants in MHz :   623.062386   244.638288   210.903677

                             ****ORCA TERMINATED NORMALLY****
TOTAL RUN TIME: 0 days 0 hours 0 minutes 30 seconds 427 msec
