                         Program Version 4.2.1 -  RELEASE  -
|  1> ! wB97X-D3 SP def2-SVP
|  2> %pal
|  3> nprocs 16
|  4> end
|  5>
|  6> * xyz 0 1
|  7> S 	 -74.284 	 49.4772 	 138.937
|  8> C 	 -73.4766 	 48.7851 	 140.363
|  9> C 	 -74.0647 	 49.2342 	 141.554
| 10> C 	 -75.1005 	 50.1362 	 141.301
| 11> C 	 -75.3712 	 50.3922 	 139.982
| 12> H 	 -75.6626 	 50.6922 	 141.998
| 13> C 	 -73.5766 	 48.9046 	 142.959
| 14> H 	 -72.5626 	 48.4508 	 142.897
| 15> H 	 -74.2668 	 48.204 	 143.412
| 16> C 	 -73.4041 	 50.0192 	 143.899
| 17> H 	 -72.7645 	 50.7666 	 143.434
| 18> H 	 -74.3088 	 50.6208 	 144.127
| 19> C 	 -73.1214 	 49.5087 	 145.322
| 20> H 	 -72.1555 	 49.0783 	 145.238
| 21> H 	 -73.0618 	 50.3826 	 146.006
| 22> H 	 -73.7929 	 48.7578 	 145.812
| 23> S 	 -76.1877 	 53.0122 	 140.031
| 24> C 	 -77.5193 	 53.63 	 139.09
| 25> C 	 -77.83 	 52.6749 	 138.13
| 26> C 	 -77.2193 	 51.4056 	 138.29
| 27> C 	 -76.3277 	 51.3742 	 139.392
| 28> H 	 -78.5876 	 52.861 	 137.384
| 29> C 	 -77.2436 	 50.1957 	 137.362
| 30> H 	 -78.2362 	 49.7565 	 137.256
| 31> H 	 -76.6384 	 49.4631 	 137.87
| 32> C 	 -76.5659 	 50.4027 	 136.015
| 33> H 	 -75.5596 	 50.604 	 136.229
| 34> H 	 -76.8744 	 51.2932 	 135.482
| 35> C 	 -76.7578 	 49.1983 	 135.048
| 36> H 	 -76.1929 	 49.3632 	 134.041
| 37> H 	 -77.7985 	 49.0836 	 134.707
| 38> H 	 -76.496 	 48.2193 	 135.458
| 39> H 	 -72.8048 	 48.0203 	 140.39
| 40> H 	 -77.8932 	 54.637 	 139.1
| 41> *
| 42>
| 43>                          ****END OF INPUT****

CARTESIAN COORDINATES (ANGSTROEM)
---------------------------------
  S    -74.284000   49.477200  138.937000
  C    -73.476600   48.785100  140.363000
  C    -74.064700   49.234200  141.554000
  C    -75.100500   50.136200  141.301000
  C    -75.371200   50.392200  139.982000
  H    -75.662600   50.692200  141.998000
  C    -73.576600   48.904600  142.959000
  H    -72.562600   48.450800  142.897000
  H    -74.266800   48.204000  143.412000
  C    -73.404100   50.019200  143.899000
  H    -72.764500   50.766600  143.434000
  H    -74.308800   50.620800  144.127000
  C    -73.121400   49.508700  145.322000
  H    -72.155500   49.078300  145.238000
  H    -73.061800   50.382600  146.006000
  H    -73.792900   48.757800  145.812000
  S    -76.187700   53.012200  140.031000
  C    -77.519300   53.630000  139.090000
  C    -77.830000   52.674900  138.130000
  C    -77.219300   51.405600  138.290000
  C    -76.327700   51.374200  139.392000
  H    -78.587600   52.861000  137.384000
  C    -77.243600   50.195700  137.362000
  H    -78.236200   49.756500  137.256000
  H    -76.638400   49.463100  137.870000
  C    -76.565900   50.402700  136.015000
  H    -75.559600   50.604000  136.229000
  H    -76.874400   51.293200  135.482000
  C    -76.757800   49.198300  135.048000
  H    -76.192900   49.363200  134.041000
  H    -77.798500   49.083600  134.707000
  H    -76.496000   48.219300  135.458000
  H    -72.804800   48.020300  140.390000
  H    -77.893200   54.637000  139.100000

 Total Charge           Charge          ....    0
 Multiplicity           Mult            ....    1
 Number of Electrons    NEL             ....  134
 Basis Dimension        Dim             ....  322

ORBITAL ENERGIES
----------------

  NO   OCC          E(Eh)            E(eV)
   0   2.0000     -88.971576     -2421.0397
   1   2.0000     -88.964823     -2420.8559
   2   2.0000     -10.335030      -281.2305
   3   2.0000     -10.333051      -281.1766
   4   2.0000     -10.319173      -280.7990
   5   2.0000     -10.314132      -280.6618
   6   2.0000     -10.306674      -280.4589
   7   2.0000     -10.303164      -280.3633
   8   2.0000     -10.295189      -280.1463
   9   2.0000     -10.292764      -280.0803
  10   2.0000     -10.289589      -279.9940
  11   2.0000     -10.286772      -279.9173
  12   2.0000     -10.285711      -279.8884
  13   2.0000     -10.284934      -279.8673
  14   2.0000     -10.283000      -279.8147
  15   2.0000     -10.280383      -279.7434
  16   2.0000      -8.084909      -220.0016
  17   2.0000      -8.079263      -219.8479
  18   2.0000      -6.043460      -164.4509
  19   2.0000      -6.039545      -164.3444
  20   2.0000      -6.037724      -164.2948
  21   2.0000      -6.035786      -164.2421
  22   2.0000      -6.033692      -164.1851
  23   2.0000      -6.030195      -164.0900
  24   2.0000      -1.005207       -27.3531
  25   2.0000      -0.984312       -26.7845
  26   2.0000      -0.922175       -25.0937
  27   2.0000      -0.907593       -24.6969
  28   2.0000      -0.869265       -23.6539
  29   2.0000      -0.851876       -23.1807
  30   2.0000      -0.843074       -22.9412
  31   2.0000      -0.816640       -22.2219
  32   2.0000      -0.782171       -21.2839
  33   2.0000      -0.770875       -20.9766
  34   2.0000      -0.708721       -19.2853
  35   2.0000      -0.702689       -19.1211
  36   2.0000      -0.694369       -18.8947
  37   2.0000      -0.667199       -18.1554
  38   2.0000      -0.640560       -17.4305
  39   2.0000      -0.624200       -16.9853
  40   2.0000      -0.596793       -16.2396
  41   2.0000      -0.577475       -15.7139
  42   2.0000      -0.572601       -15.5813
  43   2.0000      -0.562647       -15.3104
  44   2.0000      -0.528932       -14.3930
  45   2.0000      -0.523639       -14.2489
  46   2.0000      -0.514343       -13.9960
  47   2.0000      -0.510370       -13.8879
  48   2.0000      -0.506133       -13.7726
  49   2.0000      -0.499836       -13.6012
  50   2.0000      -0.493288       -13.4231
  51   2.0000      -0.477501       -12.9935
  52   2.0000      -0.470301       -12.7975
  53   2.0000      -0.465845       -12.6763
  54   2.0000      -0.465024       -12.6539
  55   2.0000      -0.449812       -12.2400
  56   2.0000      -0.444067       -12.0837
  57   2.0000      -0.442147       -12.0314
  58   2.0000      -0.436108       -11.8671
  59   2.0000      -0.426948       -11.6178
  60   2.0000      -0.417622       -11.3641
  61   2.0000      -0.412232       -11.2174
  62   2.0000      -0.399924       -10.8825
  63   2.0000      -0.343861        -9.3569
  64   2.0000      -0.336854        -9.1663
  65   2.0000      -0.328896        -8.9497
  66   2.0000      -0.294622        -8.0171
  67   0.0000       0.023071         0.6278
  68   0.0000       0.068566         1.8658
  69   0.0000       0.105474         2.8701
  70   0.0000       0.116649         3.1742
  71   0.0000       0.128227         3.4892

MULLIKEN ATOMIC CHARGES
-----------------------
   0 S :    0.100971
   1 C :   -0.068052
   2 C :   -0.079193
   3 C :    0.036145
   4 C :   -0.135104
   5 H :   -0.008227
   6 C :    0.097285
   7 H :    0.023029
   8 H :    0.031646
   9 C :   -0.117225
  10 H :    0.037354
  11 H :    0.028682
  12 C :   -0.056350
  13 H :    0.017642
  14 H :    0.039595
  15 H :    0.049820
  16 S :    0.099437
  17 C :   -0.088586
  18 C :   -0.038583
  19 C :   -0.028945
  20 C :   -0.162507
  21 H :    0.018336
  22 C :    0.065717
  23 H :    0.026216
  24 H :    0.010603
  25 C :   -0.029002
  26 H :    0.010703
  27 H :    0.021505
  28 C :   -0.081743
  29 H :    0.045508
  30 H :    0.030533
  31 H :    0.035066
  32 H :    0.007124
  33 H :    0.060599
Sum of atomic charges:    0.0000000

LOEWDIN ATOMIC CHARGES
----------------------
   0 S :    0.404466
   1 C :   -0.172253
   2 C :   -0.056873
   3 C :   -0.058392
   4 C :   -0.185576
   5 H :    0.024065
   6 C :   -0.032270
   7 H :    0.035002
   8 H :    0.032695
   9 C :   -0.052314
  10 H :    0.028729
  11 H :    0.023819
  12 C :   -0.064555
  13 H :    0.016133
  14 H :    0.031390
  15 H :    0.034841
  16 S :    0.411495
  17 C :   -0.187896
  18 C :   -0.071988
  19 C :   -0.057109
  20 C :   -0.193849
  21 H :    0.029668
  22 C :   -0.032793
  23 H :    0.027618
  24 H :    0.015874
  25 C :   -0.036549
  26 H :    0.014432
  27 H :    0.022354
  28 C :   -0.073366
  29 H :    0.037372
  30 H :    0.024255
  31 H :    0.022943
  32 H :    0.007404
  33 H :    0.031226

  Mayer bond orders larger than 0.100000
B(  0-S ,  1-C ) :   1.1393 B(  0-S ,  4-C ) :   1.1362 B(  1-C ,  2-C ) :   1.6074
B(  1-C ,  4-C ) :   0.1015 B(  1-C , 32-H ) :   0.9743 B(  2-C ,  3-C ) :   1.2387
B(  2-C ,  6-C ) :   1.0160 B(  3-C ,  4-C ) :   1.5859 B(  3-C ,  5-H ) :   1.0030
B(  4-C , 20-C ) :   1.0103 B(  6-C ,  7-H ) :   0.9422 B(  6-C ,  8-H ) :   0.9283
B(  6-C ,  9-C ) :   1.0792 B(  9-C , 10-H ) :   0.9570 B(  9-C , 11-H ) :   0.9480
B(  9-C , 12-C ) :   1.0645 B( 12-C , 13-H ) :   0.9759 B( 12-C , 14-H ) :   0.9746
B( 12-C , 15-H ) :   0.9741 B( 16-S , 17-C ) :   1.1633 B( 16-S , 20-C ) :   1.1630
B( 17-C , 18-C ) :   1.5625 B( 17-C , 20-C ) :   0.1095 B( 17-C , 33-H ) :   0.9732
B( 18-C , 19-C ) :   1.2795 B( 18-C , 21-H ) :   0.9896 B( 19-C , 20-C ) :   1.5427
B( 19-C , 22-C ) :   1.0498 B( 22-C , 23-H ) :   0.9329 B( 22-C , 24-H ) :   0.9275
B( 22-C , 25-C ) :   1.0551 B( 25-C , 26-H ) :   0.9492 B( 25-C , 27-H ) :   0.9580
B( 25-C , 28-C ) :   1.0753 B( 28-C , 29-H ) :   0.9743 B( 28-C , 30-H ) :   0.9752
B( 28-C , 31-H ) :   0.9769

Dispersion correction           -0.013893196
FINAL SINGLE POINT ENERGY     -1339.867771418664

DIPOLE MOMENT
-------------
                                X             Y             Z
Electronic contribution:     -2.25071       9.84959      -3.85026
Nuclear contribution   :      2.22334      -9.94580       4.02915
                        -----------------------------------------
Total Dipole Moment    :     -0.02737      -0.09621       0.17889
                        -----------------------------------------
Magnitude (a.u.)       :      0.20495
Magnitude (Debye)      :      0.52095

Rotational constants in cm-1:     0.022264     0.007741     0.006001
Rotational constants in MHz :   667.462566   232.079226   179.913263

                             ****ORCA TERMINATED NORMALLY****
TOTAL RUN TIME: 0 days 0 hours 0 minutes 33 seconds 736 msec
