                         Program Version 4.2.1 -  RELEASE  -
|  1> ! wB97X-D3 SP def2-SVP
|  2> %pal
|  3> nprocs 16
|  4> end
|  5>
|  6> * xyz 0 1
|  7> S 	 -32.9794 	 59.5383 	 112.424
|  8> C 	 -34.4954 	 60.2586 	 112.17
|  9> C 	 -35.5121 	 59.5747 	 112.839
| 10> C 	 -35.0757 	 58.366 	 113.383
| 11> C 	 -33.7398 	 58.1932 	 113.264
| 12> H 	 -35.76 	 57.6379 	 113.864
| 13> C 	 -36.9747 	 59.932 	 113.038
| 14> H 	 -37.0661 	 60.7023 	 113.783
| 15> H 	 -37.5968 	 59.102 	 113.427
| 16> C 	 -37.6902 	 60.4028 	 111.752
| 17> H 	 -37.2475 	 61.4031 	 111.452
| 18> H 	 -37.3746 	 59.667 	 111.004
| 19> C 	 -39.1595 	 60.2877 	 111.814
| 20> H 	 -39.4924 	 59.2696 	 111.903
| 21> H 	 -39.5627 	 60.7572 	 112.704
| 22> H 	 -39.6343 	 60.7438 	 110.941
| 23> S 	 -33.682 	 55.4421 	 113.453
| 24> C 	 -32.2292 	 54.6682 	 114
| 25> C 	 -31.231 	 55.5971 	 114.346
| 26> C 	 -31.7195 	 56.952 	 114.216
| 27> C 	 -32.974 	 57.0413 	 113.705
| 28> H 	 -30.2411 	 55.3372 	 114.702
| 29> C 	 -30.8246 	 58.0209 	 114.812
| 30> H 	 -31.1505 	 59.0051 	 114.469
| 31> H 	 -29.7846 	 57.8408 	 114.44
| 32> C 	 -30.7774 	 58.2042 	 116.356
| 33> H 	 -30.3946 	 57.3313 	 116.871
| 34> H 	 -31.8397 	 58.2687 	 116.7
| 35> C 	 -29.9451 	 59.465 	 116.665
| 36> H 	 -30.516 	 60.2959 	 116.26
| 37> H 	 -28.9738 	 59.3499 	 116.267
| 38> H 	 -29.9996 	 59.5018 	 117.77
| 39> H 	 -34.6261 	 61.1367 	 111.517
| 40> H 	 -32.0656 	 53.6742 	 114.027
| 41> *
| 42>
| 43>                          ****END OF INPUT****

CARTESIAN COORDINATES (ANGSTROEM)
---------------------------------
  S    -32.979400   59.538300  112.424000
  C    -34.495400   60.258600  112.170000
  C    -35.512100   59.574700  112.839000
  C    -35.075700   58.366000  113.383000
  C    -33.739800   58.193200  113.264000
  H    -35.760000   57.637900  113.864000
  C    -36.974700   59.932000  113.038000
  H    -37.066100   60.702300  113.783000
  H    -37.596800   59.102000  113.427000
  C    -37.690200   60.402800  111.752000
  H    -37.247500   61.403100  111.452000
  H    -37.374600   59.667000  111.004000
  C    -39.159500   60.287700  111.814000
  H    -39.492400   59.269600  111.903000
  H    -39.562700   60.757200  112.704000
  H    -39.634300   60.743800  110.941000
  S    -33.682000   55.442100  113.453000
  C    -32.229200   54.668200  114.000000
  C    -31.231000   55.597100  114.346000
  C    -31.719500   56.952000  114.216000
  C    -32.974000   57.041300  113.705000
  H    -30.241100   55.337200  114.702000
  C    -30.824600   58.020900  114.812000
  H    -31.150500   59.005100  114.469000
  H    -29.784600   57.840800  114.440000
  C    -30.777400   58.204200  116.356000
  H    -30.394600   57.331300  116.871000
  H    -31.839700   58.268700  116.700000
  C    -29.945100   59.465000  116.665000
  H    -30.516000   60.295900  116.260000
  H    -28.973800   59.349900  116.267000
  H    -29.999600   59.501800  117.770000
  H    -34.626100   61.136700  111.517000
  H    -32.065600   53.674200  114.027000

 Total Charge           Charge          ....    0
 Multiplicity           Mult            ....    1
 Number of Electrons    NEL             ....  134
 Basis Dimension        Dim             ....  322

ORBITAL ENERGIES
----------------

  NO   OCC          E(Eh)            E(eV)
   0   2.0000     -88.969226     -2420.9757
   1   2.0000     -88.965556     -2420.8759
   2   2.0000     -10.324423      -280.9418
   3   2.0000     -10.322735      -280.8959
   4   2.0000     -10.313590      -280.6470
   5   2.0000     -10.311446      -280.5887
   6   2.0000     -10.297943      -280.2213
   7   2.0000     -10.296397      -280.1792
   8   2.0000     -10.294366      -280.1239
   9   2.0000     -10.290492      -280.0185
  10   2.0000     -10.290091      -280.0076
  11   2.0000     -10.288135      -279.9544
  12   2.0000     -10.285594      -279.8853
  13   2.0000     -10.285099      -279.8718
  14   2.0000     -10.276836      -279.6469
  15   2.0000     -10.273775      -279.5636
  16   2.0000      -8.084289      -219.9847
  17   2.0000      -8.080231      -219.8743
  18   2.0000      -6.042687      -164.4299
  19   2.0000      -6.038872      -164.3261
  20   2.0000      -6.038743      -164.3226
  21   2.0000      -6.035159      -164.2250
  22   2.0000      -6.034759      -164.2141
  23   2.0000      -6.030873      -164.1084
  24   2.0000      -1.012108       -27.5409
  25   2.0000      -0.986526       -26.8447
  26   2.0000      -0.914951       -24.8971
  27   2.0000      -0.906021       -24.6541
  28   2.0000      -0.870303       -23.6821
  29   2.0000      -0.861255       -23.4360
  30   2.0000      -0.850034       -23.1306
  31   2.0000      -0.811479       -22.0815
  32   2.0000      -0.779644       -21.2152
  33   2.0000      -0.767860       -20.8945
  34   2.0000      -0.705345       -19.1934
  35   2.0000      -0.695229       -18.9182
  36   2.0000      -0.691891       -18.8273
  37   2.0000      -0.669708       -18.2237
  38   2.0000      -0.641278       -17.4501
  39   2.0000      -0.617696       -16.8084
  40   2.0000      -0.597654       -16.2630
  41   2.0000      -0.571111       -15.5407
  42   2.0000      -0.566924       -15.4268
  43   2.0000      -0.563975       -15.3465
  44   2.0000      -0.526385       -14.3237
  45   2.0000      -0.522379       -14.2147
  46   2.0000      -0.518800       -14.1173
  47   2.0000      -0.514422       -13.9981
  48   2.0000      -0.508242       -13.8300
  49   2.0000      -0.499373       -13.5886
  50   2.0000      -0.489074       -13.3084
  51   2.0000      -0.480970       -13.0879
  52   2.0000      -0.476024       -12.9533
  53   2.0000      -0.467707       -12.7269
  54   2.0000      -0.458714       -12.4822
  55   2.0000      -0.455883       -12.4052
  56   2.0000      -0.444094       -12.0844
  57   2.0000      -0.437665       -11.9095
  58   2.0000      -0.428669       -11.6647
  59   2.0000      -0.420107       -11.4317
  60   2.0000      -0.417572       -11.3627
  61   2.0000      -0.414225       -11.2716
  62   2.0000      -0.411212       -11.1896
  63   2.0000      -0.356233        -9.6936
  64   2.0000      -0.334159        -9.0929
  65   2.0000      -0.327726        -8.9179
  66   2.0000      -0.283183        -7.7058
  67   0.0000       0.029826         0.8116
  68   0.0000       0.074482         2.0268
  69   0.0000       0.107399         2.9225
  70   0.0000       0.113226         3.0810
  71   0.0000       0.134597         3.6626

MULLIKEN ATOMIC CHARGES
-----------------------
   0 S :    0.132826
   1 C :   -0.154956
   2 C :   -0.045617
   3 C :   -0.036314
   4 C :   -0.114499
   5 H :    0.028815
   6 C :    0.057175
   7 H :    0.034574
   8 H :    0.016356
   9 C :   -0.111947
  10 H :    0.039019
  11 H :    0.031584
  12 C :   -0.020092
  13 H :    0.026305
  14 H :    0.017641
  15 H :    0.038187
  16 S :    0.104727
  17 C :   -0.042243
  18 C :   -0.032074
  19 C :   -0.052503
  20 C :   -0.128499
  21 H :    0.019448
  22 C :    0.030683
  23 H :    0.000924
  24 H :    0.029531
  25 C :   -0.093382
  26 H :    0.020835
  27 H :    0.036327
  28 C :   -0.019952
  29 H :    0.039290
  30 H :    0.033496
  31 H :    0.040423
  32 H :    0.059826
  33 H :    0.014089
Sum of atomic charges:    0.0000000

LOEWDIN ATOMIC CHARGES
----------------------
   0 S :    0.439171
   1 C :   -0.220736
   2 C :   -0.062089
   3 C :   -0.071629
   4 C :   -0.186765
   5 H :    0.038623
   6 C :   -0.030464
   7 H :    0.028637
   8 H :    0.029300
   9 C :   -0.049781
  10 H :    0.026118
  11 H :    0.026270
  12 C :   -0.065469
  13 H :    0.025035
  14 H :    0.021373
  15 H :    0.031174
  16 S :    0.406145
  17 C :   -0.170384
  18 C :   -0.059770
  19 C :   -0.068642
  20 C :   -0.191306
  21 H :    0.030139
  22 C :   -0.039130
  23 H :    0.013805
  24 H :    0.031732
  25 C :   -0.039285
  26 H :    0.015044
  27 H :    0.028717
  28 C :   -0.054713
  29 H :    0.028058
  30 H :    0.020516
  31 H :    0.032944
  32 H :    0.032399
  33 H :    0.004964

  Mayer bond orders larger than 0.100000
B(  0-S ,  1-C ) :   1.1590 B(  0-S ,  4-C ) :   1.1535 B(  1-C ,  2-C ) :   1.5681
B(  1-C , 32-H ) :   0.9688 B(  2-C ,  3-C ) :   1.2776 B(  2-C ,  6-C ) :   1.0189
B(  3-C ,  4-C ) :   1.5403 B(  3-C ,  5-H ) :   0.9924 B(  4-C , 20-C ) :   1.0632
B(  6-C ,  7-H ) :   0.9265 B(  6-C ,  8-H ) :   0.9510 B(  6-C ,  9-C ) :   1.0561
B(  9-C , 10-H ) :   0.9507 B(  9-C , 11-H ) :   0.9615 B(  9-C , 12-C ) :   1.0979
B( 12-C , 13-H ) :   0.9688 B( 12-C , 14-H ) :   0.9707 B( 12-C , 15-H ) :   0.9698
B( 16-S , 17-C ) :   1.1542 B( 16-S , 20-C ) :   1.1155 B( 17-C , 18-C ) :   1.6036
B( 17-C , 33-H ) :   0.9814 B( 18-C , 19-C ) :   1.2219 B( 18-C , 21-H ) :   0.9909
B( 19-C , 20-C ) :   1.6162 B( 19-C , 22-C ) :   1.0516 B( 22-C , 23-H ) :   0.9324
B( 22-C , 24-H ) :   0.9318 B( 22-C , 25-C ) :   1.0605 B( 25-C , 26-H ) :   0.9547
B( 25-C , 27-H ) :   0.9545 B( 25-C , 28-C ) :   1.0735 B( 28-C , 29-H ) :   0.9760
B( 28-C , 30-H ) :   0.9754 B( 28-C , 31-H ) :   0.9738

Dispersion correction           -0.013522629
FINAL SINGLE POINT ENERGY     -1339.882427234370

DIPOLE MOMENT
-------------
                                X             Y             Z
Electronic contribution:      6.91129     -12.89706      -7.43735
Nuclear contribution   :     -7.02479      13.03836       7.66175
                        -----------------------------------------
Total Dipole Moment    :     -0.11350       0.14129       0.22440
                        -----------------------------------------
Magnitude (a.u.)       :      0.28844
Magnitude (Debye)      :      0.73317

Rotational constants in cm-1:     0.021626     0.007367     0.006107
Rotational constants in MHz :   648.320348   220.862874   183.074288

                             ****ORCA TERMINATED NORMALLY****
TOTAL RUN TIME: 0 days 0 hours 0 minutes 30 seconds 482 msec
