                         Program Version 4.2.1 -  RELEASE  -
|  1> ! wB97X-D3 SP def2-SVP
|  2> %pal
|  3> nprocs 16
|  4> end
|  5>
|  6> * xyz 0 1
|  7> S 	 -64.0096 	 45.9964 	 122.314
|  8> C 	 -65.1864 	 44.7719 	 122.753
|  9> C 	 -66.3721 	 45.3992 	 123.147
| 10> C 	 -66.2242 	 46.7938 	 123.061
| 11> C 	 -65.0622 	 47.2833 	 122.547
| 12> H 	 -66.8938 	 47.578 	 123.354
| 13> C 	 -67.5914 	 44.7988 	 123.794
| 14> H 	 -67.9564 	 44.0814 	 123.109
| 15> H 	 -68.3863 	 45.5625 	 123.856
| 16> C 	 -67.3765 	 44.0318 	 125.087
| 17> H 	 -66.6069 	 43.2666 	 125.051
| 18> H 	 -66.8938 	 44.5661 	 125.903
| 19> C 	 -68.7159 	 43.5032 	 125.696
| 20> H 	 -69.5418 	 44.1925 	 125.855
| 21> H 	 -69.2276 	 42.827 	 125.018
| 22> H 	 -68.7237 	 42.8916 	 126.622
| 23> S 	 -64.7696 	 48.9818 	 120.446
| 24> C 	 -64.3884 	 50.6394 	 120.759
| 25> C 	 -64.4586 	 50.9193 	 122.097
| 26> C 	 -64.8151 	 49.7814 	 122.924
| 27> C 	 -64.7478 	 48.6242 	 122.121
| 28> H 	 -64.3822 	 51.9094 	 122.461
| 29> C 	 -65.0686 	 50.0018 	 124.416
| 30> H 	 -64.3121 	 50.662 	 124.788
| 31> H 	 -64.7462 	 49.0242 	 124.814
| 32> C 	 -66.6101 	 50.289 	 124.642
| 33> H 	 -67.2794 	 49.6724 	 124.05
| 34> H 	 -66.9657 	 51.2559 	 124.382
| 35> C 	 -66.9381 	 50.0473 	 126.128
| 36> H 	 -66.6031 	 49.0208 	 126.459
| 37> H 	 -67.9899 	 50.0801 	 126.336
| 38> H 	 -66.5049 	 50.7231 	 126.846
| 39> H 	 -64.9761 	 43.6835 	 122.961
| 40> H 	 -64.2418 	 51.3442 	 119.996
| 41> *
| 42>
| 43>                          ****END OF INPUT****

CARTESIAN COORDINATES (ANGSTROEM)
---------------------------------
  S    -64.009600   45.996400  122.314000
  C    -65.186400   44.771900  122.753000
  C    -66.372100   45.399200  123.147000
  C    -66.224200   46.793800  123.061000
  C    -65.062200   47.283300  122.547000
  H    -66.893800   47.578000  123.354000
  C    -67.591400   44.798800  123.794000
  H    -67.956400   44.081400  123.109000
  H    -68.386300   45.562500  123.856000
  C    -67.376500   44.031800  125.087000
  H    -66.606900   43.266600  125.051000
  H    -66.893800   44.566100  125.903000
  C    -68.715900   43.503200  125.696000
  H    -69.541800   44.192500  125.855000
  H    -69.227600   42.827000  125.018000
  H    -68.723700   42.891600  126.622000
  S    -64.769600   48.981800  120.446000
  C    -64.388400   50.639400  120.759000
  C    -64.458600   50.919300  122.097000
  C    -64.815100   49.781400  122.924000
  C    -64.747800   48.624200  122.121000
  H    -64.382200   51.909400  122.461000
  C    -65.068600   50.001800  124.416000
  H    -64.312100   50.662000  124.788000
  H    -64.746200   49.024200  124.814000
  C    -66.610100   50.289000  124.642000
  H    -67.279400   49.672400  124.050000
  H    -66.965700   51.255900  124.382000
  C    -66.938100   50.047300  126.128000
  H    -66.603100   49.020800  126.459000
  H    -67.989900   50.080100  126.336000
  H    -66.504900   50.723100  126.846000
  H    -64.976100   43.683500  122.961000
  H    -64.241800   51.344200  119.996000

 Total Charge           Charge          ....    0
 Multiplicity           Mult            ....    1
 Number of Electrons    NEL             ....  134
 Basis Dimension        Dim             ....  322

ORBITAL ENERGIES
----------------

  NO   OCC          E(Eh)            E(eV)
   0   2.0000     -88.964223     -2420.8396
   1   2.0000     -88.962300     -2420.7872
   2   2.0000     -10.321871      -280.8724
   3   2.0000     -10.318048      -280.7683
   4   2.0000     -10.314829      -280.6808
   5   2.0000     -10.309286      -280.5299
   6   2.0000     -10.304470      -280.3989
   7   2.0000     -10.300135      -280.2809
   8   2.0000     -10.299953      -280.2760
   9   2.0000     -10.295387      -280.1517
  10   2.0000     -10.292319      -280.0682
  11   2.0000     -10.292107      -280.0625
  12   2.0000     -10.287065      -279.9253
  13   2.0000     -10.281985      -279.7870
  14   2.0000     -10.280953      -279.7589
  15   2.0000     -10.278332      -279.6876
  16   2.0000      -8.080082      -219.8702
  17   2.0000      -8.078275      -219.8210
  18   2.0000      -6.038530      -164.3168
  19   2.0000      -6.036684      -164.2665
  20   2.0000      -6.034535      -164.2080
  21   2.0000      -6.032329      -164.1480
  22   2.0000      -6.030734      -164.1046
  23   2.0000      -6.029319      -164.0661
  24   2.0000      -1.015577       -27.6353
  25   2.0000      -0.989751       -26.9325
  26   2.0000      -0.914594       -24.8874
  27   2.0000      -0.906783       -24.6748
  28   2.0000      -0.869864       -23.6702
  29   2.0000      -0.851720       -23.1765
  30   2.0000      -0.847300       -23.0562
  31   2.0000      -0.813152       -22.1270
  32   2.0000      -0.785334       -21.3700
  33   2.0000      -0.771741       -21.0001
  34   2.0000      -0.718040       -19.5388
  35   2.0000      -0.714615       -19.4457
  36   2.0000      -0.695647       -18.9295
  37   2.0000      -0.663098       -18.0438
  38   2.0000      -0.645382       -17.5617
  39   2.0000      -0.616776       -16.7833
  40   2.0000      -0.595881       -16.2148
  41   2.0000      -0.572620       -15.5818
  42   2.0000      -0.560398       -15.2492
  43   2.0000      -0.550180       -14.9712
  44   2.0000      -0.533930       -14.5290
  45   2.0000      -0.524759       -14.2794
  46   2.0000      -0.518481       -14.1086
  47   2.0000      -0.514743       -14.0069
  48   2.0000      -0.508068       -13.8252
  49   2.0000      -0.499763       -13.5992
  50   2.0000      -0.489495       -13.3198
  51   2.0000      -0.475754       -12.9459
  52   2.0000      -0.473137       -12.8747
  53   2.0000      -0.463485       -12.6121
  54   2.0000      -0.456275       -12.4159
  55   2.0000      -0.451818       -12.2946
  56   2.0000      -0.448986       -12.2175
  57   2.0000      -0.445001       -12.1091
  58   2.0000      -0.440216       -11.9789
  59   2.0000      -0.425792       -11.5864
  60   2.0000      -0.419946       -11.4273
  61   2.0000      -0.417067       -11.3490
  62   2.0000      -0.406351       -11.0574
  63   2.0000      -0.339735        -9.2447
  64   2.0000      -0.330134        -8.9834
  65   2.0000      -0.323715        -8.8087
  66   2.0000      -0.298858        -8.1323
  67   0.0000       0.038903         1.0586
  68   0.0000       0.066166         1.8005
  69   0.0000       0.116885         3.1806
  70   0.0000       0.125272         3.4088
  71   0.0000       0.133859         3.6425

MULLIKEN ATOMIC CHARGES
-----------------------
   0 S :    0.118363
   1 C :   -0.150818
   2 C :   -0.072402
   3 C :    0.042428
   4 C :   -0.192759
   5 H :   -0.030507
   6 C :    0.109496
   7 H :    0.021205
   8 H :    0.027099
   9 C :   -0.042247
  10 H :    0.017275
  11 H :    0.022386
  12 C :   -0.071177
  13 H :    0.023733
  14 H :    0.010271
  15 H :    0.036062
  16 S :    0.128961
  17 C :   -0.069439
  18 C :   -0.006479
  19 C :   -0.081161
  20 C :   -0.151419
  21 H :   -0.000583
  22 C :    0.092722
  23 H :    0.032191
  24 H :    0.030322
  25 C :   -0.031593
  26 H :    0.031989
  27 H :    0.021254
  28 C :   -0.056778
  29 H :    0.030787
  30 H :    0.023648
  31 H :    0.028582
  32 H :    0.071066
  33 H :    0.037521
Sum of atomic charges:    0.0000000

LOEWDIN ATOMIC CHARGES
----------------------
   0 S :    0.443315
   1 C :   -0.212863
   2 C :   -0.063216
   3 C :   -0.070150
   4 C :   -0.228203
   5 H :    0.023283
   6 C :   -0.027105
   7 H :    0.031718
   8 H :    0.035633
   9 C :   -0.041498
  10 H :    0.025246
  11 H :    0.025559
  12 C :   -0.080779
  13 H :    0.024959
  14 H :    0.020575
  15 H :    0.031394
  16 S :    0.434597
  17 C :   -0.183935
  18 C :   -0.066997
  19 C :   -0.046446
  20 C :   -0.224325
  21 H :    0.022511
  22 C :   -0.024490
  23 H :    0.032394
  24 H :    0.036759
  25 C :   -0.027757
  26 H :    0.026267
  27 H :    0.022268
  28 C :   -0.068865
  29 H :    0.028602
  30 H :    0.020453
  31 H :    0.021621
  32 H :    0.041031
  33 H :    0.018443

  Mayer bond orders larger than 0.100000
B(  0-S ,  1-C ) :   1.1630 B(  0-S ,  4-C ) :   1.1793 B(  1-C ,  2-C ) :   1.5554
B(  1-C ,  4-C ) :   0.1041 B(  1-C , 32-H ) :   0.9643 B(  2-C ,  3-C ) :   1.2785
B(  2-C ,  6-C ) :   1.0220 B(  3-C ,  4-C ) :   1.5633 B(  3-C ,  5-H ) :   1.0005
B(  4-C , 20-C ) :   0.9995 B(  6-C ,  7-H ) :   0.9245 B(  6-C ,  8-H ) :   0.9466
B(  6-C ,  9-C ) :   1.0550 B(  9-C , 10-H ) :   0.9516 B(  9-C , 11-H ) :   0.9563
B(  9-C , 12-C ) :   1.0628 B( 12-C , 13-H ) :   0.9772 B( 12-C , 14-H ) :   0.9742
B( 12-C , 15-H ) :   0.9768 B( 16-S , 17-C ) :   1.1538 B( 16-S , 20-C ) :   1.1737
B( 17-C , 18-C ) :   1.6003 B( 17-C , 33-H ) :   0.9762 B( 18-C , 19-C ) :   1.2432
B( 18-C , 21-H ) :   0.9952 B( 19-C , 20-C ) :   1.5690 B( 19-C , 22-C ) :   1.0374
B( 22-C , 23-H ) :   0.9428 B( 22-C , 24-H ) :   0.9392 B( 22-C , 25-C ) :   1.0285
B( 25-C , 26-H ) :   0.9592 B( 25-C , 27-H ) :   0.9521 B( 25-C , 28-C ) :   1.0814
B( 28-C , 29-H ) :   0.9771 B( 28-C , 30-H ) :   0.9750 B( 28-C , 31-H ) :   0.9754

Dispersion correction           -0.014387724
FINAL SINGLE POINT ENERGY     -1339.857763140338

DIPOLE MOMENT
-------------
                                X             Y             Z
Electronic contribution:     19.28406       4.02514     -24.98989
Nuclear contribution   :    -19.77936      -3.78770      25.53660
                        -----------------------------------------
Total Dipole Moment    :     -0.49530       0.23743       0.54671
                        -----------------------------------------
Magnitude (a.u.)       :      0.77497
Magnitude (Debye)      :      1.96983

Rotational constants in cm-1:     0.018772     0.008731     0.006543
Rotational constants in MHz :   562.782622   261.760314   196.143007

                             ****ORCA TERMINATED NORMALLY****
TOTAL RUN TIME: 0 days 0 hours 0 minutes 34 seconds 693 msec
