                         Program Version 4.2.1 -  RELEASE  -
|  1> ! wB97X-D3 SP def2-SVP
|  2> %pal
|  3> nprocs 16
|  4> end
|  5>
|  6> * xyz 0 1
|  7> S 	 -39.8138 	 68.9833 	 142.677
|  8> C 	 -40.2524 	 69.2139 	 141.034
|  9> C 	 -39.13 	 69.6661 	 140.306
| 10> C 	 -37.9706 	 70.0326 	 141.065
| 11> C 	 -38.1999 	 69.6878 	 142.342
| 12> H 	 -37.0805 	 70.4197 	 140.64
| 13> C 	 -39.2361 	 69.9876 	 138.825
| 14> H 	 -38.7443 	 70.8653 	 138.485
| 15> H 	 -40.2656 	 70.3476 	 138.688
| 16> C 	 -38.8174 	 68.8095 	 137.924
| 17> H 	 -39.5731 	 67.972 	 138.076
| 18> H 	 -39.011 	 69.2237 	 136.895
| 19> C 	 -37.4366 	 68.1637 	 138.075
| 20> H 	 -36.6603 	 68.7864 	 137.733
| 21> H 	 -37.2022 	 67.8399 	 139.086
| 22> H 	 -37.3361 	 67.2826 	 137.412
| 23> S 	 -37.6356 	 71.3795 	 144.396
| 24> C 	 -36.4581 	 70.8875 	 145.538
| 25> C 	 -35.7256 	 69.7368 	 145.127
| 26> C 	 -36.1242 	 69.2906 	 143.801
| 27> C 	 -37.285 	 69.9129 	 143.405
| 28> H 	 -34.9414 	 69.323 	 145.766
| 29> C 	 -35.3792 	 68.1604 	 143.134
| 30> H 	 -35.5764 	 68.0854 	 142.099
| 31> H 	 -35.7728 	 67.2476 	 143.534
| 32> C 	 -33.8778 	 68.0305 	 143.267
| 33> H 	 -33.3927 	 67.1915 	 142.712
| 34> H 	 -33.6212 	 67.9942 	 144.329
| 35> C 	 -33.2631 	 69.213 	 142.639
| 36> H 	 -33.7762 	 70.0926 	 143.136
| 37> H 	 -33.3447 	 69.3571 	 141.537
| 38> H 	 -32.1465 	 69.277 	 142.709
| 39> H 	 -41.2314 	 68.9713 	 140.591
| 40> H 	 -36.2989 	 71.4151 	 146.484
| 41> *
| 42>
| 43>                          ****END OF INPUT****

CARTESIAN COORDINATES (ANGSTROEM)
---------------------------------
  S    -39.813800   68.983300  142.677000
  C    -40.252400   69.213900  141.034000
  C    -39.130000   69.666100  140.306000
  C    -37.970600   70.032600  141.065000
  C    -38.199900   69.687800  142.342000
  H    -37.080500   70.419700  140.640000
  C    -39.236100   69.987600  138.825000
  H    -38.744300   70.865300  138.485000
  H    -40.265600   70.347600  138.688000
  C    -38.817400   68.809500  137.924000
  H    -39.573100   67.972000  138.076000
  H    -39.011000   69.223700  136.895000
  C    -37.436600   68.163700  138.075000
  H    -36.660300   68.786400  137.733000
  H    -37.202200   67.839900  139.086000
  H    -37.336100   67.282600  137.412000
  S    -37.635600   71.379500  144.396000
  C    -36.458100   70.887500  145.538000
  C    -35.725600   69.736800  145.127000
  C    -36.124200   69.290600  143.801000
  C    -37.285000   69.912900  143.405000
  H    -34.941400   69.323000  145.766000
  C    -35.379200   68.160400  143.134000
  H    -35.576400   68.085400  142.099000
  H    -35.772800   67.247600  143.534000
  C    -33.877800   68.030500  143.267000
  H    -33.392700   67.191500  142.712000
  H    -33.621200   67.994200  144.329000
  C    -33.263100   69.213000  142.639000
  H    -33.776200   70.092600  143.136000
  H    -33.344700   69.357100  141.537000
  H    -32.146500   69.277000  142.709000
  H    -41.231400   68.971300  140.591000
  H    -36.298900   71.415100  146.484000

 Total Charge           Charge          ....    0
 Multiplicity           Mult            ....    1
 Number of Electrons    NEL             ....  134
 Basis Dimension        Dim             ....  322

ORBITAL ENERGIES
----------------

  NO   OCC          E(Eh)            E(eV)
   0   2.0000     -88.966346     -2420.8974
   1   2.0000     -88.962694     -2420.7980
   2   2.0000     -10.322428      -280.8876
   3   2.0000     -10.320569      -280.8369
   4   2.0000     -10.319921      -280.8193
   5   2.0000     -10.315749      -280.7058
   6   2.0000     -10.309987      -280.5490
   7   2.0000     -10.299397      -280.2609
   8   2.0000     -10.298879      -280.2467
   9   2.0000     -10.293197      -280.0921
  10   2.0000     -10.290995      -280.0322
  11   2.0000     -10.286429      -279.9080
  12   2.0000     -10.284628      -279.8590
  13   2.0000     -10.284421      -279.8533
  14   2.0000     -10.276570      -279.6397
  15   2.0000     -10.276226      -279.6303
  16   2.0000      -8.081057      -219.8967
  17   2.0000      -8.077658      -219.8043
  18   2.0000      -6.039576      -164.3452
  19   2.0000      -6.036021      -164.2485
  20   2.0000      -6.035607      -164.2372
  21   2.0000      -6.032301      -164.1473
  22   2.0000      -6.031769      -164.1328
  23   2.0000      -6.028391      -164.0409
  24   2.0000      -1.006070       -27.3766
  25   2.0000      -0.980283       -26.6748
  26   2.0000      -0.921789       -25.0832
  27   2.0000      -0.904774       -24.6201
  28   2.0000      -0.871718       -23.7207
  29   2.0000      -0.850548       -23.1446
  30   2.0000      -0.847922       -23.0731
  31   2.0000      -0.811522       -22.0826
  32   2.0000      -0.786164       -21.3926
  33   2.0000      -0.768354       -20.9080
  34   2.0000      -0.702616       -19.1192
  35   2.0000      -0.693372       -18.8676
  36   2.0000      -0.689750       -18.7691
  37   2.0000      -0.656735       -17.8707
  38   2.0000      -0.646276       -17.5861
  39   2.0000      -0.618646       -16.8342
  40   2.0000      -0.604046       -16.4369
  41   2.0000      -0.566946       -15.4274
  42   2.0000      -0.563773       -15.3410
  43   2.0000      -0.549578       -14.9548
  44   2.0000      -0.540228       -14.7004
  45   2.0000      -0.536916       -14.6102
  46   2.0000      -0.516539       -14.0557
  47   2.0000      -0.511040       -13.9061
  48   2.0000      -0.500479       -13.6187
  49   2.0000      -0.498396       -13.5621
  50   2.0000      -0.492642       -13.4055
  51   2.0000      -0.479111       -13.0373
  52   2.0000      -0.468668       -12.7531
  53   2.0000      -0.462441       -12.5837
  54   2.0000      -0.458519       -12.4769
  55   2.0000      -0.447401       -12.1744
  56   2.0000      -0.443756       -12.0752
  57   2.0000      -0.440861       -11.9964
  58   2.0000      -0.435478       -11.8500
  59   2.0000      -0.424748       -11.5580
  60   2.0000      -0.410697       -11.1756
  61   2.0000      -0.406271       -11.0552
  62   2.0000      -0.402502       -10.9526
  63   2.0000      -0.343465        -9.3462
  64   2.0000      -0.327353        -8.9077
  65   2.0000      -0.312633        -8.5072
  66   2.0000      -0.301071        -8.1926
  67   0.0000       0.037337         1.0160
  68   0.0000       0.056728         1.5436
  69   0.0000       0.103028         2.8035
  70   0.0000       0.118175         3.2157
  71   0.0000       0.128294         3.4910

MULLIKEN ATOMIC CHARGES
-----------------------
   0 S :    0.125361
   1 C :   -0.124083
   2 C :   -0.103608
   3 C :    0.070122
   4 C :   -0.161947
   5 H :    0.011838
   6 C :    0.063970
   7 H :    0.008091
   8 H :    0.017937
   9 C :   -0.098161
  10 H :    0.031237
  11 H :    0.033255
  12 C :   -0.029825
  13 H :    0.015065
  14 H :    0.042533
  15 H :    0.034243
  16 S :    0.116604
  17 C :   -0.097959
  18 C :   -0.059527
  19 C :   -0.012502
  20 C :   -0.205580
  21 H :    0.029827
  22 C :    0.122656
  23 H :    0.002362
  24 H :    0.031321
  25 C :   -0.057891
  26 H :    0.037926
  27 H :    0.030279
  28 C :   -0.106257
  29 H :    0.045715
  30 H :    0.026865
  31 H :    0.032504
  32 H :    0.061621
  33 H :    0.066009
Sum of atomic charges:    0.0000000

LOEWDIN ATOMIC CHARGES
----------------------
   0 S :    0.405635
   1 C :   -0.214002
   2 C :   -0.061254
   3 C :   -0.042829
   4 C :   -0.187363
   5 H :    0.034508
   6 C :   -0.042407
   7 H :    0.021068
   8 H :    0.034146
   9 C :   -0.045758
  10 H :    0.026748
  11 H :    0.027393
  12 C :   -0.067311
  13 H :    0.016092
  14 H :    0.026752
  15 H :    0.034207
  16 S :    0.400803
  17 C :   -0.194440
  18 C :   -0.079319
  19 C :   -0.043448
  20 C :   -0.191060
  21 H :    0.031953
  22 C :   -0.029098
  23 H :    0.024908
  24 H :    0.036451
  25 C :   -0.045737
  26 H :    0.035085
  27 H :    0.023313
  28 C :   -0.082421
  29 H :    0.031891
  30 H :    0.024703
  31 H :    0.025163
  32 H :    0.035133
  33 H :    0.030493

  Mayer bond orders larger than 0.100000
B(  0-S ,  1-C ) :   1.1366 B(  0-S ,  4-C ) :   1.1420 B(  1-C ,  2-C ) :   1.6123
B(  1-C , 32-H ) :   0.9646 B(  2-C ,  3-C ) :   1.2172 B(  2-C ,  6-C ) :   1.0185
B(  3-C ,  4-C ) :   1.5894 B(  3-C ,  5-H ) :   1.0068 B(  4-C , 20-C ) :   1.0385
B(  6-C ,  7-H ) :   0.9484 B(  6-C ,  8-H ) :   0.9427 B(  6-C ,  9-C ) :   1.0598
B(  9-C , 10-H ) :   0.9583 B(  9-C , 11-H ) :   0.9563 B(  9-C , 12-C ) :   1.0804
B( 12-C , 13-H ) :   0.9731 B( 12-C , 14-H ) :   0.9708 B( 12-C , 15-H ) :   0.9708
B( 16-S , 17-C ) :   1.1690 B( 16-S , 20-C ) :   1.1331 B( 17-C , 18-C ) :   1.6097
B( 17-C , 20-C ) :   0.1012 B( 17-C , 33-H ) :   0.9648 B( 18-C , 19-C ) :   1.1957
B( 18-C , 21-H ) :   0.9875 B( 19-C , 20-C ) :   1.6252 B( 19-C , 22-C ) :   1.0422
B( 22-C , 23-H ) :   0.9306 B( 22-C , 24-H ) :   0.9212 B( 22-C , 25-C ) :   1.0790
B( 25-C , 26-H ) :   0.9510 B( 25-C , 27-H ) :   0.9465 B( 25-C , 28-C ) :   1.0801
B( 28-C , 29-H ) :   0.9707 B( 28-C , 30-H ) :   0.9714 B( 28-C , 31-H ) :   0.9721

Dispersion correction           -0.014886042
FINAL SINGLE POINT ENERGY     -1339.857154655223

DIPOLE MOMENT
-------------
                                X             Y             Z
Electronic contribution:    -16.83134       9.12490      19.11189
Nuclear contribution   :     17.19084      -9.29616     -19.48822
                        -----------------------------------------
Total Dipole Moment    :      0.35950      -0.17126      -0.37633
                        -----------------------------------------
Magnitude (a.u.)       :      0.54789
Magnitude (Debye)      :      1.39264

Rotational constants in cm-1:     0.018569     0.009399     0.007071
Rotational constants in MHz :   556.677891   281.783907   211.977782

                             ****ORCA TERMINATED NORMALLY****
TOTAL RUN TIME: 0 days 0 hours 0 minutes 35 seconds 911 msec
