                         Program Version 4.2.1 -  RELEASE  -
|  1> ! wB97X-D3 SP def2-SVP
|  2> %pal
|  3> nprocs 16
|  4> end
|  5>
|  6> * xyz 0 1
|  7> S 	 -45.9414 	 26.2209 	 83.7195
|  8> C 	 -45.9054 	 24.4512 	 83.7741
|  9> C 	 -45.789 	 23.9424 	 82.457
| 10> C 	 -45.7563 	 24.9275 	 81.4249
| 11> C 	 -45.7641 	 26.2709 	 81.9642
| 12> H 	 -45.6034 	 24.6654 	 80.3707
| 13> C 	 -45.5119 	 22.5006 	 82.2033
| 14> H 	 -46.402 	 22.0968 	 81.6431
| 15> H 	 -45.4255 	 21.9862 	 83.2186
| 16> C 	 -44.2337 	 22.2947 	 81.3646
| 17> H 	 -44.0047 	 21.1946 	 81.3508
| 18> H 	 -44.5248 	 22.4504 	 80.3206
| 19> C 	 -42.9907 	 23.105 	 81.7523
| 20> H 	 -42.1963 	 22.8702 	 81.0392
| 21> H 	 -42.9767 	 24.1666 	 81.79
| 22> H 	 -42.655 	 22.6359 	 82.6793
| 23> S 	 -46.7231 	 28.7109 	 81.4811
| 24> C 	 -46.1622 	 29.7537 	 80.2303
| 25> C 	 -45.1402 	 29.0508 	 79.5658
| 26> C 	 -44.8238 	 27.7528 	 80.0957
| 27> C 	 -45.5866 	 27.4804 	 81.2201
| 28> H 	 -44.6546 	 29.4672 	 78.7166
| 29> C 	 -43.877 	 26.764 	 79.4325
| 30> H 	 -43.7765 	 25.8739 	 80.0307
| 31> H 	 -42.9128 	 27.2628 	 79.6338
| 32> C 	 -43.9919 	 26.4871 	 77.9403
| 33> H 	 -45.1158 	 26.4793 	 77.7004
| 34> H 	 -43.7985 	 25.4483 	 77.7804
| 35> C 	 -43.176 	 27.4862 	 77.0918
| 36> H 	 -43.6474 	 28.4282 	 77.1672
| 37> H 	 -43.194 	 27.3654 	 75.9884
| 38> H 	 -42.1279 	 27.6186 	 77.3697
| 39> H 	 -45.7789 	 23.8646 	 84.6901
| 40> H 	 -46.5774 	 30.7615 	 80.1217
| 41> *
| 42>
| 43>                          ****END OF INPUT****

CARTESIAN COORDINATES (ANGSTROEM)
---------------------------------
  S    -45.941400   26.220900   83.719500
  C    -45.905400   24.451200   83.774100
  C    -45.789000   23.942400   82.457000
  C    -45.756300   24.927500   81.424900
  C    -45.764100   26.270900   81.964200
  H    -45.603400   24.665400   80.370700
  C    -45.511900   22.500600   82.203300
  H    -46.402000   22.096800   81.643100
  H    -45.425500   21.986200   83.218600
  C    -44.233700   22.294700   81.364600
  H    -44.004700   21.194600   81.350800
  H    -44.524800   22.450400   80.320600
  C    -42.990700   23.105000   81.752300
  H    -42.196300   22.870200   81.039200
  H    -42.976700   24.166600   81.790000
  H    -42.655000   22.635900   82.679300
  S    -46.723100   28.710900   81.481100
  C    -46.162200   29.753700   80.230300
  C    -45.140200   29.050800   79.565800
  C    -44.823800   27.752800   80.095700
  C    -45.586600   27.480400   81.220100
  H    -44.654600   29.467200   78.716600
  C    -43.877000   26.764000   79.432500
  H    -43.776500   25.873900   80.030700
  H    -42.912800   27.262800   79.633800
  C    -43.991900   26.487100   77.940300
  H    -45.115800   26.479300   77.700400
  H    -43.798500   25.448300   77.780400
  C    -43.176000   27.486200   77.091800
  H    -43.647400   28.428200   77.167200
  H    -43.194000   27.365400   75.988400
  H    -42.127900   27.618600   77.369700
  H    -45.778900   23.864600   84.690100
  H    -46.577400   30.761500   80.121700

 Total Charge           Charge          ....    0
 Multiplicity           Mult            ....    1
 Number of Electrons    NEL             ....  134
 Basis Dimension        Dim             ....  322

ORBITAL ENERGIES
----------------

  NO   OCC          E(Eh)            E(eV)
   0   2.0000     -88.969667     -2420.9877
   1   2.0000     -88.960361     -2420.7345
   2   2.0000     -10.337334      -281.2932
   3   2.0000     -10.320919      -280.8465
   4   2.0000     -10.319700      -280.8133
   5   2.0000     -10.317826      -280.7623
   6   2.0000     -10.304239      -280.3926
   7   2.0000     -10.301927      -280.3297
   8   2.0000     -10.301525      -280.3188
   9   2.0000     -10.298323      -280.2316
  10   2.0000     -10.296336      -280.1775
  11   2.0000     -10.295701      -280.1603
  12   2.0000     -10.294350      -280.1235
  13   2.0000     -10.290436      -280.0170
  14   2.0000     -10.282767      -279.8083
  15   2.0000     -10.276943      -279.6498
  16   2.0000      -8.083319      -219.9583
  17   2.0000      -8.076902      -219.7837
  18   2.0000      -6.041845      -164.4070
  19   2.0000      -6.037843      -164.2981
  20   2.0000      -6.035256      -164.2277
  21   2.0000      -6.034273      -164.2009
  22   2.0000      -6.030900      -164.1091
  23   2.0000      -6.027952      -164.0289
  24   2.0000      -1.010898       -27.5079
  25   2.0000      -0.979103       -26.6427
  26   2.0000      -0.913391       -24.8546
  27   2.0000      -0.911282       -24.7973
  28   2.0000      -0.869519       -23.6608
  29   2.0000      -0.850309       -23.1381
  30   2.0000      -0.841211       -22.8905
  31   2.0000      -0.810623       -22.0582
  32   2.0000      -0.788309       -21.4510
  33   2.0000      -0.774229       -21.0678
  34   2.0000      -0.714541       -19.4437
  35   2.0000      -0.704317       -19.1654
  36   2.0000      -0.692928       -18.8555
  37   2.0000      -0.664494       -18.0818
  38   2.0000      -0.630765       -17.1640
  39   2.0000      -0.619421       -16.8553
  40   2.0000      -0.598712       -16.2918
  41   2.0000      -0.559601       -15.2275
  42   2.0000      -0.557357       -15.1664
  43   2.0000      -0.553307       -15.0562
  44   2.0000      -0.540599       -14.7104
  45   2.0000      -0.539472       -14.6798
  46   2.0000      -0.517546       -14.0831
  47   2.0000      -0.511308       -13.9134
  48   2.0000      -0.510211       -13.8835
  49   2.0000      -0.500234       -13.6121
  50   2.0000      -0.495093       -13.4722
  51   2.0000      -0.482348       -13.1254
  52   2.0000      -0.473754       -12.8915
  53   2.0000      -0.470395       -12.8001
  54   2.0000      -0.457182       -12.4406
  55   2.0000      -0.448931       -12.2160
  56   2.0000      -0.442343       -12.0368
  57   2.0000      -0.436243       -11.8708
  58   2.0000      -0.434265       -11.8170
  59   2.0000      -0.424984       -11.5644
  60   2.0000      -0.415874       -11.3165
  61   2.0000      -0.413598       -11.2546
  62   2.0000      -0.409694       -11.1483
  63   2.0000      -0.348137        -9.4733
  64   2.0000      -0.329123        -8.9559
  65   2.0000      -0.325090        -8.8462
  66   2.0000      -0.285757        -7.7758
  67   0.0000       0.023286         0.6336
  68   0.0000       0.073125         1.9898
  69   0.0000       0.113624         3.0919
  70   0.0000       0.116140         3.1603
  71   0.0000       0.126446         3.4408

MULLIKEN ATOMIC CHARGES
-----------------------
   0 S :    0.116167
   1 C :   -0.132067
   2 C :   -0.114816
   3 C :    0.027188
   4 C :   -0.161013
   5 H :    0.024842
   6 C :    0.055686
   7 H :    0.049808
   8 H :    0.028575
   9 C :   -0.118693
  10 H :    0.038192
  11 H :    0.020711
  12 C :   -0.024265
  13 H :    0.025251
  14 H :    0.055315
  15 H :    0.027652
  16 S :    0.105527
  17 C :   -0.108211
  18 C :   -0.037237
  19 C :   -0.036448
  20 C :   -0.137933
  21 H :    0.004378
  22 C :    0.057082
  23 H :    0.000260
  24 H :    0.032076
  25 C :   -0.043471
  26 H :    0.039926
  27 H :    0.019553
  28 C :   -0.037287
  29 H :    0.010990
  30 H :    0.033689
  31 H :    0.039659
  32 H :    0.062937
  33 H :    0.075976
Sum of atomic charges:    0.0000000

LOEWDIN ATOMIC CHARGES
----------------------
   0 S :    0.404019
   1 C :   -0.208882
   2 C :   -0.064848
   3 C :   -0.063958
   4 C :   -0.188235
   5 H :    0.033309
   6 C :   -0.040661
   7 H :    0.041403
   8 H :    0.033065
   9 C :   -0.049736
  10 H :    0.033231
  11 H :    0.017243
  12 C :   -0.066100
  13 H :    0.030263
  14 H :    0.022896
  15 H :    0.029731
  16 S :    0.444424
  17 C :   -0.199648
  18 C :   -0.070632
  19 C :   -0.054306
  20 C :   -0.226414
  21 H :    0.020707
  22 C :   -0.038539
  23 H :    0.026851
  24 H :    0.039109
  25 C :   -0.042988
  26 H :    0.036577
  27 H :    0.020884
  28 C :   -0.068291
  29 H :    0.018983
  30 H :    0.031976
  31 H :    0.028445
  32 H :    0.033332
  33 H :    0.036789

  Mayer bond orders larger than 0.100000
B(  0-S ,  1-C ) :   1.1338 B(  0-S ,  4-C ) :   1.1792 B(  1-C ,  2-C ) :   1.5707
B(  1-C ,  4-C ) :   0.1110 B(  1-C , 32-H ) :   0.9655 B(  2-C ,  3-C ) :   1.2752
B(  2-C ,  6-C ) :   1.0336 B(  3-C ,  4-C ) :   1.4972 B(  3-C ,  5-H ) :   0.9878
B(  4-C , 20-C ) :   1.0512 B(  6-C ,  7-H ) :   0.9336 B(  6-C ,  8-H ) :   0.9454
B(  6-C ,  9-C ) :   1.0654 B(  9-C , 10-H ) :   0.9548 B(  9-C , 11-H ) :   0.9504
B(  9-C , 12-C ) :   1.0741 B( 12-C , 13-H ) :   0.9701 B( 12-C , 14-H ) :   0.9690
B( 12-C , 15-H ) :   0.9739 B( 16-S , 17-C ) :   1.1819 B( 16-S , 20-C ) :   1.1766
B( 17-C , 18-C ) :   1.5337 B( 17-C , 20-C ) :   0.1049 B( 17-C , 33-H ) :   0.9745
B( 18-C , 19-C ) :   1.2763 B( 18-C , 21-H ) :   0.9975 B( 19-C , 20-C ) :   1.5452
B( 19-C , 22-C ) :   1.0419 B( 22-C , 23-H ) :   0.9307 B( 22-C , 24-H ) :   0.9269
B( 22-C , 25-C ) :   1.0471 B( 25-C , 26-H ) :   0.9603 B( 25-C , 27-H ) :   0.9592
B( 25-C , 28-C ) :   1.0569 B( 28-C , 29-H ) :   0.9764 B( 28-C , 30-H ) :   0.9688
B( 28-C , 31-H ) :   0.9767

Dispersion correction           -0.015681040
FINAL SINGLE POINT ENERGY     -1339.871807840899

DIPOLE MOMENT
-------------
                                X             Y             Z
Electronic contribution:    -17.04303      16.24748      17.90060
Nuclear contribution   :     17.50831     -16.63562     -18.44235
                        -----------------------------------------
Total Dipole Moment    :      0.46528      -0.38815      -0.54176
                        -----------------------------------------
Magnitude (a.u.)       :      0.81280
Magnitude (Debye)      :      2.06596

Rotational constants in cm-1:     0.017653     0.010628     0.007083
Rotational constants in MHz :   529.230859   318.611429   212.354883

                             ****ORCA TERMINATED NORMALLY****
TOTAL RUN TIME: 0 days 0 hours 0 minutes 30 seconds 75 msec
