                         Program Version 4.2.1 -  RELEASE  -
|  1> ! wB97X-D3 SP def2-SVP
|  2> %pal
|  3> nprocs 16
|  4> end
|  5>
|  6> * xyz 0 1
|  7> S 	 71.852 	 23.303 	 77.1559
|  8> C 	 71.0649 	 22.4928 	 78.5303
|  9> C 	 69.9587 	 21.7648 	 78.1437
| 10> C 	 69.6266 	 22.0352 	 76.8132
| 11> C 	 70.5353 	 22.8615 	 76.1523
| 12> H 	 68.8342 	 21.5724 	 76.2537
| 13> C 	 69.14 	 20.7638 	 79.0088
| 14> H 	 68.1063 	 20.6793 	 78.7012
| 15> H 	 69.2256 	 21.2627 	 79.9651
| 16> C 	 69.7523 	 19.3886 	 79.1931
| 17> H 	 70.0307 	 18.9384 	 78.2105
| 18> H 	 70.7863 	 19.4832 	 79.6747
| 19> C 	 68.9843 	 18.3667 	 79.9322
| 20> H 	 68.0105 	 18.145 	 79.5417
| 21> H 	 69.6164 	 17.487 	 80.0161
| 22> H 	 68.8677 	 18.7503 	 80.9605
| 23> S 	 69.2793 	 24.4791 	 74.3243
| 24> C 	 69.2862 	 23.9565 	 72.7028
| 25> C 	 70.3838 	 23.1714 	 72.412
| 26> C 	 71.0455 	 22.6918 	 73.597
| 27> C 	 70.4568 	 23.2034 	 74.7305
| 28> H 	 70.6467 	 22.6551 	 71.4532
| 29> C 	 72.2793 	 21.7407 	 73.3943
| 30> H 	 72.4974 	 21.4156 	 74.4405
| 31> H 	 73.1207 	 22.3398 	 73.028
| 32> C 	 72.1879 	 20.4431 	 72.5304
| 33> H 	 72.1186 	 20.6738 	 71.4372
| 34> H 	 71.2419 	 20.009 	 72.7431
| 35> C 	 73.2294 	 19.3403 	 72.8038
| 36> H 	 73.2306 	 18.7164 	 71.8503
| 37> H 	 72.9905 	 18.7194 	 73.6842
| 38> H 	 74.2146 	 19.6852 	 72.9507
| 39> H 	 71.491 	 22.4767 	 79.5521
| 40> H 	 68.6496 	 24.4024 	 71.9739
| 41> *
| 42>
| 43>                          ****END OF INPUT****

CARTESIAN COORDINATES (ANGSTROEM)
---------------------------------
  S     71.852000   23.303000   77.155900
  C     71.064900   22.492800   78.530300
  C     69.958700   21.764800   78.143700
  C     69.626600   22.035200   76.813200
  C     70.535300   22.861500   76.152300
  H     68.834200   21.572400   76.253700
  C     69.140000   20.763800   79.008800
  H     68.106300   20.679300   78.701200
  H     69.225600   21.262700   79.965100
  C     69.752300   19.388600   79.193100
  H     70.030700   18.938400   78.210500
  H     70.786300   19.483200   79.674700
  C     68.984300   18.366700   79.932200
  H     68.010500   18.145000   79.541700
  H     69.616400   17.487000   80.016100
  H     68.867700   18.750300   80.960500
  S     69.279300   24.479100   74.324300
  C     69.286200   23.956500   72.702800
  C     70.383800   23.171400   72.412000
  C     71.045500   22.691800   73.597000
  C     70.456800   23.203400   74.730500
  H     70.646700   22.655100   71.453200
  C     72.279300   21.740700   73.394300
  H     72.497400   21.415600   74.440500
  H     73.120700   22.339800   73.028000
  C     72.187900   20.443100   72.530400
  H     72.118600   20.673800   71.437200
  H     71.241900   20.009000   72.743100
  C     73.229400   19.340300   72.803800
  H     73.230600   18.716400   71.850300
  H     72.990500   18.719400   73.684200
  H     74.214600   19.685200   72.950700
  H     71.491000   22.476700   79.552100
  H     68.649600   24.402400   71.973900

 Total Charge           Charge          ....    0
 Multiplicity           Mult            ....    1
 Number of Electrons    NEL             ....  134
 Basis Dimension        Dim             ....  322

ORBITAL ENERGIES
----------------

  NO   OCC          E(Eh)            E(eV)
   0   2.0000     -88.969347     -2420.9790
   1   2.0000     -88.961793     -2420.7735
   2   2.0000     -10.324644      -280.9479
   3   2.0000     -10.323895      -280.9275
   4   2.0000     -10.316951      -280.7385
   5   2.0000     -10.311897      -280.6010
   6   2.0000     -10.305152      -280.4175
   7   2.0000     -10.300939      -280.3028
   8   2.0000     -10.299780      -280.2713
   9   2.0000     -10.294064      -280.1157
  10   2.0000     -10.292317      -280.0682
  11   2.0000     -10.290219      -280.0111
  12   2.0000     -10.288379      -279.9610
  13   2.0000     -10.287921      -279.9486
  14   2.0000     -10.283836      -279.8374
  15   2.0000     -10.275851      -279.6201
  16   2.0000      -8.083901      -219.9741
  17   2.0000      -8.077319      -219.7950
  18   2.0000      -6.042246      -164.4179
  19   2.0000      -6.038502      -164.3160
  20   2.0000      -6.035723      -164.2404
  21   2.0000      -6.034782      -164.2148
  22   2.0000      -6.031933      -164.1372
  23   2.0000      -6.027912      -164.0278
  24   2.0000      -1.006580       -27.3904
  25   2.0000      -0.985524       -26.8175
  26   2.0000      -0.915332       -24.9074
  27   2.0000      -0.900455       -24.5026
  28   2.0000      -0.869294       -23.6547
  29   2.0000      -0.850792       -23.1512
  30   2.0000      -0.849408       -23.1136
  31   2.0000      -0.807994       -21.9866
  32   2.0000      -0.785503       -21.3746
  33   2.0000      -0.774026       -21.0623
  34   2.0000      -0.703076       -19.1317
  35   2.0000      -0.692105       -18.8331
  36   2.0000      -0.691589       -18.8191
  37   2.0000      -0.658363       -17.9150
  38   2.0000      -0.639912       -17.4129
  39   2.0000      -0.613263       -16.6877
  40   2.0000      -0.596688       -16.2367
  41   2.0000      -0.574709       -15.6386
  42   2.0000      -0.562487       -15.3061
  43   2.0000      -0.554577       -15.0908
  44   2.0000      -0.529085       -14.3971
  45   2.0000      -0.523282       -14.2392
  46   2.0000      -0.515986       -14.0407
  47   2.0000      -0.510461       -13.8903
  48   2.0000      -0.503168       -13.6919
  49   2.0000      -0.499315       -13.5871
  50   2.0000      -0.490043       -13.3347
  51   2.0000      -0.480577       -13.0772
  52   2.0000      -0.473398       -12.8818
  53   2.0000      -0.467162       -12.7121
  54   2.0000      -0.457825       -12.4580
  55   2.0000      -0.450634       -12.2624
  56   2.0000      -0.442648       -12.0451
  57   2.0000      -0.435864       -11.8605
  58   2.0000      -0.431607       -11.7446
  59   2.0000      -0.430466       -11.7136
  60   2.0000      -0.419874       -11.4253
  61   2.0000      -0.413379       -11.2486
  62   2.0000      -0.404172       -10.9981
  63   2.0000      -0.337550        -9.1852
  64   2.0000      -0.329878        -8.9764
  65   2.0000      -0.320193        -8.7129
  66   2.0000      -0.304123        -8.2756
  67   0.0000       0.038767         1.0549
  68   0.0000       0.059879         1.6294
  69   0.0000       0.106335         2.8935
  70   0.0000       0.113596         3.0911
  71   0.0000       0.130525         3.5518

MULLIKEN ATOMIC CHARGES
-----------------------
   0 S :    0.130117
   1 C :   -0.156039
   2 C :   -0.067946
   3 C :    0.046776
   4 C :   -0.181145
   5 H :    0.006335
   6 C :    0.104404
   7 H :    0.025023
   8 H :    0.020759
   9 C :   -0.120077
  10 H :    0.023278
  11 H :    0.025729
  12 C :   -0.005876
  13 H :    0.031021
  14 H :    0.035880
  15 H :    0.020564
  16 S :    0.117134
  17 C :   -0.082677
  18 C :   -0.037954
  19 C :   -0.012587
  20 C :   -0.218213
  21 H :    0.034823
  22 C :    0.055277
  23 H :    0.024715
  24 H :    0.049181
  25 C :   -0.090583
  26 H :    0.035197
  27 H :    0.022433
  28 C :   -0.055258
  29 H :    0.043585
  30 H :    0.045507
  31 H :    0.024815
  32 H :    0.055241
  33 H :    0.050562
Sum of atomic charges:    0.0000000

LOEWDIN ATOMIC CHARGES
----------------------
   0 S :    0.420439
   1 C :   -0.198094
   2 C :   -0.059925
   3 C :   -0.057274
   4 C :   -0.217986
   5 H :    0.030539
   6 C :   -0.025837
   7 H :    0.028959
   8 H :    0.032515
   9 C :   -0.054722
  10 H :    0.021813
  11 H :    0.029677
  12 C :   -0.062205
  13 H :    0.021086
  14 H :    0.031991
  15 H :    0.025945
  16 S :    0.411532
  17 C :   -0.189986
  18 C :   -0.082109
  19 C :   -0.052080
  20 C :   -0.196589
  21 H :    0.036943
  22 C :   -0.033506
  23 H :    0.031338
  24 H :    0.035548
  25 C :   -0.048628
  26 H :    0.023771
  27 H :    0.021841
  28 C :   -0.064117
  29 H :    0.039500
  30 H :    0.030655
  31 H :    0.016021
  32 H :    0.031147
  33 H :    0.021798

  Mayer bond orders larger than 0.100000
B(  0-S ,  1-C ) :   1.1473 B(  0-S ,  4-C ) :   1.1682 B(  1-C ,  2-C ) :   1.5958
B(  1-C ,  4-C ) :   0.1015 B(  1-C , 32-H ) :   0.9639 B(  2-C ,  3-C ) :   1.2718
B(  2-C ,  6-C ) :   1.0069 B(  3-C ,  4-C ) :   1.5601 B(  3-C ,  5-H ) :   0.9988
B(  4-C , 20-C ) :   1.0004 B(  6-C ,  7-H ) :   0.9459 B(  6-C ,  8-H ) :   0.9314
B(  6-C ,  9-C ) :   1.0681 B(  9-C , 10-H ) :   0.9530 B(  9-C , 11-H ) :   0.9485
B(  9-C , 12-C ) :   1.1001 B( 12-C , 13-H ) :   0.9717 B( 12-C , 14-H ) :   0.9686
B( 12-C , 15-H ) :   0.9696 B( 16-S , 17-C ) :   1.1676 B( 16-S , 20-C ) :   1.1400
B( 17-C , 18-C ) :   1.6008 B( 17-C , 33-H ) :   0.9707 B( 18-C , 19-C ) :   1.2325
B( 18-C , 21-H ) :   0.9785 B( 19-C , 20-C ) :   1.6399 B( 19-C , 22-C ) :   1.0273
B( 22-C , 23-H ) :   0.9388 B( 22-C , 24-H ) :   0.9395 B( 22-C , 25-C ) :   1.0552
B( 25-C , 26-H ) :   0.9559 B( 25-C , 27-H ) :   0.9574 B( 25-C , 28-C ) :   1.0815
B( 28-C , 29-H ) :   0.9747 B( 28-C , 30-H ) :   0.9753 B( 28-C , 31-H ) :   0.9789

Dispersion correction           -0.013460554
FINAL SINGLE POINT ENERGY     -1339.867253475034

DIPOLE MOMENT
-------------
                                X             Y             Z
Electronic contribution:     -3.02542      27.80063      -3.08646
Nuclear contribution   :      3.03482     -28.47746       3.04792
                        -----------------------------------------
Total Dipole Moment    :      0.00941      -0.67683      -0.03855
                        -----------------------------------------
Magnitude (a.u.)       :      0.67799
Magnitude (Debye)      :      1.72332

Rotational constants in cm-1:     0.016331     0.007958     0.006517
Rotational constants in MHz :   489.593747   238.589212   195.386031

                             ****ORCA TERMINATED NORMALLY****
TOTAL RUN TIME: 0 days 0 hours 0 minutes 28 seconds 506 msec
