                         Program Version 4.2.1 -  RELEASE  -
|  1> ! wB97X-D3 SP def2-SVP
|  2> %pal
|  3> nprocs 16
|  4> end
|  5>
|  6> * xyz 0 1
|  7> S 	 1.67317 	 35.2224 	 36.8886
|  8> C 	 1.81427 	 33.4892 	 36.9401
|  9> C 	 0.700068 	 32.9063 	 37.5243
| 10> C 	 -0.347145 	 33.8921 	 37.7857
| 11> C 	 0.107998 	 35.1951 	 37.6012
| 12> H 	 -1.36687 	 33.7848 	 38.0691
| 13> C 	 0.498733 	 31.4617 	 37.8236
| 14> H 	 0.944944 	 30.8166 	 37.1151
| 15> H 	 -0.610931 	 31.2233 	 37.7774
| 16> C 	 0.973232 	 31.1216 	 39.2383
| 17> H 	 1.88659 	 31.6308 	 39.5329
| 18> H 	 0.276829 	 31.5923 	 39.9944
| 19> C 	 1.17977 	 29.5854 	 39.5827
| 20> H 	 1.63462 	 29.3503 	 40.5711
| 21> H 	 0.287532 	 29.011 	 39.4354
| 22> H 	 1.85275 	 29.0944 	 38.872
| 23> S 	 -0.463858 	 37.651 	 36.5085
| 24> C 	 -1.64647 	 38.6813 	 37.3407
| 25> C 	 -2.04157 	 38.0583 	 38.5598
| 26> C 	 -1.45228 	 36.7814 	 38.7984
| 27> C 	 -0.659976 	 36.3993 	 37.7043
| 28> H 	 -2.69126 	 38.6068 	 39.2347
| 29> C 	 -1.64921 	 36.05 	 40.0735
| 30> H 	 -1.50535 	 36.6378 	 40.9373
| 31> H 	 -0.777801 	 35.3194 	 40.2674
| 32> C 	 -2.95862 	 35.2451 	 40.1526
| 33> H 	 -2.94813 	 34.6979 	 39.2134
| 34> H 	 -3.76502 	 36.0337 	 40.1797
| 35> C 	 -3.0875 	 34.2863 	 41.3636
| 36> H 	 -2.24571 	 33.527 	 41.378
| 37> H 	 -3.92911 	 33.6277 	 41.4813
| 38> H 	 -3.04988 	 34.8654 	 42.2766
| 39> H 	 2.60144 	 32.8974 	 36.6118
| 40> H 	 -1.96794 	 39.6335 	 36.9693
| 41> *
| 42>
| 43>                          ****END OF INPUT****

CARTESIAN COORDINATES (ANGSTROEM)
---------------------------------
  S      1.673170   35.222400   36.888600
  C      1.814270   33.489200   36.940100
  C      0.700068   32.906300   37.524300
  C     -0.347145   33.892100   37.785700
  C      0.107998   35.195100   37.601200
  H     -1.366870   33.784800   38.069100
  C      0.498733   31.461700   37.823600
  H      0.944944   30.816600   37.115100
  H     -0.610931   31.223300   37.777400
  C      0.973232   31.121600   39.238300
  H      1.886590   31.630800   39.532900
  H      0.276829   31.592300   39.994400
  C      1.179770   29.585400   39.582700
  H      1.634620   29.350300   40.571100
  H      0.287532   29.011000   39.435400
  H      1.852750   29.094400   38.872000
  S     -0.463858   37.651000   36.508500
  C     -1.646470   38.681300   37.340700
  C     -2.041570   38.058300   38.559800
  C     -1.452280   36.781400   38.798400
  C     -0.659976   36.399300   37.704300
  H     -2.691260   38.606800   39.234700
  C     -1.649210   36.050000   40.073500
  H     -1.505350   36.637800   40.937300
  H     -0.777801   35.319400   40.267400
  C     -2.958620   35.245100   40.152600
  H     -2.948130   34.697900   39.213400
  H     -3.765020   36.033700   40.179700
  C     -3.087500   34.286300   41.363600
  H     -2.245710   33.527000   41.378000
  H     -3.929110   33.627700   41.481300
  H     -3.049880   34.865400   42.276600
  H      2.601440   32.897400   36.611800
  H     -1.967940   39.633500   36.969300

 Total Charge           Charge          ....    0
 Multiplicity           Mult            ....    1
 Number of Electrons    NEL             ....  134
 Basis Dimension        Dim             ....  322

ORBITAL ENERGIES
----------------

  NO   OCC          E(Eh)            E(eV)
   0   2.0000     -88.971054     -2421.0255
   1   2.0000     -88.966811     -2420.9100
   2   2.0000     -10.327789      -281.0334
   3   2.0000     -10.324449      -280.9425
   4   2.0000     -10.324127      -280.9338
   5   2.0000     -10.309328      -280.5311
   6   2.0000     -10.305276      -280.4208
   7   2.0000     -10.304961      -280.4123
   8   2.0000     -10.301110      -280.3075
   9   2.0000     -10.295132      -280.1448
  10   2.0000     -10.294666      -280.1321
  11   2.0000     -10.294479      -280.1270
  12   2.0000     -10.293070      -280.0887
  13   2.0000     -10.291152      -280.0365
  14   2.0000     -10.284290      -279.8498
  15   2.0000     -10.282662      -279.8055
  16   2.0000      -8.085234      -220.0104
  17   2.0000      -8.082180      -219.9273
  18   2.0000      -6.043748      -164.4587
  19   2.0000      -6.040712      -164.3761
  20   2.0000      -6.039738      -164.3496
  21   2.0000      -6.036577      -164.2636
  22   2.0000      -6.036109      -164.2509
  23   2.0000      -6.032906      -164.1637
  24   2.0000      -1.010056       -27.4850
  25   2.0000      -0.982124       -26.7249
  26   2.0000      -0.912631       -24.8340
  27   2.0000      -0.909716       -24.7546
  28   2.0000      -0.868130       -23.6230
  29   2.0000      -0.852602       -23.2005
  30   2.0000      -0.842942       -22.9376
  31   2.0000      -0.812510       -22.1095
  32   2.0000      -0.784641       -21.3512
  33   2.0000      -0.774551       -21.0766
  34   2.0000      -0.707872       -19.2622
  35   2.0000      -0.704083       -19.1591
  36   2.0000      -0.697592       -18.9824
  37   2.0000      -0.667165       -18.1545
  38   2.0000      -0.647317       -17.6144
  39   2.0000      -0.617441       -16.8014
  40   2.0000      -0.601812       -16.3761
  41   2.0000      -0.568446       -15.4682
  42   2.0000      -0.567101       -15.4316
  43   2.0000      -0.549165       -14.9435
  44   2.0000      -0.527939       -14.3660
  45   2.0000      -0.520449       -14.1621
  46   2.0000      -0.516639       -14.0585
  47   2.0000      -0.514937       -14.0122
  48   2.0000      -0.508062       -13.8251
  49   2.0000      -0.502577       -13.6758
  50   2.0000      -0.494189       -13.4476
  51   2.0000      -0.481251       -13.0955
  52   2.0000      -0.472891       -12.8680
  53   2.0000      -0.464939       -12.6516
  54   2.0000      -0.457693       -12.4545
  55   2.0000      -0.450161       -12.2495
  56   2.0000      -0.444124       -12.0852
  57   2.0000      -0.442508       -12.0412
  58   2.0000      -0.434546       -11.8246
  59   2.0000      -0.427046       -11.6205
  60   2.0000      -0.424998       -11.5648
  61   2.0000      -0.412959       -11.2372
  62   2.0000      -0.408398       -11.1131
  63   2.0000      -0.350608        -9.5405
  64   2.0000      -0.334588        -9.1046
  65   2.0000      -0.328699        -8.9444
  66   2.0000      -0.286487        -7.7957
  67   0.0000       0.022727         0.6184
  68   0.0000       0.074284         2.0214
  69   0.0000       0.104014         2.8304
  70   0.0000       0.118232         3.2173
  71   0.0000       0.122981         3.3465

MULLIKEN ATOMIC CHARGES
-----------------------
   0 S :    0.110331
   1 C :   -0.079251
   2 C :   -0.091925
   3 C :    0.028351
   4 C :   -0.144506
   5 H :   -0.007858
   6 C :    0.089499
   7 H :    0.011993
   8 H :    0.036270
   9 C :   -0.094306
  10 H :    0.028841
  11 H :    0.029943
  12 C :   -0.050808
  13 H :    0.045114
  14 H :    0.023460
  15 H :    0.021076
  16 S :    0.115020
  17 C :   -0.103869
  18 C :   -0.022308
  19 C :   -0.016391
  20 C :   -0.143019
  21 H :    0.021088
  22 C :    0.026719
  23 H :    0.013957
  24 H :    0.032022
  25 C :   -0.069520
  26 H :    0.029591
  27 H :    0.037149
  28 C :   -0.044065
  29 H :    0.030225
  30 H :    0.034632
  31 H :    0.028940
  32 H :    0.017652
  33 H :    0.055952
Sum of atomic charges:   -0.0000000

LOEWDIN ATOMIC CHARGES
----------------------
   0 S :    0.419936
   1 C :   -0.193510
   2 C :   -0.052228
   3 C :   -0.058962
   4 C :   -0.198365
   5 H :    0.024395
   6 C :   -0.033421
   7 H :    0.022423
   8 H :    0.040609
   9 C :   -0.044633
  10 H :    0.022639
  11 H :    0.028119
  12 C :   -0.073686
  13 H :    0.032969
  14 H :    0.019568
  15 H :    0.023169
  16 S :    0.405794
  17 C :   -0.180661
  18 C :   -0.060079
  19 C :   -0.056160
  20 C :   -0.199011
  21 H :    0.030545
  22 C :   -0.041594
  23 H :    0.022670
  24 H :    0.038655
  25 C :   -0.037305
  26 H :    0.018966
  27 H :    0.028838
  28 C :   -0.072475
  29 H :    0.030599
  30 H :    0.025404
  31 H :    0.024483
  32 H :    0.016921
  33 H :    0.025387

  Mayer bond orders larger than 0.100000
B(  0-S ,  1-C ) :   1.1296 B(  0-S ,  4-C ) :   1.1514 B(  1-C ,  2-C ) :   1.6165
B(  1-C , 32-H ) :   0.9764 B(  2-C ,  3-C ) :   1.2164 B(  2-C ,  6-C ) :   1.0424
B(  3-C ,  4-C ) :   1.5618 B(  3-C ,  5-H ) :   0.9968 B(  4-C , 20-C ) :   1.0767
B(  6-C ,  7-H ) :   0.9418 B(  6-C ,  8-H ) :   0.9380 B(  6-C ,  9-C ) :   1.0439
B(  9-C , 10-H ) :   0.9625 B(  9-C , 11-H ) :   0.9541 B(  9-C , 12-C ) :   1.0684
B( 12-C , 13-H ) :   0.9772 B( 12-C , 14-H ) :   0.9762 B( 12-C , 15-H ) :   0.9753
B( 16-S , 17-C ) :   1.1506 B( 16-S , 20-C ) :   1.1496 B( 17-C , 18-C ) :   1.5782
B( 17-C , 20-C ) :   0.1052 B( 17-C , 33-H ) :   0.9749 B( 18-C , 19-C ) :   1.2591
B( 18-C , 21-H ) :   0.9890 B( 19-C , 20-C ) :   1.5455 B( 19-C , 22-C ) :   1.0606
B( 22-C , 23-H ) :   0.9329 B( 22-C , 24-H ) :   0.9259 B( 22-C , 25-C ) :   1.0424
B( 25-C , 26-H ) :   0.9556 B( 25-C , 27-H ) :   0.9552 B( 25-C , 28-C ) :   1.0746
B( 28-C , 29-H ) :   0.9722 B( 28-C , 30-H ) :   0.9770 B( 28-C , 31-H ) :   0.9741

Dispersion correction           -0.014477558
FINAL SINGLE POINT ENERGY     -1339.878897969068

DIPOLE MOMENT
-------------
                                X             Y             Z
Electronic contribution:      8.84597      24.49840     -20.95727
Nuclear contribution   :     -9.10539     -24.81479      21.39034
                        -----------------------------------------
Total Dipole Moment    :     -0.25942      -0.31639       0.43308
                        -----------------------------------------
Magnitude (a.u.)       :      0.59578
Magnitude (Debye)      :      1.51436

Rotational constants in cm-1:     0.018494     0.009209     0.006414
Rotational constants in MHz :   554.424080   276.082854   192.276261

                             ****ORCA TERMINATED NORMALLY****
TOTAL RUN TIME: 0 days 0 hours 0 minutes 33 seconds 534 msec
