                         Program Version 4.2.1 -  RELEASE  -
|  1> ! wB97X-D3 SP def2-SVP
|  2> %pal
|  3> nprocs 16
|  4> end
|  5>
|  6> * xyz 0 1
|  7> S 	 44.9362 	 19.6708 	 104.999
|  8> C 	 45.7924 	 20.1088 	 103.527
|  9> C 	 46.1772 	 18.9635 	 102.849
| 10> C 	 45.7705 	 17.7574 	 103.556
| 11> C 	 45.2034 	 17.9419 	 104.811
| 12> H 	 45.743 	 16.7696 	 103.189
| 13> C 	 46.8014 	 18.9144 	 101.51
| 14> H 	 47.7945 	 18.8604 	 101.74
| 15> H 	 46.6013 	 19.8648 	 101.01
| 16> C 	 46.2736 	 17.8268 	 100.596
| 17> H 	 46.5076 	 16.872 	 101.012
| 18> H 	 45.1881 	 18.002 	 100.457
| 19> C 	 46.8598 	 17.9985 	 99.1518
| 20> H 	 46.776 	 19.0581 	 98.8877
| 21> H 	 47.8846 	 17.6962 	 98.9191
| 22> H 	 46.1936 	 17.5231 	 98.4418
| 23> S 	 42.7843 	 17.1102 	 105.698
| 24> C 	 42.5119 	 15.4961 	 106.14
| 25> C 	 43.7239 	 14.7723 	 106.103
| 26> C 	 44.8471 	 15.6313 	 105.933
| 27> C 	 44.4702 	 16.9051 	 105.527
| 28> H 	 43.7328 	 13.689 	 106.207
| 29> C 	 46.3078 	 15.0749 	 105.87
| 30> H 	 46.3548 	 14.3737 	 106.683
| 31> H 	 47.0657 	 15.8656 	 105.999
| 32> C 	 46.6077 	 14.3805 	 104.523
| 33> H 	 47.5266 	 13.8321 	 104.645
| 34> H 	 46.7693 	 15.126 	 103.779
| 35> C 	 45.536 	 13.4117 	 103.923
| 36> H 	 45.7025 	 13.2978 	 102.845
| 37> H 	 44.5261 	 13.8202 	 103.897
| 38> H 	 45.3735 	 12.3901 	 104.279
| 39> H 	 46.0379 	 21.0652 	 103.128
| 40> H 	 41.5665 	 15.0605 	 106.26
| 41> *
| 42>
| 43>                          ****END OF INPUT****

CARTESIAN COORDINATES (ANGSTROEM)
---------------------------------
  S     44.936200   19.670800  104.999000
  C     45.792400   20.108800  103.527000
  C     46.177200   18.963500  102.849000
  C     45.770500   17.757400  103.556000
  C     45.203400   17.941900  104.811000
  H     45.743000   16.769600  103.189000
  C     46.801400   18.914400  101.510000
  H     47.794500   18.860400  101.740000
  H     46.601300   19.864800  101.010000
  C     46.273600   17.826800  100.596000
  H     46.507600   16.872000  101.012000
  H     45.188100   18.002000  100.457000
  C     46.859800   17.998500   99.151800
  H     46.776000   19.058100   98.887700
  H     47.884600   17.696200   98.919100
  H     46.193600   17.523100   98.441800
  S     42.784300   17.110200  105.698000
  C     42.511900   15.496100  106.140000
  C     43.723900   14.772300  106.103000
  C     44.847100   15.631300  105.933000
  C     44.470200   16.905100  105.527000
  H     43.732800   13.689000  106.207000
  C     46.307800   15.074900  105.870000
  H     46.354800   14.373700  106.683000
  H     47.065700   15.865600  105.999000
  C     46.607700   14.380500  104.523000
  H     47.526600   13.832100  104.645000
  H     46.769300   15.126000  103.779000
  C     45.536000   13.411700  103.923000
  H     45.702500   13.297800  102.845000
  H     44.526100   13.820200  103.897000
  H     45.373500   12.390100  104.279000
  H     46.037900   21.065200  103.128000
  H     41.566500   15.060500  106.260000

 Total Charge           Charge          ....    0
 Multiplicity           Mult            ....    1
 Number of Electrons    NEL             ....  134
 Basis Dimension        Dim             ....  322

ORBITAL ENERGIES
----------------

  NO   OCC          E(Eh)            E(eV)
   0   2.0000     -88.965406     -2420.8718
   1   2.0000     -88.963970     -2420.8327
   2   2.0000     -10.331209      -281.1265
   3   2.0000     -10.323052      -280.9045
   4   2.0000     -10.314161      -280.6626
   5   2.0000     -10.311381      -280.5870
   6   2.0000     -10.303333      -280.3679
   7   2.0000     -10.300767      -280.2981
   8   2.0000     -10.296224      -280.1745
   9   2.0000     -10.294613      -280.1307
  10   2.0000     -10.292481      -280.0726
  11   2.0000     -10.292309      -280.0680
  12   2.0000     -10.288439      -279.9626
  13   2.0000     -10.281917      -279.7852
  14   2.0000     -10.281287      -279.7680
  15   2.0000     -10.277435      -279.6632
  16   2.0000      -8.080456      -219.8804
  17   2.0000      -8.079557      -219.8559
  18   2.0000      -6.038690      -164.3211
  19   2.0000      -6.038256      -164.3093
  20   2.0000      -6.034567      -164.2089
  21   2.0000      -6.034067      -164.1953
  22   2.0000      -6.031529      -164.1263
  23   2.0000      -6.030213      -164.0904
  24   2.0000      -1.012266       -27.5452
  25   2.0000      -0.986058       -26.8320
  26   2.0000      -0.919974       -25.0338
  27   2.0000      -0.905357       -24.6360
  28   2.0000      -0.871865       -23.7246
  29   2.0000      -0.845969       -23.0200
  30   2.0000      -0.841919       -22.9098
  31   2.0000      -0.815803       -22.1991
  32   2.0000      -0.787259       -21.4224
  33   2.0000      -0.776092       -21.1185
  34   2.0000      -0.715457       -19.4686
  35   2.0000      -0.703640       -19.1470
  36   2.0000      -0.693063       -18.8592
  37   2.0000      -0.664874       -18.0922
  38   2.0000      -0.643282       -17.5046
  39   2.0000      -0.618731       -16.8365
  40   2.0000      -0.591603       -16.0983
  41   2.0000      -0.582388       -15.8476
  42   2.0000      -0.568896       -15.4805
  43   2.0000      -0.558242       -15.1905
  44   2.0000      -0.534028       -14.5316
  45   2.0000      -0.528563       -14.3829
  46   2.0000      -0.518884       -14.1195
  47   2.0000      -0.513964       -13.9857
  48   2.0000      -0.510060       -13.8794
  49   2.0000      -0.500897       -13.6301
  50   2.0000      -0.492826       -13.4105
  51   2.0000      -0.475903       -12.9500
  52   2.0000      -0.473752       -12.8914
  53   2.0000      -0.464541       -12.6408
  54   2.0000      -0.458775       -12.4839
  55   2.0000      -0.448472       -12.2035
  56   2.0000      -0.440133       -11.9766
  57   2.0000      -0.437121       -11.8947
  58   2.0000      -0.435559       -11.8522
  59   2.0000      -0.431208       -11.7338
  60   2.0000      -0.428989       -11.6734
  61   2.0000      -0.415108       -11.2957
  62   2.0000      -0.411212       -11.1897
  63   2.0000      -0.347191        -9.4476
  64   2.0000      -0.329752        -8.9730
  65   2.0000      -0.323922        -8.8144
  66   2.0000      -0.292383        -7.9561
  67   0.0000       0.031185         0.8486
  68   0.0000       0.069637         1.8949
  69   0.0000       0.116531         3.1710
  70   0.0000       0.127253         3.4627
  71   0.0000       0.129555         3.5254

MULLIKEN ATOMIC CHARGES
-----------------------
   0 S :    0.095686
   1 C :   -0.094069
   2 C :   -0.111910
   3 C :    0.014944
   4 C :   -0.127635
   5 H :    0.008568
   6 C :    0.119722
   7 H :    0.023538
   8 H :    0.008894
   9 C :   -0.101088
  10 H :    0.039222
  11 H :    0.046159
  12 C :   -0.040529
  13 H :    0.017200
  14 H :    0.040070
  15 H :    0.027545
  16 S :    0.128158
  17 C :   -0.077495
  18 C :   -0.061535
  19 C :   -0.081517
  20 C :   -0.147193
  21 H :    0.029263
  22 C :    0.095382
  23 H :    0.023133
  24 H :    0.041409
  25 C :   -0.038430
  26 H :    0.030393
  27 H :    0.011271
  28 C :   -0.086581
  29 H :    0.022554
  30 H :    0.036360
  31 H :    0.034257
  32 H :    0.032723
  33 H :    0.041529
Sum of atomic charges:    0.0000000

LOEWDIN ATOMIC CHARGES
----------------------
   0 S :    0.395407
   1 C :   -0.193400
   2 C :   -0.058572
   3 C :   -0.057799
   4 C :   -0.193579
   5 H :    0.019248
   6 C :   -0.030156
   7 H :    0.024263
   8 H :    0.029789
   9 C :   -0.030734
  10 H :    0.018762
  11 H :    0.036276
  12 C :   -0.066795
  13 H :    0.024334
  14 H :    0.025089
  15 H :    0.024913
  16 S :    0.454116
  17 C :   -0.201928
  18 C :   -0.069599
  19 C :   -0.059268
  20 C :   -0.216885
  21 H :    0.031711
  22 C :   -0.023420
  23 H :    0.026769
  24 H :    0.037081
  25 C :   -0.032277
  26 H :    0.025888
  27 H :    0.017674
  28 C :   -0.081767
  29 H :    0.028456
  30 H :    0.026909
  31 H :    0.023617
  32 H :    0.026613
  33 H :    0.019263

  Mayer bond orders larger than 0.100000
B(  0-S ,  1-C ) :   1.1284 B(  0-S ,  4-C ) :   1.1429 B(  1-C ,  2-C ) :   1.6197
B(  1-C , 32-H ) :   0.9710 B(  2-C ,  3-C ) :   1.2315 B(  2-C ,  6-C ) :   1.0169
B(  3-C ,  4-C ) :   1.5726 B(  3-C ,  5-H ) :   0.9831 B(  4-C , 20-C ) :   1.0357
B(  6-C ,  7-H ) :   0.9217 B(  6-C ,  8-H ) :   0.9381 B(  6-C ,  9-C ) :   1.0815
B(  9-C , 10-H ) :   0.9485 B(  9-C , 11-H ) :   0.9592 B(  9-C , 12-C ) :   1.0809
B( 12-C , 13-H ) :   0.9722 B( 12-C , 14-H ) :   0.9772 B( 12-C , 15-H ) :   0.9766
B( 16-S , 17-C ) :   1.1863 B( 16-S , 20-C ) :   1.1724 B( 17-C , 18-C ) :   1.5551
B( 17-C , 33-H ) :   0.9784 B( 18-C , 19-C ) :   1.2746 B( 18-C , 21-H ) :   0.9884
B( 19-C , 20-C ) :   1.5552 B( 19-C , 22-C ) :   1.0456 B( 22-C , 23-H ) :   0.9338
B( 22-C , 24-H ) :   0.9388 B( 22-C , 25-C ) :   1.0698 B( 25-C , 26-H ) :   0.9520
B( 25-C , 27-H ) :   0.9535 B( 25-C , 28-C ) :   1.0748 B( 28-C , 29-H ) :   0.9719
B( 28-C , 30-H ) :   0.9641 B( 28-C , 31-H ) :   0.9776

Dispersion correction           -0.015164857
FINAL SINGLE POINT ENERGY     -1339.865145657814

DIPOLE MOMENT
-------------
                                X             Y             Z
Electronic contribution:    -14.27034      14.53585      21.53531
Nuclear contribution   :     14.51867     -14.96950     -22.24015
                        -----------------------------------------
Total Dipole Moment    :      0.24833      -0.43365      -0.70484
                        -----------------------------------------
Magnitude (a.u.)       :      0.86401
Magnitude (Debye)      :      2.19615

Rotational constants in cm-1:     0.017729     0.009760     0.007369
Rotational constants in MHz :   531.491969   292.607610   220.906702

                             ****ORCA TERMINATED NORMALLY****
TOTAL RUN TIME: 0 days 0 hours 0 minutes 30 seconds 300 msec
