                         Program Version 4.2.1 -  RELEASE  -
|  1> ! wB97X-D3 SP def2-SVP
|  2> %pal
|  3> nprocs 16
|  4> end
|  5>
|  6> * xyz 0 1
|  7> S 	 -70.8126 	 49.3041 	 136.349
|  8> C 	 -70.8121 	 48.9483 	 138.07
|  9> C 	 -71.907 	 48.2174 	 138.495
| 10> C 	 -72.7533 	 47.8203 	 137.418
| 11> C 	 -72.3332 	 48.3786 	 136.172
| 12> H 	 -73.7286 	 47.2556 	 137.368
| 13> C 	 -72.2031 	 47.793 	 139.923
| 14> H 	 -73.2869 	 47.9386 	 139.939
| 15> H 	 -71.8447 	 48.4722 	 140.681
| 16> C 	 -71.7756 	 46.326 	 140.261
| 17> H 	 -71.8454 	 45.6065 	 139.409
| 18> H 	 -70.6808 	 46.5396 	 140.377
| 19> C 	 -72.2613 	 45.629 	 141.475
| 20> H 	 -71.5972 	 44.7787 	 141.651
| 21> H 	 -72.1292 	 46.3518 	 142.335
| 22> H 	 -73.3181 	 45.2603 	 141.547
| 23> S 	 -74.0131 	 46.7911 	 134.623
| 24> C 	 -74.7061 	 47.4842 	 133.176
| 25> C 	 -74.4589 	 48.8198 	 133.005
| 26> C 	 -73.5851 	 49.2972 	 133.984
| 27> C 	 -73.168 	 48.3282 	 134.946
| 28> H 	 -74.8698 	 49.3593 	 132.204
| 29> C 	 -73.2709 	 50.8035 	 134.142
| 30> H 	 -72.5041 	 51.0865 	 133.408
| 31> H 	 -72.8908 	 51.0604 	 135.206
| 32> C 	 -74.3887 	 51.8033 	 133.936
| 33> H 	 -75.2539 	 51.509 	 134.558
| 34> H 	 -74.7092 	 51.6998 	 132.891
| 35> C 	 -74.0084 	 53.3039 	 134.031
| 36> H 	 -73.1316 	 53.4808 	 133.413
| 37> H 	 -73.8216 	 53.8026 	 134.994
| 38> H 	 -74.8138 	 53.9304 	 133.627
| 39> H 	 -70.1291 	 49.3611 	 138.815
| 40> H 	 -75.3445 	 47.076 	 132.442
| 41> *
| 42>
| 43>                          ****END OF INPUT****

CARTESIAN COORDINATES (ANGSTROEM)
---------------------------------
  S    -70.812600   49.304100  136.349000
  C    -70.812100   48.948300  138.070000
  C    -71.907000   48.217400  138.495000
  C    -72.753300   47.820300  137.418000
  C    -72.333200   48.378600  136.172000
  H    -73.728600   47.255600  137.368000
  C    -72.203100   47.793000  139.923000
  H    -73.286900   47.938600  139.939000
  H    -71.844700   48.472200  140.681000
  C    -71.775600   46.326000  140.261000
  H    -71.845400   45.606500  139.409000
  H    -70.680800   46.539600  140.377000
  C    -72.261300   45.629000  141.475000
  H    -71.597200   44.778700  141.651000
  H    -72.129200   46.351800  142.335000
  H    -73.318100   45.260300  141.547000
  S    -74.013100   46.791100  134.623000
  C    -74.706100   47.484200  133.176000
  C    -74.458900   48.819800  133.005000
  C    -73.585100   49.297200  133.984000
  C    -73.168000   48.328200  134.946000
  H    -74.869800   49.359300  132.204000
  C    -73.270900   50.803500  134.142000
  H    -72.504100   51.086500  133.408000
  H    -72.890800   51.060400  135.206000
  C    -74.388700   51.803300  133.936000
  H    -75.253900   51.509000  134.558000
  H    -74.709200   51.699800  132.891000
  C    -74.008400   53.303900  134.031000
  H    -73.131600   53.480800  133.413000
  H    -73.821600   53.802600  134.994000
  H    -74.813800   53.930400  133.627000
  H    -70.129100   49.361100  138.815000
  H    -75.344500   47.076000  132.442000

 Total Charge           Charge          ....    0
 Multiplicity           Mult            ....    1
 Number of Electrons    NEL             ....  134
 Basis Dimension        Dim             ....  322

ORBITAL ENERGIES
----------------

  NO   OCC          E(Eh)            E(eV)
   0   2.0000     -88.973520     -2421.0926
   1   2.0000     -88.972163     -2421.0556
   2   2.0000     -10.339438      -281.3504
   3   2.0000     -10.335605      -281.2461
   4   2.0000     -10.314929      -280.6835
   5   2.0000     -10.313936      -280.6565
   6   2.0000     -10.307510      -280.4816
   7   2.0000     -10.304617      -280.4029
   8   2.0000     -10.302979      -280.3583
   9   2.0000     -10.294450      -280.1262
  10   2.0000     -10.293976      -280.1133
  11   2.0000     -10.291392      -280.0430
  12   2.0000     -10.288358      -279.9605
  13   2.0000     -10.288144      -279.9546
  14   2.0000     -10.284251      -279.8487
  15   2.0000     -10.281109      -279.7632
  16   2.0000      -8.086628      -220.0483
  17   2.0000      -8.085889      -220.0282
  18   2.0000      -6.045212      -164.4986
  19   2.0000      -6.044423      -164.4771
  20   2.0000      -6.041392      -164.3946
  21   2.0000      -6.040590      -164.3728
  22   2.0000      -6.037365      -164.2850
  23   2.0000      -6.036644      -164.2654
  24   2.0000      -0.999986       -27.2110
  25   2.0000      -0.980551       -26.6822
  26   2.0000      -0.908792       -24.7295
  27   2.0000      -0.904818       -24.6213
  28   2.0000      -0.869601       -23.6631
  29   2.0000      -0.854870       -23.2622
  30   2.0000      -0.845042       -22.9948
  31   2.0000      -0.812429       -22.1073
  32   2.0000      -0.782933       -21.3047
  33   2.0000      -0.769782       -20.9468
  34   2.0000      -0.704871       -19.1805
  35   2.0000      -0.694206       -18.8903
  36   2.0000      -0.690618       -18.7927
  37   2.0000      -0.661847       -18.0098
  38   2.0000      -0.632504       -17.2113
  39   2.0000      -0.615172       -16.7397
  40   2.0000      -0.595053       -16.1922
  41   2.0000      -0.569882       -15.5073
  42   2.0000      -0.565098       -15.3771
  43   2.0000      -0.553200       -15.0533
  44   2.0000      -0.527084       -14.3427
  45   2.0000      -0.520064       -14.1516
  46   2.0000      -0.512722       -13.9519
  47   2.0000      -0.510992       -13.9048
  48   2.0000      -0.502956       -13.6861
  49   2.0000      -0.499605       -13.5950
  50   2.0000      -0.484189       -13.1755
  51   2.0000      -0.477535       -12.9944
  52   2.0000      -0.473612       -12.8876
  53   2.0000      -0.465808       -12.6753
  54   2.0000      -0.459725       -12.5098
  55   2.0000      -0.456589       -12.4244
  56   2.0000      -0.449477       -12.2309
  57   2.0000      -0.431380       -11.7384
  58   2.0000      -0.428387       -11.6570
  59   2.0000      -0.423526       -11.5247
  60   2.0000      -0.419765       -11.4224
  61   2.0000      -0.407743       -11.0953
  62   2.0000      -0.405794       -11.0422
  63   2.0000      -0.352484        -9.5916
  64   2.0000      -0.336937        -9.1685
  65   2.0000      -0.330613        -8.9964
  66   2.0000      -0.281872        -7.6701
  67   0.0000       0.020418         0.5556
  68   0.0000       0.073192         1.9917
  69   0.0000       0.103958         2.8289
  70   0.0000       0.112213         3.0535
  71   0.0000       0.132085         3.5942

MULLIKEN ATOMIC CHARGES
-----------------------
   0 S :    0.126182
   1 C :   -0.116982
   2 C :   -0.091839
   3 C :   -0.012799
   4 C :   -0.142070
   5 H :    0.044236
   6 C :    0.079830
   7 H :    0.022954
   8 H :    0.018908
   9 C :   -0.101378
  10 H :    0.041649
  11 H :    0.030401
  12 C :   -0.046903
  13 H :    0.040015
  14 H :    0.024883
  15 H :    0.046776
  16 S :    0.104941
  17 C :   -0.046294
  18 C :   -0.042693
  19 C :   -0.003904
  20 C :   -0.166551
  21 H :    0.003368
  22 C :    0.024466
  23 H :    0.030248
  24 H :    0.047715
  25 C :   -0.095662
  26 H :    0.039860
  27 H :    0.021090
  28 C :   -0.056395
  29 H :    0.025560
  30 H :    0.037847
  31 H :    0.032919
  32 H :    0.047556
  33 H :    0.032069
Sum of atomic charges:    0.0000000

LOEWDIN ATOMIC CHARGES
----------------------
   0 S :    0.402603
   1 C :   -0.204254
   2 C :   -0.062146
   3 C :   -0.070150
   4 C :   -0.183013
   5 H :    0.038437
   6 C :   -0.032459
   7 H :    0.029007
   8 H :    0.026294
   9 C :   -0.052623
  10 H :    0.029034
  11 H :    0.032995
  12 C :   -0.074697
  13 H :    0.031948
  14 H :    0.028008
  15 H :    0.029646
  16 S :    0.404972
  17 C :   -0.176759
  18 C :   -0.066364
  19 C :   -0.055410
  20 C :   -0.186653
  21 H :    0.027145
  22 C :   -0.045412
  23 H :    0.029297
  24 H :    0.034202
  25 C :   -0.046984
  26 H :    0.026294
  27 H :    0.020627
  28 C :   -0.069951
  29 H :    0.025034
  30 H :    0.025861
  31 H :    0.030327
  32 H :    0.031193
  33 H :    0.023954

  Mayer bond orders larger than 0.100000
B(  0-S ,  1-C ) :   1.1268 B(  0-S ,  4-C ) :   1.1436 B(  1-C ,  2-C ) :   1.6266
B(  1-C , 32-H ) :   0.9599 B(  2-C ,  3-C ) :   1.2491 B(  2-C ,  6-C ) :   1.0227
B(  3-C ,  4-C ) :   1.5601 B(  3-C ,  5-H ) :   0.9716 B(  4-C , 20-C ) :   1.0560
B(  6-C ,  7-H ) :   0.9393 B(  6-C ,  8-H ) :   0.9420 B(  6-C ,  9-C ) :   1.0374
B(  9-C , 10-H ) :   0.9605 B(  9-C , 11-H ) :   0.9522 B(  9-C , 12-C ) :   1.0903
B( 12-C , 13-H ) :   0.9691 B( 12-C , 14-H ) :   0.9696 B( 12-C , 15-H ) :   0.9731
B( 16-S , 17-C ) :   1.1537 B( 16-S , 20-C ) :   1.1335 B( 17-C , 18-C ) :   1.6134
B( 17-C , 33-H ) :   0.9621 B( 18-C , 19-C ) :   1.2626 B( 18-C , 21-H ) :   0.9962
B( 19-C , 20-C ) :   1.5615 B( 19-C , 22-C ) :   1.0225 B( 22-C , 23-H ) :   0.9276
B( 22-C , 24-H ) :   0.9457 B( 22-C , 25-C ) :   1.0768 B( 25-C , 26-H ) :   0.9589
B( 25-C , 27-H ) :   0.9441 B( 25-C , 28-C ) :   1.0779 B( 28-C , 29-H ) :   0.9718
B( 28-C , 30-H ) :   0.9772 B( 28-C , 31-H ) :   0.9750

Dispersion correction           -0.013386657
FINAL SINGLE POINT ENERGY     -1339.865277721306

DIPOLE MOMENT
-------------
                                X             Y             Z
Electronic contribution:      4.21411      -8.59403     -12.67727
Nuclear contribution   :     -4.51463       8.85528      12.86112
                        -----------------------------------------
Total Dipole Moment    :     -0.30052       0.26125       0.18385
                        -----------------------------------------
Magnitude (a.u.)       :      0.43859
Magnitude (Debye)      :      1.11482

Rotational constants in cm-1:     0.020352     0.007231     0.005985
Rotational constants in MHz :   610.146847   216.777991   179.429616

                             ****ORCA TERMINATED NORMALLY****
TOTAL RUN TIME: 0 days 0 hours 0 minutes 32 seconds 695 msec
