                         Program Version 4.2.1 -  RELEASE  -
|  1> ! wB97X-D3 SP def2-SVP
|  2> %pal
|  3> nprocs 16
|  4> end
|  5>
|  6> * xyz 0 1
|  7> S 	 -3.96488 	 13.0747 	 83.9858
|  8> C 	 -5.03953 	 12.008 	 83.063
|  9> C 	 -6.29504 	 12.0537 	 83.5589
| 10> C 	 -6.44502 	 12.9225 	 84.6493
| 11> C 	 -5.25263 	 13.5787 	 85.039
| 12> H 	 -7.3318 	 13.074 	 85.2631
| 13> C 	 -7.33621 	 11.1051 	 83.0143
| 14> H 	 -7.30723 	 10.8941 	 81.8998
| 15> H 	 -8.23276 	 11.7061 	 83.1601
| 16> C 	 -7.33707 	 9.7344 	 83.6964
| 17> H 	 -7.78339 	 9.00591 	 82.9572
| 18> H 	 -6.33119 	 9.2808 	 83.7726
| 19> C 	 -7.95487 	 9.84715 	 85.042
| 20> H 	 -8.81133 	 10.45 	 85.0476
| 21> H 	 -8.36004 	 8.92706 	 85.4343
| 22> H 	 -7.28787 	 10.317 	 85.7936
| 23> S 	 -6.14602 	 15.9492 	 86.173
| 24> C 	 -5.28675 	 16.5646 	 87.5835
| 25> C 	 -4.29785 	 15.7041 	 87.9608
| 26> C 	 -4.26194 	 14.4238 	 87.1888
| 27> C 	 -5.14244 	 14.5208 	 86.0921
| 28> H 	 -3.72743 	 15.8865 	 88.7828
| 29> C 	 -3.24353 	 13.4058 	 87.4321
| 30> H 	 -2.28383 	 13.9046 	 87.3446
| 31> H 	 -3.28697 	 12.5842 	 86.7214
| 32> C 	 -3.22083 	 12.882 	 88.8887
| 33> H 	 -3.11654 	 13.6947 	 89.5889
| 34> H 	 -2.2534 	 12.354 	 88.9284
| 35> C 	 -4.36343 	 11.9111 	 89.0814
| 36> H 	 -4.42085 	 11.5457 	 90.09
| 37> H 	 -4.43349 	 11.0608 	 88.3583
| 38> H 	 -5.34698 	 12.373 	 88.971
| 39> H 	 -4.64797 	 11.4144 	 82.2113
| 40> H 	 -5.3074 	 17.6255 	 88.0319
| 41> *
| 42>
| 43>                          ****END OF INPUT****

CARTESIAN COORDINATES (ANGSTROEM)
---------------------------------
  S     -3.964880   13.074700   83.985800
  C     -5.039530   12.008000   83.063000
  C     -6.295040   12.053700   83.558900
  C     -6.445020   12.922500   84.649300
  C     -5.252630   13.578700   85.039000
  H     -7.331800   13.074000   85.263100
  C     -7.336210   11.105100   83.014300
  H     -7.307230   10.894100   81.899800
  H     -8.232760   11.706100   83.160100
  C     -7.337070    9.734400   83.696400
  H     -7.783390    9.005910   82.957200
  H     -6.331190    9.280800   83.772600
  C     -7.954870    9.847150   85.042000
  H     -8.811330   10.450000   85.047600
  H     -8.360040    8.927060   85.434300
  H     -7.287870   10.317000   85.793600
  S     -6.146020   15.949200   86.173000
  C     -5.286750   16.564600   87.583500
  C     -4.297850   15.704100   87.960800
  C     -4.261940   14.423800   87.188800
  C     -5.142440   14.520800   86.092100
  H     -3.727430   15.886500   88.782800
  C     -3.243530   13.405800   87.432100
  H     -2.283830   13.904600   87.344600
  H     -3.286970   12.584200   86.721400
  C     -3.220830   12.882000   88.888700
  H     -3.116540   13.694700   89.588900
  H     -2.253400   12.354000   88.928400
  C     -4.363430   11.911100   89.081400
  H     -4.420850   11.545700   90.090000
  H     -4.433490   11.060800   88.358300
  H     -5.346980   12.373000   88.971000
  H     -4.647970   11.414400   82.211300
  H     -5.307400   17.625500   88.031900

 Total Charge           Charge          ....    0
 Multiplicity           Mult            ....    1
 Number of Electrons    NEL             ....  134
 Basis Dimension        Dim             ....  322

ORBITAL ENERGIES
----------------

  NO   OCC          E(Eh)            E(eV)
   0   2.0000     -88.966070     -2420.8898
   1   2.0000     -88.965794     -2420.8823
   2   2.0000     -10.327272      -281.0194
   3   2.0000     -10.323422      -280.9146
   4   2.0000     -10.322963      -280.9021
   5   2.0000     -10.312562      -280.6191
   6   2.0000     -10.304866      -280.4097
   7   2.0000     -10.295037      -280.1422
   8   2.0000     -10.294064      -280.1157
   9   2.0000     -10.292616      -280.0763
  10   2.0000     -10.290031      -280.0060
  11   2.0000     -10.288475      -279.9636
  12   2.0000     -10.287050      -279.9249
  13   2.0000     -10.284715      -279.8613
  14   2.0000     -10.273959      -279.5686
  15   2.0000     -10.268794      -279.4281
  16   2.0000      -8.080289      -219.8758
  17   2.0000      -8.080143      -219.8719
  18   2.0000      -6.038889      -164.3265
  19   2.0000      -6.038674      -164.3207
  20   2.0000      -6.034725      -164.2132
  21   2.0000      -6.034701      -164.2126
  22   2.0000      -6.031346      -164.1213
  23   2.0000      -6.030666      -164.1028
  24   2.0000      -1.005962       -27.3736
  25   2.0000      -0.981699       -26.7134
  26   2.0000      -0.916565       -24.9410
  27   2.0000      -0.914901       -24.8957
  28   2.0000      -0.874117       -23.7859
  29   2.0000      -0.848486       -23.0885
  30   2.0000      -0.842570       -22.9275
  31   2.0000      -0.814410       -22.1612
  32   2.0000      -0.784911       -21.3585
  33   2.0000      -0.769445       -20.9377
  34   2.0000      -0.711764       -19.3681
  35   2.0000      -0.705395       -19.1948
  36   2.0000      -0.693461       -18.8700
  37   2.0000      -0.658620       -17.9220
  38   2.0000      -0.638734       -17.3808
  39   2.0000      -0.612836       -16.6761
  40   2.0000      -0.596794       -16.2396
  41   2.0000      -0.570427       -15.5221
  42   2.0000      -0.557724       -15.1764
  43   2.0000      -0.550025       -14.9669
  44   2.0000      -0.538824       -14.6622
  45   2.0000      -0.533132       -14.5073
  46   2.0000      -0.520093       -14.1524
  47   2.0000      -0.514681       -14.0052
  48   2.0000      -0.501377       -13.6432
  49   2.0000      -0.500385       -13.6162
  50   2.0000      -0.494460       -13.4549
  51   2.0000      -0.483263       -13.1503
  52   2.0000      -0.469110       -12.7651
  53   2.0000      -0.465087       -12.6557
  54   2.0000      -0.455411       -12.3924
  55   2.0000      -0.449343       -12.2272
  56   2.0000      -0.442132       -12.0310
  57   2.0000      -0.438273       -11.9260
  58   2.0000      -0.434912       -11.8346
  59   2.0000      -0.425364       -11.5747
  60   2.0000      -0.418126       -11.3778
  61   2.0000      -0.410784       -11.1780
  62   2.0000      -0.400999       -10.9117
  63   2.0000      -0.344513        -9.3747
  64   2.0000      -0.333342        -9.0707
  65   2.0000      -0.323101        -8.7920
  66   2.0000      -0.290661        -7.9093
  67   0.0000       0.030517         0.8304
  68   0.0000       0.067519         1.8373
  69   0.0000       0.109784         2.9874
  70   0.0000       0.117887         3.2079
  71   0.0000       0.128920         3.5081

MULLIKEN ATOMIC CHARGES
-----------------------
   0 S :    0.110634
   1 C :   -0.158682
   2 C :   -0.034679
   3 C :    0.009266
   4 C :   -0.185715
   5 H :    0.014495
   6 C :    0.017810
   7 H :    0.034951
   8 H :    0.028405
   9 C :   -0.056512
  10 H :    0.030108
  11 H :    0.030526
  12 C :   -0.020661
  13 H :    0.002527
  14 H :    0.023928
  15 H :    0.047433
  16 S :    0.115616
  17 C :   -0.114531
  18 C :    0.002998
  19 C :   -0.035185
  20 C :   -0.144512
  21 H :   -0.016849
  22 C :    0.045870
  23 H :    0.033940
  24 H :    0.025096
  25 C :   -0.063110
  26 H :    0.025536
  27 H :    0.027741
  28 C :   -0.041932
  29 H :    0.025865
  30 H :    0.037286
  31 H :    0.028366
  32 H :    0.064247
  33 H :    0.089726
Sum of atomic charges:    0.0000000

LOEWDIN ATOMIC CHARGES
----------------------
   0 S :    0.410241
   1 C :   -0.190099
   2 C :   -0.072727
   3 C :   -0.068170
   4 C :   -0.197719
   5 H :    0.031294
   6 C :   -0.033756
   7 H :    0.036502
   8 H :    0.029307
   9 C :   -0.046866
  10 H :    0.028417
  11 H :    0.028642
  12 C :   -0.067173
  13 H :    0.015615
  14 H :    0.025929
  15 H :    0.034644
  16 S :    0.398634
  17 C :   -0.197233
  18 C :   -0.058519
  19 C :   -0.044083
  20 C :   -0.210095
  21 H :    0.010178
  22 C :   -0.038357
  23 H :    0.036900
  24 H :    0.023522
  25 C :   -0.034810
  26 H :    0.020659
  27 H :    0.027671
  28 C :   -0.072013
  29 H :    0.021998
  30 H :    0.032845
  31 H :    0.027454
  32 H :    0.036171
  33 H :    0.054997

  Mayer bond orders larger than 0.100000
B(  0-S ,  1-C ) :   1.1373 B(  0-S ,  4-C ) :   1.1648 B(  1-C ,  2-C ) :   1.5887
B(  1-C ,  4-C ) :   0.1016 B(  1-C , 32-H ) :   0.9690 B(  2-C ,  3-C ) :   1.2651
B(  2-C ,  6-C ) :   1.0099 B(  3-C ,  4-C ) :   1.5256 B(  3-C ,  5-H ) :   0.9959
B(  4-C , 20-C ) :   1.0805 B(  6-C ,  7-H ) :   0.9469 B(  6-C ,  8-H ) :   0.9463
B(  6-C ,  9-C ) :   1.0649 B(  9-C , 10-H ) :   0.9562 B(  9-C , 11-H ) :   0.9529
B(  9-C , 12-C ) :   1.0776 B( 12-C , 13-H ) :   0.9729 B( 12-C , 14-H ) :   0.9681
B( 12-C , 15-H ) :   0.9691 B( 16-S , 17-C ) :   1.1252 B( 16-S , 20-C ) :   1.1234
B( 17-C , 18-C ) :   1.6659 B( 17-C , 33-H ) :   0.9517 B( 18-C , 19-C ) :   1.1886
B( 18-C , 21-H ) :   0.9934 B( 19-C , 20-C ) :   1.5714 B( 19-C , 22-C ) :   1.0750
B( 22-C , 23-H ) :   0.9280 B( 22-C , 24-H ) :   0.9268 B( 22-C , 25-C ) :   1.0757
B( 25-C , 26-H ) :   0.9563 B( 25-C , 27-H ) :   0.9537 B( 25-C , 28-C ) :   1.0717
B( 28-C , 29-H ) :   0.9721 B( 28-C , 30-H ) :   0.9720 B( 28-C , 31-H ) :   0.9733

Dispersion correction           -0.015102104
FINAL SINGLE POINT ENERGY     -1339.870674434298

DIPOLE MOMENT
-------------
                                X             Y             Z
Electronic contribution:      4.34684      20.74530      -8.94438
Nuclear contribution   :     -4.27649     -21.10474       9.19278
                        -----------------------------------------
Total Dipole Moment    :      0.07036      -0.35944       0.24840
                        -----------------------------------------
Magnitude (a.u.)       :      0.44255
Magnitude (Debye)      :      1.12488

Rotational constants in cm-1:     0.019436     0.008798     0.007861
Rotational constants in MHz :   582.665582   263.757534   235.661763

                             ****ORCA TERMINATED NORMALLY****
TOTAL RUN TIME: 0 days 0 hours 0 minutes 34 seconds 2 msec
