                         Program Version 4.2.1 -  RELEASE  -
|  1> ! wB97X-D3 SP def2-SVP
|  2> %pal
|  3> nprocs 16
|  4> end
|  5>
|  6> * xyz 0 1
|  7> S 	 -33.3098 	 41.8439 	 98.1482
|  8> C 	 -32.4222 	 40.5131 	 98.8418
|  9> C 	 -32.5258 	 39.4077 	 98.0883
| 10> C 	 -33.4362 	 39.5583 	 96.9912
| 11> C 	 -34.1408 	 40.7317 	 97.0884
| 12> H 	 -33.8008 	 38.702 	 96.353
| 13> C 	 -31.805 	 38.0924 	 98.2953
| 14> H 	 -32.4205 	 37.3321 	 97.7258
| 15> H 	 -31.898 	 37.8109 	 99.3753
| 16> C 	 -30.3331 	 38.1724 	 97.8291
| 17> H 	 -30.3824 	 38.4991 	 96.7846
| 18> H 	 -29.8503 	 38.9308 	 98.4211
| 19> C 	 -29.543 	 36.8268 	 97.9023
| 20> H 	 -29.2665 	 36.6119 	 98.9304
| 21> H 	 -30.1098 	 35.9663 	 97.4188
| 22> H 	 -28.6271 	 36.8779 	 97.2985
| 23> S 	 -35.3926 	 42.9989 	 96.1863
| 24> C 	 -36.8565 	 42.8825 	 95.2214
| 25> C 	 -37.0608 	 41.5517 	 94.8363
| 26> C 	 -36.1048 	 40.6351 	 95.3074
| 27> C 	 -35.1559 	 41.2332 	 96.1736
| 28> H 	 -37.8791 	 41.319 	 94.1953
| 29> C 	 -36.1222 	 39.1923 	 94.8868
| 30> H 	 -35.1469 	 38.8741 	 94.6562
| 31> H 	 -36.5589 	 39.1412 	 93.8805
| 32> C 	 -36.7386 	 38.1708 	 95.9032
| 33> H 	 -37.7939 	 38.3565 	 96.1662
| 34> H 	 -36.1776 	 38.1207 	 96.8403
| 35> C 	 -36.5455 	 36.7293 	 95.2723
| 36> H 	 -36.8233 	 35.9825 	 95.9693
| 37> H 	 -35.5927 	 36.4869 	 94.9629
| 38> H 	 -37.1861 	 36.4487 	 94.3935
| 39> H 	 -31.8873 	 40.4279 	 99.8139
| 40> H 	 -37.5655 	 43.6053 	 94.9261
| 41> *
| 42>
| 43>                          ****END OF INPUT****

CARTESIAN COORDINATES (ANGSTROEM)
---------------------------------
  S    -33.309800   41.843900   98.148200
  C    -32.422200   40.513100   98.841800
  C    -32.525800   39.407700   98.088300
  C    -33.436200   39.558300   96.991200
  C    -34.140800   40.731700   97.088400
  H    -33.800800   38.702000   96.353000
  C    -31.805000   38.092400   98.295300
  H    -32.420500   37.332100   97.725800
  H    -31.898000   37.810900   99.375300
  C    -30.333100   38.172400   97.829100
  H    -30.382400   38.499100   96.784600
  H    -29.850300   38.930800   98.421100
  C    -29.543000   36.826800   97.902300
  H    -29.266500   36.611900   98.930400
  H    -30.109800   35.966300   97.418800
  H    -28.627100   36.877900   97.298500
  S    -35.392600   42.998900   96.186300
  C    -36.856500   42.882500   95.221400
  C    -37.060800   41.551700   94.836300
  C    -36.104800   40.635100   95.307400
  C    -35.155900   41.233200   96.173600
  H    -37.879100   41.319000   94.195300
  C    -36.122200   39.192300   94.886800
  H    -35.146900   38.874100   94.656200
  H    -36.558900   39.141200   93.880500
  C    -36.738600   38.170800   95.903200
  H    -37.793900   38.356500   96.166200
  H    -36.177600   38.120700   96.840300
  C    -36.545500   36.729300   95.272300
  H    -36.823300   35.982500   95.969300
  H    -35.592700   36.486900   94.962900
  H    -37.186100   36.448700   94.393500
  H    -31.887300   40.427900   99.813900
  H    -37.565500   43.605300   94.926100

 Total Charge           Charge          ....    0
 Multiplicity           Mult            ....    1
 Number of Electrons    NEL             ....  134
 Basis Dimension        Dim             ....  322

ORBITAL ENERGIES
----------------

  NO   OCC          E(Eh)            E(eV)
   0   2.0000     -88.968026     -2420.9431
   1   2.0000     -88.965654     -2420.8785
   2   2.0000     -10.332137      -281.1517
   3   2.0000     -10.331312      -281.1293
   4   2.0000     -10.316129      -280.7161
   5   2.0000     -10.309314      -280.5307
   6   2.0000     -10.303935      -280.3843
   7   2.0000     -10.298372      -280.2329
   8   2.0000     -10.298197      -280.2282
   9   2.0000     -10.295799      -280.1629
  10   2.0000     -10.294544      -280.1288
  11   2.0000     -10.292336      -280.0687
  12   2.0000     -10.290579      -280.0209
  13   2.0000     -10.289758      -279.9986
  14   2.0000     -10.285813      -279.8912
  15   2.0000     -10.275097      -279.5996
  16   2.0000      -8.081932      -219.9205
  17   2.0000      -8.080771      -219.8889
  18   2.0000      -6.040535      -164.3713
  19   2.0000      -6.039470      -164.3423
  20   2.0000      -6.036507      -164.2617
  21   2.0000      -6.035516      -164.2347
  22   2.0000      -6.032698      -164.1580
  23   2.0000      -6.031003      -164.1119
  24   2.0000      -1.010895       -27.5078
  25   2.0000      -0.983674       -26.7671
  26   2.0000      -0.909942       -24.7608
  27   2.0000      -0.904992       -24.6261
  28   2.0000      -0.868701       -23.6385
  29   2.0000      -0.852244       -23.1907
  30   2.0000      -0.843841       -22.9621
  31   2.0000      -0.814377       -22.1603
  32   2.0000      -0.781552       -21.2671
  33   2.0000      -0.771569       -20.9955
  34   2.0000      -0.715564       -19.4715
  35   2.0000      -0.702405       -19.1134
  36   2.0000      -0.698754       -19.0141
  37   2.0000      -0.665850       -18.1187
  38   2.0000      -0.631305       -17.1787
  39   2.0000      -0.619389       -16.8544
  40   2.0000      -0.596277       -16.2255
  41   2.0000      -0.566202       -15.4071
  42   2.0000      -0.561682       -15.2841
  43   2.0000      -0.554113       -15.0782
  44   2.0000      -0.528519       -14.3817
  45   2.0000      -0.519641       -14.1401
  46   2.0000      -0.516063       -14.0428
  47   2.0000      -0.512197       -13.9376
  48   2.0000      -0.504297       -13.7226
  49   2.0000      -0.498614       -13.5680
  50   2.0000      -0.491817       -13.3830
  51   2.0000      -0.484152       -13.1744
  52   2.0000      -0.470955       -12.8153
  53   2.0000      -0.463545       -12.6137
  54   2.0000      -0.460134       -12.5209
  55   2.0000      -0.452743       -12.3198
  56   2.0000      -0.447003       -12.1636
  57   2.0000      -0.438962       -11.9448
  58   2.0000      -0.432007       -11.7555
  59   2.0000      -0.426712       -11.6114
  60   2.0000      -0.426117       -11.5952
  61   2.0000      -0.419665       -11.4197
  62   2.0000      -0.409817       -11.1517
  63   2.0000      -0.360559        -9.8113
  64   2.0000      -0.337521        -9.1844
  65   2.0000      -0.326191        -8.8761
  66   2.0000      -0.278440        -7.5767
  67   0.0000       0.011647         0.3169
  68   0.0000       0.080552         2.1919
  69   0.0000       0.091570         2.4917
  70   0.0000       0.116256         3.1635
  71   0.0000       0.138962         3.7814

MULLIKEN ATOMIC CHARGES
-----------------------
   0 S :    0.089518
   1 C :   -0.104716
   2 C :   -0.107691
   3 C :   -0.024477
   4 C :   -0.081215
   5 H :    0.034322
   6 C :    0.033091
   7 H :    0.023315
   8 H :    0.034524
   9 C :   -0.064505
  10 H :    0.032176
  11 H :    0.029631
  12 C :   -0.051887
  13 H :    0.036604
  14 H :    0.037472
  15 H :    0.037312
  16 S :    0.090562
  17 C :   -0.062932
  18 C :   -0.043603
  19 C :   -0.022111
  20 C :   -0.137798
  21 H :    0.006787
  22 C :    0.054158
  23 H :    0.005625
  24 H :    0.020271
  25 C :   -0.059277
  26 H :    0.042596
  27 H :    0.040512
  28 C :   -0.041041
  29 H :    0.019903
  30 H :    0.007844
  31 H :    0.030035
  32 H :    0.053475
  33 H :    0.041518
Sum of atomic charges:    0.0000000

LOEWDIN ATOMIC CHARGES
----------------------
   0 S :    0.396142
   1 C :   -0.206085
   2 C :   -0.068293
   3 C :   -0.076321
   4 C :   -0.178802
   5 H :    0.038563
   6 C :   -0.036450
   7 H :    0.030174
   8 H :    0.031876
   9 C :   -0.037546
  10 H :    0.027602
  11 H :    0.022787
  12 C :   -0.071733
  13 H :    0.023510
  14 H :    0.031786
  15 H :    0.028220
  16 S :    0.392853
  17 C :   -0.182713
  18 C :   -0.066771
  19 C :   -0.059111
  20 C :   -0.179876
  21 H :    0.027088
  22 C :   -0.033616
  23 H :    0.020646
  24 H :    0.036142
  25 C :   -0.027275
  26 H :    0.029548
  27 H :    0.027095
  28 C :   -0.067546
  29 H :    0.020938
  30 H :    0.010531
  31 H :    0.030195
  32 H :    0.040798
  33 H :    0.025643

  Mayer bond orders larger than 0.100000
B(  0-S ,  1-C ) :   1.1093 B(  0-S ,  4-C ) :   1.1370 B(  1-C ,  2-C ) :   1.6617
B(  1-C , 32-H ) :   0.9556 B(  2-C ,  3-C ) :   1.2304 B(  2-C ,  6-C ) :   1.0185
B(  3-C ,  4-C ) :   1.5767 B(  3-C ,  5-H ) :   0.9716 B(  4-C , 20-C ) :   1.0956
B(  6-C ,  7-H ) :   0.9423 B(  6-C ,  8-H ) :   0.9413 B(  6-C ,  9-C ) :   1.0548
B(  9-C , 10-H ) :   0.9559 B(  9-C , 11-H ) :   0.9584 B(  9-C , 12-C ) :   1.0785
B( 12-C , 13-H ) :   0.9761 B( 12-C , 14-H ) :   0.9744 B( 12-C , 15-H ) :   0.9757
B( 16-S , 17-C ) :   1.1502 B( 16-S , 20-C ) :   1.1341 B( 17-C , 18-C ) :   1.5879
B( 17-C , 20-C ) :   0.1045 B( 17-C , 33-H ) :   0.9716 B( 18-C , 19-C ) :   1.2866
B( 18-C , 21-H ) :   0.9904 B( 19-C , 20-C ) :   1.5435 B( 19-C , 22-C ) :   1.0382
B( 22-C , 23-H ) :   0.9354 B( 22-C , 24-H ) :   0.9327 B( 22-C , 25-C ) :   1.0528
B( 25-C , 26-H ) :   0.9587 B( 25-C , 27-H ) :   0.9558 B( 25-C , 28-C ) :   1.0679
B( 28-C , 29-H ) :   0.9743 B( 28-C , 30-H ) :   0.9758 B( 28-C , 31-H ) :   0.9761

Dispersion correction           -0.013958974
FINAL SINGLE POINT ENERGY     -1339.866049746390

DIPOLE MOMENT
-------------
                                X             Y             Z
Electronic contribution:     -6.48120      31.30101       3.09824
Nuclear contribution   :      6.42640     -32.04053      -3.26797
                        -----------------------------------------
Total Dipole Moment    :     -0.05480      -0.73953      -0.16973
                        -----------------------------------------
Magnitude (a.u.)       :      0.76073
Magnitude (Debye)      :      1.93362

Rotational constants in cm-1:     0.018317     0.008737     0.006260
Rotational constants in MHz :   549.129343   261.918491   187.673847

                             ****ORCA TERMINATED NORMALLY****
TOTAL RUN TIME: 0 days 0 hours 0 minutes 28 seconds 199 msec
