                         Program Version 4.2.1 -  RELEASE  -
|  1> ! wB97X-D3 SP def2-SVP
|  2> %pal
|  3> nprocs 16
|  4> end
|  5>
|  6> * xyz 0 1
|  7> S 	 -43.8834 	 35.5745 	 81.7205
|  8> C 	 -44.1189 	 35.4478 	 79.9648
|  9> C 	 -43.1452 	 34.7049 	 79.3445
| 10> C 	 -42.1546 	 34.3337 	 80.2978
| 11> C 	 -42.3741 	 34.7438 	 81.58
| 12> H 	 -41.2272 	 33.7542 	 80.1136
| 13> C 	 -43.0085 	 34.5892 	 77.823
| 14> H 	 -42.1507 	 33.9663 	 77.5205
| 15> H 	 -42.7784 	 35.6209 	 77.5368
| 16> C 	 -44.2245 	 34.0403 	 77.0082
| 17> H 	 -44.3357 	 32.9885 	 77.3262
| 18> H 	 -45.2205 	 34.5473 	 77.338
| 19> C 	 -44.0161 	 34.1228 	 75.47
| 20> H 	 -43.181 	 33.4782 	 75.0984
| 21> H 	 -44.9688 	 33.8035 	 75.0278
| 22> H 	 -43.8555 	 35.1958 	 75.1554
| 23> S 	 -40.8357 	 35.8559 	 83.6954
| 24> C 	 -40.0948 	 34.6753 	 84.8181
| 25> C 	 -40.3769 	 33.3638 	 84.5187
| 26> C 	 -41.1305 	 33.2353 	 83.3418
| 27> C 	 -41.5781 	 34.452 	 82.7598
| 28> H 	 -39.9261 	 32.5665 	 85.1682
| 29> C 	 -41.4379 	 31.8918 	 82.8193
| 30> H 	 -40.771 	 31.1157 	 83.1936
| 31> H 	 -41.3662 	 31.7985 	 81.7137
| 32> C 	 -42.8524 	 31.4939 	 83.3085
| 33> H 	 -43.4755 	 32.2832 	 83.0428
| 34> H 	 -42.9356 	 31.425 	 84.4349
| 35> C 	 -43.2754 	 30.1547 	 82.669
| 36> H 	 -42.5182 	 29.3799 	 82.877
| 37> H 	 -43.5554 	 30.1969 	 81.5696
| 38> H 	 -44.2165 	 29.7992 	 83.1193
| 39> H 	 -44.8634 	 36.0134 	 79.3533
| 40> H 	 -39.4675 	 34.9555 	 85.6517
| 41> *
| 42>
| 43>                          ****END OF INPUT****

CARTESIAN COORDINATES (ANGSTROEM)
---------------------------------
  S    -43.883400   35.574500   81.720500
  C    -44.118900   35.447800   79.964800
  C    -43.145200   34.704900   79.344500
  C    -42.154600   34.333700   80.297800
  C    -42.374100   34.743800   81.580000
  H    -41.227200   33.754200   80.113600
  C    -43.008500   34.589200   77.823000
  H    -42.150700   33.966300   77.520500
  H    -42.778400   35.620900   77.536800
  C    -44.224500   34.040300   77.008200
  H    -44.335700   32.988500   77.326200
  H    -45.220500   34.547300   77.338000
  C    -44.016100   34.122800   75.470000
  H    -43.181000   33.478200   75.098400
  H    -44.968800   33.803500   75.027800
  H    -43.855500   35.195800   75.155400
  S    -40.835700   35.855900   83.695400
  C    -40.094800   34.675300   84.818100
  C    -40.376900   33.363800   84.518700
  C    -41.130500   33.235300   83.341800
  C    -41.578100   34.452000   82.759800
  H    -39.926100   32.566500   85.168200
  C    -41.437900   31.891800   82.819300
  H    -40.771000   31.115700   83.193600
  H    -41.366200   31.798500   81.713700
  C    -42.852400   31.493900   83.308500
  H    -43.475500   32.283200   83.042800
  H    -42.935600   31.425000   84.434900
  C    -43.275400   30.154700   82.669000
  H    -42.518200   29.379900   82.877000
  H    -43.555400   30.196900   81.569600
  H    -44.216500   29.799200   83.119300
  H    -44.863400   36.013400   79.353300
  H    -39.467500   34.955500   85.651700

 Total Charge           Charge          ....    0
 Multiplicity           Mult            ....    1
 Number of Electrons    NEL             ....  134
 Basis Dimension        Dim             ....  322

ORBITAL ENERGIES
----------------

  NO   OCC          E(Eh)            E(eV)
   0   2.0000     -88.966751     -2420.9084
   1   2.0000     -88.966016     -2420.8884
   2   2.0000     -10.332861      -281.1714
   3   2.0000     -10.324807      -280.9523
   4   2.0000     -10.321101      -280.8514
   5   2.0000     -10.315785      -280.7068
   6   2.0000     -10.306090      -280.4430
   7   2.0000     -10.302443      -280.3437
   8   2.0000     -10.301450      -280.3167
   9   2.0000     -10.299016      -280.2505
  10   2.0000     -10.296209      -280.1741
  11   2.0000     -10.293797      -280.1085
  12   2.0000     -10.292077      -280.0617
  13   2.0000     -10.288237      -279.9572
  14   2.0000     -10.282593      -279.8036
  15   2.0000     -10.281679      -279.7787
  16   2.0000      -8.081350      -219.9047
  17   2.0000      -8.078772      -219.8346
  18   2.0000      -6.039865      -164.3531
  19   2.0000      -6.037320      -164.2838
  20   2.0000      -6.035940      -164.2463
  21   2.0000      -6.033661      -164.1843
  22   2.0000      -6.032027      -164.1398
  23   2.0000      -6.029511      -164.0713
  24   2.0000      -1.003583       -27.3089
  25   2.0000      -0.978286       -26.6205
  26   2.0000      -0.907751       -24.7012
  27   2.0000      -0.906214       -24.6593
  28   2.0000      -0.866452       -23.5774
  29   2.0000      -0.846541       -23.0356
  30   2.0000      -0.843576       -22.9549
  31   2.0000      -0.811412       -22.0797
  32   2.0000      -0.781017       -21.2525
  33   2.0000      -0.764392       -20.8002
  34   2.0000      -0.705567       -19.1995
  35   2.0000      -0.697679       -18.9848
  36   2.0000      -0.690568       -18.7913
  37   2.0000      -0.657502       -17.8916
  38   2.0000      -0.637497       -17.3472
  39   2.0000      -0.613165       -16.6851
  40   2.0000      -0.596296       -16.2260
  41   2.0000      -0.572302       -15.5731
  42   2.0000      -0.561999       -15.2928
  43   2.0000      -0.553329       -15.0568
  44   2.0000      -0.520178       -14.1548
  45   2.0000      -0.518027       -14.0962
  46   2.0000      -0.514859       -14.0100
  47   2.0000      -0.504787       -13.7360
  48   2.0000      -0.502048       -13.6614
  49   2.0000      -0.494430       -13.4541
  50   2.0000      -0.490728       -13.3534
  51   2.0000      -0.481580       -13.1045
  52   2.0000      -0.471641       -12.8340
  53   2.0000      -0.458081       -12.4650
  54   2.0000      -0.457229       -12.4418
  55   2.0000      -0.447105       -12.1664
  56   2.0000      -0.443625       -12.0716
  57   2.0000      -0.433927       -11.8078
  58   2.0000      -0.428562       -11.6618
  59   2.0000      -0.427567       -11.6347
  60   2.0000      -0.421568       -11.4714
  61   2.0000      -0.418898       -11.3988
  62   2.0000      -0.416090       -11.3224
  63   2.0000      -0.338525        -9.2117
  64   2.0000      -0.332403        -9.0451
  65   2.0000      -0.328246        -8.9320
  66   2.0000      -0.294650        -8.0178
  67   0.0000       0.028371         0.7720
  68   0.0000       0.060931         1.6580
  69   0.0000       0.107012         2.9119
  70   0.0000       0.117349         3.1932
  71   0.0000       0.125455         3.4138

MULLIKEN ATOMIC CHARGES
-----------------------
   0 S :    0.121324
   1 C :   -0.146095
   2 C :   -0.053709
   3 C :    0.020381
   4 C :   -0.167224
   5 H :    0.020799
   6 C :    0.041272
   7 H :    0.025331
   8 H :    0.044009
   9 C :   -0.123926
  10 H :    0.037837
  11 H :    0.040996
  12 C :   -0.063572
  13 H :    0.048663
  14 H :    0.042408
  15 H :    0.041946
  16 S :    0.089226
  17 C :   -0.089027
  18 C :   -0.048981
  19 C :    0.000519
  20 C :   -0.169683
  21 H :    0.042413
  22 C :    0.051289
  23 H :    0.013314
  24 H :    0.031017
  25 C :   -0.069294
  26 H :    0.018359
  27 H :    0.035854
  28 C :   -0.059045
  29 H :    0.032479
  30 H :    0.046074
  31 H :    0.028955
  32 H :    0.061266
  33 H :    0.054826
Sum of atomic charges:   -0.0000000

LOEWDIN ATOMIC CHARGES
----------------------
   0 S :    0.407159
   1 C :   -0.196133
   2 C :   -0.066537
   3 C :   -0.065304
   4 C :   -0.209219
   5 H :    0.036393
   6 C :   -0.035513
   7 H :    0.031042
   8 H :    0.035037
   9 C :   -0.049390
  10 H :    0.026217
  11 H :    0.029425
  12 C :   -0.072631
  13 H :    0.031014
  14 H :    0.029976
  15 H :    0.030850
  16 S :    0.353966
  17 C :   -0.161695
  18 C :   -0.080379
  19 C :   -0.044730
  20 C :   -0.184013
  21 H :    0.046235
  22 C :   -0.035389
  23 H :    0.026999
  24 H :    0.032858
  25 C :   -0.032476
  26 H :    0.014000
  27 H :    0.031564
  28 C :   -0.075630
  29 H :    0.024517
  30 H :    0.033286
  31 H :    0.025650
  32 H :    0.035148
  33 H :    0.027702

  Mayer bond orders larger than 0.100000
B(  0-S ,  1-C ) :   1.1338 B(  0-S ,  4-C ) :   1.1432 B(  1-C ,  2-C ) :   1.6222
B(  1-C , 32-H ) :   0.9603 B(  2-C ,  3-C ) :   1.2305 B(  2-C ,  6-C ) :   1.0064
B(  3-C ,  4-C ) :   1.5991 B(  3-C ,  5-H ) :   0.9915 B(  4-C , 20-C ) :   1.0409
B(  6-C ,  7-H ) :   0.9477 B(  6-C ,  8-H ) :   0.9446 B(  6-C ,  9-C ) :   1.0488
B(  9-C , 10-H ) :   0.9563 B(  9-C , 11-H ) :   0.9582 B(  9-C , 12-C ) :   1.0737
B( 12-C , 13-H ) :   0.9737 B( 12-C , 14-H ) :   0.9741 B( 12-C , 15-H ) :   0.9755
B( 16-S , 17-C ) :   1.1545 B( 16-S , 20-C ) :   1.1095 B( 17-C , 18-C ) :   1.6238
B( 17-C , 20-C ) :   0.1099 B( 17-C , 33-H ) :   0.9627 B( 18-C , 19-C ) :   1.2430
B( 18-C , 21-H ) :   0.9797 B( 19-C , 20-C ) :   1.5780 B( 19-C , 22-C ) :   1.0614
B( 22-C , 23-H ) :   0.9293 B( 22-C , 24-H ) :   0.9365 B( 22-C , 25-C ) :   1.0509
B( 25-C , 26-H ) :   0.9586 B( 25-C , 27-H ) :   0.9546 B( 25-C , 28-C ) :   1.0799
B( 28-C , 29-H ) :   0.9727 B( 28-C , 30-H ) :   0.9739 B( 28-C , 31-H ) :   0.9731

Dispersion correction           -0.014078530
FINAL SINGLE POINT ENERGY     -1339.882224516419

DIPOLE MOMENT
-------------
                                X             Y             Z
Electronic contribution:      6.78584      19.77370      19.57461
Nuclear contribution   :     -6.65176     -20.29095     -19.95598
                        -----------------------------------------
Total Dipole Moment    :      0.13407      -0.51725      -0.38136
                        -----------------------------------------
Magnitude (a.u.)       :      0.65647
Magnitude (Debye)      :      1.66862

Rotational constants in cm-1:     0.020262     0.007622     0.006331
Rotational constants in MHz :   607.434966   228.505290   189.809161

                             ****ORCA TERMINATED NORMALLY****
TOTAL RUN TIME: 0 days 0 hours 0 minutes 29 seconds 922 msec
