                         Program Version 4.2.1 -  RELEASE  -
|  1> ! wB97X-D3 SP def2-SVP
|  2> %pal
|  3> nprocs 16
|  4> end
|  5>
|  6> * xyz 0 1
|  7> S 	 32.8649 	 -1.69863 	 68.8786
|  8> C 	 32.1949 	 -0.729237 	 67.5643
|  9> C 	 33.1129 	 0.250142 	 67.2945
| 10> C 	 34.2673 	 0.27656 	 68.1396
| 11> C 	 34.2744 	 -0.770446 	 69.0326
| 12> H 	 34.9978 	 1.06132 	 68.1816
| 13> C 	 32.8756 	 1.4667 	 66.4276
| 14> H 	 31.7607 	 1.51781 	 66.0602
| 15> H 	 33.525 	 1.43446 	 65.547
| 16> C 	 32.8261 	 2.80666 	 67.2989
| 17> H 	 32.2789 	 2.77014 	 68.2782
| 18> H 	 33.8011 	 2.88648 	 67.6189
| 19> C 	 32.6207 	 4.11251 	 66.437
| 20> H 	 32.9302 	 3.92434 	 65.4174
| 21> H 	 31.6521 	 4.6446 	 66.4448
| 22> H 	 33.3108 	 4.85048 	 66.8223
| 23> S 	 34.612 	 -1.62576 	 71.5907
| 24> C 	 36.2012 	 -1.77862 	 72.2124
| 25> C 	 37.1468 	 -1.47829 	 71.2972
| 26> C 	 36.6419 	 -1.23257 	 69.9704
| 27> C 	 35.2451 	 -1.21605 	 70.0051
| 28> H 	 38.1452 	 -1.52275 	 71.6195
| 29> C 	 37.5351 	 -0.714092 	 68.8784
| 30> H 	 38.5065 	 -0.69042 	 69.2631
| 31> H 	 37.2095 	 0.273746 	 68.6263
| 32> C 	 37.5233 	 -1.60899 	 67.6437
| 33> H 	 36.5483 	 -1.70909 	 67.1707
| 34> H 	 37.9313 	 -2.54104 	 67.9566
| 35> C 	 38.304 	 -1.17533 	 66.4363
| 36> H 	 38.4951 	 -1.93654 	 65.6891
| 37> H 	 39.2694 	 -0.686148 	 66.7588
| 38> H 	 37.786 	 -0.349953 	 66.0008
| 39> H 	 31.2119 	 -0.820263 	 67.0704
| 40> H 	 36.5088 	 -2.09311 	 73.1956
| 41> *
| 42>
| 43>                          ****END OF INPUT****

CARTESIAN COORDINATES (ANGSTROEM)
---------------------------------
  S     32.864900   -1.698630   68.878600
  C     32.194900   -0.729237   67.564300
  C     33.112900    0.250142   67.294500
  C     34.267300    0.276560   68.139600
  C     34.274400   -0.770446   69.032600
  H     34.997800    1.061320   68.181600
  C     32.875600    1.466700   66.427600
  H     31.760700    1.517810   66.060200
  H     33.525000    1.434460   65.547000
  C     32.826100    2.806660   67.298900
  H     32.278900    2.770140   68.278200
  H     33.801100    2.886480   67.618900
  C     32.620700    4.112510   66.437000
  H     32.930200    3.924340   65.417400
  H     31.652100    4.644600   66.444800
  H     33.310800    4.850480   66.822300
  S     34.612000   -1.625760   71.590700
  C     36.201200   -1.778620   72.212400
  C     37.146800   -1.478290   71.297200
  C     36.641900   -1.232570   69.970400
  C     35.245100   -1.216050   70.005100
  H     38.145200   -1.522750   71.619500
  C     37.535100   -0.714092   68.878400
  H     38.506500   -0.690420   69.263100
  H     37.209500    0.273746   68.626300
  C     37.523300   -1.608990   67.643700
  H     36.548300   -1.709090   67.170700
  H     37.931300   -2.541040   67.956600
  C     38.304000   -1.175330   66.436300
  H     38.495100   -1.936540   65.689100
  H     39.269400   -0.686148   66.758800
  H     37.786000   -0.349953   66.000800
  H     31.211900   -0.820263   67.070400
  H     36.508800   -2.093110   73.195600

 Total Charge           Charge          ....    0
 Multiplicity           Mult            ....    1
 Number of Electrons    NEL             ....  134
 Basis Dimension        Dim             ....  322

ORBITAL ENERGIES
----------------

  NO   OCC          E(Eh)            E(eV)
   0   2.0000     -88.967397     -2420.9259
   1   2.0000     -88.962498     -2420.7926
   2   2.0000     -10.326664      -281.0028
   3   2.0000     -10.325953      -280.9835
   4   2.0000     -10.314786      -280.6796
   5   2.0000     -10.309945      -280.5479
   6   2.0000     -10.305317      -280.4219
   7   2.0000     -10.302253      -280.3386
   8   2.0000     -10.298844      -280.2458
   9   2.0000     -10.291480      -280.0454
  10   2.0000     -10.290571      -280.0207
  11   2.0000     -10.287243      -279.9301
  12   2.0000     -10.286652      -279.9140
  13   2.0000     -10.281054      -279.7617
  14   2.0000     -10.274861      -279.5932
  15   2.0000     -10.272635      -279.5326
  16   2.0000      -8.082645      -219.9399
  17   2.0000      -8.078227      -219.8197
  18   2.0000      -6.041122      -164.3873
  19   2.0000      -6.037082      -164.2774
  20   2.0000      -6.036759      -164.2686
  21   2.0000      -6.033400      -164.1772
  22   2.0000      -6.032393      -164.1497
  23   2.0000      -6.029068      -164.0593
  24   2.0000      -1.015573       -27.6352
  25   2.0000      -0.990292       -26.9472
  26   2.0000      -0.917202       -24.9583
  27   2.0000      -0.906405       -24.6645
  28   2.0000      -0.871483       -23.7143
  29   2.0000      -0.857657       -23.3380
  30   2.0000      -0.842608       -22.9285
  31   2.0000      -0.819307       -22.2945
  32   2.0000      -0.785330       -21.3699
  33   2.0000      -0.771430       -20.9917
  34   2.0000      -0.713145       -19.4057
  35   2.0000      -0.700132       -19.0516
  36   2.0000      -0.689050       -18.7500
  37   2.0000      -0.664215       -18.0742
  38   2.0000      -0.639162       -17.3925
  39   2.0000      -0.625243       -17.0137
  40   2.0000      -0.597237       -16.2517
  41   2.0000      -0.579160       -15.7598
  42   2.0000      -0.565715       -15.3939
  43   2.0000      -0.553526       -15.0622
  44   2.0000      -0.529899       -14.4193
  45   2.0000      -0.524395       -14.2695
  46   2.0000      -0.516299       -14.0492
  47   2.0000      -0.512586       -13.9482
  48   2.0000      -0.509904       -13.8752
  49   2.0000      -0.503814       -13.7095
  50   2.0000      -0.501584       -13.6488
  51   2.0000      -0.487564       -13.2673
  52   2.0000      -0.471904       -12.8412
  53   2.0000      -0.465068       -12.6551
  54   2.0000      -0.457887       -12.4597
  55   2.0000      -0.453114       -12.3299
  56   2.0000      -0.447161       -12.1679
  57   2.0000      -0.443129       -12.0581
  58   2.0000      -0.432259       -11.7624
  59   2.0000      -0.423387       -11.5209
  60   2.0000      -0.415895       -11.3171
  61   2.0000      -0.411919       -11.2089
  62   2.0000      -0.392702       -10.6860
  63   2.0000      -0.351442        -9.5632
  64   2.0000      -0.332691        -9.0530
  65   2.0000      -0.329777        -8.9737
  66   2.0000      -0.293202        -7.9784
  67   0.0000       0.027468         0.7474
  68   0.0000       0.080046         2.1782
  69   0.0000       0.110264         3.0004
  70   0.0000       0.122352         3.3294
  71   0.0000       0.133279         3.6267

MULLIKEN ATOMIC CHARGES
-----------------------
   0 S :    0.098978
   1 C :   -0.123223
   2 C :   -0.060557
   3 C :   -0.003148
   4 C :   -0.122518
   5 H :    0.012448
   6 C :   -0.012586
   7 H :    0.038319
   8 H :    0.049242
   9 C :   -0.075297
  10 H :    0.053159
  11 H :    0.001589
  12 C :   -0.048138
  13 H :    0.027092
  14 H :    0.045941
  15 H :    0.024988
  16 S :    0.119149
  17 C :   -0.067954
  18 C :   -0.042387
  19 C :   -0.034288
  20 C :   -0.149205
  21 H :   -0.002068
  22 C :    0.138163
  23 H :   -0.002530
  24 H :    0.016416
  25 C :   -0.087110
  26 H :    0.043853
  27 H :    0.017944
  28 C :   -0.033832
  29 H :    0.045551
  30 H :    0.012498
  31 H :    0.012622
  32 H :    0.061545
  33 H :    0.045342
Sum of atomic charges:   -0.0000000

LOEWDIN ATOMIC CHARGES
----------------------
   0 S :    0.423200
   1 C :   -0.201935
   2 C :   -0.069687
   3 C :   -0.074489
   4 C :   -0.201464
   5 H :    0.026476
   6 C :   -0.039582
   7 H :    0.036538
   8 H :    0.031508
   9 C :   -0.039718
  10 H :    0.038574
  11 H :    0.006278
  12 C :   -0.069809
  13 H :    0.025281
  14 H :    0.028593
  15 H :    0.026814
  16 S :    0.420183
  17 C :   -0.193325
  18 C :   -0.069535
  19 C :   -0.044543
  20 C :   -0.198520
  21 H :    0.023217
  22 C :   -0.017784
  23 H :    0.024070
  24 H :    0.026063
  25 C :   -0.040316
  26 H :    0.030172
  27 H :    0.019586
  28 C :   -0.065433
  29 H :    0.028680
  30 H :    0.022122
  31 H :    0.017671
  32 H :    0.040661
  33 H :    0.030453

  Mayer bond orders larger than 0.100000
B(  0-S ,  1-C ) :   1.1204 B(  0-S ,  4-C ) :   1.1832 B(  1-C ,  2-C ) :   1.6181
B(  1-C , 32-H ) :   0.9682 B(  2-C ,  3-C ) :   1.2266 B(  2-C ,  6-C ) :   1.0248
B(  3-C ,  4-C ) :   1.5600 B(  3-C ,  5-H ) :   1.0018 B(  4-C , 20-C ) :   1.0268
B(  6-C ,  7-H ) :   0.9605 B(  6-C ,  8-H ) :   0.9387 B(  6-C ,  9-C ) :   1.0442
B(  9-C , 10-H ) :   0.9593 B(  9-C , 11-H ) :   0.9578 B(  9-C , 12-C ) :   1.0632
B( 12-C , 13-H ) :   0.9745 B( 12-C , 14-H ) :   0.9795 B( 12-C , 15-H ) :   0.9789
B( 16-S , 17-C ) :   1.1461 B( 16-S , 20-C ) :   1.1480 B( 17-C , 18-C ) :   1.6409
B( 17-C , 33-H ) :   0.9638 B( 18-C , 19-C ) :   1.2258 B( 18-C , 21-H ) :   0.9948
B( 19-C , 20-C ) :   1.5800 B( 19-C , 22-C ) :   1.0549 B( 22-C , 23-H ) :   0.9175
B( 22-C , 24-H ) :   0.9327 B( 22-C , 25-C ) :   1.0680 B( 25-C , 26-H ) :   0.9606
B( 25-C , 27-H ) :   0.9537 B( 25-C , 28-C ) :   1.0869 B( 28-C , 29-H ) :   0.9742
B( 28-C , 30-H ) :   0.9681 B( 28-C , 31-H ) :   0.9739

Dispersion correction           -0.014157336
FINAL SINGLE POINT ENERGY     -1339.856999122315

DIPOLE MOMENT
-------------
                                X             Y             Z
Electronic contribution:     -9.58208     -17.80006      20.41997
Nuclear contribution   :      9.99653      18.29166     -20.58223
                        -----------------------------------------
Total Dipole Moment    :      0.41445       0.49160      -0.16226
                        -----------------------------------------
Magnitude (a.u.)       :      0.66315
Magnitude (Debye)      :      1.68560

Rotational constants in cm-1:     0.017233     0.008918     0.007241
Rotational constants in MHz :   516.628456   267.346597   217.089687

                             ****ORCA TERMINATED NORMALLY****
TOTAL RUN TIME: 0 days 0 hours 0 minutes 29 seconds 371 msec
