                         Program Version 4.2.1 -  RELEASE  -
|  1> ! wB97X-D3 SP def2-SVP
|  2> %pal
|  3> nprocs 16
|  4> end
|  5>
|  6> * xyz 0 1
|  7> S 	 -3.28878 	 -11.8044 	 87.4762
|  8> C 	 -3.32069 	 -13.09 	 88.7376
|  9> C 	 -3.09502 	 -12.5629 	 90.0095
| 10> C 	 -2.73904 	 -11.1947 	 89.9565
| 11> C 	 -2.82163 	 -10.6388 	 88.6669
| 12> H 	 -2.54605 	 -10.5754 	 90.8192
| 13> C 	 -3.12618 	 -13.3102 	 91.3436
| 14> H 	 -3.54162 	 -14.3559 	 91.1275
| 15> H 	 -3.81897 	 -12.7851 	 92.0345
| 16> C 	 -1.7571 	 -13.5643 	 92.0162
| 17> H 	 -1.15577 	 -14.315 	 91.5348
| 18> H 	 -1.18579 	 -12.6158 	 91.977
| 19> C 	 -1.91152 	 -13.929 	 93.51
| 20> H 	 -2.33926 	 -14.9174 	 93.6996
| 21> H 	 -0.956284 	 -14.0163 	 93.9755
| 22> H 	 -2.54415 	 -13.1629 	 93.9905
| 23> S 	 -1.328 	 -8.76102 	 87.3432
| 24> C 	 -1.91235 	 -7.13334 	 87.1935
| 25> C 	 -3.20122 	 -7.01746 	 87.5941
| 26> C 	 -3.65085 	 -8.16468 	 88.2777
| 27> C 	 -2.71237 	 -9.21709 	 88.2823
| 28> H 	 -3.76101 	 -6.07138 	 87.3672
| 29> C 	 -5.04515 	 -8.22991 	 88.8944
| 30> H 	 -5.40861 	 -7.2677 	 88.9978
| 31> H 	 -4.86291 	 -8.55782 	 89.9301
| 32> C 	 -6.01939 	 -9.03776 	 88.1443
| 33> H 	 -5.6599 	 -10.0291 	 87.9384
| 34> H 	 -6.19316 	 -8.58349 	 87.1767
| 35> C 	 -7.39017 	 -9.2746 	 88.8212
| 36> H 	 -8.03806 	 -9.88641 	 88.2132
| 37> H 	 -7.98723 	 -8.32035 	 89.0746
| 38> H 	 -7.23566 	 -9.77882 	 89.7462
| 39> H 	 -3.39695 	 -14.2011 	 88.6099
| 40> H 	 -1.36926 	 -6.42136 	 86.6318
| 41> *
| 42>
| 43>                          ****END OF INPUT****

CARTESIAN COORDINATES (ANGSTROEM)
---------------------------------
  S     -3.288780  -11.804400   87.476200
  C     -3.320690  -13.090000   88.737600
  C     -3.095020  -12.562900   90.009500
  C     -2.739040  -11.194700   89.956500
  C     -2.821630  -10.638800   88.666900
  H     -2.546050  -10.575400   90.819200
  C     -3.126180  -13.310200   91.343600
  H     -3.541620  -14.355900   91.127500
  H     -3.818970  -12.785100   92.034500
  C     -1.757100  -13.564300   92.016200
  H     -1.155770  -14.315000   91.534800
  H     -1.185790  -12.615800   91.977000
  C     -1.911520  -13.929000   93.510000
  H     -2.339260  -14.917400   93.699600
  H     -0.956284  -14.016300   93.975500
  H     -2.544150  -13.162900   93.990500
  S     -1.328000   -8.761020   87.343200
  C     -1.912350   -7.133340   87.193500
  C     -3.201220   -7.017460   87.594100
  C     -3.650850   -8.164680   88.277700
  C     -2.712370   -9.217090   88.282300
  H     -3.761010   -6.071380   87.367200
  C     -5.045150   -8.229910   88.894400
  H     -5.408610   -7.267700   88.997800
  H     -4.862910   -8.557820   89.930100
  C     -6.019390   -9.037760   88.144300
  H     -5.659900  -10.029100   87.938400
  H     -6.193160   -8.583490   87.176700
  C     -7.390170   -9.274600   88.821200
  H     -8.038060   -9.886410   88.213200
  H     -7.987230   -8.320350   89.074600
  H     -7.235660   -9.778820   89.746200
  H     -3.396950  -14.201100   88.609900
  H     -1.369260   -6.421360   86.631800

 Total Charge           Charge          ....    0
 Multiplicity           Mult            ....    1
 Number of Electrons    NEL             ....  134
 Basis Dimension        Dim             ....  322

ORBITAL ENERGIES
----------------

  NO   OCC          E(Eh)            E(eV)
   0   2.0000     -88.972429     -2421.0629
   1   2.0000     -88.963202     -2420.8118
   2   2.0000     -10.332051      -281.1494
   3   2.0000     -10.324731      -280.9502
   4   2.0000     -10.322153      -280.8801
   5   2.0000     -10.310300      -280.5575
   6   2.0000     -10.303688      -280.3776
   7   2.0000     -10.303441      -280.3709
   8   2.0000     -10.303039      -280.3600
   9   2.0000     -10.294884      -280.1380
  10   2.0000     -10.293267      -280.0940
  11   2.0000     -10.289509      -279.9918
  12   2.0000     -10.279644      -279.7233
  13   2.0000     -10.278780      -279.6998
  14   2.0000     -10.275843      -279.6199
  15   2.0000     -10.274459      -279.5822
  16   2.0000      -8.085845      -220.0270
  17   2.0000      -8.078708      -219.8328
  18   2.0000      -6.044445      -164.4777
  19   2.0000      -6.040457      -164.3692
  20   2.0000      -6.036999      -164.2751
  21   2.0000      -6.036641      -164.2654
  22   2.0000      -6.033119      -164.1695
  23   2.0000      -6.029642      -164.0749
  24   2.0000      -1.007221       -27.4079
  25   2.0000      -0.983668       -26.7670
  26   2.0000      -0.912658       -24.8347
  27   2.0000      -0.909054       -24.7366
  28   2.0000      -0.868230       -23.6257
  29   2.0000      -0.847788       -23.0695
  30   2.0000      -0.845885       -23.0177
  31   2.0000      -0.811549       -22.0834
  32   2.0000      -0.782704       -21.2984
  33   2.0000      -0.770774       -20.9738
  34   2.0000      -0.705657       -19.2019
  35   2.0000      -0.697435       -18.9782
  36   2.0000      -0.691667       -18.8212
  37   2.0000      -0.660010       -17.9598
  38   2.0000      -0.635425       -17.2908
  39   2.0000      -0.619526       -16.8582
  40   2.0000      -0.597440       -16.2572
  41   2.0000      -0.572480       -15.5780
  42   2.0000      -0.566387       -15.4122
  43   2.0000      -0.557009       -15.1570
  44   2.0000      -0.526330       -14.3222
  45   2.0000      -0.521570       -14.1926
  46   2.0000      -0.514171       -13.9913
  47   2.0000      -0.507553       -13.8112
  48   2.0000      -0.502822       -13.6825
  49   2.0000      -0.496555       -13.5120
  50   2.0000      -0.494128       -13.4459
  51   2.0000      -0.478320       -13.0157
  52   2.0000      -0.469177       -12.7670
  53   2.0000      -0.461553       -12.5595
  54   2.0000      -0.458094       -12.4654
  55   2.0000      -0.451418       -12.2837
  56   2.0000      -0.446194       -12.1415
  57   2.0000      -0.443967       -12.0810
  58   2.0000      -0.436496       -11.8777
  59   2.0000      -0.426646       -11.6096
  60   2.0000      -0.416438       -11.3318
  61   2.0000      -0.412639       -11.2285
  62   2.0000      -0.411229       -11.1901
  63   2.0000      -0.338810        -9.2195
  64   2.0000      -0.332672        -9.0525
  65   2.0000      -0.320504        -8.7214
  66   2.0000      -0.306205        -8.3323
  67   0.0000       0.039552         1.0763
  68   0.0000       0.052345         1.4244
  69   0.0000       0.108981         2.9655
  70   0.0000       0.120131         3.2689
  71   0.0000       0.131130         3.5682

MULLIKEN ATOMIC CHARGES
-----------------------
   0 S :    0.127829
   1 C :   -0.137182
   2 C :   -0.080209
   3 C :    0.053049
   4 C :   -0.166313
   5 H :    0.011425
   6 C :    0.025590
   7 H :    0.029545
   8 H :    0.042357
   9 C :   -0.073946
  10 H :    0.031440
  11 H :    0.031926
  12 C :   -0.047167
  13 H :    0.028401
  14 H :    0.029059
  15 H :    0.033532
  16 S :    0.109393
  17 C :   -0.077792
  18 C :   -0.052095
  19 C :   -0.049461
  20 C :   -0.188455
  21 H :    0.040123
  22 C :    0.153848
  23 H :   -0.016174
  24 H :    0.019455
  25 C :   -0.054077
  26 H :    0.021985
  27 H :    0.017323
  28 C :   -0.051940
  29 H :    0.032049
  30 H :    0.030629
  31 H :    0.022959
  32 H :    0.060951
  33 H :    0.041943
Sum of atomic charges:    0.0000000

LOEWDIN ATOMIC CHARGES
----------------------
   0 S :    0.411260
   1 C :   -0.198393
   2 C :   -0.066728
   3 C :   -0.059519
   4 C :   -0.203176
   5 H :    0.030797
   6 C :   -0.035545
   7 H :    0.035761
   8 H :    0.034873
   9 C :   -0.039421
  10 H :    0.023073
  11 H :    0.025309
  12 C :   -0.065258
  13 H :    0.023967
  14 H :    0.023376
  15 H :    0.026242
  16 S :    0.424401
  17 C :   -0.179413
  18 C :   -0.080905
  19 C :   -0.046161
  20 C :   -0.219918
  21 H :    0.044311
  22 C :   -0.026874
  23 H :    0.017755
  24 H :    0.034461
  25 C :   -0.039829
  26 H :    0.017701
  27 H :    0.023389
  28 C :   -0.064285
  29 H :    0.024037
  30 H :    0.027867
  31 H :    0.018623
  32 H :    0.039116
  33 H :    0.019108

  Mayer bond orders larger than 0.100000
B(  0-S ,  1-C ) :   1.1280 B(  0-S ,  4-C ) :   1.1665 B(  1-C ,  2-C ) :   1.6209
B(  1-C ,  4-C ) :   0.1023 B(  1-C , 32-H ) :   0.9567 B(  2-C ,  3-C ) :   1.2439
B(  2-C ,  6-C ) :   1.0241 B(  3-C ,  4-C ) :   1.5779 B(  3-C ,  5-H ) :   0.9920
B(  4-C , 20-C ) :   1.0039 B(  6-C ,  7-H ) :   0.9411 B(  6-C ,  8-H ) :   0.9448
B(  6-C ,  9-C ) :   1.0555 B(  9-C , 10-H ) :   0.9564 B(  9-C , 11-H ) :   0.9597
B(  9-C , 12-C ) :   1.0807 B( 12-C , 13-H ) :   0.9753 B( 12-C , 14-H ) :   0.9732
B( 12-C , 15-H ) :   0.9763 B( 16-S , 17-C ) :   1.1770 B( 16-S , 20-C ) :   1.1647
B( 17-C , 18-C ) :   1.5867 B( 17-C , 20-C ) :   0.1042 B( 17-C , 33-H ) :   0.9710
B( 18-C , 19-C ) :   1.2765 B( 18-C , 21-H ) :   0.9841 B( 19-C , 20-C ) :   1.5640
B( 19-C , 22-C ) :   1.0322 B( 22-C , 23-H ) :   0.9184 B( 22-C , 24-H ) :   0.9269
B( 22-C , 25-C ) :   1.0788 B( 25-C , 26-H ) :   0.9521 B( 25-C , 27-H ) :   0.9471
B( 25-C , 28-C ) :   1.0863 B( 28-C , 29-H ) :   0.9746 B( 28-C , 30-H ) :   0.9743
B( 28-C , 31-H ) :   0.9748

Dispersion correction           -0.014322111
FINAL SINGLE POINT ENERGY     -1339.884086476493

DIPOLE MOMENT
-------------
                                X             Y             Z
Electronic contribution:     13.06434       7.41856     -20.33206
Nuclear contribution   :    -13.27830      -7.43403      20.69127
                        -----------------------------------------
Total Dipole Moment    :     -0.21397      -0.01548       0.35920
                        -----------------------------------------
Magnitude (a.u.)       :      0.41839
Magnitude (Debye)      :      1.06346

Rotational constants in cm-1:     0.018717     0.008033     0.006942
Rotational constants in MHz :   561.135584   240.828528   208.113093

                             ****ORCA TERMINATED NORMALLY****
TOTAL RUN TIME: 0 days 0 hours 0 minutes 34 seconds 31 msec
