                         Program Version 4.2.1 -  RELEASE  -
|  1> ! wB97X-D3 SP def2-SVP
|  2> %pal
|  3> nprocs 16
|  4> end
|  5>
|  6> * xyz 0 1
|  7> S 	 8.18547 	 20.489 	 57.2887
|  8> C 	 9.41845 	 21.6092 	 56.754
|  9> C 	 8.94736 	 22.9024 	 56.6233
| 10> C 	 7.55466 	 22.9458 	 56.9878
| 11> C 	 7.01873 	 21.7981 	 57.4902
| 12> H 	 6.83218 	 23.7707 	 57.0094
| 13> C 	 9.72606 	 24.0789 	 56.0993
| 14> H 	 9.80217 	 24.7214 	 56.9583
| 15> H 	 9.18344 	 24.427 	 55.2328
| 16> C 	 11.1892 	 23.7917 	 55.6673
| 17> H 	 11.7058 	 24.726 	 55.743
| 18> H 	 11.6815 	 23.1623 	 56.4595
| 19> C 	 11.3157 	 23.271 	 54.2283
| 20> H 	 11.1137 	 22.2117 	 54.189
| 21> H 	 10.6352 	 23.8368 	 53.6273
| 22> H 	 12.2693 	 23.4577 	 53.7322
| 23> S 	 4.38389 	 22.1795 	 57.0351
| 24> C 	 3.26271 	 21.5973 	 58.3338
| 25> C 	 3.83803 	 20.9506 	 59.431
| 26> C 	 5.28827 	 20.9774 	 59.2718
| 27> C 	 5.67494 	 21.6125 	 58.0709
| 28> H 	 3.13428 	 20.6626 	 60.1441
| 29> C 	 6.19166 	 20.5384 	 60.3846
| 30> H 	 5.81366 	 21.0294 	 61.3343
| 31> H 	 7.09199 	 21.032 	 60.2366
| 32> C 	 6.29806 	 18.9319 	 60.5227
| 33> H 	 6.41722 	 18.4309 	 59.5419
| 34> H 	 5.32182 	 18.5399 	 60.8414
| 35> C 	 7.30521 	 18.5408 	 61.6241
| 36> H 	 6.92638 	 17.8839 	 62.3476
| 37> H 	 7.79202 	 19.3559 	 62.1755
| 38> H 	 8.16066 	 18.0711 	 61.1279
| 39> H 	 10.4025 	 21.3258 	 56.4568
| 40> H 	 2.25149 	 21.7796 	 58.2505
| 41> *
| 42>
| 43>                          ****END OF INPUT****

CARTESIAN COORDINATES (ANGSTROEM)
---------------------------------
  S      8.185470   20.489000   57.288700
  C      9.418450   21.609200   56.754000
  C      8.947360   22.902400   56.623300
  C      7.554660   22.945800   56.987800
  C      7.018730   21.798100   57.490200
  H      6.832180   23.770700   57.009400
  C      9.726060   24.078900   56.099300
  H      9.802170   24.721400   56.958300
  H      9.183440   24.427000   55.232800
  C     11.189200   23.791700   55.667300
  H     11.705800   24.726000   55.743000
  H     11.681500   23.162300   56.459500
  C     11.315700   23.271000   54.228300
  H     11.113700   22.211700   54.189000
  H     10.635200   23.836800   53.627300
  H     12.269300   23.457700   53.732200
  S      4.383890   22.179500   57.035100
  C      3.262710   21.597300   58.333800
  C      3.838030   20.950600   59.431000
  C      5.288270   20.977400   59.271800
  C      5.674940   21.612500   58.070900
  H      3.134280   20.662600   60.144100
  C      6.191660   20.538400   60.384600
  H      5.813660   21.029400   61.334300
  H      7.091990   21.032000   60.236600
  C      6.298060   18.931900   60.522700
  H      6.417220   18.430900   59.541900
  H      5.321820   18.539900   60.841400
  C      7.305210   18.540800   61.624100
  H      6.926380   17.883900   62.347600
  H      7.792020   19.355900   62.175500
  H      8.160660   18.071100   61.127900
  H     10.402500   21.325800   56.456800
  H      2.251490   21.779600   58.250500

 Total Charge           Charge          ....    0
 Multiplicity           Mult            ....    1
 Number of Electrons    NEL             ....  134
 Basis Dimension        Dim             ....  322

ORBITAL ENERGIES
----------------

  NO   OCC          E(Eh)            E(eV)
   0   2.0000     -88.968812     -2420.9644
   1   2.0000     -88.961334     -2420.7610
   2   2.0000     -10.329131      -281.0699
   3   2.0000     -10.325013      -280.9579
   4   2.0000     -10.316256      -280.7196
   5   2.0000     -10.309853      -280.5454
   6   2.0000     -10.309103      -280.5250
   7   2.0000     -10.300770      -280.2982
   8   2.0000     -10.297684      -280.2142
   9   2.0000     -10.293420      -280.0982
  10   2.0000     -10.291692      -280.0512
  11   2.0000     -10.291347      -280.0418
  12   2.0000     -10.290386      -280.0156
  13   2.0000     -10.289769      -279.9989
  14   2.0000     -10.276923      -279.6493
  15   2.0000     -10.271354      -279.4978
  16   2.0000      -8.082599      -219.9387
  17   2.0000      -8.075703      -219.7510
  18   2.0000      -6.041016      -164.3844
  19   2.0000      -6.037554      -164.2902
  20   2.0000      -6.034285      -164.2012
  21   2.0000      -6.033208      -164.1719
  22   2.0000      -6.030294      -164.0926
  23   2.0000      -6.026385      -163.9863
  24   2.0000      -1.000522       -27.2256
  25   2.0000      -0.976217       -26.5642
  26   2.0000      -0.912862       -24.8402
  27   2.0000      -0.896892       -24.4057
  28   2.0000      -0.867094       -23.5948
  29   2.0000      -0.849712       -23.1218
  30   2.0000      -0.843617       -22.9560
  31   2.0000      -0.815537       -22.1919
  32   2.0000      -0.784294       -21.3417
  33   2.0000      -0.766297       -20.8520
  34   2.0000      -0.710093       -19.3226
  35   2.0000      -0.705372       -19.1941
  36   2.0000      -0.693336       -18.8666
  37   2.0000      -0.666077       -18.1249
  38   2.0000      -0.636766       -17.3273
  39   2.0000      -0.604990       -16.4626
  40   2.0000      -0.589936       -16.0530
  41   2.0000      -0.577950       -15.7268
  42   2.0000      -0.565097       -15.3771
  43   2.0000      -0.552712       -15.0401
  44   2.0000      -0.535395       -14.5688
  45   2.0000      -0.522474       -14.2172
  46   2.0000      -0.516296       -14.0491
  47   2.0000      -0.511113       -13.9081
  48   2.0000      -0.503067       -13.6891
  49   2.0000      -0.491135       -13.3645
  50   2.0000      -0.488316       -13.2878
  51   2.0000      -0.478574       -13.0227
  52   2.0000      -0.465949       -12.6791
  53   2.0000      -0.459618       -12.5069
  54   2.0000      -0.456785       -12.4298
  55   2.0000      -0.450585       -12.2610
  56   2.0000      -0.447494       -12.1769
  57   2.0000      -0.444475       -12.0948
  58   2.0000      -0.431891       -11.7524
  59   2.0000      -0.424024       -11.5383
  60   2.0000      -0.421552       -11.4710
  61   2.0000      -0.413342       -11.2476
  62   2.0000      -0.409124       -11.1328
  63   2.0000      -0.345121        -9.3912
  64   2.0000      -0.332283        -9.0419
  65   2.0000      -0.323367        -8.7993
  66   2.0000      -0.290018        -7.8918
  67   0.0000       0.032276         0.8783
  68   0.0000       0.075013         2.0412
  69   0.0000       0.098808         2.6887
  70   0.0000       0.111725         3.0402
  71   0.0000       0.127396         3.4666

MULLIKEN ATOMIC CHARGES
-----------------------
   0 S :    0.107745
   1 C :   -0.117425
   2 C :   -0.097740
   3 C :    0.000776
   4 C :   -0.149333
   5 H :    0.010570
   6 C :    0.094674
   7 H :    0.040691
   8 H :    0.040767
   9 C :   -0.109536
  10 H :    0.021121
  11 H :    0.033997
  12 C :   -0.018367
  13 H :    0.034688
  14 H :    0.017745
  15 H :    0.033569
  16 S :    0.101764
  17 C :   -0.077932
  18 C :   -0.001929
  19 C :   -0.034328
  20 C :   -0.157225
  21 H :    0.006799
  22 C :    0.063843
  23 H :    0.038338
  24 H :    0.012282
  25 C :   -0.084028
  26 H :    0.044563
  27 H :    0.023468
  28 C :   -0.029141
  29 H :    0.026284
  30 H :    0.030266
  31 H :    0.033586
  32 H :    0.035026
  33 H :    0.024423
Sum of atomic charges:    0.0000000

LOEWDIN ATOMIC CHARGES
----------------------
   0 S :    0.392502
   1 C :   -0.197133
   2 C :   -0.062991
   3 C :   -0.073903
   4 C :   -0.192249
   5 H :    0.028816
   6 C :   -0.024573
   7 H :    0.037588
   8 H :    0.034682
   9 C :   -0.045545
  10 H :    0.022779
  11 H :    0.027024
  12 C :   -0.062216
  13 H :    0.023672
  14 H :    0.022985
  15 H :    0.028315
  16 S :    0.383709
  17 C :   -0.146309
  18 C :   -0.052804
  19 C :   -0.049873
  20 C :   -0.198052
  21 H :    0.029196
  22 C :   -0.031223
  23 H :    0.040598
  24 H :    0.016438
  25 C :   -0.036210
  26 H :    0.028354
  27 H :    0.022837
  28 C :   -0.069489
  29 H :    0.018089
  30 H :    0.028997
  31 H :    0.031882
  32 H :    0.018965
  33 H :    0.005144

  Mayer bond orders larger than 0.100000
B(  0-S ,  1-C ) :   1.1299 B(  0-S ,  4-C ) :   1.1261 B(  1-C ,  2-C ) :   1.6352
B(  1-C , 32-H ) :   0.9584 B(  2-C ,  3-C ) :   1.2149 B(  2-C ,  6-C ) :   1.0003
B(  3-C ,  4-C ) :   1.6140 B(  3-C ,  5-H ) :   0.9900 B(  4-C , 20-C ) :   1.0273
B(  6-C ,  7-H ) :   0.9298 B(  6-C ,  8-H ) :   0.9414 B(  6-C ,  9-C ) :   1.0981
B(  9-C , 10-H ) :   0.9528 B(  9-C , 11-H ) :   0.9497 B(  9-C , 12-C ) :   1.0688
B( 12-C , 13-H ) :   0.9781 B( 12-C , 14-H ) :   0.9715 B( 12-C , 15-H ) :   0.9752
B( 16-S , 17-C ) :   1.1284 B( 16-S , 20-C ) :   1.1362 B( 17-C , 18-C ) :   1.6657
B( 17-C , 33-H ) :   0.9736 B( 18-C , 19-C ) :   1.1638 B( 18-C , 21-H ) :   1.0012
B( 19-C , 20-C ) :   1.6122 B( 19-C , 22-C ) :   1.0523 B( 22-C , 23-H ) :   0.9394
B( 22-C , 24-H ) :   0.9353 B( 22-C , 25-C ) :   1.0328 B( 25-C , 26-H ) :   0.9661
B( 25-C , 27-H ) :   0.9648 B( 25-C , 28-C ) :   1.0564 B( 28-C , 29-H ) :   0.9802
B( 28-C , 30-H ) :   0.9769 B( 28-C , 31-H ) :   0.9772

Dispersion correction           -0.014102436
FINAL SINGLE POINT ENERGY     -1339.859962758771

DIPOLE MOMENT
-------------
                                X             Y             Z
Electronic contribution:    -16.80721       0.34576      -5.08400
Nuclear contribution   :     16.93906      -0.09117       5.29809
                        -----------------------------------------
Total Dipole Moment    :      0.13185       0.25459       0.21410
                        -----------------------------------------
Magnitude (a.u.)       :      0.35782
Magnitude (Debye)      :      0.90951

Rotational constants in cm-1:     0.021308     0.007710     0.006077
Rotational constants in MHz :   638.795265   231.138537   182.182110

                             ****ORCA TERMINATED NORMALLY****
TOTAL RUN TIME: 0 days 0 hours 0 minutes 33 seconds 683 msec
