                         Program Version 4.2.1 -  RELEASE  -
|  1> ! wB97X-D3 SP def2-SVP
|  2> %pal
|  3> nprocs 16
|  4> end
|  5>
|  6> * xyz 0 1
|  7> S 	 46.1588 	 5.83693 	 84.3947
|  8> C 	 46.2846 	 7.25151 	 83.3342
|  9> C 	 47.1474 	 8.20769 	 83.8519
| 10> C 	 47.6195 	 7.83751 	 85.1768
| 11> C 	 47.1553 	 6.55746 	 85.5349
| 12> H 	 48.2784 	 8.36593 	 85.7657
| 13> C 	 47.5939 	 9.50798 	 83.1701
| 14> H 	 47.7138 	 9.32953 	 82.024
| 15> H 	 48.5465 	 9.69066 	 83.6646
| 16> C 	 46.7083 	 10.6885 	 83.3504
| 17> H 	 45.6845 	 10.5795 	 82.897
| 18> H 	 46.495 	 10.7734 	 84.4215
| 19> C 	 47.3685 	 12.0806 	 82.9222
| 20> H 	 48.0606 	 12.0596 	 82.1245
| 21> H 	 46.7033 	 12.8658 	 82.5825
| 22> H 	 48.0485 	 12.5183 	 83.5977
| 23> S 	 47.9882 	 4.12618 	 86.587
| 24> C 	 48.2019 	 3.98623 	 88.3367
| 25> C 	 48.1786 	 5.21616 	 88.8875
| 26> C 	 47.7468 	 6.23755 	 88.0415
| 27> C 	 47.517 	 5.81546 	 86.7378
| 28> H 	 48.6245 	 5.29279 	 89.8712
| 29> C 	 47.6488 	 7.68239 	 88.5255
| 30> H 	 47.024 	 7.74036 	 89.3646
| 31> H 	 47.0577 	 8.20741 	 87.8237
| 32> C 	 48.9353 	 8.53739 	 88.6555
| 33> H 	 49.5244 	 8.28499 	 87.7941
| 34> H 	 49.4952 	 8.06901 	 89.4918
| 35> C 	 48.8188 	 10.0554 	 88.9701
| 36> H 	 48.2747 	 10.6287 	 88.2104
| 37> H 	 49.8759 	 10.3716 	 88.9883
| 38> H 	 48.3891 	 10.2414 	 89.9708
| 39> H 	 46.0607 	 7.2696 	 82.2779
| 40> H 	 48.4721 	 3.14594 	 88.9288
| 41> *
| 42>
| 43>                          ****END OF INPUT****

CARTESIAN COORDINATES (ANGSTROEM)
---------------------------------
  S     46.158800    5.836930   84.394700
  C     46.284600    7.251510   83.334200
  C     47.147400    8.207690   83.851900
  C     47.619500    7.837510   85.176800
  C     47.155300    6.557460   85.534900
  H     48.278400    8.365930   85.765700
  C     47.593900    9.507980   83.170100
  H     47.713800    9.329530   82.024000
  H     48.546500    9.690660   83.664600
  C     46.708300   10.688500   83.350400
  H     45.684500   10.579500   82.897000
  H     46.495000   10.773400   84.421500
  C     47.368500   12.080600   82.922200
  H     48.060600   12.059600   82.124500
  H     46.703300   12.865800   82.582500
  H     48.048500   12.518300   83.597700
  S     47.988200    4.126180   86.587000
  C     48.201900    3.986230   88.336700
  C     48.178600    5.216160   88.887500
  C     47.746800    6.237550   88.041500
  C     47.517000    5.815460   86.737800
  H     48.624500    5.292790   89.871200
  C     47.648800    7.682390   88.525500
  H     47.024000    7.740360   89.364600
  H     47.057700    8.207410   87.823700
  C     48.935300    8.537390   88.655500
  H     49.524400    8.284990   87.794100
  H     49.495200    8.069010   89.491800
  C     48.818800   10.055400   88.970100
  H     48.274700   10.628700   88.210400
  H     49.875900   10.371600   88.988300
  H     48.389100   10.241400   89.970800
  H     46.060700    7.269600   82.277900
  H     48.472100    3.145940   88.928800

 Total Charge           Charge          ....    0
 Multiplicity           Mult            ....    1
 Number of Electrons    NEL             ....  134
 Basis Dimension        Dim             ....  322

ORBITAL ENERGIES
----------------

  NO   OCC          E(Eh)            E(eV)
   0   2.0000     -88.970916     -2421.0217
   1   2.0000     -88.966167     -2420.8925
   2   2.0000     -10.329670      -281.0846
   3   2.0000     -10.328441      -281.0512
   4   2.0000     -10.312938      -280.6293
   5   2.0000     -10.312451      -280.6160
   6   2.0000     -10.307114      -280.4708
   7   2.0000     -10.302086      -280.3340
   8   2.0000     -10.300244      -280.2839
   9   2.0000     -10.295696      -280.1601
  10   2.0000     -10.294447      -280.1261
  11   2.0000     -10.290904      -280.0297
  12   2.0000     -10.289558      -279.9931
  13   2.0000     -10.285763      -279.8898
  14   2.0000     -10.279646      -279.7234
  15   2.0000     -10.274470      -279.5825
  16   2.0000      -8.086362      -220.0411
  17   2.0000      -8.080469      -219.8807
  18   2.0000      -6.044799      -164.4873
  19   2.0000      -6.040665      -164.3749
  20   2.0000      -6.039057      -164.3311
  21   2.0000      -6.037250      -164.2819
  22   2.0000      -6.035154      -164.2249
  23   2.0000      -6.031040      -164.1129
  24   2.0000      -1.011994       -27.5378
  25   2.0000      -0.987368       -26.8676
  26   2.0000      -0.914307       -24.8796
  27   2.0000      -0.904966       -24.6254
  28   2.0000      -0.870714       -23.6933
  29   2.0000      -0.851942       -23.1825
  30   2.0000      -0.845746       -23.0139
  31   2.0000      -0.815958       -22.2034
  32   2.0000      -0.789823       -21.4922
  33   2.0000      -0.778137       -21.1742
  34   2.0000      -0.710005       -19.3202
  35   2.0000      -0.706560       -19.2265
  36   2.0000      -0.699801       -19.0426
  37   2.0000      -0.662141       -18.0178
  38   2.0000      -0.640305       -17.4236
  39   2.0000      -0.621270       -16.9056
  40   2.0000      -0.596613       -16.2347
  41   2.0000      -0.571818       -15.5600
  42   2.0000      -0.564606       -15.3637
  43   2.0000      -0.556644       -15.1471
  44   2.0000      -0.526229       -14.3194
  45   2.0000      -0.524688       -14.2775
  46   2.0000      -0.520793       -14.1715
  47   2.0000      -0.507203       -13.8017
  48   2.0000      -0.503458       -13.6998
  49   2.0000      -0.500138       -13.6095
  50   2.0000      -0.494323       -13.4512
  51   2.0000      -0.481781       -13.1099
  52   2.0000      -0.476086       -12.9550
  53   2.0000      -0.470432       -12.8011
  54   2.0000      -0.459777       -12.5112
  55   2.0000      -0.455403       -12.3921
  56   2.0000      -0.447520       -12.1776
  57   2.0000      -0.443408       -12.0657
  58   2.0000      -0.434674       -11.8281
  59   2.0000      -0.423629       -11.5275
  60   2.0000      -0.420658       -11.4467
  61   2.0000      -0.414573       -11.2811
  62   2.0000      -0.411474       -11.1968
  63   2.0000      -0.348369        -9.4796
  64   2.0000      -0.335501        -9.1295
  65   2.0000      -0.330509        -8.9936
  66   2.0000      -0.291700        -7.9376
  67   0.0000       0.022930         0.6240
  68   0.0000       0.077379         2.1056
  69   0.0000       0.104195         2.8353
  70   0.0000       0.120386         3.2759
  71   0.0000       0.123676         3.3654

MULLIKEN ATOMIC CHARGES
-----------------------
   0 S :    0.124905
   1 C :   -0.111296
   2 C :   -0.105318
   3 C :    0.062062
   4 C :   -0.145246
   5 H :   -0.039749
   6 C :    0.048154
   7 H :    0.046977
   8 H :    0.024881
   9 C :   -0.059922
  10 H :    0.041383
  11 H :    0.027847
  12 C :   -0.027940
  13 H :    0.001042
  14 H :    0.032372
  15 H :    0.014350
  16 S :    0.098488
  17 C :   -0.075486
  18 C :   -0.044503
  19 C :   -0.042139
  20 C :   -0.130234
  21 H :    0.021823
  22 C :    0.112212
  23 H :    0.005065
  24 H :   -0.009970
  25 C :   -0.092189
  26 H :    0.026700
  27 H :    0.020970
  28 C :   -0.043518
  29 H :    0.039981
  30 H :    0.043391
  31 H :    0.043498
  32 H :    0.048235
  33 H :    0.043175
Sum of atomic charges:    0.0000000

LOEWDIN ATOMIC CHARGES
----------------------
   0 S :    0.440698
   1 C :   -0.205686
   2 C :   -0.051567
   3 C :   -0.057108
   4 C :   -0.208256
   5 H :    0.013312
   6 C :   -0.037189
   7 H :    0.041429
   8 H :    0.032189
   9 C :   -0.042037
  10 H :    0.032064
  11 H :    0.025956
  12 C :   -0.075251
  13 H :    0.020078
  14 H :    0.029534
  15 H :    0.021586
  16 S :    0.390975
  17 C :   -0.173784
  18 C :   -0.072994
  19 C :   -0.058526
  20 C :   -0.191581
  21 H :    0.034964
  22 C :   -0.033333
  23 H :    0.021408
  24 H :    0.020421
  25 C :   -0.042183
  26 H :    0.018424
  27 H :    0.024405
  28 C :   -0.063702
  29 H :    0.024446
  30 H :    0.035270
  31 H :    0.030679
  32 H :    0.027740
  33 H :    0.027619

  Mayer bond orders larger than 0.100000
B(  0-S ,  1-C ) :   1.1259 B(  0-S ,  4-C ) :   1.1914 B(  1-C ,  2-C ) :   1.6226
B(  1-C , 32-H ) :   0.9626 B(  2-C ,  3-C ) :   1.2445 B(  2-C ,  6-C ) :   1.0171
B(  3-C ,  4-C ) :   1.5249 B(  3-C ,  5-H ) :   1.0058 B(  4-C , 20-C ) :   1.0369
B(  6-C ,  7-H ) :   0.9366 B(  6-C ,  8-H ) :   0.9378 B(  6-C ,  9-C ) :   1.0784
B(  9-C , 10-H ) :   0.9575 B(  9-C , 11-H ) :   0.9557 B(  9-C , 12-C ) :   1.0530
B( 12-C , 13-H ) :   0.9725 B( 12-C , 14-H ) :   0.9785 B( 12-C , 15-H ) :   0.9743
B( 16-S , 17-C ) :   1.1358 B( 16-S , 20-C ) :   1.1420 B( 17-C , 18-C ) :   1.6294
B( 17-C , 20-C ) :   0.1014 B( 17-C , 33-H ) :   0.9678 B( 18-C , 19-C ) :   1.2479
B( 18-C , 21-H ) :   0.9886 B( 19-C , 20-C ) :   1.5847 B( 19-C , 22-C ) :   1.0537
B( 22-C , 23-H ) :   0.9276 B( 22-C , 24-H ) :   0.9193 B( 22-C , 25-C ) :   1.0500
B( 25-C , 26-H ) :   0.9534 B( 25-C , 27-H ) :   0.9528 B( 25-C , 28-C ) :   1.0762
B( 28-C , 29-H ) :   0.9765 B( 28-C , 30-H ) :   0.9731 B( 28-C , 31-H ) :   0.9743

Dispersion correction           -0.014040770
FINAL SINGLE POINT ENERGY     -1339.860209533230

DIPOLE MOMENT
-------------
                                X             Y             Z
Electronic contribution:     -6.26755     -33.11880      -2.37853
Nuclear contribution   :      6.68827      33.72645       2.58265
                        -----------------------------------------
Total Dipole Moment    :      0.42071       0.60765       0.20412
                        -----------------------------------------
Magnitude (a.u.)       :      0.76675
Magnitude (Debye)      :      1.94892

Rotational constants in cm-1:     0.017903     0.008989     0.006252
Rotational constants in MHz :   536.716079   269.486777   187.440483

                             ****ORCA TERMINATED NORMALLY****
TOTAL RUN TIME: 0 days 0 hours 0 minutes 30 seconds 167 msec
