                         Program Version 4.2.1 -  RELEASE  -
|  1> ! wB97X-D3 SP def2-SVP
|  2> %pal
|  3> nprocs 16
|  4> end
|  5>
|  6> * xyz 0 1
|  7> S 	 46.5998 	 21.3776 	 87.6362
|  8> C 	 46.4559 	 22.5995 	 88.8882
|  9> C 	 47.4634 	 23.5123 	 88.7259
| 10> C 	 48.536 	 23.083 	 87.8807
| 11> C 	 48.2458 	 21.9324 	 87.2434
| 12> H 	 49.4072 	 23.6709 	 87.7689
| 13> C 	 47.5484 	 24.7906 	 89.564
| 14> H 	 46.9423 	 25.5784 	 89.104
| 15> H 	 48.5815 	 25.0834 	 89.4466
| 16> C 	 47.213 	 24.675 	 91.0049
| 17> H 	 47.1291 	 25.7431 	 91.345
| 18> H 	 46.2843 	 24.2539 	 91.2477
| 19> C 	 48.2864 	 24.0185 	 91.9115
| 20> H 	 48.2387 	 22.9711 	 91.7717
| 21> H 	 49.2983 	 24.4005 	 91.7441
| 22> H 	 48.0243 	 24.1975 	 92.9329
| 23> S 	 48.6581 	 20.5139 	 84.8289
| 24> C 	 50.1394 	 19.7125 	 84.6267
| 25> C 	 51.0095 	 19.8663 	 85.6612
| 26> C 	 50.4478 	 20.6866 	 86.6654
| 27> C 	 49.1258 	 21.0931 	 86.3837
| 28> H 	 51.9747 	 19.4821 	 85.5358
| 29> C 	 51.177 	 21.0818 	 87.855
| 30> H 	 51.5097 	 20.1547 	 88.3005
| 31> H 	 50.4568 	 21.5232 	 88.505
| 32> C 	 52.2201 	 22.141 	 87.5702
| 33> H 	 51.6738 	 23.0592 	 87.244
| 34> H 	 52.8741 	 21.9268 	 86.7605
| 35> C 	 52.9532 	 22.6196 	 88.9058
| 36> H 	 53.6037 	 23.418 	 88.7958
| 37> H 	 53.4625 	 21.7107 	 89.2471
| 38> H 	 52.2536 	 22.9743 	 89.7077
| 39> H 	 45.6192 	 22.7654 	 89.4953
| 40> H 	 50.5199 	 19.1947 	 83.7283
| 41> *
| 42>
| 43>                          ****END OF INPUT****

CARTESIAN COORDINATES (ANGSTROEM)
---------------------------------
  S     46.599800   21.377600   87.636200
  C     46.455900   22.599500   88.888200
  C     47.463400   23.512300   88.725900
  C     48.536000   23.083000   87.880700
  C     48.245800   21.932400   87.243400
  H     49.407200   23.670900   87.768900
  C     47.548400   24.790600   89.564000
  H     46.942300   25.578400   89.104000
  H     48.581500   25.083400   89.446600
  C     47.213000   24.675000   91.004900
  H     47.129100   25.743100   91.345000
  H     46.284300   24.253900   91.247700
  C     48.286400   24.018500   91.911500
  H     48.238700   22.971100   91.771700
  H     49.298300   24.400500   91.744100
  H     48.024300   24.197500   92.932900
  S     48.658100   20.513900   84.828900
  C     50.139400   19.712500   84.626700
  C     51.009500   19.866300   85.661200
  C     50.447800   20.686600   86.665400
  C     49.125800   21.093100   86.383700
  H     51.974700   19.482100   85.535800
  C     51.177000   21.081800   87.855000
  H     51.509700   20.154700   88.300500
  H     50.456800   21.523200   88.505000
  C     52.220100   22.141000   87.570200
  H     51.673800   23.059200   87.244000
  H     52.874100   21.926800   86.760500
  C     52.953200   22.619600   88.905800
  H     53.603700   23.418000   88.795800
  H     53.462500   21.710700   89.247100
  H     52.253600   22.974300   89.707700
  H     45.619200   22.765400   89.495300
  H     50.519900   19.194700   83.728300

 Total Charge           Charge          ....    0
 Multiplicity           Mult            ....    1
 Number of Electrons    NEL             ....  134
 Basis Dimension        Dim             ....  322

ORBITAL ENERGIES
----------------

  NO   OCC          E(Eh)            E(eV)
   0   2.0000     -88.967226     -2420.9213
   1   2.0000     -88.962287     -2420.7869
   2   2.0000     -10.332627      -281.1651
   3   2.0000     -10.323867      -280.9267
   4   2.0000     -10.310798      -280.5711
   5   2.0000     -10.307982      -280.4945
   6   2.0000     -10.296260      -280.1755
   7   2.0000     -10.296126      -280.1718
   8   2.0000     -10.290947      -280.0309
   9   2.0000     -10.289592      -279.9940
  10   2.0000     -10.288262      -279.9578
  11   2.0000     -10.284302      -279.8501
  12   2.0000     -10.283282      -279.8223
  13   2.0000     -10.279535      -279.7204
  14   2.0000     -10.276783      -279.6455
  15   2.0000     -10.272412      -279.5265
  16   2.0000      -8.083092      -219.9521
  17   2.0000      -8.076772      -219.7801
  18   2.0000      -6.041442      -164.3960
  19   2.0000      -6.037363      -164.2850
  20   2.0000      -6.035391      -164.2313
  21   2.0000      -6.034045      -164.1947
  22   2.0000      -6.031438      -164.1238
  23   2.0000      -6.027306      -164.0113
  24   2.0000      -1.011597       -27.5269
  25   2.0000      -0.990489       -26.9526
  26   2.0000      -0.916968       -24.9520
  27   2.0000      -0.915312       -24.9069
  28   2.0000      -0.868751       -23.6399
  29   2.0000      -0.851499       -23.1705
  30   2.0000      -0.846806       -23.0428
  31   2.0000      -0.821122       -22.3439
  32   2.0000      -0.786457       -21.4006
  33   2.0000      -0.771149       -20.9840
  34   2.0000      -0.710785       -19.3414
  35   2.0000      -0.707471       -19.2513
  36   2.0000      -0.695525       -18.9262
  37   2.0000      -0.660587       -17.9755
  38   2.0000      -0.641885       -17.4666
  39   2.0000      -0.622941       -16.9511
  40   2.0000      -0.596504       -16.2317
  41   2.0000      -0.580624       -15.7996
  42   2.0000      -0.564887       -15.3714
  43   2.0000      -0.557157       -15.1610
  44   2.0000      -0.540103       -14.6969
  45   2.0000      -0.527160       -14.3448
  46   2.0000      -0.520338       -14.1591
  47   2.0000      -0.518341       -14.1048
  48   2.0000      -0.504435       -13.7264
  49   2.0000      -0.501332       -13.6419
  50   2.0000      -0.489524       -13.3206
  51   2.0000      -0.477418       -12.9912
  52   2.0000      -0.474952       -12.9241
  53   2.0000      -0.468079       -12.7371
  54   2.0000      -0.464594       -12.6422
  55   2.0000      -0.451519       -12.2864
  56   2.0000      -0.448275       -12.1982
  57   2.0000      -0.441689       -12.0190
  58   2.0000      -0.432893       -11.7796
  59   2.0000      -0.430213       -11.7067
  60   2.0000      -0.427220       -11.6252
  61   2.0000      -0.407454       -11.0874
  62   2.0000      -0.405332       -11.0296
  63   2.0000      -0.349566        -9.5122
  64   2.0000      -0.332595        -9.0504
  65   2.0000      -0.328410        -8.9365
  66   2.0000      -0.291587        -7.9345
  67   0.0000       0.035819         0.9747
  68   0.0000       0.069023         1.8782
  69   0.0000       0.114116         3.1053
  70   0.0000       0.123901         3.3715
  71   0.0000       0.132068         3.5938

MULLIKEN ATOMIC CHARGES
-----------------------
   0 S :    0.099960
   1 C :   -0.106167
   2 C :   -0.117653
   3 C :    0.030729
   4 C :   -0.119010
   5 H :   -0.004663
   6 C :    0.111870
   7 H :    0.041603
   8 H :    0.000324
   9 C :   -0.092477
  10 H :    0.025079
  11 H :    0.014722
  12 C :   -0.025936
  13 H :    0.031800
  14 H :    0.028639
  15 H :    0.025842
  16 S :    0.131764
  17 C :   -0.094170
  18 C :   -0.022806
  19 C :   -0.057768
  20 C :   -0.151029
  21 H :   -0.004182
  22 C :    0.111599
  23 H :    0.026039
  24 H :    0.010033
  25 C :   -0.084332
  26 H :    0.021481
  27 H :    0.025133
  28 C :   -0.034236
  29 H :    0.023913
  30 H :    0.033260
  31 H :    0.033506
  32 H :    0.028673
  33 H :    0.058461
Sum of atomic charges:    0.0000000

LOEWDIN ATOMIC CHARGES
----------------------
   0 S :    0.383793
   1 C :   -0.187089
   2 C :   -0.061458
   3 C :   -0.063826
   4 C :   -0.167738
   5 H :    0.026183
   6 C :   -0.031758
   7 H :    0.036575
   8 H :    0.025418
   9 C :   -0.040083
  10 H :    0.030350
  11 H :    0.014404
  12 C :   -0.055968
  13 H :    0.020938
  14 H :    0.024107
  15 H :    0.024201
  16 S :    0.440364
  17 C :   -0.202166
  18 C :   -0.071709
  19 C :   -0.047324
  20 C :   -0.220224
  21 H :    0.025532
  22 C :   -0.035435
  23 H :    0.031395
  24 H :    0.028395
  25 C :   -0.030415
  26 H :    0.024798
  27 H :    0.017181
  28 C :   -0.062807
  29 H :    0.013061
  30 H :    0.025966
  31 H :    0.030689
  32 H :    0.017493
  33 H :    0.037157

  Mayer bond orders larger than 0.100000
B(  0-S ,  1-C ) :   1.1215 B(  0-S ,  4-C ) :   1.1443 B(  1-C ,  2-C ) :   1.6349
B(  1-C , 32-H ) :   0.9762 B(  2-C ,  3-C ) :   1.2212 B(  2-C ,  6-C ) :   1.0083
B(  3-C ,  4-C ) :   1.5867 B(  3-C ,  5-H ) :   1.0033 B(  4-C , 20-C ) :   1.0162
B(  6-C ,  7-H ) :   0.9277 B(  6-C ,  8-H ) :   0.9398 B(  6-C ,  9-C ) :   1.0925
B(  9-C , 10-H ) :   0.9507 B(  9-C , 11-H ) :   0.9531 B(  9-C , 12-C ) :   1.0801
B( 12-C , 13-H ) :   0.9766 B( 12-C , 14-H ) :   0.9752 B( 12-C , 15-H ) :   0.9743
B( 16-S , 17-C ) :   1.1777 B( 16-S , 20-C ) :   1.1492 B( 17-C , 18-C ) :   1.6024
B( 17-C , 33-H ) :   0.9571 B( 18-C , 19-C ) :   1.2490 B( 18-C , 21-H ) :   1.0041
B( 19-C , 20-C ) :   1.5619 B( 19-C , 22-C ) :   1.0647 B( 22-C , 23-H ) :   0.9233
B( 22-C , 24-H ) :   0.9177 B( 22-C , 25-C ) :   1.0566 B( 25-C , 26-H ) :   0.9501
B( 25-C , 27-H ) :   0.9623 B( 25-C , 28-C ) :   1.0698 B( 28-C , 29-H ) :   0.9781
B( 28-C , 30-H ) :   0.9780 B( 28-C , 31-H ) :   0.9751

Dispersion correction           -0.014771643
FINAL SINGLE POINT ENERGY     -1339.872354751606

DIPOLE MOMENT
-------------
                                X             Y             Z
Electronic contribution:    -15.42942     -15.13315     -22.92944
Nuclear contribution   :     15.89501      15.54765      23.26340
                        -----------------------------------------
Total Dipole Moment    :      0.46559       0.41450       0.33396
                        -----------------------------------------
Magnitude (a.u.)       :      0.70719
Magnitude (Debye)      :      1.79753

Rotational constants in cm-1:     0.018941     0.009505     0.006768
Rotational constants in MHz :   567.823412   284.952998   202.901277

                             ****ORCA TERMINATED NORMALLY****
TOTAL RUN TIME: 0 days 0 hours 0 minutes 31 seconds 462 msec
