                         Program Version 4.2.1 -  RELEASE  -
|  1> ! wB97X-D3 SP def2-SVP
|  2> %pal
|  3> nprocs 16
|  4> end
|  5>
|  6> * xyz 0 1
|  7> S 	 -36.2908 	 48.418 	 105.165
|  8> C 	 -36.0327 	 48.5019 	 106.909
|  9> C 	 -37.2483 	 48.4586 	 107.642
| 10> C 	 -38.3653 	 48.5561 	 106.739
| 11> C 	 -38.034 	 48.6339 	 105.396
| 12> H 	 -39.3606 	 48.6563 	 107.094
| 13> C 	 -37.3754 	 48.5215 	 109.123
| 14> H 	 -36.4678 	 48.2304 	 109.593
| 15> H 	 -38.157 	 47.8621 	 109.245
| 16> C 	 -37.7904 	 49.9321 	 109.599
| 17> H 	 -38.7467 	 50.243 	 109.274
| 18> H 	 -37.9183 	 49.9775 	 110.678
| 19> C 	 -36.7801 	 51.0629 	 109.415
| 20> H 	 -35.9198 	 50.9249 	 110.148
| 21> H 	 -36.491 	 51.2646 	 108.408
| 22> H 	 -37.3398 	 51.9382 	 109.668
| 23> S 	 -38.4834 	 49.8909 	 102.997
| 24> C 	 -40.0677 	 49.9817 	 102.268
| 25> C 	 -40.8836 	 49.1065 	 102.914
| 26> C 	 -40.2956 	 48.5019 	 104.065
| 27> C 	 -38.9878 	 48.8924 	 104.284
| 28> H 	 -41.6995 	 48.7461 	 102.403
| 29> C 	 -41.0914 	 47.5783 	 104.918
| 30> H 	 -40.5057 	 46.8415 	 105.467
| 31> H 	 -41.7182 	 46.7574 	 104.409
| 32> C 	 -42.0538 	 48.3281 	 105.932
| 33> H 	 -42.8663 	 48.6946 	 105.28
| 34> H 	 -41.6164 	 49.2072 	 106.296
| 35> C 	 -42.6832 	 47.4168 	 107.022
| 36> H 	 -43.474 	 47.9731 	 107.507
| 37> H 	 -41.9364 	 47.3105 	 107.778
| 38> H 	 -43.0476 	 46.5019 	 106.63
| 39> H 	 -35.1299 	 48.3281 	 107.416
| 40> H 	 -40.3321 	 50.4847 	 101.328
| 41> *
| 42>
| 43>                          ****END OF INPUT****

CARTESIAN COORDINATES (ANGSTROEM)
---------------------------------
  S    -36.290800   48.418000  105.165000
  C    -36.032700   48.501900  106.909000
  C    -37.248300   48.458600  107.642000
  C    -38.365300   48.556100  106.739000
  C    -38.034000   48.633900  105.396000
  H    -39.360600   48.656300  107.094000
  C    -37.375400   48.521500  109.123000
  H    -36.467800   48.230400  109.593000
  H    -38.157000   47.862100  109.245000
  C    -37.790400   49.932100  109.599000
  H    -38.746700   50.243000  109.274000
  H    -37.918300   49.977500  110.678000
  C    -36.780100   51.062900  109.415000
  H    -35.919800   50.924900  110.148000
  H    -36.491000   51.264600  108.408000
  H    -37.339800   51.938200  109.668000
  S    -38.483400   49.890900  102.997000
  C    -40.067700   49.981700  102.268000
  C    -40.883600   49.106500  102.914000
  C    -40.295600   48.501900  104.065000
  C    -38.987800   48.892400  104.284000
  H    -41.699500   48.746100  102.403000
  C    -41.091400   47.578300  104.918000
  H    -40.505700   46.841500  105.467000
  H    -41.718200   46.757400  104.409000
  C    -42.053800   48.328100  105.932000
  H    -42.866300   48.694600  105.280000
  H    -41.616400   49.207200  106.296000
  C    -42.683200   47.416800  107.022000
  H    -43.474000   47.973100  107.507000
  H    -41.936400   47.310500  107.778000
  H    -43.047600   46.501900  106.630000
  H    -35.129900   48.328100  107.416000
  H    -40.332100   50.484700  101.328000

 Total Charge           Charge          ....    0
 Multiplicity           Mult            ....    1
 Number of Electrons    NEL             ....  134
 Basis Dimension        Dim             ....  322

ORBITAL ENERGIES
----------------

  NO   OCC          E(Eh)            E(eV)
   0   2.0000     -88.970310     -2421.0052
   1   2.0000     -88.963296     -2420.8144
   2   2.0000     -10.336786      -281.2782
   3   2.0000     -10.328188      -281.0443
   4   2.0000     -10.316661      -280.7306
   5   2.0000     -10.312895      -280.6281
   6   2.0000     -10.302660      -280.3496
   7   2.0000     -10.301103      -280.3073
   8   2.0000     -10.294350      -280.1235
   9   2.0000     -10.293995      -280.1139
  10   2.0000     -10.286575      -279.9119
  11   2.0000     -10.285267      -279.8763
  12   2.0000     -10.284700      -279.8609
  13   2.0000     -10.283197      -279.8200
  14   2.0000     -10.276256      -279.6311
  15   2.0000     -10.274205      -279.5753
  16   2.0000      -8.084030      -219.9777
  17   2.0000      -8.079090      -219.8432
  18   2.0000      -6.042680      -164.4297
  19   2.0000      -6.038762      -164.3231
  20   2.0000      -6.037565      -164.2905
  21   2.0000      -6.034630      -164.2106
  22   2.0000      -6.033403      -164.1772
  23   2.0000      -6.029835      -164.0801
  24   2.0000      -1.010515       -27.4975
  25   2.0000      -0.983695       -26.7677
  26   2.0000      -0.917186       -24.9579
  27   2.0000      -0.903516       -24.5859
  28   2.0000      -0.869587       -23.6627
  29   2.0000      -0.852812       -23.2062
  30   2.0000      -0.848637       -23.0926
  31   2.0000      -0.820273       -22.3208
  32   2.0000      -0.784923       -21.3588
  33   2.0000      -0.772565       -21.0226
  34   2.0000      -0.708435       -19.2775
  35   2.0000      -0.701252       -19.0820
  36   2.0000      -0.696869       -18.9628
  37   2.0000      -0.665707       -18.1148
  38   2.0000      -0.637197       -17.3390
  39   2.0000      -0.628587       -17.1047
  40   2.0000      -0.602754       -16.4018
  41   2.0000      -0.570643       -15.5280
  42   2.0000      -0.562116       -15.2960
  43   2.0000      -0.557523       -15.1710
  44   2.0000      -0.547328       -14.8936
  45   2.0000      -0.527956       -14.3664
  46   2.0000      -0.521873       -14.2009
  47   2.0000      -0.513855       -13.9827
  48   2.0000      -0.510899       -13.9023
  49   2.0000      -0.497379       -13.5344
  50   2.0000      -0.490810       -13.3556
  51   2.0000      -0.474700       -12.9173
  52   2.0000      -0.468634       -12.7522
  53   2.0000      -0.464162       -12.6305
  54   2.0000      -0.460435       -12.5291
  55   2.0000      -0.453079       -12.3289
  56   2.0000      -0.445478       -12.1221
  57   2.0000      -0.437685       -11.9100
  58   2.0000      -0.433766       -11.8034
  59   2.0000      -0.433139       -11.7863
  60   2.0000      -0.423017       -11.5109
  61   2.0000      -0.413891       -11.2625
  62   2.0000      -0.403203       -10.9717
  63   2.0000      -0.355558        -9.6752
  64   2.0000      -0.331292        -9.0149
  65   2.0000      -0.324915        -8.8414
  66   2.0000      -0.288492        -7.8503
  67   0.0000       0.025761         0.7010
  68   0.0000       0.075560         2.0561
  69   0.0000       0.104485         2.8432
  70   0.0000       0.119063         3.2399
  71   0.0000       0.128032         3.4839

MULLIKEN ATOMIC CHARGES
-----------------------
   0 S :    0.112974
   1 C :   -0.094287
   2 C :   -0.138328
   3 C :    0.023106
   4 C :   -0.107839
   5 H :   -0.016810
   6 C :    0.175442
   7 H :    0.009796
   8 H :    0.009010
   9 C :   -0.082638
  10 H :    0.010445
  11 H :    0.020437
  12 C :   -0.045438
  13 H :    0.040445
  14 H :    0.037850
  15 H :    0.020428
  16 S :    0.100567
  17 C :   -0.101695
  18 C :    0.008364
  19 C :   -0.032057
  20 C :   -0.127377
  21 H :   -0.000582
  22 C :   -0.000401
  23 H :    0.013612
  24 H :    0.028734
  25 C :   -0.091998
  26 H :    0.023822
  27 H :    0.021958
  28 C :    0.002980
  29 H :    0.030129
  30 H :    0.020547
  31 H :    0.031290
  32 H :    0.029319
  33 H :    0.068194
Sum of atomic charges:   -0.0000000

LOEWDIN ATOMIC CHARGES
----------------------
   0 S :    0.391225
   1 C :   -0.193813
   2 C :   -0.050185
   3 C :   -0.058528
   4 C :   -0.178159
   5 H :    0.023248
   6 C :   -0.019419
   7 H :    0.028060
   8 H :    0.026266
   9 C :   -0.037328
  10 H :    0.015567
  11 H :    0.026038
  12 C :   -0.062430
  13 H :    0.031678
  14 H :    0.020204
  15 H :    0.026333
  16 S :    0.425260
  17 C :   -0.186578
  18 C :   -0.063979
  19 C :   -0.064170
  20 C :   -0.204645
  21 H :    0.021325
  22 C :   -0.047732
  23 H :    0.022888
  24 H :    0.037900
  25 C :   -0.035685
  26 H :    0.023685
  27 H :    0.011681
  28 C :   -0.054117
  29 H :    0.028687
  30 H :    0.020840
  31 H :    0.021591
  32 H :    0.016465
  33 H :    0.037828

  Mayer bond orders larger than 0.100000
B(  0-S ,  1-C ) :   1.1305 B(  0-S ,  4-C ) :   1.1426 B(  1-C ,  2-C ) :   1.5979
B(  1-C , 32-H ) :   0.9677 B(  2-C ,  3-C ) :   1.2376 B(  2-C ,  6-C ) :   1.0326
B(  3-C ,  4-C ) :   1.5711 B(  3-C ,  5-H ) :   0.9980 B(  4-C , 20-C ) :   1.0327
B(  6-C ,  7-H ) :   0.9363 B(  6-C ,  8-H ) :   0.9216 B(  6-C ,  9-C ) :   1.0752
B(  9-C , 10-H ) :   0.9578 B(  9-C , 11-H ) :   0.9546 B(  9-C , 12-C ) :   1.0774
B( 12-C , 13-H ) :   0.9770 B( 12-C , 14-H ) :   0.9752 B( 12-C , 15-H ) :   0.9695
B( 16-S , 17-C ) :   1.1589 B( 16-S , 20-C ) :   1.1526 B( 17-C , 18-C ) :   1.5980
B( 17-C , 33-H ) :   0.9649 B( 18-C , 19-C ) :   1.2599 B( 18-C , 21-H ) :   0.9958
B( 19-C , 20-C ) :   1.5745 B( 19-C , 22-C ) :   1.0599 B( 22-C , 23-H ) :   0.9416
B( 22-C , 24-H ) :   0.9371 B( 22-C , 25-C ) :   1.0332 B( 25-C , 26-H ) :   0.9561
B( 25-C , 27-H ) :   0.9597 B( 25-C , 28-C ) :   1.0793 B( 28-C , 29-H ) :   0.9725
B( 28-C , 30-H ) :   0.9761 B( 28-C , 31-H ) :   0.9742

Dispersion correction           -0.014713365
FINAL SINGLE POINT ENERGY     -1339.859758697588

DIPOLE MOMENT
-------------
                                X             Y             Z
Electronic contribution:     14.49056       0.31416     -24.06155
Nuclear contribution   :    -15.01728      -0.42573      24.53367
                        -----------------------------------------
Total Dipole Moment    :     -0.52672      -0.11158       0.47212
                        -----------------------------------------
Magnitude (a.u.)       :      0.71609
Magnitude (Debye)      :      1.82015

Rotational constants in cm-1:     0.016942     0.009723     0.007197
Rotational constants in MHz :   507.912148   291.473528   215.763475

                             ****ORCA TERMINATED NORMALLY****
TOTAL RUN TIME: 0 days 0 hours 0 minutes 31 seconds 102 msec
