                         Program Version 4.2.1 -  RELEASE  -
|  1> ! wB97X-D3 SP def2-SVP
|  2> %pal
|  3> nprocs 16
|  4> end
|  5>
|  6> * xyz 0 1
|  7> S 	 14.0151 	 -13.9432 	 79.7231
|  8> C 	 15.134 	 -14.3565 	 78.5901
|  9> C 	 14.6514 	 -14.432 	 77.3049
| 10> C 	 13.2878 	 -14.1747 	 77.2235
| 11> C 	 12.7178 	 -13.9649 	 78.4748
| 12> H 	 12.7783 	 -14.4454 	 76.3586
| 13> C 	 15.545 	 -14.6756 	 76.1526
| 14> H 	 15.5676 	 -15.7229 	 75.9433
| 15> H 	 16.5629 	 -14.4474 	 76.4703
| 16> C 	 15.1045 	 -13.8128 	 74.864
| 17> H 	 14.2006 	 -14.2438 	 74.4453
| 18> H 	 14.7979 	 -12.841 	 75.1977
| 19> C 	 16.0345 	 -13.7662 	 73.7485
| 20> H 	 16.6476 	 -12.9115 	 73.874
| 21> H 	 16.6943 	 -14.6557 	 73.6667
| 22> H 	 15.5024 	 -13.6273 	 72.8206
| 23> S 	 11.0085 	 -13.5748 	 80.6259
| 24> C 	 9.33857 	 -13.1362 	 80.3355
| 25> C 	 9.05657 	 -13.1795 	 78.9472
| 26> C 	 10.1537 	 -13.571 	 78.1077
| 27> C 	 11.347 	 -13.6729 	 78.8722
| 28> H 	 7.9917 	 -13.1514 	 78.736
| 29> C 	 10.0373 	 -13.7847 	 76.5928
| 30> H 	 10.8706 	 -13.3246 	 76.0354
| 31> H 	 9.22005 	 -13.177 	 76.1615
| 32> C 	 9.89784 	 -15.2871 	 76.193
| 33> H 	 10.7904 	 -15.8489 	 76.4838
| 34> H 	 9.88429 	 -15.4674 	 75.0387
| 35> C 	 8.75213 	 -16.0704 	 76.8761
| 36> H 	 8.70022 	 -15.7642 	 77.9084
| 37> H 	 8.9651 	 -17.0725 	 76.8379
| 38> H 	 7.7251 	 -15.8065 	 76.5322
| 39> H 	 16.1718 	 -14.4362 	 78.7701
| 40> H 	 8.58656 	 -13.1408 	 81.1063
| 41> *
| 42>
| 43>                          ****END OF INPUT****

CARTESIAN COORDINATES (ANGSTROEM)
---------------------------------
  S     14.015100  -13.943200   79.723100
  C     15.134000  -14.356500   78.590100
  C     14.651400  -14.432000   77.304900
  C     13.287800  -14.174700   77.223500
  C     12.717800  -13.964900   78.474800
  H     12.778300  -14.445400   76.358600
  C     15.545000  -14.675600   76.152600
  H     15.567600  -15.722900   75.943300
  H     16.562900  -14.447400   76.470300
  C     15.104500  -13.812800   74.864000
  H     14.200600  -14.243800   74.445300
  H     14.797900  -12.841000   75.197700
  C     16.034500  -13.766200   73.748500
  H     16.647600  -12.911500   73.874000
  H     16.694300  -14.655700   73.666700
  H     15.502400  -13.627300   72.820600
  S     11.008500  -13.574800   80.625900
  C      9.338570  -13.136200   80.335500
  C      9.056570  -13.179500   78.947200
  C     10.153700  -13.571000   78.107700
  C     11.347000  -13.672900   78.872200
  H      7.991700  -13.151400   78.736000
  C     10.037300  -13.784700   76.592800
  H     10.870600  -13.324600   76.035400
  H      9.220050  -13.177000   76.161500
  C      9.897840  -15.287100   76.193000
  H     10.790400  -15.848900   76.483800
  H      9.884290  -15.467400   75.038700
  C      8.752130  -16.070400   76.876100
  H      8.700220  -15.764200   77.908400
  H      8.965100  -17.072500   76.837900
  H      7.725100  -15.806500   76.532200
  H     16.171800  -14.436200   78.770100
  H      8.586560  -13.140800   81.106300

 Total Charge           Charge          ....    0
 Multiplicity           Mult            ....    1
 Number of Electrons    NEL             ....  134
 Basis Dimension        Dim             ....  322

ORBITAL ENERGIES
----------------

  NO   OCC          E(Eh)            E(eV)
   0   2.0000     -88.968430     -2420.9541
   1   2.0000     -88.966914     -2420.9128
   2   2.0000     -10.336532      -281.2713
   3   2.0000     -10.334812      -281.2245
   4   2.0000     -10.320305      -280.8298
   5   2.0000     -10.313238      -280.6375
   6   2.0000     -10.301896      -280.3288
   7   2.0000     -10.300325      -280.2861
   8   2.0000     -10.299160      -280.2544
   9   2.0000     -10.297217      -280.2015
  10   2.0000     -10.289996      -280.0050
  11   2.0000     -10.287709      -279.9428
  12   2.0000     -10.287128      -279.9270
  13   2.0000     -10.282969      -279.8138
  14   2.0000     -10.270707      -279.4801
  15   2.0000     -10.269332      -279.4427
  16   2.0000      -8.082999      -219.9496
  17   2.0000      -8.082377      -219.9327
  18   2.0000      -6.041330      -164.3929
  19   2.0000      -6.040943      -164.3824
  20   2.0000      -6.037327      -164.2840
  21   2.0000      -6.037026      -164.2758
  22   2.0000      -6.033863      -164.1898
  23   2.0000      -6.033117      -164.1694
  24   2.0000      -1.010972       -27.5100
  25   2.0000      -0.982495       -26.7350
  26   2.0000      -0.914426       -24.8828
  27   2.0000      -0.902682       -24.5632
  28   2.0000      -0.872247       -23.7350
  29   2.0000      -0.864538       -23.5253
  30   2.0000      -0.844573       -22.9820
  31   2.0000      -0.818991       -22.2859
  32   2.0000      -0.787077       -21.4175
  33   2.0000      -0.767071       -20.8731
  34   2.0000      -0.715774       -19.4772
  35   2.0000      -0.696376       -18.9494
  36   2.0000      -0.687277       -18.7018
  37   2.0000      -0.663605       -18.0576
  38   2.0000      -0.639066       -17.3899
  39   2.0000      -0.630342       -17.1525
  40   2.0000      -0.592909       -16.1339
  41   2.0000      -0.573148       -15.5961
  42   2.0000      -0.560848       -15.2614
  43   2.0000      -0.552128       -15.0242
  44   2.0000      -0.541171       -14.7260
  45   2.0000      -0.528794       -14.3892
  46   2.0000      -0.519028       -14.1235
  47   2.0000      -0.514792       -14.0082
  48   2.0000      -0.504081       -13.7167
  49   2.0000      -0.499010       -13.5788
  50   2.0000      -0.491782       -13.3821
  51   2.0000      -0.484554       -13.1854
  52   2.0000      -0.473466       -12.8837
  53   2.0000      -0.471876       -12.8404
  54   2.0000      -0.459554       -12.5051
  55   2.0000      -0.449955       -12.2439
  56   2.0000      -0.444273       -12.0893
  57   2.0000      -0.441120       -12.0035
  58   2.0000      -0.430069       -11.7028
  59   2.0000      -0.423743       -11.5306
  60   2.0000      -0.418521       -11.3885
  61   2.0000      -0.412135       -11.2148
  62   2.0000      -0.408253       -11.1091
  63   2.0000      -0.366407        -9.9704
  64   2.0000      -0.336758        -9.1637
  65   2.0000      -0.330537        -8.9944
  66   2.0000      -0.272438        -7.4134
  67   0.0000       0.011993         0.3263
  68   0.0000       0.084808         2.3077
  69   0.0000       0.091446         2.4884
  70   0.0000       0.118736         3.2310
  71   0.0000       0.135864         3.6970

MULLIKEN ATOMIC CHARGES
-----------------------
   0 S :    0.115299
   1 C :   -0.089166
   2 C :   -0.120952
   3 C :    0.010544
   4 C :   -0.104024
   5 H :   -0.008711
   6 C :    0.100685
   7 H :    0.031378
   8 H :    0.011999
   9 C :   -0.111300
  10 H :    0.020666
  11 H :    0.029417
  12 C :    0.002713
  13 H :    0.020335
  14 H :    0.032970
  15 H :    0.025164
  16 S :    0.090900
  17 C :   -0.097287
  18 C :   -0.037397
  19 C :   -0.069250
  20 C :   -0.104395
  21 H :    0.025084
  22 C :    0.057149
  23 H :    0.034185
  24 H :    0.028766
  25 C :   -0.119225
  26 H :    0.033019
  27 H :    0.041331
  28 C :   -0.015275
  29 H :    0.028501
  30 H :    0.023086
  31 H :    0.027616
  32 H :    0.024577
  33 H :    0.061597
Sum of atomic charges:    0.0000000

LOEWDIN ATOMIC CHARGES
----------------------
   0 S :    0.431676
   1 C :   -0.222885
   2 C :   -0.070800
   3 C :   -0.060622
   4 C :   -0.167376
   5 H :    0.021676
   6 C :   -0.024443
   7 H :    0.029195
   8 H :    0.027378
   9 C :   -0.040620
  10 H :    0.021219
  11 H :    0.023083
  12 C :   -0.063836
  13 H :    0.022056
  14 H :    0.030703
  15 H :    0.027569
  16 S :    0.388736
  17 C :   -0.191039
  18 C :   -0.070899
  19 C :   -0.059139
  20 C :   -0.176069
  21 H :    0.032174
  22 C :   -0.038736
  23 H :    0.034123
  24 H :    0.034366
  25 C :   -0.047610
  26 H :    0.022723
  27 H :    0.031634
  28 C :   -0.061336
  29 H :    0.026611
  30 H :    0.016015
  31 H :    0.026108
  32 H :    0.020139
  33 H :    0.028227

  Mayer bond orders larger than 0.100000
B(  0-S ,  1-C ) :   1.1669 B(  0-S ,  4-C ) :   1.1542 B(  1-C ,  2-C ) :   1.5873
B(  1-C , 32-H ) :   0.9654 B(  2-C ,  3-C ) :   1.3063 B(  2-C ,  6-C ) :   1.0284
B(  3-C ,  4-C ) :   1.5167 B(  3-C ,  5-H ) :   0.9902 B(  4-C , 20-C ) :   1.1113
B(  6-C ,  7-H ) :   0.9202 B(  6-C ,  8-H ) :   0.9433 B(  6-C ,  9-C ) :   1.0613
B(  9-C , 10-H ) :   0.9500 B(  9-C , 11-H ) :   0.9635 B(  9-C , 12-C ) :   1.0957
B( 12-C , 13-H ) :   0.9708 B( 12-C , 14-H ) :   0.9701 B( 12-C , 15-H ) :   0.9718
B( 16-S , 17-C ) :   1.1509 B( 16-S , 20-C ) :   1.1455 B( 17-C , 18-C ) :   1.5965
B( 17-C , 20-C ) :   0.1061 B( 17-C , 33-H ) :   0.9674 B( 18-C , 19-C ) :   1.2552
B( 18-C , 21-H ) :   0.9841 B( 19-C , 20-C ) :   1.5476 B( 19-C , 22-C ) :   1.0352
B( 22-C , 23-H ) :   0.9365 B( 22-C , 24-H ) :   0.9411 B( 22-C , 25-C ) :   1.0537
B( 25-C , 26-H ) :   0.9569 B( 25-C , 27-H ) :   0.9571 B( 25-C , 28-C ) :   1.0756
B( 28-C , 29-H ) :   0.9700 B( 28-C , 30-H ) :   0.9749 B( 28-C , 31-H ) :   0.9744

Dispersion correction           -0.014576254
FINAL SINGLE POINT ENERGY     -1339.862930839401

DIPOLE MOMENT
-------------
                                X             Y             Z
Electronic contribution:     -0.23075       6.34035      28.56910
Nuclear contribution   :      0.22085      -6.56833     -29.16979
                        -----------------------------------------
Total Dipole Moment    :     -0.00989      -0.22798      -0.60068
                        -----------------------------------------
Magnitude (a.u.)       :      0.64257
Magnitude (Debye)      :      1.63328

Rotational constants in cm-1:     0.019302     0.009000     0.006682
Rotational constants in MHz :   578.655182   269.813301   200.307496

                             ****ORCA TERMINATED NORMALLY****
TOTAL RUN TIME: 0 days 0 hours 0 minutes 29 seconds 603 msec
