                         Program Version 4.2.1 -  RELEASE  -
|  1> ! wB97X-D3 SP def2-SVP
|  2> %pal
|  3> nprocs 16
|  4> end
|  5>
|  6> * xyz 0 1
|  7> S 	 -48.7632 	 18.7726 	 81.7561
|  8> C 	 -47.8983 	 18.8373 	 83.2827
|  9> C 	 -46.5987 	 18.3305 	 83.1805
| 10> C 	 -46.4116 	 17.6599 	 81.9425
| 11> C 	 -47.4267 	 17.8295 	 81.0668
| 12> H 	 -45.5879 	 17.0888 	 81.6403
| 13> C 	 -45.4558 	 18.4273 	 84.1748
| 14> H 	 -45.7413 	 18.6927 	 85.1969
| 15> H 	 -44.8076 	 19.2403 	 83.8539
| 16> C 	 -44.4949 	 17.1901 	 84.264
| 17> H 	 -45.138 	 16.3918 	 84.6796
| 18> H 	 -44.151 	 16.8183 	 83.2499
| 19> C 	 -43.2933 	 17.4239 	 85.1228
| 20> H 	 -42.6783 	 18.2829 	 84.849
| 21> H 	 -43.64 	 17.6106 	 86.1268
| 22> H 	 -42.7109 	 16.4912 	 85.1564
| 23> S 	 -49.1536 	 16.954 	 79.1892
| 24> C 	 -48.6033 	 16.5275 	 77.6177
| 25> C 	 -47.2193 	 16.4923 	 77.5637
| 26> C 	 -46.5788 	 16.9561 	 78.7209
| 27> C 	 -47.5347 	 17.3769 	 79.6727
| 28> H 	 -46.6222 	 16.1542 	 76.6915
| 29> C 	 -45.0738 	 16.944 	 78.8338
| 30> H 	 -44.7131 	 16.48 	 77.8957
| 31> H 	 -44.7553 	 16.2737 	 79.6013
| 32> C 	 -44.3665 	 18.3275 	 79.0497
| 33> H 	 -44.894 	 18.777 	 79.9394
| 34> H 	 -44.4919 	 18.9898 	 78.2458
| 35> C 	 -42.8401 	 18.1632 	 79.1934
| 36> H 	 -42.4524 	 19.2027 	 79.1598
| 37> H 	 -42.421 	 17.4759 	 78.4426
| 38> H 	 -42.5246 	 17.7456 	 80.1824
| 39> H 	 -48.1579 	 19.3308 	 84.2486
| 40> H 	 -49.2317 	 16.1271 	 76.8417
| 41> *
| 42>
| 43>                          ****END OF INPUT****

CARTESIAN COORDINATES (ANGSTROEM)
---------------------------------
  S    -48.763200   18.772600   81.756100
  C    -47.898300   18.837300   83.282700
  C    -46.598700   18.330500   83.180500
  C    -46.411600   17.659900   81.942500
  C    -47.426700   17.829500   81.066800
  H    -45.587900   17.088800   81.640300
  C    -45.455800   18.427300   84.174800
  H    -45.741300   18.692700   85.196900
  H    -44.807600   19.240300   83.853900
  C    -44.494900   17.190100   84.264000
  H    -45.138000   16.391800   84.679600
  H    -44.151000   16.818300   83.249900
  C    -43.293300   17.423900   85.122800
  H    -42.678300   18.282900   84.849000
  H    -43.640000   17.610600   86.126800
  H    -42.710900   16.491200   85.156400
  S    -49.153600   16.954000   79.189200
  C    -48.603300   16.527500   77.617700
  C    -47.219300   16.492300   77.563700
  C    -46.578800   16.956100   78.720900
  C    -47.534700   17.376900   79.672700
  H    -46.622200   16.154200   76.691500
  C    -45.073800   16.944000   78.833800
  H    -44.713100   16.480000   77.895700
  H    -44.755300   16.273700   79.601300
  C    -44.366500   18.327500   79.049700
  H    -44.894000   18.777000   79.939400
  H    -44.491900   18.989800   78.245800
  C    -42.840100   18.163200   79.193400
  H    -42.452400   19.202700   79.159800
  H    -42.421000   17.475900   78.442600
  H    -42.524600   17.745600   80.182400
  H    -48.157900   19.330800   84.248600
  H    -49.231700   16.127100   76.841700

 Total Charge           Charge          ....    0
 Multiplicity           Mult            ....    1
 Number of Electrons    NEL             ....  134
 Basis Dimension        Dim             ....  322

ORBITAL ENERGIES
----------------

  NO   OCC          E(Eh)            E(eV)
   0   2.0000     -88.968401     -2420.9533
   1   2.0000     -88.968323     -2420.9511
   2   2.0000     -10.327998      -281.0391
   3   2.0000     -10.327655      -281.0298
   4   2.0000     -10.316273      -280.7201
   5   2.0000     -10.313628      -280.6481
   6   2.0000     -10.302958      -280.3577
   7   2.0000     -10.302584      -280.3476
   8   2.0000     -10.296131      -280.1720
   9   2.0000     -10.294694      -280.1329
  10   2.0000     -10.293532      -280.1012
  11   2.0000     -10.293378      -280.0971
  12   2.0000     -10.287189      -279.9286
  13   2.0000     -10.286143      -279.9002
  14   2.0000     -10.284519      -279.8560
  15   2.0000     -10.279463      -279.7184
  16   2.0000      -8.083571      -219.9651
  17   2.0000      -8.082381      -219.9328
  18   2.0000      -6.041875      -164.4078
  19   2.0000      -6.041046      -164.3852
  20   2.0000      -6.037997      -164.3022
  21   2.0000      -6.037121      -164.2784
  22   2.0000      -6.034532      -164.2080
  23   2.0000      -6.032885      -164.1632
  24   2.0000      -1.009845       -27.4793
  25   2.0000      -0.985377       -26.8135
  26   2.0000      -0.912126       -24.8202
  27   2.0000      -0.907817       -24.7030
  28   2.0000      -0.869318       -23.6554
  29   2.0000      -0.856213       -23.2987
  30   2.0000      -0.849721       -23.1221
  31   2.0000      -0.814321       -22.1588
  32   2.0000      -0.782057       -21.2809
  33   2.0000      -0.769935       -20.9510
  34   2.0000      -0.707856       -19.2617
  35   2.0000      -0.698116       -18.9967
  36   2.0000      -0.687101       -18.6970
  37   2.0000      -0.664855       -18.0916
  38   2.0000      -0.639461       -17.4006
  39   2.0000      -0.625655       -17.0249
  40   2.0000      -0.600545       -16.3417
  41   2.0000      -0.568213       -15.4619
  42   2.0000      -0.560868       -15.2620
  43   2.0000      -0.558658       -15.2019
  44   2.0000      -0.529354       -14.4044
  45   2.0000      -0.524872       -14.2825
  46   2.0000      -0.512729       -13.9521
  47   2.0000      -0.505948       -13.7675
  48   2.0000      -0.504001       -13.7146
  49   2.0000      -0.497582       -13.5399
  50   2.0000      -0.492410       -13.3992
  51   2.0000      -0.490981       -13.3603
  52   2.0000      -0.469644       -12.7797
  53   2.0000      -0.468714       -12.7544
  54   2.0000      -0.462893       -12.5960
  55   2.0000      -0.452270       -12.3069
  56   2.0000      -0.447825       -12.1859
  57   2.0000      -0.437531       -11.9058
  58   2.0000      -0.430042       -11.7020
  59   2.0000      -0.428133       -11.6501
  60   2.0000      -0.423230       -11.5167
  61   2.0000      -0.420483       -11.4419
  62   2.0000      -0.415732       -11.3127
  63   2.0000      -0.353909        -9.6303
  64   2.0000      -0.334611        -9.1052
  65   2.0000      -0.329989        -8.9794
  66   2.0000      -0.281555        -7.6615
  67   0.0000       0.021244         0.5781
  68   0.0000       0.080738         2.1970
  69   0.0000       0.098128         2.6702
  70   0.0000       0.110798         3.0150
  71   0.0000       0.131025         3.5654

MULLIKEN ATOMIC CHARGES
-----------------------
   0 S :    0.108234
   1 C :   -0.118819
   2 C :   -0.069440
   3 C :    0.011290
   4 C :   -0.107771
   5 H :   -0.030375
   6 C :    0.064572
   7 H :    0.016167
   8 H :    0.034663
   9 C :   -0.140226
  10 H :    0.039336
  11 H :    0.041285
  12 C :   -0.020095
  13 H :    0.034976
  14 H :    0.019000
  15 H :    0.040977
  16 S :    0.111291
  17 C :   -0.076439
  18 C :   -0.056403
  19 C :   -0.035724
  20 C :   -0.138387
  21 H :    0.025610
  22 C :    0.049255
  23 H :    0.007384
  24 H :    0.032810
  25 C :   -0.072926
  26 H :    0.049217
  27 H :    0.022853
  28 C :   -0.061341
  29 H :    0.045135
  30 H :    0.038842
  31 H :    0.028338
  32 H :    0.052720
  33 H :    0.053990
Sum of atomic charges:   -0.0000000

LOEWDIN ATOMIC CHARGES
----------------------
   0 S :    0.388525
   1 C :   -0.209591
   2 C :   -0.057390
   3 C :   -0.066450
   4 C :   -0.175633
   5 H :    0.020418
   6 C :   -0.033402
   7 H :    0.027534
   8 H :    0.033190
   9 C :   -0.047853
  10 H :    0.028075
  11 H :    0.023991
  12 C :   -0.065277
  13 H :    0.026209
  14 H :    0.022717
  15 H :    0.033314
  16 S :    0.432080
  17 C :   -0.199291
  18 C :   -0.073878
  19 C :   -0.059254
  20 C :   -0.198869
  21 H :    0.036093
  22 C :   -0.032691
  23 H :    0.029226
  24 H :    0.025186
  25 C :   -0.037459
  26 H :    0.032638
  27 H :    0.017771
  28 C :   -0.069997
  29 H :    0.033179
  30 H :    0.027082
  31 H :    0.023928
  32 H :    0.038093
  33 H :    0.027783

  Mayer bond orders larger than 0.100000
B(  0-S ,  1-C ) :   1.1154 B(  0-S ,  4-C ) :   1.1316 B(  1-C ,  2-C ) :   1.6406
B(  1-C , 32-H ) :   0.9585 B(  2-C ,  3-C ) :   1.2099 B(  2-C ,  6-C ) :   1.0248
B(  3-C ,  4-C ) :   1.6131 B(  3-C ,  5-H ) :   0.9973 B(  4-C , 20-C ) :   1.0439
B(  6-C ,  7-H ) :   0.9434 B(  6-C ,  8-H ) :   0.9321 B(  6-C ,  9-C ) :   1.0567
B(  9-C , 10-H ) :   0.9573 B(  9-C , 11-H ) :   0.9486 B(  9-C , 12-C ) :   1.0923
B( 12-C , 13-H ) :   0.9727 B( 12-C , 14-H ) :   0.9700 B( 12-C , 15-H ) :   0.9703
B( 16-S , 17-C ) :   1.1697 B( 16-S , 20-C ) :   1.1693 B( 17-C , 18-C ) :   1.5576
B( 17-C , 20-C ) :   0.1070 B( 17-C , 33-H ) :   0.9701 B( 18-C , 19-C ) :   1.3138
B( 18-C , 21-H ) :   0.9790 B( 19-C , 20-C ) :   1.5304 B( 19-C , 22-C ) :   1.0433
B( 22-C , 23-H ) :   0.9250 B( 22-C , 24-H ) :   0.9318 B( 22-C , 25-C ) :   1.0576
B( 25-C , 26-H ) :   0.9540 B( 25-C , 27-H ) :   0.9574 B( 25-C , 28-C ) :   1.0749
B( 28-C , 29-H ) :   0.9760 B( 28-C , 30-H ) :   0.9731 B( 28-C , 31-H ) :   0.9748

Dispersion correction           -0.014287428
FINAL SINGLE POINT ENERGY     -1339.885579504607

DIPOLE MOMENT
-------------
                                X             Y             Z
Electronic contribution:    -32.26760       0.73673      -9.43807
Nuclear contribution   :     33.01919      -0.89425       9.52130
                        -----------------------------------------
Total Dipole Moment    :      0.75158      -0.15752       0.08323
                        -----------------------------------------
Magnitude (a.u.)       :      0.77241
Magnitude (Debye)      :      1.96331

Rotational constants in cm-1:     0.017396     0.009686     0.006811
Rotational constants in MHz :   521.513392   290.373667   204.182259

                             ****ORCA TERMINATED NORMALLY****
TOTAL RUN TIME: 0 days 0 hours 0 minutes 29 seconds 718 msec
