                         Program Version 4.2.1 -  RELEASE  -
|  1> ! wB97X-D3 SP def2-SVP
|  2> %pal
|  3> nprocs 16
|  4> end
|  5>
|  6> * xyz 0 1
|  7> S 	 -41.3247 	 38.2803 	 77.0731
|  8> C 	 -41.7404 	 39.2079 	 78.4566
|  9> C 	 -41.0957 	 40.4224 	 78.4997
| 10> C 	 -40.2255 	 40.5971 	 77.4134
| 11> C 	 -40.1557 	 39.501 	 76.5578
| 12> H 	 -39.5767 	 41.4737 	 77.3227
| 13> C 	 -41.3807 	 41.5031 	 79.5025
| 14> H 	 -42.4187 	 41.6292 	 79.7693
| 15> H 	 -41.2324 	 42.4218 	 78.9625
| 16> C 	 -40.5898 	 41.4078 	 80.805
| 17> H 	 -39.4837 	 41.4923 	 80.589
| 18> H 	 -41.042 	 42.1314 	 81.574
| 19> C 	 -40.5633 	 40.0046 	 81.4494
| 20> H 	 -40.0341 	 40.0556 	 82.3998
| 21> H 	 -41.5002 	 39.665 	 81.694
| 22> H 	 -40.1288 	 39.2642 	 80.8249
| 23> S 	 -38.5334 	 40.6729 	 74.6683
| 24> C 	 -37.2236 	 39.6557 	 73.8645
| 25> C 	 -37.3978 	 38.3394 	 74.2895
| 26> C 	 -38.4713 	 38.1059 	 75.1225
| 27> C 	 -39.1854 	 39.235 	 75.4617
| 28> H 	 -36.6112 	 37.6804 	 73.9129
| 29> C 	 -38.7034 	 36.7877 	 75.8253
| 30> H 	 -38.8715 	 36.9334 	 76.924
| 31> H 	 -37.779 	 36.1944 	 75.7924
| 32> C 	 -39.8657 	 35.9147 	 75.3054
| 33> H 	 -40.9099 	 36.1691 	 75.6561
| 34> H 	 -39.6829 	 34.9453 	 75.7853
| 35> C 	 -39.8086 	 35.8249 	 73.7358
| 36> H 	 -38.7556 	 35.5227 	 73.5709
| 37> H 	 -40.0329 	 36.7726 	 73.2155
| 38> H 	 -40.4101 	 35.0582 	 73.302
| 39> H 	 -42.5237 	 38.9076 	 79.1715
| 40> H 	 -36.452 	 40.0203 	 73.1653
| 41> *
| 42>
| 43>                          ****END OF INPUT****

CARTESIAN COORDINATES (ANGSTROEM)
---------------------------------
  S    -41.324700   38.280300   77.073100
  C    -41.740400   39.207900   78.456600
  C    -41.095700   40.422400   78.499700
  C    -40.225500   40.597100   77.413400
  C    -40.155700   39.501000   76.557800
  H    -39.576700   41.473700   77.322700
  C    -41.380700   41.503100   79.502500
  H    -42.418700   41.629200   79.769300
  H    -41.232400   42.421800   78.962500
  C    -40.589800   41.407800   80.805000
  H    -39.483700   41.492300   80.589000
  H    -41.042000   42.131400   81.574000
  C    -40.563300   40.004600   81.449400
  H    -40.034100   40.055600   82.399800
  H    -41.500200   39.665000   81.694000
  H    -40.128800   39.264200   80.824900
  S    -38.533400   40.672900   74.668300
  C    -37.223600   39.655700   73.864500
  C    -37.397800   38.339400   74.289500
  C    -38.471300   38.105900   75.122500
  C    -39.185400   39.235000   75.461700
  H    -36.611200   37.680400   73.912900
  C    -38.703400   36.787700   75.825300
  H    -38.871500   36.933400   76.924000
  H    -37.779000   36.194400   75.792400
  C    -39.865700   35.914700   75.305400
  H    -40.909900   36.169100   75.656100
  H    -39.682900   34.945300   75.785300
  C    -39.808600   35.824900   73.735800
  H    -38.755600   35.522700   73.570900
  H    -40.032900   36.772600   73.215500
  H    -40.410100   35.058200   73.302000
  H    -42.523700   38.907600   79.171500
  H    -36.452000   40.020300   73.165300

 Total Charge           Charge          ....    0
 Multiplicity           Mult            ....    1
 Number of Electrons    NEL             ....  134
 Basis Dimension        Dim             ....  322

ORBITAL ENERGIES
----------------

  NO   OCC          E(Eh)            E(eV)
   0   2.0000     -88.970480     -2421.0098
   1   2.0000     -88.965725     -2420.8804
   2   2.0000     -10.336558      -281.2721
   3   2.0000     -10.332646      -281.1656
   4   2.0000     -10.327527      -281.0263
   5   2.0000     -10.312103      -280.6066
   6   2.0000     -10.299704      -280.2692
   7   2.0000     -10.296410      -280.1796
   8   2.0000     -10.296139      -280.1722
   9   2.0000     -10.295725      -280.1609
  10   2.0000     -10.295142      -280.1451
  11   2.0000     -10.292804      -280.0814
  12   2.0000     -10.289082      -279.9802
  13   2.0000     -10.286793      -279.9179
  14   2.0000     -10.274900      -279.5943
  15   2.0000     -10.263796      -279.2921
  16   2.0000      -8.084704      -219.9960
  17   2.0000      -8.078750      -219.8340
  18   2.0000      -6.043129      -164.4419
  19   2.0000      -6.039166      -164.3341
  20   2.0000      -6.037368      -164.2851
  21   2.0000      -6.035671      -164.2390
  22   2.0000      -6.033495      -164.1797
  23   2.0000      -6.029505      -164.0712
  24   2.0000      -1.007632       -27.4191
  25   2.0000      -0.984734       -26.7960
  26   2.0000      -0.912548       -24.8317
  27   2.0000      -0.901591       -24.5335
  28   2.0000      -0.867245       -23.5989
  29   2.0000      -0.852629       -23.2012
  30   2.0000      -0.838602       -22.8195
  31   2.0000      -0.813453       -22.1352
  32   2.0000      -0.786434       -21.4000
  33   2.0000      -0.772735       -21.0272
  34   2.0000      -0.707367       -19.2484
  35   2.0000      -0.691157       -18.8073
  36   2.0000      -0.688034       -18.7223
  37   2.0000      -0.668222       -18.1832
  38   2.0000      -0.637378       -17.3439
  39   2.0000      -0.620515       -16.8851
  40   2.0000      -0.588236       -16.0067
  41   2.0000      -0.573705       -15.6113
  42   2.0000      -0.557863       -15.1802
  43   2.0000      -0.546549       -14.8724
  44   2.0000      -0.542150       -14.7526
  45   2.0000      -0.541571       -14.7369
  46   2.0000      -0.517454       -14.0806
  47   2.0000      -0.509269       -13.8579
  48   2.0000      -0.503577       -13.7030
  49   2.0000      -0.490659       -13.3515
  50   2.0000      -0.485930       -13.2228
  51   2.0000      -0.473130       -12.8745
  52   2.0000      -0.469045       -12.7634
  53   2.0000      -0.466567       -12.6959
  54   2.0000      -0.463357       -12.6086
  55   2.0000      -0.445187       -12.1142
  56   2.0000      -0.439195       -11.9511
  57   2.0000      -0.435968       -11.8633
  58   2.0000      -0.431376       -11.7383
  59   2.0000      -0.427651       -11.6370
  60   2.0000      -0.417706       -11.3664
  61   2.0000      -0.407137       -11.0788
  62   2.0000      -0.398140       -10.8339
  63   2.0000      -0.357440        -9.7264
  64   2.0000      -0.337209        -9.1759
  65   2.0000      -0.331719        -9.0265
  66   2.0000      -0.284427        -7.7397
  67   0.0000       0.018778         0.5110
  68   0.0000       0.077073         2.0973
  69   0.0000       0.104992         2.8570
  70   0.0000       0.114835         3.1248
  71   0.0000       0.128910         3.5078

MULLIKEN ATOMIC CHARGES
-----------------------
   0 S :    0.103634
   1 C :   -0.119804
   2 C :   -0.110076
   3 C :    0.012861
   4 C :   -0.134009
   5 H :    0.023506
   6 C :    0.095824
   7 H :    0.018361
   8 H :    0.015581
   9 C :   -0.106693
  10 H :    0.038505
  11 H :    0.048692
  12 C :   -0.023102
  13 H :    0.030539
  14 H :   -0.006754
  15 H :    0.040285
  16 S :    0.072558
  17 C :   -0.125154
  18 C :   -0.046723
  19 C :   -0.004006
  20 C :   -0.104002
  21 H :    0.028556
  22 C :    0.009302
  23 H :    0.048266
  24 H :    0.024430
  25 C :   -0.091961
  26 H :    0.050321
  27 H :    0.028876
  28 C :   -0.051324
  29 H :    0.018099
  30 H :    0.057735
  31 H :    0.029331
  32 H :    0.056910
  33 H :    0.071436
Sum of atomic charges:   -0.0000000

LOEWDIN ATOMIC CHARGES
----------------------
   0 S :    0.449310
   1 C :   -0.206388
   2 C :   -0.070239
   3 C :   -0.066936
   4 C :   -0.183995
   5 H :    0.032676
   6 C :   -0.037432
   7 H :    0.029538
   8 H :    0.030830
   9 C :   -0.043555
  10 H :    0.031871
  11 H :    0.034643
  12 C :   -0.061455
  13 H :    0.029440
  14 H :    0.005209
  15 H :    0.022038
  16 S :    0.365186
  17 C :   -0.165316
  18 C :   -0.069597
  19 C :   -0.072236
  20 C :   -0.176926
  21 H :    0.038479
  22 C :   -0.043108
  23 H :    0.032562
  24 H :    0.031122
  25 C :   -0.051297
  26 H :    0.011340
  27 H :    0.025580
  28 C :   -0.068078
  29 H :    0.024888
  30 H :    0.032010
  31 H :    0.019324
  32 H :    0.032807
  33 H :    0.037704

  Mayer bond orders larger than 0.100000
B(  0-S ,  1-C ) :   1.1534 B(  0-S ,  4-C ) :   1.1572 B(  1-C ,  2-C ) :   1.5847
B(  1-C , 32-H ) :   0.9628 B(  2-C ,  3-C ) :   1.3025 B(  2-C ,  6-C ) :   1.0121
B(  3-C ,  4-C ) :   1.5362 B(  3-C ,  5-H ) :   0.9799 B(  4-C , 20-C ) :   1.0335
B(  6-C ,  7-H ) :   0.9419 B(  6-C ,  8-H ) :   0.9401 B(  6-C ,  9-C ) :   1.0680
B(  9-C , 10-H ) :   0.9569 B(  9-C , 11-H ) :   0.9564 B(  9-C , 12-C ) :   1.0853
B( 12-C , 13-H ) :   0.9715 B( 12-C , 14-H ) :   0.9711 B( 12-C , 15-H ) :   0.9680
B( 16-S , 17-C ) :   1.1311 B( 16-S , 20-C ) :   1.1425 B( 17-C , 18-C ) :   1.6102
B( 17-C , 20-C ) :   0.1047 B( 17-C , 33-H ) :   0.9656 B( 18-C , 19-C ) :   1.2507
B( 18-C , 21-H ) :   0.9885 B( 19-C , 20-C ) :   1.5565 B( 19-C , 22-C ) :   1.0367
B( 22-C , 23-H ) :   0.9307 B( 22-C , 24-H ) :   0.9379 B( 22-C , 25-C ) :   1.0659
B( 25-C , 26-H ) :   0.9492 B( 25-C , 27-H ) :   0.9551 B( 25-C , 28-C ) :   1.0650
B( 28-C , 29-H ) :   0.9773 B( 28-C , 30-H ) :   0.9698 B( 28-C , 31-H ) :   0.9767

Dispersion correction           -0.015197950
FINAL SINGLE POINT ENERGY     -1339.873612978977

DIPOLE MOMENT
-------------
                                X             Y             Z
Electronic contribution:      1.14113       7.25269     -12.62412
Nuclear contribution   :     -0.98657      -7.41985      12.95600
                        -----------------------------------------
Total Dipole Moment    :      0.15456      -0.16716       0.33188
                        -----------------------------------------
Magnitude (a.u.)       :      0.40246
Magnitude (Debye)      :      1.02298

Rotational constants in cm-1:     0.022794     0.008572     0.006989
Rotational constants in MHz :   683.355893   256.990166   209.522005

                             ****ORCA TERMINATED NORMALLY****
TOTAL RUN TIME: 0 days 0 hours 0 minutes 30 seconds 758 msec
