                         Program Version 4.2.1 -  RELEASE  -
|  1> ! wB97X-D3 SP def2-SVP
|  2> %pal
|  3> nprocs 16
|  4> end
|  5>
|  6> * xyz 0 1
|  7> S 	 -104.026 	 40.545 	 128.971
|  8> C 	 -102.495 	 39.8344 	 129.489
|  9> C 	 -102.662 	 38.9573 	 130.59
| 10> C 	 -104.042 	 38.7833 	 130.901
| 11> C 	 -104.905 	 39.577 	 130.15
| 12> H 	 -104.48 	 38.1841 	 131.7
| 13> C 	 -101.632 	 38.1445 	 131.457
| 14> H 	 -101.783 	 38.3952 	 132.537
| 15> H 	 -100.635 	 38.3723 	 131.196
| 16> C 	 -101.841 	 36.5688 	 131.411
| 17> H 	 -101.178 	 36.1281 	 132.149
| 18> H 	 -102.853 	 36.2766 	 131.533
| 19> C 	 -101.516 	 36.0292 	 129.988
| 20> H 	 -101.879 	 35.0135 	 129.746
| 21> H 	 -102.154 	 36.5132 	 129.221
| 22> H 	 -100.467 	 36.1981 	 129.801
| 23> S 	 -107.332 	 40.3876 	 131.232
| 24> C 	 -108.807 	 39.9812 	 130.394
| 25> C 	 -108.515 	 39.061 	 129.458
| 26> C 	 -107.131 	 38.8227 	 129.3
| 27> C 	 -106.344 	 39.5052 	 130.124
| 28> H 	 -109.273 	 38.4675 	 128.862
| 29> C 	 -106.639 	 37.7596 	 128.336
| 30> H 	 -107.287 	 36.9416 	 128.448
| 31> H 	 -105.587 	 37.5137 	 128.575
| 32> C 	 -106.646 	 38.1777 	 126.835
| 33> H 	 -106.309 	 39.1956 	 126.657
| 34> H 	 -107.684 	 38.2956 	 126.624
| 35> C 	 -105.967 	 37.1968 	 125.893
| 36> H 	 -106.336 	 37.3961 	 124.839
| 37> H 	 -106.183 	 36.1698 	 126.218
| 38> H 	 -104.867 	 37.2475 	 125.831
| 39> H 	 -101.561 	 39.9909 	 129.1
| 40> H 	 -109.773 	 40.3386 	 130.529
| 41> *
| 42>
| 43>                          ****END OF INPUT****

CARTESIAN COORDINATES (ANGSTROEM)
---------------------------------
  S    -104.026000   40.545000  128.971000
  C    -102.495000   39.834400  129.489000
  C    -102.662000   38.957300  130.590000
  C    -104.042000   38.783300  130.901000
  C    -104.905000   39.577000  130.150000
  H    -104.480000   38.184100  131.700000
  C    -101.632000   38.144500  131.457000
  H    -101.783000   38.395200  132.537000
  H    -100.635000   38.372300  131.196000
  C    -101.841000   36.568800  131.411000
  H    -101.178000   36.128100  132.149000
  H    -102.853000   36.276600  131.533000
  C    -101.516000   36.029200  129.988000
  H    -101.879000   35.013500  129.746000
  H    -102.154000   36.513200  129.221000
  H    -100.467000   36.198100  129.801000
  S    -107.332000   40.387600  131.232000
  C    -108.807000   39.981200  130.394000
  C    -108.515000   39.061000  129.458000
  C    -107.131000   38.822700  129.300000
  C    -106.344000   39.505200  130.124000
  H    -109.273000   38.467500  128.862000
  C    -106.639000   37.759600  128.336000
  H    -107.287000   36.941600  128.448000
  H    -105.587000   37.513700  128.575000
  C    -106.646000   38.177700  126.835000
  H    -106.309000   39.195600  126.657000
  H    -107.684000   38.295600  126.624000
  C    -105.967000   37.196800  125.893000
  H    -106.336000   37.396100  124.839000
  H    -106.183000   36.169800  126.218000
  H    -104.867000   37.247500  125.831000
  H    -101.561000   39.990900  129.100000
  H    -109.773000   40.338600  130.529000

 Total Charge           Charge          ....    0
 Multiplicity           Mult            ....    1
 Number of Electrons    NEL             ....  134
 Basis Dimension        Dim             ....  322

ORBITAL ENERGIES
----------------

  NO   OCC          E(Eh)            E(eV)
   0   2.0000     -88.972587     -2421.0672
   1   2.0000     -88.960516     -2420.7387
   2   2.0000     -10.328814      -281.0613
   3   2.0000     -10.316884      -280.7367
   4   2.0000     -10.314720      -280.6778
   5   2.0000     -10.310851      -280.5725
   6   2.0000     -10.310189      -280.5545
   7   2.0000     -10.302732      -280.3516
   8   2.0000     -10.296032      -280.1693
   9   2.0000     -10.290779      -280.0263
  10   2.0000     -10.290125      -280.0085
  11   2.0000     -10.289859      -280.0013
  12   2.0000     -10.284170      -279.8465
  13   2.0000     -10.281667      -279.7784
  14   2.0000     -10.277730      -279.6712
  15   2.0000     -10.276868      -279.6478
  16   2.0000      -8.086238      -220.0377
  17   2.0000      -8.076115      -219.7623
  18   2.0000      -6.044764      -164.4864
  19   2.0000      -6.040818      -164.3790
  20   2.0000      -6.037112      -164.2782
  21   2.0000      -6.034716      -164.2130
  22   2.0000      -6.030477      -164.0976
  23   2.0000      -6.026728      -163.9956
  24   2.0000      -1.015093       -27.6221
  25   2.0000      -0.984746       -26.7963
  26   2.0000      -0.906348       -24.6630
  27   2.0000      -0.903332       -24.5809
  28   2.0000      -0.873395       -23.7663
  29   2.0000      -0.847683       -23.0666
  30   2.0000      -0.845185       -22.9987
  31   2.0000      -0.814673       -22.1684
  32   2.0000      -0.780945       -21.2506
  33   2.0000      -0.771625       -20.9970
  34   2.0000      -0.710816       -19.3423
  35   2.0000      -0.698622       -19.0105
  36   2.0000      -0.697416       -18.9776
  37   2.0000      -0.667324       -18.1588
  38   2.0000      -0.642116       -17.4729
  39   2.0000      -0.620226       -16.8772
  40   2.0000      -0.598018       -16.2729
  41   2.0000      -0.573635       -15.6094
  42   2.0000      -0.559469       -15.2239
  43   2.0000      -0.550272       -14.9737
  44   2.0000      -0.538795       -14.6614
  45   2.0000      -0.524615       -14.2755
  46   2.0000      -0.517771       -14.0893
  47   2.0000      -0.513545       -13.9743
  48   2.0000      -0.505574       -13.7574
  49   2.0000      -0.498316       -13.5599
  50   2.0000      -0.485769       -13.2184
  51   2.0000      -0.479605       -13.0507
  52   2.0000      -0.474623       -12.9151
  53   2.0000      -0.467379       -12.7180
  54   2.0000      -0.461054       -12.5459
  55   2.0000      -0.449077       -12.2200
  56   2.0000      -0.441522       -12.0144
  57   2.0000      -0.434272       -11.8171
  58   2.0000      -0.432143       -11.7592
  59   2.0000      -0.424657       -11.5555
  60   2.0000      -0.419418       -11.4130
  61   2.0000      -0.414873       -11.2893
  62   2.0000      -0.405536       -11.0352
  63   2.0000      -0.337046        -9.1715
  64   2.0000      -0.333046        -9.0627
  65   2.0000      -0.320288        -8.7155
  66   2.0000      -0.311804        -8.4846
  67   0.0000       0.043150         1.1742
  68   0.0000       0.055821         1.5190
  69   0.0000       0.112139         3.0515
  70   0.0000       0.114125         3.1055
  71   0.0000       0.127871         3.4796

MULLIKEN ATOMIC CHARGES
-----------------------
   0 S :    0.134018
   1 C :   -0.085528
   2 C :   -0.082630
   3 C :    0.027012
   4 C :   -0.183929
   5 H :    0.024234
   6 C :    0.072330
   7 H :    0.048635
   8 H :    0.010478
   9 C :   -0.063960
  10 H :    0.039958
  11 H :    0.028292
  12 C :   -0.082572
  13 H :    0.032354
  14 H :    0.033916
  15 H :    0.033033
  16 S :    0.103857
  17 C :   -0.056758
  18 C :   -0.042214
  19 C :   -0.028557
  20 C :   -0.186691
  21 H :    0.035509
  22 C :    0.088311
  23 H :    0.013524
  24 H :    0.029837
  25 C :   -0.060081
  26 H :    0.019796
  27 H :    0.004444
  28 C :   -0.054648
  29 H :    0.042441
  30 H :    0.026246
  31 H :    0.040069
  32 H :    0.009158
  33 H :    0.030116
Sum of atomic charges:    0.0000000

LOEWDIN ATOMIC CHARGES
----------------------
   0 S :    0.412407
   1 C :   -0.183252
   2 C :   -0.056918
   3 C :   -0.057456
   4 C :   -0.191746
   5 H :    0.035268
   6 C :   -0.021315
   7 H :    0.039509
   8 H :    0.018389
   9 C :   -0.032161
  10 H :    0.025302
  11 H :    0.018445
  12 C :   -0.076564
  13 H :    0.027868
  14 H :    0.029336
  15 H :    0.019886
  16 S :    0.410782
  17 C :   -0.171678
  18 C :   -0.078883
  19 C :   -0.060606
  20 C :   -0.217609
  21 H :    0.039802
  22 C :   -0.021754
  23 H :    0.022613
  24 H :    0.030242
  25 C :   -0.043770
  26 H :    0.021432
  27 H :    0.015704
  28 C :   -0.070838
  29 H :    0.035241
  30 H :    0.023768
  31 H :    0.027107
  32 H :    0.009732
  33 H :    0.021717

  Mayer bond orders larger than 0.100000
B(  0-S ,  1-C ) :   1.1469 B(  0-S ,  4-C ) :   1.1476 B(  1-C ,  2-C ) :   1.6006
B(  1-C ,  4-C ) :   0.1047 B(  1-C , 32-H ) :   0.9768 B(  2-C ,  3-C ) :   1.2314
B(  2-C ,  6-C ) :   1.0169 B(  3-C ,  4-C ) :   1.5993 B(  3-C ,  5-H ) :   0.9872
B(  4-C , 20-C ) :   1.0090 B(  6-C ,  7-H ) :   0.9463 B(  6-C ,  8-H ) :   0.9478
B(  6-C ,  9-C ) :   1.0575 B(  9-C , 10-H ) :   0.9596 B(  9-C , 11-H ) :   0.9600
B(  9-C , 12-C ) :   1.0672 B( 12-C , 13-H ) :   0.9740 B( 12-C , 14-H ) :   0.9721
B( 12-C , 15-H ) :   0.9795 B( 16-S , 17-C ) :   1.1538 B( 16-S , 20-C ) :   1.1232
B( 17-C , 18-C ) :   1.6074 B( 17-C , 33-H ) :   0.9768 B( 18-C , 19-C ) :   1.2499
B( 18-C , 21-H ) :   0.9759 B( 19-C , 20-C ) :   1.6432 B( 19-C , 22-C ) :   1.0417
B( 22-C , 23-H ) :   0.9290 B( 22-C , 24-H ) :   0.9352 B( 22-C , 25-C ) :   1.0608
B( 25-C , 26-H ) :   0.9528 B( 25-C , 27-H ) :   0.9534 B( 25-C , 28-C ) :   1.0825
B( 28-C , 29-H ) :   0.9734 B( 28-C , 30-H ) :   0.9724 B( 28-C , 31-H ) :   0.9756

Dispersion correction           -0.015093248
FINAL SINGLE POINT ENERGY     -1339.867543338436

DIPOLE MOMENT
-------------
                                X             Y             Z
Electronic contribution:    -10.65159      21.80751      10.07220
Nuclear contribution   :     10.72545     -22.34364     -10.16794
                        -----------------------------------------
Total Dipole Moment    :      0.07386      -0.53613      -0.09574
                        -----------------------------------------
Magnitude (a.u.)       :      0.54959
Magnitude (Debye)      :      1.39695

Rotational constants in cm-1:     0.017643     0.009309     0.007707
Rotational constants in MHz :   528.921879   279.066106   231.038372

                             ****ORCA TERMINATED NORMALLY****
TOTAL RUN TIME: 0 days 0 hours 0 minutes 33 seconds 65 msec
