                         Program Version 4.2.1 -  RELEASE  -
|  1> ! wB97X-D3 SP def2-SVP
|  2> %pal
|  3> nprocs 16
|  4> end
|  5>
|  6> * xyz 0 1
|  7> S 	 4.46398 	 13.5258 	 87.8741
|  8> C 	 3.06049 	 12.9625 	 86.954
|  9> C 	 3.47636 	 12.2511 	 85.8366
| 10> C 	 4.93642 	 12.0708 	 85.7517
| 11> C 	 5.6418 	 12.6298 	 86.7969
| 12> H 	 5.31431 	 11.4738 	 84.9261
| 13> C 	 2.50172 	 11.7459 	 84.7632
| 14> H 	 3.14988 	 11.8312 	 83.882
| 15> H 	 1.67044 	 12.4198 	 84.5808
| 16> C 	 2.10535 	 10.2688 	 84.7609
| 17> H 	 2.89138 	 9.58487 	 85.1291
| 18> H 	 1.31085 	 10.1581 	 85.4101
| 19> C 	 1.6749 	 9.80568 	 83.3522
| 20> H 	 0.633821 	 10.2119 	 83.1245
| 21> H 	 2.38681 	 9.94138 	 82.5714
| 22> H 	 1.46511 	 8.70873 	 83.3786
| 23> S 	 7.6516 	 14.3163 	 87.6597
| 24> C 	 9.29257 	 13.6498 	 87.5769
| 25> C 	 9.37218 	 12.4879 	 86.8706
| 26> C 	 8.11856 	 11.9499 	 86.467
| 27> C 	 7.05943 	 12.8158 	 86.8815
| 28> H 	 10.3514 	 12.0637 	 86.8561
| 29> C 	 8.07286 	 10.5386 	 85.9406
| 30> H 	 7.19935 	 10.0557 	 86.3151
| 31> H 	 8.87104 	 9.96628 	 86.3365
| 32> C 	 8.13625 	 10.4996 	 84.3957
| 33> H 	 9.0725 	 10.9349 	 83.931
| 34> H 	 7.47566 	 11.2804 	 84.0825
| 35> C 	 7.71447 	 9.18698 	 83.7562
| 36> H 	 8.43363 	 8.48789 	 83.99
| 37> H 	 7.5372 	 9.3065 	 82.6482
| 38> H 	 6.84782 	 8.68106 	 84.1235
| 39> H 	 2.04639 	 13.2356 	 87.1724
| 40> H 	 10.1996 	 14.0719 	 87.8825
| 41> *
| 42>
| 43>                          ****END OF INPUT****

CARTESIAN COORDINATES (ANGSTROEM)
---------------------------------
  S      4.463980   13.525800   87.874100
  C      3.060490   12.962500   86.954000
  C      3.476360   12.251100   85.836600
  C      4.936420   12.070800   85.751700
  C      5.641800   12.629800   86.796900
  H      5.314310   11.473800   84.926100
  C      2.501720   11.745900   84.763200
  H      3.149880   11.831200   83.882000
  H      1.670440   12.419800   84.580800
  C      2.105350   10.268800   84.760900
  H      2.891380    9.584870   85.129100
  H      1.310850   10.158100   85.410100
  C      1.674900    9.805680   83.352200
  H      0.633821   10.211900   83.124500
  H      2.386810    9.941380   82.571400
  H      1.465110    8.708730   83.378600
  S      7.651600   14.316300   87.659700
  C      9.292570   13.649800   87.576900
  C      9.372180   12.487900   86.870600
  C      8.118560   11.949900   86.467000
  C      7.059430   12.815800   86.881500
  H     10.351400   12.063700   86.856100
  C      8.072860   10.538600   85.940600
  H      7.199350   10.055700   86.315100
  H      8.871040    9.966280   86.336500
  C      8.136250   10.499600   84.395700
  H      9.072500   10.934900   83.931000
  H      7.475660   11.280400   84.082500
  C      7.714470    9.186980   83.756200
  H      8.433630    8.487890   83.990000
  H      7.537200    9.306500   82.648200
  H      6.847820    8.681060   84.123500
  H      2.046390   13.235600   87.172400
  H     10.199600   14.071900   87.882500

 Total Charge           Charge          ....    0
 Multiplicity           Mult            ....    1
 Number of Electrons    NEL             ....  134
 Basis Dimension        Dim             ....  322

ORBITAL ENERGIES
----------------

  NO   OCC          E(Eh)            E(eV)
   0   2.0000     -88.970963     -2421.0230
   1   2.0000     -88.964241     -2420.8401
   2   2.0000     -10.337319      -281.2927
   3   2.0000     -10.335639      -281.2470
   4   2.0000     -10.315934      -280.7108
   5   2.0000     -10.310414      -280.5606
   6   2.0000     -10.308916      -280.5199
   7   2.0000     -10.305797      -280.4350
   8   2.0000     -10.301073      -280.3064
   9   2.0000     -10.292337      -280.0687
  10   2.0000     -10.289927      -280.0032
  11   2.0000     -10.289213      -279.9837
  12   2.0000     -10.288287      -279.9585
  13   2.0000     -10.285126      -279.8725
  14   2.0000     -10.284082      -279.8441
  15   2.0000     -10.275557      -279.6121
  16   2.0000      -8.084361      -219.9867
  17   2.0000      -8.077521      -219.8005
  18   2.0000      -6.043004      -164.4385
  19   2.0000      -6.039229      -164.3358
  20   2.0000      -6.036434      -164.2597
  21   2.0000      -6.034884      -164.2175
  22   2.0000      -6.032241      -164.1456
  23   2.0000      -6.027923      -164.0281
  24   2.0000      -0.998369       -27.1670
  25   2.0000      -0.973490       -26.4900
  26   2.0000      -0.912552       -24.8318
  27   2.0000      -0.909427       -24.7468
  28   2.0000      -0.872838       -23.7511
  29   2.0000      -0.854686       -23.2572
  30   2.0000      -0.840829       -22.8801
  31   2.0000      -0.817600       -22.2480
  32   2.0000      -0.784190       -21.3389
  33   2.0000      -0.768698       -20.9173
  34   2.0000      -0.714861       -19.4524
  35   2.0000      -0.704555       -19.1719
  36   2.0000      -0.702853       -19.1256
  37   2.0000      -0.661018       -17.9872
  38   2.0000      -0.636382       -17.3168
  39   2.0000      -0.624144       -16.9838
  40   2.0000      -0.597134       -16.2488
  41   2.0000      -0.569135       -15.4870
  42   2.0000      -0.563599       -15.3363
  43   2.0000      -0.557005       -15.1569
  44   2.0000      -0.532262       -14.4836
  45   2.0000      -0.524743       -14.2790
  46   2.0000      -0.515547       -14.0287
  47   2.0000      -0.508009       -13.8236
  48   2.0000      -0.503300       -13.6955
  49   2.0000      -0.501021       -13.6335
  50   2.0000      -0.497067       -13.5259
  51   2.0000      -0.486378       -13.2350
  52   2.0000      -0.473314       -12.8795
  53   2.0000      -0.466865       -12.7040
  54   2.0000      -0.459643       -12.5075
  55   2.0000      -0.450078       -12.2472
  56   2.0000      -0.445611       -12.1257
  57   2.0000      -0.436028       -11.8649
  58   2.0000      -0.432612       -11.7720
  59   2.0000      -0.426977       -11.6186
  60   2.0000      -0.424782       -11.5589
  61   2.0000      -0.411590       -11.1999
  62   2.0000      -0.406570       -11.0633
  63   2.0000      -0.361469        -9.8361
  64   2.0000      -0.335579        -9.1316
  65   2.0000      -0.324653        -8.8342
  66   2.0000      -0.280840        -7.6420
  67   0.0000       0.015107         0.4111
  68   0.0000       0.074163         2.0181
  69   0.0000       0.100124         2.7245
  70   0.0000       0.120470         3.2782
  71   0.0000       0.128106         3.4860

MULLIKEN ATOMIC CHARGES
-----------------------
   0 S :    0.073939
   1 C :   -0.106096
   2 C :   -0.101901
   3 C :    0.017892
   4 C :   -0.101699
   5 H :    0.012788
   6 C :    0.048394
   7 H :    0.012610
   8 H :    0.031006
   9 C :   -0.026394
  10 H :    0.032928
  11 H :    0.011005
  12 C :   -0.085882
  13 H :    0.039215
  14 H :    0.037938
  15 H :    0.032316
  16 S :    0.108930
  17 C :   -0.063469
  18 C :   -0.035647
  19 C :   -0.041110
  20 C :   -0.140553
  21 H :    0.012830
  22 C :    0.107238
  23 H :    0.017165
  24 H :    0.015377
  25 C :   -0.094100
  26 H :    0.032653
  27 H :    0.014082
  28 C :   -0.009381
  29 H :    0.012485
  30 H :    0.046596
  31 H :    0.015552
  32 H :    0.045374
  33 H :    0.027920
Sum of atomic charges:   -0.0000000

LOEWDIN ATOMIC CHARGES
----------------------
   0 S :    0.353879
   1 C :   -0.185563
   2 C :   -0.060146
   3 C :   -0.060469
   4 C :   -0.166478
   5 H :    0.031080
   6 C :   -0.035018
   7 H :    0.030849
   8 H :    0.031016
   9 C :   -0.036809
  10 H :    0.028742
  11 H :    0.013923
  12 C :   -0.069944
  13 H :    0.032935
  14 H :    0.018485
  15 H :    0.030205
  16 S :    0.382728
  17 C :   -0.171489
  18 C :   -0.066459
  19 C :   -0.046274
  20 C :   -0.178129
  21 H :    0.031206
  22 C :   -0.022041
  23 H :    0.028498
  24 H :    0.025652
  25 C :   -0.045766
  26 H :    0.033960
  27 H :    0.015443
  28 C :   -0.066379
  29 H :    0.016005
  30 H :    0.037678
  31 H :    0.021902
  32 H :    0.027377
  33 H :    0.019399

  Mayer bond orders larger than 0.100000
B(  0-S ,  1-C ) :   1.1129 B(  0-S ,  4-C ) :   1.1093 B(  1-C ,  2-C ) :   1.6322
B(  1-C , 32-H ) :   0.9733 B(  2-C ,  3-C ) :   1.2358 B(  2-C ,  6-C ) :   1.0181
B(  3-C ,  4-C ) :   1.5624 B(  3-C ,  5-H ) :   0.9836 B(  4-C , 20-C ) :   1.1177
B(  6-C ,  7-H ) :   0.9433 B(  6-C ,  8-H ) :   0.9476 B(  6-C ,  9-C ) :   1.0523
B(  9-C , 10-H ) :   0.9574 B(  9-C , 11-H ) :   0.9518 B(  9-C , 12-C ) :   1.0832
B( 12-C , 13-H ) :   0.9749 B( 12-C , 14-H ) :   0.9782 B( 12-C , 15-H ) :   0.9734
B( 16-S , 17-C ) :   1.1225 B( 16-S , 20-C ) :   1.1254 B( 17-C , 18-C ) :   1.6705
B( 17-C , 33-H ) :   0.9653 B( 18-C , 19-C ) :   1.2240 B( 18-C , 21-H ) :   0.9874
B( 19-C , 20-C ) :   1.5653 B( 19-C , 22-C ) :   1.0525 B( 22-C , 23-H ) :   0.9327
B( 22-C , 24-H ) :   0.9357 B( 22-C , 25-C ) :   1.0431 B( 25-C , 26-H ) :   0.9490
B( 25-C , 27-H ) :   0.9585 B( 25-C , 28-C ) :   1.0777 B( 28-C , 29-H ) :   0.9703
B( 28-C , 30-H ) :   0.9732 B( 28-C , 31-H ) :   0.9719

Dispersion correction           -0.013925762
FINAL SINGLE POINT ENERGY     -1339.858894125285

DIPOLE MOMENT
-------------
                                X             Y             Z
Electronic contribution:      7.67152      24.17949      22.91337
Nuclear contribution   :     -7.66173     -24.77323     -23.42459
                        -----------------------------------------
Total Dipole Moment    :      0.00979      -0.59374      -0.51122
                        -----------------------------------------
Magnitude (a.u.)       :      0.78356
Magnitude (Debye)      :      1.99165

Rotational constants in cm-1:     0.017297     0.009255     0.006235
Rotational constants in MHz :   518.555802   277.462108   186.926682

                             ****ORCA TERMINATED NORMALLY****
TOTAL RUN TIME: 0 days 0 hours 0 minutes 32 seconds 973 msec
