                         Program Version 4.2.1 -  RELEASE  -
|  1> ! wB97X-D3 SP def2-SVP
|  2> %pal
|  3> nprocs 16
|  4> end
|  5>
|  6> * xyz 0 1
|  7> S 	 41.1032 	 8.0693 	 78.4842
|  8> C 	 40.9556 	 6.94697 	 79.703
|  9> C 	 39.6952 	 6.8842 	 80.2188
| 10> C 	 38.768 	 7.77991 	 79.5347
| 11> C 	 39.4568 	 8.51547 	 78.5556
| 12> H 	 37.7774 	 7.98863 	 79.7378
| 13> C 	 39.1841 	 5.90043 	 81.2371
| 14> H 	 40.1345 	 5.40105 	 81.7018
| 15> H 	 38.6387 	 5.07126 	 80.7772
| 16> C 	 38.4728 	 6.42211 	 82.4004
| 17> H 	 37.4551 	 6.72593 	 82.0544
| 18> H 	 38.3064 	 5.62803 	 83.1186
| 19> C 	 39.2646 	 7.64847 	 82.9951
| 20> H 	 38.5392 	 8.12144 	 83.7062
| 21> H 	 40.1816 	 7.37056 	 83.4305
| 22> H 	 39.5193 	 8.38871 	 82.2287
| 23> S 	 39.8389 	 11.0408 	 77.7155
| 24> C 	 38.656 	 11.8207 	 76.7582
| 25> C 	 37.5311 	 11.076 	 76.5496
| 26> C 	 37.6278 	 9.78911 	 77.1673
| 27> C 	 38.8819 	 9.59766 	 77.8036
| 28> H 	 36.6578 	 11.4938 	 76.1041
| 29> C 	 36.4477 	 8.91168 	 77.1312
| 30> H 	 36.9537 	 7.95493 	 77.3296
| 31> H 	 35.9985 	 8.95478 	 76.1324
| 32> C 	 35.3868 	 9.13467 	 78.2479
| 33> H 	 35.796 	 8.89694 	 79.2631
| 34> H 	 34.6065 	 8.39221 	 78.0584
| 35> C 	 34.6943 	 10.5558 	 78.0588
| 36> H 	 35.3488 	 11.3218 	 78.4519
| 37> H 	 33.7736 	 10.5354 	 78.6268
| 38> H 	 34.5098 	 10.7271 	 77.0024
| 39> H 	 41.7737 	 6.24617 	 79.9698
| 40> H 	 38.7456 	 12.8722 	 76.4334
| 41> *
| 42>
| 43>                          ****END OF INPUT****

CARTESIAN COORDINATES (ANGSTROEM)
---------------------------------
  S     41.103200    8.069300   78.484200
  C     40.955600    6.946970   79.703000
  C     39.695200    6.884200   80.218800
  C     38.768000    7.779910   79.534700
  C     39.456800    8.515470   78.555600
  H     37.777400    7.988630   79.737800
  C     39.184100    5.900430   81.237100
  H     40.134500    5.401050   81.701800
  H     38.638700    5.071260   80.777200
  C     38.472800    6.422110   82.400400
  H     37.455100    6.725930   82.054400
  H     38.306400    5.628030   83.118600
  C     39.264600    7.648470   82.995100
  H     38.539200    8.121440   83.706200
  H     40.181600    7.370560   83.430500
  H     39.519300    8.388710   82.228700
  S     39.838900   11.040800   77.715500
  C     38.656000   11.820700   76.758200
  C     37.531100   11.076000   76.549600
  C     37.627800    9.789110   77.167300
  C     38.881900    9.597660   77.803600
  H     36.657800   11.493800   76.104100
  C     36.447700    8.911680   77.131200
  H     36.953700    7.954930   77.329600
  H     35.998500    8.954780   76.132400
  C     35.386800    9.134670   78.247900
  H     35.796000    8.896940   79.263100
  H     34.606500    8.392210   78.058400
  C     34.694300   10.555800   78.058800
  H     35.348800   11.321800   78.451900
  H     33.773600   10.535400   78.626800
  H     34.509800   10.727100   77.002400
  H     41.773700    6.246170   79.969800
  H     38.745600   12.872200   76.433400

 Total Charge           Charge          ....    0
 Multiplicity           Mult            ....    1
 Number of Electrons    NEL             ....  134
 Basis Dimension        Dim             ....  322

ORBITAL ENERGIES
----------------

  NO   OCC          E(Eh)            E(eV)
   0   2.0000     -88.967210     -2420.9209
   1   2.0000     -88.964702     -2420.8526
   2   2.0000     -10.326216      -280.9906
   3   2.0000     -10.324449      -280.9425
   4   2.0000     -10.311828      -280.5991
   5   2.0000     -10.309309      -280.5306
   6   2.0000     -10.300290      -280.2851
   7   2.0000     -10.299846      -280.2731
   8   2.0000     -10.297140      -280.1994
   9   2.0000     -10.291812      -280.0545
  10   2.0000     -10.290160      -280.0095
  11   2.0000     -10.288497      -279.9642
  12   2.0000     -10.286303      -279.9045
  13   2.0000     -10.285387      -279.8796
  14   2.0000     -10.280973      -279.7595
  15   2.0000     -10.274792      -279.5913
  16   2.0000      -8.084344      -219.9862
  17   2.0000      -8.080546      -219.8828
  18   2.0000      -6.042632      -164.4284
  19   2.0000      -6.038905      -164.3270
  20   2.0000      -6.038393      -164.3130
  21   2.0000      -6.035311      -164.2292
  22   2.0000      -6.034882      -164.2175
  23   2.0000      -6.031426      -164.1234
  24   2.0000      -1.017858       -27.6973
  25   2.0000      -0.993065       -27.0227
  26   2.0000      -0.919945       -25.0330
  27   2.0000      -0.910234       -24.7687
  28   2.0000      -0.875808       -23.8320
  29   2.0000      -0.849564       -23.1178
  30   2.0000      -0.842875       -22.9358
  31   2.0000      -0.813585       -22.1388
  32   2.0000      -0.783266       -21.3137
  33   2.0000      -0.772371       -21.0173
  34   2.0000      -0.712072       -19.3765
  35   2.0000      -0.700060       -19.0496
  36   2.0000      -0.686865       -18.6906
  37   2.0000      -0.665587       -18.1115
  38   2.0000      -0.645521       -17.5655
  39   2.0000      -0.617968       -16.8158
  40   2.0000      -0.587857       -15.9964
  41   2.0000      -0.568429       -15.4677
  42   2.0000      -0.557768       -15.1776
  43   2.0000      -0.554727       -15.0949
  44   2.0000      -0.545163       -14.8346
  45   2.0000      -0.542141       -14.7524
  46   2.0000      -0.521464       -14.1898
  47   2.0000      -0.511554       -13.9201
  48   2.0000      -0.500531       -13.6201
  49   2.0000      -0.499908       -13.6032
  50   2.0000      -0.496106       -13.4997
  51   2.0000      -0.479280       -13.0419
  52   2.0000      -0.473804       -12.8929
  53   2.0000      -0.468932       -12.7603
  54   2.0000      -0.460141       -12.5211
  55   2.0000      -0.451825       -12.2948
  56   2.0000      -0.446853       -12.1595
  57   2.0000      -0.442253       -12.0343
  58   2.0000      -0.431818       -11.7504
  59   2.0000      -0.424102       -11.5404
  60   2.0000      -0.420272       -11.4362
  61   2.0000      -0.409908       -11.1542
  62   2.0000      -0.403794       -10.9878
  63   2.0000      -0.356752        -9.7077
  64   2.0000      -0.329516        -8.9666
  65   2.0000      -0.328551        -8.9403
  66   2.0000      -0.286532        -7.7969
  67   0.0000       0.032361         0.8806
  68   0.0000       0.080353         2.1865
  69   0.0000       0.115072         3.1313
  70   0.0000       0.122759         3.3404
  71   0.0000       0.129771         3.5312

MULLIKEN ATOMIC CHARGES
-----------------------
   0 S :    0.135377
   1 C :   -0.125832
   2 C :   -0.095234
   3 C :    0.066474
   4 C :   -0.152048
   5 H :   -0.049508
   6 C :    0.039917
   7 H :    0.014003
   8 H :    0.044164
   9 C :   -0.077842
  10 H :    0.023231
  11 H :    0.033644
  12 C :   -0.053085
  13 H :    0.040068
  14 H :    0.024611
  15 H :    0.051802
  16 S :    0.114603
  17 C :   -0.095588
  18 C :   -0.028605
  19 C :   -0.038286
  20 C :   -0.159459
  21 H :    0.004879
  22 C :    0.035663
  23 H :    0.026176
  24 H :    0.034627
  25 C :   -0.081295
  26 H :    0.045634
  27 H :    0.033506
  28 C :   -0.054798
  29 H :    0.051770
  30 H :    0.037271
  31 H :    0.030701
  32 H :    0.061850
  33 H :    0.061609
Sum of atomic charges:   -0.0000000

LOEWDIN ATOMIC CHARGES
----------------------
   0 S :    0.459634
   1 C :   -0.230785
   2 C :   -0.065980
   3 C :   -0.052583
   4 C :   -0.209299
   5 H :    0.012059
   6 C :   -0.044144
   7 H :    0.031952
   8 H :    0.031898
   9 C :   -0.045512
  10 H :    0.020500
  11 H :    0.026412
  12 C :   -0.060107
  13 H :    0.031422
  14 H :    0.017320
  15 H :    0.030974
  16 S :    0.428899
  17 C :   -0.200483
  18 C :   -0.072248
  19 C :   -0.056242
  20 C :   -0.208528
  21 H :    0.027378
  22 C :   -0.041703
  23 H :    0.034090
  24 H :    0.033668
  25 C :   -0.033391
  26 H :    0.025295
  27 H :    0.024100
  28 C :   -0.061665
  29 H :    0.026945
  30 H :    0.025884
  31 H :    0.022457
  32 H :    0.038726
  33 H :    0.033058

  Mayer bond orders larger than 0.100000
B(  0-S ,  1-C ) :   1.1515 B(  0-S ,  4-C ) :   1.1819 B(  1-C ,  2-C ) :   1.6103
B(  1-C , 32-H ) :   0.9594 B(  2-C ,  3-C ) :   1.2310 B(  2-C ,  6-C ) :   1.0214
B(  3-C ,  4-C ) :   1.5289 B(  3-C ,  5-H ) :   1.0114 B(  4-C , 20-C ) :   1.0616
B(  6-C ,  7-H ) :   0.9382 B(  6-C ,  8-H ) :   0.9408 B(  6-C ,  9-C ) :   1.0859
B(  9-C , 10-H ) :   0.9491 B(  9-C , 11-H ) :   0.9541 B(  9-C , 12-C ) :   1.0679
B( 12-C , 13-H ) :   0.9759 B( 12-C , 14-H ) :   0.9777 B( 12-C , 15-H ) :   0.9686
B( 16-S , 17-C ) :   1.1668 B( 16-S , 20-C ) :   1.1554 B( 17-C , 18-C ) :   1.5977
B( 17-C , 33-H ) :   0.9605 B( 18-C , 19-C ) :   1.2515 B( 18-C , 21-H ) :   0.9927
B( 19-C , 20-C ) :   1.5558 B( 19-C , 22-C ) :   1.0491 B( 22-C , 23-H ) :   0.9218
B( 22-C , 24-H ) :   0.9372 B( 22-C , 25-C ) :   1.0813 B( 25-C , 26-H ) :   0.9518
B( 25-C , 27-H ) :   0.9563 B( 25-C , 28-C ) :   1.0668 B( 28-C , 29-H ) :   0.9743
B( 28-C , 30-H ) :   0.9736 B( 28-C , 31-H ) :   0.9740

Dispersion correction           -0.015242774
FINAL SINGLE POINT ENERGY     -1339.879682577215

DIPOLE MOMENT
-------------
                                X             Y             Z
Electronic contribution:     20.76189       6.85087     -13.98198
Nuclear contribution   :    -21.31209      -6.99957      14.19522
                        -----------------------------------------
Total Dipole Moment    :     -0.55019      -0.14869       0.21324
                        -----------------------------------------
Magnitude (a.u.)       :      0.60852
Magnitude (Debye)      :      1.54673

Rotational constants in cm-1:     0.019167     0.009585     0.007349
Rotational constants in MHz :   574.625537   287.346690   220.308051

                             ****ORCA TERMINATED NORMALLY****
TOTAL RUN TIME: 0 days 0 hours 0 minutes 31 seconds 799 msec
