                         Program Version 4.2.1 -  RELEASE  -
|  1> ! wB97X-D3 SP def2-SVP
|  2> %pal
|  3> nprocs 16
|  4> end
|  5>
|  6> * xyz 0 1
|  7> S 	 -85.5852 	 53.1922 	 136.682
|  8> C 	 -86.3884 	 53.5548 	 138.15
|  9> C 	 -85.4796 	 53.9733 	 139.12
| 10> C 	 -84.0825 	 53.7615 	 138.764
| 11> C 	 -83.9537 	 53.2051 	 137.478
| 12> H 	 -83.295 	 54.0773 	 139.409
| 13> C 	 -85.8778 	 54.6302 	 140.384
| 14> H 	 -87.014 	 54.7129 	 140.504
| 15> H 	 -85.6316 	 55.7093 	 140.379
| 16> C 	 -85.2284 	 54.0041 	 141.628
| 17> H 	 -85.5551 	 52.9814 	 141.638
| 18> H 	 -84.1349 	 54.0191 	 141.54
| 19> C 	 -85.6914 	 54.6296 	 142.989
| 20> H 	 -86.7702 	 54.3512 	 143.035
| 21> H 	 -85.2415 	 54.1778 	 143.83
| 22> H 	 -85.5643 	 55.6733 	 143.021
| 23> S 	 -82.6195 	 53.4394 	 135.097
| 24> C 	 -80.9225 	 52.9442 	 134.998
| 25> C 	 -80.4256 	 52.4194 	 136.152
| 26> C 	 -81.45 	 52.3844 	 137.152
| 27> C 	 -82.6595 	 52.916 	 136.794
| 28> H 	 -79.3738 	 52.1435 	 136.281
| 29> C 	 -80.9723 	 52.0369 	 138.582
| 30> H 	 -80.6722 	 51.0043 	 138.51
| 31> H 	 -81.7641 	 52.0955 	 139.323
| 32> C 	 -79.7823 	 52.8267 	 139.096
| 33> H 	 -78.9128 	 52.6759 	 138.423
| 34> H 	 -79.4935 	 52.5532 	 140.047
| 35> C 	 -80.0451 	 54.3313 	 139.307
| 36> H 	 -79.0625 	 54.7352 	 139.563
| 37> H 	 -80.6944 	 54.5349 	 140.125
| 38> H 	 -80.412 	 54.8251 	 138.466
| 39> H 	 -87.4347 	 53.7623 	 138.231
| 40> H 	 -80.2805 	 53.02 	 134.163
| 41> *
| 42>
| 43>                          ****END OF INPUT****

CARTESIAN COORDINATES (ANGSTROEM)
---------------------------------
  S    -85.585200   53.192200  136.682000
  C    -86.388400   53.554800  138.150000
  C    -85.479600   53.973300  139.120000
  C    -84.082500   53.761500  138.764000
  C    -83.953700   53.205100  137.478000
  H    -83.295000   54.077300  139.409000
  C    -85.877800   54.630200  140.384000
  H    -87.014000   54.712900  140.504000
  H    -85.631600   55.709300  140.379000
  C    -85.228400   54.004100  141.628000
  H    -85.555100   52.981400  141.638000
  H    -84.134900   54.019100  141.540000
  C    -85.691400   54.629600  142.989000
  H    -86.770200   54.351200  143.035000
  H    -85.241500   54.177800  143.830000
  H    -85.564300   55.673300  143.021000
  S    -82.619500   53.439400  135.097000
  C    -80.922500   52.944200  134.998000
  C    -80.425600   52.419400  136.152000
  C    -81.450000   52.384400  137.152000
  C    -82.659500   52.916000  136.794000
  H    -79.373800   52.143500  136.281000
  C    -80.972300   52.036900  138.582000
  H    -80.672200   51.004300  138.510000
  H    -81.764100   52.095500  139.323000
  C    -79.782300   52.826700  139.096000
  H    -78.912800   52.675900  138.423000
  H    -79.493500   52.553200  140.047000
  C    -80.045100   54.331300  139.307000
  H    -79.062500   54.735200  139.563000
  H    -80.694400   54.534900  140.125000
  H    -80.412000   54.825100  138.466000
  H    -87.434700   53.762300  138.231000
  H    -80.280500   53.020000  134.163000

 Total Charge           Charge          ....    0
 Multiplicity           Mult            ....    1
 Number of Electrons    NEL             ....  134
 Basis Dimension        Dim             ....  322

ORBITAL ENERGIES
----------------

  NO   OCC          E(Eh)            E(eV)
   0   2.0000     -88.969139     -2420.9734
   1   2.0000     -88.965289     -2420.8686
   2   2.0000     -10.343348      -281.4568
   3   2.0000     -10.332502      -281.1617
   4   2.0000     -10.315899      -280.7099
   5   2.0000     -10.312309      -280.6122
   6   2.0000     -10.304696      -280.4050
   7   2.0000     -10.301926      -280.3297
   8   2.0000     -10.300245      -280.2839
   9   2.0000     -10.296248      -280.1752
  10   2.0000     -10.294707      -280.1332
  11   2.0000     -10.288496      -279.9642
  12   2.0000     -10.287478      -279.9365
  13   2.0000     -10.282818      -279.8097
  14   2.0000     -10.276707      -279.6434
  15   2.0000     -10.268628      -279.4236
  16   2.0000      -8.083254      -219.9565
  17   2.0000      -8.079573      -219.8564
  18   2.0000      -6.042030      -164.4120
  19   2.0000      -6.038227      -164.3085
  20   2.0000      -6.037907      -164.2998
  21   2.0000      -6.034316      -164.2021
  22   2.0000      -6.033704      -164.1854
  23   2.0000      -6.030035      -164.0856
  24   2.0000      -1.001937       -27.2641
  25   2.0000      -0.982820       -26.7439
  26   2.0000      -0.912000       -24.8168
  27   2.0000      -0.908988       -24.7348
  28   2.0000      -0.870161       -23.6783
  29   2.0000      -0.850565       -23.1451
  30   2.0000      -0.844888       -22.9906
  31   2.0000      -0.818761       -22.2796
  32   2.0000      -0.783909       -21.3312
  33   2.0000      -0.771413       -20.9912
  34   2.0000      -0.712942       -19.4001
  35   2.0000      -0.697657       -18.9842
  36   2.0000      -0.693287       -18.8653
  37   2.0000      -0.664181       -18.0733
  38   2.0000      -0.641157       -17.4468
  39   2.0000      -0.624762       -17.0006
  40   2.0000      -0.596829       -16.2405
  41   2.0000      -0.570988       -15.5374
  42   2.0000      -0.562476       -15.3057
  43   2.0000      -0.555599       -15.1186
  44   2.0000      -0.547335       -14.8937
  45   2.0000      -0.524201       -14.2642
  46   2.0000      -0.518853       -14.1187
  47   2.0000      -0.510194       -13.8831
  48   2.0000      -0.505582       -13.7576
  49   2.0000      -0.503629       -13.7044
  50   2.0000      -0.494298       -13.4505
  51   2.0000      -0.483716       -13.1626
  52   2.0000      -0.466769       -12.7014
  53   2.0000      -0.464757       -12.6467
  54   2.0000      -0.457106       -12.4385
  55   2.0000      -0.453594       -12.3429
  56   2.0000      -0.448264       -12.1979
  57   2.0000      -0.435157       -11.8412
  58   2.0000      -0.434604       -11.8262
  59   2.0000      -0.426743       -11.6123
  60   2.0000      -0.422589       -11.4992
  61   2.0000      -0.418109       -11.3773
  62   2.0000      -0.409636       -11.1467
  63   2.0000      -0.357337        -9.7236
  64   2.0000      -0.333360        -9.0712
  65   2.0000      -0.323859        -8.8126
  66   2.0000      -0.289178        -7.8689
  67   0.0000       0.024850         0.6762
  68   0.0000       0.070283         1.9125
  69   0.0000       0.096167         2.6168
  70   0.0000       0.122350         3.3293
  71   0.0000       0.127323         3.4646

MULLIKEN ATOMIC CHARGES
-----------------------
   0 S :    0.105132
   1 C :   -0.094637
   2 C :   -0.087673
   3 C :    0.032515
   4 C :   -0.101796
   5 H :    0.003245
   6 C :    0.024303
   7 H :    0.021617
   8 H :    0.037283
   9 C :   -0.110651
  10 H :    0.030784
  11 H :    0.031694
  12 C :   -0.016063
  13 H :    0.029971
  14 H :    0.028373
  15 H :    0.026064
  16 S :    0.087055
  17 C :   -0.056289
  18 C :   -0.051193
  19 C :   -0.057515
  20 C :   -0.147624
  21 H :    0.033961
  22 C :    0.088022
  23 H :    0.024956
  24 H :    0.015636
  25 C :   -0.061972
  26 H :    0.023330
  27 H :    0.010357
  28 C :   -0.033863
  29 H :    0.026569
  30 H :    0.023270
  31 H :    0.031729
  32 H :    0.047054
  33 H :    0.036358
Sum of atomic charges:    0.0000000

LOEWDIN ATOMIC CHARGES
----------------------
   0 S :    0.395925
   1 C :   -0.207453
   2 C :   -0.062474
   3 C :   -0.053923
   4 C :   -0.169934
   5 H :    0.025615
   6 C :   -0.045287
   7 H :    0.033992
   8 H :    0.033707
   9 C :   -0.039495
  10 H :    0.023505
  11 H :    0.018736
  12 C :   -0.057104
  13 H :    0.031687
  14 H :    0.021318
  15 H :    0.016548
  16 S :    0.378707
  17 C :   -0.162394
  18 C :   -0.070925
  19 C :   -0.057922
  20 C :   -0.183690
  21 H :    0.038467
  22 C :   -0.028366
  23 H :    0.031747
  24 H :    0.024732
  25 C :   -0.032481
  26 H :    0.022065
  27 H :    0.016576
  28 C :   -0.054936
  29 H :    0.029920
  30 H :    0.017614
  31 H :    0.016497
  32 H :    0.027524
  33 H :    0.021503

  Mayer bond orders larger than 0.100000
B(  0-S ,  1-C ) :   1.1346 B(  0-S ,  4-C ) :   1.1435 B(  1-C ,  2-C ) :   1.6065
B(  1-C , 32-H ) :   0.9660 B(  2-C ,  3-C ) :   1.2375 B(  2-C ,  6-C ) :   1.0474
B(  3-C ,  4-C ) :   1.5491 B(  3-C ,  5-H ) :   0.9946 B(  4-C , 20-C ) :   1.0450
B(  6-C ,  7-H ) :   0.9443 B(  6-C ,  8-H ) :   0.9300 B(  6-C ,  9-C ) :   1.0482
B(  9-C , 10-H ) :   0.9609 B(  9-C , 11-H ) :   0.9555 B(  9-C , 12-C ) :   1.0817
B( 12-C , 13-H ) :   0.9759 B( 12-C , 14-H ) :   0.9749 B( 12-C , 15-H ) :   0.9777
B( 16-S , 17-C ) :   1.1406 B( 16-S , 20-C ) :   1.1086 B( 17-C , 18-C ) :   1.6542
B( 17-C , 33-H ) :   0.9664 B( 18-C , 19-C ) :   1.2017 B( 18-C , 21-H ) :   0.9859
B( 19-C , 20-C ) :   1.6589 B( 19-C , 22-C ) :   1.0343 B( 22-C , 23-H ) :   0.9236
B( 22-C , 24-H ) :   0.9438 B( 22-C , 25-C ) :   1.0876 B( 25-C , 26-H ) :   0.9522
B( 25-C , 27-H ) :   0.9509 B( 25-C , 28-C ) :   1.0764 B( 28-C , 29-H ) :   0.9719
B( 28-C , 30-H ) :   0.9723 B( 28-C , 31-H ) :   0.9785

Dispersion correction           -0.014491601
FINAL SINGLE POINT ENERGY     -1339.871877574811

DIPOLE MOMENT
-------------
                                X             Y             Z
Electronic contribution:     -7.52935      -5.22591     -29.88905
Nuclear contribution   :      7.93221       5.44754      30.55831
                        -----------------------------------------
Total Dipole Moment    :      0.40286       0.22163       0.66926
                        -----------------------------------------
Magnitude (a.u.)       :      0.81199
Magnitude (Debye)      :      2.06391

Rotational constants in cm-1:     0.018481     0.009175     0.006500
Rotational constants in MHz :   554.033555   275.066208   194.863824

                             ****ORCA TERMINATED NORMALLY****
TOTAL RUN TIME: 0 days 0 hours 0 minutes 35 seconds 643 msec
