                         Program Version 4.2.1 -  RELEASE  -
|  1> ! wB97X-D3 SP def2-SVP
|  2> %pal
|  3> nprocs 16
|  4> end
|  5>
|  6> * xyz 0 1
|  7> S 	 57.1058 	 12.7022 	 58.2065
|  8> C 	 55.8463 	 13.9014 	 58.505
|  9> C 	 56.2204 	 14.8215 	 59.4624
| 10> C 	 57.6112 	 14.7217 	 59.7667
| 11> C 	 58.2444 	 13.7192 	 59.0719
| 12> H 	 58.1252 	 15.2903 	 60.4915
| 13> C 	 55.2456 	 15.9522 	 60.0169
| 14> H 	 54.8314 	 15.4812 	 60.9229
| 15> H 	 54.4699 	 16.0639 	 59.2244
| 16> C 	 55.9962 	 17.3138 	 60.2891
| 17> H 	 56.8347 	 17.0551 	 60.9772
| 18> H 	 56.408 	 17.7214 	 59.3199
| 19> C 	 55.1718 	 18.3079 	 60.9795
| 20> H 	 55.7724 	 19.1755 	 61.1672
| 21> H 	 54.3239 	 18.7421 	 60.3786
| 22> H 	 54.7746 	 17.8405 	 61.9025
| 23> S 	 59.8165 	 12.0138 	 60.6071
| 24> C 	 61.5323 	 12.1571 	 60.3889
| 25> C 	 61.9355 	 13.173 	 59.6325
| 26> C 	 60.8143 	 13.8327 	 59.0076
| 27> C 	 59.6149 	 13.2058 	 59.2994
| 28> H 	 63.0045 	 13.3612 	 59.5085
| 29> C 	 60.9436 	 14.9482 	 57.976
| 30> H 	 60.8552 	 15.9301 	 58.4121
| 31> H 	 60.083 	 14.941 	 57.2694
| 32> C 	 62.1929 	 14.9072 	 57.1317
| 33> H 	 63.0866 	 14.8366 	 57.7863
| 34> H 	 62.2084 	 15.797 	 56.5147
| 35> C 	 62.1894 	 13.7041 	 56.1601
| 36> H 	 61.3989 	 13.5111 	 55.4447
| 37> H 	 62.098 	 12.8138 	 56.8223
| 38> H 	 63.1759 	 13.7588 	 55.6707
| 39> H 	 54.8339 	 13.7571 	 58.0776
| 40> H 	 62.1085 	 11.4629 	 60.8938
| 41> *
| 42>
| 43>                          ****END OF INPUT****

CARTESIAN COORDINATES (ANGSTROEM)
---------------------------------
  S     57.105800   12.702200   58.206500
  C     55.846300   13.901400   58.505000
  C     56.220400   14.821500   59.462400
  C     57.611200   14.721700   59.766700
  C     58.244400   13.719200   59.071900
  H     58.125200   15.290300   60.491500
  C     55.245600   15.952200   60.016900
  H     54.831400   15.481200   60.922900
  H     54.469900   16.063900   59.224400
  C     55.996200   17.313800   60.289100
  H     56.834700   17.055100   60.977200
  H     56.408000   17.721400   59.319900
  C     55.171800   18.307900   60.979500
  H     55.772400   19.175500   61.167200
  H     54.323900   18.742100   60.378600
  H     54.774600   17.840500   61.902500
  S     59.816500   12.013800   60.607100
  C     61.532300   12.157100   60.388900
  C     61.935500   13.173000   59.632500
  C     60.814300   13.832700   59.007600
  C     59.614900   13.205800   59.299400
  H     63.004500   13.361200   59.508500
  C     60.943600   14.948200   57.976000
  H     60.855200   15.930100   58.412100
  H     60.083000   14.941000   57.269400
  C     62.192900   14.907200   57.131700
  H     63.086600   14.836600   57.786300
  H     62.208400   15.797000   56.514700
  C     62.189400   13.704100   56.160100
  H     61.398900   13.511100   55.444700
  H     62.098000   12.813800   56.822300
  H     63.175900   13.758800   55.670700
  H     54.833900   13.757100   58.077600
  H     62.108500   11.462900   60.893800

 Total Charge           Charge          ....    0
 Multiplicity           Mult            ....    1
 Number of Electrons    NEL             ....  134
 Basis Dimension        Dim             ....  322

ORBITAL ENERGIES
----------------

  NO   OCC          E(Eh)            E(eV)
   0   2.0000     -88.961649     -2420.7695
   1   2.0000     -88.959240     -2420.7040
   2   2.0000     -10.325093      -280.9601
   3   2.0000     -10.322317      -280.8845
   4   2.0000     -10.314324      -280.6670
   5   2.0000     -10.307287      -280.4755
   6   2.0000     -10.305492      -280.4267
   7   2.0000     -10.304090      -280.3885
   8   2.0000     -10.302853      -280.3549
   9   2.0000     -10.294396      -280.1248
  10   2.0000     -10.292499      -280.0731
  11   2.0000     -10.290745      -280.0254
  12   2.0000     -10.286757      -279.9169
  13   2.0000     -10.285449      -279.8813
  14   2.0000     -10.279034      -279.7067
  15   2.0000     -10.273392      -279.5532
  16   2.0000      -8.076406      -219.7702
  17   2.0000      -8.074585      -219.7206
  18   2.0000      -6.034834      -164.2162
  19   2.0000      -6.032962      -164.1653
  20   2.0000      -6.031057      -164.1134
  21   2.0000      -6.029330      -164.0664
  22   2.0000      -6.027113      -164.0061
  23   2.0000      -6.025125      -163.9520
  24   2.0000      -1.004559       -27.3354
  25   2.0000      -0.983208       -26.7545
  26   2.0000      -0.910199       -24.7678
  27   2.0000      -0.908147       -24.7119
  28   2.0000      -0.869901       -23.6712
  29   2.0000      -0.847611       -23.0647
  30   2.0000      -0.842245       -22.9186
  31   2.0000      -0.815049       -22.1786
  32   2.0000      -0.781713       -21.2715
  33   2.0000      -0.768980       -20.9250
  34   2.0000      -0.702860       -19.1258
  35   2.0000      -0.693989       -18.8844
  36   2.0000      -0.681950       -18.5568
  37   2.0000      -0.650715       -17.7069
  38   2.0000      -0.641282       -17.4502
  39   2.0000      -0.619155       -16.8481
  40   2.0000      -0.608608       -16.5611
  41   2.0000      -0.573391       -15.6028
  42   2.0000      -0.558746       -15.2043
  43   2.0000      -0.549704       -14.9582
  44   2.0000      -0.535860       -14.5815
  45   2.0000      -0.526659       -14.3311
  46   2.0000      -0.519899       -14.1472
  47   2.0000      -0.507375       -13.8064
  48   2.0000      -0.503513       -13.7013
  49   2.0000      -0.494445       -13.4545
  50   2.0000      -0.488281       -13.2868
  51   2.0000      -0.476134       -12.9563
  52   2.0000      -0.472244       -12.8504
  53   2.0000      -0.467348       -12.7172
  54   2.0000      -0.454248       -12.3607
  55   2.0000      -0.450706       -12.2643
  56   2.0000      -0.443496       -12.0681
  57   2.0000      -0.432581       -11.7711
  58   2.0000      -0.427982       -11.6460
  59   2.0000      -0.423311       -11.5189
  60   2.0000      -0.419770       -11.4225
  61   2.0000      -0.411821       -11.2062
  62   2.0000      -0.407319       -11.0837
  63   2.0000      -0.339364        -9.2346
  64   2.0000      -0.326942        -8.8965
  65   2.0000      -0.321011        -8.7351
  66   2.0000      -0.307707        -8.3731
  67   0.0000       0.040984         1.1152
  68   0.0000       0.058297         1.5863
  69   0.0000       0.111520         3.0346
  70   0.0000       0.117542         3.1985
  71   0.0000       0.139802         3.8042

MULLIKEN ATOMIC CHARGES
-----------------------
   0 S :    0.098541
   1 C :   -0.146523
   2 C :   -0.079678
   3 C :    0.046642
   4 C :   -0.173540
   5 H :   -0.001399
   6 C :    0.054206
   7 H :    0.047094
   8 H :    0.036328
   9 C :   -0.121136
  10 H :    0.040080
  11 H :    0.046070
  12 C :   -0.026302
  13 H :    0.029147
  14 H :    0.033125
  15 H :    0.033217
  16 S :    0.092294
  17 C :   -0.061281
  18 C :   -0.016801
  19 C :   -0.047620
  20 C :   -0.150231
  21 H :    0.025963
  22 C :    0.079098
  23 H :    0.027251
  24 H :    0.033006
  25 C :   -0.084648
  26 H :    0.034742
  27 H :    0.028537
  28 C :   -0.071821
  29 H :    0.037127
  30 H :    0.033236
  31 H :    0.039312
  32 H :    0.059464
  33 H :    0.026500
Sum of atomic charges:    0.0000000

LOEWDIN ATOMIC CHARGES
----------------------
   0 S :    0.393833
   1 C :   -0.197866
   2 C :   -0.064193
   3 C :   -0.056055
   4 C :   -0.194143
   5 H :    0.024860
   6 C :   -0.026638
   7 H :    0.034509
   8 H :    0.032435
   9 C :   -0.050297
  10 H :    0.027805
  11 H :    0.032709
  12 C :   -0.070091
  13 H :    0.025140
  14 H :    0.028978
  15 H :    0.029258
  16 S :    0.385801
  17 C :   -0.159225
  18 C :   -0.077301
  19 C :   -0.046787
  20 C :   -0.198929
  21 H :    0.037565
  22 C :   -0.036594
  23 H :    0.029965
  24 H :    0.037557
  25 C :   -0.040706
  26 H :    0.024715
  27 H :    0.024201
  28 C :   -0.073658
  29 H :    0.024900
  30 H :    0.028743
  31 H :    0.028244
  32 H :    0.030845
  33 H :    0.010419

  Mayer bond orders larger than 0.100000
B(  0-S ,  1-C ) :   1.1402 B(  0-S ,  4-C ) :   1.1511 B(  1-C ,  2-C ) :   1.6286
B(  1-C , 32-H ) :   0.9664 B(  2-C ,  3-C ) :   1.2322 B(  2-C ,  6-C ) :   0.9881
B(  3-C ,  4-C ) :   1.5941 B(  3-C ,  5-H ) :   1.0047 B(  4-C , 20-C ) :   0.9941
B(  6-C ,  7-H ) :   0.9374 B(  6-C ,  8-H ) :   0.9526 B(  6-C ,  9-C ) :   1.0672
B(  9-C , 10-H ) :   0.9465 B(  9-C , 11-H ) :   0.9542 B(  9-C , 12-C ) :   1.1036
B( 12-C , 13-H ) :   0.9683 B( 12-C , 14-H ) :   0.9701 B( 12-C , 15-H ) :   0.9701
B( 16-S , 17-C ) :   1.1553 B( 16-S , 20-C ) :   1.1274 B( 17-C , 18-C ) :   1.6448
B( 17-C , 33-H ) :   0.9732 B( 18-C , 19-C ) :   1.1902 B( 18-C , 21-H ) :   0.9917
B( 19-C , 20-C ) :   1.6529 B( 19-C , 22-C ) :   1.0270 B( 22-C , 23-H ) :   0.9267
B( 22-C , 24-H ) :   0.9401 B( 22-C , 25-C ) :   1.0847 B( 25-C , 26-H ) :   0.9497
B( 25-C , 27-H ) :   0.9519 B( 25-C , 28-C ) :   1.0709 B( 28-C , 29-H ) :   0.9758
B( 28-C , 30-H ) :   0.9739 B( 28-C , 31-H ) :   0.9758

Dispersion correction           -0.014074473
FINAL SINGLE POINT ENERGY     -1339.873426288651

DIPOLE MOMENT
-------------
                                X             Y             Z
Electronic contribution:     -1.11517     -21.79539       4.36250
Nuclear contribution   :      1.18407      22.40626      -4.19701
                        -----------------------------------------
Total Dipole Moment    :      0.06890       0.61087       0.16549
                        -----------------------------------------
Magnitude (a.u.)       :      0.63662
Magnitude (Debye)      :      1.61817

Rotational constants in cm-1:     0.019349     0.007539     0.006979
Rotational constants in MHz :   580.055704   226.027260   209.232831

                             ****ORCA TERMINATED NORMALLY****
TOTAL RUN TIME: 0 days 0 hours 0 minutes 31 seconds 218 msec
