                         Program Version 4.2.1 -  RELEASE  -
|  1> ! wB97X-D3 SP def2-SVP
|  2> %pal
|  3> nprocs 16
|  4> end
|  5>
|  6> * xyz 0 1
|  7> S 	 6.84849 	 -21.0184 	 85.8256
|  8> C 	 5.94894 	 -21.8319 	 86.9617
|  9> C 	 5.33637 	 -20.965 	 87.8742
| 10> C 	 5.49073 	 -19.6057 	 87.5407
| 11> C 	 6.36596 	 -19.4153 	 86.446
| 12> H 	 5.12392 	 -18.7841 	 88.1391
| 13> C 	 4.62273 	 -21.396 	 89.1004
| 14> H 	 5.44097 	 -21.7945 	 89.6956
| 15> H 	 4.00822 	 -22.2166 	 88.7127
| 16> C 	 3.82875 	 -20.3381 	 89.8658
| 17> H 	 3.66721 	 -20.552 	 90.9042
| 18> H 	 4.4813 	 -19.4771 	 89.9677
| 19> C 	 2.42823 	 -20.041 	 89.3324
| 20> H 	 2.49595 	 -19.935 	 88.2175
| 21> H 	 1.76162 	 -20.8528 	 89.5559
| 22> H 	 1.89251 	 -19.229 	 89.7633
| 23> S 	 8.66569 	 -18.1018 	 85.9147
| 24> C 	 8.63259 	 -16.4149 	 85.3593
| 25> C 	 7.32382 	 -15.8978 	 85.419
| 26> C 	 6.33781 	 -16.9071 	 85.7251
| 27> C 	 6.93345 	 -18.1584 	 85.9673
| 28> H 	 7.08339 	 -14.8618 	 85.1725
| 29> C 	 4.89911 	 -16.483 	 85.9674
| 30> H 	 4.22105 	 -17.3086 	 85.7813
| 31> H 	 4.78479 	 -15.7809 	 85.1292
| 32> C 	 4.64914 	 -15.8022 	 87.3166
| 33> H 	 5.52487 	 -15.0919 	 87.4994
| 34> H 	 4.78576 	 -16.6175 	 88.0081
| 35> C 	 3.26022 	 -15.1708 	 87.4138
| 36> H 	 3.12475 	 -14.2941 	 86.7887
| 37> H 	 3.02702 	 -14.8576 	 88.419
| 38> H 	 2.40784 	 -15.8405 	 87.2084
| 39> H 	 5.99776 	 -22.9165 	 86.9898
| 40> H 	 9.5848 	 -15.8793 	 85.3899
| 41> *
| 42>
| 43>                          ****END OF INPUT****

CARTESIAN COORDINATES (ANGSTROEM)
---------------------------------
  S      6.848490  -21.018400   85.825600
  C      5.948940  -21.831900   86.961700
  C      5.336370  -20.965000   87.874200
  C      5.490730  -19.605700   87.540700
  C      6.365960  -19.415300   86.446000
  H      5.123920  -18.784100   88.139100
  C      4.622730  -21.396000   89.100400
  H      5.440970  -21.794500   89.695600
  H      4.008220  -22.216600   88.712700
  C      3.828750  -20.338100   89.865800
  H      3.667210  -20.552000   90.904200
  H      4.481300  -19.477100   89.967700
  C      2.428230  -20.041000   89.332400
  H      2.495950  -19.935000   88.217500
  H      1.761620  -20.852800   89.555900
  H      1.892510  -19.229000   89.763300
  S      8.665690  -18.101800   85.914700
  C      8.632590  -16.414900   85.359300
  C      7.323820  -15.897800   85.419000
  C      6.337810  -16.907100   85.725100
  C      6.933450  -18.158400   85.967300
  H      7.083390  -14.861800   85.172500
  C      4.899110  -16.483000   85.967400
  H      4.221050  -17.308600   85.781300
  H      4.784790  -15.780900   85.129200
  C      4.649140  -15.802200   87.316600
  H      5.524870  -15.091900   87.499400
  H      4.785760  -16.617500   88.008100
  C      3.260220  -15.170800   87.413800
  H      3.124750  -14.294100   86.788700
  H      3.027020  -14.857600   88.419000
  H      2.407840  -15.840500   87.208400
  H      5.997760  -22.916500   86.989800
  H      9.584800  -15.879300   85.389900

 Total Charge           Charge          ....    0
 Multiplicity           Mult            ....    1
 Number of Electrons    NEL             ....  134
 Basis Dimension        Dim             ....  322

ORBITAL ENERGIES
----------------

  NO   OCC          E(Eh)            E(eV)
   0   2.0000     -88.966625     -2420.9049
   1   2.0000     -88.963811     -2420.8284
   2   2.0000     -10.331394      -281.1315
   3   2.0000     -10.326753      -281.0052
   4   2.0000     -10.321205      -280.8543
   5   2.0000     -10.307864      -280.4913
   6   2.0000     -10.303939      -280.3844
   7   2.0000     -10.301343      -280.3138
   8   2.0000     -10.297080      -280.1978
   9   2.0000     -10.294458      -280.1264
  10   2.0000     -10.293443      -280.0988
  11   2.0000     -10.289901      -280.0024
  12   2.0000     -10.289634      -279.9952
  13   2.0000     -10.287094      -279.9261
  14   2.0000     -10.280906      -279.7577
  15   2.0000     -10.278413      -279.6898
  16   2.0000      -8.082221      -219.9284
  17   2.0000      -8.078632      -219.8307
  18   2.0000      -6.040473      -164.3696
  19   2.0000      -6.037063      -164.2768
  20   2.0000      -6.036381      -164.2583
  21   2.0000      -6.033433      -164.1781
  22   2.0000      -6.033148      -164.1703
  23   2.0000      -6.029448      -164.0696
  24   2.0000      -1.006064       -27.3764
  25   2.0000      -0.983225       -26.7549
  26   2.0000      -0.917241       -24.9594
  27   2.0000      -0.909479       -24.7482
  28   2.0000      -0.868266       -23.6267
  29   2.0000      -0.853854       -23.2346
  30   2.0000      -0.848300       -23.0834
  31   2.0000      -0.814217       -22.1560
  32   2.0000      -0.782497       -21.2928
  33   2.0000      -0.768521       -20.9125
  34   2.0000      -0.715773       -19.4772
  35   2.0000      -0.703301       -19.1378
  36   2.0000      -0.688010       -18.7217
  37   2.0000      -0.664170       -18.0730
  38   2.0000      -0.641349       -17.4520
  39   2.0000      -0.621738       -16.9183
  40   2.0000      -0.593479       -16.1494
  41   2.0000      -0.567954       -15.4548
  42   2.0000      -0.563371       -15.3301
  43   2.0000      -0.555276       -15.1098
  44   2.0000      -0.537193       -14.6178
  45   2.0000      -0.520362       -14.1598
  46   2.0000      -0.518736       -14.1155
  47   2.0000      -0.515137       -14.0176
  48   2.0000      -0.505834       -13.7645
  49   2.0000      -0.494560       -13.4577
  50   2.0000      -0.492310       -13.3964
  51   2.0000      -0.487614       -13.2686
  52   2.0000      -0.469636       -12.7794
  53   2.0000      -0.466651       -12.6982
  54   2.0000      -0.457144       -12.4395
  55   2.0000      -0.453626       -12.3438
  56   2.0000      -0.445255       -12.1160
  57   2.0000      -0.438984       -11.9454
  58   2.0000      -0.433281       -11.7902
  59   2.0000      -0.430726       -11.7206
  60   2.0000      -0.425948       -11.5906
  61   2.0000      -0.417621       -11.3640
  62   2.0000      -0.407386       -11.0855
  63   2.0000      -0.351040        -9.5523
  64   2.0000      -0.329075        -8.9546
  65   2.0000      -0.325222        -8.8497
  66   2.0000      -0.282645        -7.6912
  67   0.0000       0.027069         0.7366
  68   0.0000       0.067185         1.8282
  69   0.0000       0.107340         2.9209
  70   0.0000       0.125044         3.4026
  71   0.0000       0.132991         3.6189

MULLIKEN ATOMIC CHARGES
-----------------------
   0 S :    0.130663
   1 C :   -0.135859
   2 C :   -0.121918
   3 C :    0.034748
   4 C :   -0.154217
   5 H :   -0.000381
   6 C :    0.082041
   7 H :    0.045594
   8 H :    0.033981
   9 C :   -0.061526
  10 H :    0.016973
  11 H :    0.019206
  12 C :   -0.040371
  13 H :    0.038462
  14 H :    0.024676
  15 H :    0.028452
  16 S :    0.097767
  17 C :   -0.105436
  18 C :   -0.045734
  19 C :   -0.053281
  20 C :   -0.151558
  21 H :    0.031371
  22 C :    0.046598
  23 H :    0.028953
  24 H :    0.020784
  25 C :   -0.054197
  26 H :    0.040179
  27 H :    0.014871
  28 C :   -0.022786
  29 H :    0.033262
  30 H :    0.024443
  31 H :    0.030750
  32 H :    0.050767
  33 H :    0.072723
Sum of atomic charges:   -0.0000000

LOEWDIN ATOMIC CHARGES
----------------------
   0 S :    0.441643
   1 C :   -0.233937
   2 C :   -0.068402
   3 C :   -0.065031
   4 C :   -0.192466
   5 H :    0.027204
   6 C :   -0.033763
   7 H :    0.041582
   8 H :    0.036342
   9 C :   -0.045772
  10 H :    0.025385
  11 H :    0.021775
  12 C :   -0.064944
  13 H :    0.029566
  14 H :    0.025113
  15 H :    0.023135
  16 S :    0.405545
  17 C :   -0.187193
  18 C :   -0.065694
  19 C :   -0.059845
  20 C :   -0.204543
  21 H :    0.033653
  22 C :   -0.034942
  23 H :    0.028638
  24 H :    0.029922
  25 C :   -0.039557
  26 H :    0.034828
  27 H :    0.019035
  28 C :   -0.067420
  29 H :    0.026235
  30 H :    0.025339
  31 H :    0.030780
  32 H :    0.028189
  33 H :    0.029600

  Mayer bond orders larger than 0.100000
B(  0-S ,  1-C ) :   1.1791 B(  0-S ,  4-C ) :   1.1830 B(  1-C ,  2-C ) :   1.5412
B(  1-C ,  4-C ) :   0.1088 B(  1-C , 32-H ) :   0.9738 B(  2-C ,  3-C ) :   1.3233
B(  2-C ,  6-C ) :   0.9896 B(  3-C ,  4-C ) :   1.4914 B(  3-C ,  5-H ) :   0.9857
B(  4-C , 20-C ) :   1.0444 B(  6-C ,  7-H ) :   0.9274 B(  6-C ,  8-H ) :   0.9423
B(  6-C ,  9-C ) :   1.0891 B(  9-C , 10-H ) :   0.9493 B(  9-C , 11-H ) :   0.9477
B(  9-C , 12-C ) :   1.0723 B( 12-C , 13-H ) :   0.9785 B( 12-C , 14-H ) :   0.9717
B( 12-C , 15-H ) :   0.9738 B( 16-S , 17-C ) :   1.1530 B( 16-S , 20-C ) :   1.1644
B( 17-C , 18-C ) :   1.5842 B( 17-C , 20-C ) :   0.1012 B( 17-C , 33-H ) :   0.9666
B( 18-C , 19-C ) :   1.2523 B( 18-C , 21-H ) :   0.9832 B( 19-C , 20-C ) :   1.5694
B( 19-C , 22-C ) :   1.0503 B( 22-C , 23-H ) :   0.9313 B( 22-C , 24-H ) :   0.9318
B( 22-C , 25-C ) :   1.0579 B( 25-C , 26-H ) :   0.9511 B( 25-C , 27-H ) :   0.9510
B( 25-C , 28-C ) :   1.0790 B( 28-C , 29-H ) :   0.9756 B( 28-C , 30-H ) :   0.9720
B( 28-C , 31-H ) :   0.9713

Dispersion correction           -0.014777624
FINAL SINGLE POINT ENERGY     -1339.879881758301

DIPOLE MOMENT
-------------
                                X             Y             Z
Electronic contribution:     25.68967      -9.77719     -15.81431
Nuclear contribution   :    -26.14492      10.00795      16.44035
                        -----------------------------------------
Total Dipole Moment    :     -0.45525       0.23076       0.62605
                        -----------------------------------------
Magnitude (a.u.)       :      0.80773
Magnitude (Debye)      :      2.05310

Rotational constants in cm-1:     0.015848     0.010911     0.006999
Rotational constants in MHz :   475.114244   327.093162   209.810070

                             ****ORCA TERMINATED NORMALLY****
TOTAL RUN TIME: 0 days 0 hours 0 minutes 35 seconds 163 msec
