                         Program Version 4.2.1 -  RELEASE  -
|  1> ! wB97X-D3 SP def2-SVP
|  2> %pal
|  3> nprocs 16
|  4> end
|  5>
|  6> * xyz 0 1
|  7> S 	 -52.7037 	 43.1384 	 108.352
|  8> C 	 -51.7373 	 44.5815 	 108.121
|  9> C 	 -52.4514 	 45.5257 	 107.404
| 10> C 	 -53.8007 	 45.1398 	 107.124
| 11> C 	 -54.1628 	 43.9624 	 107.735
| 12> H 	 -54.5526 	 45.7651 	 106.644
| 13> C 	 -51.8112 	 46.7855 	 106.849
| 14> H 	 -51.4509 	 46.6404 	 105.768
| 15> H 	 -50.9272 	 46.8905 	 107.376
| 16> C 	 -52.6598 	 48.0569 	 107.098
| 17> H 	 -53.479 	 48.0547 	 106.323
| 18> H 	 -53.2205 	 48.0065 	 108.043
| 19> C 	 -51.9084 	 49.3597 	 106.967
| 20> H 	 -51.2463 	 49.4425 	 107.849
| 21> H 	 -51.2593 	 49.4293 	 106.103
| 22> H 	 -52.6604 	 50.1467 	 107.063
| 23> S 	 -55.6903 	 41.8019 	 107.057
| 24> C 	 -57.4124 	 41.8297 	 107.288
| 25> C 	 -57.7684 	 42.9473 	 108.076
| 26> C 	 -56.6073 	 43.7943 	 108.371
| 27> C 	 -55.4252 	 43.3354 	 107.789
| 28> H 	 -58.7694 	 43.1428 	 108.378
| 29> C 	 -56.636 	 44.982 	 109.269
| 30> H 	 -55.7999 	 45.6529 	 109.049
| 31> H 	 -56.4814 	 44.6269 	 110.283
| 32> C 	 -57.8477 	 45.8288 	 109.167
| 33> H 	 -57.9289 	 46.6902 	 109.838
| 34> H 	 -58.6624 	 45.1591 	 109.575
| 35> C 	 -58.0154 	 46.3807 	 107.711
| 36> H 	 -58.238 	 45.6878 	 106.911
| 37> H 	 -57.1379 	 46.9886 	 107.348
| 38> H 	 -58.8675 	 47.0236 	 107.653
| 39> H 	 -50.6763 	 44.7607 	 108.336
| 40> H 	 -58.0753 	 40.9996 	 107.199
| 41> *
| 42>
| 43>                          ****END OF INPUT****

CARTESIAN COORDINATES (ANGSTROEM)
---------------------------------
  S    -52.703700   43.138400  108.352000
  C    -51.737300   44.581500  108.121000
  C    -52.451400   45.525700  107.404000
  C    -53.800700   45.139800  107.124000
  C    -54.162800   43.962400  107.735000
  H    -54.552600   45.765100  106.644000
  C    -51.811200   46.785500  106.849000
  H    -51.450900   46.640400  105.768000
  H    -50.927200   46.890500  107.376000
  C    -52.659800   48.056900  107.098000
  H    -53.479000   48.054700  106.323000
  H    -53.220500   48.006500  108.043000
  C    -51.908400   49.359700  106.967000
  H    -51.246300   49.442500  107.849000
  H    -51.259300   49.429300  106.103000
  H    -52.660400   50.146700  107.063000
  S    -55.690300   41.801900  107.057000
  C    -57.412400   41.829700  107.288000
  C    -57.768400   42.947300  108.076000
  C    -56.607300   43.794300  108.371000
  C    -55.425200   43.335400  107.789000
  H    -58.769400   43.142800  108.378000
  C    -56.636000   44.982000  109.269000
  H    -55.799900   45.652900  109.049000
  H    -56.481400   44.626900  110.283000
  C    -57.847700   45.828800  109.167000
  H    -57.928900   46.690200  109.838000
  H    -58.662400   45.159100  109.575000
  C    -58.015400   46.380700  107.711000
  H    -58.238000   45.687800  106.911000
  H    -57.137900   46.988600  107.348000
  H    -58.867500   47.023600  107.653000
  H    -50.676300   44.760700  108.336000
  H    -58.075300   40.999600  107.199000

 Total Charge           Charge          ....    0
 Multiplicity           Mult            ....    1
 Number of Electrons    NEL             ....  134
 Basis Dimension        Dim             ....  322

ORBITAL ENERGIES
----------------

  NO   OCC          E(Eh)            E(eV)
   0   2.0000     -88.965096     -2420.8633
   1   2.0000     -88.964972     -2420.8600
   2   2.0000     -10.328384      -281.0496
   3   2.0000     -10.319894      -280.8186
   4   2.0000     -10.319093      -280.7968
   5   2.0000     -10.314855      -280.6815
   6   2.0000     -10.304844      -280.4090
   7   2.0000     -10.299658      -280.2679
   8   2.0000     -10.299215      -280.2559
   9   2.0000     -10.295046      -280.1424
  10   2.0000     -10.291840      -280.0552
  11   2.0000     -10.290851      -280.0283
  12   2.0000     -10.290800      -280.0269
  13   2.0000     -10.282126      -279.7909
  14   2.0000     -10.280323      -279.7418
  15   2.0000     -10.278834      -279.7013
  16   2.0000      -8.080321      -219.8767
  17   2.0000      -8.079279      -219.8483
  18   2.0000      -6.038824      -164.3247
  19   2.0000      -6.037863      -164.2986
  20   2.0000      -6.034612      -164.2101
  21   2.0000      -6.033988      -164.1932
  22   2.0000      -6.031169      -164.1165
  23   2.0000      -6.029854      -164.0807
  24   2.0000      -1.008424       -27.4406
  25   2.0000      -0.982246       -26.7283
  26   2.0000      -0.916081       -24.9278
  27   2.0000      -0.911270       -24.7969
  28   2.0000      -0.875047       -23.8112
  29   2.0000      -0.847833       -23.0707
  30   2.0000      -0.839187       -22.8354
  31   2.0000      -0.818774       -22.2800
  32   2.0000      -0.784265       -21.3409
  33   2.0000      -0.770729       -20.9726
  34   2.0000      -0.714999       -19.4561
  35   2.0000      -0.701336       -19.0843
  36   2.0000      -0.689835       -18.7714
  37   2.0000      -0.656104       -17.8535
  38   2.0000      -0.641610       -17.4591
  39   2.0000      -0.619245       -16.8505
  40   2.0000      -0.596091       -16.2205
  41   2.0000      -0.569762       -15.5040
  42   2.0000      -0.562460       -15.3053
  43   2.0000      -0.557972       -15.1832
  44   2.0000      -0.542159       -14.7529
  45   2.0000      -0.533590       -14.5197
  46   2.0000      -0.519086       -14.1250
  47   2.0000      -0.505173       -13.7465
  48   2.0000      -0.504381       -13.7249
  49   2.0000      -0.497503       -13.5377
  50   2.0000      -0.492965       -13.4143
  51   2.0000      -0.483179       -13.1480
  52   2.0000      -0.472304       -12.8521
  53   2.0000      -0.467992       -12.7347
  54   2.0000      -0.455469       -12.3940
  55   2.0000      -0.447559       -12.1787
  56   2.0000      -0.447037       -12.1645
  57   2.0000      -0.440958       -11.9991
  58   2.0000      -0.436002       -11.8642
  59   2.0000      -0.422627       -11.5003
  60   2.0000      -0.418438       -11.3863
  61   2.0000      -0.408510       -11.1161
  62   2.0000      -0.406389       -11.0584
  63   2.0000      -0.342836        -9.3290
  64   2.0000      -0.329065        -8.9543
  65   2.0000      -0.325376        -8.8539
  66   2.0000      -0.294795        -8.0218
  67   0.0000       0.030377         0.8266
  68   0.0000       0.061249         1.6667
  69   0.0000       0.112488         3.0609
  70   0.0000       0.116612         3.1732
  71   0.0000       0.126674         3.4470

MULLIKEN ATOMIC CHARGES
-----------------------
   0 S :    0.104489
   1 C :   -0.106316
   2 C :   -0.137576
   3 C :    0.067203
   4 C :   -0.184162
   5 H :    0.016725
   6 C :    0.107609
   7 H :    0.057330
   8 H :   -0.017722
   9 C :   -0.134214
  10 H :    0.031034
  11 H :    0.038329
  12 C :   -0.025911
  13 H :    0.028952
  14 H :    0.036605
  15 H :    0.037280
  16 S :    0.118130
  17 C :   -0.080450
  18 C :   -0.039892
  19 C :   -0.059699
  20 C :   -0.149924
  21 H :    0.015423
  22 C :    0.100188
  23 H :    0.021075
  24 H :    0.041423
  25 C :   -0.087097
  26 H :    0.031810
  27 H :    0.027194
  28 C :   -0.063960
  29 H :    0.038040
  30 H :    0.036626
  31 H :    0.021166
  32 H :    0.051975
  33 H :    0.058315
Sum of atomic charges:   -0.0000000

LOEWDIN ATOMIC CHARGES
----------------------
   0 S :    0.387561
   1 C :   -0.200927
   2 C :   -0.066404
   3 C :   -0.054347
   4 C :   -0.178343
   5 H :    0.033442
   6 C :   -0.033213
   7 H :    0.044864
   8 H :    0.013781
   9 C :   -0.049617
  10 H :    0.022555
  11 H :    0.027854
  12 C :   -0.063822
  13 H :    0.026444
  14 H :    0.025198
  15 H :    0.030263
  16 S :    0.428870
  17 C :   -0.191159
  18 C :   -0.063611
  19 C :   -0.046444
  20 C :   -0.221600
  21 H :    0.024576
  22 C :   -0.039454
  23 H :    0.030180
  24 H :    0.036567
  25 C :   -0.046376
  26 H :    0.027321
  27 H :    0.025823
  28 C :   -0.071877
  29 H :    0.025607
  30 H :    0.031615
  31 H :    0.021487
  32 H :    0.035192
  33 H :    0.027993

  Mayer bond orders larger than 0.100000
B(  0-S ,  1-C ) :   1.1270 B(  0-S ,  4-C ) :   1.1300 B(  1-C ,  2-C ) :   1.6347
B(  1-C , 32-H ) :   0.9614 B(  2-C ,  3-C ) :   1.2194 B(  2-C ,  6-C ) :   1.0317
B(  3-C ,  4-C ) :   1.5905 B(  3-C ,  5-H ) :   0.9915 B(  4-C , 20-C ) :   1.0583
B(  6-C ,  7-H ) :   0.9310 B(  6-C ,  8-H ) :   0.9333 B(  6-C ,  9-C ) :   1.0506
B(  9-C , 10-H ) :   0.9502 B(  9-C , 11-H ) :   0.9608 B(  9-C , 12-C ) :   1.0910
B( 12-C , 13-H ) :   0.9735 B( 12-C , 14-H ) :   0.9733 B( 12-C , 15-H ) :   0.9726
B( 16-S , 17-C ) :   1.1703 B( 16-S , 20-C ) :   1.1459 B( 17-C , 18-C ) :   1.5814
B( 17-C , 20-C ) :   0.1014 B( 17-C , 33-H ) :   0.9668 B( 18-C , 19-C ) :   1.2477
B( 18-C , 21-H ) :   0.9923 B( 19-C , 20-C ) :   1.5715 B( 19-C , 22-C ) :   1.0439
B( 22-C , 23-H ) :   0.9276 B( 22-C , 24-H ) :   0.9276 B( 22-C , 25-C ) :   1.0789
B( 25-C , 26-H ) :   0.9557 B( 25-C , 27-H ) :   0.9484 B( 25-C , 28-C ) :   1.0641
B( 28-C , 29-H ) :   0.9732 B( 28-C , 30-H ) :   0.9733 B( 28-C , 31-H ) :   0.9745

Dispersion correction           -0.014806475
FINAL SINGLE POINT ENERGY     -1339.875260937145

DIPOLE MOMENT
-------------
                                X             Y             Z
Electronic contribution:      4.23858     -30.21641       0.07687
Nuclear contribution   :     -4.43083      30.87697       0.02816
                        -----------------------------------------
Total Dipole Moment    :     -0.19225       0.66056       0.10503
                        -----------------------------------------
Magnitude (a.u.)       :      0.69594
Magnitude (Debye)      :      1.76893

Rotational constants in cm-1:     0.018607     0.009194     0.006787
Rotational constants in MHz :   557.822265   275.625707   203.476615

                             ****ORCA TERMINATED NORMALLY****
TOTAL RUN TIME: 0 days 0 hours 0 minutes 29 seconds 240 msec
