                         Program Version 4.2.1 -  RELEASE  -
|  1> ! wB97X-D3 SP def2-SVP
|  2> %pal
|  3> nprocs 16
|  4> end
|  5>
|  6> * xyz 0 1
|  7> S 	 -48.3083 	 63.3435 	 140.344
|  8> C 	 -46.9962 	 62.8374 	 141.303
|  9> C 	 -46.3296 	 63.9146 	 141.905
| 10> C 	 -46.8742 	 65.1572 	 141.585
| 11> C 	 -47.8959 	 65.047 	 140.668
| 12> H 	 -46.467 	 66.1091 	 142.029
| 13> C 	 -45.0235 	 63.8576 	 142.691
| 14> H 	 -44.6413 	 62.8794 	 142.573
| 15> H 	 -45.3242 	 63.9081 	 143.758
| 16> C 	 -43.8889 	 64.777 	 142.386
| 17> H 	 -43.3625 	 64.3411 	 141.56
| 18> H 	 -44.2969 	 65.7863 	 142.19
| 19> C 	 -42.8771 	 64.8466 	 143.596
| 20> H 	 -42.5826 	 63.864 	 143.929
| 21> H 	 -41.944 	 65.4242 	 143.436
| 22> H 	 -43.3081 	 65.3252 	 144.482
| 23> S 	 -50.423 	 65.6495 	 140.079
| 24> C 	 -50.9608 	 67.3002 	 139.605
| 25> C 	 -49.8351 	 68.044 	 139.392
| 26> C 	 -48.6742 	 67.4552 	 139.94
| 27> C 	 -48.8296 	 66.1202 	 140.363
| 28> H 	 -49.9713 	 69.0398 	 139.018
| 29> C 	 -47.376 	 68.2054 	 139.905
| 30> H 	 -47.4156 	 68.8012 	 139.007
| 31> H 	 -46.6236 	 67.4205 	 139.821
| 32> C 	 -47.2671 	 69.1251 	 141.144
| 33> H 	 -47.6092 	 68.6784 	 142.081
| 34> H 	 -47.8144 	 70.0826 	 140.958
| 35> C 	 -45.7767 	 69.4259 	 141.336
| 36> H 	 -45.1662 	 68.5119 	 141.565
| 37> H 	 -45.6776 	 70.0823 	 142.195
| 38> H 	 -45.3246 	 69.9625 	 140.548
| 39> H 	 -46.7491 	 61.8267 	 141.368
| 40> H 	 -51.8597 	 67.5789 	 139.052
| 41> *
| 42>
| 43>                          ****END OF INPUT****

CARTESIAN COORDINATES (ANGSTROEM)
---------------------------------
  S    -48.308300   63.343500  140.344000
  C    -46.996200   62.837400  141.303000
  C    -46.329600   63.914600  141.905000
  C    -46.874200   65.157200  141.585000
  C    -47.895900   65.047000  140.668000
  H    -46.467000   66.109100  142.029000
  C    -45.023500   63.857600  142.691000
  H    -44.641300   62.879400  142.573000
  H    -45.324200   63.908100  143.758000
  C    -43.888900   64.777000  142.386000
  H    -43.362500   64.341100  141.560000
  H    -44.296900   65.786300  142.190000
  C    -42.877100   64.846600  143.596000
  H    -42.582600   63.864000  143.929000
  H    -41.944000   65.424200  143.436000
  H    -43.308100   65.325200  144.482000
  S    -50.423000   65.649500  140.079000
  C    -50.960800   67.300200  139.605000
  C    -49.835100   68.044000  139.392000
  C    -48.674200   67.455200  139.940000
  C    -48.829600   66.120200  140.363000
  H    -49.971300   69.039800  139.018000
  C    -47.376000   68.205400  139.905000
  H    -47.415600   68.801200  139.007000
  H    -46.623600   67.420500  139.821000
  C    -47.267100   69.125100  141.144000
  H    -47.609200   68.678400  142.081000
  H    -47.814400   70.082600  140.958000
  C    -45.776700   69.425900  141.336000
  H    -45.166200   68.511900  141.565000
  H    -45.677600   70.082300  142.195000
  H    -45.324600   69.962500  140.548000
  H    -46.749100   61.826700  141.368000
  H    -51.859700   67.578900  139.052000

 Total Charge           Charge          ....    0
 Multiplicity           Mult            ....    1
 Number of Electrons    NEL             ....  134
 Basis Dimension        Dim             ....  322

ORBITAL ENERGIES
----------------

  NO   OCC          E(Eh)            E(eV)
   0   2.0000     -88.973260     -2421.0855
   1   2.0000     -88.959719     -2420.7170
   2   2.0000     -10.333210      -281.1809
   3   2.0000     -10.322211      -280.8816
   4   2.0000     -10.312153      -280.6080
   5   2.0000     -10.311599      -280.5929
   6   2.0000     -10.300906      -280.3019
   7   2.0000     -10.297226      -280.2018
   8   2.0000     -10.294811      -280.1360
   9   2.0000     -10.292241      -280.0661
  10   2.0000     -10.290652      -280.0229
  11   2.0000     -10.287789      -279.9450
  12   2.0000     -10.286917      -279.9212
  13   2.0000     -10.284676      -279.8603
  14   2.0000     -10.284240      -279.8484
  15   2.0000     -10.275203      -279.6025
  16   2.0000      -8.088087      -220.0880
  17   2.0000      -8.075016      -219.7323
  18   2.0000      -6.046567      -164.5354
  19   2.0000      -6.042578      -164.4269
  20   2.0000      -6.038881      -164.3263
  21   2.0000      -6.033551      -164.1813
  22   2.0000      -6.029452      -164.0697
  23   2.0000      -6.025681      -163.9671
  24   2.0000      -1.013847       -27.5882
  25   2.0000      -0.989027       -26.9128
  26   2.0000      -0.917269       -24.9602
  27   2.0000      -0.909389       -24.7457
  28   2.0000      -0.876237       -23.8436
  29   2.0000      -0.857908       -23.3449
  30   2.0000      -0.844865       -22.9899
  31   2.0000      -0.818821       -22.2813
  32   2.0000      -0.778964       -21.1967
  33   2.0000      -0.764090       -20.7920
  34   2.0000      -0.712115       -19.3776
  35   2.0000      -0.700625       -19.0650
  36   2.0000      -0.695782       -18.9332
  37   2.0000      -0.664049       -18.0697
  38   2.0000      -0.640433       -17.4271
  39   2.0000      -0.633408       -17.2359
  40   2.0000      -0.584397       -15.9022
  41   2.0000      -0.573195       -15.5974
  42   2.0000      -0.568677       -15.4745
  43   2.0000      -0.563903       -15.3446
  44   2.0000      -0.527377       -14.3507
  45   2.0000      -0.525697       -14.3049
  46   2.0000      -0.517676       -14.0867
  47   2.0000      -0.506097       -13.7716
  48   2.0000      -0.505561       -13.7570
  49   2.0000      -0.503681       -13.7059
  50   2.0000      -0.497243       -13.5307
  51   2.0000      -0.479953       -13.0602
  52   2.0000      -0.475045       -12.9266
  53   2.0000      -0.467795       -12.7294
  54   2.0000      -0.460341       -12.5265
  55   2.0000      -0.453659       -12.3447
  56   2.0000      -0.443588       -12.0706
  57   2.0000      -0.439687       -11.9645
  58   2.0000      -0.433451       -11.7948
  59   2.0000      -0.427708       -11.6385
  60   2.0000      -0.422750       -11.5036
  61   2.0000      -0.418049       -11.3757
  62   2.0000      -0.405586       -11.0366
  63   2.0000      -0.362954        -9.8765
  64   2.0000      -0.337115        -9.1734
  65   2.0000      -0.321651        -8.7526
  66   2.0000      -0.280766        -7.6400
  67   0.0000       0.020629         0.5613
  68   0.0000       0.072437         1.9711
  69   0.0000       0.105424         2.8687
  70   0.0000       0.116596         3.1727
  71   0.0000       0.125714         3.4208

MULLIKEN ATOMIC CHARGES
-----------------------
   0 S :    0.115615
   1 C :   -0.104759
   2 C :   -0.068970
   3 C :   -0.023506
   4 C :   -0.108978
   5 H :    0.036115
   6 C :    0.060394
   7 H :   -0.000310
   8 H :    0.038112
   9 C :   -0.046485
  10 H :    0.037119
  11 H :    0.034490
  12 C :   -0.074094
  13 H :    0.024905
  14 H :    0.039864
  15 H :    0.028027
  16 S :    0.065090
  17 C :   -0.089834
  18 C :   -0.037934
  19 C :   -0.097545
  20 C :   -0.096021
  21 H :    0.018895
  22 C :    0.073537
  23 H :    0.021850
  24 H :    0.026257
  25 C :   -0.076027
  26 H :    0.040864
  27 H :    0.038913
  28 C :   -0.045997
  29 H :    0.035711
  30 H :    0.021687
  31 H :    0.022019
  32 H :    0.027165
  33 H :    0.063832
Sum of atomic charges:    0.0000000

LOEWDIN ATOMIC CHARGES
----------------------
   0 S :    0.422294
   1 C :   -0.200733
   2 C :   -0.062509
   3 C :   -0.064472
   4 C :   -0.182209
   5 H :    0.042664
   6 C :   -0.037846
   7 H :    0.022905
   8 H :    0.036083
   9 C :   -0.033407
  10 H :    0.027488
  11 H :    0.022226
  12 C :   -0.067395
  13 H :    0.020751
  14 H :    0.029589
  15 H :    0.024632
  16 S :    0.407378
  17 C :   -0.189446
  18 C :   -0.066333
  19 C :   -0.066545
  20 C :   -0.212852
  21 H :    0.030714
  22 C :   -0.030560
  23 H :    0.030960
  24 H :    0.027417
  25 C :   -0.035768
  26 H :    0.025154
  27 H :    0.031409
  28 C :   -0.066866
  29 H :    0.025944
  30 H :    0.021967
  31 H :    0.017367
  32 H :    0.015197
  33 H :    0.034804

  Mayer bond orders larger than 0.100000
B(  0-S ,  1-C ) :   1.1582 B(  0-S ,  4-C ) :   1.1505 B(  1-C ,  2-C ) :   1.5650
B(  1-C , 32-H ) :   0.9777 B(  2-C ,  3-C ) :   1.2933 B(  2-C ,  6-C ) :   1.0117
B(  3-C ,  4-C ) :   1.5261 B(  3-C ,  5-H ) :   0.9817 B(  4-C , 20-C ) :   1.0687
B(  6-C ,  7-H ) :   0.9400 B(  6-C ,  8-H ) :   0.9354 B(  6-C ,  9-C ) :   1.0614
B(  9-C , 10-H ) :   0.9572 B(  9-C , 11-H ) :   0.9548 B(  9-C , 12-C ) :   1.0734
B( 12-C , 13-H ) :   0.9768 B( 12-C , 14-H ) :   0.9769 B( 12-C , 15-H ) :   0.9762
B( 16-S , 17-C ) :   1.1413 B( 16-S , 20-C ) :   1.1443 B( 17-C , 18-C ) :   1.6124
B( 17-C , 33-H ) :   0.9581 B( 18-C , 19-C ) :   1.2842 B( 18-C , 21-H ) :   0.9841
B( 19-C , 20-C ) :   1.5374 B( 19-C , 22-C ) :   1.0469 B( 22-C , 23-H ) :   0.9288
B( 22-C , 24-H ) :   0.9439 B( 22-C , 25-C ) :   1.0520 B( 25-C , 26-H ) :   0.9625
B( 25-C , 27-H ) :   0.9499 B( 25-C , 28-C ) :   1.0865 B( 28-C , 29-H ) :   0.9761
B( 28-C , 30-H ) :   0.9720 B( 28-C , 31-H ) :   0.9703

Dispersion correction           -0.014308022
FINAL SINGLE POINT ENERGY     -1339.863317295319

DIPOLE MOMENT
-------------
                                X             Y             Z
Electronic contribution:    -27.49047     -14.67197     -11.94206
Nuclear contribution   :     28.10787      14.97631      12.04606
                        -----------------------------------------
Total Dipole Moment    :      0.61740       0.30434       0.10400
                        -----------------------------------------
Magnitude (a.u.)       :      0.69615
Magnitude (Debye)      :      1.76946

Rotational constants in cm-1:     0.017587     0.009881     0.006544
Rotational constants in MHz :   527.239365   296.237337   196.171571

                             ****ORCA TERMINATED NORMALLY****
TOTAL RUN TIME: 0 days 0 hours 0 minutes 33 seconds 959 msec
