                         Program Version 4.2.1 -  RELEASE  -
|  1> ! wB97X-D3 SP def2-SVP
|  2> %pal
|  3> nprocs 16
|  4> end
|  5>
|  6> * xyz 0 1
|  7> S 	 6.20944 	 -12.0114 	 69.4824
|  8> C 	 5.23805 	 -10.806 	 68.6456
|  9> C 	 5.98674 	 -9.60921 	 68.5324
| 10> C 	 7.30126 	 -9.70562 	 69.0283
| 11> C 	 7.65683 	 -10.9916 	 69.4428
| 12> H 	 8.0854 	 -8.9445 	 69.1825
| 13> C 	 5.38456 	 -8.30411 	 68.0496
| 14> H 	 4.35373 	 -8.60164 	 67.8738
| 15> H 	 5.97431 	 -7.95042 	 67.1067
| 16> C 	 5.26274 	 -7.11583 	 68.9925
| 17> H 	 4.61846 	 -7.42897 	 69.8519
| 18> H 	 6.23257 	 -6.9989 	 69.4088
| 19> C 	 4.74342 	 -5.81608 	 68.2875
| 20> H 	 3.66924 	 -5.8684 	 67.9953
| 21> H 	 4.7995 	 -4.94377 	 68.9121
| 22> H 	 5.32439 	 -5.52258 	 67.4205
| 23> S 	 9.03037 	 -11.7182 	 71.8017
| 24> C 	 10.7765 	 -11.4679 	 71.8691
| 25> C 	 11.2457 	 -11.2138 	 70.6313
| 26> C 	 10.2318 	 -11.2326 	 69.6027
| 27> C 	 8.93884 	 -11.3317 	 70.0858
| 28> H 	 12.2162 	 -10.8843 	 70.5186
| 29> C 	 10.5504 	 -10.8294 	 68.1769
| 30> H 	 9.66857 	 -10.8993 	 67.522
| 31> H 	 11.2475 	 -11.5748 	 67.7615
| 32> C 	 11.0671 	 -9.33044 	 68.1124
| 33> H 	 12.0347 	 -9.22392 	 68.6497
| 34> H 	 10.3378 	 -8.74633 	 68.6667
| 35> C 	 11.2135 	 -8.87614 	 66.7173
| 36> H 	 12.1599 	 -9.28832 	 66.2194
| 37> H 	 11.3552 	 -7.78697 	 66.6462
| 38> H 	 10.4302 	 -9.1047 	 65.9793
| 39> H 	 4.23872 	 -10.8871 	 68.2939
| 40> H 	 11.477 	 -11.3331 	 72.7161
| 41> *
| 42>
| 43>                          ****END OF INPUT****

CARTESIAN COORDINATES (ANGSTROEM)
---------------------------------
  S      6.209440  -12.011400   69.482400
  C      5.238050  -10.806000   68.645600
  C      5.986740   -9.609210   68.532400
  C      7.301260   -9.705620   69.028300
  C      7.656830  -10.991600   69.442800
  H      8.085400   -8.944500   69.182500
  C      5.384560   -8.304110   68.049600
  H      4.353730   -8.601640   67.873800
  H      5.974310   -7.950420   67.106700
  C      5.262740   -7.115830   68.992500
  H      4.618460   -7.428970   69.851900
  H      6.232570   -6.998900   69.408800
  C      4.743420   -5.816080   68.287500
  H      3.669240   -5.868400   67.995300
  H      4.799500   -4.943770   68.912100
  H      5.324390   -5.522580   67.420500
  S      9.030370  -11.718200   71.801700
  C     10.776500  -11.467900   71.869100
  C     11.245700  -11.213800   70.631300
  C     10.231800  -11.232600   69.602700
  C      8.938840  -11.331700   70.085800
  H     12.216200  -10.884300   70.518600
  C     10.550400  -10.829400   68.176900
  H      9.668570  -10.899300   67.522000
  H     11.247500  -11.574800   67.761500
  C     11.067100   -9.330440   68.112400
  H     12.034700   -9.223920   68.649700
  H     10.337800   -8.746330   68.666700
  C     11.213500   -8.876140   66.717300
  H     12.159900   -9.288320   66.219400
  H     11.355200   -7.786970   66.646200
  H     10.430200   -9.104700   65.979300
  H      4.238720  -10.887100   68.293900
  H     11.477000  -11.333100   72.716100

 Total Charge           Charge          ....    0
 Multiplicity           Mult            ....    1
 Number of Electrons    NEL             ....  134
 Basis Dimension        Dim             ....  322

ORBITAL ENERGIES
----------------

  NO   OCC          E(Eh)            E(eV)
   0   2.0000     -88.971253     -2421.0309
   1   2.0000     -88.962408     -2420.7902
   2   2.0000     -10.336038      -281.2579
   3   2.0000     -10.328994      -281.0662
   4   2.0000     -10.320976      -280.8480
   5   2.0000     -10.318562      -280.7823
   6   2.0000     -10.305464      -280.4259
   7   2.0000     -10.303075      -280.3609
   8   2.0000     -10.299089      -280.2525
   9   2.0000     -10.296327      -280.1773
  10   2.0000     -10.292389      -280.0702
  11   2.0000     -10.292058      -280.0611
  12   2.0000     -10.290367      -280.0151
  13   2.0000     -10.286464      -279.9089
  14   2.0000     -10.283995      -279.8417
  15   2.0000     -10.282450      -279.7997
  16   2.0000      -8.085039      -220.0051
  17   2.0000      -8.076910      -219.7839
  18   2.0000      -6.043571      -164.4539
  19   2.0000      -6.039599      -164.3458
  20   2.0000      -6.035906      -164.2454
  21   2.0000      -6.035649      -164.2384
  22   2.0000      -6.031482      -164.1250
  23   2.0000      -6.027368      -164.0130
  24   2.0000      -1.004568       -27.3357
  25   2.0000      -0.983916       -26.7737
  26   2.0000      -0.909732       -24.7551
  27   2.0000      -0.907504       -24.6944
  28   2.0000      -0.871623       -23.7181
  29   2.0000      -0.850120       -23.1329
  30   2.0000      -0.845669       -23.0118
  31   2.0000      -0.820952       -22.3393
  32   2.0000      -0.779602       -21.2141
  33   2.0000      -0.766321       -20.8526
  34   2.0000      -0.710703       -19.3392
  35   2.0000      -0.699644       -19.0383
  36   2.0000      -0.696732       -18.9590
  37   2.0000      -0.657997       -17.9050
  38   2.0000      -0.643247       -17.5036
  39   2.0000      -0.619122       -16.8472
  40   2.0000      -0.592419       -16.1205
  41   2.0000      -0.572449       -15.5771
  42   2.0000      -0.567617       -15.4456
  43   2.0000      -0.560644       -15.2559
  44   2.0000      -0.525723       -14.3056
  45   2.0000      -0.521985       -14.2039
  46   2.0000      -0.518505       -14.1092
  47   2.0000      -0.511441       -13.9170
  48   2.0000      -0.502971       -13.6865
  49   2.0000      -0.501024       -13.6336
  50   2.0000      -0.496242       -13.5034
  51   2.0000      -0.479334       -13.0433
  52   2.0000      -0.471802       -12.8384
  53   2.0000      -0.468887       -12.7591
  54   2.0000      -0.461223       -12.5505
  55   2.0000      -0.452263       -12.3067
  56   2.0000      -0.443378       -12.0649
  57   2.0000      -0.431986       -11.7549
  58   2.0000      -0.429395       -11.6844
  59   2.0000      -0.422991       -11.5102
  60   2.0000      -0.419626       -11.4186
  61   2.0000      -0.417546       -11.3620
  62   2.0000      -0.410400       -11.1675
  63   2.0000      -0.346895        -9.4395
  64   2.0000      -0.331618        -9.0238
  65   2.0000      -0.325164        -8.8482
  66   2.0000      -0.297878        -8.1057
  67   0.0000       0.030423         0.8279
  68   0.0000       0.058180         1.5832
  69   0.0000       0.110163         2.9977
  70   0.0000       0.123097         3.3496
  71   0.0000       0.131293         3.5727

MULLIKEN ATOMIC CHARGES
-----------------------
   0 S :    0.116388
   1 C :   -0.099486
   2 C :   -0.086765
   3 C :    0.019842
   4 C :   -0.165014
   5 H :    0.032316
   6 C :    0.039512
   7 H :    0.006469
   8 H :    0.048941
   9 C :   -0.058234
  10 H :    0.035620
  11 H :    0.015511
  12 C :   -0.046071
  13 H :    0.038912
  14 H :    0.028360
  15 H :    0.028321
  16 S :    0.097047
  17 C :   -0.087377
  18 C :   -0.017151
  19 C :   -0.043419
  20 C :   -0.146124
  21 H :   -0.006288
  22 C :    0.039604
  23 H :    0.031431
  24 H :    0.035178
  25 C :   -0.066830
  26 H :    0.037228
  27 H :    0.025120
  28 C :   -0.062653
  29 H :    0.032568
  30 H :    0.031588
  31 H :    0.035668
  32 H :    0.042634
  33 H :    0.067156
Sum of atomic charges:    0.0000000

LOEWDIN ATOMIC CHARGES
----------------------
   0 S :    0.404523
   1 C :   -0.191192
   2 C :   -0.067145
   3 C :   -0.061146
   4 C :   -0.188279
   5 H :    0.037146
   6 C :   -0.039838
   7 H :    0.025501
   8 H :    0.040412
   9 C :   -0.040231
  10 H :    0.031266
  11 H :    0.014992
  12 C :   -0.066465
  13 H :    0.031198
  14 H :    0.025216
  15 H :    0.024819
  16 S :    0.385070
  17 C :   -0.180643
  18 C :   -0.067546
  19 C :   -0.055075
  20 C :   -0.198901
  21 H :    0.018495
  22 C :   -0.032727
  23 H :    0.030433
  24 H :    0.032483
  25 C :   -0.040479
  26 H :    0.029295
  27 H :    0.020366
  28 C :   -0.078683
  29 H :    0.033046
  30 H :    0.027171
  31 H :    0.026461
  32 H :    0.025873
  33 H :    0.044583

  Mayer bond orders larger than 0.100000
B(  0-S ,  1-C ) :   1.1476 B(  0-S ,  4-C ) :   1.1536 B(  1-C ,  2-C ) :   1.5792
B(  1-C ,  4-C ) :   0.1080 B(  1-C , 32-H ) :   0.9689 B(  2-C ,  3-C ) :   1.2513
B(  2-C ,  6-C ) :   1.0330 B(  3-C ,  4-C ) :   1.5566 B(  3-C ,  5-H ) :   0.9842
B(  4-C , 20-C ) :   1.0339 B(  6-C ,  7-H ) :   0.9391 B(  6-C ,  8-H ) :   0.9357
B(  6-C ,  9-C ) :   1.0656 B(  9-C , 10-H ) :   0.9530 B(  9-C , 11-H ) :   0.9562
B(  9-C , 12-C ) :   1.0749 B( 12-C , 13-H ) :   0.9766 B( 12-C , 14-H ) :   0.9748
B( 12-C , 15-H ) :   0.9750 B( 16-S , 17-C ) :   1.1347 B( 16-S , 20-C ) :   1.1166
B( 17-C , 18-C ) :   1.6613 B( 17-C , 33-H ) :   0.9591 B( 18-C , 19-C ) :   1.2017
B( 18-C , 21-H ) :   0.9995 B( 19-C , 20-C ) :   1.6247 B( 19-C , 22-C ) :   1.0655
B( 22-C , 23-H ) :   0.9388 B( 22-C , 24-H ) :   0.9319 B( 22-C , 25-C ) :   1.0480
B( 25-C , 26-H ) :   0.9479 B( 25-C , 27-H ) :   0.9552 B( 25-C , 28-C ) :   1.0954
B( 28-C , 29-H ) :   0.9699 B( 28-C , 30-H ) :   0.9704 B( 28-C , 31-H ) :   0.9734

Dispersion correction           -0.014255730
FINAL SINGLE POINT ENERGY     -1339.869615127715

DIPOLE MOMENT
-------------
                                X             Y             Z
Electronic contribution:     -2.18402     -25.53548      16.83957
Nuclear contribution   :      2.43224      26.32465     -17.12570
                        -----------------------------------------
Total Dipole Moment    :      0.24822       0.78916      -0.28613
                        -----------------------------------------
Magnitude (a.u.)       :      0.87537
Magnitude (Debye)      :      2.22501

Rotational constants in cm-1:     0.016515     0.008785     0.006906
Rotational constants in MHz :   495.117825   263.354816   207.024075

                             ****ORCA TERMINATED NORMALLY****
TOTAL RUN TIME: 0 days 0 hours 0 minutes 34 seconds 868 msec
