                         Program Version 4.2.1 -  RELEASE  -
|  1> ! wB97X-D3 SP def2-SVP
|  2> %pal
|  3> nprocs 16
|  4> end
|  5>
|  6> * xyz 0 1
|  7> S 	 38.2737 	 25.0612 	 93.6089
|  8> C 	 39.8085 	 25.6621 	 94.3365
|  9> C 	 40.1219 	 24.9079 	 95.4522
| 10> C 	 39.0636 	 24.0064 	 95.7976
| 11> C 	 37.9959 	 23.8697 	 94.9227
| 12> H 	 38.9831 	 23.4543 	 96.7115
| 13> C 	 41.3425 	 25.2521 	 96.3287
| 14> H 	 40.9888 	 25.6612 	 97.2591
| 15> H 	 41.8917 	 25.9763 	 95.7435
| 16> C 	 42.3215 	 24.1216 	 96.5284
| 17> H 	 42.4988 	 23.7529 	 95.5028
| 18> H 	 43.2714 	 24.4277 	 96.876
| 19> C 	 41.8785 	 22.9561 	 97.4481
| 20> H 	 41.0739 	 22.3753 	 96.9898
| 21> H 	 42.7444 	 22.292 	 97.3995
| 22> H 	 41.6433 	 23.1991 	 98.4803
| 23> S 	 35.6221 	 23.1164 	 95.9677
| 24> C 	 34.7271 	 21.7979 	 95.3068
| 25> C 	 35.316 	 21.2856 	 94.1559
| 26> C 	 36.6264 	 21.7887 	 93.9913
| 27> C 	 36.941 	 22.8406 	 94.8827
| 28> H 	 34.85 	 20.5002 	 93.5299
| 29> C 	 37.5227 	 21.3235 	 92.882
| 30> H 	 37.9942 	 22.0865 	 92.3878
| 31> H 	 36.8733 	 20.8908 	 92.1317
| 32> C 	 38.6223 	 20.3455 	 93.2604
| 33> H 	 39.049 	 20.1465 	 92.3441
| 34> H 	 38.196 	 19.5041 	 93.7284
| 35> C 	 39.7052 	 20.8323 	 94.1989
| 36> H 	 40.5027 	 20.1779 	 94.3658
| 37> H 	 39.2768 	 21.0881 	 95.1818
| 38> H 	 40.0471 	 21.7695 	 93.9619
| 39> H 	 40.3269 	 26.4941 	 93.9409
| 40> H 	 33.7642 	 21.4583 	 95.5661
| 41> *
| 42>
| 43>                          ****END OF INPUT****

CARTESIAN COORDINATES (ANGSTROEM)
---------------------------------
  S     38.273700   25.061200   93.608900
  C     39.808500   25.662100   94.336500
  C     40.121900   24.907900   95.452200
  C     39.063600   24.006400   95.797600
  C     37.995900   23.869700   94.922700
  H     38.983100   23.454300   96.711500
  C     41.342500   25.252100   96.328700
  H     40.988800   25.661200   97.259100
  H     41.891700   25.976300   95.743500
  C     42.321500   24.121600   96.528400
  H     42.498800   23.752900   95.502800
  H     43.271400   24.427700   96.876000
  C     41.878500   22.956100   97.448100
  H     41.073900   22.375300   96.989800
  H     42.744400   22.292000   97.399500
  H     41.643300   23.199100   98.480300
  S     35.622100   23.116400   95.967700
  C     34.727100   21.797900   95.306800
  C     35.316000   21.285600   94.155900
  C     36.626400   21.788700   93.991300
  C     36.941000   22.840600   94.882700
  H     34.850000   20.500200   93.529900
  C     37.522700   21.323500   92.882000
  H     37.994200   22.086500   92.387800
  H     36.873300   20.890800   92.131700
  C     38.622300   20.345500   93.260400
  H     39.049000   20.146500   92.344100
  H     38.196000   19.504100   93.728400
  C     39.705200   20.832300   94.198900
  H     40.502700   20.177900   94.365800
  H     39.276800   21.088100   95.181800
  H     40.047100   21.769500   93.961900
  H     40.326900   26.494100   93.940900
  H     33.764200   21.458300   95.566100

 Total Charge           Charge          ....    0
 Multiplicity           Mult            ....    1
 Number of Electrons    NEL             ....  134
 Basis Dimension        Dim             ....  322

ORBITAL ENERGIES
----------------

  NO   OCC          E(Eh)            E(eV)
   0   2.0000     -88.969136     -2420.9733
   1   2.0000     -88.963003     -2420.8064
   2   2.0000     -10.335348      -281.2391
   3   2.0000     -10.327793      -281.0335
   4   2.0000     -10.320643      -280.8390
   5   2.0000     -10.313900      -280.6555
   6   2.0000     -10.305876      -280.4371
   7   2.0000     -10.303260      -280.3660
   8   2.0000     -10.295990      -280.1681
   9   2.0000     -10.295911      -280.1660
  10   2.0000     -10.291019      -280.0329
  11   2.0000     -10.283602      -279.8310
  12   2.0000     -10.277188      -279.6565
  13   2.0000     -10.276307      -279.6325
  14   2.0000     -10.268177      -279.4113
  15   2.0000     -10.255725      -279.0725
  16   2.0000      -8.084266      -219.9841
  17   2.0000      -8.076205      -219.7647
  18   2.0000      -6.042671      -164.4294
  19   2.0000      -6.038521      -164.3165
  20   2.0000      -6.035300      -164.2289
  21   2.0000      -6.034771      -164.2145
  22   2.0000      -6.030837      -164.1074
  23   2.0000      -6.027050      -164.0044
  24   2.0000      -1.005235       -27.3538
  25   2.0000      -0.980645       -26.6847
  26   2.0000      -0.915028       -24.8992
  27   2.0000      -0.911933       -24.8150
  28   2.0000      -0.870008       -23.6741
  29   2.0000      -0.851611       -23.1735
  30   2.0000      -0.837124       -22.7793
  31   2.0000      -0.818777       -22.2800
  32   2.0000      -0.789226       -21.4759
  33   2.0000      -0.777145       -21.1472
  34   2.0000      -0.709302       -19.3011
  35   2.0000      -0.697686       -18.9850
  36   2.0000      -0.693980       -18.8842
  37   2.0000      -0.665217       -18.1015
  38   2.0000      -0.643876       -17.5208
  39   2.0000      -0.617785       -16.8108
  40   2.0000      -0.602402       -16.3922
  41   2.0000      -0.576712       -15.6931
  42   2.0000      -0.553654       -15.0657
  43   2.0000      -0.547702       -14.9037
  44   2.0000      -0.543807       -14.7977
  45   2.0000      -0.542508       -14.7624
  46   2.0000      -0.519060       -14.1243
  47   2.0000      -0.517437       -14.0802
  48   2.0000      -0.503670       -13.7056
  49   2.0000      -0.499816       -13.6007
  50   2.0000      -0.493651       -13.4329
  51   2.0000      -0.485687       -13.2162
  52   2.0000      -0.474669       -12.9164
  53   2.0000      -0.464691       -12.6449
  54   2.0000      -0.459394       -12.5007
  55   2.0000      -0.447809       -12.1855
  56   2.0000      -0.441399       -12.0111
  57   2.0000      -0.434059       -11.8114
  58   2.0000      -0.430267       -11.7082
  59   2.0000      -0.420142       -11.4327
  60   2.0000      -0.418173       -11.3791
  61   2.0000      -0.412435       -11.2229
  62   2.0000      -0.410157       -11.1609
  63   2.0000      -0.337561        -9.1855
  64   2.0000      -0.331175        -9.0117
  65   2.0000      -0.326491        -8.8843
  66   2.0000      -0.302674        -8.2362
  67   0.0000       0.034609         0.9418
  68   0.0000       0.052713         1.4344
  69   0.0000       0.112571         3.0632
  70   0.0000       0.119536         3.2527
  71   0.0000       0.125992         3.4284

MULLIKEN ATOMIC CHARGES
-----------------------
   0 S :    0.087545
   1 C :   -0.123723
   2 C :   -0.084333
   3 C :    0.039608
   4 C :   -0.148974
   5 H :    0.009196
   6 C :    0.110075
   7 H :    0.035503
   8 H :    0.009209
   9 C :   -0.072624
  10 H :    0.023451
  11 H :    0.019336
  12 C :   -0.061670
  13 H :    0.036947
  14 H :    0.030234
  15 H :    0.039677
  16 S :    0.132821
  17 C :   -0.064239
  18 C :   -0.062896
  19 C :   -0.048739
  20 C :   -0.181912
  21 H :    0.034887
  22 C :    0.104740
  23 H :   -0.006913
  24 H :    0.006223
  25 C :    0.005260
  26 H :    0.008378
  27 H :    0.009294
  28 C :   -0.005770
  29 H :    0.023733
  30 H :    0.018093
  31 H :   -0.002871
  32 H :    0.044459
  33 H :    0.035997
Sum of atomic charges:   -0.0000000

LOEWDIN ATOMIC CHARGES
----------------------
   0 S :    0.363056
   1 C :   -0.164786
   2 C :   -0.064096
   3 C :   -0.058072
   4 C :   -0.189261
   5 H :    0.026392
   6 C :   -0.022941
   7 H :    0.027752
   8 H :    0.030184
   9 C :   -0.039532
  10 H :    0.029444
  11 H :    0.017540
  12 C :   -0.068657
  13 H :    0.024591
  14 H :    0.030181
  15 H :    0.023793
  16 S :    0.443985
  17 C :   -0.189248
  18 C :   -0.073008
  19 C :   -0.049267
  20 C :   -0.218683
  21 H :    0.039112
  22 C :   -0.023395
  23 H :    0.014805
  24 H :    0.031167
  25 C :   -0.019276
  26 H :    0.015918
  27 H :    0.017641
  28 C :   -0.056712
  29 H :    0.019730
  30 H :    0.026987
  31 H :    0.011809
  32 H :    0.022023
  33 H :    0.020827

  Mayer bond orders larger than 0.100000
B(  0-S ,  1-C ) :   1.1420 B(  0-S ,  4-C ) :   1.1217 B(  1-C ,  2-C ) :   1.6063
B(  1-C , 32-H ) :   0.9753 B(  2-C ,  3-C ) :   1.2247 B(  2-C ,  6-C ) :   1.0190
B(  3-C ,  4-C ) :   1.6026 B(  3-C ,  5-H ) :   0.9878 B(  4-C , 20-C ) :   1.0115
B(  6-C ,  7-H ) :   0.9453 B(  6-C ,  8-H ) :   0.9331 B(  6-C ,  9-C ) :   1.0755
B(  9-C , 10-H ) :   0.9495 B(  9-C , 11-H ) :   0.9592 B(  9-C , 12-C ) :   1.0816
B( 12-C , 13-H ) :   0.9713 B( 12-C , 14-H ) :   0.9715 B( 12-C , 15-H ) :   0.9761
B( 16-S , 17-C ) :   1.1831 B( 16-S , 20-C ) :   1.1644 B( 17-C , 18-C ) :   1.5723
B( 17-C , 20-C ) :   0.1073 B( 17-C , 33-H ) :   0.9698 B( 18-C , 19-C ) :   1.2944
B( 18-C , 21-H ) :   0.9819 B( 19-C , 20-C ) :   1.5478 B( 19-C , 22-C ) :   1.0459
B( 22-C , 23-H ) :   0.9239 B( 22-C , 24-H ) :   0.9262 B( 22-C , 25-C ) :   1.0832
B( 25-C , 26-H ) :   0.9484 B( 25-C , 27-H ) :   0.9508 B( 25-C , 28-C ) :   1.0960
B( 28-C , 29-H ) :   0.9710 B( 28-C , 30-H ) :   0.9625 B( 28-C , 31-H ) :   0.9668

Dispersion correction           -0.016606617
FINAL SINGLE POINT ENERGY     -1339.865012886752

DIPOLE MOMENT
-------------
                                X             Y             Z
Electronic contribution:    -22.24642      11.35924      -3.14275
Nuclear contribution   :     22.61998     -11.55171       3.16310
                        -----------------------------------------
Total Dipole Moment    :      0.37356      -0.19248       0.02035
                        -----------------------------------------
Magnitude (a.u.)       :      0.42072
Magnitude (Debye)      :      1.06939

Rotational constants in cm-1:     0.019997     0.009137     0.008352
Rotational constants in MHz :   599.503072   273.927323   250.389266

                             ****ORCA TERMINATED NORMALLY****
TOTAL RUN TIME: 0 days 0 hours 0 minutes 32 seconds 845 msec
