                         Program Version 4.2.1 -  RELEASE  -
|  1> ! wB97X-D3 SP def2-SVP
|  2> %pal
|  3> nprocs 16
|  4> end
|  5>
|  6> * xyz 0 1
|  7> S 	 -7.15734 	 -7.47192 	 87.594
|  8> C 	 -7.51187 	 -9.16573 	 87.056
|  9> C 	 -6.47605 	 -10.03 	 87.3131
| 10> C 	 -5.54369 	 -9.42788 	 88.2194
| 11> C 	 -5.75572 	 -8.07418 	 88.5254
| 12> H 	 -4.81113 	 -9.98638 	 88.7497
| 13> C 	 -6.3048 	 -11.4513 	 86.7212
| 14> H 	 -5.2929 	 -11.5113 	 86.3793
| 15> H 	 -6.92006 	 -11.4842 	 85.8984
| 16> C 	 -6.54392 	 -12.5848 	 87.6761
| 17> H 	 -6.15406 	 -12.3261 	 88.6476
| 18> H 	 -7.67503 	 -12.5788 	 87.8555
| 19> C 	 -5.85223 	 -13.8906 	 87.3388
| 20> H 	 -5.91469 	 -14.6363 	 88.1731
| 21> H 	 -6.32351 	 -14.3819 	 86.4336
| 22> H 	 -4.86784 	 -13.5756 	 87.1014
| 23> S 	 -6.09168 	 -6.62393 	 90.8011
| 24> C 	 -4.6819 	 -5.84859 	 91.4381
| 25> C 	 -3.53574 	 -6.15426 	 90.7313
| 26> C 	 -3.71516 	 -7.02774 	 89.6299
| 27> C 	 -5.03702 	 -7.38153 	 89.5377
| 28> H 	 -2.54971 	 -5.81217 	 90.9831
| 29> C 	 -2.60987 	 -7.33967 	 88.643
| 30> H 	 -1.97354 	 -6.46016 	 88.605
| 31> H 	 -3.15011 	 -7.21618 	 87.6919
| 32> C 	 -1.69989 	 -8.57285 	 88.9759
| 33> H 	 -2.35003 	 -9.42131 	 89.0547
| 34> H 	 -1.23371 	 -8.44227 	 89.9562
| 35> C 	 -0.582191 	 -8.85064 	 87.9754
| 36> H 	 0.012295 	 -7.98246 	 87.7239
| 37> H 	 -1.17908 	 -9.14764 	 87.0766
| 38> H 	 -0.10403 	 -9.71983 	 88.4018
| 39> H 	 -8.38015 	 -9.45284 	 86.4738
| 40> H 	 -4.63873 	 -5.2541 	 92.3784
| 41> *
| 42>
| 43>                          ****END OF INPUT****

CARTESIAN COORDINATES (ANGSTROEM)
---------------------------------
  S     -7.157340   -7.471920   87.594000
  C     -7.511870   -9.165730   87.056000
  C     -6.476050  -10.030000   87.313100
  C     -5.543690   -9.427880   88.219400
  C     -5.755720   -8.074180   88.525400
  H     -4.811130   -9.986380   88.749700
  C     -6.304800  -11.451300   86.721200
  H     -5.292900  -11.511300   86.379300
  H     -6.920060  -11.484200   85.898400
  C     -6.543920  -12.584800   87.676100
  H     -6.154060  -12.326100   88.647600
  H     -7.675030  -12.578800   87.855500
  C     -5.852230  -13.890600   87.338800
  H     -5.914690  -14.636300   88.173100
  H     -6.323510  -14.381900   86.433600
  H     -4.867840  -13.575600   87.101400
  S     -6.091680   -6.623930   90.801100
  C     -4.681900   -5.848590   91.438100
  C     -3.535740   -6.154260   90.731300
  C     -3.715160   -7.027740   89.629900
  C     -5.037020   -7.381530   89.537700
  H     -2.549710   -5.812170   90.983100
  C     -2.609870   -7.339670   88.643000
  H     -1.973540   -6.460160   88.605000
  H     -3.150110   -7.216180   87.691900
  C     -1.699890   -8.572850   88.975900
  H     -2.350030   -9.421310   89.054700
  H     -1.233710   -8.442270   89.956200
  C     -0.582191   -8.850640   87.975400
  H      0.012295   -7.982460   87.723900
  H     -1.179080   -9.147640   87.076600
  H     -0.104030   -9.719830   88.401800
  H     -8.380150   -9.452840   86.473800
  H     -4.638730   -5.254100   92.378400

 Total Charge           Charge          ....    0
 Multiplicity           Mult            ....    1
 Number of Electrons    NEL             ....  134
 Basis Dimension        Dim             ....  322

ORBITAL ENERGIES
----------------

  NO   OCC          E(Eh)            E(eV)
   0   2.0000     -88.967093     -2420.9177
   1   2.0000     -88.964988     -2420.8604
   2   2.0000     -10.328109      -281.0421
   3   2.0000     -10.323295      -280.9111
   4   2.0000     -10.318094      -280.7696
   5   2.0000     -10.317167      -280.7444
   6   2.0000     -10.302321      -280.3404
   7   2.0000     -10.300027      -280.2780
   8   2.0000     -10.294099      -280.1167
   9   2.0000     -10.292032      -280.0604
  10   2.0000     -10.290054      -280.0066
  11   2.0000     -10.288161      -279.9551
  12   2.0000     -10.286932      -279.9217
  13   2.0000     -10.286529      -279.9107
  14   2.0000     -10.285903      -279.8937
  15   2.0000     -10.281129      -279.7638
  16   2.0000      -8.080110      -219.8710
  17   2.0000      -8.079350      -219.8503
  18   2.0000      -6.038821      -164.3247
  19   2.0000      -6.037818      -164.2974
  20   2.0000      -6.035050      -164.2221
  21   2.0000      -6.034029      -164.1943
  22   2.0000      -6.030558      -164.0998
  23   2.0000      -6.030044      -164.0858
  24   2.0000      -1.001444       -27.2507
  25   2.0000      -0.975926       -26.5563
  26   2.0000      -0.917340       -24.9621
  27   2.0000      -0.908492       -24.7213
  28   2.0000      -0.870402       -23.6848
  29   2.0000      -0.858985       -23.3742
  30   2.0000      -0.842209       -22.9177
  31   2.0000      -0.808624       -22.0038
  32   2.0000      -0.786809       -21.4102
  33   2.0000      -0.773208       -21.0401
  34   2.0000      -0.706543       -19.2260
  35   2.0000      -0.698329       -19.0025
  36   2.0000      -0.695056       -18.9134
  37   2.0000      -0.663241       -18.0477
  38   2.0000      -0.638079       -17.3630
  39   2.0000      -0.617099       -16.7921
  40   2.0000      -0.592623       -16.1261
  41   2.0000      -0.575417       -15.6579
  42   2.0000      -0.565246       -15.3811
  43   2.0000      -0.555301       -15.1105
  44   2.0000      -0.541764       -14.7422
  45   2.0000      -0.527167       -14.3449
  46   2.0000      -0.511009       -13.9053
  47   2.0000      -0.510249       -13.8846
  48   2.0000      -0.505277       -13.7493
  49   2.0000      -0.502490       -13.6734
  50   2.0000      -0.493153       -13.4194
  51   2.0000      -0.480047       -13.0627
  52   2.0000      -0.469362       -12.7720
  53   2.0000      -0.458213       -12.4686
  54   2.0000      -0.456229       -12.4146
  55   2.0000      -0.453413       -12.3380
  56   2.0000      -0.444490       -12.0952
  57   2.0000      -0.437490       -11.9047
  58   2.0000      -0.436432       -11.8759
  59   2.0000      -0.426860       -11.6155
  60   2.0000      -0.423582       -11.5262
  61   2.0000      -0.412975       -11.2376
  62   2.0000      -0.411579       -11.1996
  63   2.0000      -0.338924        -9.2226
  64   2.0000      -0.336623        -9.1600
  65   2.0000      -0.325821        -8.8661
  66   2.0000      -0.290930        -7.9166
  67   0.0000       0.027039         0.7358
  68   0.0000       0.066304         1.8042
  69   0.0000       0.100140         2.7250
  70   0.0000       0.114926         3.1273
  71   0.0000       0.129894         3.5346

MULLIKEN ATOMIC CHARGES
-----------------------
   0 S :    0.104111
   1 C :   -0.142091
   2 C :   -0.090370
   3 C :    0.028282
   4 C :   -0.151534
   5 H :    0.003656
   6 C :    0.142783
   7 H :    0.011919
   8 H :   -0.001485
   9 C :   -0.093629
  10 H :    0.020262
  11 H :    0.031978
  12 C :   -0.043390
  13 H :    0.051597
  14 H :    0.038961
  15 H :    0.024039
  16 S :    0.110675
  17 C :   -0.092051
  18 C :   -0.024945
  19 C :   -0.026034
  20 C :   -0.200108
  21 H :    0.001631
  22 C :    0.064889
  23 H :    0.007303
  24 H :    0.038241
  25 C :   -0.069446
  26 H :    0.019095
  27 H :    0.026380
  28 C :   -0.024631
  29 H :    0.042295
  30 H :    0.032900
  31 H :    0.042419
  32 H :    0.046203
  33 H :    0.070095
Sum of atomic charges:   -0.0000000

LOEWDIN ATOMIC CHARGES
----------------------
   0 S :    0.359480
   1 C :   -0.175662
   2 C :   -0.057278
   3 C :   -0.054258
   4 C :   -0.190216
   5 H :    0.021134
   6 C :   -0.017000
   7 H :    0.027818
   8 H :    0.018267
   9 C :   -0.050943
  10 H :    0.021058
  11 H :    0.030087
  12 C :   -0.063917
  13 H :    0.034730
  14 H :    0.029948
  15 H :    0.019965
  16 S :    0.390682
  17 C :   -0.193764
  18 C :   -0.072462
  19 C :   -0.050063
  20 C :   -0.180854
  21 H :    0.025035
  22 C :   -0.035895
  23 H :    0.027879
  24 H :    0.039313
  25 C :   -0.034060
  26 H :    0.017654
  27 H :    0.023353
  28 C :   -0.062340
  29 H :    0.025104
  30 H :    0.032544
  31 H :    0.029977
  32 H :    0.026337
  33 H :    0.038347

  Mayer bond orders larger than 0.100000
B(  0-S ,  1-C ) :   1.1150 B(  0-S ,  4-C ) :   1.1152 B(  1-C ,  2-C ) :   1.6465
B(  1-C , 32-H ) :   0.9642 B(  2-C ,  3-C ) :   1.2156 B(  2-C ,  6-C ) :   1.0172
B(  3-C ,  4-C ) :   1.5894 B(  3-C ,  5-H ) :   0.9898 B(  4-C , 20-C ) :   1.0861
B(  6-C ,  7-H ) :   0.9355 B(  6-C ,  8-H ) :   0.9326 B(  6-C ,  9-C ) :   1.0647
B(  9-C , 10-H ) :   0.9611 B(  9-C , 11-H ) :   0.9481 B(  9-C , 12-C ) :   1.0674
B( 12-C , 13-H ) :   0.9747 B( 12-C , 14-H ) :   0.9756 B( 12-C , 15-H ) :   0.9725
B( 16-S , 17-C ) :   1.1479 B( 16-S , 20-C ) :   1.1210 B( 17-C , 18-C ) :   1.6139
B( 17-C , 33-H ) :   0.9598 B( 18-C , 19-C ) :   1.2477 B( 18-C , 21-H ) :   0.9853
B( 19-C , 20-C ) :   1.6078 B( 19-C , 22-C ) :   1.0324 B( 22-C , 23-H ) :   0.9327
B( 22-C , 24-H ) :   0.9316 B( 22-C , 25-C ) :   1.0436 B( 25-C , 26-H ) :   0.9583
B( 25-C , 27-H ) :   0.9543 B( 25-C , 28-C ) :   1.0790 B( 28-C , 29-H ) :   0.9755
B( 28-C , 30-H ) :   0.9763 B( 28-C , 31-H ) :   0.9735

Dispersion correction           -0.013848217
FINAL SINGLE POINT ENERGY     -1339.863314268505

DIPOLE MOMENT
-------------
                                X             Y             Z
Electronic contribution:    -17.55224      23.36450       8.30037
Nuclear contribution   :     18.10145     -23.82291      -8.39118
                        -----------------------------------------
Total Dipole Moment    :      0.54921      -0.45841      -0.09081
                        -----------------------------------------
Magnitude (a.u.)       :      0.72112
Magnitude (Debye)      :      1.83295

Rotational constants in cm-1:     0.015908     0.008953     0.006662
Rotational constants in MHz :   476.911220   268.397800   199.725300

                             ****ORCA TERMINATED NORMALLY****
TOTAL RUN TIME: 0 days 0 hours 0 minutes 31 seconds 668 msec
