                         Program Version 4.2.1 -  RELEASE  -
|  1> ! wB97X-D3 SP def2-SVP
|  2> %pal
|  3> nprocs 16
|  4> end
|  5>
|  6> * xyz 0 1
|  7> S 	 -17.3011 	 47.3082 	 44.6291
|  8> C 	 -17.7608 	 47.2089 	 42.9605
|  9> C 	 -17.0485 	 46.2254 	 42.2463
| 10> C 	 -16.2202 	 45.498 	 43.1536
| 11> C 	 -16.1387 	 46.0072 	 44.4406
| 12> H 	 -15.7046 	 44.5809 	 42.9431
| 13> C 	 -17.3234 	 45.7485 	 40.8013
| 14> H 	 -16.479 	 46.1109 	 40.2288
| 15> H 	 -18.1682 	 46.4015 	 40.3537
| 16> C 	 -17.6519 	 44.2686 	 40.6134
| 17> H 	 -16.8562 	 43.628 	 41.0212
| 18> H 	 -18.4519 	 44.0476 	 41.2984
| 19> C 	 -17.9966 	 43.7977 	 39.1583
| 20> H 	 -18.7503 	 42.9474 	 39.2682
| 21> H 	 -18.408 	 44.5602 	 38.4259
| 22> H 	 -17.1305 	 43.4328 	 38.6535
| 23> S 	 -16.3812 	 45.4234 	 47.0987
| 24> C 	 -14.9983 	 44.7762 	 48.0404
| 25> C 	 -13.9562 	 44.4431 	 47.2601
| 26> C 	 -14.2134 	 44.7507 	 45.8662
| 27> C 	 -15.4327 	 45.4684 	 45.6508
| 28> H 	 -13.1878 	 43.7898 	 47.6659
| 29> C 	 -13.2224 	 44.4602 	 44.7763
| 30> H 	 -13.7768 	 44.088 	 43.8704
| 31> H 	 -12.4805 	 43.6528 	 45.0115
| 32> C 	 -12.244 	 45.532 	 44.4354
| 33> H 	 -11.5286 	 45.6582 	 45.3109
| 34> H 	 -12.8442 	 46.3939 	 44.444
| 35> C 	 -11.6637 	 45.4196 	 43.0179
| 36> H 	 -12.3607 	 45.6993 	 42.2399
| 37> H 	 -11.43 	 44.4125 	 42.8571
| 38> H 	 -10.6787 	 45.8888 	 42.9814
| 39> H 	 -18.5326 	 47.7567 	 42.4324
| 40> H 	 -15.153 	 44.4275 	 49.0756
| 41> *
| 42>
| 43>                          ****END OF INPUT****

CARTESIAN COORDINATES (ANGSTROEM)
---------------------------------
  S    -17.301100   47.308200   44.629100
  C    -17.760800   47.208900   42.960500
  C    -17.048500   46.225400   42.246300
  C    -16.220200   45.498000   43.153600
  C    -16.138700   46.007200   44.440600
  H    -15.704600   44.580900   42.943100
  C    -17.323400   45.748500   40.801300
  H    -16.479000   46.110900   40.228800
  H    -18.168200   46.401500   40.353700
  C    -17.651900   44.268600   40.613400
  H    -16.856200   43.628000   41.021200
  H    -18.451900   44.047600   41.298400
  C    -17.996600   43.797700   39.158300
  H    -18.750300   42.947400   39.268200
  H    -18.408000   44.560200   38.425900
  H    -17.130500   43.432800   38.653500
  S    -16.381200   45.423400   47.098700
  C    -14.998300   44.776200   48.040400
  C    -13.956200   44.443100   47.260100
  C    -14.213400   44.750700   45.866200
  C    -15.432700   45.468400   45.650800
  H    -13.187800   43.789800   47.665900
  C    -13.222400   44.460200   44.776300
  H    -13.776800   44.088000   43.870400
  H    -12.480500   43.652800   45.011500
  C    -12.244000   45.532000   44.435400
  H    -11.528600   45.658200   45.310900
  H    -12.844200   46.393900   44.444000
  C    -11.663700   45.419600   43.017900
  H    -12.360700   45.699300   42.239900
  H    -11.430000   44.412500   42.857100
  H    -10.678700   45.888800   42.981400
  H    -18.532600   47.756700   42.432400
  H    -15.153000   44.427500   49.075600

 Total Charge           Charge          ....    0
 Multiplicity           Mult            ....    1
 Number of Electrons    NEL             ....  134
 Basis Dimension        Dim             ....  322

ORBITAL ENERGIES
----------------

  NO   OCC          E(Eh)            E(eV)
   0   2.0000     -88.971644     -2421.0415
   1   2.0000     -88.964750     -2420.8539
   2   2.0000     -10.336316      -281.2655
   3   2.0000     -10.335872      -281.2534
   4   2.0000     -10.318974      -280.7936
   5   2.0000     -10.317272      -280.7472
   6   2.0000     -10.310894      -280.5737
   7   2.0000     -10.306926      -280.4657
   8   2.0000     -10.303409      -280.3700
   9   2.0000     -10.297259      -280.2026
  10   2.0000     -10.295525      -280.1555
  11   2.0000     -10.293732      -280.1067
  12   2.0000     -10.291842      -280.0552
  13   2.0000     -10.289705      -279.9971
  14   2.0000     -10.277029      -279.6522
  15   2.0000     -10.271969      -279.5145
  16   2.0000      -8.086103      -220.0340
  17   2.0000      -8.079412      -219.8520
  18   2.0000      -6.044616      -164.4824
  19   2.0000      -6.040579      -164.3725
  20   2.0000      -6.037993      -164.3021
  21   2.0000      -6.036931      -164.2732
  22   2.0000      -6.034005      -164.1936
  23   2.0000      -6.030005      -164.0848
  24   2.0000      -1.005328       -27.3564
  25   2.0000      -0.983264       -26.7560
  26   2.0000      -0.913983       -24.8708
  27   2.0000      -0.907195       -24.6860
  28   2.0000      -0.870015       -23.6743
  29   2.0000      -0.849233       -23.1088
  30   2.0000      -0.843481       -22.9523
  31   2.0000      -0.818649       -22.2766
  32   2.0000      -0.781275       -21.2596
  33   2.0000      -0.769956       -20.9516
  34   2.0000      -0.711139       -19.3511
  35   2.0000      -0.697998       -18.9935
  36   2.0000      -0.686798       -18.6887
  37   2.0000      -0.661285       -17.9945
  38   2.0000      -0.639630       -17.4052
  39   2.0000      -0.623365       -16.9626
  40   2.0000      -0.597450       -16.2575
  41   2.0000      -0.571298       -15.5458
  42   2.0000      -0.564598       -15.3635
  43   2.0000      -0.556463       -15.1421
  44   2.0000      -0.527129       -14.3439
  45   2.0000      -0.519238       -14.1292
  46   2.0000      -0.514186       -13.9917
  47   2.0000      -0.505149       -13.7458
  48   2.0000      -0.501768       -13.6538
  49   2.0000      -0.498777       -13.5724
  50   2.0000      -0.496116       -13.5000
  51   2.0000      -0.482179       -13.1207
  52   2.0000      -0.471684       -12.8352
  53   2.0000      -0.467367       -12.7177
  54   2.0000      -0.458711       -12.4822
  55   2.0000      -0.451317       -12.2810
  56   2.0000      -0.444157       -12.0861
  57   2.0000      -0.440861       -11.9964
  58   2.0000      -0.433558       -11.7977
  59   2.0000      -0.425165       -11.5693
  60   2.0000      -0.422244       -11.4898
  61   2.0000      -0.414719       -11.2851
  62   2.0000      -0.399007       -10.8575
  63   2.0000      -0.357191        -9.7197
  64   2.0000      -0.334253        -9.0955
  65   2.0000      -0.327888        -8.9223
  66   2.0000      -0.287162        -7.8141
  67   0.0000       0.021912         0.5962
  68   0.0000       0.074283         2.0213
  69   0.0000       0.097190         2.6447
  70   0.0000       0.120597         3.2816
  71   0.0000       0.135924         3.6987

MULLIKEN ATOMIC CHARGES
-----------------------
   0 S :    0.120466
   1 C :   -0.105670
   2 C :   -0.096734
   3 C :    0.003910
   4 C :   -0.132516
   5 H :    0.006902
   6 C :    0.050904
   7 H :    0.034899
   8 H :    0.026395
   9 C :   -0.072784
  10 H :    0.033207
  11 H :    0.032836
  12 C :   -0.076806
  13 H :    0.049397
  14 H :    0.044809
  15 H :    0.034502
  16 S :    0.086114
  17 C :   -0.103952
  18 C :   -0.009349
  19 C :   -0.057530
  20 C :   -0.122771
  21 H :    0.032250
  22 C :   -0.002628
  23 H :    0.026165
  24 H :    0.020315
  25 C :   -0.056962
  26 H :    0.033671
  27 H :    0.013301
  28 C :   -0.004270
  29 H :    0.042231
  30 H :    0.001077
  31 H :    0.033791
  32 H :    0.045331
  33 H :    0.069497
Sum of atomic charges:    0.0000000

LOEWDIN ATOMIC CHARGES
----------------------
   0 S :    0.418043
   1 C :   -0.203685
   2 C :   -0.063369
   3 C :   -0.065422
   4 C :   -0.194981
   5 H :    0.024499
   6 C :   -0.037316
   7 H :    0.029194
   8 H :    0.036054
   9 C :   -0.045782
  10 H :    0.026849
  11 H :    0.025825
  12 C :   -0.072961
  13 H :    0.038675
  14 H :    0.032913
  15 H :    0.021172
  16 S :    0.392429
  17 C :   -0.173521
  18 C :   -0.070709
  19 C :   -0.056029
  20 C :   -0.198505
  21 H :    0.040042
  22 C :   -0.049130
  23 H :    0.029484
  24 H :    0.033146
  25 C :   -0.044807
  26 H :    0.030531
  27 H :    0.014844
  28 C :   -0.057010
  29 H :    0.030475
  30 H :    0.013217
  31 H :    0.032216
  32 H :    0.029533
  33 H :    0.034085

  Mayer bond orders larger than 0.100000
B(  0-S ,  1-C ) :   1.1527 B(  0-S ,  4-C ) :   1.1525 B(  1-C ,  2-C ) :   1.6018
B(  1-C , 32-H ) :   0.9617 B(  2-C ,  3-C ) :   1.2529 B(  2-C ,  6-C ) :   1.0173
B(  3-C ,  4-C ) :   1.5761 B(  3-C ,  5-H ) :   0.9883 B(  4-C , 20-C ) :   1.0314
B(  6-C ,  7-H ) :   0.9342 B(  6-C ,  8-H ) :   0.9443 B(  6-C ,  9-C ) :   1.0583
B(  9-C , 10-H ) :   0.9505 B(  9-C , 11-H ) :   0.9639 B(  9-C , 12-C ) :   1.0618
B( 12-C , 13-H ) :   0.9778 B( 12-C , 14-H ) :   0.9788 B( 12-C , 15-H ) :   0.9786
B( 16-S , 17-C ) :   1.1380 B( 16-S , 20-C ) :   1.1545 B( 17-C , 18-C ) :   1.6338
B( 17-C , 33-H ) :   0.9602 B( 18-C , 19-C ) :   1.2389 B( 18-C , 21-H ) :   0.9851
B( 19-C , 20-C ) :   1.5705 B( 19-C , 22-C ) :   1.0603 B( 22-C , 23-H ) :   0.9385
B( 22-C , 24-H ) :   0.9289 B( 22-C , 25-C ) :   1.0557 B( 25-C , 26-H ) :   0.9537
B( 25-C , 27-H ) :   0.9583 B( 25-C , 28-C ) :   1.0736 B( 28-C , 29-H ) :   0.9737
B( 28-C , 30-H ) :   0.9729 B( 28-C , 31-H ) :   0.9703

Dispersion correction           -0.013812533
FINAL SINGLE POINT ENERGY     -1339.860923855283

DIPOLE MOMENT
-------------
                                X             Y             Z
Electronic contribution:    -10.92929      10.51116      25.59780
Nuclear contribution   :     11.10669     -11.07036     -26.07003
                        -----------------------------------------
Total Dipole Moment    :      0.17740      -0.55920      -0.47223
                        -----------------------------------------
Magnitude (a.u.)       :      0.75311
Magnitude (Debye)      :      1.91424

Rotational constants in cm-1:     0.017197     0.008526     0.006727
Rotational constants in MHz :   515.561756   255.596306   201.662216

                             ****ORCA TERMINATED NORMALLY****
TOTAL RUN TIME: 0 days 0 hours 0 minutes 33 seconds 387 msec
