                         Program Version 4.2.1 -  RELEASE  -
|  1> ! wB97X-D3 SP def2-SVP
|  2> %pal
|  3> nprocs 16
|  4> end
|  5>
|  6> * xyz 0 1
|  7> S 	 -33.2758 	 58.3332 	 114.897
|  8> C 	 -32.816 	 57.6911 	 113.351
|  9> C 	 -31.7821 	 58.4365 	 112.782
| 10> C 	 -31.1905 	 59.341 	 113.672
| 11> C 	 -31.907 	 59.3938 	 114.883
| 12> H 	 -30.3373 	 59.9606 	 113.556
| 13> C 	 -31.1974 	 58.12 	 111.473
| 14> H 	 -30.9985 	 59.0934 	 111.028
| 15> H 	 -31.9245 	 57.703 	 110.829
| 16> C 	 -30.094 	 57.1018 	 111.577
| 17> H 	 -29.3861 	 57.4323 	 112.327
| 18> H 	 -30.4913 	 56.1974 	 112.05
| 19> C 	 -29.492 	 56.854 	 110.203
| 20> H 	 -30.0176 	 56.0401 	 109.693
| 21> H 	 -29.4853 	 57.7626 	 109.661
| 22> H 	 -28.4373 	 56.4111 	 110.17
| 23> S 	 -31.1891 	 59.2397 	 117.563
| 24> C 	 -30.7017 	 60.7015 	 118.437
| 25> C 	 -30.807 	 61.8297 	 117.647
| 26> C 	 -31.3256 	 61.5208 	 116.31
| 27> C 	 -31.4105 	 60.1478 	 116.058
| 28> H 	 -30.6134 	 62.7433 	 118.14
| 29> C 	 -31.4081 	 62.5832 	 115.181
| 30> H 	 -32.296 	 62.353 	 114.559
| 31> H 	 -30.5961 	 62.3328 	 114.515
| 32> C 	 -31.308 	 64.0702 	 115.49
| 33> H 	 -30.4522 	 64.2474 	 116.09
| 34> H 	 -32.1603 	 64.4346 	 116.065
| 35> C 	 -31.2769 	 64.8646 	 114.182
| 36> H 	 -31.1131 	 65.9184 	 114.361
| 37> H 	 -32.2577 	 64.7091 	 113.708
| 38> H 	 -30.4577 	 64.6224 	 113.619
| 39> H 	 -33.3208 	 56.8814 	 112.877
| 40> H 	 -30.5105 	 60.7087 	 119.482
| 41> *
| 42>
| 43>                          ****END OF INPUT****

CARTESIAN COORDINATES (ANGSTROEM)
---------------------------------
  S    -33.275800   58.333200  114.897000
  C    -32.816000   57.691100  113.351000
  C    -31.782100   58.436500  112.782000
  C    -31.190500   59.341000  113.672000
  C    -31.907000   59.393800  114.883000
  H    -30.337300   59.960600  113.556000
  C    -31.197400   58.120000  111.473000
  H    -30.998500   59.093400  111.028000
  H    -31.924500   57.703000  110.829000
  C    -30.094000   57.101800  111.577000
  H    -29.386100   57.432300  112.327000
  H    -30.491300   56.197400  112.050000
  C    -29.492000   56.854000  110.203000
  H    -30.017600   56.040100  109.693000
  H    -29.485300   57.762600  109.661000
  H    -28.437300   56.411100  110.170000
  S    -31.189100   59.239700  117.563000
  C    -30.701700   60.701500  118.437000
  C    -30.807000   61.829700  117.647000
  C    -31.325600   61.520800  116.310000
  C    -31.410500   60.147800  116.058000
  H    -30.613400   62.743300  118.140000
  C    -31.408100   62.583200  115.181000
  H    -32.296000   62.353000  114.559000
  H    -30.596100   62.332800  114.515000
  C    -31.308000   64.070200  115.490000
  H    -30.452200   64.247400  116.090000
  H    -32.160300   64.434600  116.065000
  C    -31.276900   64.864600  114.182000
  H    -31.113100   65.918400  114.361000
  H    -32.257700   64.709100  113.708000
  H    -30.457700   64.622400  113.619000
  H    -33.320800   56.881400  112.877000
  H    -30.510500   60.708700  119.482000

 Total Charge           Charge          ....    0
 Multiplicity           Mult            ....    1
 Number of Electrons    NEL             ....  134
 Basis Dimension        Dim             ....  322

ORBITAL ENERGIES
----------------

  NO   OCC          E(Eh)            E(eV)
   0   2.0000     -88.969838     -2420.9924
   1   2.0000     -88.960730     -2420.7445
   2   2.0000     -10.328701      -281.0583
   3   2.0000     -10.326737      -281.0048
   4   2.0000     -10.315703      -280.7045
   5   2.0000     -10.310999      -280.5765
   6   2.0000     -10.310157      -280.5536
   7   2.0000     -10.295029      -280.1420
   8   2.0000     -10.294679      -280.1325
   9   2.0000     -10.291190      -280.0375
  10   2.0000     -10.290996      -280.0322
  11   2.0000     -10.282724      -279.8071
  12   2.0000     -10.282555      -279.8025
  13   2.0000     -10.280088      -279.7354
  14   2.0000     -10.279258      -279.7128
  15   2.0000     -10.272006      -279.5155
  16   2.0000      -8.084702      -219.9959
  17   2.0000      -8.074978      -219.7313
  18   2.0000      -6.043004      -164.4385
  19   2.0000      -6.039090      -164.3320
  20   2.0000      -6.035791      -164.2422
  21   2.0000      -6.033561      -164.1815
  22   2.0000      -6.029533      -164.0719
  23   2.0000      -6.025717      -163.9681
  24   2.0000      -1.004442       -27.3323
  25   2.0000      -0.979000       -26.6399
  26   2.0000      -0.922042       -25.0901
  27   2.0000      -0.909231       -24.7414
  28   2.0000      -0.865745       -23.5581
  29   2.0000      -0.855060       -23.2674
  30   2.0000      -0.844273       -22.9738
  31   2.0000      -0.815587       -22.1932
  32   2.0000      -0.779978       -21.2243
  33   2.0000      -0.768227       -20.9045
  34   2.0000      -0.708634       -19.2829
  35   2.0000      -0.705756       -19.2046
  36   2.0000      -0.698150       -18.9976
  37   2.0000      -0.653277       -17.7766
  38   2.0000      -0.646219       -17.5845
  39   2.0000      -0.622371       -16.9356
  40   2.0000      -0.594283       -16.1713
  41   2.0000      -0.575233       -15.6529
  42   2.0000      -0.573453       -15.6044
  43   2.0000      -0.559998       -15.2383
  44   2.0000      -0.530089       -14.4245
  45   2.0000      -0.524765       -14.2796
  46   2.0000      -0.517245       -14.0750
  47   2.0000      -0.513240       -13.9660
  48   2.0000      -0.506700       -13.7880
  49   2.0000      -0.500470       -13.6185
  50   2.0000      -0.492255       -13.3949
  51   2.0000      -0.473774       -12.8920
  52   2.0000      -0.465934       -12.6787
  53   2.0000      -0.464213       -12.6319
  54   2.0000      -0.460019       -12.5177
  55   2.0000      -0.449984       -12.2447
  56   2.0000      -0.446584       -12.1522
  57   2.0000      -0.441967       -12.0265
  58   2.0000      -0.431517       -11.7422
  59   2.0000      -0.429653       -11.6914
  60   2.0000      -0.428630       -11.6636
  61   2.0000      -0.415105       -11.2956
  62   2.0000      -0.407326       -11.0839
  63   2.0000      -0.340993        -9.2789
  64   2.0000      -0.329308        -8.9609
  65   2.0000      -0.324683        -8.8351
  66   2.0000      -0.294014        -8.0005
  67   0.0000       0.030313         0.8249
  68   0.0000       0.066393         1.8066
  69   0.0000       0.116337         3.1657
  70   0.0000       0.125337         3.4106
  71   0.0000       0.130028         3.5382

MULLIKEN ATOMIC CHARGES
-----------------------
   0 S :    0.137299
   1 C :   -0.127749
   2 C :   -0.077250
   3 C :    0.024828
   4 C :   -0.156281
   5 H :    0.006865
   6 C :    0.076112
   7 H :    0.023887
   8 H :    0.000775
   9 C :   -0.044174
  10 H :    0.020059
  11 H :    0.020832
  12 C :   -0.037430
  13 H :    0.034351
  14 H :    0.030518
  15 H :    0.036810
  16 S :    0.091241
  17 C :   -0.087328
  18 C :   -0.028146
  19 C :   -0.004665
  20 C :   -0.169786
  21 H :    0.012916
  22 C :    0.015611
  23 H :    0.032389
  24 H :    0.026329
  25 C :   -0.060782
  26 H :    0.019792
  27 H :    0.030808
  28 C :   -0.012534
  29 H :    0.024255
  30 H :    0.040872
  31 H :    0.010811
  32 H :    0.039580
  33 H :    0.049183
Sum of atomic charges:   -0.0000000

LOEWDIN ATOMIC CHARGES
----------------------
   0 S :    0.428990
   1 C :   -0.201241
   2 C :   -0.060677
   3 C :   -0.052734
   4 C :   -0.203071
   5 H :    0.028468
   6 C :   -0.035426
   7 H :    0.031504
   8 H :    0.023357
   9 C :   -0.037448
  10 H :    0.021893
  11 H :    0.027486
  12 C :   -0.069712
  13 H :    0.028537
  14 H :    0.020161
  15 H :    0.034630
  16 S :    0.383076
  17 C :   -0.169387
  18 C :   -0.072752
  19 C :   -0.046876
  20 C :   -0.198986
  21 H :    0.026741
  22 C :   -0.037583
  23 H :    0.034542
  24 H :    0.030081
  25 C :   -0.038486
  26 H :    0.016417
  27 H :    0.025028
  28 C :   -0.052153
  29 H :    0.026859
  30 H :    0.032279
  31 H :    0.011645
  32 H :    0.021760
  33 H :    0.023078

  Mayer bond orders larger than 0.100000
B(  0-S ,  1-C ) :   1.1503 B(  0-S ,  4-C ) :   1.1802 B(  1-C ,  2-C ) :   1.5602
B(  1-C , 32-H ) :   0.9747 B(  2-C ,  3-C ) :   1.2633 B(  2-C ,  6-C ) :   1.0479
B(  3-C ,  4-C ) :   1.5291 B(  3-C ,  5-H ) :   1.0024 B(  4-C , 20-C ) :   1.0388
B(  6-C ,  7-H ) :   0.9303 B(  6-C ,  8-H ) :   0.9297 B(  6-C ,  9-C ) :   1.0604
B(  9-C , 10-H ) :   0.9581 B(  9-C , 11-H ) :   0.9518 B(  9-C , 12-C ) :   1.0674
B( 12-C , 13-H ) :   0.9748 B( 12-C , 14-H ) :   0.9755 B( 12-C , 15-H ) :   0.9728
B( 16-S , 17-C ) :   1.1527 B( 16-S , 20-C ) :   1.1287 B( 17-C , 18-C ) :   1.6307
B( 17-C , 33-H ) :   0.9674 B( 18-C , 19-C ) :   1.2063 B( 18-C , 21-H ) :   0.9939
B( 19-C , 20-C ) :   1.6111 B( 19-C , 22-C ) :   1.0263 B( 22-C , 23-H ) :   0.9297
B( 22-C , 24-H ) :   0.9436 B( 22-C , 25-C ) :   1.0757 B( 25-C , 26-H ) :   0.9442
B( 25-C , 27-H ) :   0.9563 B( 25-C , 28-C ) :   1.0921 B( 28-C , 29-H ) :   0.9701
B( 28-C , 30-H ) :   0.9758 B( 28-C , 31-H ) :   0.9740

Dispersion correction           -0.013522712
FINAL SINGLE POINT ENERGY     -1339.871556269194

DIPOLE MOMENT
-------------
                                X             Y             Z
Electronic contribution:    -10.07570     -11.12985      21.63690
Nuclear contribution   :     10.31209      11.46978     -22.04203
                        -----------------------------------------
Total Dipole Moment    :      0.23639       0.33993      -0.40513
                        -----------------------------------------
Magnitude (a.u.)       :      0.57928
Magnitude (Debye)      :      1.47241

Rotational constants in cm-1:     0.017452     0.007840     0.006348
Rotational constants in MHz :   523.202718   235.035172   190.302034

                             ****ORCA TERMINATED NORMALLY****
TOTAL RUN TIME: 0 days 0 hours 0 minutes 28 seconds 898 msec
