                         Program Version 4.2.1 -  RELEASE  -
|  1> ! wB97X-D3 SP def2-SVP
|  2> %pal
|  3> nprocs 16
|  4> end
|  5>
|  6> * xyz 0 1
|  7> S 	 7.86543 	 22.1893 	 42.328
|  8> C 	 6.47305 	 23.1906 	 42.4392
|  9> C 	 6.81398 	 24.5578 	 42.4961
| 10> C 	 8.21386 	 24.7611 	 42.4608
| 11> C 	 8.91463 	 23.6435 	 42.2861
| 12> H 	 8.7524 	 25.6844 	 42.4684
| 13> C 	 5.76281 	 25.6367 	 42.5368
| 14> H 	 4.76779 	 25.1614 	 42.4508
| 15> H 	 5.77263 	 26.0255 	 41.5836
| 16> C 	 5.85436 	 26.6637 	 43.6729
| 17> H 	 5.95155 	 26.1092 	 44.5738
| 18> H 	 6.83729 	 27.1453 	 43.5298
| 19> C 	 4.66473 	 27.597 	 43.6151
| 20> H 	 3.74072 	 27.0632 	 43.7389
| 21> H 	 4.66025 	 28.1985 	 44.5181
| 22> H 	 4.61297 	 28.1529 	 42.7242
| 23> S 	 11.235 	 23.699 	 43.7889
| 24> C 	 12.7838 	 23.4161 	 42.9927
| 25> C 	 12.6482 	 23.2477 	 41.5892
| 26> C 	 11.2829 	 23.4154 	 41.1361
| 27> C 	 10.4052 	 23.5673 	 42.2071
| 28> H 	 13.5402 	 22.9923 	 41.0702
| 29> C 	 10.8427 	 23.0517 	 39.7337
| 30> H 	 9.76467 	 23.2686 	 39.5416
| 31> H 	 10.8667 	 21.9906 	 39.6386
| 32> C 	 11.5961 	 23.7879 	 38.6229
| 33> H 	 12.7242 	 23.4778 	 38.543
| 34> H 	 11.5166 	 24.914 	 38.7899
| 35> C 	 10.825 	 23.4745 	 37.2603
| 36> H 	 11.4805 	 23.779 	 36.3912
| 37> H 	 9.83669 	 23.8949 	 37.1527
| 38> H 	 10.6246 	 22.4445 	 37.1425
| 39> H 	 5.4582 	 22.8171 	 42.5014
| 40> H 	 13.7865 	 23.3708 	 43.411
| 41> *
| 42>
| 43>                          ****END OF INPUT****

CARTESIAN COORDINATES (ANGSTROEM)
---------------------------------
  S      7.865430   22.189300   42.328000
  C      6.473050   23.190600   42.439200
  C      6.813980   24.557800   42.496100
  C      8.213860   24.761100   42.460800
  C      8.914630   23.643500   42.286100
  H      8.752400   25.684400   42.468400
  C      5.762810   25.636700   42.536800
  H      4.767790   25.161400   42.450800
  H      5.772630   26.025500   41.583600
  C      5.854360   26.663700   43.672900
  H      5.951550   26.109200   44.573800
  H      6.837290   27.145300   43.529800
  C      4.664730   27.597000   43.615100
  H      3.740720   27.063200   43.738900
  H      4.660250   28.198500   44.518100
  H      4.612970   28.152900   42.724200
  S     11.235000   23.699000   43.788900
  C     12.783800   23.416100   42.992700
  C     12.648200   23.247700   41.589200
  C     11.282900   23.415400   41.136100
  C     10.405200   23.567300   42.207100
  H     13.540200   22.992300   41.070200
  C     10.842700   23.051700   39.733700
  H      9.764670   23.268600   39.541600
  H     10.866700   21.990600   39.638600
  C     11.596100   23.787900   38.622900
  H     12.724200   23.477800   38.543000
  H     11.516600   24.914000   38.789900
  C     10.825000   23.474500   37.260300
  H     11.480500   23.779000   36.391200
  H      9.836690   23.894900   37.152700
  H     10.624600   22.444500   37.142500
  H      5.458200   22.817100   42.501400
  H     13.786500   23.370800   43.411000

 Total Charge           Charge          ....    0
 Multiplicity           Mult            ....    1
 Number of Electrons    NEL             ....  134
 Basis Dimension        Dim             ....  322

ORBITAL ENERGIES
----------------

  NO   OCC          E(Eh)            E(eV)
   0   2.0000     -88.967620     -2420.9320
   1   2.0000     -88.964047     -2420.8348
   2   2.0000     -10.328977      -281.0658
   3   2.0000     -10.325590      -280.9736
   4   2.0000     -10.320570      -280.8370
   5   2.0000     -10.312168      -280.6083
   6   2.0000     -10.307611      -280.4843
   7   2.0000     -10.303596      -280.3751
   8   2.0000     -10.298330      -280.2318
   9   2.0000     -10.296267      -280.1757
  10   2.0000     -10.290170      -280.0098
  11   2.0000     -10.287249      -279.9303
  12   2.0000     -10.284533      -279.8564
  13   2.0000     -10.281186      -279.7653
  14   2.0000     -10.279040      -279.7069
  15   2.0000     -10.273055      -279.5440
  16   2.0000      -8.081115      -219.8983
  17   2.0000      -8.078627      -219.8306
  18   2.0000      -6.039689      -164.3483
  19   2.0000      -6.037082      -164.2773
  20   2.0000      -6.035808      -164.2427
  21   2.0000      -6.033201      -164.1718
  22   2.0000      -6.031874      -164.1356
  23   2.0000      -6.029423      -164.0689
  24   2.0000      -1.001263       -27.2457
  25   2.0000      -0.976650       -26.5760
  26   2.0000      -0.913412       -24.8552
  27   2.0000      -0.903014       -24.5723
  28   2.0000      -0.865573       -23.5534
  29   2.0000      -0.852542       -23.1988
  30   2.0000      -0.842532       -22.9265
  31   2.0000      -0.815936       -22.2028
  32   2.0000      -0.779071       -21.1996
  33   2.0000      -0.765481       -20.8298
  34   2.0000      -0.712590       -19.3906
  35   2.0000      -0.697181       -18.9713
  36   2.0000      -0.689212       -18.7544
  37   2.0000      -0.656478       -17.8637
  38   2.0000      -0.645204       -17.5569
  39   2.0000      -0.620411       -16.8822
  40   2.0000      -0.592018       -16.1096
  41   2.0000      -0.571703       -15.5568
  42   2.0000      -0.560877       -15.2622
  43   2.0000      -0.554810       -15.0971
  44   2.0000      -0.531572       -14.4648
  45   2.0000      -0.522414       -14.2156
  46   2.0000      -0.509484       -13.8638
  47   2.0000      -0.508009       -13.8236
  48   2.0000      -0.505753       -13.7622
  49   2.0000      -0.496543       -13.5116
  50   2.0000      -0.486056       -13.2263
  51   2.0000      -0.475278       -12.9330
  52   2.0000      -0.470799       -12.8111
  53   2.0000      -0.464798       -12.6478
  54   2.0000      -0.459532       -12.5045
  55   2.0000      -0.449673       -12.2362
  56   2.0000      -0.443664       -12.0727
  57   2.0000      -0.440037       -11.9740
  58   2.0000      -0.435471       -11.8498
  59   2.0000      -0.426989       -11.6190
  60   2.0000      -0.422187       -11.4883
  61   2.0000      -0.411065       -11.1856
  62   2.0000      -0.409111       -11.1325
  63   2.0000      -0.341823        -9.3015
  64   2.0000      -0.330234        -8.9861
  65   2.0000      -0.315966        -8.5979
  66   2.0000      -0.304782        -8.2935
  67   0.0000       0.044625         1.2143
  68   0.0000       0.055303         1.5049
  69   0.0000       0.112254         3.0546
  70   0.0000       0.118855         3.2342
  71   0.0000       0.129613         3.5269

MULLIKEN ATOMIC CHARGES
-----------------------
   0 S :    0.110660
   1 C :   -0.121198
   2 C :   -0.096584
   3 C :    0.046589
   4 C :   -0.165997
   5 H :    0.010260
   6 C :    0.089659
   7 H :   -0.006793
   8 H :    0.006727
   9 C :   -0.065024
  10 H :    0.025928
  11 H :    0.032489
  12 C :    0.005679
  13 H :    0.017509
  14 H :    0.028472
  15 H :    0.028204
  16 S :    0.116282
  17 C :   -0.099371
  18 C :   -0.045034
  19 C :    0.032866
  20 C :   -0.194456
  21 H :    0.013856
  22 C :    0.042421
  23 H :    0.029909
  24 H :    0.039046
  25 C :   -0.138613
  26 H :    0.053832
  27 H :    0.054519
  28 C :   -0.050494
  29 H :    0.041060
  30 H :    0.035349
  31 H :    0.015863
  32 H :    0.049240
  33 H :    0.057146
Sum of atomic charges:    0.0000000

LOEWDIN ATOMIC CHARGES
----------------------
   0 S :    0.394754
   1 C :   -0.205750
   2 C :   -0.061590
   3 C :   -0.059380
   4 C :   -0.186441
   5 H :    0.034148
   6 C :   -0.035257
   7 H :    0.028309
   8 H :    0.020815
   9 C :   -0.034111
  10 H :    0.022700
  11 H :    0.026716
  12 C :   -0.056132
  13 H :    0.025287
  14 H :    0.029105
  15 H :    0.021694
  16 S :    0.390062
  17 C :   -0.185221
  18 C :   -0.067578
  19 C :   -0.051551
  20 C :   -0.187106
  21 H :    0.026418
  22 C :   -0.038599
  23 H :    0.036455
  24 H :    0.031217
  25 C :   -0.046761
  26 H :    0.032357
  27 H :    0.034704
  28 C :   -0.071570
  29 H :    0.032083
  30 H :    0.024729
  31 H :    0.016446
  32 H :    0.027578
  33 H :    0.031470

  Mayer bond orders larger than 0.100000
B(  0-S ,  1-C ) :   1.1480 B(  0-S ,  4-C ) :   1.1298 B(  1-C ,  2-C ) :   1.6056
B(  1-C , 32-H ) :   0.9667 B(  2-C ,  3-C ) :   1.2193 B(  2-C ,  6-C ) :   1.0226
B(  3-C ,  4-C ) :   1.6272 B(  3-C ,  5-H ) :   0.9981 B(  4-C , 20-C ) :   0.9938
B(  6-C ,  7-H ) :   0.9328 B(  6-C ,  8-H ) :   0.9275 B(  6-C ,  9-C ) :   1.0456
B(  9-C , 10-H ) :   0.9592 B(  9-C , 11-H ) :   0.9521 B(  9-C , 12-C ) :   1.0890
B( 12-C , 13-H ) :   0.9706 B( 12-C , 14-H ) :   0.9715 B( 12-C , 15-H ) :   0.9749
B( 16-S , 17-C ) :   1.1476 B( 16-S , 20-C ) :   1.1350 B( 17-C , 18-C ) :   1.6416
B( 17-C , 33-H ) :   0.9643 B( 18-C , 19-C ) :   1.1968 B( 18-C , 21-H ) :   0.9919
B( 19-C , 20-C ) :   1.6188 B( 19-C , 22-C ) :   1.0436 B( 22-C , 23-H ) :   0.9372
B( 22-C , 24-H ) :   0.9388 B( 22-C , 25-C ) :   1.0467 B( 25-C , 26-H ) :   0.9548
B( 25-C , 27-H ) :   0.9596 B( 25-C , 28-C ) :   1.0683 B( 28-C , 29-H ) :   0.9757
B( 28-C , 30-H ) :   0.9756 B( 28-C , 31-H ) :   0.9740

Dispersion correction           -0.013598774
FINAL SINGLE POINT ENERGY     -1339.868814644297

DIPOLE MOMENT
-------------
                                X             Y             Z
Electronic contribution:      9.46939     -13.72961      14.42058
Nuclear contribution   :     -9.63465      13.98589     -14.75330
                        -----------------------------------------
Total Dipole Moment    :     -0.16526       0.25628      -0.33272
                        -----------------------------------------
Magnitude (a.u.)       :      0.45132
Magnitude (Debye)      :      1.14717

Rotational constants in cm-1:     0.018186     0.007386     0.006466
Rotational constants in MHz :   545.198410   221.432248   193.832670

                             ****ORCA TERMINATED NORMALLY****
TOTAL RUN TIME: 0 days 0 hours 0 minutes 31 seconds 630 msec
