                         Program Version 4.2.1 -  RELEASE  -
|  1> ! wB97X-D3 SP def2-SVP
|  2> %pal
|  3> nprocs 16
|  4> end
|  5>
|  6> * xyz 0 1
|  7> S 	 -95.5554 	 52.2209 	 127.64
|  8> C 	 -94.2748 	 52.6459 	 128.673
|  9> C 	 -93.0624 	 52.206 	 128.196
| 10> C 	 -93.1948 	 51.5693 	 126.885
| 11> C 	 -94.5047 	 51.3792 	 126.481
| 12> H 	 -92.4657 	 51.1299 	 126.226
| 13> C 	 -91.7216 	 52.3422 	 128.868
| 14> H 	 -91.2762 	 51.3356 	 128.905
| 15> H 	 -91.8143 	 52.5302 	 129.912
| 16> C 	 -90.6265 	 53.2201 	 128.187
| 17> H 	 -90.6493 	 53.1446 	 127.103
| 18> H 	 -90.8957 	 54.2695 	 128.412
| 19> C 	 -89.1906 	 52.7405 	 128.503
| 20> H 	 -89.0214 	 51.7029 	 128.135
| 21> H 	 -88.5742 	 53.2354 	 127.696
| 22> H 	 -88.8701 	 52.8268 	 129.561
| 23> S 	 -94.8763 	 51.711 	 123.768
| 24> C 	 -95.8227 	 50.4095 	 123.036
| 25> C 	 -95.7879 	 49.2268 	 123.675
| 26> C 	 -95.2884 	 49.4042 	 125.025
| 27> C 	 -94.9104 	 50.7385 	 125.253
| 28> H 	 -96.1935 	 48.2718 	 123.296
| 29> C 	 -95.2994 	 48.2437 	 126.05
| 30> H 	 -94.9396 	 48.6588 	 127.039
| 31> H 	 -94.564 	 47.4978 	 125.616
| 32> C 	 -96.6674 	 47.5937 	 126.28
| 33> H 	 -96.6004 	 46.9197 	 127.13
| 34> H 	 -96.9669 	 47.0019 	 125.425
| 35> C 	 -97.7714 	 48.6685 	 126.577
| 36> H 	 -97.3795 	 49.2144 	 127.406
| 37> H 	 -98.808 	 48.2633 	 126.828
| 38> H 	 -97.9293 	 49.2452 	 125.689
| 39> H 	 -94.3846 	 53.1681 	 129.609
| 40> H 	 -96.0914 	 50.416 	 121.997
| 41> *
| 42>
| 43>                          ****END OF INPUT****

CARTESIAN COORDINATES (ANGSTROEM)
---------------------------------
  S    -95.555400   52.220900  127.640000
  C    -94.274800   52.645900  128.673000
  C    -93.062400   52.206000  128.196000
  C    -93.194800   51.569300  126.885000
  C    -94.504700   51.379200  126.481000
  H    -92.465700   51.129900  126.226000
  C    -91.721600   52.342200  128.868000
  H    -91.276200   51.335600  128.905000
  H    -91.814300   52.530200  129.912000
  C    -90.626500   53.220100  128.187000
  H    -90.649300   53.144600  127.103000
  H    -90.895700   54.269500  128.412000
  C    -89.190600   52.740500  128.503000
  H    -89.021400   51.702900  128.135000
  H    -88.574200   53.235400  127.696000
  H    -88.870100   52.826800  129.561000
  S    -94.876300   51.711000  123.768000
  C    -95.822700   50.409500  123.036000
  C    -95.787900   49.226800  123.675000
  C    -95.288400   49.404200  125.025000
  C    -94.910400   50.738500  125.253000
  H    -96.193500   48.271800  123.296000
  C    -95.299400   48.243700  126.050000
  H    -94.939600   48.658800  127.039000
  H    -94.564000   47.497800  125.616000
  C    -96.667400   47.593700  126.280000
  H    -96.600400   46.919700  127.130000
  H    -96.966900   47.001900  125.425000
  C    -97.771400   48.668500  126.577000
  H    -97.379500   49.214400  127.406000
  H    -98.808000   48.263300  126.828000
  H    -97.929300   49.245200  125.689000
  H    -94.384600   53.168100  129.609000
  H    -96.091400   50.416000  121.997000

 Total Charge           Charge          ....    0
 Multiplicity           Mult            ....    1
 Number of Electrons    NEL             ....  134
 Basis Dimension        Dim             ....  322

ORBITAL ENERGIES
----------------

  NO   OCC          E(Eh)            E(eV)
   0   2.0000     -88.966319     -2420.8966
   1   2.0000     -88.961942     -2420.7775
   2   2.0000     -10.325986      -280.9844
   3   2.0000     -10.324703      -280.9494
   4   2.0000     -10.314802      -280.6800
   5   2.0000     -10.310188      -280.5545
   6   2.0000     -10.309670      -280.5404
   7   2.0000     -10.302881      -280.3556
   8   2.0000     -10.301816      -280.3267
   9   2.0000     -10.296548      -280.1833
  10   2.0000     -10.293484      -280.1000
  11   2.0000     -10.290793      -280.0267
  12   2.0000     -10.289497      -279.9915
  13   2.0000     -10.287421      -279.9350
  14   2.0000     -10.286184      -279.9013
  15   2.0000     -10.273829      -279.5651
  16   2.0000      -8.080726      -219.8877
  17   2.0000      -8.077051      -219.7877
  18   2.0000      -6.039227      -164.3357
  19   2.0000      -6.035759      -164.2413
  20   2.0000      -6.035557      -164.2358
  21   2.0000      -6.031382      -164.1223
  22   2.0000      -6.031024      -164.1125
  23   2.0000      -6.027889      -164.0272
  24   2.0000      -1.003420       -27.3044
  25   2.0000      -0.983105       -26.7516
  26   2.0000      -0.905700       -24.6453
  27   2.0000      -0.904148       -24.6031
  28   2.0000      -0.874085       -23.7851
  29   2.0000      -0.844604       -22.9828
  30   2.0000      -0.841218       -22.8907
  31   2.0000      -0.814132       -22.1536
  32   2.0000      -0.778769       -21.1914
  33   2.0000      -0.766732       -20.8638
  34   2.0000      -0.706796       -19.2329
  35   2.0000      -0.697024       -18.9670
  36   2.0000      -0.688850       -18.7446
  37   2.0000      -0.657155       -17.8821
  38   2.0000      -0.646781       -17.5998
  39   2.0000      -0.611614       -16.6429
  40   2.0000      -0.592126       -16.1126
  41   2.0000      -0.567011       -15.4291
  42   2.0000      -0.555444       -15.1144
  43   2.0000      -0.554945       -15.1008
  44   2.0000      -0.541444       -14.7334
  45   2.0000      -0.526687       -14.3319
  46   2.0000      -0.513734       -13.9794
  47   2.0000      -0.504584       -13.7304
  48   2.0000      -0.498725       -13.5710
  49   2.0000      -0.493555       -13.4303
  50   2.0000      -0.484286       -13.1781
  51   2.0000      -0.482344       -13.1252
  52   2.0000      -0.470077       -12.7914
  53   2.0000      -0.460506       -12.5310
  54   2.0000      -0.456064       -12.4101
  55   2.0000      -0.451491       -12.2857
  56   2.0000      -0.442764       -12.0482
  57   2.0000      -0.435290       -11.8449
  58   2.0000      -0.431621       -11.7450
  59   2.0000      -0.422239       -11.4897
  60   2.0000      -0.420168       -11.4333
  61   2.0000      -0.414076       -11.2676
  62   2.0000      -0.409325       -11.1383
  63   2.0000      -0.335567        -9.1312
  64   2.0000      -0.330713        -8.9992
  65   2.0000      -0.314800        -8.5662
  66   2.0000      -0.309770        -8.4293
  67   0.0000       0.042973         1.1694
  68   0.0000       0.054165         1.4739
  69   0.0000       0.097625         2.6565
  70   0.0000       0.124667         3.3924
  71   0.0000       0.127868         3.4795

MULLIKEN ATOMIC CHARGES
-----------------------
   0 S :    0.118258
   1 C :   -0.116839
   2 C :   -0.068079
   3 C :    0.034633
   4 C :   -0.179999
   5 H :    0.010645
   6 C :    0.080626
   7 H :    0.016299
   8 H :    0.006460
   9 C :   -0.077076
  10 H :    0.025569
  11 H :    0.039323
  12 C :   -0.081882
  13 H :    0.031947
  14 H :    0.038013
  15 H :    0.057336
  16 S :    0.115275
  17 C :   -0.064993
  18 C :   -0.040307
  19 C :   -0.039530
  20 C :   -0.208198
  21 H :    0.033854
  22 C :    0.040228
  23 H :    0.047025
  24 H :    0.054490
  25 C :   -0.075009
  26 H :    0.034465
  27 H :    0.022623
  28 C :   -0.056927
  29 H :    0.028490
  30 H :    0.040411
  31 H :    0.040906
  32 H :    0.045582
  33 H :    0.046381
Sum of atomic charges:   -0.0000000

LOEWDIN ATOMIC CHARGES
----------------------
   0 S :    0.411642
   1 C :   -0.209226
   2 C :   -0.066641
   3 C :   -0.054380
   4 C :   -0.200973
   5 H :    0.029844
   6 C :   -0.039838
   7 H :    0.032420
   8 H :    0.023314
   9 C :   -0.041932
  10 H :    0.024893
  11 H :    0.027137
  12 C :   -0.077176
  13 H :    0.029316
  14 H :    0.036880
  15 H :    0.028282
  16 S :    0.383888
  17 C :   -0.167195
  18 C :   -0.072324
  19 C :   -0.042248
  20 C :   -0.201333
  21 H :    0.038720
  22 C :   -0.036052
  23 H :    0.037354
  24 H :    0.043467
  25 C :   -0.042457
  26 H :    0.025174
  27 H :    0.015806
  28 C :   -0.063525
  29 H :    0.019295
  30 H :    0.032102
  31 H :    0.022519
  32 H :    0.030628
  33 H :    0.022620

  Mayer bond orders larger than 0.100000
B(  0-S ,  1-C ) :   1.1492 B(  0-S ,  4-C ) :   1.1283 B(  1-C ,  2-C ) :   1.6167
B(  1-C , 32-H ) :   0.9686 B(  2-C ,  3-C ) :   1.2014 B(  2-C ,  6-C ) :   1.0406
B(  3-C ,  4-C ) :   1.6138 B(  3-C ,  5-H ) :   0.9919 B(  4-C , 20-C ) :   1.0521
B(  6-C ,  7-H ) :   0.9384 B(  6-C ,  8-H ) :   0.9376 B(  6-C ,  9-C ) :   1.0446
B(  9-C , 10-H ) :   0.9609 B(  9-C , 11-H ) :   0.9575 B(  9-C , 12-C ) :   1.0738
B( 12-C , 13-H ) :   0.9683 B( 12-C , 14-H ) :   0.9740 B( 12-C , 15-H ) :   0.9772
B( 16-S , 17-C ) :   1.1325 B( 16-S , 20-C ) :   1.1215 B( 17-C , 18-C ) :   1.6664
B( 17-C , 33-H ) :   0.9607 B( 18-C , 19-C ) :   1.1962 B( 18-C , 21-H ) :   0.9832
B( 19-C , 20-C ) :   1.6308 B( 19-C , 22-C ) :   1.0306 B( 22-C , 23-H ) :   0.9361
B( 22-C , 24-H ) :   0.9372 B( 22-C , 25-C ) :   1.0665 B( 25-C , 26-H ) :   0.9591
B( 25-C , 27-H ) :   0.9542 B( 25-C , 28-C ) :   1.0680 B( 28-C , 29-H ) :   0.9778
B( 28-C , 30-H ) :   0.9758 B( 28-C , 31-H ) :   0.9708

Dispersion correction           -0.014872841
FINAL SINGLE POINT ENERGY     -1339.869584199432

DIPOLE MOMENT
-------------
                                X             Y             Z
Electronic contribution:    -10.66601       8.82541     -10.68145
Nuclear contribution   :     11.00639      -9.28308      10.74088
                        -----------------------------------------
Total Dipole Moment    :      0.34039      -0.45767       0.05942
                        -----------------------------------------
Magnitude (a.u.)       :      0.57346
Magnitude (Debye)      :      1.45762

Rotational constants in cm-1:     0.021336     0.007556     0.006869
Rotational constants in MHz :   639.646461   226.537639   205.925814

                             ****ORCA TERMINATED NORMALLY****
TOTAL RUN TIME: 0 days 0 hours 0 minutes 35 seconds 359 msec
