                         Program Version 4.2.1 -  RELEASE  -
|  1> ! wB97X-D3 SP def2-SVP
|  2> %pal
|  3> nprocs 16
|  4> end
|  5>
|  6> * xyz 0 1
|  7> S 	 -1.18432 	 -18.476 	 84.8635
|  8> C 	 -2.77666 	 -18.5536 	 84.2481
|  9> C 	 -3.54456 	 -17.4412 	 84.6265
| 10> C 	 -2.7584 	 -16.5172 	 85.3679
| 11> C 	 -1.40897 	 -16.8783 	 85.5266
| 12> H 	 -3.10872 	 -15.5974 	 85.7478
| 13> C 	 -5.00216 	 -17.196 	 84.406
| 14> H 	 -5.63077 	 -17.1336 	 85.2974
| 15> H 	 -5.27783 	 -18.1974 	 84.0896
| 16> C 	 -5.4123 	 -16.1979 	 83.2309
| 17> H 	 -6.45787 	 -16.3068 	 83.024
| 18> H 	 -5.17082 	 -15.1617 	 83.6115
| 19> C 	 -4.63243 	 -16.4299 	 81.9282
| 20> H 	 -3.64483 	 -15.9552 	 82.022
| 21> H 	 -4.51375 	 -17.5265 	 81.7045
| 22> H 	 -5.13049 	 -15.9396 	 81.1016
| 23> S 	 1.19476 	 -16.0767 	 85.665
| 24> C 	 1.79076 	 -15.2554 	 87.1175
| 25> C 	 0.84481 	 -15.1013 	 88.0864
| 26> C 	 -0.383807 	 -15.6994 	 87.599
| 27> C 	 -0.393611 	 -16.2008 	 86.3182
| 28> H 	 1.14051 	 -14.6304 	 88.9679
| 29> C 	 -1.66191 	 -15.7149 	 88.3861
| 30> H 	 -1.36325 	 -15.9967 	 89.371
| 31> H 	 -2.32657 	 -16.5656 	 88.0954
| 32> C 	 -2.39633 	 -14.3252 	 88.4825
| 33> H 	 -2.88658 	 -14.2128 	 87.4844
| 34> H 	 -1.61461 	 -13.5318 	 88.6152
| 35> C 	 -3.52471 	 -14.2866 	 89.5102
| 36> H 	 -4.24932 	 -15.1758 	 89.4318
| 37> H 	 -4.15401 	 -13.4204 	 89.322
| 38> H 	 -3.08196 	 -14.1523 	 90.5137
| 39> H 	 -3.22501 	 -19.3375 	 83.6363
| 40> H 	 2.81727 	 -14.8628 	 87.2705
| 41> *
| 42>
| 43>                          ****END OF INPUT****

CARTESIAN COORDINATES (ANGSTROEM)
---------------------------------
  S     -1.184320  -18.476000   84.863500
  C     -2.776660  -18.553600   84.248100
  C     -3.544560  -17.441200   84.626500
  C     -2.758400  -16.517200   85.367900
  C     -1.408970  -16.878300   85.526600
  H     -3.108720  -15.597400   85.747800
  C     -5.002160  -17.196000   84.406000
  H     -5.630770  -17.133600   85.297400
  H     -5.277830  -18.197400   84.089600
  C     -5.412300  -16.197900   83.230900
  H     -6.457870  -16.306800   83.024000
  H     -5.170820  -15.161700   83.611500
  C     -4.632430  -16.429900   81.928200
  H     -3.644830  -15.955200   82.022000
  H     -4.513750  -17.526500   81.704500
  H     -5.130490  -15.939600   81.101600
  S      1.194760  -16.076700   85.665000
  C      1.790760  -15.255400   87.117500
  C      0.844810  -15.101300   88.086400
  C     -0.383807  -15.699400   87.599000
  C     -0.393611  -16.200800   86.318200
  H      1.140510  -14.630400   88.967900
  C     -1.661910  -15.714900   88.386100
  H     -1.363250  -15.996700   89.371000
  H     -2.326570  -16.565600   88.095400
  C     -2.396330  -14.325200   88.482500
  H     -2.886580  -14.212800   87.484400
  H     -1.614610  -13.531800   88.615200
  C     -3.524710  -14.286600   89.510200
  H     -4.249320  -15.175800   89.431800
  H     -4.154010  -13.420400   89.322000
  H     -3.081960  -14.152300   90.513700
  H     -3.225010  -19.337500   83.636300
  H      2.817270  -14.862800   87.270500

 Total Charge           Charge          ....    0
 Multiplicity           Mult            ....    1
 Number of Electrons    NEL             ....  134
 Basis Dimension        Dim             ....  322

ORBITAL ENERGIES
----------------

  NO   OCC          E(Eh)            E(eV)
   0   2.0000     -88.971094     -2421.0265
   1   2.0000     -88.961985     -2420.7787
   2   2.0000     -10.330274      -281.1010
   3   2.0000     -10.322021      -280.8765
   4   2.0000     -10.320427      -280.8331
   5   2.0000     -10.316352      -280.7222
   6   2.0000     -10.302852      -280.3549
   7   2.0000     -10.300812      -280.2993
   8   2.0000     -10.294553      -280.1290
   9   2.0000     -10.294169      -280.1186
  10   2.0000     -10.293960      -280.1129
  11   2.0000     -10.292962      -280.0857
  12   2.0000     -10.290577      -280.0208
  13   2.0000     -10.285684      -279.8877
  14   2.0000     -10.283655      -279.8325
  15   2.0000     -10.278984      -279.7054
  16   2.0000      -8.086129      -220.0347
  17   2.0000      -8.077215      -219.7922
  18   2.0000      -6.044554      -164.4807
  19   2.0000      -6.040475      -164.3697
  20   2.0000      -6.037072      -164.2771
  21   2.0000      -6.035763      -164.2415
  22   2.0000      -6.031651      -164.1296
  23   2.0000      -6.027892      -164.0273
  24   2.0000      -1.010172       -27.4882
  25   2.0000      -0.987809       -26.8796
  26   2.0000      -0.907956       -24.7067
  27   2.0000      -0.901937       -24.5430
  28   2.0000      -0.873256       -23.7625
  29   2.0000      -0.850504       -23.1434
  30   2.0000      -0.845900       -23.0181
  31   2.0000      -0.819670       -22.3044
  32   2.0000      -0.781004       -21.2522
  33   2.0000      -0.764865       -20.8130
  34   2.0000      -0.707811       -19.2605
  35   2.0000      -0.694095       -18.8873
  36   2.0000      -0.689417       -18.7600
  37   2.0000      -0.664626       -18.0854
  38   2.0000      -0.639921       -17.4131
  39   2.0000      -0.624311       -16.9884
  40   2.0000      -0.589162       -16.0319
  41   2.0000      -0.576942       -15.6994
  42   2.0000      -0.560349       -15.2479
  43   2.0000      -0.549544       -14.9538
  44   2.0000      -0.544813       -14.8251
  45   2.0000      -0.523944       -14.2572
  46   2.0000      -0.516143       -14.0450
  47   2.0000      -0.509298       -13.8587
  48   2.0000      -0.502499       -13.6737
  49   2.0000      -0.499689       -13.5972
  50   2.0000      -0.490204       -13.3391
  51   2.0000      -0.477500       -12.9934
  52   2.0000      -0.467853       -12.7309
  53   2.0000      -0.464746       -12.6464
  54   2.0000      -0.455024       -12.3818
  55   2.0000      -0.450640       -12.2625
  56   2.0000      -0.442427       -12.0391
  57   2.0000      -0.437103       -11.8942
  58   2.0000      -0.431141       -11.7319
  59   2.0000      -0.426239       -11.5986
  60   2.0000      -0.418554       -11.3894
  61   2.0000      -0.412498       -11.2247
  62   2.0000      -0.406936       -11.0733
  63   2.0000      -0.350878        -9.5479
  64   2.0000      -0.332552        -9.0492
  65   2.0000      -0.327598        -8.9144
  66   2.0000      -0.292846        -7.9687
  67   0.0000       0.032037         0.8718
  68   0.0000       0.072114         1.9623
  69   0.0000       0.113873         3.0986
  70   0.0000       0.120585         3.2813
  71   0.0000       0.128294         3.4910

MULLIKEN ATOMIC CHARGES
-----------------------
   0 S :    0.137515
   1 C :   -0.114138
   2 C :   -0.113087
   3 C :    0.044643
   4 C :   -0.133866
   5 H :   -0.023256
   6 C :    0.065488
   7 H :    0.040561
   8 H :   -0.007387
   9 C :   -0.072592
  10 H :    0.035213
  11 H :    0.040363
  12 C :   -0.063840
  13 H :    0.047399
  14 H :    0.032832
  15 H :    0.035359
  16 S :    0.094999
  17 C :   -0.100889
  18 C :   -0.001397
  19 C :   -0.045208
  20 C :   -0.142918
  21 H :    0.001017
  22 C :    0.043482
  23 H :    0.000237
  24 H :    0.040390
  25 C :   -0.086786
  26 H :    0.027184
  27 H :    0.039582
  28 C :   -0.054510
  29 H :    0.045729
  30 H :    0.032977
  31 H :    0.040220
  32 H :    0.050190
  33 H :    0.064495
Sum of atomic charges:   -0.0000000

LOEWDIN ATOMIC CHARGES
----------------------
   0 S :    0.439585
   1 C :   -0.214064
   2 C :   -0.067772
   3 C :   -0.051540
   4 C :   -0.201725
   5 H :    0.019120
   6 C :   -0.042013
   7 H :    0.035398
   8 H :    0.025898
   9 C :   -0.035645
  10 H :    0.020787
  11 H :    0.027771
  12 C :   -0.069811
  13 H :    0.031436
  14 H :    0.027427
  15 H :    0.025424
  16 S :    0.399794
  17 C :   -0.172158
  18 C :   -0.065579
  19 C :   -0.051687
  20 C :   -0.213441
  21 H :    0.027979
  22 C :   -0.041395
  23 H :    0.019940
  24 H :    0.035074
  25 C :   -0.042925
  26 H :    0.021749
  27 H :    0.029318
  28 C :   -0.073875
  29 H :    0.036101
  30 H :    0.025520
  31 H :    0.027061
  32 H :    0.031816
  33 H :    0.036433

  Mayer bond orders larger than 0.100000
B(  0-S ,  1-C ) :   1.1676 B(  0-S ,  4-C ) :   1.1660 B(  1-C ,  2-C ) :   1.5674
B(  1-C ,  4-C ) :   0.1029 B(  1-C , 32-H ) :   0.9577 B(  2-C ,  3-C ) :   1.2730
B(  2-C ,  6-C ) :   1.0255 B(  3-C ,  4-C ) :   1.5266 B(  3-C ,  5-H ) :   1.0105
B(  4-C , 20-C ) :   1.0408 B(  6-C ,  7-H ) :   0.9471 B(  6-C ,  8-H ) :   0.9275
B(  6-C ,  9-C ) :   1.0523 B(  9-C , 10-H ) :   0.9617 B(  9-C , 11-H ) :   0.9603
B(  9-C , 12-C ) :   1.0775 B( 12-C , 13-H ) :   0.9704 B( 12-C , 14-H ) :   0.9770
B( 12-C , 15-H ) :   0.9741 B( 16-S , 17-C ) :   1.1540 B( 16-S , 20-C ) :   1.1174
B( 17-C , 18-C ) :   1.6392 B( 17-C , 33-H ) :   0.9587 B( 18-C , 19-C ) :   1.1892
B( 18-C , 21-H ) :   1.0085 B( 19-C , 20-C ) :   1.6192 B( 19-C , 22-C ) :   1.0584
B( 22-C , 23-H ) :   0.9263 B( 22-C , 24-H ) :   0.9313 B( 22-C , 25-C ) :   1.0491
B( 25-C , 26-H ) :   0.9533 B( 25-C , 27-H ) :   0.9558 B( 25-C , 28-C ) :   1.0799
B( 28-C , 29-H ) :   0.9716 B( 28-C , 30-H ) :   0.9734 B( 28-C , 31-H ) :   0.9754

Dispersion correction           -0.014763149
FINAL SINGLE POINT ENERGY     -1339.879274758968

DIPOLE MOMENT
-------------
                                X             Y             Z
Electronic contribution:     24.67914     -10.49420      -3.36048
Nuclear contribution   :    -25.16913      10.76413       3.67710
                        -----------------------------------------
Total Dipole Moment    :     -0.48999       0.26992       0.31661
                        -----------------------------------------
Magnitude (a.u.)       :      0.64280
Magnitude (Debye)      :      1.63387

Rotational constants in cm-1:     0.017847     0.009220     0.006946
Rotational constants in MHz :   535.051060   276.414260   208.243910

                             ****ORCA TERMINATED NORMALLY****
TOTAL RUN TIME: 0 days 0 hours 0 minutes 34 seconds 498 msec
