                         Program Version 4.2.1 -  RELEASE  -
|  1> ! wB97X-D3 SP def2-SVP
|  2> %pal
|  3> nprocs 16
|  4> end
|  5>
|  6> * xyz 0 1
|  7> S 	 0.282113 	 -8.51815 	 88.8093
|  8> C 	 1.17335 	 -8.39798 	 90.2741
|  9> C 	 0.451258 	 -8.62886 	 91.3959
| 10> C 	 -0.929331 	 -8.88696 	 91.1266
| 11> C 	 -1.14214 	 -8.9423 	 89.7487
| 12> H 	 -1.72692 	 -9.03425 	 91.8584
| 13> C 	 0.984701 	 -8.58485 	 92.8634
| 14> H 	 0.0595421 	 -8.24985 	 93.4848
| 15> H 	 1.7842 	 -7.79866 	 92.8047
| 16> C 	 1.664 	 -9.85987 	 93.4371
| 17> H 	 1.70656 	 -9.93638 	 94.5894
| 18> H 	 0.870439 	 -10.6349 	 93.1347
| 19> C 	 3.11889 	 -10.1235 	 92.9403
| 20> H 	 3.88176 	 -9.54992 	 93.3721
| 21> H 	 3.45069 	 -11.1644 	 93.0604
| 22> H 	 3.19965 	 -9.98478 	 91.8873
| 23> S 	 -2.59628 	 -10.7691 	 88.239
| 24> C 	 -4.17884 	 -10.3551 	 87.6262
| 25> C 	 -4.62484 	 -9.29301 	 88.3344
| 26> C 	 -3.65597 	 -8.61331 	 89.1385
| 27> C 	 -2.40522 	 -9.2095 	 89.0807
| 28> H 	 -5.64029 	 -8.84839 	 88.1755
| 29> C 	 -4.01132 	 -7.30956 	 89.8798
| 30> H 	 -4.58242 	 -6.57296 	 89.297
| 31> H 	 -3.06097 	 -6.80539 	 90.0827
| 32> C 	 -4.76248 	 -7.59719 	 91.1753
| 33> H 	 -4.05511 	 -8.28567 	 91.6765
| 34> H 	 -5.7423 	 -8.03004 	 90.8775
| 35> C 	 -5.16724 	 -6.39331 	 91.9677
| 36> H 	 -4.39238 	 -5.67708 	 92.078
| 37> H 	 -5.54589 	 -6.52698 	 92.9629
| 38> H 	 -5.81697 	 -5.74061 	 91.4381
| 39> H 	 2.18441 	 -8.051 	 90.247
| 40> H 	 -4.80468 	 -10.9174 	 87.0204
| 41> *
| 42>
| 43>                          ****END OF INPUT****

CARTESIAN COORDINATES (ANGSTROEM)
---------------------------------
  S      0.282113   -8.518150   88.809300
  C      1.173350   -8.397980   90.274100
  C      0.451258   -8.628860   91.395900
  C     -0.929331   -8.886960   91.126600
  C     -1.142140   -8.942300   89.748700
  H     -1.726920   -9.034250   91.858400
  C      0.984701   -8.584850   92.863400
  H      0.059542   -8.249850   93.484800
  H      1.784200   -7.798660   92.804700
  C      1.664000   -9.859870   93.437100
  H      1.706560   -9.936380   94.589400
  H      0.870439  -10.634900   93.134700
  C      3.118890  -10.123500   92.940300
  H      3.881760   -9.549920   93.372100
  H      3.450690  -11.164400   93.060400
  H      3.199650   -9.984780   91.887300
  S     -2.596280  -10.769100   88.239000
  C     -4.178840  -10.355100   87.626200
  C     -4.624840   -9.293010   88.334400
  C     -3.655970   -8.613310   89.138500
  C     -2.405220   -9.209500   89.080700
  H     -5.640290   -8.848390   88.175500
  C     -4.011320   -7.309560   89.879800
  H     -4.582420   -6.572960   89.297000
  H     -3.060970   -6.805390   90.082700
  C     -4.762480   -7.597190   91.175300
  H     -4.055110   -8.285670   91.676500
  H     -5.742300   -8.030040   90.877500
  C     -5.167240   -6.393310   91.967700
  H     -4.392380   -5.677080   92.078000
  H     -5.545890   -6.526980   92.962900
  H     -5.816970   -5.740610   91.438100
  H      2.184410   -8.051000   90.247000
  H     -4.804680  -10.917400   87.020400

 Total Charge           Charge          ....    0
 Multiplicity           Mult            ....    1
 Number of Electrons    NEL             ....  134
 Basis Dimension        Dim             ....  322

ORBITAL ENERGIES
----------------

  NO   OCC          E(Eh)            E(eV)
   0   2.0000     -88.970359     -2421.0065
   1   2.0000     -88.959004     -2420.6976
   2   2.0000     -10.331923      -281.1459
   3   2.0000     -10.327208      -281.0176
   4   2.0000     -10.311148      -280.5806
   5   2.0000     -10.310417      -280.5607
   6   2.0000     -10.308831      -280.5175
   7   2.0000     -10.304890      -280.4103
   8   2.0000     -10.303360      -280.3687
   9   2.0000     -10.302777      -280.3528
  10   2.0000     -10.302330      -280.3406
  11   2.0000     -10.291384      -280.0428
  12   2.0000     -10.291332      -280.0414
  13   2.0000     -10.288639      -279.9681
  14   2.0000     -10.275609      -279.6135
  15   2.0000     -10.268351      -279.4160
  16   2.0000      -8.085681      -220.0226
  17   2.0000      -8.073704      -219.6967
  18   2.0000      -6.044025      -164.4663
  19   2.0000      -6.040200      -164.3622
  20   2.0000      -6.036473      -164.2608
  21   2.0000      -6.032349      -164.1486
  22   2.0000      -6.028278      -164.0378
  23   2.0000      -6.024230      -163.9276
  24   2.0000      -1.008944       -27.4548
  25   2.0000      -0.987541       -26.8724
  26   2.0000      -0.912469       -24.8296
  27   2.0000      -0.902394       -24.5554
  28   2.0000      -0.871010       -23.7014
  29   2.0000      -0.852431       -23.1958
  30   2.0000      -0.846842       -23.0437
  31   2.0000      -0.813631       -22.1400
  32   2.0000      -0.784851       -21.3569
  33   2.0000      -0.776901       -21.1406
  34   2.0000      -0.708579       -19.2814
  35   2.0000      -0.696520       -18.9533
  36   2.0000      -0.695035       -18.9129
  37   2.0000      -0.659848       -17.9554
  38   2.0000      -0.646517       -17.5926
  39   2.0000      -0.614660       -16.7258
  40   2.0000      -0.596158       -16.2223
  41   2.0000      -0.572498       -15.5785
  42   2.0000      -0.562220       -15.2988
  43   2.0000      -0.546096       -14.8600
  44   2.0000      -0.541716       -14.7409
  45   2.0000      -0.526272       -14.3206
  46   2.0000      -0.517551       -14.0833
  47   2.0000      -0.513109       -13.9624
  48   2.0000      -0.503886       -13.7114
  49   2.0000      -0.499771       -13.5995
  50   2.0000      -0.490736       -13.3536
  51   2.0000      -0.486859       -13.2481
  52   2.0000      -0.474702       -12.9173
  53   2.0000      -0.465897       -12.6777
  54   2.0000      -0.454674       -12.3723
  55   2.0000      -0.450883       -12.2691
  56   2.0000      -0.445863       -12.1326
  57   2.0000      -0.440942       -11.9986
  58   2.0000      -0.426644       -11.6096
  59   2.0000      -0.426361       -11.6019
  60   2.0000      -0.416883       -11.3440
  61   2.0000      -0.412171       -11.2157
  62   2.0000      -0.402667       -10.9571
  63   2.0000      -0.342133        -9.3099
  64   2.0000      -0.334664        -9.1067
  65   2.0000      -0.325063        -8.8454
  66   2.0000      -0.304428        -8.2839
  67   0.0000       0.032629         0.8879
  68   0.0000       0.062852         1.7103
  69   0.0000       0.109137         2.9698
  70   0.0000       0.118052         3.2124
  71   0.0000       0.127828         3.4784

MULLIKEN ATOMIC CHARGES
-----------------------
   0 S :    0.135545
   1 C :   -0.118169
   2 C :   -0.078409
   3 C :    0.037097
   4 C :   -0.188360
   5 H :    0.026164
   6 C :    0.019101
   7 H :    0.049819
   8 H :    0.030314
   9 C :   -0.089531
  10 H :    0.050006
  11 H :    0.040682
  12 C :   -0.031557
  13 H :    0.025391
  14 H :    0.033233
  15 H :    0.017173
  16 S :    0.088030
  17 C :   -0.045630
  18 C :   -0.048973
  19 C :   -0.016475
  20 C :   -0.169969
  21 H :    0.030689
  22 C :    0.038126
  23 H :    0.022667
  24 H :    0.026385
  25 C :   -0.077069
  26 H :    0.032064
  27 H :    0.034600
  28 C :    0.015467
  29 H :   -0.004322
  30 H :    0.036458
  31 H :    0.005491
  32 H :    0.042340
  33 H :    0.031622
Sum of atomic charges:    0.0000000

LOEWDIN ATOMIC CHARGES
----------------------
   0 S :    0.427132
   1 C :   -0.198554
   2 C :   -0.071308
   3 C :   -0.051862
   4 C :   -0.197085
   5 H :    0.035531
   6 C :   -0.039250
   7 H :    0.042778
   8 H :    0.029335
   9 C :   -0.053537
  10 H :    0.034258
  11 H :    0.032968
  12 C :   -0.067852
  13 H :    0.019484
  14 H :    0.033599
  15 H :    0.020230
  16 S :    0.385908
  17 C :   -0.172210
  18 C :   -0.076741
  19 C :   -0.055127
  20 C :   -0.193659
  21 H :    0.035512
  22 C :   -0.031486
  23 H :    0.025850
  24 H :    0.028544
  25 C :   -0.041118
  26 H :    0.025667
  27 H :    0.029758
  28 C :   -0.069699
  29 H :    0.019562
  30 H :    0.027889
  31 H :    0.023552
  32 H :    0.022206
  33 H :    0.019724

  Mayer bond orders larger than 0.100000
B(  0-S ,  1-C ) :   1.1458 B(  0-S ,  4-C ) :   1.1678 B(  1-C ,  2-C ) :   1.6327
B(  1-C , 32-H ) :   0.9641 B(  2-C ,  3-C ) :   1.2376 B(  2-C ,  6-C ) :   1.0024
B(  3-C ,  4-C ) :   1.5748 B(  3-C ,  5-H ) :   0.9920 B(  4-C , 20-C ) :   1.0220
B(  6-C ,  7-H ) :   0.9446 B(  6-C ,  8-H ) :   0.9460 B(  6-C ,  9-C ) :   1.0457
B(  9-C , 10-H ) :   0.9592 B(  9-C , 11-H ) :   0.9577 B(  9-C , 12-C ) :   1.0660
B( 12-C , 13-H ) :   0.9747 B( 12-C , 14-H ) :   0.9726 B( 12-C , 15-H ) :   0.9760
B( 16-S , 17-C ) :   1.1372 B( 16-S , 20-C ) :   1.1374 B( 17-C , 18-C ) :   1.6244
B( 17-C , 33-H ) :   0.9762 B( 18-C , 19-C ) :   1.2363 B( 18-C , 21-H ) :   0.9752
B( 19-C , 20-C ) :   1.6109 B( 19-C , 22-C ) :   1.0425 B( 22-C , 23-H ) :   0.9438
B( 22-C , 24-H ) :   0.9322 B( 22-C , 25-C ) :   1.0588 B( 25-C , 26-H ) :   0.9532
B( 25-C , 27-H ) :   0.9562 B( 25-C , 28-C ) :   1.0883 B( 28-C , 29-H ) :   0.9623
B( 28-C , 30-H ) :   0.9729 B( 28-C , 31-H ) :   0.9624

Dispersion correction           -0.014312456
FINAL SINGLE POINT ENERGY     -1339.864652595513

DIPOLE MOMENT
-------------
                                X             Y             Z
Electronic contribution:      0.44738      -8.25933     -23.13690
Nuclear contribution   :     -0.56273       8.61050      23.60290
                        -----------------------------------------
Total Dipole Moment    :     -0.11536       0.35118       0.46600
                        -----------------------------------------
Magnitude (a.u.)       :      0.59480
Magnitude (Debye)      :      1.51186

Rotational constants in cm-1:     0.018750     0.008160     0.006559
Rotational constants in MHz :   562.113413   244.633674   196.633291

                             ****ORCA TERMINATED NORMALLY****
TOTAL RUN TIME: 0 days 0 hours 0 minutes 33 seconds 336 msec
