                         Program Version 4.2.1 -  RELEASE  -
|  1> ! wB97X-D3 SP def2-SVP
|  2> %pal
|  3> nprocs 16
|  4> end
|  5>
|  6> * xyz 0 1
|  7> S 	 -68.2085 	 35.7959 	 141.682
|  8> C 	 -68.9708 	 34.2658 	 141.737
|  9> C 	 -68.5735 	 33.486 	 140.646
| 10> C 	 -67.6842 	 34.1718 	 139.776
| 11> C 	 -67.5189 	 35.5077 	 140.11
| 12> H 	 -67.2848 	 33.8414 	 138.792
| 13> C 	 -69.0519 	 32.0741 	 140.256
| 14> H 	 -68.8214 	 32.0457 	 139.179
| 15> H 	 -70.192 	 31.9181 	 140.376
| 16> C 	 -68.2823 	 30.9166 	 140.951
| 17> H 	 -68.4409 	 31.0683 	 141.998
| 18> H 	 -68.6315 	 29.9302 	 140.788
| 19> C 	 -66.8138 	 30.9665 	 140.688
| 20> H 	 -66.2562 	 30.0977 	 141.041
| 21> H 	 -66.5561 	 30.9686 	 139.663
| 22> H 	 -66.4086 	 31.9328 	 141.148
| 23> S 	 -65.2969 	 36.9714 	 139.939
| 24> C 	 -64.9296 	 37.9376 	 138.51
| 25> C 	 -66.0511 	 37.8868 	 137.681
| 26> C 	 -67.1632 	 37.1453 	 138.194
| 27> C 	 -66.8059 	 36.554 	 139.415
| 28> H 	 -66.1067 	 38.5507 	 136.788
| 29> C 	 -68.5204 	 36.8124 	 137.443
| 30> H 	 -68.775 	 35.8177 	 137.897
| 31> H 	 -68.238 	 36.6826 	 136.434
| 32> C 	 -69.5902 	 37.9575 	 137.543
| 33> H 	 -70.3737 	 37.6998 	 136.733
| 34> H 	 -69.2283 	 38.9394 	 137.346
| 35> C 	 -70.1343 	 37.9697 	 138.997
| 36> H 	 -70.7984 	 38.858 	 139.134
| 37> H 	 -69.3537 	 38.024 	 139.694
| 38> H 	 -70.7463 	 37.0291 	 139.136
| 39> H 	 -69.5392 	 33.9332 	 142.584
| 40> H 	 -64.0894 	 38.5515 	 138.357
| 41> *
| 42>
| 43>                          ****END OF INPUT****

CARTESIAN COORDINATES (ANGSTROEM)
---------------------------------
  S    -68.208500   35.795900  141.682000
  C    -68.970800   34.265800  141.737000
  C    -68.573500   33.486000  140.646000
  C    -67.684200   34.171800  139.776000
  C    -67.518900   35.507700  140.110000
  H    -67.284800   33.841400  138.792000
  C    -69.051900   32.074100  140.256000
  H    -68.821400   32.045700  139.179000
  H    -70.192000   31.918100  140.376000
  C    -68.282300   30.916600  140.951000
  H    -68.440900   31.068300  141.998000
  H    -68.631500   29.930200  140.788000
  C    -66.813800   30.966500  140.688000
  H    -66.256200   30.097700  141.041000
  H    -66.556100   30.968600  139.663000
  H    -66.408600   31.932800  141.148000
  S    -65.296900   36.971400  139.939000
  C    -64.929600   37.937600  138.510000
  C    -66.051100   37.886800  137.681000
  C    -67.163200   37.145300  138.194000
  C    -66.805900   36.554000  139.415000
  H    -66.106700   38.550700  136.788000
  C    -68.520400   36.812400  137.443000
  H    -68.775000   35.817700  137.897000
  H    -68.238000   36.682600  136.434000
  C    -69.590200   37.957500  137.543000
  H    -70.373700   37.699800  136.733000
  H    -69.228300   38.939400  137.346000
  C    -70.134300   37.969700  138.997000
  H    -70.798400   38.858000  139.134000
  H    -69.353700   38.024000  139.694000
  H    -70.746300   37.029100  139.136000
  H    -69.539200   33.933200  142.584000
  H    -64.089400   38.551500  138.357000

 Total Charge           Charge          ....    0
 Multiplicity           Mult            ....    1
 Number of Electrons    NEL             ....  134
 Basis Dimension        Dim             ....  322

ORBITAL ENERGIES
----------------

  NO   OCC          E(Eh)            E(eV)
   0   2.0000     -88.967118     -2420.9183
   1   2.0000     -88.966348     -2420.8974
   2   2.0000     -10.327374      -281.0221
   3   2.0000     -10.318743      -280.7873
   4   2.0000     -10.316524      -280.7269
   5   2.0000     -10.315025      -280.6861
   6   2.0000     -10.306173      -280.4452
   7   2.0000     -10.304378      -280.3964
   8   2.0000     -10.302160      -280.3360
   9   2.0000     -10.299106      -280.2529
  10   2.0000     -10.299055      -280.2515
  11   2.0000     -10.295243      -280.1478
  12   2.0000     -10.291497      -280.0459
  13   2.0000     -10.278177      -279.6834
  14   2.0000     -10.272519      -279.5295
  15   2.0000     -10.271467      -279.5008
  16   2.0000      -8.082629      -219.9395
  17   2.0000      -8.082575      -219.9380
  18   2.0000      -6.040906      -164.3814
  19   2.0000      -6.040855      -164.3800
  20   2.0000      -6.036821      -164.2703
  21   2.0000      -6.036672      -164.2662
  22   2.0000      -6.033755      -164.1868
  23   2.0000      -6.033694      -164.1852
  24   2.0000      -1.016515       -27.6608
  25   2.0000      -0.990882       -26.9633
  26   2.0000      -0.911468       -24.8023
  27   2.0000      -0.898018       -24.4363
  28   2.0000      -0.873264       -23.7627
  29   2.0000      -0.851302       -23.1651
  30   2.0000      -0.842173       -22.9167
  31   2.0000      -0.812971       -22.1221
  32   2.0000      -0.777936       -21.1687
  33   2.0000      -0.767425       -20.8827
  34   2.0000      -0.705023       -19.1847
  35   2.0000      -0.700304       -19.0562
  36   2.0000      -0.693870       -18.8812
  37   2.0000      -0.657216       -17.8838
  38   2.0000      -0.648173       -17.6377
  39   2.0000      -0.611265       -16.6334
  40   2.0000      -0.589342       -16.0368
  41   2.0000      -0.572106       -15.5678
  42   2.0000      -0.551750       -15.0139
  43   2.0000      -0.545936       -14.8557
  44   2.0000      -0.542034       -14.7495
  45   2.0000      -0.536615       -14.6020
  46   2.0000      -0.525367       -14.2960
  47   2.0000      -0.510053       -13.8792
  48   2.0000      -0.502548       -13.6750
  49   2.0000      -0.498863       -13.5747
  50   2.0000      -0.485717       -13.2170
  51   2.0000      -0.480495       -13.0749
  52   2.0000      -0.468210       -12.7406
  53   2.0000      -0.463063       -12.6006
  54   2.0000      -0.456044       -12.4096
  55   2.0000      -0.443878       -12.0785
  56   2.0000      -0.440849       -11.9961
  57   2.0000      -0.433136       -11.7862
  58   2.0000      -0.429872       -11.6974
  59   2.0000      -0.424671       -11.5559
  60   2.0000      -0.422099       -11.4859
  61   2.0000      -0.412218       -11.2170
  62   2.0000      -0.408023       -11.1029
  63   2.0000      -0.343641        -9.3509
  64   2.0000      -0.332203        -9.0397
  65   2.0000      -0.322116        -8.7652
  66   2.0000      -0.305327        -8.3084
  67   0.0000       0.040726         1.1082
  68   0.0000       0.056419         1.5352
  69   0.0000       0.118733         3.2309
  70   0.0000       0.121738         3.3127
  71   0.0000       0.125346         3.4108

MULLIKEN ATOMIC CHARGES
-----------------------
   0 S :    0.123901
   1 C :   -0.107694
   2 C :   -0.114376
   3 C :    0.059481
   4 C :   -0.215155
   5 H :    0.031949
   6 C :    0.025199
   7 H :    0.024466
   8 H :    0.053426
   9 C :   -0.012236
  10 H :    0.014888
  11 H :    0.017847
  12 C :   -0.075785
  13 H :    0.031658
  14 H :    0.012360
  15 H :    0.056375
  16 S :    0.132713
  17 C :   -0.092450
  18 C :   -0.052282
  19 C :   -0.060207
  20 C :   -0.167855
  21 H :    0.033334
  22 C :    0.081532
  23 H :    0.041056
  24 H :    0.014997
  25 C :   -0.071174
  26 H :    0.044046
  27 H :    0.026422
  28 C :   -0.052042
  29 H :    0.035176
  30 H :    0.026377
  31 H :    0.040853
  32 H :    0.048573
  33 H :    0.044625
Sum of atomic charges:   -0.0000000

LOEWDIN ATOMIC CHARGES
----------------------
   0 S :    0.437502
   1 C :   -0.206411
   2 C :   -0.069663
   3 C :   -0.064070
   4 C :   -0.203470
   5 H :    0.039688
   6 C :   -0.032395
   7 H :    0.027483
   8 H :    0.041388
   9 C :   -0.041495
  10 H :    0.021176
  11 H :    0.018189
  12 C :   -0.070288
  13 H :    0.027159
  14 H :    0.014585
  15 H :    0.037818
  16 S :    0.455908
  17 C :   -0.188190
  18 C :   -0.073821
  19 C :   -0.059694
  20 C :   -0.248899
  21 H :    0.035793
  22 C :   -0.024294
  23 H :    0.037994
  24 H :    0.020696
  25 C :   -0.038777
  26 H :    0.032309
  27 H :    0.017785
  28 C :   -0.063401
  29 H :    0.026648
  30 H :    0.011059
  31 H :    0.032140
  32 H :    0.027011
  33 H :    0.022536

  Mayer bond orders larger than 0.100000
B(  0-S ,  1-C ) :   1.1675 B(  0-S ,  4-C ) :   1.1790 B(  1-C ,  2-C ) :   1.5751
B(  1-C ,  4-C ) :   0.1074 B(  1-C , 32-H ) :   0.9757 B(  2-C ,  3-C ) :   1.2615
B(  2-C ,  6-C ) :   1.0020 B(  3-C ,  4-C ) :   1.5663 B(  3-C ,  5-H ) :   0.9829
B(  4-C , 20-C ) :   0.9957 B(  6-C ,  7-H ) :   0.9480 B(  6-C ,  8-H ) :   0.9512
B(  6-C ,  9-C ) :   1.0591 B(  9-C , 10-H ) :   0.9543 B(  9-C , 11-H ) :   0.9581
B(  9-C , 12-C ) :   1.0839 B( 12-C , 13-H ) :   0.9711 B( 12-C , 14-H ) :   0.9749
B( 12-C , 15-H ) :   0.9695 B( 16-S , 17-C ) :   1.1584 B( 16-S , 20-C ) :   1.2060
B( 17-C , 18-C ) :   1.5756 B( 17-C , 20-C ) :   0.1050 B( 17-C , 33-H ) :   0.9791
B( 18-C , 19-C ) :   1.2963 B( 18-C , 21-H ) :   0.9762 B( 19-C , 20-C ) :   1.5324
B( 19-C , 22-C ) :   1.0092 B( 22-C , 23-H ) :   0.9383 B( 22-C , 24-H ) :   0.9385
B( 22-C , 25-C ) :   1.0574 B( 25-C , 26-H ) :   0.9584 B( 25-C , 27-H ) :   0.9617
B( 25-C , 28-C ) :   1.0633 B( 28-C , 29-H ) :   0.9757 B( 28-C , 30-H ) :   0.9769
B( 28-C , 31-H ) :   0.9772

Dispersion correction           -0.015820087
FINAL SINGLE POINT ENERGY     -1339.873288460703

DIPOLE MOMENT
-------------
                                X             Y             Z
Electronic contribution:     11.89532      12.32792       7.93267
Nuclear contribution   :    -12.07221     -12.56874      -8.27820
                        -----------------------------------------
Total Dipole Moment    :     -0.17689      -0.24082      -0.34553
                        -----------------------------------------
Magnitude (a.u.)       :      0.45681
Magnitude (Debye)      :      1.16111

Rotational constants in cm-1:     0.020374     0.008920     0.007818
Rotational constants in MHz :   610.804818   267.407062   234.370658

                             ****ORCA TERMINATED NORMALLY****
TOTAL RUN TIME: 0 days 0 hours 0 minutes 34 seconds 646 msec
