                         Program Version 4.2.1 -  RELEASE  -
|  1> ! wB97X-D3 SP def2-SVP
|  2> %pal
|  3> nprocs 16
|  4> end
|  5>
|  6> * xyz 0 1
|  7> S 	 -62.7223 	 53.9913 	 127.045
|  8> C 	 -64.2503 	 53.3595 	 126.568
|  9> C 	 -64.1355 	 51.9977 	 126.285
| 10> C 	 -62.7579 	 51.5641 	 126.347
| 11> C 	 -61.8211 	 52.522 	 126.63
| 12> H 	 -62.2891 	 50.5879 	 126.074
| 13> C 	 -65.3439 	 51.1174 	 126.025
| 14> H 	 -66.0281 	 51.516 	 125.248
| 15> H 	 -65.9013 	 51.2159 	 127.009
| 16> C 	 -65.0647 	 49.7065 	 125.718
| 17> H 	 -64.6179 	 49.6716 	 124.745
| 18> H 	 -64.3498 	 49.2983 	 126.358
| 19> C 	 -66.3242 	 48.9388 	 125.395
| 20> H 	 -67.0665 	 49.4985 	 124.875
| 21> H 	 -66.0695 	 48.0203 	 124.959
| 22> H 	 -66.7988 	 48.698 	 126.32
| 23> S 	 -59.3974 	 53.376 	 125.689
| 24> C 	 -57.8884 	 52.6923 	 126.209
| 25> C 	 -58.1957 	 52.0484 	 127.398
| 26> C 	 -59.6012 	 51.767 	 127.633
| 27> C 	 -60.424 	 52.4031 	 126.747
| 28> H 	 -57.3162 	 51.6387 	 127.832
| 29> C 	 -60.1078 	 50.8261 	 128.756
| 30> H 	 -59.2565 	 50.2796 	 129.265
| 31> H 	 -60.7608 	 50.0522 	 128.349
| 32> C 	 -60.9427 	 51.5667 	 129.895
| 33> H 	 -61.1111 	 50.8406 	 130.746
| 34> H 	 -61.8979 	 51.869 	 129.493
| 35> C 	 -60.3162 	 52.8097 	 130.476
| 36> H 	 -60.1948 	 53.5142 	 129.671
| 37> H 	 -59.309 	 52.6055 	 130.843
| 38> H 	 -60.9366 	 53.379 	 131.215
| 39> H 	 -65.1768 	 53.9727 	 126.577
| 40> H 	 -56.8635 	 52.9839 	 125.997
| 41> *
| 42>
| 43>                          ****END OF INPUT****

CARTESIAN COORDINATES (ANGSTROEM)
---------------------------------
  S    -62.722300   53.991300  127.045000
  C    -64.250300   53.359500  126.568000
  C    -64.135500   51.997700  126.285000
  C    -62.757900   51.564100  126.347000
  C    -61.821100   52.522000  126.630000
  H    -62.289100   50.587900  126.074000
  C    -65.343900   51.117400  126.025000
  H    -66.028100   51.516000  125.248000
  H    -65.901300   51.215900  127.009000
  C    -65.064700   49.706500  125.718000
  H    -64.617900   49.671600  124.745000
  H    -64.349800   49.298300  126.358000
  C    -66.324200   48.938800  125.395000
  H    -67.066500   49.498500  124.875000
  H    -66.069500   48.020300  124.959000
  H    -66.798800   48.698000  126.320000
  S    -59.397400   53.376000  125.689000
  C    -57.888400   52.692300  126.209000
  C    -58.195700   52.048400  127.398000
  C    -59.601200   51.767000  127.633000
  C    -60.424000   52.403100  126.747000
  H    -57.316200   51.638700  127.832000
  C    -60.107800   50.826100  128.756000
  H    -59.256500   50.279600  129.265000
  H    -60.760800   50.052200  128.349000
  C    -60.942700   51.566700  129.895000
  H    -61.111100   50.840600  130.746000
  H    -61.897900   51.869000  129.493000
  C    -60.316200   52.809700  130.476000
  H    -60.194800   53.514200  129.671000
  H    -59.309000   52.605500  130.843000
  H    -60.936600   53.379000  131.215000
  H    -65.176800   53.972700  126.577000
  H    -56.863500   52.983900  125.997000

 Total Charge           Charge          ....    0
 Multiplicity           Mult            ....    1
 Number of Electrons    NEL             ....  134
 Basis Dimension        Dim             ....  322

ORBITAL ENERGIES
----------------

  NO   OCC          E(Eh)            E(eV)
   0   2.0000     -88.963859     -2420.8297
   1   2.0000     -88.960135     -2420.7283
   2   2.0000     -10.327478      -281.0250
   3   2.0000     -10.325856      -280.9808
   4   2.0000     -10.320412      -280.8327
   5   2.0000     -10.318520      -280.7812
   6   2.0000     -10.311540      -280.5913
   7   2.0000     -10.307440      -280.4797
   8   2.0000     -10.302056      -280.3332
   9   2.0000     -10.300712      -280.2966
  10   2.0000     -10.294847      -280.1370
  11   2.0000     -10.294370      -280.1240
  12   2.0000     -10.285453      -279.8814
  13   2.0000     -10.273296      -279.5506
  14   2.0000     -10.269324      -279.4425
  15   2.0000     -10.269035      -279.4346
  16   2.0000      -8.078688      -219.8323
  17   2.0000      -8.075198      -219.7373
  18   2.0000      -6.037179      -164.2800
  19   2.0000      -6.033805      -164.1882
  20   2.0000      -6.033029      -164.1671
  21   2.0000      -6.029595      -164.0736
  22   2.0000      -6.029505      -164.0712
  23   2.0000      -6.025903      -163.9732
  24   2.0000      -1.011262       -27.5179
  25   2.0000      -0.987330       -26.8666
  26   2.0000      -0.925312       -25.1790
  27   2.0000      -0.899757       -24.4836
  28   2.0000      -0.881266       -23.9805
  29   2.0000      -0.849084       -23.1047
  30   2.0000      -0.840182       -22.8625
  31   2.0000      -0.821972       -22.3670
  32   2.0000      -0.781934       -21.2775
  33   2.0000      -0.772763       -21.0279
  34   2.0000      -0.721376       -19.6296
  35   2.0000      -0.695343       -18.9212
  36   2.0000      -0.682631       -18.5753
  37   2.0000      -0.659939       -17.9579
  38   2.0000      -0.649499       -17.6738
  39   2.0000      -0.615925       -16.7602
  40   2.0000      -0.586931       -15.9712
  41   2.0000      -0.580341       -15.7919
  42   2.0000      -0.571371       -15.5478
  43   2.0000      -0.555829       -15.1249
  44   2.0000      -0.539925       -14.6921
  45   2.0000      -0.531754       -14.4698
  46   2.0000      -0.519809       -14.1447
  47   2.0000      -0.515241       -14.0204
  48   2.0000      -0.503537       -13.7019
  49   2.0000      -0.499468       -13.5912
  50   2.0000      -0.493036       -13.4162
  51   2.0000      -0.481716       -13.1082
  52   2.0000      -0.477100       -12.9826
  53   2.0000      -0.471292       -12.8245
  54   2.0000      -0.455275       -12.3887
  55   2.0000      -0.453741       -12.3469
  56   2.0000      -0.444310       -12.0903
  57   2.0000      -0.437900       -11.9159
  58   2.0000      -0.422862       -11.5067
  59   2.0000      -0.420036       -11.4298
  60   2.0000      -0.414547       -11.2804
  61   2.0000      -0.405573       -11.0362
  62   2.0000      -0.401648       -10.9294
  63   2.0000      -0.343852        -9.3567
  64   2.0000      -0.328713        -8.9447
  65   2.0000      -0.323962        -8.8155
  66   2.0000      -0.303046        -8.2463
  67   0.0000       0.029596         0.8054
  68   0.0000       0.054921         1.4945
  69   0.0000       0.115341         3.1386
  70   0.0000       0.118306         3.2193
  71   0.0000       0.133228         3.6253

MULLIKEN ATOMIC CHARGES
-----------------------
   0 S :    0.110339
   1 C :   -0.135589
   2 C :   -0.069358
   3 C :    0.005849
   4 C :   -0.159478
   5 H :    0.030926
   6 C :    0.023818
   7 H :    0.036058
   8 H :    0.042729
   9 C :   -0.065402
  10 H :    0.017247
  11 H :    0.018931
  12 C :    0.029407
  13 H :    0.021386
  14 H :    0.020921
  15 H :    0.007667
  16 S :    0.096856
  17 C :   -0.089448
  18 C :   -0.050612
  19 C :   -0.016949
  20 C :   -0.176547
  21 H :    0.012299
  22 C :    0.063307
  23 H :    0.031787
  24 H :    0.036936
  25 C :   -0.098729
  26 H :    0.036753
  27 H :    0.035506
  28 C :   -0.044739
  29 H :    0.023873
  30 H :    0.022923
  31 H :    0.042775
  32 H :    0.068518
  33 H :    0.070041
Sum of atomic charges:    0.0000000

LOEWDIN ATOMIC CHARGES
----------------------
   0 S :    0.408747
   1 C :   -0.205491
   2 C :   -0.066770
   3 C :   -0.068490
   4 C :   -0.197277
   5 H :    0.040177
   6 C :   -0.038363
   7 H :    0.035212
   8 H :    0.039476
   9 C :   -0.044832
  10 H :    0.026313
  11 H :    0.016528
  12 C :   -0.046508
  13 H :    0.024295
  14 H :    0.021374
  15 H :    0.020025
  16 S :    0.404834
  17 C :   -0.186947
  18 C :   -0.075777
  19 C :   -0.051548
  20 C :   -0.200751
  21 H :    0.024155
  22 C :   -0.030767
  23 H :    0.034483
  24 H :    0.032700
  25 C :   -0.043102
  26 H :    0.027242
  27 H :    0.019555
  28 C :   -0.072026
  29 H :    0.020608
  30 H :    0.021046
  31 H :    0.033232
  32 H :    0.039508
  33 H :    0.039140

  Mayer bond orders larger than 0.100000
B(  0-S ,  1-C ) :   1.1584 B(  0-S ,  4-C ) :   1.1364 B(  1-C ,  2-C ) :   1.5857
B(  1-C ,  4-C ) :   0.1053 B(  1-C , 32-H ) :   0.9712 B(  2-C ,  3-C ) :   1.2389
B(  2-C ,  6-C ) :   1.0015 B(  3-C ,  4-C ) :   1.5885 B(  3-C ,  5-H ) :   0.9846
B(  4-C , 20-C ) :   1.0729 B(  6-C ,  7-H ) :   0.9381 B(  6-C ,  8-H ) :   0.9367
B(  6-C ,  9-C ) :   1.1070 B(  9-C , 10-H ) :   0.9472 B(  9-C , 11-H ) :   0.9444
B(  9-C , 12-C ) :   1.0797 B( 12-C , 13-H ) :   0.9696 B( 12-C , 14-H ) :   0.9712
B( 12-C , 15-H ) :   0.9694 B( 16-S , 17-C ) :   1.1586 B( 16-S , 20-C ) :   1.1301
B( 17-C , 18-C ) :   1.6266 B( 17-C , 20-C ) :   0.1038 B( 17-C , 33-H ) :   0.9633
B( 18-C , 19-C ) :   1.2215 B( 18-C , 21-H ) :   0.9863 B( 19-C , 20-C ) :   1.5861
B( 19-C , 22-C ) :   1.0349 B( 22-C , 23-H ) :   0.9412 B( 22-C , 24-H ) :   0.9428
B( 22-C , 25-C ) :   1.0576 B( 25-C , 26-H ) :   0.9587 B( 25-C , 27-H ) :   0.9557
B( 25-C , 28-C ) :   1.0835 B( 28-C , 29-H ) :   0.9655 B( 28-C , 30-H ) :   0.9755
B( 28-C , 31-H ) :   0.9727

Dispersion correction           -0.015076455
FINAL SINGLE POINT ENERGY     -1339.857825064541

DIPOLE MOMENT
-------------
                                X             Y             Z
Electronic contribution:     13.22042      17.28597      -9.23765
Nuclear contribution   :    -13.42853     -17.81302       9.41905
                        -----------------------------------------
Total Dipole Moment    :     -0.20811      -0.52705       0.18140
                        -----------------------------------------
Magnitude (a.u.)       :      0.59497
Magnitude (Debye)      :      1.51230

Rotational constants in cm-1:     0.020658     0.007937     0.007549
Rotational constants in MHz :   619.306445   237.955653   226.300910

                             ****ORCA TERMINATED NORMALLY****
TOTAL RUN TIME: 0 days 0 hours 0 minutes 34 seconds 285 msec
