                         Program Version 4.2.1 -  RELEASE  -
|  1> ! wB97X-D3 SP def2-SVP
|  2> %pal
|  3> nprocs 16
|  4> end
|  5>
|  6> * xyz 0 1
|  7> S 	 13.5672 	 -7.73596 	 88.1756
|  8> C 	 13.8064 	 -8.2025 	 89.8849
|  9> C 	 12.843 	 -9.15703 	 90.1895
| 10> C 	 11.803 	 -9.1031 	 89.1588
| 11> C 	 11.8894 	 -8.25448 	 88.1092
| 12> H 	 10.962 	 -9.79619 	 89.2113
| 13> C 	 12.9644 	 -10.0889 	 91.326
| 14> H 	 13.6055 	 -9.62412 	 92.0357
| 15> H 	 13.5229 	 -11.0114 	 91.0791
| 16> C 	 11.654 	 -10.3928 	 91.9971
| 17> H 	 11.119 	 -9.43866 	 92.2842
| 18> H 	 11.0393 	 -11.0066 	 91.3407
| 19> C 	 11.8011 	 -11.1975 	 93.2533
| 20> H 	 10.9086 	 -11.3776 	 93.7778
| 21> H 	 12.2698 	 -12.2105 	 93.0219
| 22> H 	 12.4322 	 -10.646 	 93.9563
| 23> S 	 11.5753 	 -7.98822 	 85.4079
| 24> C 	 10.0282 	 -8.01887 	 84.6279
| 25> C 	 9.04838 	 -8.26933 	 85.5729
| 26> C 	 9.57203 	 -8.42464 	 86.8854
| 27> C 	 10.9375 	 -8.14991 	 86.9874
| 28> H 	 8.04797 	 -8.41873 	 85.287
| 29> C 	 8.58362 	 -8.80407 	 88.0703
| 30> H 	 7.7929 	 -8.05687 	 88.1544
| 31> H 	 9.13066 	 -8.84347 	 88.9861
| 32> C 	 7.84821 	 -10.1249 	 88.0232
| 33> H 	 8.57592 	 -10.9732 	 88.0533
| 34> H 	 7.22071 	 -10.2003 	 87.0676
| 35> C 	 6.85985 	 -10.2873 	 89.2245
| 36> H 	 7.26717 	 -10.387 	 90.194
| 37> H 	 6.24978 	 -11.1591 	 89.0277
| 38> H 	 6.16132 	 -9.35376 	 89.251
| 39> H 	 14.6561 	 -8.0158 	 90.4377
| 40> H 	 9.78051 	 -8.01286 	 83.601
| 41> *
| 42>
| 43>                          ****END OF INPUT****

CARTESIAN COORDINATES (ANGSTROEM)
---------------------------------
  S     13.567200   -7.735960   88.175600
  C     13.806400   -8.202500   89.884900
  C     12.843000   -9.157030   90.189500
  C     11.803000   -9.103100   89.158800
  C     11.889400   -8.254480   88.109200
  H     10.962000   -9.796190   89.211300
  C     12.964400  -10.088900   91.326000
  H     13.605500   -9.624120   92.035700
  H     13.522900  -11.011400   91.079100
  C     11.654000  -10.392800   91.997100
  H     11.119000   -9.438660   92.284200
  H     11.039300  -11.006600   91.340700
  C     11.801100  -11.197500   93.253300
  H     10.908600  -11.377600   93.777800
  H     12.269800  -12.210500   93.021900
  H     12.432200  -10.646000   93.956300
  S     11.575300   -7.988220   85.407900
  C     10.028200   -8.018870   84.627900
  C      9.048380   -8.269330   85.572900
  C      9.572030   -8.424640   86.885400
  C     10.937500   -8.149910   86.987400
  H      8.047970   -8.418730   85.287000
  C      8.583620   -8.804070   88.070300
  H      7.792900   -8.056870   88.154400
  H      9.130660   -8.843470   88.986100
  C      7.848210  -10.124900   88.023200
  H      8.575920  -10.973200   88.053300
  H      7.220710  -10.200300   87.067600
  C      6.859850  -10.287300   89.224500
  H      7.267170  -10.387000   90.194000
  H      6.249780  -11.159100   89.027700
  H      6.161320   -9.353760   89.251000
  H     14.656100   -8.015800   90.437700
  H      9.780510   -8.012860   83.601000

 Total Charge           Charge          ....    0
 Multiplicity           Mult            ....    1
 Number of Electrons    NEL             ....  134
 Basis Dimension        Dim             ....  322

ORBITAL ENERGIES
----------------

  NO   OCC          E(Eh)            E(eV)
   0   2.0000     -88.968312     -2420.9509
   1   2.0000     -88.960487     -2420.7379
   2   2.0000     -10.333913      -281.2001
   3   2.0000     -10.333568      -281.1907
   4   2.0000     -10.316030      -280.7135
   5   2.0000     -10.314569      -280.6737
   6   2.0000     -10.309244      -280.5288
   7   2.0000     -10.305269      -280.4206
   8   2.0000     -10.297674      -280.2140
   9   2.0000     -10.293353      -280.0964
  10   2.0000     -10.292117      -280.0627
  11   2.0000     -10.291350      -280.0419
  12   2.0000     -10.291321      -280.0411
  13   2.0000     -10.288528      -279.9651
  14   2.0000     -10.285954      -279.8950
  15   2.0000     -10.279002      -279.7059
  16   2.0000      -8.083891      -219.9738
  17   2.0000      -8.074785      -219.7261
  18   2.0000      -6.042433      -164.4229
  19   2.0000      -6.038186      -164.3074
  20   2.0000      -6.034644      -164.2110
  21   2.0000      -6.033621      -164.1832
  22   2.0000      -6.029719      -164.0770
  23   2.0000      -6.024803      -163.9432
  24   2.0000      -1.012106       -27.5408
  25   2.0000      -0.988958       -26.9109
  26   2.0000      -0.924932       -25.1687
  27   2.0000      -0.906742       -24.6737
  28   2.0000      -0.877649       -23.8820
  29   2.0000      -0.848833       -23.0979
  30   2.0000      -0.844130       -22.9699
  31   2.0000      -0.819893       -22.3104
  32   2.0000      -0.782945       -21.3050
  33   2.0000      -0.776330       -21.1250
  34   2.0000      -0.713743       -19.4219
  35   2.0000      -0.694340       -18.8940
  36   2.0000      -0.691451       -18.8153
  37   2.0000      -0.663397       -18.0519
  38   2.0000      -0.647578       -17.6215
  39   2.0000      -0.621849       -16.9214
  40   2.0000      -0.597708       -16.2645
  41   2.0000      -0.582769       -15.8579
  42   2.0000      -0.575014       -15.6469
  43   2.0000      -0.569160       -15.4876
  44   2.0000      -0.533289       -14.5115
  45   2.0000      -0.524846       -14.2818
  46   2.0000      -0.519515       -14.1367
  47   2.0000      -0.515706       -14.0331
  48   2.0000      -0.506801       -13.7908
  49   2.0000      -0.505423       -13.7533
  50   2.0000      -0.494414       -13.4537
  51   2.0000      -0.485880       -13.2215
  52   2.0000      -0.478906       -13.0317
  53   2.0000      -0.467305       -12.7160
  54   2.0000      -0.456348       -12.4179
  55   2.0000      -0.449975       -12.2444
  56   2.0000      -0.448543       -12.2055
  57   2.0000      -0.432540       -11.7700
  58   2.0000      -0.430772       -11.7219
  59   2.0000      -0.424498       -11.5512
  60   2.0000      -0.420247       -11.4355
  61   2.0000      -0.416293       -11.3279
  62   2.0000      -0.408176       -11.1070
  63   2.0000      -0.361763        -9.8441
  64   2.0000      -0.333108        -9.0643
  65   2.0000      -0.316646        -8.6164
  66   2.0000      -0.290189        -7.8964
  67   0.0000       0.019428         0.5287
  68   0.0000       0.073829         2.0090
  69   0.0000       0.099270         2.7013
  70   0.0000       0.123081         3.3492
  71   0.0000       0.132220         3.5979

MULLIKEN ATOMIC CHARGES
-----------------------
   0 S :    0.071689
   1 C :   -0.084197
   2 C :   -0.086067
   3 C :   -0.021487
   4 C :   -0.073627
   5 H :    0.007191
   6 C :    0.102484
   7 H :    0.000299
   8 H :    0.046014
   9 C :   -0.119942
  10 H :    0.045182
  11 H :    0.033827
  12 C :   -0.030551
  13 H :    0.024840
  14 H :    0.032698
  15 H :    0.021733
  16 S :    0.107547
  17 C :   -0.063378
  18 C :   -0.024355
  19 C :   -0.042010
  20 C :   -0.128778
  21 H :    0.001898
  22 C :    0.075237
  23 H :    0.025586
  24 H :    0.007730
  25 C :   -0.116458
  26 H :    0.036695
  27 H :    0.037957
  28 C :   -0.061389
  29 H :    0.032022
  30 H :    0.038215
  31 H :    0.035795
  32 H :    0.022652
  33 H :    0.044947
Sum of atomic charges:    0.0000000

LOEWDIN ATOMIC CHARGES
----------------------
   0 S :    0.371770
   1 C :   -0.161494
   2 C :   -0.055950
   3 C :   -0.070260
   4 C :   -0.185238
   5 H :    0.023098
   6 C :   -0.035445
   7 H :    0.028390
   8 H :    0.041339
   9 C :   -0.047886
  10 H :    0.034259
  11 H :    0.021906
  12 C :   -0.064144
  13 H :    0.018760
  14 H :    0.030680
  15 H :    0.022391
  16 S :    0.436724
  17 C :   -0.185189
  18 C :   -0.063688
  19 C :   -0.055108
  20 C :   -0.203750
  21 H :    0.023728
  22 C :   -0.032185
  23 H :    0.029483
  24 H :    0.020844
  25 C :   -0.045442
  26 H :    0.024141
  27 H :    0.027407
  28 C :   -0.066491
  29 H :    0.016843
  30 H :    0.027127
  31 H :    0.033590
  32 H :    0.012780
  33 H :    0.027008

  Mayer bond orders larger than 0.100000
B(  0-S ,  1-C ) :   1.1249 B(  0-S ,  4-C ) :   1.1196 B(  1-C ,  2-C ) :   1.6002
B(  1-C , 32-H ) :   0.9818 B(  2-C ,  3-C ) :   1.2287 B(  2-C ,  6-C ) :   1.0446
B(  3-C ,  4-C ) :   1.5779 B(  3-C ,  5-H ) :   0.9847 B(  4-C , 20-C ) :   1.0647
B(  6-C ,  7-H ) :   0.9282 B(  6-C ,  8-H ) :   0.9218 B(  6-C ,  9-C ) :   1.0713
B(  9-C , 10-H ) :   0.9570 B(  9-C , 11-H ) :   0.9455 B(  9-C , 12-C ) :   1.1011
B( 12-C , 13-H ) :   0.9721 B( 12-C , 14-H ) :   0.9692 B( 12-C , 15-H ) :   0.9720
B( 16-S , 17-C ) :   1.1663 B( 16-S , 20-C ) :   1.1542 B( 17-C , 18-C ) :   1.5792
B( 17-C , 33-H ) :   0.9739 B( 18-C , 19-C ) :   1.2776 B( 18-C , 21-H ) :   0.9985
B( 19-C , 20-C ) :   1.5680 B( 19-C , 22-C ) :   1.0238 B( 22-C , 23-H ) :   0.9392
B( 22-C , 24-H ) :   0.9397 B( 22-C , 25-C ) :   1.0653 B( 25-C , 26-H ) :   0.9527
B( 25-C , 27-H ) :   0.9534 B( 25-C , 28-C ) :   1.0758 B( 28-C , 29-H ) :   0.9778
B( 28-C , 30-H ) :   0.9750 B( 28-C , 31-H ) :   0.9725

Dispersion correction           -0.013509733
FINAL SINGLE POINT ENERGY     -1339.854352066606

DIPOLE MOMENT
-------------
                                X             Y             Z
Electronic contribution:     17.90308      16.70191     -24.21450
Nuclear contribution   :    -18.36330     -17.36141      24.66813
                        -----------------------------------------
Total Dipole Moment    :     -0.46021      -0.65950       0.45364
                        -----------------------------------------
Magnitude (a.u.)       :      0.92332
Magnitude (Debye)      :      2.34689

Rotational constants in cm-1:     0.015979     0.009734     0.006231
Rotational constants in MHz :   479.025819   291.825879   186.788629

                             ****ORCA TERMINATED NORMALLY****
TOTAL RUN TIME: 0 days 0 hours 0 minutes 33 seconds 854 msec
