                         Program Version 4.2.1 -  RELEASE  -
|  1> ! wB97X-D3 SP def2-SVP
|  2> %pal
|  3> nprocs 16
|  4> end
|  5>
|  6> * xyz 0 1
|  7> S 	 8.66002 	 21.3622 	 42.5579
|  8> C 	 7.41521 	 22.5413 	 42.3879
|  9> C 	 7.87706 	 23.682 	 41.7875
| 10> C 	 9.3038 	 23.7068 	 41.7492
| 11> C 	 9.91082 	 22.4635 	 42.0225
| 12> H 	 9.87672 	 24.5862 	 41.5422
| 13> C 	 7.01129 	 24.8575 	 41.4172
| 14> H 	 6.6388 	 25.2929 	 42.3573
| 15> H 	 6.20427 	 24.4369 	 40.7767
| 16> C 	 7.72699 	 25.9651 	 40.6106
| 17> H 	 8.5796 	 26.3063 	 41.1585
| 18> H 	 8.06205 	 25.5507 	 39.6443
| 19> C 	 6.74813 	 27.1244 	 40.1861
| 20> H 	 6.3104 	 27.567 	 41.0204
| 21> H 	 7.17957 	 27.8516 	 39.4846
| 22> H 	 5.94561 	 26.8417 	 39.5612
| 23> S 	 11.8714 	 21.6641 	 43.7593
| 24> C 	 13.522 	 21.6094 	 43.2609
| 25> C 	 13.6366 	 22.2799 	 42.0704
| 26> C 	 12.4219 	 22.6104 	 41.4482
| 27> C 	 11.3513 	 22.2955 	 42.2532
| 28> H 	 14.6245 	 22.376 	 41.6345
| 29> C 	 12.3842 	 23.256 	 40.1359
| 30> H 	 11.3222 	 23.4439 	 39.8495
| 31> H 	 12.7832 	 22.6044 	 39.3613
| 32> C 	 13.114 	 24.6303 	 40.068
| 33> H 	 14.0756 	 24.5946 	 40.6274
| 34> H 	 12.5115 	 25.4369 	 40.4706
| 35> C 	 13.4757 	 25.1283 	 38.6482
| 36> H 	 13.8605 	 26.2087 	 38.654
| 37> H 	 12.5516 	 25.233 	 38.0198
| 38> H 	 14.1144 	 24.4558 	 38.2346
| 39> H 	 6.39241 	 22.3505 	 42.7296
| 40> H 	 14.3315 	 21.1967 	 43.8146
| 41> *
| 42>
| 43>                          ****END OF INPUT****

CARTESIAN COORDINATES (ANGSTROEM)
---------------------------------
  S      8.660020   21.362200   42.557900
  C      7.415210   22.541300   42.387900
  C      7.877060   23.682000   41.787500
  C      9.303800   23.706800   41.749200
  C      9.910820   22.463500   42.022500
  H      9.876720   24.586200   41.542200
  C      7.011290   24.857500   41.417200
  H      6.638800   25.292900   42.357300
  H      6.204270   24.436900   40.776700
  C      7.726990   25.965100   40.610600
  H      8.579600   26.306300   41.158500
  H      8.062050   25.550700   39.644300
  C      6.748130   27.124400   40.186100
  H      6.310400   27.567000   41.020400
  H      7.179570   27.851600   39.484600
  H      5.945610   26.841700   39.561200
  S     11.871400   21.664100   43.759300
  C     13.522000   21.609400   43.260900
  C     13.636600   22.279900   42.070400
  C     12.421900   22.610400   41.448200
  C     11.351300   22.295500   42.253200
  H     14.624500   22.376000   41.634500
  C     12.384200   23.256000   40.135900
  H     11.322200   23.443900   39.849500
  H     12.783200   22.604400   39.361300
  C     13.114000   24.630300   40.068000
  H     14.075600   24.594600   40.627400
  H     12.511500   25.436900   40.470600
  C     13.475700   25.128300   38.648200
  H     13.860500   26.208700   38.654000
  H     12.551600   25.233000   38.019800
  H     14.114400   24.455800   38.234600
  H      6.392410   22.350500   42.729600
  H     14.331500   21.196700   43.814600

 Total Charge           Charge          ....    0
 Multiplicity           Mult            ....    1
 Number of Electrons    NEL             ....  134
 Basis Dimension        Dim             ....  322

ORBITAL ENERGIES
----------------

  NO   OCC          E(Eh)            E(eV)
   0   2.0000     -88.966446     -2420.9001
   1   2.0000     -88.961263     -2420.7590
   2   2.0000     -10.329150      -281.0705
   3   2.0000     -10.321665      -280.8668
   4   2.0000     -10.312624      -280.6208
   5   2.0000     -10.309852      -280.5453
   6   2.0000     -10.298504      -280.2365
   7   2.0000     -10.296664      -280.1865
   8   2.0000     -10.294465      -280.1266
   9   2.0000     -10.293327      -280.0957
  10   2.0000     -10.293028      -280.0875
  11   2.0000     -10.289079      -279.9801
  12   2.0000     -10.288272      -279.9581
  13   2.0000     -10.286497      -279.9098
  14   2.0000     -10.279175      -279.7106
  15   2.0000     -10.274828      -279.5923
  16   2.0000      -8.081466      -219.9079
  17   2.0000      -8.077211      -219.7921
  18   2.0000      -6.039976      -164.3561
  19   2.0000      -6.035743      -164.2409
  20   2.0000      -6.035580      -164.2365
  21   2.0000      -6.032396      -164.1498
  22   2.0000      -6.031514      -164.1258
  23   2.0000      -6.028071      -164.0321
  24   2.0000      -1.012946       -27.5637
  25   2.0000      -0.991229       -26.9727
  26   2.0000      -0.911165       -24.7941
  27   2.0000      -0.909030       -24.7360
  28   2.0000      -0.870762       -23.6946
  29   2.0000      -0.853679       -23.2298
  30   2.0000      -0.846243       -23.0275
  31   2.0000      -0.815114       -22.1804
  32   2.0000      -0.782288       -21.2871
  33   2.0000      -0.773210       -21.0401
  34   2.0000      -0.715705       -19.4753
  35   2.0000      -0.696938       -18.9646
  36   2.0000      -0.692603       -18.8467
  37   2.0000      -0.659759       -17.9530
  38   2.0000      -0.639185       -17.3931
  39   2.0000      -0.621409       -16.9094
  40   2.0000      -0.600207       -16.3325
  41   2.0000      -0.577951       -15.7268
  42   2.0000      -0.567613       -15.4455
  43   2.0000      -0.564851       -15.3704
  44   2.0000      -0.527546       -14.3553
  45   2.0000      -0.522253       -14.2112
  46   2.0000      -0.517832       -14.0909
  47   2.0000      -0.511792       -13.9266
  48   2.0000      -0.508830       -13.8460
  49   2.0000      -0.499118       -13.5817
  50   2.0000      -0.497877       -13.5479
  51   2.0000      -0.478882       -13.0310
  52   2.0000      -0.474944       -12.9239
  53   2.0000      -0.467725       -12.7274
  54   2.0000      -0.458336       -12.4719
  55   2.0000      -0.451034       -12.2733
  56   2.0000      -0.449347       -12.2273
  57   2.0000      -0.433606       -11.7990
  58   2.0000      -0.430606       -11.7174
  59   2.0000      -0.425983       -11.5916
  60   2.0000      -0.422217       -11.4891
  61   2.0000      -0.416965       -11.3462
  62   2.0000      -0.414048       -11.2668
  63   2.0000      -0.345436        -9.3998
  64   2.0000      -0.329749        -8.9729
  65   2.0000      -0.326789        -8.8924
  66   2.0000      -0.291725        -7.9382
  67   0.0000       0.028225         0.7680
  68   0.0000       0.079903         2.1743
  69   0.0000       0.119848         3.2612
  70   0.0000       0.123854         3.3702
  71   0.0000       0.129537         3.5249

MULLIKEN ATOMIC CHARGES
-----------------------
   0 S :    0.118377
   1 C :   -0.145676
   2 C :   -0.077011
   3 C :    0.013151
   4 C :   -0.144530
   5 H :    0.011145
   6 C :    0.053214
   7 H :    0.046590
   8 H :    0.042981
   9 C :   -0.108395
  10 H :    0.039093
  11 H :    0.033804
  12 C :   -0.005520
  13 H :    0.018391
  14 H :    0.029958
  15 H :    0.011418
  16 S :    0.113986
  17 C :   -0.090486
  18 C :   -0.040639
  19 C :   -0.014483
  20 C :   -0.151671
  21 H :    0.016102
  22 C :    0.072724
  23 H :    0.025675
  24 H :    0.028256
  25 C :   -0.102277
  26 H :    0.034807
  27 H :    0.027479
  28 C :   -0.055502
  29 H :    0.046374
  30 H :    0.029881
  31 H :    0.019435
  32 H :    0.055906
  33 H :    0.047443
Sum of atomic charges:   -0.0000000

LOEWDIN ATOMIC CHARGES
----------------------
   0 S :    0.421831
   1 C :   -0.202405
   2 C :   -0.072030
   3 C :   -0.054455
   4 C :   -0.203773
   5 H :    0.025459
   6 C :   -0.034402
   7 H :    0.036290
   8 H :    0.039229
   9 C :   -0.037008
  10 H :    0.018541
  11 H :    0.027697
  12 C :   -0.062043
  13 H :    0.015060
  14 H :    0.031580
  15 H :    0.021562
  16 S :    0.429236
  17 C :   -0.189244
  18 C :   -0.070309
  19 C :   -0.066400
  20 C :   -0.205609
  21 H :    0.029553
  22 C :   -0.035042
  23 H :    0.034364
  24 H :    0.031664
  25 C :   -0.038817
  26 H :    0.024254
  27 H :    0.020945
  28 C :   -0.064510
  29 H :    0.037304
  30 H :    0.027075
  31 H :    0.006107
  32 H :    0.032267
  33 H :    0.026026

  Mayer bond orders larger than 0.100000
B(  0-S ,  1-C ) :   1.1601 B(  0-S ,  4-C ) :   1.1604 B(  1-C ,  2-C ) :   1.5824
B(  1-C , 32-H ) :   0.9729 B(  2-C ,  3-C ) :   1.2798 B(  2-C ,  6-C ) :   1.0073
B(  3-C ,  4-C ) :   1.5250 B(  3-C ,  5-H ) :   0.9854 B(  4-C , 20-C ) :   1.0360
B(  6-C ,  7-H ) :   0.9358 B(  6-C ,  8-H ) :   0.9415 B(  6-C ,  9-C ) :   1.0904
B(  9-C , 10-H ) :   0.9479 B(  9-C , 11-H ) :   0.9584 B(  9-C , 12-C ) :   1.0804
B( 12-C , 13-H ) :   0.9764 B( 12-C , 14-H ) :   0.9730 B( 12-C , 15-H ) :   0.9715
B( 16-S , 17-C ) :   1.1615 B( 16-S , 20-C ) :   1.1606 B( 17-C , 18-C ) :   1.5910
B( 17-C , 33-H ) :   0.9742 B( 18-C , 19-C ) :   1.2530 B( 18-C , 21-H ) :   0.9891
B( 19-C , 20-C ) :   1.5780 B( 19-C , 22-C ) :   1.0670 B( 22-C , 23-H ) :   0.9217
B( 22-C , 24-H ) :   0.9313 B( 22-C , 25-C ) :   1.0487 B( 25-C , 26-H ) :   0.9611
B( 25-C , 27-H ) :   0.9568 B( 25-C , 28-C ) :   1.0801 B( 28-C , 29-H ) :   0.9736
B( 28-C , 30-H ) :   0.9739 B( 28-C , 31-H ) :   0.9792

Dispersion correction           -0.013713425
FINAL SINGLE POINT ENERGY     -1339.877821039756

DIPOLE MOMENT
-------------
                                X             Y             Z
Electronic contribution:      1.18930     -25.87131      20.25818
Nuclear contribution   :     -1.25264      26.44425     -20.57768
                        -----------------------------------------
Total Dipole Moment    :     -0.06334       0.57294      -0.31950
                        -----------------------------------------
Magnitude (a.u.)       :      0.65906
Magnitude (Debye)      :      1.67519

Rotational constants in cm-1:     0.015810     0.009640     0.006407
Rotational constants in MHz :   473.982651   289.003677   192.069088

                             ****ORCA TERMINATED NORMALLY****
TOTAL RUN TIME: 0 days 0 hours 0 minutes 35 seconds 56 msec
