                         Program Version 4.2.1 -  RELEASE  -
|  1> ! wB97X-D3 SP def2-SVP
|  2> %pal
|  3> nprocs 16
|  4> end
|  5>
|  6> * xyz 0 1
|  7> S 	 -94.6448 	 51.4944 	 123.46
|  8> C 	 -96.3811 	 51.4185 	 122.995
|  9> C 	 -97.1004 	 50.6194 	 123.857
| 10> C 	 -96.4004 	 50.4955 	 125.108
| 11> C 	 -95.1101 	 51.028 	 125.062
| 12> H 	 -96.8538 	 50.1289 	 125.941
| 13> C 	 -98.5499 	 50.182 	 123.729
| 14> H 	 -98.7491 	 49.1912 	 124.076
| 15> H 	 -98.8294 	 50.2871 	 122.62
| 16> C 	 -99.5869 	 51.045 	 124.601
| 17> H 	 -100.561 	 50.6314 	 124.472
| 18> H 	 -99.3855 	 51.0054 	 125.7
| 19> C 	 -99.53 	 52.5362 	 124.2
| 20> H 	 -98.696 	 53.0104 	 124.722
| 21> H 	 -99.417 	 52.7118 	 123.127
| 22> H 	 -100.525 	 52.9942 	 124.495
| 23> S 	 -92.531 	 50.8573 	 126.042
| 24> C 	 -92.0947 	 51.0635 	 127.702
| 25> C 	 -93.2549 	 51.5084 	 128.339
| 26> C 	 -94.4641 	 51.5703 	 127.54
| 27> C 	 -94.2366 	 51.1604 	 126.202
| 28> H 	 -93.2807 	 51.8873 	 129.388
| 29> C 	 -95.6967 	 52.0608 	 128.163
| 30> H 	 -96.4037 	 52.3968 	 127.445
| 31> H 	 -95.4035 	 52.9591 	 128.719
| 32> C 	 -96.5843 	 51.1597 	 129.074
| 33> H 	 -96.0015 	 50.7174 	 129.867
| 34> H 	 -96.9082 	 50.4182 	 128.374
| 35> C 	 -97.7529 	 51.8429 	 129.725
| 36> H 	 -98.3083 	 51.1853 	 130.431
| 37> H 	 -98.3403 	 52.2564 	 128.924
| 38> H 	 -97.4035 	 52.6468 	 130.304
| 39> H 	 -96.7156 	 51.776 	 122.084
| 40> H 	 -91.1562 	 51.1551 	 128.108
| 41> *
| 42>
| 43>                          ****END OF INPUT****

CARTESIAN COORDINATES (ANGSTROEM)
---------------------------------
  S    -94.644800   51.494400  123.460000
  C    -96.381100   51.418500  122.995000
  C    -97.100400   50.619400  123.857000
  C    -96.400400   50.495500  125.108000
  C    -95.110100   51.028000  125.062000
  H    -96.853800   50.128900  125.941000
  C    -98.549900   50.182000  123.729000
  H    -98.749100   49.191200  124.076000
  H    -98.829400   50.287100  122.620000
  C    -99.586900   51.045000  124.601000
  H    -100.561000   50.631400  124.472000
  H    -99.385500   51.005400  125.700000
  C    -99.530000   52.536200  124.200000
  H    -98.696000   53.010400  124.722000
  H    -99.417000   52.711800  123.127000
  H    -100.525000   52.994200  124.495000
  S    -92.531000   50.857300  126.042000
  C    -92.094700   51.063500  127.702000
  C    -93.254900   51.508400  128.339000
  C    -94.464100   51.570300  127.540000
  C    -94.236600   51.160400  126.202000
  H    -93.280700   51.887300  129.388000
  C    -95.696700   52.060800  128.163000
  H    -96.403700   52.396800  127.445000
  H    -95.403500   52.959100  128.719000
  C    -96.584300   51.159700  129.074000
  H    -96.001500   50.717400  129.867000
  H    -96.908200   50.418200  128.374000
  C    -97.752900   51.842900  129.725000
  H    -98.308300   51.185300  130.431000
  H    -98.340300   52.256400  128.924000
  H    -97.403500   52.646800  130.304000
  H    -96.715600   51.776000  122.084000
  H    -91.156200   51.155100  128.108000

 Total Charge           Charge          ....    0
 Multiplicity           Mult            ....    1
 Number of Electrons    NEL             ....  134
 Basis Dimension        Dim             ....  322

ORBITAL ENERGIES
----------------

  NO   OCC          E(Eh)            E(eV)
   0   2.0000     -88.968855     -2420.9656
   1   2.0000     -88.962870     -2420.8028
   2   2.0000     -10.333627      -281.1923
   3   2.0000     -10.330783      -281.1149
   4   2.0000     -10.316104      -280.7154
   5   2.0000     -10.314576      -280.6739
   6   2.0000     -10.307037      -280.4687
   7   2.0000     -10.305007      -280.4135
   8   2.0000     -10.304227      -280.3923
   9   2.0000     -10.297949      -280.2214
  10   2.0000     -10.295733      -280.1611
  11   2.0000     -10.292664      -280.0776
  12   2.0000     -10.285210      -279.8748
  13   2.0000     -10.282376      -279.7977
  14   2.0000     -10.281916      -279.7851
  15   2.0000     -10.275883      -279.6210
  16   2.0000      -8.083487      -219.9629
  17   2.0000      -8.078164      -219.8180
  18   2.0000      -6.042096      -164.4138
  19   2.0000      -6.038396      -164.3131
  20   2.0000      -6.036802      -164.2697
  21   2.0000      -6.033755      -164.1868
  22   2.0000      -6.032365      -164.1490
  23   2.0000      -6.028975      -164.0567
  24   2.0000      -1.008545       -27.4439
  25   2.0000      -0.984884       -26.8000
  26   2.0000      -0.915750       -24.9188
  27   2.0000      -0.908244       -24.7146
  28   2.0000      -0.870282       -23.6816
  29   2.0000      -0.857501       -23.3338
  30   2.0000      -0.846090       -23.0233
  31   2.0000      -0.813859       -22.1462
  32   2.0000      -0.782289       -21.2872
  33   2.0000      -0.775683       -21.1074
  34   2.0000      -0.713092       -19.4042
  35   2.0000      -0.700162       -19.0524
  36   2.0000      -0.698905       -19.0182
  37   2.0000      -0.662906       -18.0386
  38   2.0000      -0.645578       -17.5671
  39   2.0000      -0.626732       -17.0542
  40   2.0000      -0.604263       -16.4428
  41   2.0000      -0.571394       -15.5484
  42   2.0000      -0.567848       -15.4519
  43   2.0000      -0.549660       -14.9570
  44   2.0000      -0.541014       -14.7217
  45   2.0000      -0.530011       -14.4223
  46   2.0000      -0.523686       -14.2502
  47   2.0000      -0.514697       -14.0056
  48   2.0000      -0.512320       -13.9409
  49   2.0000      -0.503836       -13.7101
  50   2.0000      -0.497685       -13.5427
  51   2.0000      -0.480701       -13.0805
  52   2.0000      -0.468973       -12.7614
  53   2.0000      -0.462450       -12.5839
  54   2.0000      -0.461154       -12.5486
  55   2.0000      -0.455208       -12.3868
  56   2.0000      -0.450197       -12.2505
  57   2.0000      -0.439608       -11.9623
  58   2.0000      -0.427708       -11.6385
  59   2.0000      -0.425118       -11.5680
  60   2.0000      -0.421880       -11.4799
  61   2.0000      -0.420328       -11.4377
  62   2.0000      -0.410474       -11.1696
  63   2.0000      -0.353462        -9.6182
  64   2.0000      -0.332104        -9.0370
  65   2.0000      -0.322339        -8.7713
  66   2.0000      -0.286375        -7.7927
  67   0.0000       0.019424         0.5286
  68   0.0000       0.066403         1.8069
  69   0.0000       0.098612         2.6834
  70   0.0000       0.111262         3.0276
  71   0.0000       0.117100         3.1865

MULLIKEN ATOMIC CHARGES
-----------------------
   0 S :    0.110756
   1 C :   -0.109517
   2 C :   -0.032974
   3 C :    0.039308
   4 C :   -0.109234
   5 H :   -0.042969
   6 C :    0.036908
   7 H :    0.033698
   8 H :    0.042242
   9 C :   -0.093237
  10 H :    0.030510
  11 H :    0.037198
  12 C :   -0.076808
  13 H :    0.051859
  14 H :    0.029203
  15 H :    0.041779
  16 S :    0.085951
  17 C :   -0.042615
  18 C :   -0.060366
  19 C :   -0.036093
  20 C :   -0.124271
  21 H :    0.030560
  22 C :    0.025842
  23 H :    0.002327
  24 H :    0.020681
  25 C :   -0.046644
  26 H :    0.018688
  27 H :    0.017332
  28 C :   -0.017583
  29 H :    0.046865
  30 H :    0.021646
  31 H :    0.014470
  32 H :    0.016909
  33 H :    0.037580
Sum of atomic charges:    0.0000000

LOEWDIN ATOMIC CHARGES
----------------------
   0 S :    0.389093
   1 C :   -0.160790
   2 C :   -0.053634
   3 C :   -0.043689
   4 C :   -0.187272
   5 H :    0.010392
   6 C :   -0.030525
   7 H :    0.028980
   8 H :    0.038500
   9 C :   -0.038598
  10 H :    0.018033
  11 H :    0.026528
  12 C :   -0.072617
  13 H :    0.028718
  14 H :    0.020767
  15 H :    0.032953
  16 S :    0.416820
  17 C :   -0.187679
  18 C :   -0.069820
  19 C :   -0.063707
  20 C :   -0.197727
  21 H :    0.033724
  22 C :   -0.039612
  23 H :    0.022831
  24 H :    0.032012
  25 C :   -0.033102
  26 H :    0.018510
  27 H :    0.016484
  28 C :   -0.058899
  29 H :    0.035459
  30 H :    0.022610
  31 H :    0.018318
  32 H :    0.008128
  33 H :    0.018813

  Mayer bond orders larger than 0.100000
B(  0-S ,  1-C ) :   1.1194 B(  0-S ,  4-C ) :   1.1359 B(  1-C ,  2-C ) :   1.6152
B(  1-C , 32-H ) :   0.9811 B(  2-C ,  3-C ) :   1.1904 B(  2-C ,  6-C ) :   1.0421
B(  3-C ,  4-C ) :   1.5593 B(  3-C ,  5-H ) :   1.0204 B(  4-C , 20-C ) :   1.0790
B(  6-C ,  7-H ) :   0.9399 B(  6-C ,  8-H ) :   0.9476 B(  6-C ,  9-C ) :   1.0594
B(  9-C , 10-H ) :   0.9629 B(  9-C , 11-H ) :   0.9580 B(  9-C , 12-C ) :   1.0615
B( 12-C , 13-H ) :   0.9759 B( 12-C , 14-H ) :   0.9796 B( 12-C , 15-H ) :   0.9752
B( 16-S , 17-C ) :   1.1589 B( 16-S , 20-C ) :   1.1448 B( 17-C , 18-C ) :   1.5624
B( 17-C , 20-C ) :   0.1025 B( 17-C , 33-H ) :   0.9817 B( 18-C , 19-C ) :   1.2831
B( 18-C , 21-H ) :   0.9776 B( 19-C , 20-C ) :   1.5273 B( 19-C , 22-C ) :   1.0747
B( 22-C , 23-H ) :   0.9263 B( 22-C , 24-H ) :   0.9268 B( 22-C , 25-C ) :   1.0581
B( 25-C , 26-H ) :   0.9517 B( 25-C , 27-H ) :   0.9543 B( 25-C , 28-C ) :   1.0905
B( 28-C , 29-H ) :   0.9715 B( 28-C , 30-H ) :   0.9721 B( 28-C , 31-H ) :   0.9716

Dispersion correction           -0.014863460
FINAL SINGLE POINT ENERGY     -1339.858856094267

DIPOLE MOMENT
-------------
                                X             Y             Z
Electronic contribution:     29.30521      -4.25726     -12.64222
Nuclear contribution   :    -30.02681       4.39923      12.99841
                        -----------------------------------------
Total Dipole Moment    :     -0.72160       0.14197       0.35619
                        -----------------------------------------
Magnitude (a.u.)       :      0.81715
Magnitude (Debye)      :      2.07702

Rotational constants in cm-1:     0.016795     0.010415     0.006867
Rotational constants in MHz :   503.506111   312.228714   205.855537

                             ****ORCA TERMINATED NORMALLY****
TOTAL RUN TIME: 0 days 0 hours 0 minutes 35 seconds 23 msec
