                         Program Version 4.2.1 -  RELEASE  -
|  1> ! wB97X-D3 SP def2-SVP
|  2> %pal
|  3> nprocs 16
|  4> end
|  5>
|  6> * xyz 0 1
|  7> S 	 5.2982 	 12.0712 	 87.5265
|  8> C 	 3.8589 	 12.1411 	 86.4698
|  9> C 	 4.29612 	 12.611 	 85.2622
| 10> C 	 5.70315 	 12.6682 	 85.1012
| 11> C 	 6.41649 	 12.1663 	 86.164
| 12> H 	 6.31507 	 12.9808 	 84.2683
| 13> C 	 3.38553 	 13.1386 	 84.1998
| 14> H 	 3.87495 	 14.0635 	 83.8276
| 15> H 	 2.38384 	 13.5622 	 84.6319
| 16> C 	 3.04173 	 12.2421 	 83.0531
| 17> H 	 4.0005 	 11.7937 	 82.6809
| 18> H 	 2.43812 	 11.3657 	 83.3086
| 19> C 	 2.38904 	 12.9167 	 81.8683
| 20> H 	 1.45119 	 13.4775 	 82.0885
| 21> H 	 3.01271 	 13.8318 	 81.5631
| 22> H 	 2.28918 	 12.2971 	 80.9886
| 23> S 	 8.58751 	 13.1739 	 87.4557
| 24> C 	 10.1482 	 12.3537 	 87.3416
| 25> C 	 10.0821 	 11.4279 	 86.3195
| 26> C 	 8.7957 	 11.3061 	 85.6649
| 27> C 	 7.83005 	 12.0525 	 86.3664
| 28> H 	 11.0236 	 10.9857 	 85.9004
| 29> C 	 8.52883 	 10.3295 	 84.5662
| 30> H 	 7.70011 	 9.7028 	 84.7875
| 31> H 	 9.38431 	 9.63848 	 84.6001
| 32> C 	 8.5196 	 10.8947 	 83.1436
| 33> H 	 9.3286 	 11.5705 	 82.8684
| 34> H 	 7.60207 	 11.4401 	 83.0435
| 35> C 	 8.47825 	 9.87213 	 82.0494
| 36> H 	 8.88121 	 10.3917 	 81.1908
| 37> H 	 7.44833 	 9.54603 	 81.8968
| 38> H 	 9.04873 	 8.97805 	 82.3123
| 39> H 	 2.83766 	 11.7956 	 86.6841
| 40> H 	 11.1445 	 12.7298 	 87.5972
| 41> *
| 42>
| 43>                          ****END OF INPUT****

CARTESIAN COORDINATES (ANGSTROEM)
---------------------------------
  S      5.298200   12.071200   87.526500
  C      3.858900   12.141100   86.469800
  C      4.296120   12.611000   85.262200
  C      5.703150   12.668200   85.101200
  C      6.416490   12.166300   86.164000
  H      6.315070   12.980800   84.268300
  C      3.385530   13.138600   84.199800
  H      3.874950   14.063500   83.827600
  H      2.383840   13.562200   84.631900
  C      3.041730   12.242100   83.053100
  H      4.000500   11.793700   82.680900
  H      2.438120   11.365700   83.308600
  C      2.389040   12.916700   81.868300
  H      1.451190   13.477500   82.088500
  H      3.012710   13.831800   81.563100
  H      2.289180   12.297100   80.988600
  S      8.587510   13.173900   87.455700
  C     10.148200   12.353700   87.341600
  C     10.082100   11.427900   86.319500
  C      8.795700   11.306100   85.664900
  C      7.830050   12.052500   86.366400
  H     11.023600   10.985700   85.900400
  C      8.528830   10.329500   84.566200
  H      7.700110    9.702800   84.787500
  H      9.384310    9.638480   84.600100
  C      8.519600   10.894700   83.143600
  H      9.328600   11.570500   82.868400
  H      7.602070   11.440100   83.043500
  C      8.478250    9.872130   82.049400
  H      8.881210   10.391700   81.190800
  H      7.448330    9.546030   81.896800
  H      9.048730    8.978050   82.312300
  H      2.837660   11.795600   86.684100
  H     11.144500   12.729800   87.597200

 Total Charge           Charge          ....    0
 Multiplicity           Mult            ....    1
 Number of Electrons    NEL             ....  134
 Basis Dimension        Dim             ....  322

ORBITAL ENERGIES
----------------

  NO   OCC          E(Eh)            E(eV)
   0   2.0000     -88.967540     -2420.9298
   1   2.0000     -88.961612     -2420.7685
   2   2.0000     -10.330357      -281.1033
   3   2.0000     -10.328446      -281.0513
   4   2.0000     -10.319565      -280.8096
   5   2.0000     -10.317958      -280.7659
   6   2.0000     -10.306937      -280.4660
   7   2.0000     -10.301666      -280.3226
   8   2.0000     -10.299395      -280.2608
   9   2.0000     -10.298542      -280.2376
  10   2.0000     -10.295705      -280.1604
  11   2.0000     -10.288872      -279.9744
  12   2.0000     -10.288425      -279.9623
  13   2.0000     -10.284771      -279.8628
  14   2.0000     -10.280432      -279.7448
  15   2.0000     -10.274189      -279.5749
  16   2.0000      -8.082014      -219.9228
  17   2.0000      -8.075940      -219.7575
  18   2.0000      -6.040641      -164.3742
  19   2.0000      -6.036610      -164.2645
  20   2.0000      -6.034630      -164.2106
  21   2.0000      -6.032583      -164.1549
  22   2.0000      -6.030621      -164.1015
  23   2.0000      -6.026371      -163.9859
  24   2.0000      -1.009839       -27.4791
  25   2.0000      -0.985323       -26.8120
  26   2.0000      -0.916959       -24.9517
  27   2.0000      -0.915460       -24.9109
  28   2.0000      -0.875567       -23.8254
  29   2.0000      -0.856386       -23.3034
  30   2.0000      -0.844826       -22.9889
  31   2.0000      -0.819328       -22.2951
  32   2.0000      -0.781783       -21.2734
  33   2.0000      -0.770532       -20.9672
  34   2.0000      -0.709837       -19.3157
  35   2.0000      -0.698949       -19.0194
  36   2.0000      -0.693909       -18.8822
  37   2.0000      -0.657832       -17.9005
  38   2.0000      -0.646028       -17.5793
  39   2.0000      -0.617864       -16.8129
  40   2.0000      -0.597440       -16.2572
  41   2.0000      -0.570765       -15.5313
  42   2.0000      -0.569030       -15.4841
  43   2.0000      -0.556041       -15.1307
  44   2.0000      -0.540326       -14.7030
  45   2.0000      -0.532094       -14.4790
  46   2.0000      -0.517762       -14.0890
  47   2.0000      -0.517695       -14.0872
  48   2.0000      -0.510742       -13.8980
  49   2.0000      -0.506458       -13.7814
  50   2.0000      -0.494699       -13.4615
  51   2.0000      -0.481790       -13.1102
  52   2.0000      -0.468941       -12.7605
  53   2.0000      -0.461452       -12.5567
  54   2.0000      -0.453123       -12.3301
  55   2.0000      -0.445886       -12.1332
  56   2.0000      -0.442680       -12.0459
  57   2.0000      -0.439812       -11.9679
  58   2.0000      -0.438352       -11.9282
  59   2.0000      -0.423036       -11.5114
  60   2.0000      -0.415653       -11.3105
  61   2.0000      -0.412227       -11.2173
  62   2.0000      -0.404714       -11.0128
  63   2.0000      -0.346270        -9.4225
  64   2.0000      -0.329851        -8.9757
  65   2.0000      -0.325437        -8.8556
  66   2.0000      -0.295637        -8.0447
  67   0.0000       0.024897         0.6775
  68   0.0000       0.052064         1.4167
  69   0.0000       0.102931         2.8009
  70   0.0000       0.113330         3.0839
  71   0.0000       0.125706         3.4206

MULLIKEN ATOMIC CHARGES
-----------------------
   0 S :    0.090320
   1 C :   -0.119368
   2 C :   -0.051751
   3 C :    0.046585
   4 C :   -0.170474
   5 H :    0.018058
   6 C :    0.010908
   7 H :    0.029736
   8 H :    0.033756
   9 C :   -0.050461
  10 H :    0.021954
  11 H :    0.029967
  12 C :   -0.066445
  13 H :    0.030041
  14 H :    0.020767
  15 H :    0.044048
  16 S :    0.112534
  17 C :   -0.078137
  18 C :   -0.072011
  19 C :   -0.025405
  20 C :   -0.165826
  21 H :    0.038058
  22 C :    0.076444
  23 H :    0.032347
  24 H :    0.006654
  25 C :   -0.079534
  26 H :    0.028078
  27 H :    0.012418
  28 C :   -0.024908
  29 H :    0.034619
  30 H :    0.029732
  31 H :    0.024913
  32 H :    0.064753
  33 H :    0.067632
Sum of atomic charges:   -0.0000000

LOEWDIN ATOMIC CHARGES
----------------------
   0 S :    0.380525
   1 C :   -0.180100
   2 C :   -0.070179
   3 C :   -0.060975
   4 C :   -0.185187
   5 H :    0.031938
   6 C :   -0.041386
   7 H :    0.036012
   8 H :    0.036370
   9 C :   -0.052100
  10 H :    0.027064
  11 H :    0.025001
  12 C :   -0.075243
  13 H :    0.026458
  14 H :    0.028885
  15 H :    0.026342
  16 S :    0.410973
  17 C :   -0.198923
  18 C :   -0.073049
  19 C :   -0.053279
  20 C :   -0.203600
  21 H :    0.037496
  22 C :   -0.032370
  23 H :    0.032581
  24 H :    0.030057
  25 C :   -0.042880
  26 H :    0.025157
  27 H :    0.018230
  28 C :   -0.060158
  29 H :    0.029013
  30 H :    0.025266
  31 H :    0.022379
  32 H :    0.040570
  33 H :    0.039110

  Mayer bond orders larger than 0.100000
B(  0-S ,  1-C ) :   1.1247 B(  0-S ,  4-C ) :   1.1379 B(  1-C ,  2-C ) :   1.6123
B(  1-C ,  4-C ) :   0.1068 B(  1-C , 32-H ) :   0.9724 B(  2-C ,  3-C ) :   1.2125
B(  2-C ,  6-C ) :   1.0204 B(  3-C ,  4-C ) :   1.5821 B(  3-C ,  5-H ) :   0.9935
B(  4-C , 20-C ) :   1.0510 B(  6-C ,  7-H ) :   0.9393 B(  6-C ,  8-H ) :   0.9424
B(  6-C ,  9-C ) :   1.0691 B(  9-C , 10-H ) :   0.9497 B(  9-C , 11-H ) :   0.9501
B(  9-C , 12-C ) :   1.0864 B( 12-C , 13-H ) :   0.9713 B( 12-C , 14-H ) :   0.9703
B( 12-C , 15-H ) :   0.9737 B( 16-S , 17-C ) :   1.1316 B( 16-S , 20-C ) :   1.1646
B( 17-C , 18-C ) :   1.6261 B( 17-C , 20-C ) :   0.1010 B( 17-C , 33-H ) :   0.9593
B( 18-C , 19-C ) :   1.2665 B( 18-C , 21-H ) :   0.9686 B( 19-C , 20-C ) :   1.5566
B( 19-C , 22-C ) :   1.0550 B( 22-C , 23-H ) :   0.9326 B( 22-C , 24-H ) :   0.9312
B( 22-C , 25-C ) :   1.0597 B( 25-C , 26-H ) :   0.9639 B( 25-C , 27-H ) :   0.9464
B( 25-C , 28-C ) :   1.0870 B( 28-C , 29-H ) :   0.9770 B( 28-C , 30-H ) :   0.9756
B( 28-C , 31-H ) :   0.9743

Dispersion correction           -0.013955426
FINAL SINGLE POINT ENERGY     -1339.856553004406

DIPOLE MOMENT
-------------
                                X             Y             Z
Electronic contribution:      8.28047       6.24203      30.50316
Nuclear contribution   :     -8.26603      -6.29273     -31.34091
                        -----------------------------------------
Total Dipole Moment    :      0.01444      -0.05071      -0.83776
                        -----------------------------------------
Magnitude (a.u.)       :      0.83941
Magnitude (Debye)      :      2.13362

Rotational constants in cm-1:     0.017427     0.009108     0.006534
Rotational constants in MHz :   522.435319   273.038809   195.875734

                             ****ORCA TERMINATED NORMALLY****
TOTAL RUN TIME: 0 days 0 hours 0 minutes 32 seconds 397 msec
