                         Program Version 4.2.1 -  RELEASE  -
|  1> ! wB97X-D3 SP def2-SVP
|  2> %pal
|  3> nprocs 16
|  4> end
|  5>
|  6> * xyz 0 1
|  7> S 	 9.63202 	 -10.0542 	 63.8619
|  8> C 	 8.93789 	 -9.42224 	 65.3697
|  9> C 	 9.52732 	 -9.94382 	 66.4888
| 10> C 	 10.6607 	 -10.7528 	 66.1469
| 11> C 	 10.8043 	 -10.9346 	 64.7679
| 12> H 	 11.3102 	 -11.2031 	 66.8459
| 13> C 	 9.0197 	 -9.76109 	 67.8962
| 14> H 	 8.38164 	 -10.6646 	 68.1226
| 15> H 	 8.29677 	 -8.90484 	 67.951
| 16> C 	 10.1532 	 -9.71701 	 68.944
| 17> H 	 10.6225 	 -10.6749 	 69.0953
| 18> H 	 10.9411 	 -9.23453 	 68.4724
| 19> C 	 9.77298 	 -8.98178 	 70.1735
| 20> H 	 10.5359 	 -8.94203 	 70.8941
| 21> H 	 9.66399 	 -7.94255 	 69.8799
| 22> H 	 8.86449 	 -9.38866 	 70.5609
| 23> S 	 13.0646 	 -10.7702 	 63.221
| 24> C 	 14.0537 	 -12.2103 	 63.169
| 25> C 	 13.4513 	 -13.346 	 63.5909
| 26> C 	 12.206 	 -13.0631 	 64.2035
| 27> C 	 11.8613 	 -11.7178 	 64.1323
| 28> H 	 13.841 	 -14.2939 	 63.4871
| 29> C 	 11.3467 	 -14.173 	 64.8673
| 30> H 	 10.2984 	 -13.9888 	 64.7408
| 31> H 	 11.5938 	 -14.0029 	 65.9575
| 32> C 	 11.6187 	 -15.6846 	 64.459
| 33> H 	 12.6756 	 -15.8324 	 64.723
| 34> H 	 11.5781 	 -15.7796 	 63.3978
| 35> C 	 10.6369 	 -16.672 	 65.2046
| 36> H 	 10.9012 	 -16.6745 	 66.2884
| 37> H 	 10.7488 	 -17.7156 	 64.7956
| 38> H 	 9.55566 	 -16.4598 	 65.147
| 39> H 	 8.01144 	 -8.84544 	 65.3533
| 40> H 	 15.0569 	 -12.0794 	 62.9626
| 41> *
| 42>
| 43>                          ****END OF INPUT****

CARTESIAN COORDINATES (ANGSTROEM)
---------------------------------
  S      9.632020  -10.054200   63.861900
  C      8.937890   -9.422240   65.369700
  C      9.527320   -9.943820   66.488800
  C     10.660700  -10.752800   66.146900
  C     10.804300  -10.934600   64.767900
  H     11.310200  -11.203100   66.845900
  C      9.019700   -9.761090   67.896200
  H      8.381640  -10.664600   68.122600
  H      8.296770   -8.904840   67.951000
  C     10.153200   -9.717010   68.944000
  H     10.622500  -10.674900   69.095300
  H     10.941100   -9.234530   68.472400
  C      9.772980   -8.981780   70.173500
  H     10.535900   -8.942030   70.894100
  H      9.663990   -7.942550   69.879900
  H      8.864490   -9.388660   70.560900
  S     13.064600  -10.770200   63.221000
  C     14.053700  -12.210300   63.169000
  C     13.451300  -13.346000   63.590900
  C     12.206000  -13.063100   64.203500
  C     11.861300  -11.717800   64.132300
  H     13.841000  -14.293900   63.487100
  C     11.346700  -14.173000   64.867300
  H     10.298400  -13.988800   64.740800
  H     11.593800  -14.002900   65.957500
  C     11.618700  -15.684600   64.459000
  H     12.675600  -15.832400   64.723000
  H     11.578100  -15.779600   63.397800
  C     10.636900  -16.672000   65.204600
  H     10.901200  -16.674500   66.288400
  H     10.748800  -17.715600   64.795600
  H      9.555660  -16.459800   65.147000
  H      8.011440   -8.845440   65.353300
  H     15.056900  -12.079400   62.962600

 Total Charge           Charge          ....    0
 Multiplicity           Mult            ....    1
 Number of Electrons    NEL             ....  134
 Basis Dimension        Dim             ....  322

ORBITAL ENERGIES
----------------

  NO   OCC          E(Eh)            E(eV)
   0   2.0000     -88.963742     -2420.8265
   1   2.0000     -88.961662     -2420.7699
   2   2.0000     -10.326162      -280.9891
   3   2.0000     -10.322670      -280.8941
   4   2.0000     -10.309639      -280.5395
   5   2.0000     -10.309322      -280.5309
   6   2.0000     -10.305164      -280.4178
   7   2.0000     -10.298334      -280.2319
   8   2.0000     -10.298066      -280.2246
   9   2.0000     -10.297593      -280.2117
  10   2.0000     -10.296874      -280.1922
  11   2.0000     -10.293216      -280.0927
  12   2.0000     -10.289272      -279.9853
  13   2.0000     -10.285919      -279.8941
  14   2.0000     -10.275250      -279.6038
  15   2.0000     -10.269268      -279.4410
  16   2.0000      -8.078631      -219.8307
  17   2.0000      -8.076622      -219.7761
  18   2.0000      -6.037054      -164.2766
  19   2.0000      -6.034968      -164.2198
  20   2.0000      -6.033159      -164.1706
  21   2.0000      -6.031285      -164.1196
  22   2.0000      -6.029454      -164.0698
  23   2.0000      -6.027351      -164.0126
  24   2.0000      -1.003738       -27.3131
  25   2.0000      -0.982580       -26.7374
  26   2.0000      -0.917516       -24.9669
  27   2.0000      -0.897656       -24.4265
  28   2.0000      -0.871605       -23.7176
  29   2.0000      -0.848632       -23.0925
  30   2.0000      -0.846510       -23.0347
  31   2.0000      -0.811710       -22.0878
  32   2.0000      -0.781435       -21.2639
  33   2.0000      -0.769411       -20.9367
  34   2.0000      -0.714673       -19.4472
  35   2.0000      -0.706845       -19.2342
  36   2.0000      -0.689966       -18.7749
  37   2.0000      -0.659828       -17.9548
  38   2.0000      -0.640496       -17.4288
  39   2.0000      -0.619176       -16.8486
  40   2.0000      -0.601865       -16.3776
  41   2.0000      -0.572176       -15.5697
  42   2.0000      -0.563739       -15.3401
  43   2.0000      -0.561694       -15.2845
  44   2.0000      -0.533656       -14.5215
  45   2.0000      -0.517962       -14.0945
  46   2.0000      -0.517241       -14.0748
  47   2.0000      -0.513077       -13.9615
  48   2.0000      -0.498160       -13.5556
  49   2.0000      -0.492547       -13.4029
  50   2.0000      -0.486594       -13.2409
  51   2.0000      -0.482257       -13.1229
  52   2.0000      -0.470908       -12.8141
  53   2.0000      -0.465175       -12.6580
  54   2.0000      -0.462116       -12.5748
  55   2.0000      -0.454310       -12.3624
  56   2.0000      -0.450013       -12.2455
  57   2.0000      -0.437476       -11.9043
  58   2.0000      -0.435819       -11.8592
  59   2.0000      -0.427851       -11.6424
  60   2.0000      -0.425079       -11.5670
  61   2.0000      -0.415078       -11.2948
  62   2.0000      -0.413118       -11.2415
  63   2.0000      -0.339925        -9.2498
  64   2.0000      -0.328263        -8.9325
  65   2.0000      -0.326414        -8.8822
  66   2.0000      -0.291488        -7.9318
  67   0.0000       0.039753         1.0817
  68   0.0000       0.059181         1.6104
  69   0.0000       0.111175         3.0252
  70   0.0000       0.123143         3.3509
  71   0.0000       0.132998         3.6191

MULLIKEN ATOMIC CHARGES
-----------------------
   0 S :    0.108594
   1 C :   -0.144999
   2 C :   -0.072375
   3 C :    0.041039
   4 C :   -0.157429
   5 H :   -0.006632
   6 C :    0.037914
   7 H :    0.050672
   8 H :    0.027581
   9 C :   -0.075912
  10 H :    0.022201
  11 H :    0.009147
  12 C :    0.018047
  13 H :    0.016898
  14 H :    0.025942
  15 H :    0.027577
  16 S :    0.100923
  17 C :   -0.059157
  18 C :   -0.001960
  19 C :   -0.018890
  20 C :   -0.183484
  21 H :   -0.011458
  22 C :    0.036846
  23 H :    0.035109
  24 H :    0.045572
  25 C :   -0.086757
  26 H :    0.036806
  27 H :    0.035820
  28 C :   -0.071642
  29 H :    0.041368
  30 H :    0.045992
  31 H :    0.044587
  32 H :    0.048630
  33 H :    0.033431
Sum of atomic charges:    0.0000000

LOEWDIN ATOMIC CHARGES
----------------------
   0 S :    0.402474
   1 C :   -0.196655
   2 C :   -0.061909
   3 C :   -0.060317
   4 C :   -0.201761
   5 H :    0.022262
   6 C :   -0.031784
   7 H :    0.041373
   8 H :    0.033009
   9 C :   -0.044472
  10 H :    0.020970
  11 H :    0.015860
  12 C :   -0.051030
  13 H :    0.020312
  14 H :    0.029920
  15 H :    0.022441
  16 S :    0.390703
  17 C :   -0.156926
  18 C :   -0.066136
  19 C :   -0.046838
  20 C :   -0.198822
  21 H :    0.020259
  22 C :   -0.031860
  23 H :    0.026076
  24 H :    0.040126
  25 C :   -0.038977
  26 H :    0.024234
  27 H :    0.019506
  28 C :   -0.072019
  29 H :    0.030835
  30 H :    0.033248
  31 H :    0.028594
  32 H :    0.026509
  33 H :    0.010797

  Mayer bond orders larger than 0.100000
B(  0-S ,  1-C ) :   1.1215 B(  0-S ,  4-C ) :   1.1699 B(  1-C ,  2-C ) :   1.6329
B(  1-C , 32-H ) :   0.9656 B(  2-C ,  3-C ) :   1.2282 B(  2-C ,  6-C ) :   1.0253
B(  3-C ,  4-C ) :   1.5689 B(  3-C ,  5-H ) :   1.0011 B(  4-C , 20-C ) :   1.0154
B(  6-C ,  7-H ) :   0.9260 B(  6-C ,  8-H ) :   0.9500 B(  6-C ,  9-C ) :   1.0534
B(  9-C , 10-H ) :   0.9405 B(  9-C , 11-H ) :   0.9625 B(  9-C , 12-C ) :   1.0922
B( 12-C , 13-H ) :   0.9683 B( 12-C , 14-H ) :   0.9725 B( 12-C , 15-H ) :   0.9733
B( 16-S , 17-C ) :   1.1675 B( 16-S , 20-C ) :   1.1307 B( 17-C , 18-C ) :   1.5937
B( 17-C , 33-H ) :   0.9732 B( 18-C , 19-C ) :   1.2363 B( 18-C , 21-H ) :   1.0063
B( 19-C , 20-C ) :   1.6333 B( 19-C , 22-C ) :   1.0096 B( 22-C , 23-H ) :   0.9457
B( 22-C , 24-H ) :   0.9343 B( 22-C , 25-C ) :   1.0618 B( 25-C , 26-H ) :   0.9498
B( 25-C , 27-H ) :   0.9642 B( 25-C , 28-C ) :   1.0699 B( 28-C , 29-H ) :   0.9764
B( 28-C , 30-H ) :   0.9756 B( 28-C , 31-H ) :   0.9778

Dispersion correction           -0.013447847
FINAL SINGLE POINT ENERGY     -1339.869983119072

DIPOLE MOMENT
-------------
                                X             Y             Z
Electronic contribution:      6.03281      13.53379     -23.12994
Nuclear contribution   :     -6.02082     -14.01042      23.73083
                        -----------------------------------------
Total Dipole Moment    :      0.01199      -0.47663       0.60090
                        -----------------------------------------
Magnitude (a.u.)       :      0.76707
Magnitude (Debye)      :      1.94974

Rotational constants in cm-1:     0.016236     0.007937     0.006557
Rotational constants in MHz :   486.743219   237.957114   196.579469

                             ****ORCA TERMINATED NORMALLY****
TOTAL RUN TIME: 0 days 0 hours 0 minutes 34 seconds 144 msec
