                         Program Version 4.2.1 -  RELEASE  -
|  1> ! wB97X-D3 SP def2-SVP
|  2> %pal
|  3> nprocs 16
|  4> end
|  5>
|  6> * xyz 0 1
|  7> S 	 -72.4881 	 51.412 	 138.004
|  8> C 	 -71.8043 	 50.5609 	 139.294
|  9> C 	 -72.7456 	 50.1943 	 140.325
| 10> C 	 -74.071 	 50.4099 	 139.834
| 11> C 	 -74.1474 	 51.1534 	 138.638
| 12> H 	 -75.0377 	 50.2453 	 140.33
| 13> C 	 -72.5248 	 49.5139 	 141.606
| 14> H 	 -71.7422 	 48.702 	 141.489
| 15> H 	 -73.4863 	 48.9685 	 141.808
| 16> C 	 -72.0829 	 50.5141 	 142.69
| 17> H 	 -71.2769 	 51.0668 	 142.264
| 18> H 	 -72.8813 	 51.2408 	 142.948
| 19> C 	 -71.6106 	 49.808 	 144.028
| 20> H 	 -70.7464 	 49.1548 	 143.739
| 21> H 	 -71.1863 	 50.5668 	 144.669
| 22> H 	 -72.4155 	 49.4113 	 144.558
| 23> S 	 -75.9473 	 53.1821 	 138.15
| 24> C 	 -77.4129 	 52.7494 	 137.326
| 25> C 	 -77.3649 	 51.5109 	 136.743
| 26> C 	 -76.1508 	 50.8475 	 137.081
| 27> C 	 -75.2962 	 51.5839 	 137.877
| 28> H 	 -78.1266 	 51.1863 	 135.996
| 29> C 	 -75.8076 	 49.4406 	 136.623
| 30> H 	 -74.881 	 49.0868 	 137.284
| 31> H 	 -75.5199 	 49.4489 	 135.562
| 32> C 	 -76.8027 	 48.3683 	 136.886
| 33> H 	 -77.7534 	 48.8783 	 136.661
| 34> H 	 -76.8336 	 48.1098 	 137.896
| 35> C 	 -76.5743 	 47.046 	 136.084
| 36> H 	 -77.3701 	 46.4089 	 136.365
| 37> H 	 -75.5714 	 46.7246 	 136.489
| 38> H 	 -76.5912 	 47.2135 	 135.011
| 39> H 	 -70.7327 	 50.5474 	 139.489
| 40> H 	 -78.2076 	 53.4121 	 137.143
| 41> *
| 42>
| 43>                          ****END OF INPUT****

CARTESIAN COORDINATES (ANGSTROEM)
---------------------------------
  S    -72.488100   51.412000  138.004000
  C    -71.804300   50.560900  139.294000
  C    -72.745600   50.194300  140.325000
  C    -74.071000   50.409900  139.834000
  C    -74.147400   51.153400  138.638000
  H    -75.037700   50.245300  140.330000
  C    -72.524800   49.513900  141.606000
  H    -71.742200   48.702000  141.489000
  H    -73.486300   48.968500  141.808000
  C    -72.082900   50.514100  142.690000
  H    -71.276900   51.066800  142.264000
  H    -72.881300   51.240800  142.948000
  C    -71.610600   49.808000  144.028000
  H    -70.746400   49.154800  143.739000
  H    -71.186300   50.566800  144.669000
  H    -72.415500   49.411300  144.558000
  S    -75.947300   53.182100  138.150000
  C    -77.412900   52.749400  137.326000
  C    -77.364900   51.510900  136.743000
  C    -76.150800   50.847500  137.081000
  C    -75.296200   51.583900  137.877000
  H    -78.126600   51.186300  135.996000
  C    -75.807600   49.440600  136.623000
  H    -74.881000   49.086800  137.284000
  H    -75.519900   49.448900  135.562000
  C    -76.802700   48.368300  136.886000
  H    -77.753400   48.878300  136.661000
  H    -76.833600   48.109800  137.896000
  C    -76.574300   47.046000  136.084000
  H    -77.370100   46.408900  136.365000
  H    -75.571400   46.724600  136.489000
  H    -76.591200   47.213500  135.011000
  H    -70.732700   50.547400  139.489000
  H    -78.207600   53.412100  137.143000

 Total Charge           Charge          ....    0
 Multiplicity           Mult            ....    1
 Number of Electrons    NEL             ....  134
 Basis Dimension        Dim             ....  322

ORBITAL ENERGIES
----------------

  NO   OCC          E(Eh)            E(eV)
   0   2.0000     -88.967127     -2420.9186
   1   2.0000     -88.964795     -2420.8552
   2   2.0000     -10.328340      -281.0484
   3   2.0000     -10.320306      -280.8298
   4   2.0000     -10.315881      -280.7094
   5   2.0000     -10.314180      -280.6631
   6   2.0000     -10.303406      -280.3699
   7   2.0000     -10.301580      -280.3202
   8   2.0000     -10.298839      -280.2457
   9   2.0000     -10.296549      -280.1833
  10   2.0000     -10.296064      -280.1701
  11   2.0000     -10.289618      -279.9947
  12   2.0000     -10.289071      -279.9799
  13   2.0000     -10.279582      -279.7216
  14   2.0000     -10.278579      -279.6943
  15   2.0000     -10.274403      -279.5807
  16   2.0000      -8.081919      -219.9202
  17   2.0000      -8.080019      -219.8685
  18   2.0000      -6.040168      -164.3613
  19   2.0000      -6.038463      -164.3149
  20   2.0000      -6.036240      -164.2544
  21   2.0000      -6.034449      -164.2057
  22   2.0000      -6.033142      -164.1701
  23   2.0000      -6.030833      -164.1073
  24   2.0000      -1.006013       -27.3750
  25   2.0000      -0.983240       -26.7553
  26   2.0000      -0.910857       -24.7857
  27   2.0000      -0.910041       -24.7635
  28   2.0000      -0.869115       -23.6498
  29   2.0000      -0.850401       -23.1406
  30   2.0000      -0.848498       -23.0888
  31   2.0000      -0.812129       -22.0991
  32   2.0000      -0.779361       -21.2075
  33   2.0000      -0.765479       -20.8298
  34   2.0000      -0.702191       -19.1076
  35   2.0000      -0.699495       -19.0342
  36   2.0000      -0.691864       -18.8266
  37   2.0000      -0.655877       -17.8473
  38   2.0000      -0.643507       -17.5107
  39   2.0000      -0.613586       -16.6965
  40   2.0000      -0.597624       -16.2622
  41   2.0000      -0.568599       -15.4724
  42   2.0000      -0.565488       -15.3877
  43   2.0000      -0.559816       -15.2334
  44   2.0000      -0.522541       -14.2191
  45   2.0000      -0.520029       -14.1507
  46   2.0000      -0.518111       -14.0985
  47   2.0000      -0.514439       -13.9986
  48   2.0000      -0.507752       -13.8166
  49   2.0000      -0.501899       -13.6574
  50   2.0000      -0.494408       -13.4535
  51   2.0000      -0.471431       -12.8283
  52   2.0000      -0.467967       -12.7340
  53   2.0000      -0.462048       -12.5730
  54   2.0000      -0.457247       -12.4423
  55   2.0000      -0.452816       -12.3218
  56   2.0000      -0.445288       -12.1169
  57   2.0000      -0.439509       -11.9597
  58   2.0000      -0.434564       -11.8251
  59   2.0000      -0.423504       -11.5241
  60   2.0000      -0.419852       -11.4248
  61   2.0000      -0.414464       -11.2781
  62   2.0000      -0.397315       -10.8115
  63   2.0000      -0.339725        -9.2444
  64   2.0000      -0.331026        -9.0077
  65   2.0000      -0.317956        -8.6520
  66   2.0000      -0.301865        -8.2142
  67   0.0000       0.042768         1.1638
  68   0.0000       0.049155         1.3376
  69   0.0000       0.113203         3.0804
  70   0.0000       0.119106         3.2410
  71   0.0000       0.125772         3.4224

MULLIKEN ATOMIC CHARGES
-----------------------
   0 S :    0.129588
   1 C :   -0.107354
   2 C :   -0.106936
   3 C :    0.045328
   4 C :   -0.216761
   5 H :    0.025271
   6 C :    0.035837
   7 H :    0.036038
   8 H :    0.034315
   9 C :   -0.095310
  10 H :    0.022718
  11 H :    0.037601
  12 C :   -0.022299
  13 H :    0.038414
  14 H :    0.027006
  15 H :    0.032291
  16 S :    0.118640
  17 C :   -0.075304
  18 C :   -0.048156
  19 C :   -0.009240
  20 C :   -0.171883
  21 H :    0.045165
  22 C :    0.027922
  23 H :    0.047808
  24 H :    0.038381
  25 C :   -0.086987
  26 H :    0.009645
  27 H :    0.014106
  28 C :   -0.029952
  29 H :    0.034069
  30 H :    0.041209
  31 H :    0.036600
  32 H :    0.053870
  33 H :    0.038361
Sum of atomic charges:   -0.0000000

LOEWDIN ATOMIC CHARGES
----------------------
   0 S :    0.425912
   1 C :   -0.220421
   2 C :   -0.066822
   3 C :   -0.055734
   4 C :   -0.196906
   5 H :    0.037280
   6 C :   -0.043720
   7 H :    0.036570
   8 H :    0.036215
   9 C :   -0.035346
  10 H :    0.018801
  11 H :    0.028245
  12 C :   -0.061644
  13 H :    0.031646
  14 H :    0.025337
  15 H :    0.017353
  16 S :    0.415704
  17 C :   -0.173578
  18 C :   -0.081073
  19 C :   -0.050308
  20 C :   -0.219392
  21 H :    0.042852
  22 C :   -0.042690
  23 H :    0.043189
  24 H :    0.032537
  25 C :   -0.044743
  26 H :    0.015218
  27 H :    0.015299
  28 C :   -0.055512
  29 H :    0.022374
  30 H :    0.034746
  31 H :    0.023403
  32 H :    0.026237
  33 H :    0.018973

  Mayer bond orders larger than 0.100000
B(  0-S ,  1-C ) :   1.1930 B(  0-S ,  4-C ) :   1.1529 B(  1-C ,  2-C ) :   1.5418
B(  1-C ,  4-C ) :   0.1156 B(  1-C , 32-H ) :   0.9621 B(  2-C ,  3-C ) :   1.2760
B(  2-C ,  6-C ) :   1.0340 B(  3-C ,  4-C ) :   1.5721 B(  3-C ,  5-H ) :   0.9832
B(  4-C , 20-C ) :   1.0117 B(  6-C ,  7-H ) :   0.9424 B(  6-C ,  8-H ) :   0.9419
B(  6-C ,  9-C ) :   1.0450 B(  9-C , 10-H ) :   0.9615 B(  9-C , 11-H ) :   0.9556
B(  9-C , 12-C ) :   1.0817 B( 12-C , 13-H ) :   0.9747 B( 12-C , 14-H ) :   0.9745
B( 12-C , 15-H ) :   0.9770 B( 16-S , 17-C ) :   1.1744 B( 16-S , 20-C ) :   1.1323
B( 17-C , 18-C ) :   1.6084 B( 17-C , 33-H ) :   0.9680 B( 18-C , 19-C ) :   1.2375
B( 18-C , 21-H ) :   0.9790 B( 19-C , 20-C ) :   1.6157 B( 19-C , 22-C ) :   1.0363
B( 22-C , 23-H ) :   0.9305 B( 22-C , 24-H ) :   0.9378 B( 22-C , 25-C ) :   1.0585
B( 25-C , 26-H ) :   0.9572 B( 25-C , 27-H ) :   0.9542 B( 25-C , 28-C ) :   1.0755
B( 28-C , 29-H ) :   0.9747 B( 28-C , 30-H ) :   0.9748 B( 28-C , 31-H ) :   0.9776

Dispersion correction           -0.013863611
FINAL SINGLE POINT ENERGY     -1339.866642646707

DIPOLE MOMENT
-------------
                                X             Y             Z
Electronic contribution:     -0.63270      21.08837     -11.29573
Nuclear contribution   :      0.45101     -21.39864      11.51296
                        -----------------------------------------
Total Dipole Moment    :     -0.18169      -0.31027       0.21723
                        -----------------------------------------
Magnitude (a.u.)       :      0.42009
Magnitude (Debye)      :      1.06777

Rotational constants in cm-1:     0.018540     0.007541     0.006476
Rotational constants in MHz :   555.818109   226.063617   194.135037

                             ****ORCA TERMINATED NORMALLY****
TOTAL RUN TIME: 0 days 0 hours 0 minutes 33 seconds 211 msec
