                         Program Version 4.2.1 -  RELEASE  -
|  1> ! wB97X-D3 SP def2-SVP
|  2> %pal
|  3> nprocs 16
|  4> end
|  5>
|  6> * xyz 0 1
|  7> S 	 10.4409 	 -4.78944 	 89.6033
|  8> C 	 10.785 	 -3.4657 	 90.6836
|  9> C 	 11.1167 	 -2.30436 	 89.9701
| 10> C 	 11.0812 	 -2.54316 	 88.5479
| 11> C 	 10.7583 	 -3.86094 	 88.1543
| 12> H 	 11.2417 	 -1.80991 	 87.7083
| 13> C 	 11.3464 	 -0.934984 	 90.625
| 14> H 	 12.3661 	 -0.637915 	 90.4145
| 15> H 	 11.3082 	 -1.19171 	 91.711
| 16> C 	 10.288 	 0.181704 	 90.2024
| 17> H 	 10.4876 	 0.522628 	 89.1865
| 18> H 	 9.21708 	 -0.147237 	 90.2375
| 19> C 	 10.4039 	 1.40762 	 91.0969
| 20> H 	 9.68361 	 2.14006 	 90.7887
| 21> H 	 10.0361 	 1.12104 	 92.0799
| 22> H 	 11.3858 	 1.92747 	 91.2443
| 23> S 	 11.5502 	 -5.82473 	 86.4954
| 24> C 	 11.5607 	 -5.5471 	 84.7538
| 25> C 	 10.8087 	 -4.40324 	 84.386
| 26> C 	 10.375 	 -3.66549 	 85.5331
| 27> C 	 10.6626 	 -4.30417 	 86.7475
| 28> H 	 10.6821 	 -4.05964 	 83.3974
| 29> C 	 9.80758 	 -2.25943 	 85.366
| 30> H 	 9.66836 	 -1.90877 	 84.3536
| 31> H 	 10.6007 	 -1.58201 	 85.6019
| 32> C 	 8.44874 	 -1.96685 	 86.069
| 33> H 	 8.45893 	 -2.286 	 87.0645
| 34> H 	 7.6713 	 -2.61266 	 85.5616
| 35> C 	 8.13023 	 -0.544778 	 85.8716
| 36> H 	 7.02141 	 -0.293854 	 85.8877
| 37> H 	 8.55529 	 -0.0804518 	 84.9974
| 38> H 	 8.57258 	 -0.0262917 	 86.7199
| 39> H 	 10.553 	 -3.47331 	 91.7455
| 40> H 	 11.9772 	 -6.14257 	 83.9846
| 41> *
| 42>
| 43>                          ****END OF INPUT****

CARTESIAN COORDINATES (ANGSTROEM)
---------------------------------
  S     10.440900   -4.789440   89.603300
  C     10.785000   -3.465700   90.683600
  C     11.116700   -2.304360   89.970100
  C     11.081200   -2.543160   88.547900
  C     10.758300   -3.860940   88.154300
  H     11.241700   -1.809910   87.708300
  C     11.346400   -0.934984   90.625000
  H     12.366100   -0.637915   90.414500
  H     11.308200   -1.191710   91.711000
  C     10.288000    0.181704   90.202400
  H     10.487600    0.522628   89.186500
  H      9.217080   -0.147237   90.237500
  C     10.403900    1.407620   91.096900
  H      9.683610    2.140060   90.788700
  H     10.036100    1.121040   92.079900
  H     11.385800    1.927470   91.244300
  S     11.550200   -5.824730   86.495400
  C     11.560700   -5.547100   84.753800
  C     10.808700   -4.403240   84.386000
  C     10.375000   -3.665490   85.533100
  C     10.662600   -4.304170   86.747500
  H     10.682100   -4.059640   83.397400
  C      9.807580   -2.259430   85.366000
  H      9.668360   -1.908770   84.353600
  H     10.600700   -1.582010   85.601900
  C      8.448740   -1.966850   86.069000
  H      8.458930   -2.286000   87.064500
  H      7.671300   -2.612660   85.561600
  C      8.130230   -0.544778   85.871600
  H      7.021410   -0.293854   85.887700
  H      8.555290   -0.080452   84.997400
  H      8.572580   -0.026292   86.719900
  H     10.553000   -3.473310   91.745500
  H     11.977200   -6.142570   83.984600

 Total Charge           Charge          ....    0
 Multiplicity           Mult            ....    1
 Number of Electrons    NEL             ....  134
 Basis Dimension        Dim             ....  322

ORBITAL ENERGIES
----------------

  NO   OCC          E(Eh)            E(eV)
   0   2.0000     -88.969769     -2420.9905
   1   2.0000     -88.968168     -2420.9469
   2   2.0000     -10.334440      -281.2144
   3   2.0000     -10.333448      -281.1874
   4   2.0000     -10.321773      -280.8697
   5   2.0000     -10.316084      -280.7149
   6   2.0000     -10.310181      -280.5543
   7   2.0000     -10.306244      -280.4472
   8   2.0000     -10.301886      -280.3286
   9   2.0000     -10.298403      -280.2338
  10   2.0000     -10.298194      -280.2281
  11   2.0000     -10.296708      -280.1877
  12   2.0000     -10.292521      -280.0737
  13   2.0000     -10.281431      -279.7720
  14   2.0000     -10.279143      -279.7097
  15   2.0000     -10.276599      -279.6405
  16   2.0000      -8.083643      -219.9671
  17   2.0000      -8.082578      -219.9381
  18   2.0000      -6.042236      -164.4176
  19   2.0000      -6.041156      -164.3882
  20   2.0000      -6.038226      -164.3085
  21   2.0000      -6.037022      -164.2757
  22   2.0000      -6.034395      -164.2042
  23   2.0000      -6.033392      -164.1769
  24   2.0000      -1.000364       -27.2213
  25   2.0000      -0.977889       -26.6097
  26   2.0000      -0.914590       -24.8873
  27   2.0000      -0.904065       -24.6009
  28   2.0000      -0.867222       -23.5983
  29   2.0000      -0.855629       -23.2829
  30   2.0000      -0.845672       -23.0119
  31   2.0000      -0.810296       -22.0493
  32   2.0000      -0.779427       -21.2093
  33   2.0000      -0.768650       -20.9160
  34   2.0000      -0.709262       -19.3000
  35   2.0000      -0.702163       -19.1068
  36   2.0000      -0.690855       -18.7991
  37   2.0000      -0.668739       -18.1973
  38   2.0000      -0.637746       -17.3539
  39   2.0000      -0.612267       -16.6606
  40   2.0000      -0.597913       -16.2700
  41   2.0000      -0.569717       -15.5028
  42   2.0000      -0.565252       -15.3813
  43   2.0000      -0.556088       -15.1319
  44   2.0000      -0.527941       -14.3660
  45   2.0000      -0.526450       -14.3254
  46   2.0000      -0.511433       -13.9168
  47   2.0000      -0.509790       -13.8721
  48   2.0000      -0.502763       -13.6809
  49   2.0000      -0.501001       -13.6329
  50   2.0000      -0.490053       -13.3350
  51   2.0000      -0.487685       -13.2706
  52   2.0000      -0.469284       -12.7699
  53   2.0000      -0.465496       -12.6668
  54   2.0000      -0.464052       -12.6275
  55   2.0000      -0.450593       -12.2612
  56   2.0000      -0.445355       -12.1187
  57   2.0000      -0.440622       -11.9899
  58   2.0000      -0.428994       -11.6735
  59   2.0000      -0.423916       -11.5353
  60   2.0000      -0.420727       -11.4486
  61   2.0000      -0.417119       -11.3504
  62   2.0000      -0.406295       -11.0559
  63   2.0000      -0.349899        -9.5212
  64   2.0000      -0.332770        -9.0551
  65   2.0000      -0.328357        -8.9350
  66   2.0000      -0.285387        -7.7658
  67   0.0000       0.024959         0.6792
  68   0.0000       0.067224         1.8293
  69   0.0000       0.107068         2.9135
  70   0.0000       0.117474         3.1966
  71   0.0000       0.127739         3.4760

MULLIKEN ATOMIC CHARGES
-----------------------
   0 S :    0.111528
   1 C :   -0.129327
   2 C :   -0.097635
   3 C :   -0.004878
   4 C :   -0.137681
   5 H :    0.020744
   6 C :    0.071087
   7 H :    0.039595
   8 H :    0.020926
   9 C :   -0.085713
  10 H :    0.036035
  11 H :    0.047484
  12 C :   -0.055847
  13 H :    0.026069
  14 H :    0.020414
  15 H :    0.044132
  16 S :    0.104641
  17 C :   -0.073858
  18 C :   -0.017812
  19 C :   -0.034175
  20 C :   -0.129223
  21 H :    0.004150
  22 C :    0.012142
  23 H :    0.002102
  24 H :    0.028085
  25 C :   -0.039154
  26 H :    0.032407
  27 H :    0.035413
  28 C :   -0.046732
  29 H :    0.041834
  30 H :    0.023088
  31 H :    0.024681
  32 H :    0.058854
  33 H :    0.046625
Sum of atomic charges:    0.0000000

LOEWDIN ATOMIC CHARGES
----------------------
   0 S :    0.408956
   1 C :   -0.210454
   2 C :   -0.064179
   3 C :   -0.076926
   4 C :   -0.205202
   5 H :    0.035639
   6 C :   -0.027926
   7 H :    0.032735
   8 H :    0.032254
   9 C :   -0.038573
  10 H :    0.021526
  11 H :    0.034983
  12 C :   -0.072835
  13 H :    0.023664
  14 H :    0.022305
  15 H :    0.030510
  16 S :    0.402626
  17 C :   -0.174098
  18 C :   -0.061046
  19 C :   -0.048813
  20 C :   -0.189017
  21 H :    0.024892
  22 C :   -0.034172
  23 H :    0.027707
  24 H :    0.026080
  25 C :   -0.035397
  26 H :    0.017244
  27 H :    0.031269
  28 C :   -0.069181
  29 H :    0.033580
  30 H :    0.020302
  31 H :    0.027275
  32 H :    0.031591
  33 H :    0.022682

  Mayer bond orders larger than 0.100000
B(  0-S ,  1-C ) :   1.1431 B(  0-S ,  4-C ) :   1.1565 B(  1-C ,  2-C ) :   1.5942
B(  1-C , 32-H ) :   0.9627 B(  2-C ,  3-C ) :   1.2558 B(  2-C ,  6-C ) :   1.0241
B(  3-C ,  4-C ) :   1.5561 B(  3-C ,  5-H ) :   0.9824 B(  4-C , 20-C ) :   1.0281
B(  6-C ,  7-H ) :   0.9368 B(  6-C ,  8-H ) :   0.9480 B(  6-C ,  9-C ) :   1.0464
B(  9-C , 10-H ) :   0.9540 B(  9-C , 11-H ) :   0.9591 B(  9-C , 12-C ) :   1.0879
B( 12-C , 13-H ) :   0.9724 B( 12-C , 14-H ) :   0.9743 B( 12-C , 15-H ) :   0.9748
B( 16-S , 17-C ) :   1.1674 B( 16-S , 20-C ) :   1.1271 B( 17-C , 18-C ) :   1.5875
B( 17-C , 20-C ) :   0.1018 B( 17-C , 33-H ) :   0.9691 B( 18-C , 19-C ) :   1.2648
B( 18-C , 21-H ) :   0.9941 B( 19-C , 20-C ) :   1.5905 B( 19-C , 22-C ) :   1.0218
B( 22-C , 23-H ) :   0.9315 B( 22-C , 24-H ) :   0.9354 B( 22-C , 25-C ) :   1.0503
B( 25-C , 26-H ) :   0.9616 B( 25-C , 27-H ) :   0.9548 B( 25-C , 28-C ) :   1.0771
B( 28-C , 29-H ) :   0.9720 B( 28-C , 30-H ) :   0.9716 B( 28-C , 31-H ) :   0.9727

Dispersion correction           -0.014578535
FINAL SINGLE POINT ENERGY     -1339.868596195734

DIPOLE MOMENT
-------------
                                X             Y             Z
Electronic contribution:      9.19209     -32.07905      -2.07315
Nuclear contribution   :     -9.29266      32.91158       1.86266
                        -----------------------------------------
Total Dipole Moment    :     -0.10057       0.83253      -0.21049
                        -----------------------------------------
Magnitude (a.u.)       :      0.86460
Magnitude (Debye)      :      2.19763

Rotational constants in cm-1:     0.018333     0.009191     0.006724
Rotational constants in MHz :   549.615697   275.529460   201.574016

                             ****ORCA TERMINATED NORMALLY****
TOTAL RUN TIME: 0 days 0 hours 0 minutes 34 seconds 121 msec
