                         Program Version 4.2.1 -  RELEASE  -
|  1> ! wB97X-D3 SP def2-SVP
|  2> %pal
|  3> nprocs 16
|  4> end
|  5>
|  6> * xyz 0 1
|  7> S 	 37.3055 	 29.7742 	 94.6377
|  8> C 	 36.528 	 29.9967 	 93.1168
|  9> C 	 36.2093 	 28.7783 	 92.5542
| 10> C 	 36.4654 	 27.6735 	 93.446
| 11> C 	 37.0208 	 28.0001 	 94.6381
| 12> H 	 36.3555 	 26.6151 	 93.144
| 13> C 	 35.5399 	 28.6345 	 91.193
| 14> H 	 35.8428 	 27.6685 	 90.8782
| 15> H 	 36.0898 	 29.379 	 90.5814
| 16> C 	 34.0016 	 28.7962 	 91.2443
| 17> H 	 33.7383 	 29.8097 	 91.4572
| 18> H 	 33.5323 	 28.6858 	 90.2634
| 19> C 	 33.3135 	 27.8012 	 92.1761
| 20> H 	 32.2109 	 27.7466 	 91.9267
| 21> H 	 33.7839 	 26.8027 	 92.3449
| 22> H 	 33.1896 	 28.2899 	 93.1928
| 23> S 	 37.3998 	 27.707 	 97.3635
| 24> C 	 37.9319 	 26.184 	 98.0156
| 25> C 	 38.1449 	 25.2925 	 96.9924
| 26> C 	 37.7989 	 25.7636 	 95.723
| 27> C 	 37.4146 	 27.1104 	 95.752
| 28> H 	 38.579 	 24.37 	 97.1549
| 29> C 	 37.8937 	 24.8908 	 94.4274
| 30> H 	 38.7703 	 24.261 	 94.6363
| 31> H 	 38.2998 	 25.6178 	 93.7174
| 32> C 	 36.5692 	 24.1534 	 94.0468
| 33> H 	 35.7618 	 24.7916 	 94.089
| 34> H 	 36.3412 	 23.4413 	 94.7788
| 35> C 	 36.6516 	 23.5006 	 92.6632
| 36> H 	 37.4905 	 22.7257 	 92.7724
| 37> H 	 36.7899 	 24.2312 	 91.8621
| 38> H 	 35.7024 	 22.9445 	 92.4935
| 39> H 	 36.4908 	 30.9104 	 92.5455
| 40> H 	 38.2732 	 26.0678 	 98.9836
| 41> *
| 42>
| 43>                          ****END OF INPUT****

CARTESIAN COORDINATES (ANGSTROEM)
---------------------------------
  S     37.305500   29.774200   94.637700
  C     36.528000   29.996700   93.116800
  C     36.209300   28.778300   92.554200
  C     36.465400   27.673500   93.446000
  C     37.020800   28.000100   94.638100
  H     36.355500   26.615100   93.144000
  C     35.539900   28.634500   91.193000
  H     35.842800   27.668500   90.878200
  H     36.089800   29.379000   90.581400
  C     34.001600   28.796200   91.244300
  H     33.738300   29.809700   91.457200
  H     33.532300   28.685800   90.263400
  C     33.313500   27.801200   92.176100
  H     32.210900   27.746600   91.926700
  H     33.783900   26.802700   92.344900
  H     33.189600   28.289900   93.192800
  S     37.399800   27.707000   97.363500
  C     37.931900   26.184000   98.015600
  C     38.144900   25.292500   96.992400
  C     37.798900   25.763600   95.723000
  C     37.414600   27.110400   95.752000
  H     38.579000   24.370000   97.154900
  C     37.893700   24.890800   94.427400
  H     38.770300   24.261000   94.636300
  H     38.299800   25.617800   93.717400
  C     36.569200   24.153400   94.046800
  H     35.761800   24.791600   94.089000
  H     36.341200   23.441300   94.778800
  C     36.651600   23.500600   92.663200
  H     37.490500   22.725700   92.772400
  H     36.789900   24.231200   91.862100
  H     35.702400   22.944500   92.493500
  H     36.490800   30.910400   92.545500
  H     38.273200   26.067800   98.983600

 Total Charge           Charge          ....    0
 Multiplicity           Mult            ....    1
 Number of Electrons    NEL             ....  134
 Basis Dimension        Dim             ....  322

ORBITAL ENERGIES
----------------

  NO   OCC          E(Eh)            E(eV)
   0   2.0000     -88.966547     -2420.9028
   1   2.0000     -88.963561     -2420.8216
   2   2.0000     -10.332885      -281.1721
   3   2.0000     -10.327930      -281.0373
   4   2.0000     -10.310669      -280.5676
   5   2.0000     -10.310260      -280.5564
   6   2.0000     -10.300755      -280.2978
   7   2.0000     -10.298443      -280.2349
   8   2.0000     -10.297828      -280.2181
   9   2.0000     -10.293426      -280.0984
  10   2.0000     -10.292866      -280.0831
  11   2.0000     -10.290623      -280.0221
  12   2.0000     -10.287457      -279.9359
  13   2.0000     -10.286337      -279.9055
  14   2.0000     -10.285929      -279.8944
  15   2.0000     -10.283515      -279.8287
  16   2.0000      -8.081869      -219.9188
  17   2.0000      -8.078091      -219.8160
  18   2.0000      -6.040305      -164.3651
  19   2.0000      -6.036756      -164.2685
  20   2.0000      -6.036164      -164.2524
  21   2.0000      -6.032816      -164.1613
  22   2.0000      -6.032643      -164.1566
  23   2.0000      -6.028669      -164.0484
  24   2.0000      -1.009011       -27.4566
  25   2.0000      -0.987550       -26.8726
  26   2.0000      -0.909069       -24.7370
  27   2.0000      -0.908536       -24.7225
  28   2.0000      -0.870622       -23.6908
  29   2.0000      -0.856307       -23.3013
  30   2.0000      -0.841493       -22.8982
  31   2.0000      -0.819714       -22.3055
  32   2.0000      -0.779770       -21.2186
  33   2.0000      -0.768542       -20.9131
  34   2.0000      -0.710702       -19.3392
  35   2.0000      -0.704789       -19.1783
  36   2.0000      -0.700047       -19.0493
  37   2.0000      -0.669941       -18.2300
  38   2.0000      -0.638352       -17.3704
  39   2.0000      -0.617480       -16.8025
  40   2.0000      -0.593747       -16.1567
  41   2.0000      -0.571545       -15.5525
  42   2.0000      -0.565827       -15.3969
  43   2.0000      -0.551337       -15.0027
  44   2.0000      -0.540464       -14.7068
  45   2.0000      -0.530718       -14.4416
  46   2.0000      -0.516500       -14.0547
  47   2.0000      -0.514768       -14.0075
  48   2.0000      -0.509970       -13.8770
  49   2.0000      -0.499420       -13.5899
  50   2.0000      -0.486161       -13.2291
  51   2.0000      -0.479033       -13.0352
  52   2.0000      -0.475499       -12.9390
  53   2.0000      -0.467609       -12.7243
  54   2.0000      -0.453155       -12.3310
  55   2.0000      -0.446289       -12.1441
  56   2.0000      -0.444895       -12.1062
  57   2.0000      -0.442255       -12.0344
  58   2.0000      -0.436639       -11.8816
  59   2.0000      -0.430763       -11.7217
  60   2.0000      -0.423744       -11.5307
  61   2.0000      -0.414815       -11.2877
  62   2.0000      -0.400561       -10.8998
  63   2.0000      -0.360091        -9.7986
  64   2.0000      -0.335254        -9.1227
  65   2.0000      -0.326921        -8.8960
  66   2.0000      -0.287001        -7.8097
  67   0.0000       0.024710         0.6724
  68   0.0000       0.081933         2.2295
  69   0.0000       0.106709         2.9037
  70   0.0000       0.123322         3.3558
  71   0.0000       0.128995         3.5101

MULLIKEN ATOMIC CHARGES
-----------------------
   0 S :    0.098895
   1 C :   -0.105554
   2 C :   -0.140180
   3 C :    0.001939
   4 C :   -0.107862
   5 H :    0.001434
   6 C :    0.091133
   7 H :    0.007641
   8 H :    0.031021
   9 C :   -0.018479
  10 H :    0.015538
  11 H :    0.026619
  12 C :   -0.103867
  13 H :    0.038533
  14 H :    0.048542
  15 H :    0.044196
  16 S :    0.111132
  17 C :   -0.060287
  18 C :   -0.001760
  19 C :   -0.082019
  20 C :   -0.143200
  21 H :   -0.016366
  22 C :    0.037663
  23 H :    0.021487
  24 H :    0.035517
  25 C :    0.000616
  26 H :    0.010531
  27 H :    0.012013
  28 C :   -0.066596
  29 H :    0.044968
  30 H :    0.042917
  31 H :    0.042289
  32 H :    0.047145
  33 H :    0.034404
Sum of atomic charges:   -0.0000000

LOEWDIN ATOMIC CHARGES
----------------------
   0 S :    0.389677
   1 C :   -0.203472
   2 C :   -0.065976
   3 C :   -0.074006
   4 C :   -0.173142
   5 H :    0.034423
   6 C :   -0.026683
   7 H :    0.021271
   8 H :    0.035138
   9 C :   -0.040502
  10 H :    0.022178
  11 H :    0.023740
  12 C :   -0.082247
  13 H :    0.033847
  14 H :    0.028260
  15 H :    0.035979
  16 S :    0.429577
  17 C :   -0.179680
  18 C :   -0.061521
  19 C :   -0.059808
  20 C :   -0.206835
  21 H :    0.019231
  22 C :   -0.031532
  23 H :    0.030969
  24 H :    0.031931
  25 C :   -0.033517
  26 H :    0.011215
  27 H :    0.022717
  28 C :   -0.065822
  29 H :    0.035496
  30 H :    0.023117
  31 H :    0.030393
  32 H :    0.030235
  33 H :    0.015350

  Mayer bond orders larger than 0.100000
B(  0-S ,  1-C ) :   1.1372 B(  0-S ,  4-C ) :   1.1318 B(  1-C ,  2-C ) :   1.6176
B(  1-C , 32-H ) :   0.9663 B(  2-C ,  3-C ) :   1.2368 B(  2-C ,  6-C ) :   1.0119
B(  3-C ,  4-C ) :   1.5946 B(  3-C ,  5-H ) :   0.9823 B(  4-C , 20-C ) :   1.0494
B(  6-C ,  7-H ) :   0.9410 B(  6-C ,  8-H ) :   0.9423 B(  6-C ,  9-C ) :   1.0675
B(  9-C , 10-H ) :   0.9533 B(  9-C , 11-H ) :   0.9614 B(  9-C , 12-C ) :   1.0659
B( 12-C , 13-H ) :   0.9719 B( 12-C , 14-H ) :   0.9771 B( 12-C , 15-H ) :   0.9717
B( 16-S , 17-C ) :   1.1631 B( 16-S , 20-C ) :   1.1676 B( 17-C , 18-C ) :   1.5609
B( 17-C , 20-C ) :   0.1054 B( 17-C , 33-H ) :   0.9769 B( 18-C , 19-C ) :   1.3034
B( 18-C , 21-H ) :   1.0011 B( 19-C , 20-C ) :   1.5476 B( 19-C , 22-C ) :   1.0146
B( 22-C , 23-H ) :   0.9352 B( 22-C , 24-H ) :   0.9418 B( 22-C , 25-C ) :   1.0418
B( 25-C , 26-H ) :   0.9551 B( 25-C , 27-H ) :   0.9443 B( 25-C , 28-C ) :   1.0816
B( 28-C , 29-H ) :   0.9748 B( 28-C , 30-H ) :   0.9766 B( 28-C , 31-H ) :   0.9729

Dispersion correction           -0.015157843
FINAL SINGLE POINT ENERGY     -1339.876669398152

DIPOLE MOMENT
-------------
                                X             Y             Z
Electronic contribution:     12.50891      16.10006      21.49744
Nuclear contribution   :    -12.60739     -16.58478     -21.93915
                        -----------------------------------------
Total Dipole Moment    :     -0.09848      -0.48472      -0.44171
                        -----------------------------------------
Magnitude (a.u.)       :      0.66314
Magnitude (Debye)      :      1.68558

Rotational constants in cm-1:     0.017403     0.010243     0.007248
Rotational constants in MHz :   521.714941   307.078678   217.280835

                             ****ORCA TERMINATED NORMALLY****
TOTAL RUN TIME: 0 days 0 hours 0 minutes 31 seconds 783 msec
