                         Program Version 4.2.1 -  RELEASE  -
|  1> ! wB97X-D3 SP def2-SVP
|  2> %pal
|  3> nprocs 16
|  4> end
|  5>
|  6> * xyz 0 1
|  7> S 	 8.55573 	 21.6409 	 60.9697
|  8> C 	 9.04053 	 22.8396 	 59.7961
|  9> C 	 7.93043 	 23.252 	 59.049
| 10> C 	 6.73463 	 22.6149 	 59.5119
| 11> C 	 6.89243 	 21.8456 	 60.6355
| 12> H 	 5.69605 	 22.7709 	 59.119
| 13> C 	 7.85225 	 24.2655 	 57.9446
| 14> H 	 7.85877 	 25.2447 	 58.4441
| 15> H 	 6.85997 	 24.1115 	 57.5305
| 16> C 	 8.87314 	 24.2395 	 56.82
| 17> H 	 8.70005 	 25.2124 	 56.2994
| 18> H 	 9.89391 	 24.3505 	 57.2305
| 19> C 	 8.65107 	 23.0502 	 55.8042
| 20> H 	 9.42097 	 22.8033 	 55.1361
| 21> H 	 8.57951 	 22.0782 	 56.3135
| 22> H 	 7.76367 	 23.1283 	 55.2418
| 23> S 	 6.19505 	 19.643 	 62.2218
| 24> C 	 4.58846 	 19.6311 	 62.9638
| 25> C 	 3.85858 	 20.683 	 62.649
| 26> C 	 4.55416 	 21.5783 	 61.7666
| 27> C 	 5.87572 	 21.21 	 61.4951
| 28> H 	 2.86338 	 20.8034 	 63.0733
| 29> C 	 3.79367 	 22.861 	 61.2845
| 30> H 	 4.56888 	 23.5615 	 60.8973
| 31> H 	 3.40078 	 23.3636 	 62.0922
| 32> C 	 2.50473 	 22.6976 	 60.369
| 33> H 	 1.93259 	 23.5941 	 60.3886
| 34> H 	 1.87388 	 21.8534 	 60.7239
| 35> C 	 2.87041 	 22.4387 	 58.9123
| 36> H 	 2.02916 	 22.3321 	 58.142
| 37> H 	 3.41853 	 21.4971 	 58.8934
| 38> H 	 3.51511 	 23.1339 	 58.5708
| 39> H 	 10.0685 	 23.1016 	 59.8144
| 40> H 	 4.2457 	 18.8482 	 63.6257
| 41> *
| 42>
| 43>                          ****END OF INPUT****

CARTESIAN COORDINATES (ANGSTROEM)
---------------------------------
  S      8.555730   21.640900   60.969700
  C      9.040530   22.839600   59.796100
  C      7.930430   23.252000   59.049000
  C      6.734630   22.614900   59.511900
  C      6.892430   21.845600   60.635500
  H      5.696050   22.770900   59.119000
  C      7.852250   24.265500   57.944600
  H      7.858770   25.244700   58.444100
  H      6.859970   24.111500   57.530500
  C      8.873140   24.239500   56.820000
  H      8.700050   25.212400   56.299400
  H      9.893910   24.350500   57.230500
  C      8.651070   23.050200   55.804200
  H      9.420970   22.803300   55.136100
  H      8.579510   22.078200   56.313500
  H      7.763670   23.128300   55.241800
  S      6.195050   19.643000   62.221800
  C      4.588460   19.631100   62.963800
  C      3.858580   20.683000   62.649000
  C      4.554160   21.578300   61.766600
  C      5.875720   21.210000   61.495100
  H      2.863380   20.803400   63.073300
  C      3.793670   22.861000   61.284500
  H      4.568880   23.561500   60.897300
  H      3.400780   23.363600   62.092200
  C      2.504730   22.697600   60.369000
  H      1.932590   23.594100   60.388600
  H      1.873880   21.853400   60.723900
  C      2.870410   22.438700   58.912300
  H      2.029160   22.332100   58.142000
  H      3.418530   21.497100   58.893400
  H      3.515110   23.133900   58.570800
  H     10.068500   23.101600   59.814400
  H      4.245700   18.848200   63.625700

 Total Charge           Charge          ....    0
 Multiplicity           Mult            ....    1
 Number of Electrons    NEL             ....  134
 Basis Dimension        Dim             ....  322

ORBITAL ENERGIES
----------------

  NO   OCC          E(Eh)            E(eV)
   0   2.0000     -88.964183     -2420.8385
   1   2.0000     -88.961686     -2420.7706
   2   2.0000     -10.332876      -281.1719
   3   2.0000     -10.327294      -281.0200
   4   2.0000     -10.314130      -280.6617
   5   2.0000     -10.313452      -280.6433
   6   2.0000     -10.308746      -280.5152
   7   2.0000     -10.304754      -280.4066
   8   2.0000     -10.296307      -280.1768
   9   2.0000     -10.293936      -280.1123
  10   2.0000     -10.293252      -280.0936
  11   2.0000     -10.291922      -280.0574
  12   2.0000     -10.291333      -280.0414
  13   2.0000     -10.289994      -280.0050
  14   2.0000     -10.272823      -279.5377
  15   2.0000     -10.271630      -279.5052
  16   2.0000      -8.078889      -219.8377
  17   2.0000      -8.077736      -219.8064
  18   2.0000      -6.037549      -164.2901
  19   2.0000      -6.036174      -164.2526
  20   2.0000      -6.033553      -164.1813
  21   2.0000      -6.031982      -164.1386
  22   2.0000      -6.029345      -164.0668
  23   2.0000      -6.028583      -164.0461
  24   2.0000      -1.009705       -27.4755
  25   2.0000      -0.987787       -26.8791
  26   2.0000      -0.912500       -24.8304
  27   2.0000      -0.902665       -24.5628
  28   2.0000      -0.870556       -23.6890
  29   2.0000      -0.850112       -23.1327
  30   2.0000      -0.843851       -22.9624
  31   2.0000      -0.817713       -22.2511
  32   2.0000      -0.786806       -21.4101
  33   2.0000      -0.776061       -21.1177
  34   2.0000      -0.713706       -19.4209
  35   2.0000      -0.706034       -19.2122
  36   2.0000      -0.693411       -18.8687
  37   2.0000      -0.659983       -17.9591
  38   2.0000      -0.642862       -17.4932
  39   2.0000      -0.612177       -16.6582
  40   2.0000      -0.595764       -16.2116
  41   2.0000      -0.572717       -15.5844
  42   2.0000      -0.557155       -15.1610
  43   2.0000      -0.550782       -14.9875
  44   2.0000      -0.543792       -14.7973
  45   2.0000      -0.534084       -14.5332
  46   2.0000      -0.519039       -14.1238
  47   2.0000      -0.514397       -13.9974
  48   2.0000      -0.500312       -13.6142
  49   2.0000      -0.498148       -13.5553
  50   2.0000      -0.489440       -13.3183
  51   2.0000      -0.478550       -13.0220
  52   2.0000      -0.470621       -12.8063
  53   2.0000      -0.465696       -12.6722
  54   2.0000      -0.462575       -12.5873
  55   2.0000      -0.447245       -12.1702
  56   2.0000      -0.443898       -12.0791
  57   2.0000      -0.439937       -11.9713
  58   2.0000      -0.431528       -11.7425
  59   2.0000      -0.427996       -11.6464
  60   2.0000      -0.424483       -11.5508
  61   2.0000      -0.415174       -11.2974
  62   2.0000      -0.411361       -11.1937
  63   2.0000      -0.359560        -9.7841
  64   2.0000      -0.333065        -9.0632
  65   2.0000      -0.327037        -8.8991
  66   2.0000      -0.288406        -7.8479
  67   0.0000       0.026622         0.7244
  68   0.0000       0.080434         2.1887
  69   0.0000       0.103112         2.8058
  70   0.0000       0.123414         3.3583
  71   0.0000       0.134090         3.6488

MULLIKEN ATOMIC CHARGES
-----------------------
   0 S :    0.094732
   1 C :   -0.137130
   2 C :   -0.070061
   3 C :   -0.003088
   4 C :   -0.135196
   5 H :    0.000455
   6 C :    0.061339
   7 H :    0.047689
   8 H :    0.013975
   9 C :   -0.062602
  10 H :    0.032443
  11 H :    0.033082
  12 C :   -0.027832
  13 H :    0.020765
  14 H :    0.030055
  15 H :    0.022261
  16 S :    0.087878
  17 C :   -0.079363
  18 C :   -0.017560
  19 C :   -0.063252
  20 C :   -0.106444
  21 H :    0.024516
  22 C :    0.053449
  23 H :    0.029654
  24 H :    0.008686
  25 C :   -0.066400
  26 H :    0.027239
  27 H :    0.037890
  28 C :   -0.045115
  29 H :    0.043476
  30 H :    0.034523
  31 H :    0.013045
  32 H :    0.044359
  33 H :    0.052532
Sum of atomic charges:    0.0000000

LOEWDIN ATOMIC CHARGES
----------------------
   0 S :    0.420576
   1 C :   -0.194595
   2 C :   -0.060055
   3 C :   -0.078278
   4 C :   -0.200644
   5 H :    0.036483
   6 C :   -0.035764
   7 H :    0.040637
   8 H :    0.029143
   9 C :   -0.039498
  10 H :    0.030417
  11 H :    0.025166
  12 C :   -0.066556
  13 H :    0.021068
  14 H :    0.032125
  15 H :    0.020962
  16 S :    0.381390
  17 C :   -0.167653
  18 C :   -0.074013
  19 C :   -0.055350
  20 C :   -0.192620
  21 H :    0.038292
  22 C :   -0.028704
  23 H :    0.033130
  24 H :    0.020382
  25 C :   -0.030363
  26 H :    0.019526
  27 H :    0.028628
  28 C :   -0.067896
  29 H :    0.034529
  30 H :    0.028191
  31 H :    0.001738
  32 H :    0.019410
  33 H :    0.030200

  Mayer bond orders larger than 0.100000
B(  0-S ,  1-C ) :   1.1481 B(  0-S ,  4-C ) :   1.1733 B(  1-C ,  2-C ) :   1.5545
B(  1-C ,  4-C ) :   0.1020 B(  1-C , 32-H ) :   0.9889 B(  2-C ,  3-C ) :   1.2557
B(  2-C ,  6-C ) :   1.0130 B(  3-C ,  4-C ) :   1.5662 B(  3-C ,  5-H ) :   0.9794
B(  4-C , 20-C ) :   1.0318 B(  6-C ,  7-H ) :   0.9303 B(  6-C ,  8-H ) :   0.9401
B(  6-C ,  9-C ) :   1.0831 B(  9-C , 10-H ) :   0.9545 B(  9-C , 11-H ) :   0.9576
B(  9-C , 12-C ) :   1.0578 B( 12-C , 13-H ) :   0.9768 B( 12-C , 14-H ) :   0.9771
B( 12-C , 15-H ) :   0.9755 B( 16-S , 17-C ) :   1.1274 B( 16-S , 20-C ) :   1.1251
B( 17-C , 18-C ) :   1.6636 B( 17-C , 33-H ) :   0.9631 B( 18-C , 19-C ) :   1.2077
B( 18-C , 21-H ) :   0.9901 B( 19-C , 20-C ) :   1.6279 B( 19-C , 22-C ) :   1.0314
B( 22-C , 23-H ) :   0.9424 B( 22-C , 24-H ) :   0.9341 B( 22-C , 25-C ) :   1.0594
B( 25-C , 26-H ) :   0.9579 B( 25-C , 27-H ) :   0.9573 B( 25-C , 28-C ) :   1.0800
B( 28-C , 29-H ) :   0.9696 B( 28-C , 30-H ) :   0.9746 B( 28-C , 31-H ) :   0.9641

Dispersion correction           -0.014597370
FINAL SINGLE POINT ENERGY     -1339.870935153890

DIPOLE MOMENT
-------------
                                X             Y             Z
Electronic contribution:     10.19377     -15.01121      21.99741
Nuclear contribution   :    -10.64525      15.47065     -22.23410
                        -----------------------------------------
Total Dipole Moment    :     -0.45148       0.45944      -0.23669
                        -----------------------------------------
Magnitude (a.u.)       :      0.68625
Magnitude (Debye)      :      1.74432

Rotational constants in cm-1:     0.019722     0.008755     0.006623
Rotational constants in MHz :   591.250215   262.480430   198.540452

                             ****ORCA TERMINATED NORMALLY****
TOTAL RUN TIME: 0 days 0 hours 0 minutes 35 seconds 333 msec
