                         Program Version 4.2.1 -  RELEASE  -
|  1> ! wB97X-D3 SP def2-SVP
|  2> %pal
|  3> nprocs 16
|  4> end
|  5>
|  6> * xyz 0 1
|  7> S 	 -64.694 	 53.0505 	 124.234
|  8> C 	 -64.4189 	 52.3421 	 125.806
|  9> C 	 -65.3754 	 51.339 	 126.077
| 10> C 	 -66.2365 	 51.1833 	 124.945
| 11> C 	 -65.8234 	 51.7943 	 123.794
| 12> H 	 -67.0494 	 50.4716 	 124.907
| 13> C 	 -65.2124 	 50.3231 	 127.198
| 14> H 	 -65.8965 	 50.5755 	 127.983
| 15> H 	 -64.2909 	 50.4934 	 127.72
| 16> C 	 -65.2409 	 48.7868 	 126.896
| 17> H 	 -65.0963 	 48.2387 	 127.816
| 18> H 	 -66.1187 	 48.4986 	 126.375
| 19> C 	 -64.0937 	 48.3501 	 125.928
| 20> H 	 -64.1638 	 47.2907 	 125.875
| 21> H 	 -64.3393 	 48.6767 	 124.929
| 22> H 	 -63.0746 	 48.5716 	 126.259
| 23> S 	 -65.8429 	 52.8462 	 121.255
| 24> C 	 -67.1511 	 52.3085 	 120.151
| 25> C 	 -67.9374 	 51.2888 	 120.633
| 26> C 	 -67.6016 	 51.0025 	 122.027
| 27> C 	 -66.5045 	 51.7906 	 122.457
| 28> H 	 -68.7579 	 50.9839 	 120.062
| 29> C 	 -68.5818 	 50.0563 	 122.738
| 30> H 	 -69.4922 	 50.142 	 122.163
| 31> H 	 -68.9806 	 50.5028 	 123.659
| 32> C 	 -68.246 	 48.57 	 122.88
| 33> H 	 -67.1666 	 48.5468 	 123.057
| 34> H 	 -68.2892 	 47.996 	 121.93
| 35> C 	 -69.2475 	 47.8341 	 123.904
| 36> H 	 -68.9139 	 48.3445 	 124.834
| 37> H 	 -68.9388 	 46.7592 	 123.947
| 38> H 	 -70.2848 	 47.8965 	 123.799
| 39> H 	 -63.4066 	 52.409 	 126.245
| 40> H 	 -67.3398 	 52.6787 	 119.189
| 41> *
| 42>
| 43>                          ****END OF INPUT****

CARTESIAN COORDINATES (ANGSTROEM)
---------------------------------
  S    -64.694000   53.050500  124.234000
  C    -64.418900   52.342100  125.806000
  C    -65.375400   51.339000  126.077000
  C    -66.236500   51.183300  124.945000
  C    -65.823400   51.794300  123.794000
  H    -67.049400   50.471600  124.907000
  C    -65.212400   50.323100  127.198000
  H    -65.896500   50.575500  127.983000
  H    -64.290900   50.493400  127.720000
  C    -65.240900   48.786800  126.896000
  H    -65.096300   48.238700  127.816000
  H    -66.118700   48.498600  126.375000
  C    -64.093700   48.350100  125.928000
  H    -64.163800   47.290700  125.875000
  H    -64.339300   48.676700  124.929000
  H    -63.074600   48.571600  126.259000
  S    -65.842900   52.846200  121.255000
  C    -67.151100   52.308500  120.151000
  C    -67.937400   51.288800  120.633000
  C    -67.601600   51.002500  122.027000
  C    -66.504500   51.790600  122.457000
  H    -68.757900   50.983900  120.062000
  C    -68.581800   50.056300  122.738000
  H    -69.492200   50.142000  122.163000
  H    -68.980600   50.502800  123.659000
  C    -68.246000   48.570000  122.880000
  H    -67.166600   48.546800  123.057000
  H    -68.289200   47.996000  121.930000
  C    -69.247500   47.834100  123.904000
  H    -68.913900   48.344500  124.834000
  H    -68.938800   46.759200  123.947000
  H    -70.284800   47.896500  123.799000
  H    -63.406600   52.409000  126.245000
  H    -67.339800   52.678700  119.189000

 Total Charge           Charge          ....    0
 Multiplicity           Mult            ....    1
 Number of Electrons    NEL             ....  134
 Basis Dimension        Dim             ....  322

ORBITAL ENERGIES
----------------

  NO   OCC          E(Eh)            E(eV)
   0   2.0000     -88.973746     -2421.0987
   1   2.0000     -88.960826     -2420.7471
   2   2.0000     -10.336957      -281.2829
   3   2.0000     -10.331852      -281.1440
   4   2.0000     -10.317189      -280.7450
   5   2.0000     -10.314338      -280.6674
   6   2.0000     -10.314031      -280.6590
   7   2.0000     -10.307464      -280.4804
   8   2.0000     -10.297845      -280.2186
   9   2.0000     -10.296595      -280.1846
  10   2.0000     -10.295191      -280.1464
  11   2.0000     -10.291985      -280.0592
  12   2.0000     -10.290697      -280.0241
  13   2.0000     -10.290181      -280.0101
  14   2.0000     -10.288447      -279.9629
  15   2.0000     -10.271598      -279.5044
  16   2.0000      -8.087914      -220.0833
  17   2.0000      -8.076153      -219.7633
  18   2.0000      -6.046502      -164.5337
  19   2.0000      -6.042704      -164.4303
  20   2.0000      -6.038436      -164.3142
  21   2.0000      -6.034771      -164.2145
  22   2.0000      -6.030684      -164.1033
  23   2.0000      -6.026669      -163.9940
  24   2.0000      -1.005654       -27.3652
  25   2.0000      -0.981740       -26.7145
  26   2.0000      -0.908193       -24.7132
  27   2.0000      -0.904422       -24.6106
  28   2.0000      -0.867904       -23.6169
  29   2.0000      -0.849918       -23.1274
  30   2.0000      -0.842835       -22.9347
  31   2.0000      -0.817684       -22.2503
  32   2.0000      -0.784510       -21.3476
  33   2.0000      -0.772548       -21.0221
  34   2.0000      -0.713000       -19.4017
  35   2.0000      -0.702402       -19.1133
  36   2.0000      -0.687368       -18.7042
  37   2.0000      -0.666574       -18.1384
  38   2.0000      -0.637782       -17.3549
  39   2.0000      -0.625704       -17.0263
  40   2.0000      -0.597373       -16.2553
  41   2.0000      -0.570271       -15.5179
  42   2.0000      -0.557459       -15.1692
  43   2.0000      -0.546461       -14.8700
  44   2.0000      -0.544077       -14.8051
  45   2.0000      -0.526842       -14.3361
  46   2.0000      -0.518223       -14.1016
  47   2.0000      -0.510844       -13.9008
  48   2.0000      -0.501442       -13.6449
  49   2.0000      -0.498415       -13.5626
  50   2.0000      -0.495464       -13.4822
  51   2.0000      -0.475863       -12.9489
  52   2.0000      -0.470764       -12.8101
  53   2.0000      -0.464189       -12.6312
  54   2.0000      -0.460900       -12.5417
  55   2.0000      -0.452336       -12.3087
  56   2.0000      -0.447797       -12.1852
  57   2.0000      -0.443003       -12.0547
  58   2.0000      -0.433976       -11.8091
  59   2.0000      -0.430846       -11.7239
  60   2.0000      -0.425395       -11.5756
  61   2.0000      -0.410919       -11.1817
  62   2.0000      -0.397579       -10.8187
  63   2.0000      -0.357808        -9.7364
  64   2.0000      -0.338359        -9.2072
  65   2.0000      -0.323825        -8.8117
  66   2.0000      -0.283532        -7.7153
  67   0.0000       0.015381         0.4185
  68   0.0000       0.079070         2.1516
  69   0.0000       0.087167         2.3719
  70   0.0000       0.107306         2.9199
  71   0.0000       0.119741         3.2583

MULLIKEN ATOMIC CHARGES
-----------------------
   0 S :    0.066968
   1 C :   -0.125326
   2 C :   -0.082046
   3 C :   -0.017591
   4 C :   -0.073374
   5 H :   -0.008755
   6 C :    0.079986
   7 H :    0.027925
   8 H :    0.003788
   9 C :   -0.062122
  10 H :    0.033372
  11 H :    0.022302
  12 C :   -0.050649
  13 H :    0.018214
  14 H :    0.038476
  15 H :    0.033498
  16 S :    0.109198
  17 C :   -0.065709
  18 C :   -0.007251
  19 C :   -0.071995
  20 C :   -0.115057
  21 H :    0.009422
  22 C :    0.031142
  23 H :    0.007648
  24 H :    0.032633
  25 C :   -0.071639
  26 H :    0.034528
  27 H :    0.029662
  28 C :   -0.058672
  29 H :    0.034588
  30 H :    0.047754
  31 H :    0.041796
  32 H :    0.075575
  33 H :    0.031714
Sum of atomic charges:   -0.0000000

LOEWDIN ATOMIC CHARGES
----------------------
   0 S :    0.387066
   1 C :   -0.206821
   2 C :   -0.053391
   3 C :   -0.072986
   4 C :   -0.179021
   5 H :    0.024279
   6 C :   -0.034751
   7 H :    0.030928
   8 H :    0.028173
   9 C :   -0.028231
  10 H :    0.026305
  11 H :    0.017179
  12 C :   -0.061620
  13 H :    0.020967
  14 H :    0.025219
  15 H :    0.023534
  16 S :    0.397617
  17 C :   -0.160579
  18 C :   -0.054213
  19 C :   -0.053504
  20 C :   -0.196596
  21 H :    0.026849
  22 C :   -0.045263
  23 H :    0.030055
  24 H :    0.031260
  25 C :   -0.044268
  26 H :    0.025818
  27 H :    0.024594
  28 C :   -0.061960
  29 H :    0.028379
  30 H :    0.034494
  31 H :    0.018901
  32 H :    0.034501
  33 H :    0.017087

  Mayer bond orders larger than 0.100000
B(  0-S ,  1-C ) :   1.1383 B(  0-S ,  4-C ) :   1.1431 B(  1-C ,  2-C ) :   1.6033
B(  1-C ,  4-C ) :   0.1019 B(  1-C , 32-H ) :   0.9551 B(  2-C ,  3-C ) :   1.2422
B(  2-C ,  6-C ) :   1.0263 B(  3-C ,  4-C ) :   1.5896 B(  3-C ,  5-H ) :   0.9910
B(  4-C , 20-C ) :   1.0534 B(  6-C ,  7-H ) :   0.9294 B(  6-C ,  8-H ) :   0.9417
B(  6-C ,  9-C ) :   1.0720 B(  9-C , 10-H ) :   0.9561 B(  9-C , 11-H ) :   0.9563
B(  9-C , 12-C ) :   1.0781 B( 12-C , 13-H ) :   0.9737 B( 12-C , 14-H ) :   0.9757
B( 12-C , 15-H ) :   0.9776 B( 16-S , 17-C ) :   1.1261 B( 16-S , 20-C ) :   1.1367
B( 17-C , 18-C ) :   1.6667 B( 17-C , 33-H ) :   0.9685 B( 18-C , 19-C ) :   1.2216
B( 18-C , 21-H ) :   0.9885 B( 19-C , 20-C ) :   1.6038 B( 19-C , 22-C ) :   1.0285
B( 22-C , 23-H ) :   0.9268 B( 22-C , 24-H ) :   0.9428 B( 22-C , 25-C ) :   1.0441
B( 25-C , 26-H ) :   0.9643 B( 25-C , 27-H ) :   0.9543 B( 25-C , 28-C ) :   1.0483
B( 28-C , 29-H ) :   0.9816 B( 28-C , 30-H ) :   0.9756 B( 28-C , 31-H ) :   0.9804

Dispersion correction           -0.015024849
FINAL SINGLE POINT ENERGY     -1339.842656551598

DIPOLE MOMENT
-------------
                                X             Y             Z
Electronic contribution:      8.40093      27.29952     -13.49277
Nuclear contribution   :     -8.84046     -28.00984      13.55515
                        -----------------------------------------
Total Dipole Moment    :     -0.43953      -0.71032       0.06238
                        -----------------------------------------
Magnitude (a.u.)       :      0.83763
Magnitude (Debye)      :      2.12910

Rotational constants in cm-1:     0.016038     0.011000     0.007126
Rotational constants in MHz :   480.803647   329.786436   213.636376

                             ****ORCA TERMINATED NORMALLY****
TOTAL RUN TIME: 0 days 0 hours 0 minutes 35 seconds 180 msec
