                         Program Version 4.2.1 -  RELEASE  -
|  1> ! wB97X-D3 SP def2-SVP
|  2> %pal
|  3> nprocs 16
|  4> end
|  5>
|  6> * xyz 0 1
|  7> S 	 -12.9795 	 46.2709 	 41.4051
|  8> C 	 -13.3787 	 46.718 	 39.764
|  9> C 	 -12.7982 	 45.8448 	 38.8705
| 10> C 	 -11.9148 	 44.905 	 39.5205
| 11> C 	 -11.7412 	 45.1338 	 40.8635
| 12> H 	 -11.2832 	 44.1981 	 39.0088
| 13> C 	 -12.9221 	 45.9007 	 37.3739
| 14> H 	 -11.9463 	 45.7767 	 36.9105
| 15> H 	 -13.2568 	 46.868 	 37.1548
| 16> C 	 -13.8775 	 44.8824 	 36.7956
| 17> H 	 -13.7051 	 43.924 	 37.195
| 18> H 	 -14.9256 	 45.1859 	 36.8811
| 19> C 	 -13.7493 	 44.8107 	 35.2599
| 20> H 	 -14.4011 	 44.1141 	 34.7691
| 21> H 	 -13.9862 	 45.8522 	 34.8791
| 22> H 	 -12.7944 	 44.4213 	 34.8988
| 23> S 	 -11.9213 	 43.4527 	 42.9513
| 24> C 	 -10.353 	 42.7718 	 43.6018
| 25> C 	 -9.21719 	 43.0905 	 42.8779
| 26> C 	 -9.61468 	 43.9941 	 41.797
| 27> C 	 -11.0005 	 44.2769 	 41.7577
| 28> H 	 -8.15394 	 42.6956 	 43.0525
| 29> C 	 -8.58211 	 44.2798 	 40.6942
| 30> H 	 -9.03564 	 44.7807 	 39.8527
| 31> H 	 -8.22838 	 43.2838 	 40.3845
| 32> C 	 -7.34423 	 45.0539 	 41.1793
| 33> H 	 -6.79877 	 44.4368 	 41.9687
| 34> H 	 -7.59483 	 45.9937 	 41.5447
| 35> C 	 -6.31124 	 45.0824 	 40.0388
| 36> H 	 -6.55688 	 45.6014 	 39.1289
| 37> H 	 -6.04268 	 44.0627 	 39.6796
| 38> H 	 -5.37226 	 45.5215 	 40.4217
| 39> H 	 -14.0565 	 47.5108 	 39.5454
| 40> H 	 -10.3283 	 42.0063 	 44.3888
| 41> *
| 42>
| 43>                          ****END OF INPUT****

CARTESIAN COORDINATES (ANGSTROEM)
---------------------------------
  S    -12.979500   46.270900   41.405100
  C    -13.378700   46.718000   39.764000
  C    -12.798200   45.844800   38.870500
  C    -11.914800   44.905000   39.520500
  C    -11.741200   45.133800   40.863500
  H    -11.283200   44.198100   39.008800
  C    -12.922100   45.900700   37.373900
  H    -11.946300   45.776700   36.910500
  H    -13.256800   46.868000   37.154800
  C    -13.877500   44.882400   36.795600
  H    -13.705100   43.924000   37.195000
  H    -14.925600   45.185900   36.881100
  C    -13.749300   44.810700   35.259900
  H    -14.401100   44.114100   34.769100
  H    -13.986200   45.852200   34.879100
  H    -12.794400   44.421300   34.898800
  S    -11.921300   43.452700   42.951300
  C    -10.353000   42.771800   43.601800
  C     -9.217190   43.090500   42.877900
  C     -9.614680   43.994100   41.797000
  C    -11.000500   44.276900   41.757700
  H     -8.153940   42.695600   43.052500
  C     -8.582110   44.279800   40.694200
  H     -9.035640   44.780700   39.852700
  H     -8.228380   43.283800   40.384500
  C     -7.344230   45.053900   41.179300
  H     -6.798770   44.436800   41.968700
  H     -7.594830   45.993700   41.544700
  C     -6.311240   45.082400   40.038800
  H     -6.556880   45.601400   39.128900
  H     -6.042680   44.062700   39.679600
  H     -5.372260   45.521500   40.421700
  H    -14.056500   47.510800   39.545400
  H    -10.328300   42.006300   44.388800

 Total Charge           Charge          ....    0
 Multiplicity           Mult            ....    1
 Number of Electrons    NEL             ....  134
 Basis Dimension        Dim             ....  322

ORBITAL ENERGIES
----------------

  NO   OCC          E(Eh)            E(eV)
   0   2.0000     -88.969021     -2420.9701
   1   2.0000     -88.962700     -2420.7981
   2   2.0000     -10.326859      -281.0081
   3   2.0000     -10.325334      -280.9666
   4   2.0000     -10.324674      -280.9487
   5   2.0000     -10.313547      -280.6459
   6   2.0000     -10.307304      -280.4760
   7   2.0000     -10.306913      -280.4653
   8   2.0000     -10.300479      -280.2903
   9   2.0000     -10.292299      -280.0677
  10   2.0000     -10.291910      -280.0571
  11   2.0000     -10.287915      -279.9484
  12   2.0000     -10.285383      -279.8795
  13   2.0000     -10.282233      -279.7938
  14   2.0000     -10.279900      -279.7303
  15   2.0000     -10.279385      -279.7163
  16   2.0000      -8.083066      -219.9514
  17   2.0000      -8.077561      -219.8016
  18   2.0000      -6.041659      -164.4019
  19   2.0000      -6.037876      -164.2990
  20   2.0000      -6.036093      -164.2504
  21   2.0000      -6.033559      -164.1815
  22   2.0000      -6.032157      -164.1433
  23   2.0000      -6.028170      -164.0348
  24   2.0000      -1.005032       -27.3483
  25   2.0000      -0.978047       -26.6140
  26   2.0000      -0.917143       -24.9567
  27   2.0000      -0.907406       -24.6918
  28   2.0000      -0.872096       -23.7309
  29   2.0000      -0.848581       -23.0911
  30   2.0000      -0.844314       -22.9750
  31   2.0000      -0.814381       -22.1604
  32   2.0000      -0.779259       -21.2047
  33   2.0000      -0.764802       -20.8113
  34   2.0000      -0.706066       -19.2130
  35   2.0000      -0.699483       -19.0339
  36   2.0000      -0.693458       -18.8699
  37   2.0000      -0.659607       -17.9488
  38   2.0000      -0.645635       -17.5686
  39   2.0000      -0.621014       -16.8987
  40   2.0000      -0.590839       -16.0775
  41   2.0000      -0.573515       -15.6061
  42   2.0000      -0.569666       -15.5014
  43   2.0000      -0.563149       -15.3241
  44   2.0000      -0.529078       -14.3970
  45   2.0000      -0.521686       -14.1958
  46   2.0000      -0.516135       -14.0447
  47   2.0000      -0.508807       -13.8453
  48   2.0000      -0.506610       -13.7856
  49   2.0000      -0.494097       -13.4451
  50   2.0000      -0.492642       -13.4055
  51   2.0000      -0.474905       -12.9228
  52   2.0000      -0.469786       -12.7835
  53   2.0000      -0.461234       -12.5508
  54   2.0000      -0.454342       -12.3633
  55   2.0000      -0.452350       -12.3091
  56   2.0000      -0.449566       -12.2333
  57   2.0000      -0.438007       -11.9188
  58   2.0000      -0.432518       -11.7694
  59   2.0000      -0.425878       -11.5887
  60   2.0000      -0.422800       -11.5050
  61   2.0000      -0.416453       -11.3323
  62   2.0000      -0.414889       -11.2897
  63   2.0000      -0.350215        -9.5298
  64   2.0000      -0.329280        -8.9602
  65   2.0000      -0.325119        -8.8469
  66   2.0000      -0.290363        -7.9012
  67   0.0000       0.033947         0.9238
  68   0.0000       0.063818         1.7366
  69   0.0000       0.094016         2.5583
  70   0.0000       0.119054         3.2396
  71   0.0000       0.129481         3.5234

MULLIKEN ATOMIC CHARGES
-----------------------
   0 S :    0.093567
   1 C :   -0.111148
   2 C :   -0.083411
   3 C :    0.035804
   4 C :   -0.145368
   5 H :    0.014296
   6 C :    0.106730
   7 H :    0.023785
   8 H :   -0.004527
   9 C :   -0.047702
  10 H :    0.021604
  11 H :    0.032789
  12 C :   -0.069550
  13 H :    0.026038
  14 H :    0.035000
  15 H :    0.024132
  16 S :    0.109005
  17 C :   -0.099126
  18 C :   -0.047641
  19 C :   -0.031534
  20 C :   -0.162915
  21 H :    0.062952
  22 C :    0.045929
  23 H :    0.019405
  24 H :    0.029828
  25 C :   -0.067584
  26 H :    0.033452
  27 H :    0.028746
  28 C :   -0.052943
  29 H :    0.027021
  30 H :    0.021129
  31 H :    0.033444
  32 H :    0.040129
  33 H :    0.058662
Sum of atomic charges:    0.0000000

LOEWDIN ATOMIC CHARGES
----------------------
   0 S :    0.390522
   1 C :   -0.188156
   2 C :   -0.059756
   3 C :   -0.057674
   4 C :   -0.190234
   5 H :    0.027685
   6 C :   -0.025419
   7 H :    0.031367
   8 H :    0.022335
   9 C :   -0.032404
  10 H :    0.016476
  11 H :    0.029751
  12 C :   -0.069476
  13 H :    0.021306
  14 H :    0.030305
  15 H :    0.019701
  16 S :    0.390998
  17 C :   -0.164795
  18 C :   -0.071534
  19 C :   -0.055385
  20 C :   -0.213149
  21 H :    0.051818
  22 C :   -0.030087
  23 H :    0.023981
  24 H :    0.033218
  25 C :   -0.031344
  26 H :    0.030896
  27 H :    0.016588
  28 C :   -0.069845
  29 H :    0.018701
  30 H :    0.025571
  31 H :    0.027245
  32 H :    0.023775
  33 H :    0.027019

  Mayer bond orders larger than 0.100000
B(  0-S ,  1-C ) :   1.1312 B(  0-S ,  4-C ) :   1.1388 B(  1-C ,  2-C ) :   1.6158
B(  1-C , 32-H ) :   0.9750 B(  2-C ,  3-C ) :   1.2251 B(  2-C ,  6-C ) :   1.0319
B(  3-C ,  4-C ) :   1.5836 B(  3-C ,  5-H ) :   0.9914 B(  4-C , 20-C ) :   1.0414
B(  6-C ,  7-H ) :   0.9462 B(  6-C ,  8-H ) :   0.9275 B(  6-C ,  9-C ) :   1.0652
B(  9-C , 10-H ) :   0.9603 B(  9-C , 11-H ) :   0.9548 B(  9-C , 12-C ) :   1.0819
B( 12-C , 13-H ) :   0.9749 B( 12-C , 14-H ) :   0.9747 B( 12-C , 15-H ) :   0.9746
B( 16-S , 17-C ) :   1.1250 B( 16-S , 20-C ) :   1.1371 B( 17-C , 18-C ) :   1.6558
B( 17-C , 33-H ) :   0.9626 B( 18-C , 19-C ) :   1.2075 B( 18-C , 21-H ) :   0.9700
B( 19-C , 20-C ) :   1.6197 B( 19-C , 22-C ) :   1.0411 B( 22-C , 23-H ) :   0.9381
B( 22-C , 24-H ) :   0.9419 B( 22-C , 25-C ) :   1.0611 B( 25-C , 26-H ) :   0.9553
B( 25-C , 27-H ) :   0.9598 B( 25-C , 28-C ) :   1.0766 B( 28-C , 29-H ) :   0.9758
B( 28-C , 30-H ) :   0.9728 B( 28-C , 31-H ) :   0.9750

Dispersion correction           -0.013261586
FINAL SINGLE POINT ENERGY     -1339.868913255145

DIPOLE MOMENT
-------------
                                X             Y             Z
Electronic contribution:    -13.30996      -0.16015      25.18566
Nuclear contribution   :     13.66714      -0.04729     -25.79053
                        -----------------------------------------
Total Dipole Moment    :      0.35719      -0.20743      -0.60487
                        -----------------------------------------
Magnitude (a.u.)       :      0.73245
Magnitude (Debye)      :      1.86173

Rotational constants in cm-1:     0.016957     0.008017     0.006394
Rotational constants in MHz :   508.363384   240.328998   191.689435

                             ****ORCA TERMINATED NORMALLY****
TOTAL RUN TIME: 0 days 0 hours 0 minutes 32 seconds 108 msec
