                         Program Version 4.2.1 -  RELEASE  -
|  1> ! wB97X-D3 SP def2-SVP
|  2> %pal
|  3> nprocs 16
|  4> end
|  5>
|  6> * xyz 0 1
|  7> S 	 -23.139 	 30.5837 	 44.853
|  8> C 	 -21.7088 	 30.4633 	 45.9731
|  9> C 	 -20.5163 	 30.5679 	 45.3384
| 10> C 	 -20.6637 	 30.7235 	 43.9241
| 11> C 	 -21.9748 	 30.7778 	 43.5192
| 12> H 	 -19.8286 	 30.9309 	 43.2432
| 13> C 	 -19.1353 	 30.5756 	 46.0235
| 14> H 	 -18.4683 	 30.3447 	 45.2378
| 15> H 	 -19.1132 	 29.7183 	 46.7037
| 16> C 	 -18.5649 	 31.8074 	 46.73
| 17> H 	 -18.5471 	 32.5596 	 45.9872
| 18> H 	 -19.3001 	 32.0044 	 47.448
| 19> C 	 -17.2089 	 31.3776 	 47.3528
| 20> H 	 -16.6375 	 30.6884 	 46.8064
| 21> H 	 -16.4859 	 32.2049 	 47.588
| 22> H 	 -17.4951 	 30.7263 	 48.1372
| 23> S 	 -23.5148 	 32.2718 	 41.7344
| 24> C 	 -23.6507 	 31.7416 	 40.1247
| 25> C 	 -22.6995 	 30.7499 	 39.799
| 26> C 	 -21.9791 	 30.3063 	 40.9319
| 27> C 	 -22.4099 	 30.939 	 42.1213
| 28> H 	 -22.6503 	 30.362 	 38.7922
| 29> C 	 -20.9591 	 29.2051 	 40.7886
| 30> H 	 -21.3116 	 28.6849 	 39.8857
| 31> H 	 -21.0982 	 28.5657 	 41.7051
| 32> C 	 -19.5053 	 29.6502 	 40.6213
| 33> H 	 -19.2871 	 30.2168 	 41.475
| 34> H 	 -19.5071 	 30.2465 	 39.7012
| 35> C 	 -18.4811 	 28.6005 	 40.5409
| 36> H 	 -18.5773 	 28.0932 	 41.4384
| 37> H 	 -17.445 	 29.0418 	 40.3449
| 38> H 	 -18.6826 	 27.8424 	 39.7578
| 39> H 	 -21.7501 	 30.3393 	 47.0208
| 40> H 	 -24.3536 	 32.1943 	 39.3857
| 41> *
| 42>
| 43>                          ****END OF INPUT****

CARTESIAN COORDINATES (ANGSTROEM)
---------------------------------
  S    -23.139000   30.583700   44.853000
  C    -21.708800   30.463300   45.973100
  C    -20.516300   30.567900   45.338400
  C    -20.663700   30.723500   43.924100
  C    -21.974800   30.777800   43.519200
  H    -19.828600   30.930900   43.243200
  C    -19.135300   30.575600   46.023500
  H    -18.468300   30.344700   45.237800
  H    -19.113200   29.718300   46.703700
  C    -18.564900   31.807400   46.730000
  H    -18.547100   32.559600   45.987200
  H    -19.300100   32.004400   47.448000
  C    -17.208900   31.377600   47.352800
  H    -16.637500   30.688400   46.806400
  H    -16.485900   32.204900   47.588000
  H    -17.495100   30.726300   48.137200
  S    -23.514800   32.271800   41.734400
  C    -23.650700   31.741600   40.124700
  C    -22.699500   30.749900   39.799000
  C    -21.979100   30.306300   40.931900
  C    -22.409900   30.939000   42.121300
  H    -22.650300   30.362000   38.792200
  C    -20.959100   29.205100   40.788600
  H    -21.311600   28.684900   39.885700
  H    -21.098200   28.565700   41.705100
  C    -19.505300   29.650200   40.621300
  H    -19.287100   30.216800   41.475000
  H    -19.507100   30.246500   39.701200
  C    -18.481100   28.600500   40.540900
  H    -18.577300   28.093200   41.438400
  H    -17.445000   29.041800   40.344900
  H    -18.682600   27.842400   39.757800
  H    -21.750100   30.339300   47.020800
  H    -24.353600   32.194300   39.385700

 Total Charge           Charge          ....    0
 Multiplicity           Mult            ....    1
 Number of Electrons    NEL             ....  134
 Basis Dimension        Dim             ....  322

ORBITAL ENERGIES
----------------

  NO   OCC          E(Eh)            E(eV)
   0   2.0000     -88.970014     -2420.9972
   1   2.0000     -88.967139     -2420.9189
   2   2.0000     -10.333206      -281.1808
   3   2.0000     -10.327354      -281.0216
   4   2.0000     -10.318688      -280.7858
   5   2.0000     -10.313734      -280.6510
   6   2.0000     -10.304192      -280.3913
   7   2.0000     -10.300071      -280.2792
   8   2.0000     -10.295743      -280.1614
   9   2.0000     -10.293163      -280.0912
  10   2.0000     -10.292704      -280.0787
  11   2.0000     -10.289224      -279.9840
  12   2.0000     -10.283922      -279.8397
  13   2.0000     -10.279836      -279.7286
  14   2.0000     -10.278069      -279.6805
  15   2.0000     -10.275908      -279.6217
  16   2.0000      -8.083124      -219.9530
  17   2.0000      -8.082246      -219.9291
  18   2.0000      -6.041843      -164.4069
  19   2.0000      -6.040516      -164.3708
  20   2.0000      -6.038063      -164.3041
  21   2.0000      -6.036718      -164.2674
  22   2.0000      -6.033548      -164.1812
  23   2.0000      -6.033230      -164.1725
  24   2.0000      -1.002111       -27.2688
  25   2.0000      -0.980791       -26.6887
  26   2.0000      -0.918737       -25.0001
  27   2.0000      -0.915921       -24.9235
  28   2.0000      -0.867120       -23.5955
  29   2.0000      -0.861633       -23.4462
  30   2.0000      -0.845448       -23.0058
  31   2.0000      -0.809438       -22.0259
  32   2.0000      -0.784602       -21.3501
  33   2.0000      -0.773126       -21.0378
  34   2.0000      -0.715597       -19.4724
  35   2.0000      -0.703349       -19.1391
  36   2.0000      -0.690321       -18.7846
  37   2.0000      -0.661621       -18.0036
  38   2.0000      -0.637687       -17.3523
  39   2.0000      -0.618542       -16.8314
  40   2.0000      -0.590514       -16.0687
  41   2.0000      -0.581247       -15.8165
  42   2.0000      -0.575987       -15.6734
  43   2.0000      -0.561968       -15.2919
  44   2.0000      -0.528007       -14.3678
  45   2.0000      -0.524458       -14.2712
  46   2.0000      -0.516937       -14.0666
  47   2.0000      -0.509603       -13.8670
  48   2.0000      -0.506113       -13.7720
  49   2.0000      -0.502500       -13.6737
  50   2.0000      -0.490597       -13.3498
  51   2.0000      -0.477539       -12.9945
  52   2.0000      -0.471252       -12.8234
  53   2.0000      -0.463962       -12.6250
  54   2.0000      -0.462703       -12.5908
  55   2.0000      -0.454796       -12.3756
  56   2.0000      -0.447825       -12.1859
  57   2.0000      -0.440834       -11.9957
  58   2.0000      -0.427644       -11.6368
  59   2.0000      -0.425973       -11.5913
  60   2.0000      -0.422653       -11.5010
  61   2.0000      -0.420080       -11.4309
  62   2.0000      -0.418739       -11.3945
  63   2.0000      -0.341535        -9.2936
  64   2.0000      -0.336748        -9.1634
  65   2.0000      -0.330280        -8.9874
  66   2.0000      -0.291113        -7.9216
  67   0.0000       0.025414         0.6915
  68   0.0000       0.068474         1.8633
  69   0.0000       0.102273         2.7830
  70   0.0000       0.117008         3.1840
  71   0.0000       0.128743         3.5033

MULLIKEN ATOMIC CHARGES
-----------------------
   0 S :    0.106012
   1 C :   -0.107314
   2 C :   -0.067450
   3 C :    0.005624
   4 C :   -0.134924
   5 H :    0.028601
   6 C :    0.007070
   7 H :    0.002176
   8 H :    0.023017
   9 C :    0.020247
  10 H :    0.021837
  11 H :    0.017212
  12 C :   -0.022352
  13 H :    0.006516
  14 H :    0.053564
  15 H :    0.014625
  16 S :    0.121884
  17 C :   -0.111192
  18 C :   -0.051008
  19 C :   -0.020233
  20 C :   -0.183342
  21 H :    0.018341
  22 C :    0.033828
  23 H :    0.019251
  24 H :    0.040634
  25 C :   -0.028135
  26 H :   -0.004546
  27 H :    0.021456
  28 C :   -0.013896
  29 H :    0.010726
  30 H :    0.050600
  31 H :    0.024450
  32 H :    0.023828
  33 H :    0.072896
Sum of atomic charges:   -0.0000000

LOEWDIN ATOMIC CHARGES
----------------------
   0 S :    0.365129
   1 C :   -0.165889
   2 C :   -0.062309
   3 C :   -0.064742
   4 C :   -0.180557
   5 H :    0.033959
   6 C :   -0.028376
   7 H :    0.019643
   8 H :    0.027998
   9 C :   -0.021699
  10 H :    0.019010
  11 H :    0.017829
  12 C :   -0.063927
  13 H :    0.018041
  14 H :    0.036406
  15 H :    0.026585
  16 S :    0.424451
  17 C :   -0.206360
  18 C :   -0.078438
  19 C :   -0.051159
  20 C :   -0.202995
  21 H :    0.030868
  22 C :   -0.033063
  23 H :    0.030166
  24 H :    0.036807
  25 C :   -0.039398
  26 H :    0.012980
  27 H :    0.024614
  28 C :   -0.061461
  29 H :    0.015859
  30 H :    0.038750
  31 H :    0.025608
  32 H :    0.018737
  33 H :    0.036931

  Mayer bond orders larger than 0.100000
B(  0-S ,  1-C ) :   1.1011 B(  0-S ,  4-C ) :   1.1327 B(  1-C ,  2-C ) :   1.6716
B(  1-C , 32-H ) :   0.9699 B(  2-C ,  3-C ) :   1.2184 B(  2-C ,  6-C ) :   0.9994
B(  3-C ,  4-C ) :   1.6036 B(  3-C ,  5-H ) :   0.9809 B(  4-C , 20-C ) :   1.0387
B(  6-C ,  7-H ) :   0.9395 B(  6-C ,  8-H ) :   0.9450 B(  6-C ,  9-C ) :   1.0562
B(  9-C , 10-H ) :   0.9567 B(  9-C , 11-H ) :   0.9600 B(  9-C , 12-C ) :   1.0610
B( 12-C , 13-H ) :   0.9737 B( 12-C , 14-H ) :   0.9741 B( 12-C , 15-H ) :   0.9701
B( 16-S , 17-C ) :   1.1868 B( 16-S , 20-C ) :   1.1549 B( 17-C , 18-C ) :   1.5609
B( 17-C , 20-C ) :   0.1084 B( 17-C , 33-H ) :   0.9617 B( 18-C , 19-C ) :   1.2800
B( 18-C , 21-H ) :   0.9916 B( 19-C , 20-C ) :   1.5478 B( 19-C , 22-C ) :   1.0418
B( 22-C , 23-H ) :   0.9315 B( 22-C , 24-H ) :   0.9278 B( 22-C , 25-C ) :   1.0732
B( 25-C , 26-H ) :   0.9484 B( 25-C , 27-H ) :   0.9465 B( 25-C , 28-C ) :   1.0956
B( 28-C , 29-H ) :   0.9685 B( 28-C , 30-H ) :   0.9703 B( 28-C , 31-H ) :   0.9711

Dispersion correction           -0.013947144
FINAL SINGLE POINT ENERGY     -1339.861734239574

DIPOLE MOMENT
-------------
                                X             Y             Z
Electronic contribution:    -29.75340       7.97083      -3.16311
Nuclear contribution   :     30.39821      -8.13041       3.06909
                        -----------------------------------------
Total Dipole Moment    :      0.64481      -0.15958      -0.09402
                        -----------------------------------------
Magnitude (a.u.)       :      0.67088
Magnitude (Debye)      :      1.70524

Rotational constants in cm-1:     0.017638     0.008491     0.006400
Rotational constants in MHz :   528.781652   254.558454   191.878765

                             ****ORCA TERMINATED NORMALLY****
TOTAL RUN TIME: 0 days 0 hours 0 minutes 34 seconds 52 msec
