                         Program Version 4.2.1 -  RELEASE  -
|  1> ! wB97X-D3 SP def2-SVP
|  2> %pal
|  3> nprocs 16
|  4> end
|  5>
|  6> * xyz 0 1
|  7> S 	 -20.0896 	 1.51719 	 78.009
|  8> C 	 -19.9772 	 -0.251234 	 78.0941
|  9> C 	 -21.0976 	 -0.794416 	 78.7637
| 10> C 	 -22.1299 	 0.185674 	 78.9413
| 11> C 	 -21.7782 	 1.48793 	 78.5191
| 12> H 	 -23.0786 	 0.0782492 	 79.4603
| 13> C 	 -21.2158 	 -2.18964 	 79.1985
| 14> H 	 -22.174 	 -2.49239 	 78.8389
| 15> H 	 -21.1779 	 -2.29991 	 80.2486
| 16> C 	 -20.1722 	 -3.15665 	 78.5639
| 17> H 	 -19.2479 	 -2.59805 	 78.7457
| 18> H 	 -20.0638 	 -4.06066 	 79.1858
| 19> C 	 -20.4579 	 -3.44176 	 76.989
| 20> H 	 -21.3336 	 -3.98522 	 76.7958
| 21> H 	 -20.6212 	 -2.57044 	 76.4039
| 22> H 	 -19.6005 	 -3.91156 	 76.6117
| 23> S 	 -21.9558 	 4.05929 	 79.4311
| 24> C 	 -23.395 	 5.02851 	 79.1504
| 25> C 	 -24.2992 	 4.26188 	 78.417
| 26> C 	 -23.957 	 2.90885 	 78.2082
| 27> C 	 -22.6372 	 2.70867 	 78.5095
| 28> H 	 -25.3222 	 4.73464 	 78.1206
| 29> C 	 -24.89 	 1.82282 	 77.6668
| 30> H 	 -24.2747 	 1.00545 	 77.2147
| 31> H 	 -25.3692 	 2.36457 	 76.7759
| 32> C 	 -25.8857 	 1.3817 	 78.7193
| 33> H 	 -26.5717 	 2.23036 	 78.965
| 34> H 	 -25.4321 	 1.08109 	 79.6111
| 35> C 	 -26.8372 	 0.257184 	 78.1818
| 36> H 	 -27.6746 	 0.149445 	 78.8774
| 37> H 	 -26.2675 	 -0.68649 	 78.2396
| 38> H 	 -27.1287 	 0.391485 	 77.1291
| 39> H 	 -18.9651 	 -0.713845 	 77.8819
| 40> H 	 -23.5927 	 6.01259 	 79.4911
| 41> *
| 42>
| 43>                          ****END OF INPUT****

CARTESIAN COORDINATES (ANGSTROEM)
---------------------------------
  S    -20.089600    1.517190   78.009000
  C    -19.977200   -0.251234   78.094100
  C    -21.097600   -0.794416   78.763700
  C    -22.129900    0.185674   78.941300
  C    -21.778200    1.487930   78.519100
  H    -23.078600    0.078249   79.460300
  C    -21.215800   -2.189640   79.198500
  H    -22.174000   -2.492390   78.838900
  H    -21.177900   -2.299910   80.248600
  C    -20.172200   -3.156650   78.563900
  H    -19.247900   -2.598050   78.745700
  H    -20.063800   -4.060660   79.185800
  C    -20.457900   -3.441760   76.989000
  H    -21.333600   -3.985220   76.795800
  H    -20.621200   -2.570440   76.403900
  H    -19.600500   -3.911560   76.611700
  S    -21.955800    4.059290   79.431100
  C    -23.395000    5.028510   79.150400
  C    -24.299200    4.261880   78.417000
  C    -23.957000    2.908850   78.208200
  C    -22.637200    2.708670   78.509500
  H    -25.322200    4.734640   78.120600
  C    -24.890000    1.822820   77.666800
  H    -24.274700    1.005450   77.214700
  H    -25.369200    2.364570   76.775900
  C    -25.885700    1.381700   78.719300
  H    -26.571700    2.230360   78.965000
  H    -25.432100    1.081090   79.611100
  C    -26.837200    0.257184   78.181800
  H    -27.674600    0.149445   78.877400
  H    -26.267500   -0.686490   78.239600
  H    -27.128700    0.391485   77.129100
  H    -18.965100   -0.713845   77.881900
  H    -23.592700    6.012590   79.491100

 Total Charge           Charge          ....    0
 Multiplicity           Mult            ....    1
 Number of Electrons    NEL             ....  134
 Basis Dimension        Dim             ....  322

ORBITAL ENERGIES
----------------

  NO   OCC          E(Eh)            E(eV)
   0   2.0000     -88.965373     -2420.8709
   1   2.0000     -88.964302     -2420.8417
   2   2.0000     -10.335493      -281.2431
   3   2.0000     -10.327785      -281.0333
   4   2.0000     -10.321999      -280.8759
   5   2.0000     -10.318230      -280.7733
   6   2.0000     -10.306372      -280.4506
   7   2.0000     -10.302600      -280.3480
   8   2.0000     -10.301799      -280.3262
   9   2.0000     -10.301630      -280.3216
  10   2.0000     -10.298545      -280.2377
  11   2.0000     -10.295880      -280.1651
  12   2.0000     -10.289542      -279.9927
  13   2.0000     -10.284513      -279.8558
  14   2.0000     -10.283575      -279.8303
  15   2.0000     -10.273046      -279.5438
  16   2.0000      -8.079436      -219.8526
  17   2.0000      -8.078643      -219.8311
  18   2.0000      -6.037946      -164.3009
  19   2.0000      -6.037201      -164.2806
  20   2.0000      -6.034090      -164.1959
  21   2.0000      -6.033242      -164.1729
  22   2.0000      -6.030197      -164.0900
  23   2.0000      -6.029330      -164.0664
  24   2.0000      -1.002508       -27.2796
  25   2.0000      -0.979975       -26.6665
  26   2.0000      -0.911587       -24.8055
  27   2.0000      -0.909268       -24.7424
  28   2.0000      -0.857775       -23.3412
  29   2.0000      -0.850063       -23.1314
  30   2.0000      -0.842612       -22.9286
  31   2.0000      -0.807950       -21.9854
  32   2.0000      -0.783543       -21.3213
  33   2.0000      -0.773170       -21.0390
  34   2.0000      -0.716554       -19.4984
  35   2.0000      -0.701521       -19.0894
  36   2.0000      -0.693307       -18.8658
  37   2.0000      -0.659193       -17.9376
  38   2.0000      -0.635615       -17.2960
  39   2.0000      -0.606112       -16.4932
  40   2.0000      -0.591984       -16.1087
  41   2.0000      -0.571606       -15.5542
  42   2.0000      -0.563804       -15.3419
  43   2.0000      -0.559821       -15.2335
  44   2.0000      -0.532213       -14.4822
  45   2.0000      -0.524879       -14.2827
  46   2.0000      -0.518145       -14.0994
  47   2.0000      -0.514217       -13.9926
  48   2.0000      -0.506942       -13.7946
  49   2.0000      -0.497541       -13.5388
  50   2.0000      -0.490178       -13.3384
  51   2.0000      -0.479077       -13.0363
  52   2.0000      -0.470203       -12.7949
  53   2.0000      -0.461342       -12.5538
  54   2.0000      -0.456843       -12.4313
  55   2.0000      -0.451412       -12.2835
  56   2.0000      -0.442089       -12.0299
  57   2.0000      -0.438122       -11.9219
  58   2.0000      -0.434977       -11.8363
  59   2.0000      -0.430017       -11.7014
  60   2.0000      -0.418247       -11.3811
  61   2.0000      -0.416417       -11.3313
  62   2.0000      -0.411514       -11.1979
  63   2.0000      -0.343993        -9.3605
  64   2.0000      -0.330804        -9.0016
  65   2.0000      -0.327579        -8.9139
  66   2.0000      -0.289902        -7.8886
  67   0.0000       0.027413         0.7460
  68   0.0000       0.065347         1.7782
  69   0.0000       0.107703         2.9308
  70   0.0000       0.124846         3.3972
  71   0.0000       0.127085         3.4582

MULLIKEN ATOMIC CHARGES
-----------------------
   0 S :    0.107264
   1 C :   -0.165341
   2 C :   -0.098133
   3 C :    0.019784
   4 C :   -0.155889
   5 H :    0.010651
   6 C :    0.109009
   7 H :    0.014046
   8 H :    0.036732
   9 C :   -0.107480
  10 H :    0.021909
  11 H :    0.033427
  12 C :   -0.014031
  13 H :    0.024607
  14 H :    0.027312
  15 H :    0.029131
  16 S :    0.093450
  17 C :   -0.078751
  18 C :   -0.067718
  19 C :   -0.044955
  20 C :   -0.134355
  21 H :    0.045341
  22 C :    0.022407
  23 H :    0.046665
  24 H :    0.040994
  25 C :   -0.069328
  26 H :    0.034590
  27 H :    0.024582
  28 C :   -0.046768
  29 H :    0.039783
  30 H :    0.028354
  31 H :    0.040393
  32 H :    0.084626
  33 H :    0.047691
Sum of atomic charges:    0.0000000

LOEWDIN ATOMIC CHARGES
----------------------
   0 S :    0.393089
   1 C :   -0.209528
   2 C :   -0.059232
   3 C :   -0.068981
   4 C :   -0.188652
   5 H :    0.031541
   6 C :   -0.030989
   7 H :    0.027434
   8 H :    0.031663
   9 C :   -0.033814
  10 H :    0.019764
  11 H :    0.026397
  12 C :   -0.054581
  13 H :    0.020627
  14 H :    0.024790
  15 H :    0.021554
  16 S :    0.392790
  17 C :   -0.181457
  18 C :   -0.080941
  19 C :   -0.063115
  20 C :   -0.189505
  21 H :    0.043320
  22 C :   -0.035168
  23 H :    0.035649
  24 H :    0.040783
  25 C :   -0.037166
  26 H :    0.030280
  27 H :    0.015052
  28 C :   -0.065512
  29 H :    0.026689
  30 H :    0.024804
  31 H :    0.027709
  32 H :    0.039230
  33 H :    0.025478

  Mayer bond orders larger than 0.100000
B(  0-S ,  1-C ) :   1.1355 B(  0-S ,  4-C ) :   1.1667 B(  1-C ,  2-C ) :   1.5766
B(  1-C ,  4-C ) :   0.1047 B(  1-C , 32-H ) :   0.9552 B(  2-C ,  3-C ) :   1.2508
B(  2-C ,  6-C ) :   1.0216 B(  3-C ,  4-C ) :   1.5543 B(  3-C ,  5-H ) :   0.9948
B(  4-C , 20-C ) :   1.0064 B(  6-C ,  7-H ) :   0.9363 B(  6-C ,  8-H ) :   0.9272
B(  6-C ,  9-C ) :   1.0840 B(  9-C , 10-H ) :   0.9539 B(  9-C , 11-H ) :   0.9593
B(  9-C , 12-C ) :   1.0548 B( 12-C , 13-H ) :   0.9773 B( 12-C , 14-H ) :   0.9778
B( 12-C , 15-H ) :   0.9787 B( 16-S , 17-C ) :   1.1466 B( 16-S , 20-C ) :   1.1425
B( 17-C , 18-C ) :   1.6102 B( 17-C , 20-C ) :   0.1054 B( 17-C , 33-H ) :   0.9743
B( 18-C , 19-C ) :   1.2407 B( 18-C , 21-H ) :   0.9698 B( 19-C , 20-C ) :   1.6182
B( 19-C , 22-C ) :   1.0284 B( 22-C , 23-H ) :   0.9410 B( 22-C , 24-H ) :   0.9342
B( 22-C , 25-C ) :   1.0595 B( 25-C , 26-H ) :   0.9549 B( 25-C , 27-H ) :   0.9564
B( 25-C , 28-C ) :   1.0776 B( 28-C , 29-H ) :   0.9768 B( 28-C , 30-H ) :   0.9767
B( 28-C , 31-H ) :   0.9745

Dispersion correction           -0.014383296
FINAL SINGLE POINT ENERGY     -1339.864428350357

DIPOLE MOMENT
-------------
                                X             Y             Z
Electronic contribution:     14.13662      24.52988       4.07078
Nuclear contribution   :    -14.66566     -25.00530      -3.92373
                        -----------------------------------------
Total Dipole Moment    :     -0.52904      -0.47541       0.14705
                        -----------------------------------------
Magnitude (a.u.)       :      0.72631
Magnitude (Debye)      :      1.84613

Rotational constants in cm-1:     0.019010     0.008663     0.006380
Rotational constants in MHz :   569.914080   259.696533   191.273050

                             ****ORCA TERMINATED NORMALLY****
TOTAL RUN TIME: 0 days 0 hours 0 minutes 34 seconds 216 msec
