                         Program Version 4.2.1 -  RELEASE  -
|  1> ! wB97X-D3 SP def2-SVP
|  2> %pal
|  3> nprocs 16
|  4> end
|  5>
|  6> * xyz 0 1
|  7> S 	 -13.803 	 32.7823 	 36.0275
|  8> C 	 -14.1789 	 33.9785 	 34.7739
|  9> C 	 -15.5563 	 34.2126 	 34.7933
| 10> C 	 -16.265 	 33.4438 	 35.7425
| 11> C 	 -15.4608 	 32.5117 	 36.3792
| 12> H 	 -17.3481 	 33.4191 	 35.9786
| 13> C 	 -16.26 	 35.299 	 33.8797
| 14> H 	 -15.6386 	 35.8932 	 33.3565
| 15> H 	 -16.8345 	 36.0116 	 34.458
| 16> C 	 -17.3051 	 34.8262 	 32.8059
| 17> H 	 -16.7596 	 34.1586 	 32.2178
| 18> H 	 -18.0473 	 34.2293 	 33.3899
| 19> C 	 -17.7551 	 35.9602 	 31.916
| 20> H 	 -18.6396 	 35.685 	 31.3361
| 21> H 	 -17.9207 	 36.8353 	 32.4673
| 22> H 	 -17.0554 	 36.1354 	 31.1808
| 23> S 	 -15.4384 	 32.057 	 39.1236
| 24> C 	 -16.2521 	 30.6454 	 39.7706
| 25> C 	 -16.7278 	 29.8958 	 38.7208
| 26> C 	 -16.5333 	 30.3926 	 37.3547
| 27> C 	 -15.7591 	 31.5765 	 37.4281
| 28> H 	 -17.3356 	 29.0593 	 39.1033
| 29> C 	 -17.131 	 29.7549 	 36.1416
| 30> H 	 -17.4122 	 28.744 	 36.3678
| 31> H 	 -16.393 	 29.8848 	 35.3332
| 32> C 	 -18.4442 	 30.344 	 35.637
| 33> H 	 -18.6229 	 30.0241 	 34.6118
| 34> H 	 -18.2138 	 31.3893 	 35.5577
| 35> C 	 -19.6402 	 30.029 	 36.591
| 36> H 	 -20.0583 	 29.1251 	 36.3351
| 37> H 	 -20.4534 	 30.7224 	 36.4557
| 38> H 	 -19.3224 	 30.0354 	 37.6489
| 39> H 	 -13.4994 	 34.6556 	 34.2732
| 40> H 	 -16.2822 	 30.4045 	 40.8174
| 41> *
| 42>
| 43>                          ****END OF INPUT****

CARTESIAN COORDINATES (ANGSTROEM)
---------------------------------
  S    -13.803000   32.782300   36.027500
  C    -14.178900   33.978500   34.773900
  C    -15.556300   34.212600   34.793300
  C    -16.265000   33.443800   35.742500
  C    -15.460800   32.511700   36.379200
  H    -17.348100   33.419100   35.978600
  C    -16.260000   35.299000   33.879700
  H    -15.638600   35.893200   33.356500
  H    -16.834500   36.011600   34.458000
  C    -17.305100   34.826200   32.805900
  H    -16.759600   34.158600   32.217800
  H    -18.047300   34.229300   33.389900
  C    -17.755100   35.960200   31.916000
  H    -18.639600   35.685000   31.336100
  H    -17.920700   36.835300   32.467300
  H    -17.055400   36.135400   31.180800
  S    -15.438400   32.057000   39.123600
  C    -16.252100   30.645400   39.770600
  C    -16.727800   29.895800   38.720800
  C    -16.533300   30.392600   37.354700
  C    -15.759100   31.576500   37.428100
  H    -17.335600   29.059300   39.103300
  C    -17.131000   29.754900   36.141600
  H    -17.412200   28.744000   36.367800
  H    -16.393000   29.884800   35.333200
  C    -18.444200   30.344000   35.637000
  H    -18.622900   30.024100   34.611800
  H    -18.213800   31.389300   35.557700
  C    -19.640200   30.029000   36.591000
  H    -20.058300   29.125100   36.335100
  H    -20.453400   30.722400   36.455700
  H    -19.322400   30.035400   37.648900
  H    -13.499400   34.655600   34.273200
  H    -16.282200   30.404500   40.817400

 Total Charge           Charge          ....    0
 Multiplicity           Mult            ....    1
 Number of Electrons    NEL             ....  134
 Basis Dimension        Dim             ....  322

ORBITAL ENERGIES
----------------

  NO   OCC          E(Eh)            E(eV)
   0   2.0000     -88.966902     -2420.9125
   1   2.0000     -88.963801     -2420.8281
   2   2.0000     -10.330342      -281.1029
   3   2.0000     -10.326697      -281.0037
   4   2.0000     -10.318373      -280.7772
   5   2.0000     -10.318061      -280.7687
   6   2.0000     -10.313746      -280.6513
   7   2.0000     -10.309724      -280.5419
   8   2.0000     -10.299272      -280.2574
   9   2.0000     -10.298045      -280.2240
  10   2.0000     -10.289706      -279.9971
  11   2.0000     -10.285515      -279.8831
  12   2.0000     -10.283354      -279.8243
  13   2.0000     -10.281390      -279.7708
  14   2.0000     -10.272575      -279.5310
  15   2.0000     -10.270103      -279.4637
  16   2.0000      -8.081822      -219.9176
  17   2.0000      -8.077998      -219.8135
  18   2.0000      -6.040180      -164.3616
  19   2.0000      -6.036609      -164.2645
  20   2.0000      -6.036204      -164.2535
  21   2.0000      -6.032790      -164.1606
  22   2.0000      -6.032496      -164.1526
  23   2.0000      -6.028753      -164.0507
  24   2.0000      -1.007335       -27.4110
  25   2.0000      -0.979523       -26.6542
  26   2.0000      -0.913310       -24.8524
  27   2.0000      -0.910998       -24.7895
  28   2.0000      -0.873371       -23.7656
  29   2.0000      -0.848308       -23.0836
  30   2.0000      -0.841931       -22.9101
  31   2.0000      -0.814659       -22.1680
  32   2.0000      -0.789482       -21.4829
  33   2.0000      -0.777877       -21.1671
  34   2.0000      -0.714811       -19.4510
  35   2.0000      -0.701328       -19.0841
  36   2.0000      -0.690940       -18.8014
  37   2.0000      -0.656147       -17.8547
  38   2.0000      -0.648879       -17.6569
  39   2.0000      -0.617282       -16.7971
  40   2.0000      -0.590733       -16.0747
  41   2.0000      -0.573533       -15.6066
  42   2.0000      -0.566894       -15.4260
  43   2.0000      -0.558852       -15.2071
  44   2.0000      -0.550459       -14.9787
  45   2.0000      -0.522012       -14.2047
  46   2.0000      -0.517091       -14.0708
  47   2.0000      -0.509551       -13.8656
  48   2.0000      -0.503247       -13.6940
  49   2.0000      -0.499464       -13.5911
  50   2.0000      -0.493560       -13.4305
  51   2.0000      -0.486225       -13.2308
  52   2.0000      -0.476803       -12.9745
  53   2.0000      -0.468241       -12.7415
  54   2.0000      -0.462768       -12.5926
  55   2.0000      -0.450303       -12.2534
  56   2.0000      -0.443600       -12.0710
  57   2.0000      -0.432035       -11.7563
  58   2.0000      -0.429951       -11.6995
  59   2.0000      -0.425968       -11.5912
  60   2.0000      -0.422678       -11.5017
  61   2.0000      -0.414225       -11.2716
  62   2.0000      -0.413094       -11.2409
  63   2.0000      -0.337769        -9.1912
  64   2.0000      -0.329204        -8.9581
  65   2.0000      -0.323521        -8.8035
  66   2.0000      -0.307596        -8.3701
  67   0.0000       0.033069         0.8999
  68   0.0000       0.054012         1.4698
  69   0.0000       0.113098         3.0776
  70   0.0000       0.122756         3.3404
  71   0.0000       0.126062         3.4303

MULLIKEN ATOMIC CHARGES
-----------------------
   0 S :    0.114931
   1 C :   -0.107291
   2 C :   -0.086209
   3 C :    0.052977
   4 C :   -0.208694
   5 H :    0.042615
   6 C :    0.083685
   7 H :   -0.026250
   8 H :    0.019283
   9 C :   -0.080259
  10 H :    0.012213
  11 H :    0.032215
  12 C :    0.005764
  13 H :    0.033902
  14 H :    0.019310
  15 H :    0.013808
  16 S :    0.105177
  17 C :   -0.106000
  18 C :   -0.051671
  19 C :   -0.020153
  20 C :   -0.168003
  21 H :    0.029647
  22 C :    0.086427
  23 H :    0.015180
  24 H :    0.041770
  25 C :   -0.044479
  26 H :    0.028625
  27 H :   -0.006714
  28 C :   -0.029937
  29 H :    0.014371
  30 H :    0.027029
  31 H :    0.042217
  32 H :    0.053108
  33 H :    0.061407
Sum of atomic charges:   -0.0000000

LOEWDIN ATOMIC CHARGES
----------------------
   0 S :    0.424960
   1 C :   -0.196896
   2 C :   -0.056648
   3 C :   -0.064732
   4 C :   -0.210568
   5 H :    0.039743
   6 C :   -0.021635
   7 H :    0.005772
   8 H :    0.026822
   9 C :   -0.034611
  10 H :    0.014105
  11 H :    0.022909
  12 C :   -0.052960
  13 H :    0.034579
  14 H :    0.017991
  15 H :    0.019604
  16 S :    0.387540
  17 C :   -0.183980
  18 C :   -0.082351
  19 C :   -0.042649
  20 C :   -0.200672
  21 H :    0.033607
  22 C :   -0.030777
  23 H :    0.028264
  24 H :    0.041415
  25 C :   -0.032857
  26 H :    0.025402
  27 H :    0.013097
  28 C :   -0.060439
  29 H :    0.014435
  30 H :    0.026822
  31 H :    0.031609
  32 H :    0.031769
  33 H :    0.031329

  Mayer bond orders larger than 0.100000
B(  0-S ,  1-C ) :   1.1416 B(  0-S ,  4-C ) :   1.1792 B(  1-C ,  2-C ) :   1.5989
B(  1-C ,  4-C ) :   0.1074 B(  1-C , 32-H ) :   0.9684 B(  2-C ,  3-C ) :   1.2526
B(  2-C ,  6-C ) :   1.0144 B(  3-C ,  4-C ) :   1.5580 B(  3-C ,  5-H ) :   0.9808
B(  4-C , 20-C ) :   1.0237 B(  6-C ,  7-H ) :   0.9450 B(  6-C ,  8-H ) :   0.9447
B(  6-C ,  9-C ) :   1.0516 B(  9-C , 10-H ) :   0.9574 B(  9-C , 11-H ) :   0.9626
B(  9-C , 12-C ) :   1.0826 B( 12-C , 13-H ) :   0.9688 B( 12-C , 14-H ) :   0.9770
B( 12-C , 15-H ) :   0.9693 B( 16-S , 17-C ) :   1.1423 B( 16-S , 20-C ) :   1.1462
B( 17-C , 18-C ) :   1.6376 B( 17-C , 33-H ) :   0.9687 B( 18-C , 19-C ) :   1.2049
B( 18-C , 21-H ) :   0.9785 B( 19-C , 20-C ) :   1.5808 B( 19-C , 22-C ) :   1.0709
B( 22-C , 23-H ) :   0.9317 B( 22-C , 24-H ) :   0.9189 B( 22-C , 25-C ) :   1.0772
B( 25-C , 26-H ) :   0.9530 B( 25-C , 27-H ) :   0.9543 B( 25-C , 28-C ) :   1.0616
B( 28-C , 29-H ) :   0.9735 B( 28-C , 30-H ) :   0.9732 B( 28-C , 31-H ) :   0.9777

Dispersion correction           -0.014485588
FINAL SINGLE POINT ENERGY     -1339.855757995770

DIPOLE MOMENT
-------------
                                X             Y             Z
Electronic contribution:     22.18680      -3.23729      19.79174
Nuclear contribution   :    -22.77195       3.29911     -20.10702
                        -----------------------------------------
Total Dipole Moment    :     -0.58515       0.06182      -0.31528
                        -----------------------------------------
Magnitude (a.u.)       :      0.66755
Magnitude (Debye)      :      1.69677

Rotational constants in cm-1:     0.018906     0.008634     0.006633
Rotational constants in MHz :   566.778452   258.830709   198.856980

                             ****ORCA TERMINATED NORMALLY****
TOTAL RUN TIME: 0 days 0 hours 0 minutes 31 seconds 778 msec
