                         Program Version 4.2.1 -  RELEASE  -
|  1> ! wB97X-D3 SP def2-SVP
|  2> %pal
|  3> nprocs 16
|  4> end
|  5>
|  6> * xyz 0 1
|  7> S 	 2.30541 	 75.54 	 46.6766
|  8> C 	 1.74895 	 76.9877 	 47.3621
|  9> C 	 1.00252 	 76.7289 	 48.4951
| 10> C 	 0.683589 	 75.395 	 48.6738
| 11> C 	 1.11757 	 74.54 	 47.6463
| 12> H 	 0.0291471 	 75.0152 	 49.4626
| 13> C 	 0.761208 	 77.8398 	 49.4599
| 14> H 	 -0.0466927 	 77.5035 	 50.0607
| 15> H 	 0.48721 	 78.7514 	 49.0053
| 16> C 	 1.96368 	 78.1866 	 50.3945
| 17> H 	 1.49624 	 78.7649 	 51.2872
| 18> H 	 2.40891 	 77.2073 	 50.7613
| 19> C 	 3.15023 	 78.9951 	 49.8307
| 20> H 	 2.7895 	 79.9358 	 49.3187
| 21> H 	 3.9284 	 79.3793 	 50.5861
| 22> H 	 3.74606 	 78.3759 	 49.1647
| 23> S 	 2.1254 	 72.3028 	 46.3825
| 24> C 	 1.54878 	 70.7625 	 46.9268
| 25> C 	 0.300844 	 70.8887 	 47.5284
| 26> C 	 -0.0520089 	 72.2157 	 47.8167
| 27> C 	 0.912277 	 73.1001 	 47.3712
| 28> H 	 -0.21731 	 69.968 	 47.8883
| 29> C 	 -1.2395 	 72.4391 	 48.7524
| 30> H 	 -1.86196 	 72.9078 	 48.0608
| 31> H 	 -1.11323 	 73.2295 	 49.5254
| 32> C 	 -1.9062 	 71.1803 	 49.4243
| 33> H 	 -2.1237 	 70.3052 	 48.8083
| 34> H 	 -2.92092 	 71.4948 	 49.7639
| 35> C 	 -1.11812 	 70.7341 	 50.657
| 36> H 	 -1.83523 	 70.1167 	 51.1898
| 37> H 	 -0.962537 	 71.6207 	 51.2908
| 38> H 	 -0.168384 	 70.3508 	 50.631
| 39> H 	 2.20926 	 77.9479 	 47.147
| 40> H 	 2.00945 	 69.794 	 46.6194
| 41> *
| 42>
| 43>                          ****END OF INPUT****

CARTESIAN COORDINATES (ANGSTROEM)
---------------------------------
  S      2.305410   75.540000   46.676600
  C      1.748950   76.987700   47.362100
  C      1.002520   76.728900   48.495100
  C      0.683589   75.395000   48.673800
  C      1.117570   74.540000   47.646300
  H      0.029147   75.015200   49.462600
  C      0.761208   77.839800   49.459900
  H     -0.046693   77.503500   50.060700
  H      0.487210   78.751400   49.005300
  C      1.963680   78.186600   50.394500
  H      1.496240   78.764900   51.287200
  H      2.408910   77.207300   50.761300
  C      3.150230   78.995100   49.830700
  H      2.789500   79.935800   49.318700
  H      3.928400   79.379300   50.586100
  H      3.746060   78.375900   49.164700
  S      2.125400   72.302800   46.382500
  C      1.548780   70.762500   46.926800
  C      0.300844   70.888700   47.528400
  C     -0.052009   72.215700   47.816700
  C      0.912277   73.100100   47.371200
  H     -0.217310   69.968000   47.888300
  C     -1.239500   72.439100   48.752400
  H     -1.861960   72.907800   48.060800
  H     -1.113230   73.229500   49.525400
  C     -1.906200   71.180300   49.424300
  H     -2.123700   70.305200   48.808300
  H     -2.920920   71.494800   49.763900
  C     -1.118120   70.734100   50.657000
  H     -1.835230   70.116700   51.189800
  H     -0.962537   71.620700   51.290800
  H     -0.168384   70.350800   50.631000
  H      2.209260   77.947900   47.147000
  H      2.009450   69.794000   46.619400

 Total Charge           Charge          ....    0
 Multiplicity           Mult            ....    1
 Number of Electrons    NEL             ....  134
 Basis Dimension        Dim             ....  322

ORBITAL ENERGIES
----------------

  NO   OCC          E(Eh)            E(eV)
   0   2.0000     -88.966808     -2420.9099
   1   2.0000     -88.962067     -2420.7809
   2   2.0000     -10.339538      -281.3531
   3   2.0000     -10.330813      -281.1157
   4   2.0000     -10.320683      -280.8401
   5   2.0000     -10.306393      -280.4512
   6   2.0000     -10.305603      -280.4297
   7   2.0000     -10.300224      -280.2834
   8   2.0000     -10.299347      -280.2595
   9   2.0000     -10.297676      -280.2140
  10   2.0000     -10.295180      -280.1461
  11   2.0000     -10.295170      -280.1458
  12   2.0000     -10.291292      -280.0403
  13   2.0000     -10.288734      -279.9707
  14   2.0000     -10.284399      -279.8527
  15   2.0000     -10.273604      -279.5590
  16   2.0000      -8.081925      -219.9204
  17   2.0000      -8.076736      -219.7792
  18   2.0000      -6.040408      -164.3679
  19   2.0000      -6.036525      -164.2622
  20   2.0000      -6.035209      -164.2264
  21   2.0000      -6.032554      -164.1542
  22   2.0000      -6.031345      -164.1212
  23   2.0000      -6.027452      -164.0153
  24   2.0000      -1.008167       -27.4336
  25   2.0000      -0.989595       -26.9283
  26   2.0000      -0.912194       -24.8221
  27   2.0000      -0.905591       -24.6424
  28   2.0000      -0.864721       -23.5303
  29   2.0000      -0.856902       -23.3175
  30   2.0000      -0.846399       -23.0317
  31   2.0000      -0.813877       -22.1467
  32   2.0000      -0.789066       -21.4716
  33   2.0000      -0.771420       -20.9914
  34   2.0000      -0.713030       -19.4025
  35   2.0000      -0.699589       -19.0368
  36   2.0000      -0.686281       -18.6747
  37   2.0000      -0.659215       -17.9381
  38   2.0000      -0.638119       -17.3641
  39   2.0000      -0.623579       -16.9685
  40   2.0000      -0.602278       -16.3888
  41   2.0000      -0.570362       -15.5203
  42   2.0000      -0.559043       -15.2123
  43   2.0000      -0.544640       -14.8204
  44   2.0000      -0.538044       -14.6409
  45   2.0000      -0.533879       -14.5276
  46   2.0000      -0.517945       -14.0940
  47   2.0000      -0.512045       -13.9335
  48   2.0000      -0.499002       -13.5785
  49   2.0000      -0.498549       -13.5662
  50   2.0000      -0.495220       -13.4756
  51   2.0000      -0.483808       -13.1651
  52   2.0000      -0.474511       -12.9121
  53   2.0000      -0.466438       -12.6924
  54   2.0000      -0.458613       -12.4795
  55   2.0000      -0.449455       -12.2303
  56   2.0000      -0.445300       -12.1172
  57   2.0000      -0.440260       -11.9801
  58   2.0000      -0.430643       -11.7184
  59   2.0000      -0.425595       -11.5810
  60   2.0000      -0.419823       -11.4240
  61   2.0000      -0.415587       -11.3087
  62   2.0000      -0.403131       -10.9698
  63   2.0000      -0.361159        -9.8276
  64   2.0000      -0.335528        -9.1302
  65   2.0000      -0.326286        -8.8787
  66   2.0000      -0.273728        -7.4485
  67   0.0000       0.014326         0.3898
  68   0.0000       0.075024         2.0415
  69   0.0000       0.095207         2.5907
  70   0.0000       0.121801         3.3144
  71   0.0000       0.137635         3.7452

MULLIKEN ATOMIC CHARGES
-----------------------
   0 S :    0.081249
   1 C :   -0.097297
   2 C :   -0.115208
   3 C :    0.008312
   4 C :   -0.125034
   5 H :    0.004240
   6 C :    0.125698
   7 H :    0.005868
   8 H :    0.013842
   9 C :   -0.113291
  10 H :    0.045328
  11 H :    0.039006
  12 C :   -0.089387
  13 H :    0.033825
  14 H :    0.048526
  15 H :    0.040234
  16 S :    0.107257
  17 C :   -0.103595
  18 C :   -0.062182
  19 C :   -0.037015
  20 C :   -0.141910
  21 H :    0.038024
  22 C :    0.073361
  23 H :    0.024741
  24 H :    0.038049
  25 C :   -0.092969
  26 H :    0.036500
  27 H :    0.032182
  28 C :   -0.017266
  29 H :    0.030976
  30 H :    0.013200
  31 H :    0.029562
  32 H :    0.054339
  33 H :    0.070836
Sum of atomic charges:    0.0000000

LOEWDIN ATOMIC CHARGES
----------------------
   0 S :    0.388857
   1 C :   -0.206299
   2 C :   -0.076611
   3 C :   -0.074294
   4 C :   -0.157171
   5 H :    0.030052
   6 C :   -0.025772
   7 H :    0.025600
   8 H :    0.025080
   9 C :   -0.047050
  10 H :    0.032273
  11 H :    0.029701
  12 C :   -0.084247
  13 H :    0.025154
  14 H :    0.038558
  15 H :    0.022126
  16 S :    0.407823
  17 C :   -0.191424
  18 C :   -0.078297
  19 C :   -0.055004
  20 C :   -0.196145
  21 H :    0.039843
  22 C :   -0.030265
  23 H :    0.031316
  24 H :    0.034266
  25 C :   -0.038464
  26 H :    0.022813
  27 H :    0.033393
  28 C :   -0.061984
  29 H :    0.029322
  30 H :    0.027354
  31 H :    0.013720
  32 H :    0.029047
  33 H :    0.036729

  Mayer bond orders larger than 0.100000
B(  0-S ,  1-C ) :   1.1554 B(  0-S ,  4-C ) :   1.1510 B(  1-C ,  2-C ) :   1.5659
B(  1-C ,  4-C ) :   0.1121 B(  1-C , 32-H ) :   0.9649 B(  2-C ,  3-C ) :   1.3040
B(  2-C ,  6-C ) :   1.0385 B(  3-C ,  4-C ) :   1.5216 B(  3-C ,  5-H ) :   0.9853
B(  4-C , 20-C ) :   1.0874 B(  6-C ,  7-H ) :   0.9299 B(  6-C ,  8-H ) :   0.9380
B(  6-C ,  9-C ) :   1.0582 B(  9-C , 10-H ) :   0.9577 B(  9-C , 11-H ) :   0.9550
B(  9-C , 12-C ) :   1.0732 B( 12-C , 13-H ) :   0.9738 B( 12-C , 14-H ) :   0.9714
B( 12-C , 15-H ) :   0.9711 B( 16-S , 17-C ) :   1.1621 B( 16-S , 20-C ) :   1.1356
B( 17-C , 18-C ) :   1.5950 B( 17-C , 20-C ) :   0.1025 B( 17-C , 33-H ) :   0.9612
B( 18-C , 19-C ) :   1.2708 B( 18-C , 21-H ) :   0.9736 B( 19-C , 20-C ) :   1.5889
B( 19-C , 22-C ) :   0.9970 B( 22-C , 23-H ) :   0.9144 B( 22-C , 24-H ) :   0.9411
B( 22-C , 25-C ) :   1.0856 B( 25-C , 26-H ) :   0.9534 B( 25-C , 27-H ) :   0.9494
B( 25-C , 28-C ) :   1.0684 B( 28-C , 29-H ) :   0.9740 B( 28-C , 30-H ) :   0.9696
B( 28-C , 31-H ) :   0.9804

Dispersion correction           -0.014089968
FINAL SINGLE POINT ENERGY     -1339.847944295888

DIPOLE MOMENT
-------------
                                X             Y             Z
Electronic contribution:      9.58358      -6.53540     -22.19777
Nuclear contribution   :    -10.00116       6.40603      22.81875
                        -----------------------------------------
Total Dipole Moment    :     -0.41758      -0.12937       0.62097
                        -----------------------------------------
Magnitude (a.u.)       :      0.75942
Magnitude (Debye)      :      1.93028

Rotational constants in cm-1:     0.021497     0.007759     0.006125
Rotational constants in MHz :   644.452905   232.622022   183.621418

                             ****ORCA TERMINATED NORMALLY****
TOTAL RUN TIME: 0 days 0 hours 0 minutes 33 seconds 518 msec
