                         Program Version 4.2.1 -  RELEASE  -
|  1> ! wB97X-D3 SP def2-SVP
|  2> %pal
|  3> nprocs 16
|  4> end
|  5>
|  6> * xyz 0 1
|  7> S 	 24.469 	 5.44745 	 75.4725
|  8> C 	 23.7962 	 5.55781 	 77.1162
|  9> C 	 23.5786 	 4.30454 	 77.6844
| 10> C 	 24.0786 	 3.28118 	 76.807
| 11> C 	 24.3762 	 3.67451 	 75.5276
| 12> H 	 24.1408 	 2.23472 	 76.975
| 13> C 	 22.951 	 4.01771 	 79.052
| 14> H 	 22.4821 	 3.01302 	 79.0224
| 15> H 	 22.169 	 4.76181 	 79.159
| 16> C 	 23.97 	 4.12172 	 80.1235
| 17> H 	 24.7268 	 3.38615 	 79.7434
| 18> H 	 24.4103 	 5.11578 	 80.3764
| 19> C 	 23.5022 	 3.57144 	 81.4593
| 20> H 	 24.3052 	 3.25444 	 82.0777
| 21> H 	 22.9359 	 4.34459 	 81.9972
| 22> H 	 22.8535 	 2.69655 	 81.3843
| 23> S 	 26.0726 	 3.4687 	 73.4161
| 24> C 	 26.2732 	 1.97434 	 72.5336
| 25> C 	 25.3787 	 1.07336 	 72.9429
| 26> C 	 24.4997 	 1.53102 	 73.9478
| 27> C 	 24.8261 	 2.78306 	 74.4562
| 28> H 	 25.4464 	 0.0778287 	 72.4784
| 29> C 	 23.422 	 0.614959 	 74.6525
| 30> H 	 23.6198 	 0.310261 	 75.6562
| 31> H 	 23.5449 	 -0.311966 	 74.0843
| 32> C 	 22.0092 	 1.10924 	 74.304
| 33> H 	 21.9319 	 1.13952 	 73.2392
| 34> H 	 21.8947 	 2.16375 	 74.7042
| 35> C 	 20.8153 	 0.287251 	 74.7565
| 36> H 	 20.8731 	 0.246111 	 75.8987
| 37> H 	 20.9019 	 -0.701439 	 74.2996
| 38> H 	 19.8454 	 0.759872 	 74.4446
| 39> H 	 23.3822 	 6.40137 	 77.5355
| 40> H 	 26.7539 	 1.97063 	 71.5681
| 41> *
| 42>
| 43>                          ****END OF INPUT****

CARTESIAN COORDINATES (ANGSTROEM)
---------------------------------
  S     24.469000    5.447450   75.472500
  C     23.796200    5.557810   77.116200
  C     23.578600    4.304540   77.684400
  C     24.078600    3.281180   76.807000
  C     24.376200    3.674510   75.527600
  H     24.140800    2.234720   76.975000
  C     22.951000    4.017710   79.052000
  H     22.482100    3.013020   79.022400
  H     22.169000    4.761810   79.159000
  C     23.970000    4.121720   80.123500
  H     24.726800    3.386150   79.743400
  H     24.410300    5.115780   80.376400
  C     23.502200    3.571440   81.459300
  H     24.305200    3.254440   82.077700
  H     22.935900    4.344590   81.997200
  H     22.853500    2.696550   81.384300
  S     26.072600    3.468700   73.416100
  C     26.273200    1.974340   72.533600
  C     25.378700    1.073360   72.942900
  C     24.499700    1.531020   73.947800
  C     24.826100    2.783060   74.456200
  H     25.446400    0.077829   72.478400
  C     23.422000    0.614959   74.652500
  H     23.619800    0.310261   75.656200
  H     23.544900   -0.311966   74.084300
  C     22.009200    1.109240   74.304000
  H     21.931900    1.139520   73.239200
  H     21.894700    2.163750   74.704200
  C     20.815300    0.287251   74.756500
  H     20.873100    0.246111   75.898700
  H     20.901900   -0.701439   74.299600
  H     19.845400    0.759872   74.444600
  H     23.382200    6.401370   77.535500
  H     26.753900    1.970630   71.568100

 Total Charge           Charge          ....    0
 Multiplicity           Mult            ....    1
 Number of Electrons    NEL             ....  134
 Basis Dimension        Dim             ....  322

ORBITAL ENERGIES
----------------

  NO   OCC          E(Eh)            E(eV)
   0   2.0000     -88.968986     -2420.9692
   1   2.0000     -88.958759     -2420.6909
   2   2.0000     -10.333726      -281.1950
   3   2.0000     -10.331900      -281.1453
   4   2.0000     -10.313874      -280.6548
   5   2.0000     -10.310780      -280.5706
   6   2.0000     -10.308577      -280.5107
   7   2.0000     -10.306197      -280.4459
   8   2.0000     -10.296961      -280.1946
   9   2.0000     -10.294282      -280.1216
  10   2.0000     -10.293139      -280.0906
  11   2.0000     -10.292639      -280.0769
  12   2.0000     -10.289763      -279.9987
  13   2.0000     -10.284642      -279.8593
  14   2.0000     -10.282476      -279.8004
  15   2.0000     -10.274253      -279.5766
  16   2.0000      -8.082612      -219.9390
  17   2.0000      -8.074164      -219.7092
  18   2.0000      -6.041365      -164.3939
  19   2.0000      -6.037396      -164.2859
  20   2.0000      -6.033051      -164.1677
  21   2.0000      -6.032620      -164.1559
  22   2.0000      -6.028519      -164.0443
  23   2.0000      -6.024991      -163.9483
  24   2.0000      -1.008297       -27.4372
  25   2.0000      -0.985127       -26.8067
  26   2.0000      -0.921555       -25.0768
  27   2.0000      -0.904985       -24.6259
  28   2.0000      -0.874855       -23.8060
  29   2.0000      -0.850670       -23.1479
  30   2.0000      -0.843393       -22.9499
  31   2.0000      -0.821039       -22.3416
  32   2.0000      -0.783521       -21.3207
  33   2.0000      -0.774040       -21.0627
  34   2.0000      -0.708201       -19.2711
  35   2.0000      -0.696251       -18.9459
  36   2.0000      -0.685153       -18.6440
  37   2.0000      -0.663736       -18.0612
  38   2.0000      -0.644758       -17.5448
  39   2.0000      -0.621488       -16.9115
  40   2.0000      -0.596398       -16.2288
  41   2.0000      -0.579238       -15.7619
  42   2.0000      -0.567756       -15.4494
  43   2.0000      -0.561784       -15.2869
  44   2.0000      -0.529282       -14.4025
  45   2.0000      -0.525424       -14.2975
  46   2.0000      -0.520870       -14.1736
  47   2.0000      -0.512705       -13.9514
  48   2.0000      -0.507672       -13.8145
  49   2.0000      -0.500894       -13.6300
  50   2.0000      -0.496981       -13.5235
  51   2.0000      -0.487341       -13.2612
  52   2.0000      -0.474665       -12.9163
  53   2.0000      -0.465105       -12.6562
  54   2.0000      -0.451631       -12.2895
  55   2.0000      -0.449417       -12.2293
  56   2.0000      -0.442936       -12.0529
  57   2.0000      -0.441129       -12.0037
  58   2.0000      -0.424830       -11.5602
  59   2.0000      -0.422007       -11.4834
  60   2.0000      -0.416653       -11.3377
  61   2.0000      -0.412983       -11.2378
  62   2.0000      -0.402821       -10.9613
  63   2.0000      -0.355890        -9.6842
  64   2.0000      -0.335489        -9.1291
  65   2.0000      -0.329053        -8.9540
  66   2.0000      -0.290967        -7.9176
  67   0.0000       0.019374         0.5272
  68   0.0000       0.075917         2.0658
  69   0.0000       0.096985         2.6391
  70   0.0000       0.120675         3.2837
  71   0.0000       0.134929         3.6716

MULLIKEN ATOMIC CHARGES
-----------------------
   0 S :    0.100724
   1 C :   -0.072287
   2 C :   -0.105436
   3 C :    0.018981
   4 C :   -0.107695
   5 H :   -0.007016
   6 C :    0.090786
   7 H :    0.032417
   8 H :    0.020515
   9 C :   -0.092522
  10 H :    0.031029
  11 H :    0.047943
  12 C :   -0.029291
  13 H :    0.029346
  14 H :    0.028543
  15 H :    0.017598
  16 S :    0.067193
  17 C :   -0.081839
  18 C :   -0.054095
  19 C :   -0.044673
  20 C :   -0.140314
  21 H :    0.032282
  22 C :    0.065905
  23 H :    0.034989
  24 H :    0.000463
  25 C :   -0.101474
  26 H :    0.023113
  27 H :    0.047160
  28 C :   -0.052071
  29 H :    0.035551
  30 H :    0.031202
  31 H :    0.048424
  32 H :    0.018791
  33 H :    0.065757
Sum of atomic charges:   -0.0000000

LOEWDIN ATOMIC CHARGES
----------------------
   0 S :    0.379518
   1 C :   -0.173318
   2 C :   -0.051882
   3 C :   -0.059258
   4 C :   -0.183387
   5 H :    0.023802
   6 C :   -0.029041
   7 H :    0.036481
   8 H :    0.027118
   9 C :   -0.047443
  10 H :    0.031691
  11 H :    0.034539
  12 C :   -0.066775
  13 H :    0.022707
  14 H :    0.024879
  15 H :    0.021424
  16 S :    0.390961
  17 C :   -0.184965
  18 C :   -0.080130
  19 C :   -0.059645
  20 C :   -0.176226
  21 H :    0.040282
  22 C :   -0.028585
  23 H :    0.020594
  24 H :    0.027521
  25 C :   -0.049190
  26 H :    0.021340
  27 H :    0.029042
  28 C :   -0.070757
  29 H :    0.028917
  30 H :    0.022073
  31 H :    0.033564
  32 H :    0.011670
  33 H :    0.032478

  Mayer bond orders larger than 0.100000
B(  0-S ,  1-C ) :   1.1252 B(  0-S ,  4-C ) :   1.1226 B(  1-C ,  2-C ) :   1.6331
B(  1-C , 32-H ) :   0.9705 B(  2-C ,  3-C ) :   1.2087 B(  2-C ,  6-C ) :   1.0206
B(  3-C ,  4-C ) :   1.6029 B(  3-C ,  5-H ) :   0.9941 B(  4-C , 20-C ) :   1.0659
B(  6-C ,  7-H ) :   0.9404 B(  6-C ,  8-H ) :   0.9310 B(  6-C ,  9-C ) :   1.0727
B(  9-C , 10-H ) :   0.9547 B(  9-C , 11-H ) :   0.9550 B(  9-C , 12-C ) :   1.0875
B( 12-C , 13-H ) :   0.9744 B( 12-C , 14-H ) :   0.9736 B( 12-C , 15-H ) :   0.9719
B( 16-S , 17-C ) :   1.1514 B( 16-S , 20-C ) :   1.1411 B( 17-C , 18-C ) :   1.6260
B( 17-C , 33-H ) :   0.9605 B( 18-C , 19-C ) :   1.2591 B( 18-C , 21-H ) :   0.9845
B( 19-C , 20-C ) :   1.5811 B( 19-C , 22-C ) :   1.0185 B( 22-C , 23-H ) :   0.9520
B( 22-C , 24-H ) :   0.9288 B( 22-C , 25-C ) :   1.0506 B( 25-C , 26-H ) :   0.9526
B( 25-C , 27-H ) :   0.9582 B( 25-C , 28-C ) :   1.0892 B( 28-C , 29-H ) :   0.9739
B( 28-C , 30-H ) :   0.9728 B( 28-C , 31-H ) :   0.9726

Dispersion correction           -0.013802705
FINAL SINGLE POINT ENERGY     -1339.863070929865

DIPOLE MOMENT
-------------
                                X             Y             Z
Electronic contribution:     16.86909      14.00907     -19.83421
Nuclear contribution   :    -17.25048     -14.49463      20.18091
                        -----------------------------------------
Total Dipole Moment    :     -0.38138      -0.48556       0.34670
                        -----------------------------------------
Magnitude (a.u.)       :      0.70811
Magnitude (Debye)      :      1.79988

Rotational constants in cm-1:     0.017877     0.008418     0.006596
Rotational constants in MHz :   535.946941   252.374769   197.744761

                             ****ORCA TERMINATED NORMALLY****
TOTAL RUN TIME: 0 days 0 hours 0 minutes 35 seconds 671 msec
