                         Program Version 4.2.1 -  RELEASE  -
|  1> ! wB97X-D3 SP def2-SVP
|  2> %pal
|  3> nprocs 16
|  4> end
|  5>
|  6> * xyz 0 1
|  7> S 	 -44.6386 	 52.0057 	 102.998
|  8> C 	 -43.8588 	 51.9962 	 101.409
|  9> C 	 -43.2107 	 53.2095 	 101.15
| 10> C 	 -43.0437 	 54.009 	 102.394
| 11> C 	 -43.6941 	 53.4434 	 103.472
| 12> H 	 -42.4655 	 54.9003 	 102.536
| 13> C 	 -42.5501 	 53.6345 	 99.9238
| 14> H 	 -42.6953 	 54.6544 	 99.7181
| 15> H 	 -43.0538 	 53.1278 	 99.1035
| 16> C 	 -41.0903 	 53.4807 	 99.8121
| 17> H 	 -40.7377 	 53.79 	 98.8858
| 18> H 	 -40.6493 	 54.1971 	 100.556
| 19> C 	 -40.579 	 52.0712 	 100.079
| 20> H 	 -40.9458 	 51.7588 	 101.044
| 21> H 	 -40.8835 	 51.311 	 99.2891
| 22> H 	 -39.4995 	 52.1766 	 100.016
| 23> S 	 -45.2115 	 54.3268 	 105.489
| 24> C 	 -44.5627 	 54.7106 	 107.016
| 25> C 	 -43.1355 	 54.5078 	 106.995
| 26> C 	 -42.6895 	 54.0001 	 105.763
| 27> C 	 -43.6844 	 53.9171 	 104.82
| 28> H 	 -42.5115 	 54.7413 	 107.894
| 29> C 	 -41.237 	 53.8719 	 105.585
| 30> H 	 -40.6098 	 54.4416 	 106.231
| 31> H 	 -40.8747 	 54.3443 	 104.647
| 32> C 	 -40.6119 	 52.4516 	 105.716
| 33> H 	 -40.7571 	 52.113 	 106.717
| 34> H 	 -39.5445 	 52.5047 	 105.588
| 35> C 	 -41.1789 	 51.4216 	 104.718
| 36> H 	 -42.2209 	 51.2504 	 104.918
| 37> H 	 -40.6219 	 50.4533 	 104.843
| 38> H 	 -41.106 	 51.7834 	 103.696
| 39> H 	 -43.9358 	 51.3154 	 100.585
| 40> H 	 -45.1449 	 55.2269 	 107.851
| 41> *
| 42>
| 43>                          ****END OF INPUT****

CARTESIAN COORDINATES (ANGSTROEM)
---------------------------------
  S    -44.638600   52.005700  102.998000
  C    -43.858800   51.996200  101.409000
  C    -43.210700   53.209500  101.150000
  C    -43.043700   54.009000  102.394000
  C    -43.694100   53.443400  103.472000
  H    -42.465500   54.900300  102.536000
  C    -42.550100   53.634500   99.923800
  H    -42.695300   54.654400   99.718100
  H    -43.053800   53.127800   99.103500
  C    -41.090300   53.480700   99.812100
  H    -40.737700   53.790000   98.885800
  H    -40.649300   54.197100  100.556000
  C    -40.579000   52.071200  100.079000
  H    -40.945800   51.758800  101.044000
  H    -40.883500   51.311000   99.289100
  H    -39.499500   52.176600  100.016000
  S    -45.211500   54.326800  105.489000
  C    -44.562700   54.710600  107.016000
  C    -43.135500   54.507800  106.995000
  C    -42.689500   54.000100  105.763000
  C    -43.684400   53.917100  104.820000
  H    -42.511500   54.741300  107.894000
  C    -41.237000   53.871900  105.585000
  H    -40.609800   54.441600  106.231000
  H    -40.874700   54.344300  104.647000
  C    -40.611900   52.451600  105.716000
  H    -40.757100   52.113000  106.717000
  H    -39.544500   52.504700  105.588000
  C    -41.178900   51.421600  104.718000
  H    -42.220900   51.250400  104.918000
  H    -40.621900   50.453300  104.843000
  H    -41.106000   51.783400  103.696000
  H    -43.935800   51.315400  100.585000
  H    -45.144900   55.226900  107.851000

 Total Charge           Charge          ....    0
 Multiplicity           Mult            ....    1
 Number of Electrons    NEL             ....  134
 Basis Dimension        Dim             ....  322

ORBITAL ENERGIES
----------------

  NO   OCC          E(Eh)            E(eV)
   0   2.0000     -88.968607     -2420.9589
   1   2.0000     -88.968454     -2420.9547
   2   2.0000     -10.330031      -281.0944
   3   2.0000     -10.324249      -280.9371
   4   2.0000     -10.320709      -280.8408
   5   2.0000     -10.318156      -280.7713
   6   2.0000     -10.305282      -280.4210
   7   2.0000     -10.299743      -280.2702
   8   2.0000     -10.299243      -280.2566
   9   2.0000     -10.297832      -280.2183
  10   2.0000     -10.285156      -279.8733
  11   2.0000     -10.279658      -279.7237
  12   2.0000     -10.278174      -279.6833
  13   2.0000     -10.277852      -279.6746
  14   2.0000     -10.276028      -279.6249
  15   2.0000     -10.267076      -279.3814
  16   2.0000      -8.084557      -219.9920
  17   2.0000      -8.081996      -219.9223
  18   2.0000      -6.042792      -164.4327
  19   2.0000      -6.040797      -164.3784
  20   2.0000      -6.038617      -164.3191
  21   2.0000      -6.036800      -164.2697
  22   2.0000      -6.035821      -164.2430
  23   2.0000      -6.032357      -164.1488
  24   2.0000      -1.013188       -27.5702
  25   2.0000      -0.981779       -26.7156
  26   2.0000      -0.926093       -25.2003
  27   2.0000      -0.909558       -24.7503
  28   2.0000      -0.870228       -23.6801
  29   2.0000      -0.851358       -23.1666
  30   2.0000      -0.843840       -22.9620
  31   2.0000      -0.810050       -22.0426
  32   2.0000      -0.784758       -21.3544
  33   2.0000      -0.777227       -21.1494
  34   2.0000      -0.707325       -19.2473
  35   2.0000      -0.697217       -18.9722
  36   2.0000      -0.690488       -18.7891
  37   2.0000      -0.664164       -18.0728
  38   2.0000      -0.638535       -17.3754
  39   2.0000      -0.619652       -16.8616
  40   2.0000      -0.601402       -16.3650
  41   2.0000      -0.572570       -15.5804
  42   2.0000      -0.555816       -15.1245
  43   2.0000      -0.551518       -15.0076
  44   2.0000      -0.544913       -14.8278
  45   2.0000      -0.536818       -14.6075
  46   2.0000      -0.519348       -14.1322
  47   2.0000      -0.508279       -13.8310
  48   2.0000      -0.503676       -13.7057
  49   2.0000      -0.502505       -13.6739
  50   2.0000      -0.494585       -13.4583
  51   2.0000      -0.479091       -13.0367
  52   2.0000      -0.466380       -12.6908
  53   2.0000      -0.462863       -12.5951
  54   2.0000      -0.458858       -12.4862
  55   2.0000      -0.447947       -12.1893
  56   2.0000      -0.441325       -12.0091
  57   2.0000      -0.437365       -11.9013
  58   2.0000      -0.427408       -11.6304
  59   2.0000      -0.423022       -11.5110
  60   2.0000      -0.416991       -11.3469
  61   2.0000      -0.414010       -11.2658
  62   2.0000      -0.407098       -11.0777
  63   2.0000      -0.341826        -9.3016
  64   2.0000      -0.334390        -9.0992
  65   2.0000      -0.325622        -8.8606
  66   2.0000      -0.294419        -8.0115
  67   0.0000       0.034633         0.9424
  68   0.0000       0.054094         1.4720
  69   0.0000       0.103365         2.8127
  70   0.0000       0.118218         3.2169
  71   0.0000       0.126717         3.4481

MULLIKEN ATOMIC CHARGES
-----------------------
   0 S :    0.118730
   1 C :   -0.091438
   2 C :   -0.120313
   3 C :    0.038063
   4 C :   -0.143909
   5 H :    0.013602
   6 C :    0.110279
   7 H :    0.011719
   8 H :    0.007049
   9 C :   -0.056811
  10 H :    0.010180
  11 H :    0.021530
  12 C :   -0.068556
  13 H :    0.052206
  14 H :    0.033798
  15 H :    0.034221
  16 S :    0.131226
  17 C :   -0.133299
  18 C :   -0.072490
  19 C :    0.040836
  20 C :   -0.191128
  21 H :    0.041084
  22 C :    0.039557
  23 H :    0.004600
  24 H :    0.015949
  25 C :   -0.058573
  26 H :    0.014420
  27 H :    0.020285
  28 C :   -0.052244
  29 H :    0.031385
  30 H :    0.037699
  31 H :    0.034988
  32 H :    0.035962
  33 H :    0.089392
Sum of atomic charges:   -0.0000000

LOEWDIN ATOMIC CHARGES
----------------------
   0 S :    0.383329
   1 C :   -0.190586
   2 C :   -0.051469
   3 C :   -0.050831
   4 C :   -0.181806
   5 H :    0.029228
   6 C :   -0.042457
   7 H :    0.031049
   8 H :    0.028541
   9 C :   -0.034650
  10 H :    0.015176
  11 H :    0.026331
  12 C :   -0.065998
  13 H :    0.022138
  14 H :    0.029702
  15 H :    0.026849
  16 S :    0.455433
  17 C :   -0.222522
  18 C :   -0.071968
  19 C :   -0.062238
  20 C :   -0.216935
  21 H :    0.039703
  22 C :   -0.037104
  23 H :    0.027967
  24 H :    0.030746
  25 C :   -0.031230
  26 H :    0.016630
  27 H :    0.019981
  28 C :   -0.067380
  29 H :    0.018029
  30 H :    0.030677
  31 H :    0.022584
  32 H :    0.026943
  33 H :    0.046136

  Mayer bond orders larger than 0.100000
B(  0-S ,  1-C ) :   1.1123 B(  0-S ,  4-C ) :   1.1113 B(  1-C ,  2-C ) :   1.6474
B(  1-C , 32-H ) :   0.9653 B(  2-C ,  3-C ) :   1.1561 B(  2-C ,  6-C ) :   1.0597
B(  3-C ,  4-C ) :   1.6328 B(  3-C ,  5-H ) :   0.9953 B(  4-C , 20-C ) :   1.0420
B(  6-C ,  7-H ) :   0.9241 B(  6-C ,  8-H ) :   0.9246 B(  6-C ,  9-C ) :   1.0893
B(  9-C , 10-H ) :   0.9479 B(  9-C , 11-H ) :   0.9487 B(  9-C , 12-C ) :   1.0802
B( 12-C , 13-H ) :   0.9722 B( 12-C , 14-H ) :   0.9712 B( 12-C , 15-H ) :   0.9729
B( 16-S , 17-C ) :   1.1981 B( 16-S , 20-C ) :   1.1738 B( 17-C , 18-C ) :   1.5328
B( 17-C , 20-C ) :   0.1147 B( 17-C , 33-H ) :   0.9603 B( 18-C , 19-C ) :   1.2937
B( 18-C , 21-H ) :   0.9839 B( 19-C , 20-C ) :   1.5399 B( 19-C , 22-C ) :   1.0398
B( 22-C , 23-H ) :   0.9331 B( 22-C , 24-H ) :   0.9389 B( 22-C , 25-C ) :   1.0749
B( 25-C , 26-H ) :   0.9533 B( 25-C , 27-H ) :   0.9541 B( 25-C , 28-C ) :   1.0858
B( 28-C , 29-H ) :   0.9685 B( 28-C , 30-H ) :   0.9727 B( 28-C , 31-H ) :   0.9730

Dispersion correction           -0.016653098
FINAL SINGLE POINT ENERGY     -1339.869649813345

DIPOLE MOMENT
-------------
                                X             Y             Z
Electronic contribution:    -24.69707       4.81485      10.67402
Nuclear contribution   :     25.26579      -4.46159     -10.85894
                        -----------------------------------------
Total Dipole Moment    :      0.56872       0.35326      -0.18491
                        -----------------------------------------
Magnitude (a.u.)       :      0.69457
Magnitude (Debye)      :      1.76545

Rotational constants in cm-1:     0.021751     0.009616     0.008003
Rotational constants in MHz :   652.080331   288.288976   239.932433

                             ****ORCA TERMINATED NORMALLY****
TOTAL RUN TIME: 0 days 0 hours 0 minutes 33 seconds 502 msec
