                         Program Version 4.2.1 -  RELEASE  -
|  1> ! wB97X-D3 SP def2-SVP
|  2> %pal
|  3> nprocs 16
|  4> end
|  5>
|  6> * xyz 0 1
|  7> S 	 10.3798 	 -9.75316 	 91.5198
|  8> C 	 9.33808 	 -8.35523 	 91.8405
|  9> C 	 8.03983 	 -8.7895 	 92.1563
| 10> C 	 7.94802 	 -10.2056 	 92.2354
| 11> C 	 9.1663 	 -10.7786 	 92.0834
| 12> H 	 7.0897 	 -10.8112 	 92.4854
| 13> C 	 6.93091 	 -7.79389 	 92.1298
| 14> H 	 6.43038 	 -7.95092 	 91.1825
| 15> H 	 7.26166 	 -6.74874 	 92.0552
| 16> C 	 5.9295 	 -7.79863 	 93.3242
| 17> H 	 5.11509 	 -7.16386 	 92.9731
| 18> H 	 5.40124 	 -8.73058 	 93.5047
| 19> C 	 6.46252 	 -7.10479 	 94.5632
| 20> H 	 6.85143 	 -6.09927 	 94.4227
| 21> H 	 5.77119 	 -7.05918 	 95.3351
| 22> H 	 7.31304 	 -7.72361 	 94.9132
| 23> S 	 10.2139 	 -12.9585 	 90.6774
| 24> C 	 9.92002 	 -14.54 	 91.2568
| 25> C 	 9.35941 	 -14.5544 	 92.533
| 26> C 	 8.99997 	 -13.2361 	 92.99
| 27> C 	 9.31263 	 -12.2584 	 92.0508
| 28> H 	 9.2412 	 -15.4351 	 93.1039
| 29> C 	 8.4106 	 -12.9499 	 94.4197
| 30> H 	 8.4282 	 -11.9059 	 94.5426
| 31> H 	 9.15968 	 -13.2786 	 95.1033
| 32> C 	 6.97063 	 -13.4094 	 94.7595
| 33> H 	 6.77618 	 -14.4311 	 94.4518
| 34> H 	 6.17456 	 -12.9047 	 94.2078
| 35> C 	 6.50169 	 -12.9588 	 96.1561
| 36> H 	 6.36224 	 -11.8276 	 96.1827
| 37> H 	 7.18185 	 -13.1705 	 96.9597
| 38> H 	 5.47684 	 -13.4354 	 96.2907
| 39> H 	 9.52985 	 -7.35458 	 91.5976
| 40> H 	 10.1951 	 -15.3819 	 90.6848
| 41> *
| 42>
| 43>                          ****END OF INPUT****

CARTESIAN COORDINATES (ANGSTROEM)
---------------------------------
  S     10.379800   -9.753160   91.519800
  C      9.338080   -8.355230   91.840500
  C      8.039830   -8.789500   92.156300
  C      7.948020  -10.205600   92.235400
  C      9.166300  -10.778600   92.083400
  H      7.089700  -10.811200   92.485400
  C      6.930910   -7.793890   92.129800
  H      6.430380   -7.950920   91.182500
  H      7.261660   -6.748740   92.055200
  C      5.929500   -7.798630   93.324200
  H      5.115090   -7.163860   92.973100
  H      5.401240   -8.730580   93.504700
  C      6.462520   -7.104790   94.563200
  H      6.851430   -6.099270   94.422700
  H      5.771190   -7.059180   95.335100
  H      7.313040   -7.723610   94.913200
  S     10.213900  -12.958500   90.677400
  C      9.920020  -14.540000   91.256800
  C      9.359410  -14.554400   92.533000
  C      8.999970  -13.236100   92.990000
  C      9.312630  -12.258400   92.050800
  H      9.241200  -15.435100   93.103900
  C      8.410600  -12.949900   94.419700
  H      8.428200  -11.905900   94.542600
  H      9.159680  -13.278600   95.103300
  C      6.970630  -13.409400   94.759500
  H      6.776180  -14.431100   94.451800
  H      6.174560  -12.904700   94.207800
  C      6.501690  -12.958800   96.156100
  H      6.362240  -11.827600   96.182700
  H      7.181850  -13.170500   96.959700
  H      5.476840  -13.435400   96.290700
  H      9.529850   -7.354580   91.597600
  H     10.195100  -15.381900   90.684800

 Total Charge           Charge          ....    0
 Multiplicity           Mult            ....    1
 Number of Electrons    NEL             ....  134
 Basis Dimension        Dim             ....  322

ORBITAL ENERGIES
----------------

  NO   OCC          E(Eh)            E(eV)
   0   2.0000     -88.967657     -2420.9330
   1   2.0000     -88.964454     -2420.8459
   2   2.0000     -10.327956      -281.0380
   3   2.0000     -10.323065      -280.9049
   4   2.0000     -10.313600      -280.6473
   5   2.0000     -10.308106      -280.4978
   6   2.0000     -10.307211      -280.4735
   7   2.0000     -10.300730      -280.2971
   8   2.0000     -10.292912      -280.0844
   9   2.0000     -10.292310      -280.0680
  10   2.0000     -10.290618      -280.0219
  11   2.0000     -10.289314      -279.9865
  12   2.0000     -10.289151      -279.9820
  13   2.0000     -10.289147      -279.9819
  14   2.0000     -10.286029      -279.8971
  15   2.0000     -10.271621      -279.5050
  16   2.0000      -8.083133      -219.9532
  17   2.0000      -8.079536      -219.8553
  18   2.0000      -6.041557      -164.3991
  19   2.0000      -6.037954      -164.3011
  20   2.0000      -6.037698      -164.2941
  21   2.0000      -6.034054      -164.1950
  22   2.0000      -6.033778      -164.1874
  23   2.0000      -6.030344      -164.0940
  24   2.0000      -1.010532       -27.4980
  25   2.0000      -0.984249       -26.7828
  26   2.0000      -0.913171       -24.8486
  27   2.0000      -0.904618       -24.6159
  28   2.0000      -0.866380       -23.5754
  29   2.0000      -0.855594       -23.2819
  30   2.0000      -0.846140       -23.0246
  31   2.0000      -0.815617       -22.1941
  32   2.0000      -0.784696       -21.3527
  33   2.0000      -0.772820       -21.0295
  34   2.0000      -0.707461       -19.2510
  35   2.0000      -0.701502       -19.0888
  36   2.0000      -0.693944       -18.8832
  37   2.0000      -0.660458       -17.9720
  38   2.0000      -0.641621       -17.4594
  39   2.0000      -0.621892       -16.9226
  40   2.0000      -0.598545       -16.2872
  41   2.0000      -0.566082       -15.4039
  42   2.0000      -0.560517       -15.2525
  43   2.0000      -0.556387       -15.1401
  44   2.0000      -0.536545       -14.6001
  45   2.0000      -0.531328       -14.4582
  46   2.0000      -0.515338       -14.0231
  47   2.0000      -0.510882       -13.9018
  48   2.0000      -0.504762       -13.7353
  49   2.0000      -0.495652       -13.4874
  50   2.0000      -0.489240       -13.3129
  51   2.0000      -0.479090       -13.0367
  52   2.0000      -0.475846       -12.9484
  53   2.0000      -0.467944       -12.7334
  54   2.0000      -0.460009       -12.5175
  55   2.0000      -0.451577       -12.2880
  56   2.0000      -0.446195       -12.1416
  57   2.0000      -0.444995       -12.1089
  58   2.0000      -0.442390       -12.0380
  59   2.0000      -0.431275       -11.7356
  60   2.0000      -0.423154       -11.5146
  61   2.0000      -0.403709       -10.9855
  62   2.0000      -0.402094       -10.9415
  63   2.0000      -0.346167        -9.4197
  64   2.0000      -0.331594        -9.0231
  65   2.0000      -0.330808        -9.0017
  66   2.0000      -0.289288        -7.8719
  67   0.0000       0.033532         0.9124
  68   0.0000       0.068895         1.8747
  69   0.0000       0.107025         2.9123
  70   0.0000       0.119656         3.2560
  71   0.0000       0.126971         3.4551

MULLIKEN ATOMIC CHARGES
-----------------------
   0 S :    0.109497
   1 C :   -0.095924
   2 C :   -0.071329
   3 C :    0.015504
   4 C :   -0.122402
   5 H :    0.014509
   6 C :    0.052531
   7 H :    0.040720
   8 H :    0.012606
   9 C :   -0.081219
  10 H :    0.017267
  11 H :    0.027361
  12 C :   -0.018331
  13 H :    0.025592
  14 H :    0.019195
  15 H :    0.032019
  16 S :    0.099335
  17 C :   -0.079212
  18 C :   -0.007258
  19 C :   -0.058173
  20 C :   -0.168335
  21 H :    0.003794
  22 C :    0.106236
  23 H :    0.003241
  24 H :    0.029380
  25 C :   -0.064998
  26 H :    0.026836
  27 H :    0.021299
  28 C :   -0.085897
  29 H :    0.042698
  30 H :    0.033136
  31 H :    0.049250
  32 H :    0.024377
  33 H :    0.046694
Sum of atomic charges:   -0.0000000

LOEWDIN ATOMIC CHARGES
----------------------
   0 S :    0.421728
   1 C :   -0.193088
   2 C :   -0.054830
   3 C :   -0.066530
   4 C :   -0.205642
   5 H :    0.033219
   6 C :   -0.031312
   7 H :    0.036668
   8 H :    0.032115
   9 C :   -0.045266
  10 H :    0.023856
  11 H :    0.021863
  12 C :   -0.060520
  13 H :    0.025501
  14 H :    0.016042
  15 H :    0.029693
  16 S :    0.400541
  17 C :   -0.185722
  18 C :   -0.067260
  19 C :   -0.053009
  20 C :   -0.184517
  21 H :    0.024418
  22 C :   -0.024785
  23 H :    0.023082
  24 H :    0.031684
  25 C :   -0.048158
  26 H :    0.020241
  27 H :    0.027814
  28 C :   -0.068222
  29 H :    0.032238
  30 H :    0.015778
  31 H :    0.037655
  32 H :    0.014941
  33 H :    0.019786

  Mayer bond orders larger than 0.100000
B(  0-S ,  1-C ) :   1.1200 B(  0-S ,  4-C ) :   1.1762 B(  1-C ,  2-C ) :   1.5966
B(  1-C , 32-H ) :   0.9774 B(  2-C ,  3-C ) :   1.2309 B(  2-C ,  6-C ) :   1.0356
B(  3-C ,  4-C ) :   1.5548 B(  3-C ,  5-H ) :   1.0019 B(  4-C , 20-C ) :   1.0182
B(  6-C ,  7-H ) :   0.9344 B(  6-C ,  8-H ) :   0.9397 B(  6-C ,  9-C ) :   1.0712
B(  9-C , 10-H ) :   0.9512 B(  9-C , 11-H ) :   0.9586 B(  9-C , 12-C ) :   1.0780
B( 12-C , 13-H ) :   0.9712 B( 12-C , 14-H ) :   0.9732 B( 12-C , 15-H ) :   0.9762
B( 16-S , 17-C ) :   1.1709 B( 16-S , 20-C ) :   1.1349 B( 17-C , 18-C ) :   1.5819
B( 17-C , 33-H ) :   0.9760 B( 18-C , 19-C ) :   1.2428 B( 18-C , 21-H ) :   1.0016
B( 19-C , 20-C ) :   1.6166 B( 19-C , 22-C ) :   1.0275 B( 22-C , 23-H ) :   0.9300
B( 22-C , 24-H ) :   0.9367 B( 22-C , 25-C ) :   1.0549 B( 25-C , 26-H ) :   0.9623
B( 25-C , 27-H ) :   0.9539 B( 25-C , 28-C ) :   1.0616 B( 28-C , 29-H ) :   0.9770
B( 28-C , 30-H ) :   0.9788 B( 28-C , 31-H ) :   0.9740

Dispersion correction           -0.014055436
FINAL SINGLE POINT ENERGY     -1339.867796477991

DIPOLE MOMENT
-------------
                                X             Y             Z
Electronic contribution:     22.89451      -7.83290     -21.55674
Nuclear contribution   :    -23.46735       7.87958      21.82515
                        -----------------------------------------
Total Dipole Moment    :     -0.57283       0.04668       0.26841
                        -----------------------------------------
Magnitude (a.u.)       :      0.63432
Magnitude (Debye)      :      1.61231

Rotational constants in cm-1:     0.016479     0.009873     0.006626
Rotational constants in MHz :   494.015434   295.977601   198.633106

                             ****ORCA TERMINATED NORMALLY****
TOTAL RUN TIME: 0 days 0 hours 0 minutes 31 seconds 962 msec
