                         Program Version 4.2.1 -  RELEASE  -
|  1> ! wB97X-D3 SP def2-SVP
|  2> %pal
|  3> nprocs 16
|  4> end
|  5>
|  6> * xyz 0 1
|  7> S 	 59.9732 	 5.16661 	 75.2869
|  8> C 	 59.1308 	 6.29099 	 76.3464
|  9> C 	 58.0389 	 6.89582 	 75.6984
| 10> C 	 57.7307 	 6.1507 	 74.5228
| 11> C 	 58.5775 	 5.1246 	 74.1909
| 12> H 	 56.897 	 6.40546 	 73.8674
| 13> C 	 57.1864 	 8.04109 	 76.1667
| 14> H 	 56.7514 	 8.44619 	 75.2771
| 15> H 	 57.7503 	 8.83133 	 76.5951
| 16> C 	 56.0522 	 7.65436 	 77.0745
| 17> H 	 55.8299 	 6.67381 	 76.7456
| 18> H 	 56.6192 	 7.53773 	 78.0788
| 19> C 	 54.9058 	 8.71288 	 77.0602
| 20> H 	 55.2868 	 9.735 	 77.0944
| 21> H 	 54.3554 	 8.60867 	 76.1648
| 22> H 	 54.0538 	 8.51844 	 77.7096
| 23> S 	 57.8808 	 2.77847 	 73.0659
| 24> C 	 58.582 	 2.24636 	 71.5302
| 25> C 	 59.1892 	 3.36507 	 70.9577
| 26> C 	 59.2637 	 4.5272 	 71.8168
| 27> C 	 58.5838 	 4.3487 	 72.9942
| 28> H 	 59.5709 	 3.1755 	 69.9453
| 29> C 	 60.1194 	 5.68429 	 71.5783
| 30> H 	 60.8567 	 5.36761 	 70.7997
| 31> H 	 60.7711 	 5.92633 	 72.5066
| 32> C 	 59.4069 	 6.89879 	 70.9964
| 33> H 	 60.0871 	 7.61135 	 70.5577
| 34> H 	 58.941 	 7.35802 	 71.9152
| 35> C 	 58.2099 	 6.67548 	 70.0644
| 36> H 	 57.8976 	 7.64129 	 69.6773
| 37> H 	 57.3615 	 6.18609 	 70.5437
| 38> H 	 58.3313 	 6.07825 	 69.1383
| 39> H 	 59.421 	 6.59397 	 77.3107
| 40> H 	 58.2091 	 1.34209 	 70.9774
| 41> *
| 42>
| 43>                          ****END OF INPUT****

CARTESIAN COORDINATES (ANGSTROEM)
---------------------------------
  S     59.973200    5.166610   75.286900
  C     59.130800    6.290990   76.346400
  C     58.038900    6.895820   75.698400
  C     57.730700    6.150700   74.522800
  C     58.577500    5.124600   74.190900
  H     56.897000    6.405460   73.867400
  C     57.186400    8.041090   76.166700
  H     56.751400    8.446190   75.277100
  H     57.750300    8.831330   76.595100
  C     56.052200    7.654360   77.074500
  H     55.829900    6.673810   76.745600
  H     56.619200    7.537730   78.078800
  C     54.905800    8.712880   77.060200
  H     55.286800    9.735000   77.094400
  H     54.355400    8.608670   76.164800
  H     54.053800    8.518440   77.709600
  S     57.880800    2.778470   73.065900
  C     58.582000    2.246360   71.530200
  C     59.189200    3.365070   70.957700
  C     59.263700    4.527200   71.816800
  C     58.583800    4.348700   72.994200
  H     59.570900    3.175500   69.945300
  C     60.119400    5.684290   71.578300
  H     60.856700    5.367610   70.799700
  H     60.771100    5.926330   72.506600
  C     59.406900    6.898790   70.996400
  H     60.087100    7.611350   70.557700
  H     58.941000    7.358020   71.915200
  C     58.209900    6.675480   70.064400
  H     57.897600    7.641290   69.677300
  H     57.361500    6.186090   70.543700
  H     58.331300    6.078250   69.138300
  H     59.421000    6.593970   77.310700
  H     58.209100    1.342090   70.977400

 Total Charge           Charge          ....    0
 Multiplicity           Mult            ....    1
 Number of Electrons    NEL             ....  134
 Basis Dimension        Dim             ....  322

ORBITAL ENERGIES
----------------

  NO   OCC          E(Eh)            E(eV)
   0   2.0000     -88.968736     -2420.9624
   1   2.0000     -88.959250     -2420.7042
   2   2.0000     -10.327018      -281.0125
   3   2.0000     -10.323209      -280.9088
   4   2.0000     -10.319103      -280.7971
   5   2.0000     -10.317186      -280.7449
   6   2.0000     -10.303279      -280.3665
   7   2.0000     -10.301578      -280.3202
   8   2.0000     -10.300248      -280.2840
   9   2.0000     -10.296174      -280.1732
  10   2.0000     -10.291545      -280.0472
  11   2.0000     -10.290770      -280.0261
  12   2.0000     -10.285874      -279.8929
  13   2.0000     -10.284278      -279.8494
  14   2.0000     -10.282211      -279.7932
  15   2.0000     -10.275588      -279.6130
  16   2.0000      -8.082569      -219.9379
  17   2.0000      -8.074528      -219.7191
  18   2.0000      -6.041164      -164.3884
  19   2.0000      -6.037275      -164.2826
  20   2.0000      -6.033210      -164.1720
  21   2.0000      -6.033045      -164.1675
  22   2.0000      -6.028757      -164.0508
  23   2.0000      -6.025417      -163.9599
  24   2.0000      -1.009945       -27.4820
  25   2.0000      -0.984160       -26.7804
  26   2.0000      -0.919884       -25.0313
  27   2.0000      -0.909886       -24.7593
  28   2.0000      -0.872357       -23.7380
  29   2.0000      -0.847896       -23.0724
  30   2.0000      -0.843656       -22.9571
  31   2.0000      -0.816096       -22.2071
  32   2.0000      -0.786178       -21.3930
  33   2.0000      -0.774235       -21.0680
  34   2.0000      -0.709758       -19.3135
  35   2.0000      -0.707344       -19.2478
  36   2.0000      -0.687452       -18.7065
  37   2.0000      -0.661855       -18.0100
  38   2.0000      -0.645802       -17.5732
  39   2.0000      -0.623517       -16.9668
  40   2.0000      -0.583367       -15.8742
  41   2.0000      -0.574272       -15.6267
  42   2.0000      -0.562327       -15.3017
  43   2.0000      -0.555598       -15.1186
  44   2.0000      -0.545065       -14.8320
  45   2.0000      -0.533889       -14.5279
  46   2.0000      -0.514496       -14.0001
  47   2.0000      -0.511222       -13.9111
  48   2.0000      -0.504459       -13.7270
  49   2.0000      -0.497440       -13.5360
  50   2.0000      -0.490836       -13.3563
  51   2.0000      -0.478766       -13.0279
  52   2.0000      -0.471237       -12.8230
  53   2.0000      -0.461038       -12.5455
  54   2.0000      -0.458248       -12.4696
  55   2.0000      -0.450698       -12.2641
  56   2.0000      -0.442123       -12.0308
  57   2.0000      -0.439808       -11.9678
  58   2.0000      -0.434136       -11.8134
  59   2.0000      -0.429067       -11.6755
  60   2.0000      -0.416860       -11.3433
  61   2.0000      -0.412578       -11.2268
  62   2.0000      -0.397385       -10.8134
  63   2.0000      -0.333922        -9.0865
  64   2.0000      -0.330652        -8.9975
  65   2.0000      -0.319137        -8.6842
  66   2.0000      -0.311777        -8.4839
  67   0.0000       0.039180         1.0661
  68   0.0000       0.045708         1.2438
  69   0.0000       0.099603         2.7103
  70   0.0000       0.116902         3.1811
  71   0.0000       0.130546         3.5523

MULLIKEN ATOMIC CHARGES
-----------------------
   0 S :    0.119955
   1 C :   -0.087555
   2 C :   -0.115269
   3 C :    0.035761
   4 C :   -0.142534
   5 H :    0.015599
   6 C :    0.083834
   7 H :    0.002718
   8 H :    0.019571
   9 C :   -0.062022
  10 H :    0.022022
  11 H :    0.033140
  12 C :   -0.024360
  13 H :    0.042437
  14 H :    0.015462
  15 H :    0.035001
  16 S :    0.095338
  17 C :   -0.125095
  18 C :   -0.052961
  19 C :   -0.038360
  20 C :   -0.180819
  21 H :    0.031877
  22 C :    0.066375
  23 H :    0.017747
  24 H :    0.052397
  25 C :   -0.077888
  26 H :    0.033783
  27 H :    0.034339
  28 C :   -0.047474
  29 H :    0.027428
  30 H :    0.035315
  31 H :    0.022339
  32 H :    0.025209
  33 H :    0.086689
Sum of atomic charges:    0.0000000

LOEWDIN ATOMIC CHARGES
----------------------
   0 S :    0.400529
   1 C :   -0.178097
   2 C :   -0.060146
   3 C :   -0.054161
   4 C :   -0.194791
   5 H :    0.032320
   6 C :   -0.031991
   7 H :    0.024970
   8 H :    0.023872
   9 C :   -0.037025
  10 H :    0.018308
  11 H :    0.031022
  12 C :   -0.067655
  13 H :    0.030145
  14 H :    0.023956
  15 H :    0.031683
  16 S :    0.410136
  17 C :   -0.194081
  18 C :   -0.071920
  19 C :   -0.059682
  20 C :   -0.213904
  21 H :    0.035167
  22 C :   -0.046831
  23 H :    0.031424
  24 H :    0.040631
  25 C :   -0.042506
  26 H :    0.022847
  27 H :    0.032255
  28 C :   -0.073050
  29 H :    0.026966
  30 H :    0.025792
  31 H :    0.022822
  32 H :    0.017087
  33 H :    0.043905

  Mayer bond orders larger than 0.100000
B(  0-S ,  1-C ) :   1.1514 B(  0-S ,  4-C ) :   1.1252 B(  1-C ,  2-C ) :   1.5894
B(  1-C ,  4-C ) :   0.1017 B(  1-C , 32-H ) :   0.9759 B(  2-C ,  3-C ) :   1.2436
B(  2-C ,  6-C ) :   1.0401 B(  3-C ,  4-C ) :   1.5970 B(  3-C ,  5-H ) :   0.9864
B(  4-C , 20-C ) :   1.0295 B(  6-C ,  7-H ) :   0.9342 B(  6-C ,  8-H ) :   0.9333
B(  6-C ,  9-C ) :   1.0494 B(  9-C , 10-H ) :   0.9622 B(  9-C , 11-H ) :   0.9564
B(  9-C , 12-C ) :   1.0658 B( 12-C , 13-H ) :   0.9763 B( 12-C , 14-H ) :   0.9684
B( 12-C , 15-H ) :   0.9723 B( 16-S , 17-C ) :   1.1542 B( 16-S , 20-C ) :   1.1579
B( 17-C , 18-C ) :   1.6158 B( 17-C , 33-H ) :   0.9570 B( 18-C , 19-C ) :   1.2256
B( 18-C , 21-H ) :   0.9843 B( 19-C , 20-C ) :   1.5787 B( 19-C , 22-C ) :   1.0582
B( 22-C , 23-H ) :   0.9218 B( 22-C , 24-H ) :   0.9333 B( 22-C , 25-C ) :   1.0571
B( 25-C , 26-H ) :   0.9600 B( 25-C , 27-H ) :   0.9482 B( 25-C , 28-C ) :   1.0908
B( 28-C , 29-H ) :   0.9718 B( 28-C , 30-H ) :   0.9646 B( 28-C , 31-H ) :   0.9740

Dispersion correction           -0.015282131
FINAL SINGLE POINT ENERGY     -1339.858455869637

DIPOLE MOMENT
-------------
                                X             Y             Z
Electronic contribution:     10.58460     -21.62808       2.65348
Nuclear contribution   :    -10.81137      22.18934      -2.90867
                        -----------------------------------------
Total Dipole Moment    :     -0.22678       0.56126      -0.25519
                        -----------------------------------------
Magnitude (a.u.)       :      0.65694
Magnitude (Debye)      :      1.66980

Rotational constants in cm-1:     0.020643     0.007960     0.007320
Rotational constants in MHz :   618.850883   238.623970   219.453291

                             ****ORCA TERMINATED NORMALLY****
TOTAL RUN TIME: 0 days 0 hours 0 minutes 30 seconds 686 msec
