                         Program Version 4.2.1 -  RELEASE  -
|  1> ! wB97X-D3 SP def2-SVP
|  2> %pal
|  3> nprocs 16
|  4> end
|  5>
|  6> * xyz 0 1
|  7> S 	 46.849 	 4.01027 	 86.6495
|  8> C 	 46.1686 	 3.77073 	 85.1235
|  9> C 	 46.0821 	 4.94804 	 84.4037
| 10> C 	 46.3054 	 6.07622 	 85.2305
| 11> C 	 46.811 	 5.74659 	 86.4936
| 12> H 	 46.16 	 7.15552 	 85.013
| 13> C 	 45.7008 	 5.03161 	 82.9855
| 14> H 	 46.0342 	 4.07201 	 82.4614
| 15> H 	 46.3594 	 5.85384 	 82.6041
| 16> C 	 44.2304 	 5.20499 	 82.6189
| 17> H 	 43.7219 	 4.34469 	 83.0977
| 18> H 	 43.7421 	 6.08859 	 83.1029
| 19> C 	 43.9495 	 5.25622 	 81.1535
| 20> H 	 44.0815 	 4.25699 	 80.7354
| 21> H 	 42.8414 	 5.36715 	 80.9168
| 22> H 	 44.5738 	 6.04543 	 80.7151
| 23> S 	 46.381 	 6.65178 	 89.0739
| 24> C 	 47.3664 	 8.04701 	 89.527
| 25> C 	 48.3372 	 8.42005 	 88.624
| 26> C 	 48.3026 	 7.57716 	 87.4565
| 27> C 	 47.236 	 6.66018 	 87.568
| 28> H 	 48.9503 	 9.25463 	 88.8494
| 29> C 	 49.2479 	 7.78245 	 86.3235
| 30> H 	 49.9652 	 8.55179 	 86.5356
| 31> H 	 48.5858 	 8.16715 	 85.5437
| 32> C 	 50.16 	 6.62011 	 85.8836
| 33> H 	 49.6901 	 5.65676 	 85.7689
| 34> H 	 50.7743 	 6.4534 	 86.7725
| 35> C 	 51.0999 	 6.8474 	 84.762
| 36> H 	 51.6338 	 7.79265 	 84.7649
| 37> H 	 50.4726 	 6.66079 	 83.8505
| 38> H 	 51.7685 	 6.06733 	 84.8164
| 39> H 	 45.9055 	 2.77714 	 84.7602
| 40> H 	 47.311 	 8.51763 	 90.5282
| 41> *
| 42>
| 43>                          ****END OF INPUT****

CARTESIAN COORDINATES (ANGSTROEM)
---------------------------------
  S     46.849000    4.010270   86.649500
  C     46.168600    3.770730   85.123500
  C     46.082100    4.948040   84.403700
  C     46.305400    6.076220   85.230500
  C     46.811000    5.746590   86.493600
  H     46.160000    7.155520   85.013000
  C     45.700800    5.031610   82.985500
  H     46.034200    4.072010   82.461400
  H     46.359400    5.853840   82.604100
  C     44.230400    5.204990   82.618900
  H     43.721900    4.344690   83.097700
  H     43.742100    6.088590   83.102900
  C     43.949500    5.256220   81.153500
  H     44.081500    4.256990   80.735400
  H     42.841400    5.367150   80.916800
  H     44.573800    6.045430   80.715100
  S     46.381000    6.651780   89.073900
  C     47.366400    8.047010   89.527000
  C     48.337200    8.420050   88.624000
  C     48.302600    7.577160   87.456500
  C     47.236000    6.660180   87.568000
  H     48.950300    9.254630   88.849400
  C     49.247900    7.782450   86.323500
  H     49.965200    8.551790   86.535600
  H     48.585800    8.167150   85.543700
  C     50.160000    6.620110   85.883600
  H     49.690100    5.656760   85.768900
  H     50.774300    6.453400   86.772500
  C     51.099900    6.847400   84.762000
  H     51.633800    7.792650   84.764900
  H     50.472600    6.660790   83.850500
  H     51.768500    6.067330   84.816400
  H     45.905500    2.777140   84.760200
  H     47.311000    8.517630   90.528200

 Total Charge           Charge          ....    0
 Multiplicity           Mult            ....    1
 Number of Electrons    NEL             ....  134
 Basis Dimension        Dim             ....  322

ORBITAL ENERGIES
----------------

  NO   OCC          E(Eh)            E(eV)
   0   2.0000     -88.970390     -2421.0074
   1   2.0000     -88.962885     -2420.8032
   2   2.0000     -10.324171      -280.9350
   3   2.0000     -10.323999      -280.9303
   4   2.0000     -10.317709      -280.7591
   5   2.0000     -10.308012      -280.4953
   6   2.0000     -10.306033      -280.4414
   7   2.0000     -10.295659      -280.1591
   8   2.0000     -10.294873      -280.1377
   9   2.0000     -10.294409      -280.1251
  10   2.0000     -10.292085      -280.0619
  11   2.0000     -10.287722      -279.9431
  12   2.0000     -10.286457      -279.9087
  13   2.0000     -10.282058      -279.7890
  14   2.0000     -10.275529      -279.6114
  15   2.0000     -10.269431      -279.4454
  16   2.0000      -8.085018      -220.0045
  17   2.0000      -8.078748      -219.8339
  18   2.0000      -6.043367      -164.4484
  19   2.0000      -6.039776      -164.3507
  20   2.0000      -6.036956      -164.2739
  21   2.0000      -6.035725      -164.2404
  22   2.0000      -6.032991      -164.1660
  23   2.0000      -6.029875      -164.0812
  24   2.0000      -1.007777       -27.4230
  25   2.0000      -0.986300       -26.8386
  26   2.0000      -0.914688       -24.8899
  27   2.0000      -0.912747       -24.8371
  28   2.0000      -0.867884       -23.6163
  29   2.0000      -0.860063       -23.4035
  30   2.0000      -0.853189       -23.2164
  31   2.0000      -0.815600       -22.1936
  32   2.0000      -0.783718       -21.3260
  33   2.0000      -0.765453       -20.8290
  34   2.0000      -0.702543       -19.1172
  35   2.0000      -0.694112       -18.8878
  36   2.0000      -0.684100       -18.6153
  37   2.0000      -0.660644       -17.9770
  38   2.0000      -0.642265       -17.4769
  39   2.0000      -0.615938       -16.7605
  40   2.0000      -0.596668       -16.2362
  41   2.0000      -0.573760       -15.6128
  42   2.0000      -0.569569       -15.4988
  43   2.0000      -0.557219       -15.1627
  44   2.0000      -0.530324       -14.4308
  45   2.0000      -0.524411       -14.2700
  46   2.0000      -0.514891       -14.0109
  47   2.0000      -0.511954       -13.9310
  48   2.0000      -0.506325       -13.7778
  49   2.0000      -0.497043       -13.5252
  50   2.0000      -0.488986       -13.3060
  51   2.0000      -0.486573       -13.2403
  52   2.0000      -0.470296       -12.7974
  53   2.0000      -0.463641       -12.6163
  54   2.0000      -0.459007       -12.4902
  55   2.0000      -0.452982       -12.3263
  56   2.0000      -0.444681       -12.1004
  57   2.0000      -0.437642       -11.9088
  58   2.0000      -0.432403       -11.7663
  59   2.0000      -0.424967       -11.5639
  60   2.0000      -0.422178       -11.4881
  61   2.0000      -0.408511       -11.1162
  62   2.0000      -0.403427       -10.9778
  63   2.0000      -0.341004        -9.2792
  64   2.0000      -0.330612        -8.9964
  65   2.0000      -0.322065        -8.7638
  66   2.0000      -0.294325        -8.0090
  67   0.0000       0.035817         0.9746
  68   0.0000       0.067801         1.8450
  69   0.0000       0.111105         3.0233
  70   0.0000       0.115168         3.1339
  71   0.0000       0.136980         3.7274

MULLIKEN ATOMIC CHARGES
-----------------------
   0 S :    0.120742
   1 C :   -0.125550
   2 C :   -0.076029
   3 C :    0.031784
   4 C :   -0.194624
   5 H :    0.027270
   6 C :    0.024912
   7 H :    0.027589
   8 H :    0.031007
   9 C :   -0.073551
  10 H :    0.020589
  11 H :    0.030592
  12 C :   -0.041843
  13 H :    0.025508
  14 H :    0.040484
  15 H :    0.043207
  16 S :    0.133277
  17 C :   -0.106797
  18 C :   -0.023010
  19 C :   -0.027009
  20 C :   -0.180108
  21 H :    0.009194
  22 C :    0.118610
  23 H :    0.003839
  24 H :    0.026447
  25 C :   -0.100351
  26 H :    0.029051
  27 H :    0.012609
  28 C :    0.004879
  29 H :    0.030098
  30 H :    0.033331
  31 H :    0.013758
  32 H :    0.049609
  33 H :    0.060485
Sum of atomic charges:   -0.0000000

LOEWDIN ATOMIC CHARGES
----------------------
   0 S :    0.431642
   1 C :   -0.215332
   2 C :   -0.074832
   3 C :   -0.064179
   4 C :   -0.204516
   5 H :    0.038226
   6 C :   -0.042557
   7 H :    0.037130
   8 H :    0.034266
   9 C :   -0.051860
  10 H :    0.025248
  11 H :    0.025556
  12 C :   -0.071869
  13 H :    0.024357
  14 H :    0.036369
  15 H :    0.028891
  16 S :    0.412996
  17 C :   -0.182348
  18 C :   -0.065546
  19 C :   -0.041546
  20 C :   -0.217838
  21 H :    0.029050
  22 C :   -0.033782
  23 H :    0.028284
  24 H :    0.032701
  25 C :   -0.042682
  26 H :    0.022130
  27 H :    0.021704
  28 C :   -0.055890
  29 H :    0.024100
  30 H :    0.033325
  31 H :    0.019150
  32 H :    0.028478
  33 H :    0.031175

  Mayer bond orders larger than 0.100000
B(  0-S ,  1-C ) :   1.1688 B(  0-S ,  4-C ) :   1.1690 B(  1-C ,  2-C ) :   1.5642
B(  1-C , 32-H ) :   0.9705 B(  2-C ,  3-C ) :   1.2566 B(  2-C ,  6-C ) :   1.0366
B(  3-C ,  4-C ) :   1.5669 B(  3-C ,  5-H ) :   0.9885 B(  4-C , 20-C ) :   1.0249
B(  6-C ,  7-H ) :   0.9387 B(  6-C ,  8-H ) :   0.9314 B(  6-C ,  9-C ) :   1.0632
B(  9-C , 10-H ) :   0.9493 B(  9-C , 11-H ) :   0.9538 B(  9-C , 12-C ) :   1.0888
B( 12-C , 13-H ) :   0.9714 B( 12-C , 14-H ) :   0.9699 B( 12-C , 15-H ) :   0.9725
B( 16-S , 17-C ) :   1.1467 B( 16-S , 20-C ) :   1.1506 B( 17-C , 18-C ) :   1.6357
B( 17-C , 33-H ) :   0.9592 B( 18-C , 19-C ) :   1.2273 B( 18-C , 21-H ) :   0.9941
B( 19-C , 20-C ) :   1.5819 B( 19-C , 22-C ) :   1.0433 B( 22-C , 23-H ) :   0.9304
B( 22-C , 24-H ) :   0.9197 B( 22-C , 25-C ) :   1.0505 B( 25-C , 26-H ) :   0.9545
B( 25-C , 27-H ) :   0.9533 B( 25-C , 28-C ) :   1.1001 B( 28-C , 29-H ) :   0.9710
B( 28-C , 30-H ) :   0.9732 B( 28-C , 31-H ) :   0.9685

Dispersion correction           -0.014385289
FINAL SINGLE POINT ENERGY     -1339.875785051418

DIPOLE MOMENT
-------------
                                X             Y             Z
Electronic contribution:     -4.79652      -3.88386      26.67123
Nuclear contribution   :      4.98148       4.12659     -27.05500
                        -----------------------------------------
Total Dipole Moment    :      0.18496       0.24273      -0.38377
                        -----------------------------------------
Magnitude (a.u.)       :      0.49032
Magnitude (Debye)      :      1.24628

Rotational constants in cm-1:     0.018536     0.008192     0.006919
Rotational constants in MHz :   555.705417   245.579652   207.414238

                             ****ORCA TERMINATED NORMALLY****
TOTAL RUN TIME: 0 days 0 hours 0 minutes 30 seconds 440 msec
