                         Program Version 4.2.1 -  RELEASE  -
|  1> ! wB97X-D3 SP def2-SVP
|  2> %pal
|  3> nprocs 16
|  4> end
|  5>
|  6> * xyz 0 1
|  7> S 	 67.0362 	 23.0013 	 74.0444
|  8> C 	 66.4807 	 21.4375 	 73.4453
|  9> C 	 67.3692 	 20.4149 	 73.6283
| 10> C 	 68.499 	 20.8639 	 74.3946
| 11> C 	 68.4794 	 22.1922 	 74.7037
| 12> H 	 69.2962 	 20.177 	 74.758
| 13> C 	 67.1428 	 18.9739 	 73.1481
| 14> H 	 66.1538 	 19.0581 	 72.598
| 15> H 	 67.0102 	 18.3239 	 73.98
| 16> C 	 68.3192 	 18.3343 	 72.4814
| 17> H 	 68.6382 	 19.1111 	 71.7929
| 18> H 	 69.1374 	 18.3285 	 73.1423
| 19> C 	 68.0379 	 17.0571 	 71.6803
| 20> H 	 68.1304 	 16.2576 	 72.4398
| 21> H 	 67.0467 	 17.0695 	 71.1798
| 22> H 	 68.709 	 16.8382 	 70.8721
| 23> S 	 68.819 	 24.1896 	 76.4752
| 24> C 	 70.4146 	 24.6735 	 76.9134
| 25> C 	 71.3497 	 23.7936 	 76.4304
| 26> C 	 70.8423 	 22.7012 	 75.6895
| 27> C 	 69.5028 	 22.9131 	 75.487
| 28> H 	 72.3619 	 23.9605 	 76.4876
| 29> C 	 71.6435 	 21.5736 	 75.2726
| 30> H 	 71.1214 	 20.6138 	 75.6373
| 31> H 	 72.541 	 21.5311 	 75.8936
| 32> C 	 72.0366 	 21.3584 	 73.7837
| 33> H 	 71.1897 	 21.5701 	 73.1731
| 34> H 	 72.5421 	 20.4232 	 73.6516
| 35> C 	 73.2386 	 22.2154 	 73.3392
| 36> H 	 73.9955 	 21.9522 	 74.0557
| 37> H 	 73.0368 	 23.302 	 73.3368
| 38> H 	 73.5501 	 21.8003 	 72.3644
| 39> H 	 65.576 	 21.2594 	 72.8767
| 40> H 	 70.6253 	 25.6067 	 77.4448
| 41> *
| 42>
| 43>                          ****END OF INPUT****

CARTESIAN COORDINATES (ANGSTROEM)
---------------------------------
  S     67.036200   23.001300   74.044400
  C     66.480700   21.437500   73.445300
  C     67.369200   20.414900   73.628300
  C     68.499000   20.863900   74.394600
  C     68.479400   22.192200   74.703700
  H     69.296200   20.177000   74.758000
  C     67.142800   18.973900   73.148100
  H     66.153800   19.058100   72.598000
  H     67.010200   18.323900   73.980000
  C     68.319200   18.334300   72.481400
  H     68.638200   19.111100   71.792900
  H     69.137400   18.328500   73.142300
  C     68.037900   17.057100   71.680300
  H     68.130400   16.257600   72.439800
  H     67.046700   17.069500   71.179800
  H     68.709000   16.838200   70.872100
  S     68.819000   24.189600   76.475200
  C     70.414600   24.673500   76.913400
  C     71.349700   23.793600   76.430400
  C     70.842300   22.701200   75.689500
  C     69.502800   22.913100   75.487000
  H     72.361900   23.960500   76.487600
  C     71.643500   21.573600   75.272600
  H     71.121400   20.613800   75.637300
  H     72.541000   21.531100   75.893600
  C     72.036600   21.358400   73.783700
  H     71.189700   21.570100   73.173100
  H     72.542100   20.423200   73.651600
  C     73.238600   22.215400   73.339200
  H     73.995500   21.952200   74.055700
  H     73.036800   23.302000   73.336800
  H     73.550100   21.800300   72.364400
  H     65.576000   21.259400   72.876700
  H     70.625300   25.606700   77.444800

 Total Charge           Charge          ....    0
 Multiplicity           Mult            ....    1
 Number of Electrons    NEL             ....  134
 Basis Dimension        Dim             ....  322

ORBITAL ENERGIES
----------------

  NO   OCC          E(Eh)            E(eV)
   0   2.0000     -88.968732     -2420.9623
   1   2.0000     -88.964068     -2420.8354
   2   2.0000     -10.330229      -281.0998
   3   2.0000     -10.324830      -280.9529
   4   2.0000     -10.312840      -280.6266
   5   2.0000     -10.311769      -280.5975
   6   2.0000     -10.299356      -280.2597
   7   2.0000     -10.297088      -280.1980
   8   2.0000     -10.296468      -280.1811
   9   2.0000     -10.293597      -280.1030
  10   2.0000     -10.293184      -280.0918
  11   2.0000     -10.284871      -279.8656
  12   2.0000     -10.284122      -279.8452
  13   2.0000     -10.284109      -279.8448
  14   2.0000     -10.280294      -279.7410
  15   2.0000     -10.277952      -279.6773
  16   2.0000      -8.082547      -219.9373
  17   2.0000      -8.079541      -219.8555
  18   2.0000      -6.041175      -164.3887
  19   2.0000      -6.037922      -164.3002
  20   2.0000      -6.037398      -164.2859
  21   2.0000      -6.034024      -164.1941
  22   2.0000      -6.033018      -164.1668
  23   2.0000      -6.030324      -164.0935
  24   2.0000      -1.010588       -27.4995
  25   2.0000      -0.985537       -26.8178
  26   2.0000      -0.917501       -24.9665
  27   2.0000      -0.915405       -24.9094
  28   2.0000      -0.868819       -23.6418
  29   2.0000      -0.862006       -23.4564
  30   2.0000      -0.844701       -22.9855
  31   2.0000      -0.814677       -22.1685
  32   2.0000      -0.786038       -21.3892
  33   2.0000      -0.775598       -21.1051
  34   2.0000      -0.710739       -19.3402
  35   2.0000      -0.700230       -19.0542
  36   2.0000      -0.685808       -18.6618
  37   2.0000      -0.671056       -18.2604
  38   2.0000      -0.634940       -17.2776
  39   2.0000      -0.619939       -16.8694
  40   2.0000      -0.604876       -16.4595
  41   2.0000      -0.578482       -15.7413
  42   2.0000      -0.565553       -15.3895
  43   2.0000      -0.557550       -15.1717
  44   2.0000      -0.546499       -14.8710
  45   2.0000      -0.524346       -14.2682
  46   2.0000      -0.518570       -14.1110
  47   2.0000      -0.511017       -13.9055
  48   2.0000      -0.499616       -13.5952
  49   2.0000      -0.496134       -13.5005
  50   2.0000      -0.490908       -13.3583
  51   2.0000      -0.486892       -13.2490
  52   2.0000      -0.472402       -12.8547
  53   2.0000      -0.465752       -12.6738
  54   2.0000      -0.463822       -12.6212
  55   2.0000      -0.448499       -12.2043
  56   2.0000      -0.447971       -12.1899
  57   2.0000      -0.440885       -11.9971
  58   2.0000      -0.435747       -11.8573
  59   2.0000      -0.429794       -11.6953
  60   2.0000      -0.425282       -11.5725
  61   2.0000      -0.407611       -11.0917
  62   2.0000      -0.403782       -10.9875
  63   2.0000      -0.353689        -9.6244
  64   2.0000      -0.332218        -9.0401
  65   2.0000      -0.331181        -9.0119
  66   2.0000      -0.285352        -7.7648
  67   0.0000       0.024599         0.6694
  68   0.0000       0.080745         2.1972
  69   0.0000       0.102780         2.7968
  70   0.0000       0.113572         3.0905
  71   0.0000       0.129381         3.5206

MULLIKEN ATOMIC CHARGES
-----------------------
   0 S :    0.109106
   1 C :   -0.127566
   2 C :   -0.091226
   3 C :   -0.024961
   4 C :   -0.101057
   5 H :    0.018216
   6 C :    0.100611
   7 H :    0.022993
   8 H :    0.022597
   9 C :   -0.092862
  10 H :    0.017819
  11 H :    0.019097
  12 C :   -0.029747
  13 H :    0.035646
  14 H :    0.037507
  15 H :    0.034347
  16 S :    0.101608
  17 C :   -0.085975
  18 C :   -0.000636
  19 C :   -0.012776
  20 C :   -0.148985
  21 H :   -0.019401
  22 C :   -0.010634
  23 H :    0.045805
  24 H :    0.008410
  25 C :   -0.031002
  26 H :    0.043146
  27 H :    0.021614
  28 C :   -0.064137
  29 H :    0.014299
  30 H :    0.048490
  31 H :    0.038141
  32 H :    0.039709
  33 H :    0.061802
Sum of atomic charges:    0.0000000

LOEWDIN ATOMIC CHARGES
----------------------
   0 S :    0.379902
   1 C :   -0.193222
   2 C :   -0.060665
   3 C :   -0.073113
   4 C :   -0.181187
   5 H :    0.034421
   6 C :   -0.028040
   7 H :    0.035472
   8 H :    0.026098
   9 C :   -0.048424
  10 H :    0.022229
  11 H :    0.017929
  12 C :   -0.061764
  13 H :    0.029389
  14 H :    0.032554
  15 H :    0.025359
  16 S :    0.410843
  17 C :   -0.195322
  18 C :   -0.057757
  19 C :   -0.065885
  20 C :   -0.179103
  21 H :    0.016357
  22 C :   -0.043006
  23 H :    0.041069
  24 H :    0.030300
  25 C :   -0.031466
  26 H :    0.021919
  27 H :    0.026784
  28 C :   -0.062491
  29 H :    0.017985
  30 H :    0.025188
  31 H :    0.028990
  32 H :    0.026527
  33 H :    0.032130

  Mayer bond orders larger than 0.100000
B(  0-S ,  1-C ) :   1.1134 B(  0-S ,  4-C ) :   1.1258 B(  1-C ,  2-C ) :   1.6654
B(  1-C , 32-H ) :   0.9560 B(  2-C ,  3-C ) :   1.2096 B(  2-C ,  6-C ) :   1.0288
B(  3-C ,  4-C ) :   1.6097 B(  3-C ,  5-H ) :   0.9813 B(  4-C , 20-C ) :   1.0441
B(  6-C ,  7-H ) :   0.9400 B(  6-C ,  8-H ) :   0.9335 B(  6-C ,  9-C ) :   1.0471
B(  9-C , 10-H ) :   0.9596 B(  9-C , 11-H ) :   0.9531 B(  9-C , 12-C ) :   1.0741
B( 12-C , 13-H ) :   0.9770 B( 12-C , 14-H ) :   0.9749 B( 12-C , 15-H ) :   0.9768
B( 16-S , 17-C ) :   1.1419 B( 16-S , 20-C ) :   1.1557 B( 17-C , 18-C ) :   1.5996
B( 17-C , 33-H ) :   0.9680 B( 18-C , 19-C ) :   1.2404 B( 18-C , 21-H ) :   1.0004
B( 19-C , 20-C ) :   1.5878 B( 19-C , 22-C ) :   1.0550 B( 22-C , 23-H ) :   0.9265
B( 22-C , 24-H ) :   0.9234 B( 22-C , 25-C ) :   1.0734 B( 25-C , 26-H ) :   0.9573
B( 25-C , 27-H ) :   0.9572 B( 25-C , 28-C ) :   1.0668 B( 28-C , 29-H ) :   0.9775
B( 28-C , 30-H ) :   0.9781 B( 28-C , 31-H ) :   0.9774

Dispersion correction           -0.014338021
FINAL SINGLE POINT ENERGY     -1339.862987325661

DIPOLE MOMENT
-------------
                                X             Y             Z
Electronic contribution:    -14.51846      23.80698      14.35165
Nuclear contribution   :     14.98904     -24.38430     -14.54850
                        -----------------------------------------
Total Dipole Moment    :      0.47059      -0.57732      -0.19685
                        -----------------------------------------
Magnitude (a.u.)       :      0.77039
Magnitude (Debye)      :      1.95817

Rotational constants in cm-1:     0.018449     0.009230     0.006648
Rotational constants in MHz :   553.079096   276.698871   199.316417

                             ****ORCA TERMINATED NORMALLY****
TOTAL RUN TIME: 0 days 0 hours 0 minutes 29 seconds 71 msec
