                         Program Version 4.2.1 -  RELEASE  -
|  1> ! wB97X-D3 SP def2-SVP
|  2> %pal
|  3> nprocs 16
|  4> end
|  5>
|  6> * xyz 0 1
|  7> S 	 45.1993 	 21.5431 	 46.9649
|  8> C 	 43.8005 	 21.0075 	 46.1603
|  9> C 	 42.799 	 20.6135 	 47.0255
| 10> C 	 43.1581 	 20.7527 	 48.3654
| 11> C 	 44.5471 	 21.0768 	 48.5189
| 12> H 	 42.5742 	 20.5126 	 49.246
| 13> C 	 41.4308 	 20.0971 	 46.618
| 14> H 	 41.1486 	 20.5953 	 45.6707
| 15> H 	 40.6475 	 20.2772 	 47.3221
| 16> C 	 41.3521 	 18.5848 	 46.2811
| 17> H 	 41.7099 	 18.1114 	 47.1804
| 18> H 	 40.2407 	 18.356 	 46.0926
| 19> C 	 42.1554 	 18.2263 	 45.0078
| 20> H 	 42.4544 	 17.2216 	 45.1817
| 21> H 	 41.5463 	 18.3433 	 44.0589
| 22> H 	 43.1075 	 18.7347 	 44.9685
| 23> S 	 46.5112 	 22.455 	 49.9393
| 24> C 	 46.8527 	 22.0236 	 51.5469
| 25> C 	 46.0931 	 21.0019 	 51.9626
| 26> C 	 45.0986 	 20.5798 	 50.9993
| 27> C 	 45.2407 	 21.2278 	 49.791
| 28> H 	 46.2701 	 20.5229 	 52.9611
| 29> C 	 44.2411 	 19.4094 	 51.3775
| 30> H 	 43.2781 	 19.8063 	 51.6953
| 31> H 	 44.5785 	 19.0088 	 52.3569
| 32> C 	 44.1653 	 18.2009 	 50.4722
| 33> H 	 45.1527 	 17.9107 	 50.1885
| 34> H 	 43.636 	 18.479 	 49.5513
| 35> C 	 43.514 	 16.9979 	 51.217
| 36> H 	 43.3632 	 16.1089 	 50.596
| 37> H 	 42.5704 	 17.2585 	 51.7348
| 38> H 	 44.2193 	 16.7603 	 51.9799
| 39> H 	 43.5666 	 21.0465 	 45.0706
| 40> H 	 47.6209 	 22.5119 	 52.2359
| 41> *
| 42>
| 43>                          ****END OF INPUT****

CARTESIAN COORDINATES (ANGSTROEM)
---------------------------------
  S     45.199300   21.543100   46.964900
  C     43.800500   21.007500   46.160300
  C     42.799000   20.613500   47.025500
  C     43.158100   20.752700   48.365400
  C     44.547100   21.076800   48.518900
  H     42.574200   20.512600   49.246000
  C     41.430800   20.097100   46.618000
  H     41.148600   20.595300   45.670700
  H     40.647500   20.277200   47.322100
  C     41.352100   18.584800   46.281100
  H     41.709900   18.111400   47.180400
  H     40.240700   18.356000   46.092600
  C     42.155400   18.226300   45.007800
  H     42.454400   17.221600   45.181700
  H     41.546300   18.343300   44.058900
  H     43.107500   18.734700   44.968500
  S     46.511200   22.455000   49.939300
  C     46.852700   22.023600   51.546900
  C     46.093100   21.001900   51.962600
  C     45.098600   20.579800   50.999300
  C     45.240700   21.227800   49.791000
  H     46.270100   20.522900   52.961100
  C     44.241100   19.409400   51.377500
  H     43.278100   19.806300   51.695300
  H     44.578500   19.008800   52.356900
  C     44.165300   18.200900   50.472200
  H     45.152700   17.910700   50.188500
  H     43.636000   18.479000   49.551300
  C     43.514000   16.997900   51.217000
  H     43.363200   16.108900   50.596000
  H     42.570400   17.258500   51.734800
  H     44.219300   16.760300   51.979900
  H     43.566600   21.046500   45.070600
  H     47.620900   22.511900   52.235900

 Total Charge           Charge          ....    0
 Multiplicity           Mult            ....    1
 Number of Electrons    NEL             ....  134
 Basis Dimension        Dim             ....  322

ORBITAL ENERGIES
----------------

  NO   OCC          E(Eh)            E(eV)
   0   2.0000     -88.974190     -2421.1108
   1   2.0000     -88.962867     -2420.8027
   2   2.0000     -10.334353      -281.2120
   3   2.0000     -10.329733      -281.0863
   4   2.0000     -10.315355      -280.6951
   5   2.0000     -10.313046      -280.6323
   6   2.0000     -10.303031      -280.3597
   7   2.0000     -10.297427      -280.2072
   8   2.0000     -10.295514      -280.1552
   9   2.0000     -10.291644      -280.0499
  10   2.0000     -10.291489      -280.0456
  11   2.0000     -10.291259      -280.0394
  12   2.0000     -10.288330      -279.9597
  13   2.0000     -10.282400      -279.7983
  14   2.0000     -10.279600      -279.7221
  15   2.0000     -10.276449      -279.6364
  16   2.0000      -8.089113      -220.1159
  17   2.0000      -8.078568      -219.8290
  18   2.0000      -6.047564      -164.5626
  19   2.0000      -6.043489      -164.4517
  20   2.0000      -6.040049      -164.3581
  21   2.0000      -6.037125      -164.2785
  22   2.0000      -6.032970      -164.1655
  23   2.0000      -6.029202      -164.0629
  24   2.0000      -1.012058       -27.5395
  25   2.0000      -0.992649       -27.0114
  26   2.0000      -0.913458       -24.8565
  27   2.0000      -0.910645       -24.7799
  28   2.0000      -0.869668       -23.6649
  29   2.0000      -0.854432       -23.2503
  30   2.0000      -0.848181       -23.0802
  31   2.0000      -0.810025       -22.0419
  32   2.0000      -0.783895       -21.3309
  33   2.0000      -0.775002       -21.0889
  34   2.0000      -0.712903       -19.3991
  35   2.0000      -0.697519       -18.9805
  36   2.0000      -0.687421       -18.7057
  37   2.0000      -0.659354       -17.9419
  38   2.0000      -0.633649       -17.2425
  39   2.0000      -0.619564       -16.8592
  40   2.0000      -0.597497       -16.2587
  41   2.0000      -0.572850       -15.5880
  42   2.0000      -0.566241       -15.4082
  43   2.0000      -0.550082       -14.9685
  44   2.0000      -0.538532       -14.6542
  45   2.0000      -0.523028       -14.2323
  46   2.0000      -0.517898       -14.0927
  47   2.0000      -0.510133       -13.8814
  48   2.0000      -0.504470       -13.7273
  49   2.0000      -0.493843       -13.4382
  50   2.0000      -0.490856       -13.3569
  51   2.0000      -0.487566       -13.2673
  52   2.0000      -0.473190       -12.8761
  53   2.0000      -0.470676       -12.8077
  54   2.0000      -0.460044       -12.5184
  55   2.0000      -0.449843       -12.2408
  56   2.0000      -0.442699       -12.0465
  57   2.0000      -0.440102       -11.9758
  58   2.0000      -0.428578       -11.6622
  59   2.0000      -0.422824       -11.5056
  60   2.0000      -0.421833       -11.4787
  61   2.0000      -0.416121       -11.3232
  62   2.0000      -0.411827       -11.2064
  63   2.0000      -0.360010        -9.7964
  64   2.0000      -0.335446        -9.1279
  65   2.0000      -0.329389        -8.9631
  66   2.0000      -0.282447        -7.6858
  67   0.0000       0.020657         0.5621
  68   0.0000       0.082159         2.2357
  69   0.0000       0.110760         3.0139
  70   0.0000       0.123301         3.3552
  71   0.0000       0.131648         3.5823

MULLIKEN ATOMIC CHARGES
-----------------------
   0 S :    0.138124
   1 C :   -0.117304
   2 C :   -0.095977
   3 C :    0.015722
   4 C :   -0.163722
   5 H :    0.018625
   6 C :    0.064128
   7 H :    0.015559
   8 H :    0.020897
   9 C :   -0.094564
  10 H :    0.028835
  11 H :    0.045953
  12 C :   -0.050297
  13 H :    0.024186
  14 H :    0.051893
  15 H :    0.027825
  16 S :    0.095019
  17 C :   -0.096809
  18 C :   -0.059858
  19 C :   -0.039901
  20 C :   -0.129486
  21 H :    0.035260
  22 C :    0.032851
  23 H :    0.028175
  24 H :   -0.000773
  25 C :   -0.040961
  26 H :    0.025537
  27 H :    0.035140
  28 C :   -0.053474
  29 H :    0.041328
  30 H :    0.031676
  31 H :    0.023593
  32 H :    0.062713
  33 H :    0.080088
Sum of atomic charges:   -0.0000000

LOEWDIN ATOMIC CHARGES
----------------------
   0 S :    0.441178
   1 C :   -0.226679
   2 C :   -0.071098
   3 C :   -0.057568
   4 C :   -0.194795
   5 H :    0.031372
   6 C :   -0.033075
   7 H :    0.027837
   8 H :    0.025429
   9 C :   -0.037683
  10 H :    0.017936
  11 H :    0.033727
  12 C :   -0.073506
  13 H :    0.025478
  14 H :    0.035296
  15 H :    0.022840
  16 S :    0.403382
  17 C :   -0.208948
  18 C :   -0.084074
  19 C :   -0.057637
  20 C :   -0.189752
  21 H :    0.039619
  22 C :   -0.039938
  23 H :    0.030878
  24 H :    0.030306
  25 C :   -0.036560
  26 H :    0.023992
  27 H :    0.020508
  28 C :   -0.062881
  29 H :    0.028173
  30 H :    0.026055
  31 H :    0.020447
  32 H :    0.039618
  33 H :    0.050123

  Mayer bond orders larger than 0.100000
B(  0-S ,  1-C ) :   1.1554 B(  0-S ,  4-C ) :   1.1768 B(  1-C ,  2-C ) :   1.5753
B(  1-C ,  4-C ) :   0.1053 B(  1-C , 32-H ) :   0.9503 B(  2-C ,  3-C ) :   1.3041
B(  2-C ,  6-C ) :   1.0291 B(  3-C ,  4-C ) :   1.4891 B(  3-C ,  5-H ) :   0.9889
B(  4-C , 20-C ) :   1.0947 B(  6-C ,  7-H ) :   0.9366 B(  6-C ,  8-H ) :   0.9473
B(  6-C ,  9-C ) :   1.0633 B(  9-C , 10-H ) :   0.9590 B(  9-C , 11-H ) :   0.9566
B(  9-C , 12-C ) :   1.0728 B( 12-C , 13-H ) :   0.9716 B( 12-C , 14-H ) :   0.9744
B( 12-C , 15-H ) :   0.9711 B( 16-S , 17-C ) :   1.1519 B( 16-S , 20-C ) :   1.1164
B( 17-C , 18-C ) :   1.6414 B( 17-C , 33-H ) :   0.9520 B( 18-C , 19-C ) :   1.2387
B( 18-C , 21-H ) :   0.9794 B( 19-C , 20-C ) :   1.6040 B( 19-C , 22-C ) :   1.0431
B( 22-C , 23-H ) :   0.9117 B( 22-C , 24-H ) :   0.9358 B( 22-C , 25-C ) :   1.0633
B( 25-C , 26-H ) :   0.9540 B( 25-C , 27-H ) :   0.9459 B( 25-C , 28-C ) :   1.0776
B( 28-C , 29-H ) :   0.9747 B( 28-C , 30-H ) :   0.9764 B( 28-C , 31-H ) :   0.9755

Dispersion correction           -0.014781372
FINAL SINGLE POINT ENERGY     -1339.880838416528

DIPOLE MOMENT
-------------
                                X             Y             Z
Electronic contribution:     18.94602      24.15713       0.75041
Nuclear contribution   :    -19.30999     -24.61421      -0.47971
                        -----------------------------------------
Total Dipole Moment    :     -0.36396      -0.45709       0.27070
                        -----------------------------------------
Magnitude (a.u.)       :      0.64395
Magnitude (Debye)      :      1.63680

Rotational constants in cm-1:     0.019305     0.009556     0.006863
Rotational constants in MHz :   578.737021   286.481505   205.751423

                             ****ORCA TERMINATED NORMALLY****
TOTAL RUN TIME: 0 days 0 hours 0 minutes 36 seconds 873 msec
