                         Program Version 4.2.1 -  RELEASE  -
|  1> ! wB97X-D3 SP def2-SVP
|  2> %pal
|  3> nprocs 16
|  4> end
|  5>
|  6> * xyz 0 1
|  7> S 	 1.33443 	 3.68796 	 83.0143
|  8> C 	 2.64517 	 4.20737 	 81.9664
|  9> C 	 2.18786 	 4.5597 	 80.7412
| 10> C 	 0.754801 	 4.6118 	 80.7261
| 11> C 	 0.149543 	 4.24737 	 81.9247
| 12> H 	 0.0432845 	 4.94897 	 79.9245
| 13> C 	 3.02342 	 5.00789 	 79.5839
| 14> H 	 3.75333 	 5.69214 	 80.0145
| 15> H 	 2.35279 	 5.50981 	 78.874
| 16> C 	 3.82647 	 3.90029 	 79.0271
| 17> H 	 4.411 	 3.45509 	 79.8516
| 18> H 	 3.09921 	 3.14039 	 78.5329
| 19> C 	 4.76168 	 4.47188 	 77.9432
| 20> H 	 5.31845 	 3.78485 	 77.358
| 21> H 	 4.24204 	 5.15059 	 77.2654
| 22> H 	 5.52662 	 5.20795 	 78.3362
| 23> S 	 -1.71299 	 2.37128 	 82.7828
| 24> C 	 -3.38665 	 2.74133 	 82.6796
| 25> C 	 -3.54086 	 4.10631 	 82.5594
| 26> C 	 -2.34269 	 4.8676 	 82.3353
| 27> C 	 -1.28169 	 3.99635 	 82.1904
| 28> H 	 -4.54065 	 4.40436 	 82.6504
| 29> C 	 -2.35485 	 6.42886 	 82.2145
| 30> H 	 -1.56222 	 6.88068 	 82.7266
| 31> H 	 -3.31604 	 6.66989 	 82.6813
| 32> C 	 -2.37179 	 6.88142 	 80.7083
| 33> H 	 -3.08072 	 6.30333 	 80.1559
| 34> H 	 -1.38003 	 6.62329 	 80.3344
| 35> C 	 -2.74171 	 8.30487 	 80.533
| 36> H 	 -2.00751 	 8.94327 	 81.0282
| 37> H 	 -3.67503 	 8.56055 	 81.0609
| 38> H 	 -2.83481 	 8.54093 	 79.4625
| 39> H 	 3.64812 	 3.79898 	 82.1271
| 40> H 	 -4.2068 	 2.11062 	 82.9762
| 41> *
| 42>
| 43>                          ****END OF INPUT****

CARTESIAN COORDINATES (ANGSTROEM)
---------------------------------
  S      1.334430    3.687960   83.014300
  C      2.645170    4.207370   81.966400
  C      2.187860    4.559700   80.741200
  C      0.754801    4.611800   80.726100
  C      0.149543    4.247370   81.924700
  H      0.043284    4.948970   79.924500
  C      3.023420    5.007890   79.583900
  H      3.753330    5.692140   80.014500
  H      2.352790    5.509810   78.874000
  C      3.826470    3.900290   79.027100
  H      4.411000    3.455090   79.851600
  H      3.099210    3.140390   78.532900
  C      4.761680    4.471880   77.943200
  H      5.318450    3.784850   77.358000
  H      4.242040    5.150590   77.265400
  H      5.526620    5.207950   78.336200
  S     -1.712990    2.371280   82.782800
  C     -3.386650    2.741330   82.679600
  C     -3.540860    4.106310   82.559400
  C     -2.342690    4.867600   82.335300
  C     -1.281690    3.996350   82.190400
  H     -4.540650    4.404360   82.650400
  C     -2.354850    6.428860   82.214500
  H     -1.562220    6.880680   82.726600
  H     -3.316040    6.669890   82.681300
  C     -2.371790    6.881420   80.708300
  H     -3.080720    6.303330   80.155900
  H     -1.380030    6.623290   80.334400
  C     -2.741710    8.304870   80.533000
  H     -2.007510    8.943270   81.028200
  H     -3.675030    8.560550   81.060900
  H     -2.834810    8.540930   79.462500
  H      3.648120    3.798980   82.127100
  H     -4.206800    2.110620   82.976200

 Total Charge           Charge          ....    0
 Multiplicity           Mult            ....    1
 Number of Electrons    NEL             ....  134
 Basis Dimension        Dim             ....  322

ORBITAL ENERGIES
----------------

  NO   OCC          E(Eh)            E(eV)
   0   2.0000     -88.962764     -2420.7999
   1   2.0000     -88.962614     -2420.7958
   2   2.0000     -10.328540      -281.0539
   3   2.0000     -10.326357      -280.9945
   4   2.0000     -10.312443      -280.6158
   5   2.0000     -10.308570      -280.5105
   6   2.0000     -10.308550      -280.5099
   7   2.0000     -10.298567      -280.2383
   8   2.0000     -10.296515      -280.1824
   9   2.0000     -10.295665      -280.1593
  10   2.0000     -10.295346      -280.1506
  11   2.0000     -10.288786      -279.9721
  12   2.0000     -10.288434      -279.9625
  13   2.0000     -10.282661      -279.8054
  14   2.0000     -10.279670      -279.7240
  15   2.0000     -10.277338      -279.6606
  16   2.0000      -8.078350      -219.8231
  17   2.0000      -8.077765      -219.8072
  18   2.0000      -6.036806      -164.2698
  19   2.0000      -6.036259      -164.2550
  20   2.0000      -6.032671      -164.1573
  21   2.0000      -6.032435      -164.1509
  22   2.0000      -6.029141      -164.0613
  23   2.0000      -6.028304      -164.0385
  24   2.0000      -1.010251       -27.4903
  25   2.0000      -0.988397       -26.8956
  26   2.0000      -0.925030       -25.1713
  27   2.0000      -0.910055       -24.7639
  28   2.0000      -0.869714       -23.6661
  29   2.0000      -0.853598       -23.2276
  30   2.0000      -0.842996       -22.9391
  31   2.0000      -0.814013       -22.1504
  32   2.0000      -0.784129       -21.3372
  33   2.0000      -0.775336       -21.0980
  34   2.0000      -0.705441       -19.1960
  35   2.0000      -0.700715       -19.0674
  36   2.0000      -0.693511       -18.8714
  37   2.0000      -0.659454       -17.9446
  38   2.0000      -0.640162       -17.4197
  39   2.0000      -0.616462       -16.7748
  40   2.0000      -0.596404       -16.2290
  41   2.0000      -0.577900       -15.7254
  42   2.0000      -0.568022       -15.4567
  43   2.0000      -0.559952       -15.2371
  44   2.0000      -0.531649       -14.4669
  45   2.0000      -0.524255       -14.2657
  46   2.0000      -0.515858       -14.0372
  47   2.0000      -0.512857       -13.9555
  48   2.0000      -0.508876       -13.8472
  49   2.0000      -0.502821       -13.6825
  50   2.0000      -0.493870       -13.4389
  51   2.0000      -0.476396       -12.9634
  52   2.0000      -0.472012       -12.8441
  53   2.0000      -0.465483       -12.6664
  54   2.0000      -0.459298       -12.4981
  55   2.0000      -0.447937       -12.1890
  56   2.0000      -0.442380       -12.0378
  57   2.0000      -0.441292       -12.0082
  58   2.0000      -0.433354       -11.7922
  59   2.0000      -0.424544       -11.5524
  60   2.0000      -0.420357       -11.4385
  61   2.0000      -0.418994       -11.4014
  62   2.0000      -0.415937       -11.3182
  63   2.0000      -0.341668        -9.2973
  64   2.0000      -0.329873        -8.9763
  65   2.0000      -0.327276        -8.9056
  66   2.0000      -0.297941        -8.1074
  67   0.0000       0.031007         0.8438
  68   0.0000       0.061145         1.6638
  69   0.0000       0.106722         2.9041
  70   0.0000       0.125348         3.4109
  71   0.0000       0.132110         3.5949

MULLIKEN ATOMIC CHARGES
-----------------------
   0 S :    0.098066
   1 C :   -0.122866
   2 C :   -0.087426
   3 C :    0.004978
   4 C :   -0.159059
   5 H :    0.031723
   6 C :    0.075499
   7 H :    0.032026
   8 H :    0.027777
   9 C :   -0.102861
  10 H :    0.038059
  11 H :    0.049568
  12 C :   -0.030458
  13 H :    0.030534
  14 H :    0.017548
  15 H :    0.022863
  16 S :    0.100650
  17 C :   -0.081040
  18 C :   -0.046676
  19 C :   -0.012621
  20 C :   -0.184308
  21 H :   -0.004505
  22 C :    0.105357
  23 H :    0.028882
  24 H :    0.017242
  25 C :   -0.071541
  26 H :    0.020990
  27 H :    0.021996
  28 C :   -0.026539
  29 H :    0.023390
  30 H :    0.026003
  31 H :    0.042415
  32 H :    0.059221
  33 H :    0.055113
Sum of atomic charges:    0.0000000

LOEWDIN ATOMIC CHARGES
----------------------
   0 S :    0.420406
   1 C :   -0.206241
   2 C :   -0.060309
   3 C :   -0.076223
   4 C :   -0.208382
   5 H :    0.036422
   6 C :   -0.033307
   7 H :    0.036796
   8 H :    0.031922
   9 C :   -0.041893
  10 H :    0.026731
  11 H :    0.036921
  12 C :   -0.072614
  13 H :    0.018551
  14 H :    0.024211
  15 H :    0.029788
  16 S :    0.399092
  17 C :   -0.194037
  18 C :   -0.071719
  19 C :   -0.047391
  20 C :   -0.189686
  21 H :    0.020330
  22 C :   -0.011344
  23 H :    0.024106
  24 H :    0.029966
  25 C :   -0.038246
  26 H :    0.020755
  27 H :    0.020826
  28 C :   -0.066579
  29 H :    0.024160
  30 H :    0.026471
  31 H :    0.030632
  32 H :    0.028759
  33 H :    0.031124

  Mayer bond orders larger than 0.100000
B(  0-S ,  1-C ) :   1.1326 B(  0-S ,  4-C ) :   1.1774 B(  1-C ,  2-C ) :   1.6226
B(  1-C , 32-H ) :   0.9575 B(  2-C ,  3-C ) :   1.2489 B(  2-C ,  6-C ) :   1.0074
B(  3-C ,  4-C ) :   1.5737 B(  3-C ,  5-H ) :   0.9764 B(  4-C , 20-C ) :   1.0303
B(  6-C ,  7-H ) :   0.9393 B(  6-C ,  8-H ) :   0.9424 B(  6-C ,  9-C ) :   1.0638
B(  9-C , 10-H ) :   0.9573 B(  9-C , 11-H ) :   0.9517 B(  9-C , 12-C ) :   1.0777
B( 12-C , 13-H ) :   0.9761 B( 12-C , 14-H ) :   0.9698 B( 12-C , 15-H ) :   0.9705
B( 16-S , 17-C ) :   1.1504 B( 16-S , 20-C ) :   1.1394 B( 17-C , 18-C ) :   1.6335
B( 17-C , 33-H ) :   0.9657 B( 18-C , 19-C ) :   1.2194 B( 18-C , 21-H ) :   0.9962
B( 19-C , 20-C ) :   1.5980 B( 19-C , 22-C ) :   1.0320 B( 22-C , 23-H ) :   0.9345
B( 22-C , 24-H ) :   0.9368 B( 22-C , 25-C ) :   1.0649 B( 25-C , 26-H ) :   0.9572
B( 25-C , 27-H ) :   0.9452 B( 25-C , 28-C ) :   1.0979 B( 28-C , 29-H ) :   0.9690
B( 28-C , 30-H ) :   0.9716 B( 28-C , 31-H ) :   0.9718

Dispersion correction           -0.013634417
FINAL SINGLE POINT ENERGY     -1339.867484666860

DIPOLE MOMENT
-------------
                                X             Y             Z
Electronic contribution:     -6.51446     -18.02906      19.82649
Nuclear contribution   :      6.40918      18.41592     -20.20749
                        -----------------------------------------
Total Dipole Moment    :     -0.10528       0.38686      -0.38100
                        -----------------------------------------
Magnitude (a.u.)       :      0.55308
Magnitude (Debye)      :      1.40583

Rotational constants in cm-1:     0.018601     0.008046     0.006283
Rotational constants in MHz :   557.639570   241.219623   188.349934

                             ****ORCA TERMINATED NORMALLY****
TOTAL RUN TIME: 0 days 0 hours 0 minutes 33 seconds 668 msec
