                         Program Version 4.2.1 -  RELEASE  -
|  1> ! wB97X-D3 SP def2-SVP
|  2> %pal
|  3> nprocs 16
|  4> end
|  5>
|  6> * xyz 0 1
|  7> S 	 -39.6554 	 54.8031 	 101.712
|  8> C 	 -38.6146 	 54.1754 	 103.002
|  9> C 	 -39.4101 	 53.8639 	 104.106
| 10> C 	 -40.7804 	 53.9005 	 103.827
| 11> C 	 -41.131 	 54.3366 	 102.529
| 12> H 	 -41.5392 	 53.8162 	 104.628
| 13> C 	 -38.8452 	 53.5437 	 105.458
| 14> H 	 -39.1254 	 54.4352 	 106.096
| 15> H 	 -37.8199 	 53.6852 	 105.523
| 16> C 	 -39.3225 	 52.2877 	 106.124
| 17> H 	 -39.029 	 52.3133 	 107.163
| 18> H 	 -40.5314 	 52.2727 	 106.066
| 19> C 	 -38.7758 	 51.0157 	 105.38
| 20> H 	 -39.3899 	 50.1488 	 105.529
| 21> H 	 -38.8343 	 51.252 	 104.32
| 22> H 	 -37.7553 	 50.8339 	 105.777
| 23> S 	 -43.9044 	 53.9246 	 102.893
| 24> C 	 -45.0562 	 54.7562 	 101.922
| 25> C 	 -44.4506 	 55.5881 	 101.065
| 26> C 	 -43.0435 	 55.5978 	 101.166
| 27> C 	 -42.4999 	 54.677 	 102.052
| 28> H 	 -45.0618 	 56.3015 	 100.49
| 29> C 	 -42.1943 	 56.5004 	 100.298
| 30> H 	 -42.7272 	 56.7652 	 99.3601
| 31> H 	 -41.2756 	 55.9569 	 100.01
| 32> C 	 -41.8192 	 57.8571 	 100.982
| 33> H 	 -41.3235 	 57.5408 	 101.881
| 34> H 	 -42.7141 	 58.4206 	 101.153
| 35> C 	 -40.8449 	 58.692 	 100.09
| 36> H 	 -40.4975 	 59.571 	 100.667
| 37> H 	 -41.3045 	 59.1376 	 99.2793
| 38> H 	 -39.9383 	 58.2214 	 99.7488
| 39> H 	 -37.5911 	 54.2501 	 103.01
| 40> H 	 -46.1582 	 54.7609 	 102.075
| 41> *
| 42>
| 43>                          ****END OF INPUT****

CARTESIAN COORDINATES (ANGSTROEM)
---------------------------------
  S    -39.655400   54.803100  101.712000
  C    -38.614600   54.175400  103.002000
  C    -39.410100   53.863900  104.106000
  C    -40.780400   53.900500  103.827000
  C    -41.131000   54.336600  102.529000
  H    -41.539200   53.816200  104.628000
  C    -38.845200   53.543700  105.458000
  H    -39.125400   54.435200  106.096000
  H    -37.819900   53.685200  105.523000
  C    -39.322500   52.287700  106.124000
  H    -39.029000   52.313300  107.163000
  H    -40.531400   52.272700  106.066000
  C    -38.775800   51.015700  105.380000
  H    -39.389900   50.148800  105.529000
  H    -38.834300   51.252000  104.320000
  H    -37.755300   50.833900  105.777000
  S    -43.904400   53.924600  102.893000
  C    -45.056200   54.756200  101.922000
  C    -44.450600   55.588100  101.065000
  C    -43.043500   55.597800  101.166000
  C    -42.499900   54.677000  102.052000
  H    -45.061800   56.301500  100.490000
  C    -42.194300   56.500400  100.298000
  H    -42.727200   56.765200   99.360100
  H    -41.275600   55.956900  100.010000
  C    -41.819200   57.857100  100.982000
  H    -41.323500   57.540800  101.881000
  H    -42.714100   58.420600  101.153000
  C    -40.844900   58.692000  100.090000
  H    -40.497500   59.571000  100.667000
  H    -41.304500   59.137600   99.279300
  H    -39.938300   58.221400   99.748800
  H    -37.591100   54.250100  103.010000
  H    -46.158200   54.760900  102.075000

 Total Charge           Charge          ....    0
 Multiplicity           Mult            ....    1
 Number of Electrons    NEL             ....  134
 Basis Dimension        Dim             ....  322

ORBITAL ENERGIES
----------------

  NO   OCC          E(Eh)            E(eV)
   0   2.0000     -88.972377     -2421.0615
   1   2.0000     -88.964013     -2420.8339
   2   2.0000     -10.343808      -281.4693
   3   2.0000     -10.336787      -281.2783
   4   2.0000     -10.316898      -280.7371
   5   2.0000     -10.313537      -280.6456
   6   2.0000     -10.303242      -280.3655
   7   2.0000     -10.303182      -280.3638
   8   2.0000     -10.298079      -280.2250
   9   2.0000     -10.296690      -280.1872
  10   2.0000     -10.290992      -280.0321
  11   2.0000     -10.290070      -280.0070
  12   2.0000     -10.288997      -279.9778
  13   2.0000     -10.284631      -279.8590
  14   2.0000     -10.276189      -279.6293
  15   2.0000     -10.270604      -279.4773
  16   2.0000      -8.085798      -220.0257
  17   2.0000      -8.078545      -219.8284
  18   2.0000      -6.044422      -164.4771
  19   2.0000      -6.040390      -164.3674
  20   2.0000      -6.037252      -164.2820
  21   2.0000      -6.036623      -164.2649
  22   2.0000      -6.033035      -164.1672
  23   2.0000      -6.029159      -164.0618
  24   2.0000      -1.007597       -27.4181
  25   2.0000      -0.989366       -26.9220
  26   2.0000      -0.916411       -24.9368
  27   2.0000      -0.903521       -24.5860
  28   2.0000      -0.869323       -23.6555
  29   2.0000      -0.849300       -23.1106
  30   2.0000      -0.842588       -22.9280
  31   2.0000      -0.816277       -22.2120
  32   2.0000      -0.784624       -21.3507
  33   2.0000      -0.774062       -21.0633
  34   2.0000      -0.713319       -19.4104
  35   2.0000      -0.697859       -18.9897
  36   2.0000      -0.690359       -18.7856
  37   2.0000      -0.666897       -18.1472
  38   2.0000      -0.632850       -17.2207
  39   2.0000      -0.624671       -16.9982
  40   2.0000      -0.595792       -16.2123
  41   2.0000      -0.576936       -15.6992
  42   2.0000      -0.568244       -15.4627
  43   2.0000      -0.553237       -15.0543
  44   2.0000      -0.536495       -14.5988
  45   2.0000      -0.519332       -14.1317
  46   2.0000      -0.515109       -14.0168
  47   2.0000      -0.513108       -13.9624
  48   2.0000      -0.509257       -13.8576
  49   2.0000      -0.492281       -13.3956
  50   2.0000      -0.490175       -13.3383
  51   2.0000      -0.478891       -13.0313
  52   2.0000      -0.471890       -12.8408
  53   2.0000      -0.470420       -12.8008
  54   2.0000      -0.466641       -12.6979
  55   2.0000      -0.449444       -12.2300
  56   2.0000      -0.444251       -12.0887
  57   2.0000      -0.441629       -12.0173
  58   2.0000      -0.435556       -11.8521
  59   2.0000      -0.420501       -11.4424
  60   2.0000      -0.415182       -11.2977
  61   2.0000      -0.410057       -11.1582
  62   2.0000      -0.405442       -11.0326
  63   2.0000      -0.363001        -9.8778
  64   2.0000      -0.333200        -9.0668
  65   2.0000      -0.330429        -8.9914
  66   2.0000      -0.284775        -7.7491
  67   0.0000       0.014565         0.3963
  68   0.0000       0.083617         2.2753
  69   0.0000       0.105446         2.8693
  70   0.0000       0.119387         3.2487
  71   0.0000       0.132519         3.6060

MULLIKEN ATOMIC CHARGES
-----------------------
   0 S :    0.081773
   1 C :   -0.076120
   2 C :   -0.103745
   3 C :   -0.021297
   4 C :   -0.089611
   5 H :    0.034053
   6 C :    0.087391
   7 H :    0.038998
   8 H :   -0.009942
   9 C :   -0.110924
  10 H :    0.032985
  11 H :    0.044543
  12 C :   -0.040778
  13 H :    0.033180
  14 H :    0.043317
  15 H :    0.038272
  16 S :    0.078246
  17 C :   -0.086340
  18 C :   -0.030302
  19 C :   -0.054879
  20 C :   -0.118657
  21 H :    0.024182
  22 C :   -0.004796
  23 H :    0.022179
  24 H :    0.038228
  25 C :   -0.040602
  26 H :    0.027703
  27 H :    0.027198
  28 C :   -0.020997
  29 H :    0.026558
  30 H :    0.010983
  31 H :    0.028232
  32 H :    0.018914
  33 H :    0.072058
Sum of atomic charges:    0.0000000

LOEWDIN ATOMIC CHARGES
----------------------
   0 S :    0.414429
   1 C :   -0.182271
   2 C :   -0.058576
   3 C :   -0.077110
   4 C :   -0.182844
   5 H :    0.032150
   6 C :   -0.039686
   7 H :    0.045594
   8 H :    0.018623
   9 C :   -0.044680
  10 H :    0.021098
  11 H :    0.034042
  12 C :   -0.065106
  13 H :    0.022811
  14 H :    0.028609
  15 H :    0.029264
  16 S :    0.393659
  17 C :   -0.190842
  18 C :   -0.082962
  19 C :   -0.061798
  20 C :   -0.176244
  21 H :    0.037413
  22 C :   -0.039942
  23 H :    0.029260
  24 H :    0.019175
  25 C :   -0.025917
  26 H :    0.019535
  27 H :    0.022397
  28 C :   -0.063124
  29 H :    0.031158
  30 H :    0.013042
  31 H :    0.023946
  32 H :    0.011296
  33 H :    0.043600

  Mayer bond orders larger than 0.100000
B(  0-S ,  1-C ) :   1.1312 B(  0-S ,  4-C ) :   1.1656 B(  1-C ,  2-C ) :   1.5572
B(  1-C ,  4-C ) :   0.1032 B(  1-C , 32-H ) :   0.9813 B(  2-C ,  3-C ) :   1.3057
B(  2-C ,  6-C ) :   1.0339 B(  3-C ,  4-C ) :   1.5105 B(  3-C ,  5-H ) :   0.9748
B(  4-C , 20-C ) :   1.0684 B(  6-C ,  7-H ) :   0.9228 B(  6-C ,  8-H ) :   0.9345
B(  6-C ,  9-C ) :   1.0718 B(  9-C , 10-H ) :   0.9554 B(  9-C , 11-H ) :   0.9541
B(  9-C , 12-C ) :   1.0570 B( 12-C , 13-H ) :   0.9774 B( 12-C , 14-H ) :   0.9783
B( 12-C , 15-H ) :   0.9753 B( 16-S , 17-C ) :   1.1587 B( 16-S , 20-C ) :   1.1197
B( 17-C , 18-C ) :   1.6168 B( 17-C , 33-H ) :   0.9563 B( 18-C , 19-C ) :   1.2620
B( 18-C , 21-H ) :   0.9856 B( 19-C , 20-C ) :   1.5785 B( 19-C , 22-C ) :   1.0385
B( 22-C , 23-H ) :   0.9370 B( 22-C , 24-H ) :   0.9429 B( 22-C , 25-C ) :   1.0524
B( 25-C , 26-H ) :   0.9577 B( 25-C , 27-H ) :   0.9559 B( 25-C , 28-C ) :   1.0843
B( 28-C , 29-H ) :   0.9728 B( 28-C , 30-H ) :   0.9745 B( 28-C , 31-H ) :   0.9758

Dispersion correction           -0.014403464
FINAL SINGLE POINT ENERGY     -1339.871852792177

DIPOLE MOMENT
-------------
                                X             Y             Z
Electronic contribution:    -10.27206      -4.62823      -4.92805
Nuclear contribution   :     10.34274       5.09185       5.20877
                        -----------------------------------------
Total Dipole Moment    :      0.07068       0.46362       0.28072
                        -----------------------------------------
Magnitude (a.u.)       :      0.54657
Magnitude (Debye)      :      1.38927

Rotational constants in cm-1:     0.020216     0.008692     0.006526
Rotational constants in MHz :   606.052749   260.579691   195.651263

                             ****ORCA TERMINATED NORMALLY****
TOTAL RUN TIME: 0 days 0 hours 0 minutes 29 seconds 726 msec
