                         Program Version 4.2.1 -  RELEASE  -
|  1> ! wB97X-D3 SP def2-SVP
|  2> %pal
|  3> nprocs 16
|  4> end
|  5>
|  6> * xyz 0 1
|  7> S 	 -39.133 	 48.6356 	 107.152
|  8> C 	 -37.4531 	 48.0929 	 107.135
|  9> C 	 -36.9007 	 48.2425 	 105.856
| 10> C 	 -37.7702 	 49.0326 	 105.013
| 11> C 	 -38.9762 	 49.3269 	 105.548
| 12> H 	 -37.562 	 49.4109 	 104.079
| 13> C 	 -35.6992 	 47.5719 	 105.318
| 14> H 	 -34.8893 	 47.6904 	 106.156
| 15> H 	 -35.2394 	 47.959 	 104.418
| 16> C 	 -36.0004 	 46.0734 	 104.952
| 17> H 	 -35.1581 	 45.614 	 104.558
| 18> H 	 -36.2011 	 45.4372 	 105.771
| 19> C 	 -37.1706 	 45.8148 	 104.034
| 20> H 	 -36.9121 	 46.1868 	 102.971
| 21> H 	 -37.3523 	 44.7118 	 103.878
| 22> H 	 -38.1534 	 46.1948 	 104.403
| 23> S 	 -40.5339 	 51.4493 	 105.898
| 24> C 	 -41.5551 	 52.0492 	 104.625
| 25> C 	 -41.5782 	 51.1832 	 103.577
| 26> C 	 -40.7082 	 50.0812 	 103.664
| 27> C 	 -40.046 	 50.1228 	 104.912
| 28> H 	 -42.2224 	 51.4097 	 102.751
| 29> C 	 -40.5203 	 48.9233 	 102.69
| 30> H 	 -39.7248 	 48.3287 	 102.987
| 31> H 	 -40.1371 	 49.2606 	 101.724
| 32> C 	 -41.7086 	 47.9375 	 102.563
| 33> H 	 -41.9291 	 47.5693 	 103.537
| 34> H 	 -41.4968 	 47.1668 	 101.922
| 35> C 	 -42.954 	 48.5768 	 102.19
| 36> H 	 -43.6198 	 47.8494 	 101.779
| 37> H 	 -42.8032 	 49.3541 	 101.412
| 38> H 	 -43.5762 	 49.0223 	 103.014
| 39> H 	 -37.0406 	 47.4666 	 107.901
| 40> H 	 -42.1382 	 52.9681 	 104.588
| 41> *
| 42>
| 43>                          ****END OF INPUT****

CARTESIAN COORDINATES (ANGSTROEM)
---------------------------------
  S    -39.133000   48.635600  107.152000
  C    -37.453100   48.092900  107.135000
  C    -36.900700   48.242500  105.856000
  C    -37.770200   49.032600  105.013000
  C    -38.976200   49.326900  105.548000
  H    -37.562000   49.410900  104.079000
  C    -35.699200   47.571900  105.318000
  H    -34.889300   47.690400  106.156000
  H    -35.239400   47.959000  104.418000
  C    -36.000400   46.073400  104.952000
  H    -35.158100   45.614000  104.558000
  H    -36.201100   45.437200  105.771000
  C    -37.170600   45.814800  104.034000
  H    -36.912100   46.186800  102.971000
  H    -37.352300   44.711800  103.878000
  H    -38.153400   46.194800  104.403000
  S    -40.533900   51.449300  105.898000
  C    -41.555100   52.049200  104.625000
  C    -41.578200   51.183200  103.577000
  C    -40.708200   50.081200  103.664000
  C    -40.046000   50.122800  104.912000
  H    -42.222400   51.409700  102.751000
  C    -40.520300   48.923300  102.690000
  H    -39.724800   48.328700  102.987000
  H    -40.137100   49.260600  101.724000
  C    -41.708600   47.937500  102.563000
  H    -41.929100   47.569300  103.537000
  H    -41.496800   47.166800  101.922000
  C    -42.954000   48.576800  102.190000
  H    -43.619800   47.849400  101.779000
  H    -42.803200   49.354100  101.412000
  H    -43.576200   49.022300  103.014000
  H    -37.040600   47.466600  107.901000
  H    -42.138200   52.968100  104.588000

 Total Charge           Charge          ....    0
 Multiplicity           Mult            ....    1
 Number of Electrons    NEL             ....  134
 Basis Dimension        Dim             ....  322

ORBITAL ENERGIES
----------------

  NO   OCC          E(Eh)            E(eV)
   0   2.0000     -88.965562     -2420.8760
   1   2.0000     -88.965235     -2420.8671
   2   2.0000     -10.326445      -280.9969
   3   2.0000     -10.325955      -280.9835
   4   2.0000     -10.314930      -280.6835
   5   2.0000     -10.311521      -280.5907
   6   2.0000     -10.305976      -280.4399
   7   2.0000     -10.304327      -280.3950
   8   2.0000     -10.302100      -280.3344
   9   2.0000     -10.287558      -279.9387
  10   2.0000     -10.287512      -279.9374
  11   2.0000     -10.285466      -279.8818
  12   2.0000     -10.283439      -279.8266
  13   2.0000     -10.279132      -279.7094
  14   2.0000     -10.270576      -279.4766
  15   2.0000     -10.269592      -279.4498
  16   2.0000      -8.080896      -219.8924
  17   2.0000      -8.079654      -219.8586
  18   2.0000      -6.039257      -164.3365
  19   2.0000      -6.038241      -164.3089
  20   2.0000      -6.035234      -164.2271
  21   2.0000      -6.034300      -164.2016
  22   2.0000      -6.031842      -164.1348
  23   2.0000      -6.030265      -164.0918
  24   2.0000      -1.009222       -27.4623
  25   2.0000      -0.985263       -26.8104
  26   2.0000      -0.918203       -24.9856
  27   2.0000      -0.912437       -24.8287
  28   2.0000      -0.869144       -23.6506
  29   2.0000      -0.855689       -23.2845
  30   2.0000      -0.846077       -23.0229
  31   2.0000      -0.819780       -22.3073
  32   2.0000      -0.785337       -21.3701
  33   2.0000      -0.770687       -20.9715
  34   2.0000      -0.703803       -19.1515
  35   2.0000      -0.702665       -19.1205
  36   2.0000      -0.691561       -18.8183
  37   2.0000      -0.660214       -17.9653
  38   2.0000      -0.644962       -17.5503
  39   2.0000      -0.615738       -16.7551
  40   2.0000      -0.599899       -16.3241
  41   2.0000      -0.579708       -15.7747
  42   2.0000      -0.562216       -15.2987
  43   2.0000      -0.551227       -14.9997
  44   2.0000      -0.549338       -14.9482
  45   2.0000      -0.537602       -14.6289
  46   2.0000      -0.519600       -14.1390
  47   2.0000      -0.511446       -13.9172
  48   2.0000      -0.497580       -13.5398
  49   2.0000      -0.495555       -13.4847
  50   2.0000      -0.490990       -13.3605
  51   2.0000      -0.482404       -13.1269
  52   2.0000      -0.470404       -12.8003
  53   2.0000      -0.468871       -12.7586
  54   2.0000      -0.455390       -12.3918
  55   2.0000      -0.441945       -12.0259
  56   2.0000      -0.440636       -11.9903
  57   2.0000      -0.439178       -11.9506
  58   2.0000      -0.434053       -11.8112
  59   2.0000      -0.424197       -11.5430
  60   2.0000      -0.423074       -11.5124
  61   2.0000      -0.410758       -11.1773
  62   2.0000      -0.410425       -11.1682
  63   2.0000      -0.347741        -9.4625
  64   2.0000      -0.331648        -9.0246
  65   2.0000      -0.324758        -8.8371
  66   2.0000      -0.293726        -7.9927
  67   0.0000       0.034717         0.9447
  68   0.0000       0.067706         1.8424
  69   0.0000       0.111920         3.0455
  70   0.0000       0.124723         3.3939
  71   0.0000       0.132600         3.6082

MULLIKEN ATOMIC CHARGES
-----------------------
   0 S :    0.101626
   1 C :   -0.113942
   2 C :   -0.081222
   3 C :    0.066153
   4 C :   -0.140266
   5 H :   -0.024425
   6 C :    0.036443
   7 H :    0.049579
   8 H :    0.027135
   9 C :   -0.007582
  10 H :    0.007626
  11 H :    0.009154
  12 C :   -0.119233
  13 H :    0.032158
  14 H :    0.038256
  15 H :    0.063960
  16 S :    0.121300
  17 C :   -0.082209
  18 C :   -0.054556
  19 C :   -0.011399
  20 C :   -0.189223
  21 H :    0.008224
  22 C :    0.107276
  23 H :   -0.014562
  24 H :    0.022537
  25 C :    0.011402
  26 H :    0.017264
  27 H :    0.011253
  28 C :   -0.078255
  29 H :    0.018804
  30 H :    0.021910
  31 H :    0.044580
  32 H :    0.047154
  33 H :    0.053079
Sum of atomic charges:   -0.0000000

LOEWDIN ATOMIC CHARGES
----------------------
   0 S :    0.391227
   1 C :   -0.192977
   2 C :   -0.057659
   3 C :   -0.055698
   4 C :   -0.194315
   5 H :    0.017870
   6 C :   -0.036085
   7 H :    0.046421
   8 H :    0.029007
   9 C :   -0.038765
  10 H :    0.016102
  11 H :    0.018833
  12 C :   -0.076375
  13 H :    0.026562
  14 H :    0.032288
  15 H :    0.030681
  16 S :    0.431399
  17 C :   -0.196110
  18 C :   -0.071529
  19 C :   -0.052879
  20 C :   -0.199668
  21 H :    0.028719
  22 C :   -0.025765
  23 H :    0.021149
  24 H :    0.029710
  25 C :   -0.029315
  26 H :    0.028888
  27 H :    0.016182
  28 C :   -0.071010
  29 H :    0.022830
  30 H :    0.020254
  31 H :    0.031980
  32 H :    0.024003
  33 H :    0.034047

  Mayer bond orders larger than 0.100000
B(  0-S ,  1-C ) :   1.1270 B(  0-S ,  4-C ) :   1.1427 B(  1-C ,  2-C ) :   1.6094
B(  1-C , 32-H ) :   0.9709 B(  2-C ,  3-C ) :   1.2094 B(  2-C ,  6-C ) :   1.0363
B(  3-C ,  4-C ) :   1.6073 B(  3-C ,  5-H ) :   1.0106 B(  4-C , 20-C ) :   0.9988
B(  6-C ,  7-H ) :   0.9393 B(  6-C ,  8-H ) :   0.9487 B(  6-C ,  9-C ) :   1.0527
B(  9-C , 10-H ) :   0.9537 B(  9-C , 11-H ) :   0.9525 B(  9-C , 12-C ) :   1.0852
B( 12-C , 13-H ) :   0.9743 B( 12-C , 14-H ) :   0.9697 B( 12-C , 15-H ) :   0.9683
B( 16-S , 17-C ) :   1.1473 B( 16-S , 20-C ) :   1.1805 B( 17-C , 18-C ) :   1.6140
B( 17-C , 20-C ) :   0.1045 B( 17-C , 33-H ) :   0.9652 B( 18-C , 19-C ) :   1.2516
B( 18-C , 21-H ) :   0.9897 B( 19-C , 20-C ) :   1.5644 B( 19-C , 22-C ) :   1.0402
B( 22-C , 23-H ) :   0.9192 B( 22-C , 24-H ) :   0.9287 B( 22-C , 25-C ) :   1.0871
B( 25-C , 26-H ) :   0.9423 B( 25-C , 27-H ) :   0.9520 B( 25-C , 28-C ) :   1.1038
B( 28-C , 29-H ) :   0.9660 B( 28-C , 30-H ) :   0.9705 B( 28-C , 31-H ) :   0.9681

Dispersion correction           -0.015520698
FINAL SINGLE POINT ENERGY     -1339.861397290025

DIPOLE MOMENT
-------------
                                X             Y             Z
Electronic contribution:     -2.32970      17.73217      18.97011
Nuclear contribution   :      2.47682     -18.16982     -19.54535
                        -----------------------------------------
Total Dipole Moment    :      0.14712      -0.43765      -0.57524
                        -----------------------------------------
Magnitude (a.u.)       :      0.73762
Magnitude (Debye)      :      1.87488

Rotational constants in cm-1:     0.019895     0.009525     0.007260
Rotational constants in MHz :   596.438592   285.567030   217.664178

                             ****ORCA TERMINATED NORMALLY****
TOTAL RUN TIME: 0 days 0 hours 0 minutes 31 seconds 512 msec
