                         Program Version 4.2.1 -  RELEASE  -
|  1> ! wB97X-D3 SP def2-SVP
|  2> %pal
|  3> nprocs 16
|  4> end
|  5>
|  6> * xyz 0 1
|  7> S 	 -44.1422 	 40.7017 	 80.9307
|  8> C 	 -43.9001 	 40.3454 	 79.2369
|  9> C 	 -45.082 	 40.4165 	 78.533
| 10> C 	 -46.1513 	 40.5844 	 79.4802
| 11> C 	 -45.8078 	 40.7627 	 80.8228
| 12> H 	 -47.2242 	 40.8437 	 79.2541
| 13> C 	 -45.1911 	 40.6338 	 77.124
| 14> H 	 -44.7434 	 41.6496 	 76.9055
| 15> H 	 -46.2771 	 40.7358 	 76.9414
| 16> C 	 -44.6309 	 39.4275 	 76.2895
| 17> H 	 -43.7241 	 39.7319 	 75.7586
| 18> H 	 -44.2899 	 38.6652 	 76.9984
| 19> C 	 -45.5823 	 38.5821 	 75.4339
| 20> H 	 -46.4432 	 38.2201 	 76.0296
| 21> H 	 -46.0383 	 39.2154 	 74.6953
| 22> H 	 -45.1674 	 37.7391 	 75.0017
| 23> S 	 -46.8994 	 42.1462 	 82.9644
| 24> C 	 -48.2759 	 41.6062 	 83.8001
| 25> C 	 -48.7441 	 40.4269 	 83.1766
| 26> C 	 -47.8844 	 39.9444 	 82.1252
| 27> C 	 -46.769 	 40.727 	 81.9569
| 28> H 	 -49.6606 	 39.9727 	 83.5186
| 29> C 	 -48.1501 	 38.6421 	 81.3714
| 30> H 	 -48.0089 	 38.8666 	 80.387
| 31> H 	 -49.2392 	 38.4167 	 81.3045
| 32> C 	 -47.2375 	 37.4433 	 81.7123
| 33> H 	 -46.1748 	 37.6405 	 81.4728
| 34> H 	 -47.6273 	 36.6513 	 81.0479
| 35> C 	 -47.2897 	 36.992 	 83.1685
| 36> H 	 -46.8912 	 37.7206 	 83.8475
| 37> H 	 -46.7478 	 36.0285 	 83.2644
| 38> H 	 -48.3382 	 36.825 	 83.2685
| 39> H 	 -42.8752 	 40.2913 	 78.8396
| 40> H 	 -48.7574 	 42.1813 	 84.5418
| 41> *
| 42>
| 43>                          ****END OF INPUT****

CARTESIAN COORDINATES (ANGSTROEM)
---------------------------------
  S    -44.142200   40.701700   80.930700
  C    -43.900100   40.345400   79.236900
  C    -45.082000   40.416500   78.533000
  C    -46.151300   40.584400   79.480200
  C    -45.807800   40.762700   80.822800
  H    -47.224200   40.843700   79.254100
  C    -45.191100   40.633800   77.124000
  H    -44.743400   41.649600   76.905500
  H    -46.277100   40.735800   76.941400
  C    -44.630900   39.427500   76.289500
  H    -43.724100   39.731900   75.758600
  H    -44.289900   38.665200   76.998400
  C    -45.582300   38.582100   75.433900
  H    -46.443200   38.220100   76.029600
  H    -46.038300   39.215400   74.695300
  H    -45.167400   37.739100   75.001700
  S    -46.899400   42.146200   82.964400
  C    -48.275900   41.606200   83.800100
  C    -48.744100   40.426900   83.176600
  C    -47.884400   39.944400   82.125200
  C    -46.769000   40.727000   81.956900
  H    -49.660600   39.972700   83.518600
  C    -48.150100   38.642100   81.371400
  H    -48.008900   38.866600   80.387000
  H    -49.239200   38.416700   81.304500
  C    -47.237500   37.443300   81.712300
  H    -46.174800   37.640500   81.472800
  H    -47.627300   36.651300   81.047900
  C    -47.289700   36.992000   83.168500
  H    -46.891200   37.720600   83.847500
  H    -46.747800   36.028500   83.264400
  H    -48.338200   36.825000   83.268500
  H    -42.875200   40.291300   78.839600
  H    -48.757400   42.181300   84.541800

 Total Charge           Charge          ....    0
 Multiplicity           Mult            ....    1
 Number of Electrons    NEL             ....  134
 Basis Dimension        Dim             ....  322

ORBITAL ENERGIES
----------------

  NO   OCC          E(Eh)            E(eV)
   0   2.0000     -88.964568     -2420.8490
   1   2.0000     -88.962861     -2420.8025
   2   2.0000     -10.326055      -280.9863
   3   2.0000     -10.325061      -280.9592
   4   2.0000     -10.316231      -280.7189
   5   2.0000     -10.313386      -280.6415
   6   2.0000     -10.303934      -280.3843
   7   2.0000     -10.298376      -280.2331
   8   2.0000     -10.296543      -280.1832
   9   2.0000     -10.296352      -280.1780
  10   2.0000     -10.295155      -280.1454
  11   2.0000     -10.289575      -279.9936
  12   2.0000     -10.283664      -279.8327
  13   2.0000     -10.283210      -279.8204
  14   2.0000     -10.274856      -279.5930
  15   2.0000     -10.266935      -279.3775
  16   2.0000      -8.080793      -219.8896
  17   2.0000      -8.078785      -219.8349
  18   2.0000      -6.039039      -164.3306
  19   2.0000      -6.037135      -164.2788
  20   2.0000      -6.034909      -164.2182
  21   2.0000      -6.032904      -164.1637
  22   2.0000      -6.031914      -164.1367
  23   2.0000      -6.029859      -164.0808
  24   2.0000      -1.013489       -27.5784
  25   2.0000      -0.992210       -26.9994
  26   2.0000      -0.919338       -25.0165
  27   2.0000      -0.907166       -24.6852
  28   2.0000      -0.867915       -23.6172
  29   2.0000      -0.853277       -23.2188
  30   2.0000      -0.843963       -22.9654
  31   2.0000      -0.810138       -22.0450
  32   2.0000      -0.787363       -21.4252
  33   2.0000      -0.778687       -21.1892
  34   2.0000      -0.710800       -19.3419
  35   2.0000      -0.697502       -18.9800
  36   2.0000      -0.683842       -18.6083
  37   2.0000      -0.664162       -18.0728
  38   2.0000      -0.642558       -17.4849
  39   2.0000      -0.610019       -16.5995
  40   2.0000      -0.592590       -16.1252
  41   2.0000      -0.575410       -15.6577
  42   2.0000      -0.559814       -15.2333
  43   2.0000      -0.557787       -15.1782
  44   2.0000      -0.543168       -14.7804
  45   2.0000      -0.532038       -14.4775
  46   2.0000      -0.520548       -14.1648
  47   2.0000      -0.516840       -14.0639
  48   2.0000      -0.504033       -13.7154
  49   2.0000      -0.494696       -13.4614
  50   2.0000      -0.488571       -13.2947
  51   2.0000      -0.481305       -13.0970
  52   2.0000      -0.473192       -12.8762
  53   2.0000      -0.469143       -12.7660
  54   2.0000      -0.463429       -12.6106
  55   2.0000      -0.452076       -12.3016
  56   2.0000      -0.441560       -12.0155
  57   2.0000      -0.430803       -11.7227
  58   2.0000      -0.429156       -11.6779
  59   2.0000      -0.419930       -11.4269
  60   2.0000      -0.414111       -11.2685
  61   2.0000      -0.412557       -11.2263
  62   2.0000      -0.407608       -11.0916
  63   2.0000      -0.341505        -9.2928
  64   2.0000      -0.328932        -8.9507
  65   2.0000      -0.326339        -8.8801
  66   2.0000      -0.297858        -8.1051
  67   0.0000       0.032889         0.8950
  68   0.0000       0.067103         1.8260
  69   0.0000       0.108361         2.9486
  70   0.0000       0.123453         3.3593
  71   0.0000       0.138528         3.7695

MULLIKEN ATOMIC CHARGES
-----------------------
   0 S :    0.117562
   1 C :   -0.145557
   2 C :   -0.088569
   3 C :   -0.013393
   4 C :   -0.162989
   5 H :    0.039369
   6 C :    0.060828
   7 H :    0.064933
   8 H :    0.020222
   9 C :   -0.094477
  10 H :    0.033771
  11 H :    0.036064
  12 C :   -0.021718
  13 H :    0.026213
  14 H :    0.023196
  15 H :    0.026776
  16 S :    0.105663
  17 C :   -0.080958
  18 C :   -0.041532
  19 C :   -0.075957
  20 C :   -0.130905
  21 H :    0.014458
  22 C :    0.126966
  23 H :   -0.022771
  24 H :    0.017166
  25 C :   -0.089458
  26 H :    0.041182
  27 H :    0.030500
  28 C :   -0.027254
  29 H :    0.047826
  30 H :    0.036748
  31 H :    0.014303
  32 H :    0.060764
  33 H :    0.051030
Sum of atomic charges:   -0.0000000

LOEWDIN ATOMIC CHARGES
----------------------
   0 S :    0.448157
   1 C :   -0.199309
   2 C :   -0.074673
   3 C :   -0.077016
   4 C :   -0.234184
   5 H :    0.036531
   6 C :   -0.037220
   7 H :    0.048976
   8 H :    0.033338
   9 C :   -0.042773
  10 H :    0.024209
  11 H :    0.028130
  12 C :   -0.057241
  13 H :    0.029621
  14 H :    0.019715
  15 H :    0.018379
  16 S :    0.433654
  17 C :   -0.194013
  18 C :   -0.072206
  19 C :   -0.053502
  20 C :   -0.207395
  21 H :    0.027553
  22 C :   -0.034142
  23 H :    0.016230
  24 H :    0.034548
  25 C :   -0.034723
  26 H :    0.025897
  27 H :    0.027223
  28 C :   -0.062203
  29 H :    0.025251
  30 H :    0.030512
  31 H :    0.019171
  32 H :    0.030474
  33 H :    0.023031

  Mayer bond orders larger than 0.100000
B(  0-S ,  1-C ) :   1.1743 B(  0-S ,  4-C ) :   1.1851 B(  1-C ,  2-C ) :   1.5390
B(  1-C ,  4-C ) :   0.1004 B(  1-C , 32-H ) :   0.9710 B(  2-C ,  3-C ) :   1.2877
B(  2-C ,  6-C ) :   1.0407 B(  3-C ,  4-C ) :   1.5544 B(  3-C ,  5-H ) :   0.9695
B(  4-C , 20-C ) :   0.9802 B(  6-C ,  7-H ) :   0.9383 B(  6-C ,  8-H ) :   0.9438
B(  6-C ,  9-C ) :   1.0184 B(  9-C , 10-H ) :   0.9563 B(  9-C , 11-H ) :   0.9685
B(  9-C , 12-C ) :   1.0880 B( 12-C , 13-H ) :   0.9707 B( 12-C , 14-H ) :   0.9770
B( 12-C , 15-H ) :   0.9753 B( 16-S , 17-C ) :   1.1947 B( 16-S , 20-C ) :   1.1573
B( 17-C , 18-C ) :   1.5438 B( 17-C , 20-C ) :   0.1023 B( 17-C , 33-H ) :   0.9788
B( 18-C , 19-C ) :   1.2652 B( 18-C , 21-H ) :   0.9993 B( 19-C , 20-C ) :   1.5809
B( 19-C , 22-C ) :   1.0342 B( 22-C , 23-H ) :   0.9072 B( 22-C , 24-H ) :   0.9309
B( 22-C , 25-C ) :   1.0774 B( 25-C , 26-H ) :   0.9556 B( 25-C , 27-H ) :   0.9543
B( 25-C , 28-C ) :   1.0741 B( 28-C , 29-H ) :   0.9744 B( 28-C , 30-H ) :   0.9728
B( 28-C , 31-H ) :   0.9773

Dispersion correction           -0.014815290
FINAL SINGLE POINT ENERGY     -1339.859598837307

DIPOLE MOMENT
-------------
                                X             Y             Z
Electronic contribution:      5.28562      19.42878      17.40317
Nuclear contribution   :     -5.59052     -19.61515     -17.94641
                        -----------------------------------------
Total Dipole Moment    :     -0.30491      -0.18637      -0.54324
                        -----------------------------------------
Magnitude (a.u.)       :      0.65024
Magnitude (Debye)      :      1.65278

Rotational constants in cm-1:     0.020744     0.008219     0.007029
Rotational constants in MHz :   621.879435   246.402019   210.714663

                             ****ORCA TERMINATED NORMALLY****
TOTAL RUN TIME: 0 days 0 hours 0 minutes 30 seconds 665 msec
