                         Program Version 4.2.1 -  RELEASE  -
|  1> ! wB97X-D3 SP def2-SVP
|  2> %pal
|  3> nprocs 16
|  4> end
|  5>
|  6> * xyz 0 1
|  7> S 	 -22.4588 	 34.7148 	 38.5282
|  8> C 	 -20.7894 	 34.0798 	 38.6062
|  9> C 	 -20.8236 	 32.8158 	 39.2273
| 10> C 	 -22.0716 	 32.5158 	 39.7706
| 11> C 	 -23.0852 	 33.4817 	 39.668
| 12> H 	 -22.2142 	 31.6359 	 40.2574
| 13> C 	 -19.6109 	 31.869 	 39.2182
| 14> H 	 -18.8144 	 32.4172 	 38.6905
| 15> H 	 -19.9137 	 30.964 	 38.6112
| 16> C 	 -19.2576 	 31.4883 	 40.6773
| 17> H 	 -19.0031 	 32.3956 	 41.2878
| 18> H 	 -20.0953 	 31.1321 	 41.325
| 19> C 	 -18.1326 	 30.4411 	 40.7719
| 20> H 	 -17.1691 	 30.5866 	 40.2324
| 21> H 	 -17.785 	 30.1533 	 41.742
| 22> H 	 -18.6018 	 29.5279 	 40.4676
| 23> S 	 -25.7344 	 33.9905 	 39.1268
| 24> C 	 -26.9673 	 33.737 	 40.3932
| 25> C 	 -26.4633 	 32.9887 	 41.4636
| 26> C 	 -25.0313 	 32.8284 	 41.3873
| 27> C 	 -24.4732 	 33.3129 	 40.1815
| 28> H 	 -27.1742 	 32.6809 	 42.2563
| 29> C 	 -24.2763 	 32.1789 	 42.5456
| 30> H 	 -23.4598 	 31.6176 	 42.0389
| 31> H 	 -24.7884 	 31.3265 	 43.0306
| 32> C 	 -23.7929 	 33.0691 	 43.711
| 33> H 	 -24.6236 	 33.499 	 44.1663
| 34> H 	 -23.2094 	 33.9355 	 43.3529
| 35> C 	 -22.9673 	 32.277 	 44.73
| 36> H 	 -21.9426 	 32.1442 	 44.3534
| 37> H 	 -23.4662 	 31.2995 	 45.015
| 38> H 	 -22.8227 	 32.9798 	 45.5684
| 39> H 	 -20.0169 	 34.3999 	 37.929
| 40> H 	 -28.0241 	 33.9842 	 40.2617
| 41> *
| 42>
| 43>                          ****END OF INPUT****

CARTESIAN COORDINATES (ANGSTROEM)
---------------------------------
  S    -22.458800   34.714800   38.528200
  C    -20.789400   34.079800   38.606200
  C    -20.823600   32.815800   39.227300
  C    -22.071600   32.515800   39.770600
  C    -23.085200   33.481700   39.668000
  H    -22.214200   31.635900   40.257400
  C    -19.610900   31.869000   39.218200
  H    -18.814400   32.417200   38.690500
  H    -19.913700   30.964000   38.611200
  C    -19.257600   31.488300   40.677300
  H    -19.003100   32.395600   41.287800
  H    -20.095300   31.132100   41.325000
  C    -18.132600   30.441100   40.771900
  H    -17.169100   30.586600   40.232400
  H    -17.785000   30.153300   41.742000
  H    -18.601800   29.527900   40.467600
  S    -25.734400   33.990500   39.126800
  C    -26.967300   33.737000   40.393200
  C    -26.463300   32.988700   41.463600
  C    -25.031300   32.828400   41.387300
  C    -24.473200   33.312900   40.181500
  H    -27.174200   32.680900   42.256300
  C    -24.276300   32.178900   42.545600
  H    -23.459800   31.617600   42.038900
  H    -24.788400   31.326500   43.030600
  C    -23.792900   33.069100   43.711000
  H    -24.623600   33.499000   44.166300
  H    -23.209400   33.935500   43.352900
  C    -22.967300   32.277000   44.730000
  H    -21.942600   32.144200   44.353400
  H    -23.466200   31.299500   45.015000
  H    -22.822700   32.979800   45.568400
  H    -20.016900   34.399900   37.929000
  H    -28.024100   33.984200   40.261700

 Total Charge           Charge          ....    0
 Multiplicity           Mult            ....    1
 Number of Electrons    NEL             ....  134
 Basis Dimension        Dim             ....  322

ORBITAL ENERGIES
----------------

  NO   OCC          E(Eh)            E(eV)
   0   2.0000     -88.968474     -2420.9553
   1   2.0000     -88.968009     -2420.9426
   2   2.0000     -10.341195      -281.3982
   3   2.0000     -10.340010      -281.3660
   4   2.0000     -10.324658      -280.9482
   5   2.0000     -10.318257      -280.7740
   6   2.0000     -10.314453      -280.6705
   7   2.0000     -10.306123      -280.4439
   8   2.0000     -10.303364      -280.3688
   9   2.0000     -10.302253      -280.3385
  10   2.0000     -10.298312      -280.2313
  11   2.0000     -10.295795      -280.1628
  12   2.0000     -10.286359      -279.9061
  13   2.0000     -10.285824      -279.8915
  14   2.0000     -10.282175      -279.7922
  15   2.0000     -10.276956      -279.6502
  16   2.0000      -8.081785      -219.9165
  17   2.0000      -8.081525      -219.9095
  18   2.0000      -6.040408      -164.3679
  19   2.0000      -6.040255      -164.3637
  20   2.0000      -6.036442      -164.2599
  21   2.0000      -6.036275      -164.2554
  22   2.0000      -6.032468      -164.1518
  23   2.0000      -6.032122      -164.1424
  24   2.0000      -0.997015       -27.1302
  25   2.0000      -0.976505       -26.5721
  26   2.0000      -0.907505       -24.6945
  27   2.0000      -0.905080       -24.6285
  28   2.0000      -0.864652       -23.5284
  29   2.0000      -0.850808       -23.1517
  30   2.0000      -0.843733       -22.9592
  31   2.0000      -0.814741       -22.1702
  32   2.0000      -0.779226       -21.2038
  33   2.0000      -0.768105       -20.9012
  34   2.0000      -0.710754       -19.3406
  35   2.0000      -0.699108       -19.0237
  36   2.0000      -0.693755       -18.8780
  37   2.0000      -0.660094       -17.9621
  38   2.0000      -0.639861       -17.4115
  39   2.0000      -0.626464       -17.0470
  40   2.0000      -0.593567       -16.1518
  41   2.0000      -0.566630       -15.4188
  42   2.0000      -0.563168       -15.3246
  43   2.0000      -0.554410       -15.0863
  44   2.0000      -0.526834       -14.3359
  45   2.0000      -0.522219       -14.2103
  46   2.0000      -0.512924       -13.9574
  47   2.0000      -0.509504       -13.8643
  48   2.0000      -0.504506       -13.7283
  49   2.0000      -0.500999       -13.6329
  50   2.0000      -0.489934       -13.3318
  51   2.0000      -0.484082       -13.1725
  52   2.0000      -0.470667       -12.8075
  53   2.0000      -0.467364       -12.7176
  54   2.0000      -0.457119       -12.4388
  55   2.0000      -0.445844       -12.1320
  56   2.0000      -0.440867       -11.9966
  57   2.0000      -0.438395       -11.9293
  58   2.0000      -0.435231       -11.8432
  59   2.0000      -0.422200       -11.4886
  60   2.0000      -0.417843       -11.3701
  61   2.0000      -0.412763       -11.2319
  62   2.0000      -0.411046       -11.1851
  63   2.0000      -0.352082        -9.5806
  64   2.0000      -0.333940        -9.0870
  65   2.0000      -0.328500        -8.9389
  66   2.0000      -0.284901        -7.7526
  67   0.0000       0.013134         0.3574
  68   0.0000       0.070683         1.9234
  69   0.0000       0.092642         2.5209
  70   0.0000       0.120482         3.2785
  71   0.0000       0.129335         3.5194

MULLIKEN ATOMIC CHARGES
-----------------------
   0 S :    0.093894
   1 C :   -0.120402
   2 C :   -0.108947
   3 C :    0.044919
   4 C :   -0.087960
   5 H :   -0.034960
   6 C :    0.091181
   7 H :    0.028734
   8 H :    0.053854
   9 C :   -0.121419
  10 H :    0.036226
  11 H :    0.037837
  12 C :   -0.029835
  13 H :    0.038932
  14 H :    0.016129
  15 H :    0.017032
  16 S :    0.089393
  17 C :   -0.108113
  18 C :   -0.037892
  19 C :   -0.031290
  20 C :   -0.151942
  21 H :    0.041157
  22 C :    0.028738
  23 H :    0.007251
  24 H :    0.019373
  25 C :   -0.035062
  26 H :    0.010777
  27 H :    0.034841
  28 C :   -0.065753
  29 H :    0.037593
  30 H :    0.046042
  31 H :    0.037356
  32 H :    0.055825
  33 H :    0.066491
Sum of atomic charges:   -0.0000000

LOEWDIN ATOMIC CHARGES
----------------------
   0 S :    0.379183
   1 C :   -0.192567
   2 C :   -0.060111
   3 C :   -0.058003
   4 C :   -0.177936
   5 H :    0.008146
   6 C :   -0.024981
   7 H :    0.034085
   8 H :    0.041396
   9 C :   -0.051532
  10 H :    0.029132
  11 H :    0.030084
  12 C :   -0.075623
  13 H :    0.029816
  14 H :    0.022232
  15 H :    0.022666
  16 S :    0.381122
  17 C :   -0.174922
  18 C :   -0.072388
  19 C :   -0.054844
  20 C :   -0.181363
  21 H :    0.041797
  22 C :   -0.041611
  23 H :    0.028262
  24 H :    0.031437
  25 C :   -0.036247
  26 H :    0.013491
  27 H :    0.030622
  28 C :   -0.068880
  29 H :    0.027192
  30 H :    0.031078
  31 H :    0.031073
  32 H :    0.026988
  33 H :    0.031206

  Mayer bond orders larger than 0.100000
B(  0-S ,  1-C ) :   1.1372 B(  0-S ,  4-C ) :   1.1472 B(  1-C ,  2-C ) :   1.5694
B(  1-C ,  4-C ) :   0.1105 B(  1-C , 32-H ) :   0.9649 B(  2-C ,  3-C ) :   1.3047
B(  2-C ,  6-C ) :   1.0179 B(  3-C ,  4-C ) :   1.5075 B(  3-C ,  5-H ) :   1.0034
B(  4-C , 20-C ) :   1.0752 B(  6-C ,  7-H ) :   0.9411 B(  6-C ,  8-H ) :   0.9419
B(  6-C ,  9-C ) :   1.0414 B(  9-C , 10-H ) :   0.9570 B(  9-C , 11-H ) :   0.9592
B(  9-C , 12-C ) :   1.0741 B( 12-C , 13-H ) :   0.9771 B( 12-C , 14-H ) :   0.9728
B( 12-C , 15-H ) :   0.9734 B( 16-S , 17-C ) :   1.1489 B( 16-S , 20-C ) :   1.1277
B( 17-C , 18-C ) :   1.6161 B( 17-C , 33-H ) :   0.9648 B( 18-C , 19-C ) :   1.2337
B( 18-C , 21-H ) :   0.9843 B( 19-C , 20-C ) :   1.5923 B( 19-C , 22-C ) :   1.0327
B( 22-C , 23-H ) :   0.9394 B( 22-C , 24-H ) :   0.9367 B( 22-C , 25-C ) :   1.0585
B( 25-C , 26-H ) :   0.9535 B( 25-C , 27-H ) :   0.9518 B( 25-C , 28-C ) :   1.0844
B( 28-C , 29-H ) :   0.9757 B( 28-C , 30-H ) :   0.9716 B( 28-C , 31-H ) :   0.9726

Dispersion correction           -0.013698505
FINAL SINGLE POINT ENERGY     -1339.860126096290

DIPOLE MOMENT
-------------
                                X             Y             Z
Electronic contribution:    -19.32393      16.46768     -21.31441
Nuclear contribution   :     19.52303     -17.01471      21.77358
                        -----------------------------------------
Total Dipole Moment    :      0.19911      -0.54703       0.45918
                        -----------------------------------------
Magnitude (a.u.)       :      0.74144
Magnitude (Debye)      :      1.88459

Rotational constants in cm-1:     0.016492     0.009214     0.006426
Rotational constants in MHz :   494.418724   276.226890   192.657067

                             ****ORCA TERMINATED NORMALLY****
TOTAL RUN TIME: 0 days 0 hours 0 minutes 33 seconds 46 msec
