                         Program Version 4.2.1 -  RELEASE  -
|  1> ! wB97X-D3 SP def2-SVP
|  2> %pal
|  3> nprocs 16
|  4> end
|  5>
|  6> * xyz 0 1
|  7> S 	 -67.3152 	 61.7737 	 128.736
|  8> C 	 -68.9741 	 62.2857 	 128.855
|  9> C 	 -69.7301 	 61.5249 	 127.963
| 10> C 	 -68.9844 	 60.5747 	 127.276
| 11> C 	 -67.6134 	 60.6371 	 127.414
| 12> H 	 -69.4167 	 59.9449 	 126.468
| 13> C 	 -71.1623 	 61.7032 	 127.793
| 14> H 	 -71.4631 	 61.4228 	 126.796
| 15> H 	 -71.5514 	 62.7468 	 127.863
| 16> C 	 -72.0504 	 60.8387 	 128.647
| 17> H 	 -73.0135 	 60.7483 	 128.142
| 18> H 	 -71.6911 	 59.7831 	 128.71
| 19> C 	 -72.2875 	 61.3999 	 130.008
| 20> H 	 -71.3 	 61.2745 	 130.614
| 21> H 	 -72.413 	 62.5015 	 130.085
| 22> H 	 -73.0497 	 60.8902 	 130.611
| 23> S 	 -65.5719 	 58.9386 	 127.813
| 24> C 	 -64.5206 	 58.493 	 126.498
| 25> C 	 -65.047 	 58.8615 	 125.288
| 26> C 	 -66.2555 	 59.6702 	 125.412
| 27> C 	 -66.5377 	 59.9189 	 126.766
| 28> H 	 -64.5159 	 58.6524 	 124.343
| 29> C 	 -66.8567 	 60.2735 	 124.152
| 30> H 	 -66.2039 	 61.1008 	 123.987
| 31> H 	 -67.8099 	 60.5346 	 124.517
| 32> C 	 -67.2161 	 59.2978 	 122.98
| 33> H 	 -67.8499 	 58.5463 	 123.378
| 34> H 	 -66.32 	 58.8289 	 122.653
| 35> C 	 -67.944 	 59.956 	 121.814
| 36> H 	 -68.9707 	 60.0901 	 122.045
| 37> H 	 -67.9633 	 59.313 	 120.951
| 38> H 	 -67.5646 	 60.8719 	 121.392
| 39> H 	 -69.3751 	 62.9946 	 129.557
| 40> H 	 -63.6492 	 57.9128 	 126.613
| 41> *
| 42>
| 43>                          ****END OF INPUT****

CARTESIAN COORDINATES (ANGSTROEM)
---------------------------------
  S    -67.315200   61.773700  128.736000
  C    -68.974100   62.285700  128.855000
  C    -69.730100   61.524900  127.963000
  C    -68.984400   60.574700  127.276000
  C    -67.613400   60.637100  127.414000
  H    -69.416700   59.944900  126.468000
  C    -71.162300   61.703200  127.793000
  H    -71.463100   61.422800  126.796000
  H    -71.551400   62.746800  127.863000
  C    -72.050400   60.838700  128.647000
  H    -73.013500   60.748300  128.142000
  H    -71.691100   59.783100  128.710000
  C    -72.287500   61.399900  130.008000
  H    -71.300000   61.274500  130.614000
  H    -72.413000   62.501500  130.085000
  H    -73.049700   60.890200  130.611000
  S    -65.571900   58.938600  127.813000
  C    -64.520600   58.493000  126.498000
  C    -65.047000   58.861500  125.288000
  C    -66.255500   59.670200  125.412000
  C    -66.537700   59.918900  126.766000
  H    -64.515900   58.652400  124.343000
  C    -66.856700   60.273500  124.152000
  H    -66.203900   61.100800  123.987000
  H    -67.809900   60.534600  124.517000
  C    -67.216100   59.297800  122.980000
  H    -67.849900   58.546300  123.378000
  H    -66.320000   58.828900  122.653000
  C    -67.944000   59.956000  121.814000
  H    -68.970700   60.090100  122.045000
  H    -67.963300   59.313000  120.951000
  H    -67.564600   60.871900  121.392000
  H    -69.375100   62.994600  129.557000
  H    -63.649200   57.912800  126.613000

 Total Charge           Charge          ....    0
 Multiplicity           Mult            ....    1
 Number of Electrons    NEL             ....  134
 Basis Dimension        Dim             ....  322

ORBITAL ENERGIES
----------------

  NO   OCC          E(Eh)            E(eV)
   0   2.0000     -88.963374     -2420.8165
   1   2.0000     -88.963291     -2420.8142
   2   2.0000     -10.329681      -281.0849
   3   2.0000     -10.327167      -281.0165
   4   2.0000     -10.313975      -280.6575
   5   2.0000     -10.312447      -280.6159
   6   2.0000     -10.308198      -280.5003
   7   2.0000     -10.294741      -280.1342
   8   2.0000     -10.294135      -280.1177
   9   2.0000     -10.292992      -280.0866
  10   2.0000     -10.287891      -279.9477
  11   2.0000     -10.287018      -279.9240
  12   2.0000     -10.284906      -279.8665
  13   2.0000     -10.283471      -279.8275
  14   2.0000     -10.281778      -279.7814
  15   2.0000     -10.273898      -279.5670
  16   2.0000      -8.078883      -219.8376
  17   2.0000      -8.077898      -219.8108
  18   2.0000      -6.037354      -164.2847
  19   2.0000      -6.036282      -164.2556
  20   2.0000      -6.033343      -164.1756
  21   2.0000      -6.032248      -164.1458
  22   2.0000      -6.029561      -164.0727
  23   2.0000      -6.028936      -164.0557
  24   2.0000      -1.009233       -27.4626
  25   2.0000      -0.987437       -26.8695
  26   2.0000      -0.921495       -25.0751
  27   2.0000      -0.910847       -24.7854
  28   2.0000      -0.871449       -23.7133
  29   2.0000      -0.854959       -23.2646
  30   2.0000      -0.847458       -23.0605
  31   2.0000      -0.816531       -22.2189
  32   2.0000      -0.784431       -21.3454
  33   2.0000      -0.773946       -21.0601
  34   2.0000      -0.715200       -19.4616
  35   2.0000      -0.703385       -19.1401
  36   2.0000      -0.691877       -18.8269
  37   2.0000      -0.657997       -17.9050
  38   2.0000      -0.643403       -17.5079
  39   2.0000      -0.622699       -16.9445
  40   2.0000      -0.595046       -16.1920
  41   2.0000      -0.577236       -15.7074
  42   2.0000      -0.575569       -15.6620
  43   2.0000      -0.551383       -15.0039
  44   2.0000      -0.533337       -14.5128
  45   2.0000      -0.527804       -14.3623
  46   2.0000      -0.522859       -14.2277
  47   2.0000      -0.516548       -14.0560
  48   2.0000      -0.508830       -13.8460
  49   2.0000      -0.505652       -13.7595
  50   2.0000      -0.491593       -13.3769
  51   2.0000      -0.480537       -13.0761
  52   2.0000      -0.473894       -12.8953
  53   2.0000      -0.467320       -12.7164
  54   2.0000      -0.460234       -12.5236
  55   2.0000      -0.451734       -12.2923
  56   2.0000      -0.441715       -12.0197
  57   2.0000      -0.439837       -11.9686
  58   2.0000      -0.431241       -11.7347
  59   2.0000      -0.426196       -11.5974
  60   2.0000      -0.419941       -11.4272
  61   2.0000      -0.412519       -11.2252
  62   2.0000      -0.400026       -10.8853
  63   2.0000      -0.345184        -9.3929
  64   2.0000      -0.328767        -8.9462
  65   2.0000      -0.327293        -8.9061
  66   2.0000      -0.294512        -8.0141
  67   0.0000       0.029278         0.7967
  68   0.0000       0.067881         1.8471
  69   0.0000       0.112145         3.0516
  70   0.0000       0.122490         3.3331
  71   0.0000       0.128960         3.5092

MULLIKEN ATOMIC CHARGES
-----------------------
   0 S :    0.105773
   1 C :   -0.103774
   2 C :   -0.079733
   3 C :    0.047143
   4 C :   -0.182831
   5 H :    0.020513
   6 C :    0.054266
   7 H :    0.005370
   8 H :    0.030313
   9 C :   -0.056218
  10 H :    0.021720
  11 H :    0.034011
  12 C :   -0.086464
  13 H :    0.031211
  14 H :    0.026961
  15 H :    0.042335
  16 S :    0.111054
  17 C :   -0.069063
  18 C :   -0.049299
  19 C :   -0.065299
  20 C :   -0.152176
  21 H :    0.032888
  22 C :    0.112177
  23 H :    0.049227
  24 H :   -0.005026
  25 C :   -0.058530
  26 H :    0.024493
  27 H :    0.020441
  28 C :   -0.018147
  29 H :    0.021029
  30 H :    0.020817
  31 H :    0.026766
  32 H :    0.047443
  33 H :    0.040611
Sum of atomic charges:    0.0000000

LOEWDIN ATOMIC CHARGES
----------------------
   0 S :    0.408346
   1 C :   -0.193666
   2 C :   -0.073442
   3 C :   -0.067287
   4 C :   -0.194626
   5 H :    0.034929
   6 C :   -0.037492
   7 H :    0.029335
   8 H :    0.036813
   9 C :   -0.045333
  10 H :    0.021802
  11 H :    0.031334
  12 C :   -0.081070
  13 H :    0.032380
  14 H :    0.023007
  15 H :    0.026648
  16 S :    0.418305
  17 C :   -0.178435
  18 C :   -0.075067
  19 C :   -0.047339
  20 C :   -0.213786
  21 H :    0.035290
  22 C :   -0.024978
  23 H :    0.035937
  24 H :    0.022387
  25 C :   -0.026178
  26 H :    0.026339
  27 H :    0.014567
  28 C :   -0.061913
  29 H :    0.021705
  30 H :    0.027568
  31 H :    0.024870
  32 H :    0.028872
  33 H :    0.020177

  Mayer bond orders larger than 0.100000
B(  0-S ,  1-C ) :   1.1550 B(  0-S ,  4-C ) :   1.1614 B(  1-C ,  2-C ) :   1.5493
B(  1-C ,  4-C ) :   0.1126 B(  1-C , 32-H ) :   0.9746 B(  2-C ,  3-C ) :   1.2929
B(  2-C ,  6-C ) :   1.0460 B(  3-C ,  4-C ) :   1.5458 B(  3-C ,  5-H ) :   0.9807
B(  4-C , 20-C ) :   1.0304 B(  6-C ,  7-H ) :   0.9274 B(  6-C ,  8-H ) :   0.9421
B(  6-C ,  9-C ) :   1.0779 B(  9-C , 10-H ) :   0.9534 B(  9-C , 11-H ) :   0.9480
B(  9-C , 12-C ) :   1.0838 B( 12-C , 13-H ) :   0.9687 B( 12-C , 14-H ) :   0.9736
B( 12-C , 15-H ) :   0.9727 B( 16-S , 17-C ) :   1.1488 B( 16-S , 20-C ) :   1.1563
B( 17-C , 18-C ) :   1.6241 B( 17-C , 33-H ) :   0.9740 B( 18-C , 19-C ) :   1.2169
B( 18-C , 21-H ) :   0.9846 B( 19-C , 20-C ) :   1.5950 B( 19-C , 22-C ) :   1.0278
B( 22-C , 23-H ) :   0.9406 B( 22-C , 24-H ) :   0.9258 B( 22-C , 25-C ) :   1.0604
B( 25-C , 26-H ) :   0.9540 B( 25-C , 27-H ) :   0.9591 B( 25-C , 28-C ) :   1.0931
B( 28-C , 29-H ) :   0.9742 B( 28-C , 30-H ) :   0.9708 B( 28-C , 31-H ) :   0.9748

Dispersion correction           -0.013764586
FINAL SINGLE POINT ENERGY     -1339.868845526483

DIPOLE MOMENT
-------------
                                X             Y             Z
Electronic contribution:     21.34895      -1.25124      14.22297
Nuclear contribution   :    -21.74440       1.15804     -14.84404
                        -----------------------------------------
Total Dipole Moment    :     -0.39545      -0.09320      -0.62107
                        -----------------------------------------
Magnitude (a.u.)       :      0.74215
Magnitude (Debye)      :      1.88640

Rotational constants in cm-1:     0.018580     0.008072     0.006224
Rotational constants in MHz :   557.002470   241.991603   186.590414

                             ****ORCA TERMINATED NORMALLY****
TOTAL RUN TIME: 0 days 0 hours 0 minutes 32 seconds 662 msec
