                         Program Version 4.2.1 -  RELEASE  -
|  1> ! wB97X-D3 SP def2-SVP
|  2> %pal
|  3> nprocs 16
|  4> end
|  5>
|  6> * xyz 0 1
|  7> S 	 -51.4801 	 29.4954 	 93.4723
|  8> C 	 -50.1219 	 28.471 	 93.9054
|  9> C 	 -49.994 	 27.4074 	 93.0157
| 10> C 	 -51.0883 	 27.3851 	 92.0593
| 11> C 	 -51.9094 	 28.5056 	 92.1144
| 12> H 	 -51.3402 	 26.6568 	 91.2961
| 13> C 	 -48.8745 	 26.2622 	 93.1434
| 14> H 	 -48.1441 	 26.4953 	 93.9077
| 15> H 	 -48.4373 	 26.2185 	 92.0978
| 16> C 	 -49.5123 	 24.8397 	 93.3316
| 17> H 	 -50.2168 	 24.5038 	 92.5095
| 18> H 	 -48.7209 	 24.0816 	 93.3195
| 19> C 	 -50.3201 	 24.6035 	 94.6145
| 20> H 	 -50.3606 	 23.4971 	 94.8081
| 21> H 	 -49.9909 	 25.2438 	 95.4703
| 22> H 	 -51.3109 	 25.0169 	 94.4074
| 23> S 	 -52.6336 	 30.4649 	 90.3299
| 24> C 	 -54.0739 	 30.0989 	 89.396
| 25> C 	 -54.5723 	 28.8257 	 89.6095
| 26> C 	 -53.9158 	 28.0959 	 90.6387
| 27> C 	 -52.8195 	 28.8863 	 91.0678
| 28> H 	 -55.4889 	 28.4822 	 89.1465
| 29> C 	 -54.3558 	 26.7486 	 91.2183
| 30> H 	 -53.4336 	 26.152 	 91.5468
| 31> H 	 -54.7824 	 26.1791 	 90.383
| 32> C 	 -55.3616 	 26.8408 	 92.3548
| 33> H 	 -56.1899 	 27.4779 	 92.0814
| 34> H 	 -54.8047 	 27.354 	 93.1436
| 35> C 	 -55.8902 	 25.4754 	 92.8526
| 36> H 	 -56.2431 	 25.6913 	 93.8482
| 37> H 	 -55.1599 	 24.692 	 93.0442
| 38> H 	 -56.6189 	 25.0971 	 92.1561
| 39> H 	 -49.4796 	 28.732 	 94.7224
| 40> H 	 -54.5549 	 30.8281 	 88.7777
| 41> *
| 42>
| 43>                          ****END OF INPUT****

CARTESIAN COORDINATES (ANGSTROEM)
---------------------------------
  S    -51.480100   29.495400   93.472300
  C    -50.121900   28.471000   93.905400
  C    -49.994000   27.407400   93.015700
  C    -51.088300   27.385100   92.059300
  C    -51.909400   28.505600   92.114400
  H    -51.340200   26.656800   91.296100
  C    -48.874500   26.262200   93.143400
  H    -48.144100   26.495300   93.907700
  H    -48.437300   26.218500   92.097800
  C    -49.512300   24.839700   93.331600
  H    -50.216800   24.503800   92.509500
  H    -48.720900   24.081600   93.319500
  C    -50.320100   24.603500   94.614500
  H    -50.360600   23.497100   94.808100
  H    -49.990900   25.243800   95.470300
  H    -51.310900   25.016900   94.407400
  S    -52.633600   30.464900   90.329900
  C    -54.073900   30.098900   89.396000
  C    -54.572300   28.825700   89.609500
  C    -53.915800   28.095900   90.638700
  C    -52.819500   28.886300   91.067800
  H    -55.488900   28.482200   89.146500
  C    -54.355800   26.748600   91.218300
  H    -53.433600   26.152000   91.546800
  H    -54.782400   26.179100   90.383000
  C    -55.361600   26.840800   92.354800
  H    -56.189900   27.477900   92.081400
  H    -54.804700   27.354000   93.143600
  C    -55.890200   25.475400   92.852600
  H    -56.243100   25.691300   93.848200
  H    -55.159900   24.692000   93.044200
  H    -56.618900   25.097100   92.156100
  H    -49.479600   28.732000   94.722400
  H    -54.554900   30.828100   88.777700

 Total Charge           Charge          ....    0
 Multiplicity           Mult            ....    1
 Number of Electrons    NEL             ....  134
 Basis Dimension        Dim             ....  322

ORBITAL ENERGIES
----------------

  NO   OCC          E(Eh)            E(eV)
   0   2.0000     -88.972482     -2421.0643
   1   2.0000     -88.964254     -2420.8404
   2   2.0000     -10.325625      -280.9745
   3   2.0000     -10.323610      -280.9197
   4   2.0000     -10.315037      -280.6864
   5   2.0000     -10.314898      -280.6827
   6   2.0000     -10.312185      -280.6088
   7   2.0000     -10.308909      -280.5197
   8   2.0000     -10.305180      -280.4182
   9   2.0000     -10.298866      -280.2464
  10   2.0000     -10.295560      -280.1564
  11   2.0000     -10.294144      -280.1179
  12   2.0000     -10.293039      -280.0878
  13   2.0000     -10.284660      -279.8598
  14   2.0000     -10.279889      -279.7300
  15   2.0000     -10.276527      -279.6385
  16   2.0000      -8.086824      -220.0537
  17   2.0000      -8.079216      -219.8467
  18   2.0000      -6.045128      -164.4963
  19   2.0000      -6.041605      -164.4004
  20   2.0000      -6.037679      -164.2936
  21   2.0000      -6.037619      -164.2920
  22   2.0000      -6.033604      -164.1827
  23   2.0000      -6.030113      -164.0877
  24   2.0000      -1.005369       -27.3575
  25   2.0000      -0.979604       -26.6564
  26   2.0000      -0.908859       -24.7313
  27   2.0000      -0.899783       -24.4843
  28   2.0000      -0.867431       -23.6040
  29   2.0000      -0.854712       -23.2579
  30   2.0000      -0.839519       -22.8445
  31   2.0000      -0.808803       -22.0087
  32   2.0000      -0.783803       -21.3284
  33   2.0000      -0.770650       -20.9704
  34   2.0000      -0.705194       -19.1893
  35   2.0000      -0.692336       -18.8394
  36   2.0000      -0.686826       -18.6895
  37   2.0000      -0.658776       -17.9262
  38   2.0000      -0.643221       -17.5029
  39   2.0000      -0.613972       -16.7070
  40   2.0000      -0.595867       -16.2144
  41   2.0000      -0.569058       -15.4849
  42   2.0000      -0.555600       -15.1186
  43   2.0000      -0.542487       -14.7618
  44   2.0000      -0.538821       -14.6621
  45   2.0000      -0.524095       -14.2614
  46   2.0000      -0.520407       -14.1610
  47   2.0000      -0.509531       -13.8651
  48   2.0000      -0.503883       -13.7114
  49   2.0000      -0.495203       -13.4751
  50   2.0000      -0.488258       -13.2862
  51   2.0000      -0.483715       -13.1626
  52   2.0000      -0.468139       -12.7387
  53   2.0000      -0.461870       -12.5681
  54   2.0000      -0.459479       -12.5031
  55   2.0000      -0.453660       -12.3447
  56   2.0000      -0.440354       -11.9826
  57   2.0000      -0.436334       -11.8733
  58   2.0000      -0.429905       -11.6983
  59   2.0000      -0.426501       -11.6057
  60   2.0000      -0.422096       -11.4858
  61   2.0000      -0.417587       -11.3631
  62   2.0000      -0.404909       -11.0181
  63   2.0000      -0.343103        -9.3363
  64   2.0000      -0.337077        -9.1723
  65   2.0000      -0.326871        -8.8946
  66   2.0000      -0.287547        -7.8245
  67   0.0000       0.028511         0.7758
  68   0.0000       0.070986         1.9316
  69   0.0000       0.110923         3.0184
  70   0.0000       0.116660         3.1745
  71   0.0000       0.126349         3.4381

MULLIKEN ATOMIC CHARGES
-----------------------
   0 S :    0.105486
   1 C :   -0.136977
   2 C :   -0.076728
   3 C :    0.023689
   4 C :   -0.174188
   5 H :    0.019760
   6 C :    0.078132
   7 H :    0.034825
   8 H :    0.051344
   9 C :   -0.122317
  10 H :    0.037775
  11 H :    0.030099
  12 C :   -0.068898
  13 H :    0.050299
  14 H :    0.034294
  15 H :    0.034313
  16 S :    0.134331
  17 C :   -0.094053
  18 C :   -0.015669
  19 C :   -0.047578
  20 C :   -0.175347
  21 H :    0.012214
  22 C :    0.058768
  23 H :    0.027533
  24 H :    0.019618
  25 C :   -0.071844
  26 H :    0.028279
  27 H :    0.032226
  28 C :   -0.022215
  29 H :    0.032792
  30 H :    0.025559
  31 H :    0.037375
  32 H :    0.048392
  33 H :    0.048712
Sum of atomic charges:    0.0000000

LOEWDIN ATOMIC CHARGES
----------------------
   0 S :    0.403189
   1 C :   -0.199820
   2 C :   -0.060225
   3 C :   -0.067125
   4 C :   -0.204947
   5 H :    0.028980
   6 C :   -0.023098
   7 H :    0.028781
   8 H :    0.043885
   9 C :   -0.054440
  10 H :    0.029722
  11 H :    0.020543
  12 C :   -0.077342
  13 H :    0.034185
  14 H :    0.027230
  15 H :    0.024944
  16 S :    0.413166
  17 C :   -0.185648
  18 C :   -0.065905
  19 C :   -0.053057
  20 C :   -0.198167
  21 H :    0.029740
  22 C :   -0.037640
  23 H :    0.036755
  24 H :    0.027290
  25 C :   -0.037231
  26 H :    0.024422
  27 H :    0.027377
  28 C :   -0.062692
  29 H :    0.030277
  30 H :    0.025106
  31 H :    0.024579
  32 H :    0.024101
  33 H :    0.023067

  Mayer bond orders larger than 0.100000
B(  0-S ,  1-C ) :   1.1350 B(  0-S ,  4-C ) :   1.1501 B(  1-C ,  2-C ) :   1.6031
B(  1-C , 32-H ) :   0.9760 B(  2-C ,  3-C ) :   1.2306 B(  2-C ,  6-C ) :   1.0075
B(  3-C ,  4-C ) :   1.5761 B(  3-C ,  5-H ) :   0.9837 B(  4-C , 20-C ) :   1.0581
B(  6-C ,  7-H ) :   0.9511 B(  6-C ,  8-H ) :   0.9393 B(  6-C ,  9-C ) :   1.0655
B(  9-C , 10-H ) :   0.9576 B(  9-C , 11-H ) :   0.9625 B(  9-C , 12-C ) :   1.0601
B( 12-C , 13-H ) :   0.9747 B( 12-C , 14-H ) :   0.9773 B( 12-C , 15-H ) :   0.9758
B( 16-S , 17-C ) :   1.1408 B( 16-S , 20-C ) :   1.1594 B( 17-C , 18-C ) :   1.6097
B( 17-C , 33-H ) :   0.9702 B( 18-C , 19-C ) :   1.2634 B( 18-C , 21-H ) :   0.9839
B( 19-C , 20-C ) :   1.5659 B( 19-C , 22-C ) :   1.0390 B( 22-C , 23-H ) :   0.9255
B( 22-C , 24-H ) :   0.9315 B( 22-C , 25-C ) :   1.0681 B( 25-C , 26-H ) :   0.9551
B( 25-C , 27-H ) :   0.9552 B( 25-C , 28-C ) :   1.0775 B( 28-C , 29-H ) :   0.9735
B( 28-C , 30-H ) :   0.9742 B( 28-C , 31-H ) :   0.9765

Dispersion correction           -0.014781629
FINAL SINGLE POINT ENERGY     -1339.879511627047

DIPOLE MOMENT
-------------
                                X             Y             Z
Electronic contribution:      3.82696      27.91496      -8.64432
Nuclear contribution   :     -3.94498     -28.44173       8.64910
                        -----------------------------------------
Total Dipole Moment    :     -0.11802      -0.52677       0.00478
                        -----------------------------------------
Magnitude (a.u.)       :      0.53985
Magnitude (Debye)      :      1.37218

Rotational constants in cm-1:     0.017169     0.009689     0.007241
Rotational constants in MHz :   514.699734   290.464220   217.067286

                             ****ORCA TERMINATED NORMALLY****
TOTAL RUN TIME: 0 days 0 hours 0 minutes 28 seconds 803 msec
