                         Program Version 4.2.1 -  RELEASE  -
|  1> ! wB97X-D3 SP def2-SVP
|  2> %pal
|  3> nprocs 16
|  4> end
|  5>
|  6> * xyz 0 1
|  7> S 	 -78.2453 	 39.8217 	 138.82
|  8> C 	 -77.525 	 38.199 	 138.635
|  9> C 	 -77.0573 	 38.0192 	 137.342
| 10> C 	 -77.3805 	 39.0848 	 136.52
| 11> C 	 -77.9778 	 40.186 	 137.14
| 12> H 	 -77.2237 	 39.0958 	 135.446
| 13> C 	 -76.1499 	 36.8991 	 137.052
| 14> H 	 -76.2398 	 36.7495 	 136.008
| 15> H 	 -76.6426 	 36.1147 	 137.509
| 16> C 	 -74.6538 	 37.0125 	 137.52
| 17> H 	 -74.6125 	 36.9596 	 138.565
| 18> H 	 -74.098 	 36.0489 	 137.173
| 19> C 	 -73.9637 	 38.236 	 136.932
| 20> H 	 -74.4402 	 39.1278 	 137.239
| 21> H 	 -72.9061 	 38.3647 	 137.054
| 22> H 	 -74.067 	 38.2334 	 135.832
| 23> S 	 -77.9508 	 42.8518 	 137.59
| 24> C 	 -78.2953 	 44.0054 	 136.379
| 25> C 	 -78.8463 	 43.4096 	 135.301
| 26> C 	 -78.8394 	 41.9543 	 135.385
| 27> C 	 -78.362 	 41.5032 	 136.583
| 28> H 	 -79.2019 	 43.9414 	 134.406
| 29> C 	 -79.2368 	 41.1622 	 134.143
| 30> H 	 -78.3439 	 40.6151 	 133.752
| 31> H 	 -79.4934 	 41.8849 	 133.372
| 32> C 	 -80.4051 	 40.1972 	 134.25
| 33> H 	 -79.9982 	 39.3067 	 134.71
| 34> H 	 -80.6543 	 39.8846 	 133.248
| 35> C 	 -81.6611 	 40.6958 	 135.06
| 36> H 	 -82.5338 	 40.0026 	 135
| 37> H 	 -82.0657 	 41.6002 	 134.652
| 38> H 	 -81.5075 	 40.8918 	 136.107
| 39> H 	 -77.4551 	 37.5496 	 139.496
| 40> H 	 -78.2331 	 45.0829 	 136.537
| 41> *
| 42>
| 43>                          ****END OF INPUT****

CARTESIAN COORDINATES (ANGSTROEM)
---------------------------------
  S    -78.245300   39.821700  138.820000
  C    -77.525000   38.199000  138.635000
  C    -77.057300   38.019200  137.342000
  C    -77.380500   39.084800  136.520000
  C    -77.977800   40.186000  137.140000
  H    -77.223700   39.095800  135.446000
  C    -76.149900   36.899100  137.052000
  H    -76.239800   36.749500  136.008000
  H    -76.642600   36.114700  137.509000
  C    -74.653800   37.012500  137.520000
  H    -74.612500   36.959600  138.565000
  H    -74.098000   36.048900  137.173000
  C    -73.963700   38.236000  136.932000
  H    -74.440200   39.127800  137.239000
  H    -72.906100   38.364700  137.054000
  H    -74.067000   38.233400  135.832000
  S    -77.950800   42.851800  137.590000
  C    -78.295300   44.005400  136.379000
  C    -78.846300   43.409600  135.301000
  C    -78.839400   41.954300  135.385000
  C    -78.362000   41.503200  136.583000
  H    -79.201900   43.941400  134.406000
  C    -79.236800   41.162200  134.143000
  H    -78.343900   40.615100  133.752000
  H    -79.493400   41.884900  133.372000
  C    -80.405100   40.197200  134.250000
  H    -79.998200   39.306700  134.710000
  H    -80.654300   39.884600  133.248000
  C    -81.661100   40.695800  135.060000
  H    -82.533800   40.002600  135.000000
  H    -82.065700   41.600200  134.652000
  H    -81.507500   40.891800  136.107000
  H    -77.455100   37.549600  139.496000
  H    -78.233100   45.082900  136.537000

 Total Charge           Charge          ....    0
 Multiplicity           Mult            ....    1
 Number of Electrons    NEL             ....  134
 Basis Dimension        Dim             ....  322

ORBITAL ENERGIES
----------------

  NO   OCC          E(Eh)            E(eV)
   0   2.0000     -88.966472     -2420.9008
   1   2.0000     -88.960799     -2420.7464
   2   2.0000     -10.334580      -281.2182
   3   2.0000     -10.326859      -281.0081
   4   2.0000     -10.314597      -280.6744
   5   2.0000     -10.313605      -280.6475
   6   2.0000     -10.302848      -280.3547
   7   2.0000     -10.295515      -280.1552
   8   2.0000     -10.294419      -280.1254
   9   2.0000     -10.293612      -280.1034
  10   2.0000     -10.293041      -280.0879
  11   2.0000     -10.292557      -280.0747
  12   2.0000     -10.283711      -279.8340
  13   2.0000     -10.281786      -279.7816
  14   2.0000     -10.274096      -279.5724
  15   2.0000     -10.270577      -279.4766
  16   2.0000      -8.080861      -219.8914
  17   2.0000      -8.077222      -219.7924
  18   2.0000      -6.039282      -164.3372
  19   2.0000      -6.035810      -164.2427
  20   2.0000      -6.035329      -164.2296
  21   2.0000      -6.031837      -164.1346
  22   2.0000      -6.031416      -164.1232
  23   2.0000      -6.027849      -164.0261
  24   2.0000      -1.012530       -27.5523
  25   2.0000      -0.990267       -26.9465
  26   2.0000      -0.915951       -24.9243
  27   2.0000      -0.906079       -24.6557
  28   2.0000      -0.868314       -23.6280
  29   2.0000      -0.848231       -23.0815
  30   2.0000      -0.841444       -22.8969
  31   2.0000      -0.818987       -22.2858
  32   2.0000      -0.785513       -21.3749
  33   2.0000      -0.777288       -21.1511
  34   2.0000      -0.711333       -19.3563
  35   2.0000      -0.709486       -19.3061
  36   2.0000      -0.689533       -18.7632
  37   2.0000      -0.666563       -18.1381
  38   2.0000      -0.640568       -17.4307
  39   2.0000      -0.618561       -16.8319
  40   2.0000      -0.589259       -16.0345
  41   2.0000      -0.571349       -15.5472
  42   2.0000      -0.557077       -15.1588
  43   2.0000      -0.553089       -15.0503
  44   2.0000      -0.544405       -14.8140
  45   2.0000      -0.537150       -14.6166
  46   2.0000      -0.512298       -13.9403
  47   2.0000      -0.507535       -13.8107
  48   2.0000      -0.504371       -13.7246
  49   2.0000      -0.496371       -13.5069
  50   2.0000      -0.488558       -13.2943
  51   2.0000      -0.479085       -13.0366
  52   2.0000      -0.475240       -12.9319
  53   2.0000      -0.471308       -12.8249
  54   2.0000      -0.453418       -12.3381
  55   2.0000      -0.448536       -12.2053
  56   2.0000      -0.443003       -12.0547
  57   2.0000      -0.437294       -11.8994
  58   2.0000      -0.435369       -11.8470
  59   2.0000      -0.432908       -11.7800
  60   2.0000      -0.417486       -11.3604
  61   2.0000      -0.413209       -11.2440
  62   2.0000      -0.409484       -11.1426
  63   2.0000      -0.354112        -9.6359
  64   2.0000      -0.334022        -9.0892
  65   2.0000      -0.327869        -8.9218
  66   2.0000      -0.289730        -7.8840
  67   0.0000       0.027455         0.7471
  68   0.0000       0.073407         1.9975
  69   0.0000       0.110369         3.0033
  70   0.0000       0.119742         3.2583
  71   0.0000       0.137654         3.7458

MULLIKEN ATOMIC CHARGES
-----------------------
   0 S :    0.100213
   1 C :   -0.143731
   2 C :   -0.101524
   3 C :    0.022368
   4 C :   -0.135904
   5 H :   -0.000295
   6 C :    0.124679
   7 H :    0.003318
   8 H :    0.006677
   9 C :   -0.039458
  10 H :    0.017011
  11 H :    0.038533
  12 C :   -0.040528
  13 H :    0.038406
  14 H :    0.031277
  15 H :    0.017325
  16 S :    0.092566
  17 C :   -0.076355
  18 C :   -0.042698
  19 C :   -0.078830
  20 C :   -0.123613
  21 H :    0.026261
  22 C :    0.052684
  23 H :    0.043646
  24 H :    0.007093
  25 C :   -0.041212
  26 H :    0.023943
  27 H :    0.022317
  28 C :   -0.049738
  29 H :    0.033357
  30 H :    0.014382
  31 H :    0.043816
  32 H :    0.050505
  33 H :    0.063509
Sum of atomic charges:    0.0000000

LOEWDIN ATOMIC CHARGES
----------------------
   0 S :    0.399056
   1 C :   -0.183441
   2 C :   -0.067693
   3 C :   -0.071099
   4 C :   -0.190826
   5 H :    0.028969
   6 C :   -0.023232
   7 H :    0.023871
   8 H :    0.025973
   9 C :   -0.027330
  10 H :    0.013091
  11 H :    0.034603
  12 C :   -0.067050
  13 H :    0.023845
  14 H :    0.024847
  15 H :    0.027361
  16 S :    0.422811
  17 C :   -0.194962
  18 C :   -0.075560
  19 C :   -0.060374
  20 C :   -0.201901
  21 H :    0.034211
  22 C :   -0.034236
  23 H :    0.036986
  24 H :    0.025654
  25 C :   -0.037852
  26 H :    0.021431
  27 H :    0.023495
  28 C :   -0.067673
  29 H :    0.031246
  30 H :    0.018894
  31 H :    0.027094
  32 H :    0.024825
  33 H :    0.034965

  Mayer bond orders larger than 0.100000
B(  0-S ,  1-C ) :   1.1423 B(  0-S ,  4-C ) :   1.1758 B(  1-C ,  2-C ) :   1.5558
B(  1-C ,  4-C ) :   0.1144 B(  1-C , 32-H ) :   0.9774 B(  2-C ,  3-C ) :   1.2825
B(  2-C ,  6-C ) :   1.0188 B(  3-C ,  4-C ) :   1.5372 B(  3-C ,  5-H ) :   0.9963
B(  4-C , 20-C ) :   1.0155 B(  6-C ,  7-H ) :   0.9334 B(  6-C ,  8-H ) :   0.9251
B(  6-C ,  9-C ) :   1.0660 B(  9-C , 10-H ) :   0.9573 B(  9-C , 11-H ) :   0.9553
B(  9-C , 12-C ) :   1.0696 B( 12-C , 13-H ) :   0.9741 B( 12-C , 14-H ) :   0.9742
B( 12-C , 15-H ) :   0.9734 B( 16-S , 17-C ) :   1.1591 B( 16-S , 20-C ) :   1.1404
B( 17-C , 18-C ) :   1.6094 B( 17-C , 33-H ) :   0.9662 B( 18-C , 19-C ) :   1.2418
B( 18-C , 21-H ) :   0.9851 B( 19-C , 20-C ) :   1.6174 B( 19-C , 22-C ) :   1.0376
B( 22-C , 23-H ) :   0.9353 B( 22-C , 24-H ) :   0.9307 B( 22-C , 25-C ) :   1.0785
B( 25-C , 26-H ) :   0.9525 B( 25-C , 27-H ) :   0.9557 B( 25-C , 28-C ) :   1.0719
B( 28-C , 29-H ) :   0.9760 B( 28-C , 30-H ) :   0.9776 B( 28-C , 31-H ) :   0.9724

Dispersion correction           -0.015272446
FINAL SINGLE POINT ENERGY     -1339.882434557258

DIPOLE MOMENT
-------------
                                X             Y             Z
Electronic contribution:     -2.69704      13.52742      14.22374
Nuclear contribution   :      2.82779     -13.73173     -14.70211
                        -----------------------------------------
Total Dipole Moment    :      0.13075      -0.20431      -0.47837
                        -----------------------------------------
Magnitude (a.u.)       :      0.53635
Magnitude (Debye)      :      1.36330

Rotational constants in cm-1:     0.020347     0.008671     0.007799
Rotational constants in MHz :   609.987389   259.943087   233.820819

                             ****ORCA TERMINATED NORMALLY****
TOTAL RUN TIME: 0 days 0 hours 0 minutes 36 seconds 712 msec
