                         Program Version 4.2.1 -  RELEASE  -
|  1> ! wB97X-D3 SP def2-SVP
|  2> %pal
|  3> nprocs 16
|  4> end
|  5>
|  6> * xyz 0 1
|  7> S 	 -15.7746 	 41.9404 	 35.5231
|  8> C 	 -14.1629 	 41.3837 	 35.944
|  9> C 	 -13.5333 	 41.0298 	 34.7806
| 10> C 	 -14.1355 	 41.6058 	 33.645
| 11> C 	 -15.3446 	 42.2551 	 33.8692
| 12> H 	 -13.6863 	 41.4712 	 32.6646
| 13> C 	 -12.1728 	 40.3071 	 34.75
| 14> H 	 -11.7966 	 40.3959 	 35.7699
| 15> H 	 -11.4252 	 40.8669 	 34.2883
| 16> C 	 -12.0906 	 38.8919 	 34.2336
| 17> H 	 -12.565 	 38.9159 	 33.2139
| 18> H 	 -11.054 	 38.5302 	 34.2216
| 19> C 	 -12.8862 	 37.9421 	 35.103
| 20> H 	 -12.8375 	 36.937 	 34.6552
| 21> H 	 -12.4279 	 37.9451 	 36.149
| 22> H 	 -13.8718 	 38.3053 	 35.2478
| 23> S 	 -18.0341 	 42.4427 	 33.2719
| 24> C 	 -18.4928 	 43.0652 	 31.6735
| 25> C 	 -17.4308 	 43.3578 	 30.8901
| 26> C 	 -16.1442 	 43.0093 	 31.4918
| 27> C 	 -16.3279 	 42.616 	 32.8436
| 28> H 	 -17.6049 	 43.911 	 29.9638
| 29> C 	 -14.8013 	 43.3162 	 30.7713
| 30> H 	 -14.8663 	 43.4827 	 29.6699
| 31> H 	 -14.1984 	 42.4464 	 30.9665
| 32> C 	 -14.249 	 44.5308 	 31.4411
| 33> H 	 -13.9897 	 44.2745 	 32.4443
| 34> H 	 -14.9576 	 45.3221 	 31.4245
| 35> C 	 -12.9716 	 45.0827 	 30.8519
| 36> H 	 -13.1607 	 45.4787 	 29.8898
| 37> H 	 -12.1084 	 44.4496 	 30.8188
| 38> H 	 -12.5965 	 45.9297 	 31.4292
| 39> H 	 -13.6773 	 41.1438 	 36.8883
| 40> H 	 -19.452 	 43.4193 	 31.36
| 41> *
| 42>
| 43>                          ****END OF INPUT****

CARTESIAN COORDINATES (ANGSTROEM)
---------------------------------
  S    -15.774600   41.940400   35.523100
  C    -14.162900   41.383700   35.944000
  C    -13.533300   41.029800   34.780600
  C    -14.135500   41.605800   33.645000
  C    -15.344600   42.255100   33.869200
  H    -13.686300   41.471200   32.664600
  C    -12.172800   40.307100   34.750000
  H    -11.796600   40.395900   35.769900
  H    -11.425200   40.866900   34.288300
  C    -12.090600   38.891900   34.233600
  H    -12.565000   38.915900   33.213900
  H    -11.054000   38.530200   34.221600
  C    -12.886200   37.942100   35.103000
  H    -12.837500   36.937000   34.655200
  H    -12.427900   37.945100   36.149000
  H    -13.871800   38.305300   35.247800
  S    -18.034100   42.442700   33.271900
  C    -18.492800   43.065200   31.673500
  C    -17.430800   43.357800   30.890100
  C    -16.144200   43.009300   31.491800
  C    -16.327900   42.616000   32.843600
  H    -17.604900   43.911000   29.963800
  C    -14.801300   43.316200   30.771300
  H    -14.866300   43.482700   29.669900
  H    -14.198400   42.446400   30.966500
  C    -14.249000   44.530800   31.441100
  H    -13.989700   44.274500   32.444300
  H    -14.957600   45.322100   31.424500
  C    -12.971600   45.082700   30.851900
  H    -13.160700   45.478700   29.889800
  H    -12.108400   44.449600   30.818800
  H    -12.596500   45.929700   31.429200
  H    -13.677300   41.143800   36.888300
  H    -19.452000   43.419300   31.360000

 Total Charge           Charge          ....    0
 Multiplicity           Mult            ....    1
 Number of Electrons    NEL             ....  134
 Basis Dimension        Dim             ....  322

ORBITAL ENERGIES
----------------

  NO   OCC          E(Eh)            E(eV)
   0   2.0000     -88.969723     -2420.9892
   1   2.0000     -88.968437     -2420.9543
   2   2.0000     -10.336344      -281.2662
   3   2.0000     -10.334528      -281.2168
   4   2.0000     -10.317833      -280.7625
   5   2.0000     -10.312999      -280.6310
   6   2.0000     -10.312034      -280.6047
   7   2.0000     -10.300704      -280.2964
   8   2.0000     -10.295745      -280.1615
   9   2.0000     -10.295022      -280.1418
  10   2.0000     -10.295014      -280.1416
  11   2.0000     -10.289213      -279.9837
  12   2.0000     -10.286066      -279.8981
  13   2.0000     -10.275392      -279.6076
  14   2.0000     -10.273410      -279.5537
  15   2.0000     -10.266614      -279.3688
  16   2.0000      -8.084364      -219.9867
  17   2.0000      -8.082410      -219.9336
  18   2.0000      -6.043001      -164.4384
  19   2.0000      -6.041167      -164.3885
  20   2.0000      -6.039059      -164.3312
  21   2.0000      -6.037218      -164.2811
  22   2.0000      -6.034792      -164.2150
  23   2.0000      -6.032779      -164.1603
  24   2.0000      -1.011073       -27.5127
  25   2.0000      -0.983317       -26.7574
  26   2.0000      -0.917901       -24.9774
  27   2.0000      -0.916417       -24.9370
  28   2.0000      -0.873682       -23.7741
  29   2.0000      -0.850979       -23.1563
  30   2.0000      -0.842996       -22.9391
  31   2.0000      -0.818582       -22.2747
  32   2.0000      -0.786374       -21.3983
  33   2.0000      -0.776122       -21.1194
  34   2.0000      -0.712896       -19.3989
  35   2.0000      -0.694778       -18.9059
  36   2.0000      -0.689901       -18.7732
  37   2.0000      -0.658669       -17.9233
  38   2.0000      -0.635492       -17.2926
  39   2.0000      -0.627066       -17.0633
  40   2.0000      -0.593113       -16.1394
  41   2.0000      -0.578587       -15.7442
  42   2.0000      -0.574917       -15.6443
  43   2.0000      -0.556557       -15.1447
  44   2.0000      -0.546281       -14.8651
  45   2.0000      -0.523492       -14.2449
  46   2.0000      -0.517485       -14.0815
  47   2.0000      -0.511468       -13.9177
  48   2.0000      -0.508103       -13.8262
  49   2.0000      -0.499066       -13.5803
  50   2.0000      -0.494650       -13.4601
  51   2.0000      -0.487195       -13.2572
  52   2.0000      -0.470268       -12.7967
  53   2.0000      -0.465271       -12.6607
  54   2.0000      -0.456861       -12.4318
  55   2.0000      -0.451112       -12.2754
  56   2.0000      -0.441646       -12.0178
  57   2.0000      -0.433017       -11.7830
  58   2.0000      -0.430931       -11.7262
  59   2.0000      -0.424285       -11.5454
  60   2.0000      -0.419733       -11.4215
  61   2.0000      -0.416692       -11.3388
  62   2.0000      -0.415104       -11.2955
  63   2.0000      -0.362112        -9.8536
  64   2.0000      -0.335888        -9.1400
  65   2.0000      -0.327834        -8.9208
  66   2.0000      -0.283117        -7.7040
  67   0.0000       0.014703         0.4001
  68   0.0000       0.072070         1.9611
  69   0.0000       0.099770         2.7149
  70   0.0000       0.118598         3.2272
  71   0.0000       0.136247         3.7075

MULLIKEN ATOMIC CHARGES
-----------------------
   0 S :    0.095708
   1 C :   -0.096949
   2 C :   -0.116761
   3 C :   -0.000722
   4 C :   -0.074919
   5 H :    0.005467
   6 C :    0.077155
   7 H :   -0.005389
   8 H :    0.010409
   9 C :   -0.068727
  10 H :    0.035816
  11 H :    0.038133
  12 C :   -0.056984
  13 H :    0.043878
  14 H :    0.023477
  15 H :    0.034362
  16 S :    0.092904
  17 C :   -0.063465
  18 C :   -0.044984
  19 C :   -0.069459
  20 C :   -0.144801
  21 H :    0.028333
  22 C :    0.084227
  23 H :    0.029786
  24 H :    0.018232
  25 C :   -0.059413
  26 H :    0.028667
  27 H :    0.021587
  28 C :   -0.010096
  29 H :    0.010963
  30 H :    0.016962
  31 H :    0.022878
  32 H :    0.049946
  33 H :    0.043779
Sum of atomic charges:    0.0000000

LOEWDIN ATOMIC CHARGES
----------------------
   0 S :    0.408281
   1 C :   -0.191524
   2 C :   -0.064645
   3 C :   -0.066395
   4 C :   -0.194754
   5 H :    0.027447
   6 C :   -0.033917
   7 H :    0.026226
   8 H :    0.021930
   9 C :   -0.042753
  10 H :    0.029059
  11 H :    0.029007
  12 C :   -0.066504
  13 H :    0.028341
  14 H :    0.028382
  15 H :    0.019046
  16 S :    0.379859
  17 C :   -0.178660
  18 C :   -0.069895
  19 C :   -0.047977
  20 C :   -0.184159
  21 H :    0.036470
  22 C :   -0.025810
  23 H :    0.034032
  24 H :    0.024298
  25 C :   -0.036359
  26 H :    0.023900
  27 H :    0.023518
  28 C :   -0.062748
  29 H :    0.015307
  30 H :    0.019257
  31 H :    0.029051
  32 H :    0.035518
  33 H :    0.027170

  Mayer bond orders larger than 0.100000
B(  0-S ,  1-C ) :   1.1386 B(  0-S ,  4-C ) :   1.1486 B(  1-C ,  2-C ) :   1.5870
B(  1-C , 32-H ) :   0.9647 B(  2-C ,  3-C ) :   1.2986 B(  2-C ,  6-C ) :   1.0142
B(  3-C ,  4-C ) :   1.5003 B(  3-C ,  5-H ) :   0.9887 B(  4-C , 20-C ) :   1.0931
B(  6-C ,  7-H ) :   0.9349 B(  6-C ,  8-H ) :   0.9415 B(  6-C ,  9-C ) :   1.0754
B(  9-C , 10-H ) :   0.9524 B(  9-C , 11-H ) :   0.9531 B(  9-C , 12-C ) :   1.0811
B( 12-C , 13-H ) :   0.9738 B( 12-C , 14-H ) :   0.9718 B( 12-C , 15-H ) :   0.9765
B( 16-S , 17-C ) :   1.1157 B( 16-S , 20-C ) :   1.1283 B( 17-C , 18-C ) :   1.6839
B( 17-C , 33-H ) :   0.9616 B( 18-C , 19-C ) :   1.2121 B( 18-C , 21-H ) :   0.9814
B( 19-C , 20-C ) :   1.5965 B( 19-C , 22-C ) :   1.0395 B( 22-C , 23-H ) :   0.9398
B( 22-C , 24-H ) :   0.9235 B( 22-C , 25-C ) :   1.0788 B( 25-C , 26-H ) :   0.9475
B( 25-C , 27-H ) :   0.9539 B( 25-C , 28-C ) :   1.0984 B( 28-C , 29-H ) :   0.9714
B( 28-C , 30-H ) :   0.9715 B( 28-C , 31-H ) :   0.9696

Dispersion correction           -0.014453421
FINAL SINGLE POINT ENERGY     -1339.860077420540

DIPOLE MOMENT
-------------
                                X             Y             Z
Electronic contribution:    -24.12017       3.60516       8.51370
Nuclear contribution   :     24.72349      -3.56934      -8.89039
                        -----------------------------------------
Total Dipole Moment    :      0.60331       0.03582      -0.37669
                        -----------------------------------------
Magnitude (a.u.)       :      0.71215
Magnitude (Debye)      :      1.81015

Rotational constants in cm-1:     0.018235     0.009053     0.007115
Rotational constants in MHz :   546.663976   271.404190   213.298642

                             ****ORCA TERMINATED NORMALLY****
TOTAL RUN TIME: 0 days 0 hours 0 minutes 34 seconds 810 msec
