                         Program Version 4.2.1 -  RELEASE  -
|  1> ! wB97X-D3 SP def2-SVP
|  2> %pal
|  3> nprocs 16
|  4> end
|  5>
|  6> * xyz 0 1
|  7> S 	 -41.7702 	 24.5911 	 79.4436
|  8> C 	 -41.2592 	 26.1801 	 79.8898
|  9> C 	 -39.9918 	 26.5153 	 79.3223
| 10> C 	 -39.4978 	 25.4392 	 78.547
| 11> C 	 -40.4001 	 24.3426 	 78.513
| 12> H 	 -38.5665 	 25.4313 	 77.9773
| 13> C 	 -39.2757 	 27.835 	 79.5655
| 14> H 	 -39.9781 	 28.5498 	 79.2357
| 15> H 	 -38.4213 	 27.7845 	 78.7788
| 16> C 	 -38.831 	 28.0792 	 81.0185
| 17> H 	 -39.7733 	 28.2256 	 81.594
| 18> H 	 -38.3487 	 27.1611 	 81.4386
| 19> C 	 -37.8945 	 29.2518 	 81.1981
| 20> H 	 -37.474 	 29.4293 	 82.2243
| 21> H 	 -37.0106 	 29.1583 	 80.5428
| 22> H 	 -38.4317 	 30.1701 	 80.9723
| 23> S 	 -39.8775 	 21.5704 	 78.7602
| 24> C 	 -40.1337 	 20.613 	 77.3385
| 25> C 	 -40.0328 	 21.3823 	 76.26
| 26> C 	 -40.2167 	 22.7933 	 76.5241
| 27> C 	 -40.2203 	 23.0337 	 77.8548
| 28> H 	 -39.9083 	 20.9899 	 75.2822
| 29> C 	 -40.4263 	 23.7974 	 75.5208
| 30> H 	 -39.8525 	 23.6428 	 74.6199
| 31> H 	 -40.0095 	 24.7325 	 75.8492
| 32> C 	 -41.8898 	 23.8305 	 75.0055
| 33> H 	 -42.1617 	 22.7831 	 74.6162
| 34> H 	 -42.0228 	 24.452 	 74.171
| 35> C 	 -42.8755 	 24.202 	 76.1293
| 36> H 	 -42.5314 	 25.0436 	 76.6603
| 37> H 	 -43.0007 	 23.3101 	 76.8126
| 38> H 	 -43.8285 	 24.4264 	 75.7102
| 39> H 	 -41.7533 	 27.0131 	 80.3862
| 40> H 	 -39.9743 	 19.5943 	 77.3353
| 41> *
| 42>
| 43>                          ****END OF INPUT****

CARTESIAN COORDINATES (ANGSTROEM)
---------------------------------
  S    -41.770200   24.591100   79.443600
  C    -41.259200   26.180100   79.889800
  C    -39.991800   26.515300   79.322300
  C    -39.497800   25.439200   78.547000
  C    -40.400100   24.342600   78.513000
  H    -38.566500   25.431300   77.977300
  C    -39.275700   27.835000   79.565500
  H    -39.978100   28.549800   79.235700
  H    -38.421300   27.784500   78.778800
  C    -38.831000   28.079200   81.018500
  H    -39.773300   28.225600   81.594000
  H    -38.348700   27.161100   81.438600
  C    -37.894500   29.251800   81.198100
  H    -37.474000   29.429300   82.224300
  H    -37.010600   29.158300   80.542800
  H    -38.431700   30.170100   80.972300
  S    -39.877500   21.570400   78.760200
  C    -40.133700   20.613000   77.338500
  C    -40.032800   21.382300   76.260000
  C    -40.216700   22.793300   76.524100
  C    -40.220300   23.033700   77.854800
  H    -39.908300   20.989900   75.282200
  C    -40.426300   23.797400   75.520800
  H    -39.852500   23.642800   74.619900
  H    -40.009500   24.732500   75.849200
  C    -41.889800   23.830500   75.005500
  H    -42.161700   22.783100   74.616200
  H    -42.022800   24.452000   74.171000
  C    -42.875500   24.202000   76.129300
  H    -42.531400   25.043600   76.660300
  H    -43.000700   23.310100   76.812600
  H    -43.828500   24.426400   75.710200
  H    -41.753300   27.013100   80.386200
  H    -39.974300   19.594300   77.335300

 Total Charge           Charge          ....    0
 Multiplicity           Mult            ....    1
 Number of Electrons    NEL             ....  134
 Basis Dimension        Dim             ....  322

ORBITAL ENERGIES
----------------

  NO   OCC          E(Eh)            E(eV)
   0   2.0000     -88.973373     -2421.0886
   1   2.0000     -88.957583     -2420.6589
   2   2.0000     -10.324216      -280.9362
   3   2.0000     -10.318085      -280.7694
   4   2.0000     -10.311545      -280.5914
   5   2.0000     -10.304326      -280.3950
   6   2.0000     -10.301257      -280.3114
   7   2.0000     -10.298231      -280.2291
   8   2.0000     -10.296304      -280.1767
   9   2.0000     -10.293991      -280.1137
  10   2.0000     -10.290781      -280.0264
  11   2.0000     -10.285427      -279.8807
  12   2.0000     -10.284533      -279.8564
  13   2.0000     -10.282612      -279.8041
  14   2.0000     -10.279142      -279.7097
  15   2.0000     -10.264622      -279.3146
  16   2.0000      -8.088459      -220.0982
  17   2.0000      -8.073157      -219.6818
  18   2.0000      -6.046708      -164.5393
  19   2.0000      -6.042580      -164.4270
  20   2.0000      -6.039793      -164.3511
  21   2.0000      -6.031748      -164.1322
  22   2.0000      -6.027849      -164.0261
  23   2.0000      -6.023474      -163.9071
  24   2.0000      -1.013351       -27.5747
  25   2.0000      -0.991039       -26.9676
  26   2.0000      -0.914699       -24.8902
  27   2.0000      -0.912077       -24.8189
  28   2.0000      -0.867795       -23.6139
  29   2.0000      -0.853625       -23.2283
  30   2.0000      -0.842664       -22.9300
  31   2.0000      -0.813272       -22.1302
  32   2.0000      -0.785354       -21.3706
  33   2.0000      -0.771208       -20.9856
  34   2.0000      -0.701495       -19.0887
  35   2.0000      -0.700021       -19.0485
  36   2.0000      -0.697384       -18.9768
  37   2.0000      -0.658982       -17.9318
  38   2.0000      -0.636274       -17.3139
  39   2.0000      -0.615761       -16.7557
  40   2.0000      -0.603089       -16.4109
  41   2.0000      -0.571582       -15.5535
  42   2.0000      -0.563235       -15.3264
  43   2.0000      -0.554014       -15.0755
  44   2.0000      -0.541141       -14.7252
  45   2.0000      -0.523662       -14.2496
  46   2.0000      -0.516835       -14.0638
  47   2.0000      -0.514215       -13.9925
  48   2.0000      -0.502454       -13.6725
  49   2.0000      -0.494512       -13.4564
  50   2.0000      -0.492498       -13.4016
  51   2.0000      -0.479689       -13.0530
  52   2.0000      -0.472755       -12.8643
  53   2.0000      -0.462339       -12.5809
  54   2.0000      -0.456573       -12.4240
  55   2.0000      -0.454114       -12.3571
  56   2.0000      -0.441749       -12.0206
  57   2.0000      -0.433605       -11.7990
  58   2.0000      -0.430732       -11.7208
  59   2.0000      -0.423475       -11.5234
  60   2.0000      -0.418263       -11.3815
  61   2.0000      -0.417149       -11.3512
  62   2.0000      -0.410937       -11.1822
  63   2.0000      -0.337082        -9.1725
  64   2.0000      -0.330562        -8.9950
  65   2.0000      -0.322504        -8.7758
  66   2.0000      -0.299995        -8.1633
  67   0.0000       0.039966         1.0875
  68   0.0000       0.063491         1.7277
  69   0.0000       0.108995         2.9659
  70   0.0000       0.121210         3.2983
  71   0.0000       0.130911         3.5623

MULLIKEN ATOMIC CHARGES
-----------------------
   0 S :    0.166373
   1 C :   -0.114444
   2 C :   -0.141902
   3 C :    0.059101
   4 C :   -0.226589
   5 H :    0.016149
   6 C :    0.061373
   7 H :    0.027664
   8 H :    0.031165
   9 C :   -0.078164
  10 H :    0.031437
  11 H :    0.043745
  12 C :   -0.050018
  13 H :    0.042169
  14 H :    0.034586
  15 H :    0.025936
  16 S :    0.099072
  17 C :   -0.048241
  18 C :   -0.009022
  19 C :   -0.035357
  20 C :   -0.166296
  21 H :    0.001953
  22 C :    0.106649
  23 H :    0.008212
  24 H :    0.009459
  25 C :   -0.076316
  26 H :    0.029253
  27 H :    0.016807
  28 C :   -0.040602
  29 H :    0.033189
  30 H :    0.048753
  31 H :    0.021004
  32 H :    0.041765
  33 H :    0.031136
Sum of atomic charges:   -0.0000000

LOEWDIN ATOMIC CHARGES
----------------------
   0 S :    0.489331
   1 C :   -0.229132
   2 C :   -0.061353
   3 C :   -0.066871
   4 C :   -0.223576
   5 H :    0.032283
   6 C :   -0.034020
   7 H :    0.026477
   8 H :    0.037814
   9 C :   -0.045680
  10 H :    0.027493
  11 H :    0.031300
  12 C :   -0.072908
  13 H :    0.032749
  14 H :    0.027157
  15 H :    0.023642
  16 S :    0.392076
  17 C :   -0.170490
  18 C :   -0.057600
  19 C :   -0.056629
  20 C :   -0.202766
  21 H :    0.024434
  22 C :   -0.037793
  23 H :    0.031615
  24 H :    0.027383
  25 C :   -0.029609
  26 H :    0.029424
  27 H :    0.012204
  28 C :   -0.065189
  29 H :    0.013494
  30 H :    0.031354
  31 H :    0.019811
  32 H :    0.028903
  33 H :    0.014672

  Mayer bond orders larger than 0.100000
B(  0-S ,  1-C ) :   1.1707 B(  0-S ,  4-C ) :   1.2206 B(  1-C ,  2-C ) :   1.5446
B(  1-C ,  4-C ) :   0.1120 B(  1-C , 32-H ) :   0.9649 B(  2-C ,  3-C ) :   1.3190
B(  2-C ,  6-C ) :   1.0104 B(  3-C ,  4-C ) :   1.5060 B(  3-C ,  5-H ) :   0.9870
B(  4-C , 20-C ) :   1.0020 B(  6-C ,  7-H ) :   0.9312 B(  6-C ,  8-H ) :   0.9458
B(  6-C ,  9-C ) :   1.0549 B(  9-C , 10-H ) :   0.9494 B(  9-C , 11-H ) :   0.9600
B(  9-C , 12-C ) :   1.0867 B( 12-C , 13-H ) :   0.9742 B( 12-C , 14-H ) :   0.9745
B( 12-C , 15-H ) :   0.9726 B( 16-S , 17-C ) :   1.1344 B( 16-S , 20-C ) :   1.1340
B( 17-C , 18-C ) :   1.6446 B( 17-C , 33-H ) :   0.9712 B( 18-C , 19-C ) :   1.2045
B( 18-C , 21-H ) :   0.9934 B( 19-C , 20-C ) :   1.6286 B( 19-C , 22-C ) :   1.0770
B( 22-C , 23-H ) :   0.9172 B( 22-C , 24-H ) :   0.9192 B( 22-C , 25-C ) :   1.0674
B( 25-C , 26-H ) :   0.9560 B( 25-C , 27-H ) :   0.9591 B( 25-C , 28-C ) :   1.0743
B( 28-C , 29-H ) :   0.9751 B( 28-C , 30-H ) :   0.9736 B( 28-C , 31-H ) :   0.9721

Dispersion correction           -0.015603057
FINAL SINGLE POINT ENERGY     -1339.870157740457

DIPOLE MOMENT
-------------
                                X             Y             Z
Electronic contribution:     -3.12119     -20.48694       4.78193
Nuclear contribution   :      3.32278      20.92089      -5.18668
                        -----------------------------------------
Total Dipole Moment    :      0.20159       0.43395      -0.40475
                        -----------------------------------------
Magnitude (a.u.)       :      0.62672
Magnitude (Debye)      :      1.59299

Rotational constants in cm-1:     0.024475     0.007595     0.006961
Rotational constants in MHz :   733.748142   227.707213   208.697192

                             ****ORCA TERMINATED NORMALLY****
TOTAL RUN TIME: 0 days 0 hours 0 minutes 32 seconds 60 msec
