                         Program Version 4.2.1 -  RELEASE  -
|  1> ! wB97X-D3 SP def2-SVP
|  2> %pal
|  3> nprocs 16
|  4> end
|  5>
|  6> * xyz 0 1
|  7> S 	 -103.722 	 53.8609 	 117.257
|  8> C 	 -102.375 	 52.6603 	 117.089
|  9> C 	 -101.212 	 53.2708 	 117.415
| 10> C 	 -101.322 	 54.7059 	 117.702
| 11> C 	 -102.613 	 55.1433 	 117.806
| 12> H 	 -100.503 	 55.2975 	 118.01
| 13> C 	 -99.8786 	 52.5033 	 117.467
| 14> H 	 -100.173 	 51.4784 	 117.481
| 15> H 	 -99.2955 	 52.7233 	 118.424
| 16> C 	 -99.128 	 52.6528 	 116.164
| 17> H 	 -99.0273 	 53.722 	 115.905
| 18> H 	 -98.0965 	 52.262 	 116.27
| 19> C 	 -99.8427 	 51.9565 	 114.974
| 20> H 	 -99.3535 	 52.2552 	 114.035
| 21> H 	 -99.8491 	 50.8577 	 114.972
| 22> H 	 -100.837 	 52.3066 	 114.846
| 23> S 	 -104.376 	 57.0313 	 116.639
| 24> C 	 -104.116 	 58.7303 	 117.001
| 25> C 	 -103.225 	 58.8401 	 118.053
| 26> C 	 -102.566 	 57.6969 	 118.43
| 27> C 	 -103.027 	 56.553 	 117.769
| 28> H 	 -103.161 	 59.8254 	 118.467
| 29> C 	 -101.413 	 57.7279 	 119.48
| 30> H 	 -100.925 	 56.7809 	 119.611
| 31> H 	 -101.798 	 57.9897 	 120.434
| 32> C 	 -100.356 	 58.7173 	 119.11
| 33> H 	 -100.872 	 59.6266 	 118.921
| 34> H 	 -99.8972 	 58.5518 	 118.1
| 35> C 	 -99.1987 	 58.8775 	 120.076
| 36> H 	 -99.498 	 59.061 	 121.026
| 37> H 	 -98.4764 	 59.6142 	 119.644
| 38> H 	 -98.6526 	 57.9581 	 120.312
| 39> H 	 -102.48 	 51.6517 	 116.727
| 40> H 	 -104.738 	 59.5501 	 116.63
| 41> *
| 42>
| 43>                          ****END OF INPUT****

CARTESIAN COORDINATES (ANGSTROEM)
---------------------------------
  S    -103.722000   53.860900  117.257000
  C    -102.375000   52.660300  117.089000
  C    -101.212000   53.270800  117.415000
  C    -101.322000   54.705900  117.702000
  C    -102.613000   55.143300  117.806000
  H    -100.503000   55.297500  118.010000
  C    -99.878600   52.503300  117.467000
  H    -100.173000   51.478400  117.481000
  H    -99.295500   52.723300  118.424000
  C    -99.128000   52.652800  116.164000
  H    -99.027300   53.722000  115.905000
  H    -98.096500   52.262000  116.270000
  C    -99.842700   51.956500  114.974000
  H    -99.353500   52.255200  114.035000
  H    -99.849100   50.857700  114.972000
  H    -100.837000   52.306600  114.846000
  S    -104.376000   57.031300  116.639000
  C    -104.116000   58.730300  117.001000
  C    -103.225000   58.840100  118.053000
  C    -102.566000   57.696900  118.430000
  C    -103.027000   56.553000  117.769000
  H    -103.161000   59.825400  118.467000
  C    -101.413000   57.727900  119.480000
  H    -100.925000   56.780900  119.611000
  H    -101.798000   57.989700  120.434000
  C    -100.356000   58.717300  119.110000
  H    -100.872000   59.626600  118.921000
  H    -99.897200   58.551800  118.100000
  C    -99.198700   58.877500  120.076000
  H    -99.498000   59.061000  121.026000
  H    -98.476400   59.614200  119.644000
  H    -98.652600   57.958100  120.312000
  H    -102.480000   51.651700  116.727000
  H    -104.738000   59.550100  116.630000

 Total Charge           Charge          ....    0
 Multiplicity           Mult            ....    1
 Number of Electrons    NEL             ....  134
 Basis Dimension        Dim             ....  322

ORBITAL ENERGIES
----------------

  NO   OCC          E(Eh)            E(eV)
   0   2.0000     -88.966041     -2420.8890
   1   2.0000     -88.963154     -2420.8105
   2   2.0000     -10.336615      -281.2736
   3   2.0000     -10.335649      -281.2473
   4   2.0000     -10.319423      -280.8058
   5   2.0000     -10.318398      -280.7779
   6   2.0000     -10.305528      -280.4277
   7   2.0000     -10.303697      -280.3779
   8   2.0000     -10.295652      -280.1589
   9   2.0000     -10.294988      -280.1409
  10   2.0000     -10.290606      -280.0216
  11   2.0000     -10.290388      -280.0157
  12   2.0000     -10.289300      -279.9861
  13   2.0000     -10.281824      -279.7827
  14   2.0000     -10.276203      -279.6297
  15   2.0000     -10.274485      -279.5830
  16   2.0000      -8.079523      -219.8550
  17   2.0000      -8.076793      -219.7807
  18   2.0000      -6.038115      -164.3055
  19   2.0000      -6.035703      -164.2398
  20   2.0000      -6.034222      -164.1995
  21   2.0000      -6.031513      -164.1258
  22   2.0000      -6.030232      -164.0910
  23   2.0000      -6.027114      -164.0061
  24   2.0000      -1.001532       -27.2531
  25   2.0000      -0.980476       -26.6801
  26   2.0000      -0.916654       -24.9434
  27   2.0000      -0.913329       -24.8530
  28   2.0000      -0.867797       -23.6140
  29   2.0000      -0.853015       -23.2117
  30   2.0000      -0.836101       -22.7515
  31   2.0000      -0.815103       -22.1801
  32   2.0000      -0.788475       -21.4555
  33   2.0000      -0.778127       -21.1739
  34   2.0000      -0.711219       -19.3533
  35   2.0000      -0.704938       -19.1823
  36   2.0000      -0.693329       -18.8664
  37   2.0000      -0.657421       -17.8893
  38   2.0000      -0.642391       -17.4804
  39   2.0000      -0.623241       -16.9593
  40   2.0000      -0.601383       -16.3645
  41   2.0000      -0.570094       -15.5131
  42   2.0000      -0.565759       -15.3951
  43   2.0000      -0.548270       -14.9192
  44   2.0000      -0.539833       -14.6896
  45   2.0000      -0.537396       -14.6233
  46   2.0000      -0.520310       -14.1584
  47   2.0000      -0.514627       -14.0037
  48   2.0000      -0.505606       -13.7582
  49   2.0000      -0.499755       -13.5990
  50   2.0000      -0.487796       -13.2736
  51   2.0000      -0.483995       -13.1702
  52   2.0000      -0.469938       -12.7877
  53   2.0000      -0.465397       -12.6641
  54   2.0000      -0.457881       -12.4596
  55   2.0000      -0.447879       -12.1874
  56   2.0000      -0.445288       -12.1169
  57   2.0000      -0.441105       -12.0031
  58   2.0000      -0.436245       -11.8708
  59   2.0000      -0.427574       -11.6349
  60   2.0000      -0.420056       -11.4303
  61   2.0000      -0.407125       -11.0784
  62   2.0000      -0.404374       -11.0036
  63   2.0000      -0.357509        -9.7283
  64   2.0000      -0.336499        -9.1566
  65   2.0000      -0.326810        -8.8930
  66   2.0000      -0.288199        -7.8423
  67   0.0000       0.019647         0.5346
  68   0.0000       0.070531         1.9192
  69   0.0000       0.099282         2.7016
  70   0.0000       0.121689         3.3113
  71   0.0000       0.132062         3.5936

MULLIKEN ATOMIC CHARGES
-----------------------
   0 S :    0.063725
   1 C :   -0.116088
   2 C :   -0.118563
   3 C :    0.039611
   4 C :   -0.101951
   5 H :    0.006174
   6 C :    0.074639
   7 H :    0.006543
   8 H :    0.051987
   9 C :   -0.068391
  10 H :    0.032630
  11 H :    0.036231
  12 C :   -0.067959
  13 H :    0.030025
  14 H :    0.033200
  15 H :    0.033797
  16 S :    0.093449
  17 C :   -0.104680
  18 C :   -0.053406
  19 C :   -0.012560
  20 C :   -0.147978
  21 H :    0.018787
  22 C :    0.134254
  23 H :    0.001981
  24 H :    0.019114
  25 C :   -0.110921
  26 H :    0.011946
  27 H :    0.027126
  28 C :    0.009977
  29 H :   -0.005176
  30 H :    0.048514
  31 H :    0.013447
  32 H :    0.053277
  33 H :    0.067238
Sum of atomic charges:   -0.0000000

LOEWDIN ATOMIC CHARGES
----------------------
   0 S :    0.353879
   1 C :   -0.171865
   2 C :   -0.058571
   3 C :   -0.054819
   4 C :   -0.172317
   5 H :    0.023333
   6 C :   -0.034648
   7 H :    0.024157
   8 H :    0.039771
   9 C :   -0.041563
  10 H :    0.025664
  11 H :    0.026384
  12 C :   -0.068261
  13 H :    0.030628
  14 H :    0.023901
  15 H :    0.020588
  16 S :    0.376399
  17 C :   -0.182982
  18 C :   -0.076161
  19 C :   -0.055109
  20 C :   -0.167054
  21 H :    0.030527
  22 C :   -0.017624
  23 H :    0.021536
  24 H :    0.028145
  25 C :   -0.046758
  26 H :    0.016055
  27 H :    0.029178
  28 C :   -0.061562
  29 H :    0.008208
  30 H :    0.038297
  31 H :    0.026985
  32 H :    0.030572
  33 H :    0.035082

  Mayer bond orders larger than 0.100000
B(  0-S ,  1-C ) :   1.0998 B(  0-S ,  4-C ) :   1.1213 B(  1-C ,  2-C ) :   1.6641
B(  1-C , 32-H ) :   0.9658 B(  2-C ,  3-C ) :   1.2044 B(  2-C ,  6-C ) :   1.0187
B(  3-C ,  4-C ) :   1.5987 B(  3-C ,  5-H ) :   0.9881 B(  4-C , 20-C ) :   1.0572
B(  6-C ,  7-H ) :   0.9390 B(  6-C ,  8-H ) :   0.9461 B(  6-C ,  9-C ) :   1.0599
B(  9-C , 10-H ) :   0.9598 B(  9-C , 11-H ) :   0.9555 B(  9-C , 12-C ) :   1.0744
B( 12-C , 13-H ) :   0.9711 B( 12-C , 14-H ) :   0.9759 B( 12-C , 15-H ) :   0.9728
B( 16-S , 17-C ) :   1.1550 B( 16-S , 20-C ) :   1.1333 B( 17-C , 18-C ) :   1.5973
B( 17-C , 20-C ) :   0.1097 B( 17-C , 33-H ) :   0.9638 B( 18-C , 19-C ) :   1.2627
B( 18-C , 21-H ) :   0.9898 B( 19-C , 20-C ) :   1.5832 B( 19-C , 22-C ) :   1.0273
B( 22-C , 23-H ) :   0.9376 B( 22-C , 24-H ) :   0.9291 B( 22-C , 25-C ) :   1.0618
B( 25-C , 26-H ) :   0.9517 B( 25-C , 27-H ) :   0.9519 B( 25-C , 28-C ) :   1.0889
B( 28-C , 29-H ) :   0.9671 B( 28-C , 30-H ) :   0.9725 B( 28-C , 31-H ) :   0.9669

Dispersion correction           -0.013936083
FINAL SINGLE POINT ENERGY     -1339.864195808236

DIPOLE MOMENT
-------------
                                X             Y             Z
Electronic contribution:    -26.72238       0.19265      -3.57052
Nuclear contribution   :     27.40243      -0.02848       3.74752
                        -----------------------------------------
Total Dipole Moment    :      0.68005       0.16417       0.17699
                        -----------------------------------------
Magnitude (a.u.)       :      0.72163
Magnitude (Debye)      :      1.83423

Rotational constants in cm-1:     0.017500     0.008825     0.006533
Rotational constants in MHz :   524.639092   264.572623   195.849253

                             ****ORCA TERMINATED NORMALLY****
TOTAL RUN TIME: 0 days 0 hours 0 minutes 34 seconds 863 msec
