                         Program Version 4.2.1 -  RELEASE  -
|  1> ! wB97X-D3 SP def2-SVP
|  2> %pal
|  3> nprocs 16
|  4> end
|  5>
|  6> * xyz 0 1
|  7> S 	 -16.9654 	 54.4694 	 60.0986
|  8> C 	 -16.3705 	 52.9267 	 60.5722
|  9> C 	 -15.3051 	 53.1426 	 61.4517
| 10> C 	 -15.274 	 54.497 	 62.0307
| 11> C 	 -16.1799 	 55.3427 	 61.4171
| 12> H 	 -14.618 	 54.8075 	 62.8595
| 13> C 	 -14.3355 	 52.0311 	 61.7665
| 14> H 	 -14.979 	 51.2869 	 62.2143
| 15> H 	 -13.6681 	 52.4572 	 62.4479
| 16> C 	 -13.5208 	 51.5574 	 60.5578
| 17> H 	 -14.156 	 51.106 	 59.7701
| 18> H 	 -13.1415 	 52.4748 	 60.1764
| 19> C 	 -12.4563 	 50.4724 	 60.7411
| 20> H 	 -12.781 	 49.485 	 61.0564
| 21> H 	 -11.8918 	 50.3536 	 59.801
| 22> H 	 -11.8007 	 50.9083 	 61.5346
| 23> S 	 -15.6199 	 57.756 	 60.4506
| 24> C 	 -16.1092 	 59.1605 	 61.2582
| 25> C 	 -16.6638 	 58.9281 	 62.4833
| 26> C 	 -16.7867 	 57.4889 	 62.7796
| 27> C 	 -16.4151 	 56.7967 	 61.6464
| 28> H 	 -16.9309 	 59.7428 	 63.1499
| 29> C 	 -17.289 	 56.9567 	 64.099
| 30> H 	 -16.553 	 57.1852 	 64.8855
| 31> H 	 -17.2966 	 55.8354 	 64.0841
| 32> C 	 -18.6629 	 57.4113 	 64.6385
| 33> H 	 -18.439 	 58.3156 	 65.1562
| 34> H 	 -18.9498 	 56.7464 	 65.5042
| 35> C 	 -19.8173 	 57.643 	 63.5799
| 36> H 	 -19.6116 	 58.5752 	 63.0344
| 37> H 	 -20.7844 	 57.7642 	 64.038
| 38> H 	 -19.9778 	 56.8377 	 62.8257
| 39> H 	 -16.5408 	 51.9 	 60.1749
| 40> H 	 -15.8234 	 60.2048 	 60.9738
| 41> *
| 42>
| 43>                          ****END OF INPUT****

CARTESIAN COORDINATES (ANGSTROEM)
---------------------------------
  S    -16.965400   54.469400   60.098600
  C    -16.370500   52.926700   60.572200
  C    -15.305100   53.142600   61.451700
  C    -15.274000   54.497000   62.030700
  C    -16.179900   55.342700   61.417100
  H    -14.618000   54.807500   62.859500
  C    -14.335500   52.031100   61.766500
  H    -14.979000   51.286900   62.214300
  H    -13.668100   52.457200   62.447900
  C    -13.520800   51.557400   60.557800
  H    -14.156000   51.106000   59.770100
  H    -13.141500   52.474800   60.176400
  C    -12.456300   50.472400   60.741100
  H    -12.781000   49.485000   61.056400
  H    -11.891800   50.353600   59.801000
  H    -11.800700   50.908300   61.534600
  S    -15.619900   57.756000   60.450600
  C    -16.109200   59.160500   61.258200
  C    -16.663800   58.928100   62.483300
  C    -16.786700   57.488900   62.779600
  C    -16.415100   56.796700   61.646400
  H    -16.930900   59.742800   63.149900
  C    -17.289000   56.956700   64.099000
  H    -16.553000   57.185200   64.885500
  H    -17.296600   55.835400   64.084100
  C    -18.662900   57.411300   64.638500
  H    -18.439000   58.315600   65.156200
  H    -18.949800   56.746400   65.504200
  C    -19.817300   57.643000   63.579900
  H    -19.611600   58.575200   63.034400
  H    -20.784400   57.764200   64.038000
  H    -19.977800   56.837700   62.825700
  H    -16.540800   51.900000   60.174900
  H    -15.823400   60.204800   60.973800

 Total Charge           Charge          ....    0
 Multiplicity           Mult            ....    1
 Number of Electrons    NEL             ....  134
 Basis Dimension        Dim             ....  322

ORBITAL ENERGIES
----------------

  NO   OCC          E(Eh)            E(eV)
   0   2.0000     -88.964602     -2420.8499
   1   2.0000     -88.962149     -2420.7831
   2   2.0000     -10.330505      -281.1073
   3   2.0000     -10.325283      -280.9652
   4   2.0000     -10.313367      -280.6410
   5   2.0000     -10.313175      -280.6358
   6   2.0000     -10.309412      -280.5334
   7   2.0000     -10.300405      -280.2883
   8   2.0000     -10.300131      -280.2808
   9   2.0000     -10.296454      -280.1808
  10   2.0000     -10.294069      -280.1159
  11   2.0000     -10.292055      -280.0610
  12   2.0000     -10.283840      -279.8375
  13   2.0000     -10.283674      -279.8330
  14   2.0000     -10.282576      -279.8031
  15   2.0000     -10.279470      -279.7186
  16   2.0000      -8.081050      -219.8965
  17   2.0000      -8.076927      -219.7844
  18   2.0000      -6.039465      -164.3422
  19   2.0000      -6.035580      -164.2365
  20   2.0000      -6.035449      -164.2329
  21   2.0000      -6.031653      -164.1296
  22   2.0000      -6.031346      -164.1213
  23   2.0000      -6.027591      -164.0191
  24   2.0000      -1.009804       -27.4782
  25   2.0000      -0.985589       -26.8193
  26   2.0000      -0.912146       -24.8208
  27   2.0000      -0.903881       -24.5959
  28   2.0000      -0.866627       -23.5821
  29   2.0000      -0.845430       -23.0053
  30   2.0000      -0.842453       -22.9243
  31   2.0000      -0.815154       -22.1815
  32   2.0000      -0.784693       -21.3526
  33   2.0000      -0.769723       -20.9452
  34   2.0000      -0.705641       -19.2015
  35   2.0000      -0.699288       -19.0286
  36   2.0000      -0.686737       -18.6871
  37   2.0000      -0.656096       -17.8533
  38   2.0000      -0.633649       -17.2425
  39   2.0000      -0.612508       -16.6672
  40   2.0000      -0.591097       -16.0846
  41   2.0000      -0.575896       -15.6709
  42   2.0000      -0.557939       -15.1823
  43   2.0000      -0.547863       -14.9081
  44   2.0000      -0.536653       -14.6031
  45   2.0000      -0.520431       -14.1616
  46   2.0000      -0.517824       -14.0907
  47   2.0000      -0.509632       -13.8678
  48   2.0000      -0.504786       -13.7359
  49   2.0000      -0.498467       -13.5640
  50   2.0000      -0.494450       -13.4547
  51   2.0000      -0.479891       -13.0585
  52   2.0000      -0.467629       -12.7248
  53   2.0000      -0.462981       -12.5983
  54   2.0000      -0.458660       -12.4808
  55   2.0000      -0.449948       -12.2437
  56   2.0000      -0.441085       -12.0025
  57   2.0000      -0.438683       -11.9372
  58   2.0000      -0.431311       -11.7366
  59   2.0000      -0.426802       -11.6139
  60   2.0000      -0.421868       -11.4796
  61   2.0000      -0.406023       -11.0485
  62   2.0000      -0.404328       -11.0023
  63   2.0000      -0.340807        -9.2738
  64   2.0000      -0.328247        -8.9321
  65   2.0000      -0.321082        -8.7371
  66   2.0000      -0.299099        -8.1389
  67   0.0000       0.043739         1.1902
  68   0.0000       0.060656         1.6505
  69   0.0000       0.110595         3.0094
  70   0.0000       0.118500         3.2245
  71   0.0000       0.134111         3.6493

MULLIKEN ATOMIC CHARGES
-----------------------
   0 S :    0.111575
   1 C :   -0.104532
   2 C :   -0.190710
   3 C :    0.061320
   4 C :   -0.177519
   5 H :    0.025211
   6 C :    0.127917
   7 H :    0.035465
   8 H :   -0.006290
   9 C :   -0.094618
  10 H :    0.022124
  11 H :    0.026778
  12 C :   -0.044208
  13 H :    0.035501
  14 H :    0.043773
  15 H :    0.027453
  16 S :    0.124882
  17 C :   -0.082637
  18 C :   -0.054564
  19 C :   -0.022347
  20 C :   -0.171207
  21 H :    0.020039
  22 C :    0.048585
  23 H :    0.037759
  24 H :    0.035231
  25 C :   -0.087850
  26 H :    0.016524
  27 H :    0.036919
  28 C :   -0.044335
  29 H :    0.035720
  30 H :    0.029998
  31 H :    0.046406
  32 H :    0.065881
  33 H :    0.065756
Sum of atomic charges:    0.0000000

LOEWDIN ATOMIC CHARGES
----------------------
   0 S :    0.410069
   1 C :   -0.215918
   2 C :   -0.063935
   3 C :   -0.069218
   4 C :   -0.199726
   5 H :    0.036533
   6 C :   -0.030848
   7 H :    0.032695
   8 H :    0.019353
   9 C :   -0.042798
  10 H :    0.021296
  11 H :    0.023707
  12 C :   -0.066806
  13 H :    0.023375
  14 H :    0.032354
  15 H :    0.026281
  16 S :    0.439633
  17 C :   -0.209287
  18 C :   -0.074670
  19 C :   -0.048346
  20 C :   -0.206923
  21 H :    0.030487
  22 C :   -0.040500
  23 H :    0.037972
  24 H :    0.035122
  25 C :   -0.044584
  26 H :    0.016548
  27 H :    0.032434
  28 C :   -0.070633
  29 H :    0.029028
  30 H :    0.024043
  31 H :    0.032750
  32 H :    0.042070
  33 H :    0.038441

  Mayer bond orders larger than 0.100000
B(  0-S ,  1-C ) :   1.1398 B(  0-S ,  4-C ) :   1.1594 B(  1-C ,  2-C ) :   1.5999
B(  1-C , 32-H ) :   0.9660 B(  2-C ,  3-C ) :   1.2330 B(  2-C ,  6-C ) :   1.0263
B(  3-C ,  4-C ) :   1.5732 B(  3-C ,  5-H ) :   0.9922 B(  4-C , 20-C ) :   0.9783
B(  6-C ,  7-H ) :   0.9348 B(  6-C ,  8-H ) :   0.9322 B(  6-C ,  9-C ) :   1.0634
B(  9-C , 10-H ) :   0.9555 B(  9-C , 11-H ) :   0.9561 B(  9-C , 12-C ) :   1.0834
B( 12-C , 13-H ) :   0.9757 B( 12-C , 14-H ) :   0.9734 B( 12-C , 15-H ) :   0.9745
B( 16-S , 17-C ) :   1.1523 B( 16-S , 20-C ) :   1.1676 B( 17-C , 18-C ) :   1.6434
B( 17-C , 33-H ) :   0.9584 B( 18-C , 19-C ) :   1.1936 B( 18-C , 21-H ) :   0.9896
B( 19-C , 20-C ) :   1.6340 B( 19-C , 22-C ) :   1.0524 B( 22-C , 23-H ) :   0.9351
B( 22-C , 24-H ) :   0.9348 B( 22-C , 25-C ) :   1.0629 B( 25-C , 26-H ) :   0.9552
B( 25-C , 27-H ) :   0.9582 B( 25-C , 28-C ) :   1.0690 B( 28-C , 29-H ) :   0.9700
B( 28-C , 30-H ) :   0.9759 B( 28-C , 31-H ) :   0.9797

Dispersion correction           -0.014061369
FINAL SINGLE POINT ENERGY     -1339.864122390052

DIPOLE MOMENT
-------------
                                X             Y             Z
Electronic contribution:     -1.99338      11.79308     -12.86444
Nuclear contribution   :      2.28470     -11.86805      13.40092
                        -----------------------------------------
Total Dipole Moment    :      0.29132      -0.07498       0.53648
                        -----------------------------------------
Magnitude (a.u.)       :      0.61506
Magnitude (Debye)      :      1.56337

Rotational constants in cm-1:     0.024228     0.006839     0.006268
Rotational constants in MHz :   726.325696   205.034733   187.909306

                             ****ORCA TERMINATED NORMALLY****
TOTAL RUN TIME: 0 days 0 hours 0 minutes 31 seconds 679 msec
