                         Program Version 4.2.1 -  RELEASE  -
|  1> ! wB97X-D3 SP def2-SVP
|  2> %pal
|  3> nprocs 16
|  4> end
|  5>
|  6> * xyz 0 1
|  7> S 	 -15.778 	 32.4659 	 37.3407
|  8> C 	 -15.1409 	 34.1024 	 37.3812
|  9> C 	 -15.9693 	 34.9434 	 36.5864
| 10> C 	 -16.9296 	 34.1771 	 35.8731
| 11> C 	 -16.8805 	 32.8474 	 36.0252
| 12> H 	 -17.7778 	 34.5242 	 35.2951
| 13> C 	 -16.0743 	 36.4382 	 36.5841
| 14> H 	 -15.0868 	 36.6934 	 36.8395
| 15> H 	 -16.6889 	 36.6849 	 37.4569
| 16> C 	 -16.3588 	 37.1975 	 35.3606
| 17> H 	 -15.6943 	 36.7626 	 34.5618
| 18> H 	 -17.3507 	 37.016 	 35.0541
| 19> C 	 -16.1337 	 38.7064 	 35.5088
| 20> H 	 -16.6401 	 39.128 	 36.4164
| 21> H 	 -15.0422 	 38.924 	 35.5684
| 22> H 	 -16.4747 	 39.204 	 34.5869
| 23> S 	 -18.8973 	 31.0934 	 36.7776
| 24> C 	 -19.7014 	 30.1981 	 35.4514
| 25> C 	 -19.1827 	 30.5399 	 34.1969
| 26> C 	 -18.1815 	 31.5422 	 34.2437
| 27> C 	 -17.8919 	 31.92 	 35.576
| 28> H 	 -19.6167 	 30.0054 	 33.331
| 29> C 	 -17.6035 	 31.9603 	 32.8701
| 30> H 	 -17.2324 	 31.0383 	 32.4179
| 31> H 	 -16.7278 	 32.5026 	 32.9652
| 32> C 	 -18.4233 	 32.7095 	 31.8304
| 33> H 	 -19.309 	 32.0691 	 31.5631
| 34> H 	 -17.9348 	 32.967 	 30.8502
| 35> C 	 -18.8951 	 34.0689 	 32.3067
| 36> H 	 -19.6324 	 34.5769 	 31.6868
| 37> H 	 -18.1012 	 34.9144 	 32.3424
| 38> H 	 -19.3226 	 34.0345 	 33.3036
| 39> H 	 -14.2989 	 34.4045 	 37.9455
| 40> H 	 -20.4684 	 29.4779 	 35.618
| 41> *
| 42>
| 43>                          ****END OF INPUT****

CARTESIAN COORDINATES (ANGSTROEM)
---------------------------------
  S    -15.778000   32.465900   37.340700
  C    -15.140900   34.102400   37.381200
  C    -15.969300   34.943400   36.586400
  C    -16.929600   34.177100   35.873100
  C    -16.880500   32.847400   36.025200
  H    -17.777800   34.524200   35.295100
  C    -16.074300   36.438200   36.584100
  H    -15.086800   36.693400   36.839500
  H    -16.688900   36.684900   37.456900
  C    -16.358800   37.197500   35.360600
  H    -15.694300   36.762600   34.561800
  H    -17.350700   37.016000   35.054100
  C    -16.133700   38.706400   35.508800
  H    -16.640100   39.128000   36.416400
  H    -15.042200   38.924000   35.568400
  H    -16.474700   39.204000   34.586900
  S    -18.897300   31.093400   36.777600
  C    -19.701400   30.198100   35.451400
  C    -19.182700   30.539900   34.196900
  C    -18.181500   31.542200   34.243700
  C    -17.891900   31.920000   35.576000
  H    -19.616700   30.005400   33.331000
  C    -17.603500   31.960300   32.870100
  H    -17.232400   31.038300   32.417900
  H    -16.727800   32.502600   32.965200
  C    -18.423300   32.709500   31.830400
  H    -19.309000   32.069100   31.563100
  H    -17.934800   32.967000   30.850200
  C    -18.895100   34.068900   32.306700
  H    -19.632400   34.576900   31.686800
  H    -18.101200   34.914400   32.342400
  H    -19.322600   34.034500   33.303600
  H    -14.298900   34.404500   37.945500
  H    -20.468400   29.477900   35.618000

 Total Charge           Charge          ....    0
 Multiplicity           Mult            ....    1
 Number of Electrons    NEL             ....  134
 Basis Dimension        Dim             ....  322

ORBITAL ENERGIES
----------------

  NO   OCC          E(Eh)            E(eV)
   0   2.0000     -88.970707     -2421.0160
   1   2.0000     -88.963449     -2420.8185
   2   2.0000     -10.332282      -281.1557
   3   2.0000     -10.319933      -280.8197
   4   2.0000     -10.319901      -280.8188
   5   2.0000     -10.317815      -280.7620
   6   2.0000     -10.310949      -280.5752
   7   2.0000     -10.303211      -280.3646
   8   2.0000     -10.297639      -280.2130
   9   2.0000     -10.295582      -280.1570
  10   2.0000     -10.288978      -279.9773
  11   2.0000     -10.287461      -279.9360
  12   2.0000     -10.284042      -279.8430
  13   2.0000     -10.283655      -279.8325
  14   2.0000     -10.281647      -279.7778
  15   2.0000     -10.279829      -279.7284
  16   2.0000      -8.084238      -219.9833
  17   2.0000      -8.078027      -219.8143
  18   2.0000      -6.042717      -164.4307
  19   2.0000      -6.039020      -164.3301
  20   2.0000      -6.036515      -164.2619
  21   2.0000      -6.034997      -164.2206
  22   2.0000      -6.032679      -164.1575
  23   2.0000      -6.028681      -164.0487
  24   2.0000      -1.005027       -27.3482
  25   2.0000      -0.978632       -26.6299
  26   2.0000      -0.922094       -25.0914
  27   2.0000      -0.908713       -24.7273
  28   2.0000      -0.870280       -23.6815
  29   2.0000      -0.850187       -23.1348
  30   2.0000      -0.845933       -23.0190
  31   2.0000      -0.813906       -22.1475
  32   2.0000      -0.785121       -21.3642
  33   2.0000      -0.772319       -21.0159
  34   2.0000      -0.711290       -19.3552
  35   2.0000      -0.697172       -18.9710
  36   2.0000      -0.692268       -18.8376
  37   2.0000      -0.655199       -17.8289
  38   2.0000      -0.646781       -17.5998
  39   2.0000      -0.619534       -16.8584
  40   2.0000      -0.598580       -16.2882
  41   2.0000      -0.578732       -15.7481
  42   2.0000      -0.562239       -15.2993
  43   2.0000      -0.555154       -15.1065
  44   2.0000      -0.543386       -14.7863
  45   2.0000      -0.530660       -14.4400
  46   2.0000      -0.515071       -14.0158
  47   2.0000      -0.507595       -13.8124
  48   2.0000      -0.499532       -13.5930
  49   2.0000      -0.496767       -13.5177
  50   2.0000      -0.490260       -13.3407
  51   2.0000      -0.477058       -12.9814
  52   2.0000      -0.472451       -12.8561
  53   2.0000      -0.458965       -12.4891
  54   2.0000      -0.456391       -12.4190
  55   2.0000      -0.446396       -12.1470
  56   2.0000      -0.444668       -12.1000
  57   2.0000      -0.442451       -12.0397
  58   2.0000      -0.434258       -11.8168
  59   2.0000      -0.423672       -11.5287
  60   2.0000      -0.418667       -11.3925
  61   2.0000      -0.416569       -11.3354
  62   2.0000      -0.407274       -11.0825
  63   2.0000      -0.345910        -9.4127
  64   2.0000      -0.334422        -9.1001
  65   2.0000      -0.323745        -8.8095
  66   2.0000      -0.290765        -7.9121
  67   0.0000       0.030244         0.8230
  68   0.0000       0.057762         1.5718
  69   0.0000       0.108691         2.9576
  70   0.0000       0.121263         3.2997
  71   0.0000       0.123081         3.3492

MULLIKEN ATOMIC CHARGES
-----------------------
   0 S :    0.094439
   1 C :   -0.113737
   2 C :   -0.100587
   3 C :    0.020238
   4 C :   -0.136696
   5 H :    0.009268
   6 C :    0.099183
   7 H :   -0.008590
   8 H :    0.045944
   9 C :   -0.071122
  10 H :    0.034900
  11 H :    0.020922
  12 C :   -0.061801
  13 H :    0.043874
  14 H :    0.036643
  15 H :    0.039729
  16 S :    0.113266
  17 C :   -0.100747
  18 C :   -0.042219
  19 C :   -0.026504
  20 C :   -0.178137
  21 H :    0.037060
  22 C :    0.118128
  23 H :    0.030549
  24 H :   -0.001652
  25 C :   -0.070747
  26 H :    0.031477
  27 H :    0.044661
  28 C :   -0.097859
  29 H :    0.028469
  30 H :    0.031769
  31 H :    0.041793
  32 H :    0.038711
  33 H :    0.049375
Sum of atomic charges:    0.0000000

LOEWDIN ATOMIC CHARGES
----------------------
   0 S :    0.397060
   1 C :   -0.190195
   2 C :   -0.056442
   3 C :   -0.063790
   4 C :   -0.195679
   5 H :    0.032458
   6 C :   -0.039206
   7 H :    0.024613
   8 H :    0.038696
   9 C :   -0.044731
  10 H :    0.034709
  11 H :    0.013939
  12 C :   -0.065172
  13 H :    0.031061
  14 H :    0.028234
  15 H :    0.029743
  16 S :    0.386299
  17 C :   -0.171797
  18 C :   -0.069140
  19 C :   -0.053491
  20 C :   -0.190196
  21 H :    0.039520
  22 C :   -0.028176
  23 H :    0.038234
  24 H :    0.019749
  25 C :   -0.046626
  26 H :    0.025490
  27 H :    0.037432
  28 C :   -0.080530
  29 H :    0.024647
  30 H :    0.030538
  31 H :    0.020052
  32 H :    0.020929
  33 H :    0.021768

  Mayer bond orders larger than 0.100000
B(  0-S ,  1-C ) :   1.1469 B(  0-S ,  4-C ) :   1.1354 B(  1-C ,  2-C ) :   1.5712
B(  1-C , 32-H ) :   0.9808 B(  2-C ,  3-C ) :   1.2439 B(  2-C ,  6-C ) :   1.0217
B(  3-C ,  4-C ) :   1.5945 B(  3-C ,  5-H ) :   0.9881 B(  4-C , 20-C ) :   1.0389
B(  6-C ,  7-H ) :   0.9278 B(  6-C ,  8-H ) :   0.9245 B(  6-C ,  9-C ) :   1.0756
B(  9-C , 10-H ) :   0.9529 B(  9-C , 11-H ) :   0.9447 B(  9-C , 12-C ) :   1.0877
B( 12-C , 13-H ) :   0.9735 B( 12-C , 14-H ) :   0.9746 B( 12-C , 15-H ) :   0.9734
B( 16-S , 17-C ) :   1.1362 B( 16-S , 20-C ) :   1.1487 B( 17-C , 18-C ) :   1.6226
B( 17-C , 20-C ) :   0.1058 B( 17-C , 33-H ) :   0.9715 B( 18-C , 19-C ) :   1.2283
B( 18-C , 21-H ) :   0.9848 B( 19-C , 20-C ) :   1.5916 B( 19-C , 22-C ) :   1.0329
B( 22-C , 23-H ) :   0.9340 B( 22-C , 24-H ) :   0.9278 B( 22-C , 25-C ) :   1.0717
B( 25-C , 26-H ) :   0.9531 B( 25-C , 27-H ) :   0.9535 B( 25-C , 28-C ) :   1.0732
B( 28-C , 29-H ) :   0.9709 B( 28-C , 30-H ) :   0.9721 B( 28-C , 31-H ) :   0.9723

Dispersion correction           -0.014536942
FINAL SINGLE POINT ENERGY     -1339.860917297866

DIPOLE MOMENT
-------------
                                X             Y             Z
Electronic contribution:      0.48221     -24.25164      19.00903
Nuclear contribution   :     -0.63459      24.70154     -19.44351
                        -----------------------------------------
Total Dipole Moment    :     -0.15239       0.44990      -0.43448
                        -----------------------------------------
Magnitude (a.u.)       :      0.64374
Magnitude (Debye)      :      1.63626

Rotational constants in cm-1:     0.017439     0.009327     0.006806
Rotational constants in MHz :   522.816795   279.601818   204.043144

                             ****ORCA TERMINATED NORMALLY****
TOTAL RUN TIME: 0 days 0 hours 0 minutes 34 seconds 345 msec
