                         Program Version 4.2.1 -  RELEASE  -
|  1> ! wB97X-D3 SP def2-SVP
|  2> %pal
|  3> nprocs 16
|  4> end
|  5>
|  6> * xyz 0 1
|  7> S 	 6.40269 	 20.545 	 53.7081
|  8> C 	 8.00011 	 21.1294 	 53.2688
|  9> C 	 8.7967 	 21.2773 	 54.4148
| 10> C 	 8.19419 	 20.7299 	 55.5801
| 11> C 	 6.81389 	 20.4051 	 55.3521
| 12> H 	 8.59256 	 20.6945 	 56.5866
| 13> C 	 10.3 	 21.6689 	 54.4134
| 14> H 	 10.789 	 21.3762 	 53.4389
| 15> H 	 10.7792 	 21.0877 	 55.2577
| 16> C 	 10.6477 	 23.1013 	 54.6079
| 17> H 	 11.7053 	 23.2861 	 54.4258
| 18> H 	 10.1338 	 23.7887 	 53.8495
| 19> C 	 10.2102 	 23.5935 	 55.9264
| 20> H 	 10.7498 	 23.089 	 56.6911
| 21> H 	 10.5749 	 24.6307 	 55.8934
| 22> H 	 9.14832 	 23.5195 	 56.064
| 23> S 	 4.33038 	 20.7958 	 56.45
| 24> C 	 3.92822 	 20.2611 	 58.0054
| 25> C 	 4.88121 	 19.3083 	 58.3856
| 26> C 	 6.04023 	 19.2499 	 57.5685
| 27> C 	 5.93919 	 20.0167 	 56.448
| 28> H 	 4.79833 	 18.7465 	 59.2705
| 29> C 	 7.26462 	 18.4337 	 57.9375
| 30> H 	 7.94396 	 18.2217 	 57.0962
| 31> H 	 7.02828 	 17.4632 	 58.2599
| 32> C 	 8.12784 	 19.0827 	 59.0754
| 33> H 	 7.69599 	 19.091 	 60.0335
| 34> H 	 8.29411 	 20.1205 	 58.8437
| 35> C 	 9.55791 	 18.5891 	 59.1283
| 36> H 	 10.1657 	 19.0034 	 58.2326
| 37> H 	 9.66173 	 17.5038 	 58.8998
| 38> H 	 10.0918 	 18.6094 	 60.1462
| 39> H 	 8.33802 	 21.3365 	 52.263
| 40> H 	 2.90908 	 20.2154 	 58.3442
| 41> *
| 42>
| 43>                          ****END OF INPUT****

CARTESIAN COORDINATES (ANGSTROEM)
---------------------------------
  S      6.402690   20.545000   53.708100
  C      8.000110   21.129400   53.268800
  C      8.796700   21.277300   54.414800
  C      8.194190   20.729900   55.580100
  C      6.813890   20.405100   55.352100
  H      8.592560   20.694500   56.586600
  C     10.300000   21.668900   54.413400
  H     10.789000   21.376200   53.438900
  H     10.779200   21.087700   55.257700
  C     10.647700   23.101300   54.607900
  H     11.705300   23.286100   54.425800
  H     10.133800   23.788700   53.849500
  C     10.210200   23.593500   55.926400
  H     10.749800   23.089000   56.691100
  H     10.574900   24.630700   55.893400
  H      9.148320   23.519500   56.064000
  S      4.330380   20.795800   56.450000
  C      3.928220   20.261100   58.005400
  C      4.881210   19.308300   58.385600
  C      6.040230   19.249900   57.568500
  C      5.939190   20.016700   56.448000
  H      4.798330   18.746500   59.270500
  C      7.264620   18.433700   57.937500
  H      7.943960   18.221700   57.096200
  H      7.028280   17.463200   58.259900
  C      8.127840   19.082700   59.075400
  H      7.695990   19.091000   60.033500
  H      8.294110   20.120500   58.843700
  C      9.557910   18.589100   59.128300
  H     10.165700   19.003400   58.232600
  H      9.661730   17.503800   58.899800
  H     10.091800   18.609400   60.146200
  H      8.338020   21.336500   52.263000
  H      2.909080   20.215400   58.344200

 Total Charge           Charge          ....    0
 Multiplicity           Mult            ....    1
 Number of Electrons    NEL             ....  134
 Basis Dimension        Dim             ....  322

ORBITAL ENERGIES
----------------

  NO   OCC          E(Eh)            E(eV)
   0   2.0000     -88.976479     -2421.1731
   1   2.0000     -88.960142     -2420.7285
   2   2.0000     -10.333939      -281.2008
   3   2.0000     -10.329559      -281.0816
   4   2.0000     -10.319696      -280.8132
   5   2.0000     -10.314425      -280.6698
   6   2.0000     -10.308293      -280.5029
   7   2.0000     -10.302785      -280.3530
   8   2.0000     -10.299277      -280.2576
   9   2.0000     -10.298119      -280.2261
  10   2.0000     -10.293670      -280.1050
  11   2.0000     -10.292405      -280.0706
  12   2.0000     -10.292295      -280.0676
  13   2.0000     -10.283688      -279.8334
  14   2.0000     -10.281492      -279.7736
  15   2.0000     -10.265597      -279.3411
  16   2.0000      -8.091203      -220.1728
  17   2.0000      -8.075897      -219.7563
  18   2.0000      -6.049582      -164.6175
  19   2.0000      -6.045557      -164.5080
  20   2.0000      -6.042255      -164.4181
  21   2.0000      -6.034311      -164.2019
  22   2.0000      -6.030180      -164.0895
  23   2.0000      -6.026753      -163.9963
  24   2.0000      -1.011608       -27.5273
  25   2.0000      -0.989111       -26.9151
  26   2.0000      -0.921210       -25.0674
  27   2.0000      -0.911148       -24.7936
  28   2.0000      -0.872581       -23.7441
  29   2.0000      -0.857353       -23.3298
  30   2.0000      -0.848311       -23.0837
  31   2.0000      -0.809030       -22.0148
  32   2.0000      -0.783157       -21.3108
  33   2.0000      -0.775691       -21.1076
  34   2.0000      -0.705249       -19.1908
  35   2.0000      -0.701460       -19.0877
  36   2.0000      -0.691257       -18.8101
  37   2.0000      -0.669515       -18.2184
  38   2.0000      -0.641758       -17.4631
  39   2.0000      -0.613394       -16.6913
  40   2.0000      -0.599805       -16.3215
  41   2.0000      -0.575439       -15.6585
  42   2.0000      -0.568503       -15.4698
  43   2.0000      -0.557323       -15.1655
  44   2.0000      -0.544833       -14.8256
  45   2.0000      -0.525886       -14.3101
  46   2.0000      -0.519022       -14.1233
  47   2.0000      -0.515625       -14.0309
  48   2.0000      -0.506619       -13.7858
  49   2.0000      -0.502610       -13.6767
  50   2.0000      -0.489935       -13.3318
  51   2.0000      -0.483261       -13.1502
  52   2.0000      -0.473971       -12.8974
  53   2.0000      -0.466860       -12.7039
  54   2.0000      -0.462732       -12.5916
  55   2.0000      -0.448172       -12.1954
  56   2.0000      -0.443268       -12.0619
  57   2.0000      -0.437430       -11.9031
  58   2.0000      -0.434736       -11.8298
  59   2.0000      -0.421863       -11.4795
  60   2.0000      -0.414342       -11.2748
  61   2.0000      -0.410035       -11.1576
  62   2.0000      -0.408136       -11.1060
  63   2.0000      -0.352315        -9.5870
  64   2.0000      -0.337342        -9.1795
  65   2.0000      -0.330022        -8.9804
  66   2.0000      -0.288195        -7.8422
  67   0.0000       0.022785         0.6200
  68   0.0000       0.067586         1.8391
  69   0.0000       0.104423         2.8415
  70   0.0000       0.120517         3.2794
  71   0.0000       0.124347         3.3837

MULLIKEN ATOMIC CHARGES
-----------------------
   0 S :    0.141629
   1 C :   -0.124051
   2 C :   -0.058776
   3 C :    0.011105
   4 C :   -0.133634
   5 H :    0.003282
   6 C :    0.023650
   7 H :    0.033733
   8 H :    0.034175
   9 C :   -0.086464
  10 H :    0.028012
  11 H :    0.026823
  12 C :   -0.027494
  13 H :    0.012241
  14 H :    0.030126
  15 H :    0.049852
  16 S :    0.083824
  17 C :   -0.070295
  18 C :   -0.035074
  19 C :   -0.033539
  20 C :   -0.151916
  21 H :    0.000095
  22 C :    0.071451
  23 H :    0.026361
  24 H :    0.012500
  25 C :   -0.035874
  26 H :    0.020397
  27 H :    0.028159
  28 C :   -0.119348
  29 H :    0.041259
  30 H :    0.021200
  31 H :    0.056019
  32 H :    0.050213
  33 H :    0.070360
Sum of atomic charges:    0.0000000

LOEWDIN ATOMIC CHARGES
----------------------
   0 S :    0.443409
   1 C :   -0.200712
   2 C :   -0.059893
   3 C :   -0.063942
   4 C :   -0.213446
   5 H :    0.028834
   6 C :   -0.037037
   7 H :    0.034237
   8 H :    0.034338
   9 C :   -0.053721
  10 H :    0.023683
  11 H :    0.028502
  12 C :   -0.060948
  13 H :    0.015811
  14 H :    0.031921
  15 H :    0.026674
  16 S :    0.408836
  17 C :   -0.206270
  18 C :   -0.061660
  19 C :   -0.062427
  20 C :   -0.176035
  21 H :    0.020638
  22 C :   -0.023477
  23 H :    0.033558
  24 H :    0.024324
  25 C :   -0.041664
  26 H :    0.018435
  27 H :    0.022348
  28 C :   -0.087681
  29 H :    0.032225
  30 H :    0.020798
  31 H :    0.039042
  32 H :    0.029363
  33 H :    0.031936

  Mayer bond orders larger than 0.100000
B(  0-S ,  1-C ) :   1.1465 B(  0-S ,  4-C ) :   1.1900 B(  1-C ,  2-C ) :   1.5703
B(  1-C ,  4-C ) :   0.1075 B(  1-C , 32-H ) :   0.9713 B(  2-C ,  3-C ) :   1.2827
B(  2-C ,  6-C ) :   1.0047 B(  3-C ,  4-C ) :   1.4935 B(  3-C ,  5-H ) :   0.9904
B(  4-C , 20-C ) :   1.0524 B(  6-C ,  7-H ) :   0.9448 B(  6-C ,  8-H ) :   0.9488
B(  6-C ,  9-C ) :   1.0816 B(  9-C , 10-H ) :   0.9527 B(  9-C , 11-H ) :   0.9493
B(  9-C , 12-C ) :   1.0842 B( 12-C , 13-H ) :   0.9724 B( 12-C , 14-H ) :   0.9707
B( 12-C , 15-H ) :   0.9724 B( 16-S , 17-C ) :   1.1787 B( 16-S , 20-C ) :   1.1372
B( 17-C , 18-C ) :   1.5693 B( 17-C , 20-C ) :   0.1046 B( 17-C , 33-H ) :   0.9617
B( 18-C , 19-C ) :   1.2673 B( 18-C , 21-H ) :   0.9933 B( 19-C , 20-C ) :   1.5933
B( 19-C , 22-C ) :   1.0515 B( 22-C , 23-H ) :   0.9430 B( 22-C , 24-H ) :   0.9252
B( 22-C , 25-C ) :   1.0446 B( 25-C , 26-H ) :   0.9555 B( 25-C , 27-H ) :   0.9583
B( 25-C , 28-C ) :   1.0724 B( 28-C , 29-H ) :   0.9734 B( 28-C , 30-H ) :   0.9706
B( 28-C , 31-H ) :   0.9722

Dispersion correction           -0.014725485
FINAL SINGLE POINT ENERGY     -1339.863239413929

DIPOLE MOMENT
-------------
                                X             Y             Z
Electronic contribution:    -27.05615      -1.99295     -12.42579
Nuclear contribution   :     27.56722       1.80255      12.66392
                        -----------------------------------------
Total Dipole Moment    :      0.51107      -0.19040       0.23813
                        -----------------------------------------
Magnitude (a.u.)       :      0.59511
Magnitude (Debye)      :      1.51264

Rotational constants in cm-1:     0.016671     0.009929     0.007335
Rotational constants in MHz :   499.782220   297.654473   219.908871

                             ****ORCA TERMINATED NORMALLY****
TOTAL RUN TIME: 0 days 0 hours 0 minutes 36 seconds 222 msec
