                         Program Version 4.2.1 -  RELEASE  -
|  1> ! wB97X-D3 SP def2-SVP
|  2> %pal
|  3> nprocs 16
|  4> end
|  5>
|  6> * xyz 0 1
|  7> S 	 33.2142 	 -1.08195 	 71.672
|  8> C 	 32.7251 	 0.486493 	 72.1922
|  9> C 	 31.7391 	 0.988386 	 71.3957
| 10> C 	 31.3139 	 0.045995 	 70.3998
| 11> C 	 32.0042 	 -1.14624 	 70.4097
| 12> H 	 30.4914 	 0.10224 	 69.6771
| 13> C 	 31.062 	 2.29951 	 71.5528
| 14> H 	 31.1426 	 2.83598 	 70.5706
| 15> H 	 31.7084 	 2.97975 	 72.2126
| 16> C 	 29.6275 	 2.31623 	 72.1734
| 17> H 	 28.9667 	 1.90832 	 71.3748
| 18> H 	 29.6165 	 1.54743 	 73.0389
| 19> C 	 29.1439 	 3.74709 	 72.6423
| 20> H 	 29.3968 	 4.52376 	 71.8934
| 21> H 	 28.0502 	 3.72317 	 72.8171
| 22> H 	 29.6579 	 3.99467 	 73.5773
| 23> S 	 32.2133 	 -3.84275 	 70.2536
| 24> C 	 31.722 	 -4.71124 	 68.7298
| 25> C 	 31.4154 	 -3.80456 	 67.7166
| 26> C 	 31.4084 	 -2.41635 	 68.1423
| 27> C 	 31.9059 	 -2.24021 	 69.4676
| 28> H 	 31.0979 	 -4.16053 	 66.7498
| 29> C 	 30.8808 	 -1.24872 	 67.2469
| 30> H 	 30.1504 	 -0.814506 	 67.8341
| 31> H 	 30.399 	 -1.68033 	 66.4277
| 32> C 	 31.8595 	 -0.265885 	 66.5731
| 33> H 	 32.6636 	 -0.753955 	 66.0232
| 34> H 	 32.3844 	 0.255061 	 67.363
| 35> C 	 31.1481 	 0.697272 	 65.5776
| 36> H 	 31.8006 	 1.54699 	 65.2281
| 37> H 	 30.2855 	 1.18018 	 66.0689
| 38> H 	 30.781 	 0.186492 	 64.7866
| 39> H 	 33.1955 	 1.17878 	 72.9823
| 40> H 	 31.8592 	 -5.75909 	 68.5483
| 41> *
| 42>
| 43>                          ****END OF INPUT****

CARTESIAN COORDINATES (ANGSTROEM)
---------------------------------
  S     33.214200   -1.081950   71.672000
  C     32.725100    0.486493   72.192200
  C     31.739100    0.988386   71.395700
  C     31.313900    0.045995   70.399800
  C     32.004200   -1.146240   70.409700
  H     30.491400    0.102240   69.677100
  C     31.062000    2.299510   71.552800
  H     31.142600    2.835980   70.570600
  H     31.708400    2.979750   72.212600
  C     29.627500    2.316230   72.173400
  H     28.966700    1.908320   71.374800
  H     29.616500    1.547430   73.038900
  C     29.143900    3.747090   72.642300
  H     29.396800    4.523760   71.893400
  H     28.050200    3.723170   72.817100
  H     29.657900    3.994670   73.577300
  S     32.213300   -3.842750   70.253600
  C     31.722000   -4.711240   68.729800
  C     31.415400   -3.804560   67.716600
  C     31.408400   -2.416350   68.142300
  C     31.905900   -2.240210   69.467600
  H     31.097900   -4.160530   66.749800
  C     30.880800   -1.248720   67.246900
  H     30.150400   -0.814506   67.834100
  H     30.399000   -1.680330   66.427700
  C     31.859500   -0.265885   66.573100
  H     32.663600   -0.753955   66.023200
  H     32.384400    0.255061   67.363000
  C     31.148100    0.697272   65.577600
  H     31.800600    1.546990   65.228100
  H     30.285500    1.180180   66.068900
  H     30.781000    0.186492   64.786600
  H     33.195500    1.178780   72.982300
  H     31.859200   -5.759090   68.548300

 Total Charge           Charge          ....    0
 Multiplicity           Mult            ....    1
 Number of Electrons    NEL             ....  134
 Basis Dimension        Dim             ....  322

ORBITAL ENERGIES
----------------

  NO   OCC          E(Eh)            E(eV)
   0   2.0000     -88.967159     -2420.9195
   1   2.0000     -88.965895     -2420.8851
   2   2.0000     -10.338298      -281.3194
   3   2.0000     -10.330167      -281.0981
   4   2.0000     -10.325219      -280.9635
   5   2.0000     -10.317958      -280.7659
   6   2.0000     -10.317940      -280.7654
   7   2.0000     -10.302989      -280.3586
   8   2.0000     -10.302065      -280.3334
   9   2.0000     -10.299444      -280.2621
  10   2.0000     -10.299010      -280.2503
  11   2.0000     -10.294248      -280.1207
  12   2.0000     -10.289659      -279.9959
  13   2.0000     -10.289292      -279.9859
  14   2.0000     -10.287468      -279.9362
  15   2.0000     -10.278691      -279.6974
  16   2.0000      -8.082245      -219.9291
  17   2.0000      -8.078760      -219.8342
  18   2.0000      -6.040832      -164.3794
  19   2.0000      -6.037528      -164.2895
  20   2.0000      -6.036618      -164.2647
  21   2.0000      -6.033557      -164.1814
  22   2.0000      -6.032975      -164.1656
  23   2.0000      -6.029326      -164.0663
  24   2.0000      -1.007226       -27.4080
  25   2.0000      -0.973238       -26.4832
  26   2.0000      -0.907352       -24.6903
  27   2.0000      -0.904090       -24.6015
  28   2.0000      -0.869708       -23.6659
  29   2.0000      -0.849459       -23.1150
  30   2.0000      -0.841680       -22.9033
  31   2.0000      -0.815186       -22.1823
  32   2.0000      -0.781612       -21.2687
  33   2.0000      -0.770371       -20.9629
  34   2.0000      -0.712997       -19.4016
  35   2.0000      -0.699889       -19.0450
  36   2.0000      -0.692813       -18.8524
  37   2.0000      -0.665548       -18.1105
  38   2.0000      -0.637284       -17.3414
  39   2.0000      -0.617277       -16.7970
  40   2.0000      -0.589147       -16.0315
  41   2.0000      -0.571506       -15.5515
  42   2.0000      -0.566317       -15.4103
  43   2.0000      -0.550812       -14.9884
  44   2.0000      -0.525318       -14.2946
  45   2.0000      -0.520770       -14.1709
  46   2.0000      -0.513405       -13.9705
  47   2.0000      -0.511412       -13.9162
  48   2.0000      -0.504991       -13.7415
  49   2.0000      -0.498828       -13.5738
  50   2.0000      -0.492923       -13.4131
  51   2.0000      -0.488654       -13.2970
  52   2.0000      -0.469465       -12.7748
  53   2.0000      -0.464212       -12.6318
  54   2.0000      -0.457361       -12.4454
  55   2.0000      -0.448189       -12.1958
  56   2.0000      -0.445396       -12.1198
  57   2.0000      -0.436102       -11.8669
  58   2.0000      -0.435586       -11.8529
  59   2.0000      -0.425394       -11.5755
  60   2.0000      -0.418659       -11.3923
  61   2.0000      -0.417893       -11.3715
  62   2.0000      -0.408875       -11.1260
  63   2.0000      -0.359356        -9.7786
  64   2.0000      -0.333706        -9.0806
  65   2.0000      -0.328516        -8.9394
  66   2.0000      -0.285781        -7.7765
  67   0.0000       0.017159         0.4669
  68   0.0000       0.075055         2.0424
  69   0.0000       0.098640         2.6841
  70   0.0000       0.113226         3.0810
  71   0.0000       0.134861         3.6697

MULLIKEN ATOMIC CHARGES
-----------------------
   0 S :    0.111892
   1 C :   -0.126292
   2 C :   -0.080847
   3 C :   -0.009391
   4 C :   -0.107823
   5 H :    0.008253
   6 C :    0.016021
   7 H :    0.039787
   8 H :    0.013399
   9 C :   -0.105002
  10 H :    0.037630
  11 H :    0.052421
  12 C :   -0.061039
  13 H :    0.042153
  14 H :    0.048675
  15 H :    0.040835
  16 S :    0.067411
  17 C :   -0.081470
  18 C :   -0.020915
  19 C :   -0.081384
  20 C :   -0.121040
  21 H :    0.019778
  22 C :    0.107304
  23 H :    0.013424
  24 H :   -0.012393
  25 C :   -0.045617
  26 H :    0.028478
  27 H :    0.027808
  28 C :   -0.043309
  29 H :    0.047411
  30 H :    0.024043
  31 H :    0.013935
  32 H :    0.075746
  33 H :    0.060117
Sum of atomic charges:   -0.0000000

LOEWDIN ATOMIC CHARGES
----------------------
   0 S :    0.413463
   1 C :   -0.216238
   2 C :   -0.075078
   3 C :   -0.067333
   4 C :   -0.197182
   5 H :    0.031500
   6 C :   -0.047949
   7 H :    0.035625
   8 H :    0.028610
   9 C :   -0.047369
  10 H :    0.023385
  11 H :    0.035573
  12 C :   -0.069301
  13 H :    0.029015
  14 H :    0.032307
  15 H :    0.026987
  16 S :    0.352059
  17 C :   -0.161763
  18 C :   -0.064996
  19 C :   -0.047184
  20 C :   -0.170558
  21 H :    0.031479
  22 C :   -0.021397
  23 H :    0.018428
  24 H :    0.021905
  25 C :   -0.033737
  26 H :    0.026396
  27 H :    0.021332
  28 C :   -0.059171
  29 H :    0.037003
  30 H :    0.026024
  31 H :    0.007498
  32 H :    0.052968
  33 H :    0.027699

  Mayer bond orders larger than 0.100000
B(  0-S ,  1-C ) :   1.1334 B(  0-S ,  4-C ) :   1.1399 B(  1-C ,  2-C ) :   1.6291
B(  1-C , 32-H ) :   0.9498 B(  2-C ,  3-C ) :   1.2226 B(  2-C ,  6-C ) :   1.0436
B(  3-C ,  4-C ) :   1.5863 B(  3-C ,  5-H ) :   0.9937 B(  4-C , 20-C ) :   1.0612
B(  6-C ,  7-H ) :   0.9316 B(  6-C ,  8-H ) :   0.9427 B(  6-C ,  9-C ) :   1.0412
B(  9-C , 10-H ) :   0.9569 B(  9-C , 11-H ) :   0.9586 B(  9-C , 12-C ) :   1.0682
B( 12-C , 13-H ) :   0.9762 B( 12-C , 14-H ) :   0.9762 B( 12-C , 15-H ) :   0.9764
B( 16-S , 17-C ) :   1.1307 B( 16-S , 20-C ) :   1.1181 B( 17-C , 18-C ) :   1.6329
B( 17-C , 20-C ) :   0.1060 B( 17-C , 33-H ) :   0.9652 B( 18-C , 19-C ) :   1.2364
B( 18-C , 21-H ) :   0.9843 B( 19-C , 20-C ) :   1.5904 B( 19-C , 22-C ) :   1.0227
B( 22-C , 23-H ) :   0.9365 B( 22-C , 24-H ) :   0.9243 B( 22-C , 25-C ) :   1.0585
B( 25-C , 26-H ) :   0.9558 B( 25-C , 27-H ) :   0.9568 B( 25-C , 28-C ) :   1.0730
B( 28-C , 29-H ) :   0.9745 B( 28-C , 30-H ) :   0.9761 B( 28-C , 31-H ) :   0.9780

Dispersion correction           -0.013714512
FINAL SINGLE POINT ENERGY     -1339.868173528453

DIPOLE MOMENT
-------------
                                X             Y             Z
Electronic contribution:     14.06014     -25.63101      10.22504
Nuclear contribution   :    -14.46564      26.12952     -10.70322
                        -----------------------------------------
Total Dipole Moment    :     -0.40551       0.49851      -0.47818
                        -----------------------------------------
Magnitude (a.u.)       :      0.80100
Magnitude (Debye)      :      2.03598

Rotational constants in cm-1:     0.016802     0.008581     0.006424
Rotational constants in MHz :   503.711905   257.263086   192.592290

                             ****ORCA TERMINATED NORMALLY****
TOTAL RUN TIME: 0 days 0 hours 0 minutes 29 seconds 326 msec
