                         Program Version 4.2.1 -  RELEASE  -
|  1> ! wB97X-D3 SP def2-SVP
|  2> %pal
|  3> nprocs 16
|  4> end
|  5>
|  6> * xyz 0 1
|  7> S 	 56.9898 	 8.54681 	 73.5955
|  8> C 	 56.2697 	 9.88285 	 74.3213
|  9> C 	 55.1976 	 10.359 	 73.6127
| 10> C 	 54.9189 	 9.46414 	 72.4864
| 11> C 	 55.8595 	 8.49981 	 72.2768
| 12> H 	 54.0446 	 9.62974 	 71.8526
| 13> C 	 54.4158 	 11.6165 	 73.9158
| 14> H 	 54.9223 	 12.2223 	 74.7321
| 15> H 	 53.4318 	 11.2757 	 74.368
| 16> C 	 53.945 	 12.3072 	 72.663
| 17> H 	 54.7712 	 12.5687 	 71.988
| 18> H 	 53.3239 	 11.5896 	 72.0792
| 19> C 	 53.1271 	 13.5796 	 72.8606
| 20> H 	 52.3771 	 13.6219 	 73.6419
| 21> H 	 53.7633 	 14.4392 	 73.0061
| 22> H 	 52.5372 	 13.8895 	 71.9886
| 23> S 	 56.3788 	 5.80785 	 71.8281
| 24> C 	 55.8862 	 5.03999 	 70.3874
| 25> C 	 55.452 	 5.99073 	 69.467
| 26> C 	 55.356 	 7.27282 	 70.0343
| 27> C 	 55.8319 	 7.3669 	 71.3103
| 28> H 	 55.2021 	 5.65356 	 68.4598
| 29> C 	 54.7447 	 8.45724 	 69.3117
| 30> H 	 55.4399 	 9.2852 	 69.4747
| 31> H 	 53.7839 	 8.77624 	 69.7879
| 32> C 	 54.5163 	 8.4223 	 67.8574
| 33> H 	 53.7605 	 7.6462 	 67.5514
| 34> H 	 55.5079 	 8.19573 	 67.3624
| 35> C 	 53.9499 	 9.72543 	 67.2965
| 36> H 	 54.1086 	 9.78193 	 66.2529
| 37> H 	 54.5283 	 10.5155 	 67.8395
| 38> H 	 52.9122 	 9.85348 	 67.5051
| 39> H 	 56.5961 	 10.3758 	 75.2591
| 40> H 	 55.8298 	 3.92671 	 70.1516
| 41> *
| 42>
| 43>                          ****END OF INPUT****

CARTESIAN COORDINATES (ANGSTROEM)
---------------------------------
  S     56.989800    8.546810   73.595500
  C     56.269700    9.882850   74.321300
  C     55.197600   10.359000   73.612700
  C     54.918900    9.464140   72.486400
  C     55.859500    8.499810   72.276800
  H     54.044600    9.629740   71.852600
  C     54.415800   11.616500   73.915800
  H     54.922300   12.222300   74.732100
  H     53.431800   11.275700   74.368000
  C     53.945000   12.307200   72.663000
  H     54.771200   12.568700   71.988000
  H     53.323900   11.589600   72.079200
  C     53.127100   13.579600   72.860600
  H     52.377100   13.621900   73.641900
  H     53.763300   14.439200   73.006100
  H     52.537200   13.889500   71.988600
  S     56.378800    5.807850   71.828100
  C     55.886200    5.039990   70.387400
  C     55.452000    5.990730   69.467000
  C     55.356000    7.272820   70.034300
  C     55.831900    7.366900   71.310300
  H     55.202100    5.653560   68.459800
  C     54.744700    8.457240   69.311700
  H     55.439900    9.285200   69.474700
  H     53.783900    8.776240   69.787900
  C     54.516300    8.422300   67.857400
  H     53.760500    7.646200   67.551400
  H     55.507900    8.195730   67.362400
  C     53.949900    9.725430   67.296500
  H     54.108600    9.781930   66.252900
  H     54.528300   10.515500   67.839500
  H     52.912200    9.853480   67.505100
  H     56.596100   10.375800   75.259100
  H     55.829800    3.926710   70.151600

 Total Charge           Charge          ....    0
 Multiplicity           Mult            ....    1
 Number of Electrons    NEL             ....  134
 Basis Dimension        Dim             ....  322

ORBITAL ENERGIES
----------------

  NO   OCC          E(Eh)            E(eV)
   0   2.0000     -88.965831     -2420.8833
   1   2.0000     -88.963215     -2420.8122
   2   2.0000     -10.331120      -281.1241
   3   2.0000     -10.324999      -280.9575
   4   2.0000     -10.319527      -280.8086
   5   2.0000     -10.309665      -280.5402
   6   2.0000     -10.302512      -280.3456
   7   2.0000     -10.299716      -280.2695
   8   2.0000     -10.299300      -280.2582
   9   2.0000     -10.294626      -280.1310
  10   2.0000     -10.292570      -280.0751
  11   2.0000     -10.292215      -280.0654
  12   2.0000     -10.289307      -279.9863
  13   2.0000     -10.288408      -279.9618
  14   2.0000     -10.277409      -279.6625
  15   2.0000     -10.276021      -279.6248
  16   2.0000      -8.081535      -219.9098
  17   2.0000      -8.079554      -219.8558
  18   2.0000      -6.040009      -164.3570
  19   2.0000      -6.038099      -164.3050
  20   2.0000      -6.035711      -164.2401
  21   2.0000      -6.033758      -164.1869
  22   2.0000      -6.032467      -164.1518
  23   2.0000      -6.030271      -164.0920
  24   2.0000      -1.015907       -27.6442
  25   2.0000      -0.995461       -27.0879
  26   2.0000      -0.919174       -25.0120
  27   2.0000      -0.915805       -24.9203
  28   2.0000      -0.872126       -23.7318
  29   2.0000      -0.856583       -23.3088
  30   2.0000      -0.845493       -23.0070
  31   2.0000      -0.818192       -22.2641
  32   2.0000      -0.784132       -21.3373
  33   2.0000      -0.775955       -21.1148
  34   2.0000      -0.710420       -19.3315
  35   2.0000      -0.695872       -18.9356
  36   2.0000      -0.686640       -18.6844
  37   2.0000      -0.651264       -17.7218
  38   2.0000      -0.635897       -17.3036
  39   2.0000      -0.627133       -17.0652
  40   2.0000      -0.600951       -16.3527
  41   2.0000      -0.578061       -15.7298
  42   2.0000      -0.573224       -15.5982
  43   2.0000      -0.562899       -15.3173
  44   2.0000      -0.526634       -14.3304
  45   2.0000      -0.523161       -14.2359
  46   2.0000      -0.520603       -14.1663
  47   2.0000      -0.513356       -13.9691
  48   2.0000      -0.504267       -13.7218
  49   2.0000      -0.503597       -13.7036
  50   2.0000      -0.495666       -13.4878
  51   2.0000      -0.481078       -13.0908
  52   2.0000      -0.471051       -12.8180
  53   2.0000      -0.463700       -12.6179
  54   2.0000      -0.462649       -12.5893
  55   2.0000      -0.456988       -12.4353
  56   2.0000      -0.453195       -12.3321
  57   2.0000      -0.434566       -11.8251
  58   2.0000      -0.430238       -11.7074
  59   2.0000      -0.422810       -11.5052
  60   2.0000      -0.418064       -11.3761
  61   2.0000      -0.414949       -11.2913
  62   2.0000      -0.411720       -11.2035
  63   2.0000      -0.359023        -9.7695
  64   2.0000      -0.332777        -9.0553
  65   2.0000      -0.323622        -8.8062
  66   2.0000      -0.288921        -7.8619
  67   0.0000       0.032543         0.8855
  68   0.0000       0.082375         2.2415
  69   0.0000       0.116291         3.1644
  70   0.0000       0.122353         3.3294
  71   0.0000       0.130427         3.5491

MULLIKEN ATOMIC CHARGES
-----------------------
   0 S :    0.107924
   1 C :   -0.129439
   2 C :   -0.094476
   3 C :   -0.009580
   4 C :   -0.113379
   5 H :    0.008353
   6 C :    0.071634
   7 H :    0.037495
   8 H :    0.040658
   9 C :   -0.111450
  10 H :    0.038279
  11 H :    0.036195
  12 C :   -0.033102
  13 H :    0.021561
  14 H :    0.025280
  15 H :    0.024983
  16 S :    0.117187
  17 C :   -0.113207
  18 C :   -0.061868
  19 C :   -0.024864
  20 C :   -0.123806
  21 H :    0.021847
  22 C :    0.026066
  23 H :    0.031541
  24 H :    0.042406
  25 C :   -0.118560
  26 H :    0.033553
  27 H :    0.036492
  28 C :   -0.007364
  29 H :    0.030760
  30 H :    0.022776
  31 H :    0.028875
  32 H :    0.055005
  33 H :    0.082227
Sum of atomic charges:    0.0000000

LOEWDIN ATOMIC CHARGES
----------------------
   0 S :    0.428190
   1 C :   -0.221601
   2 C :   -0.068188
   3 C :   -0.066218
   4 C :   -0.193008
   5 H :    0.026890
   6 C :   -0.040119
   7 H :    0.036590
   8 H :    0.042208
   9 C :   -0.046731
  10 H :    0.027851
  11 H :    0.027413
  12 C :   -0.071865
  13 H :    0.021887
  14 H :    0.024346
  15 H :    0.029787
  16 S :    0.435267
  17 C :   -0.212101
  18 C :   -0.079169
  19 C :   -0.062181
  20 C :   -0.203359
  21 H :    0.033728
  22 C :   -0.042501
  23 H :    0.034356
  24 H :    0.032882
  25 C :   -0.052622
  26 H :    0.024774
  27 H :    0.028967
  28 C :   -0.055161
  29 H :    0.023282
  30 H :    0.028263
  31 H :    0.020749
  32 H :    0.037639
  33 H :    0.049755

  Mayer bond orders larger than 0.100000
B(  0-S ,  1-C ) :   1.1514 B(  0-S ,  4-C ) :   1.1474 B(  1-C ,  2-C ) :   1.6241
B(  1-C , 32-H ) :   0.9597 B(  2-C ,  3-C ) :   1.2353 B(  2-C ,  6-C ) :   1.0296
B(  3-C ,  4-C ) :   1.5845 B(  3-C ,  5-H ) :   0.9824 B(  4-C , 20-C ) :   1.0320
B(  6-C ,  7-H ) :   0.9496 B(  6-C ,  8-H ) :   0.9237 B(  6-C ,  9-C ) :   1.0580
B(  9-C , 10-H ) :   0.9591 B(  9-C , 11-H ) :   0.9469 B(  9-C , 12-C ) :   1.0851
B( 12-C , 13-H ) :   0.9739 B( 12-C , 14-H ) :   0.9741 B( 12-C , 15-H ) :   0.9726
B( 16-S , 17-C ) :   1.1875 B( 16-S , 20-C ) :   1.1446 B( 17-C , 18-C ) :   1.5657
B( 17-C , 33-H ) :   0.9555 B( 18-C , 19-C ) :   1.2743 B( 18-C , 21-H ) :   0.9933
B( 19-C , 20-C ) :   1.5928 B( 19-C , 22-C ) :   1.0290 B( 22-C , 23-H ) :   0.9240
B( 22-C , 24-H ) :   0.9248 B( 22-C , 25-C ) :   1.1021 B( 25-C , 26-H ) :   0.9405
B( 25-C , 27-H ) :   0.9490 B( 25-C , 28-C ) :   1.0848 B( 28-C , 29-H ) :   0.9717
B( 28-C , 30-H ) :   0.9732 B( 28-C , 31-H ) :   0.9734

Dispersion correction           -0.013488172
FINAL SINGLE POINT ENERGY     -1339.884407507820

DIPOLE MOMENT
-------------
                                X             Y             Z
Electronic contribution:     17.83229     -24.44372      14.30734
Nuclear contribution   :    -18.38242      24.85194     -14.63412
                        -----------------------------------------
Total Dipole Moment    :     -0.55013       0.40822      -0.32678
                        -----------------------------------------
Magnitude (a.u.)       :      0.75899
Magnitude (Debye)      :      1.92921

Rotational constants in cm-1:     0.016142     0.009558     0.006238
Rotational constants in MHz :   483.925884   286.551654   186.997713

                             ****ORCA TERMINATED NORMALLY****
TOTAL RUN TIME: 0 days 0 hours 0 minutes 30 seconds 153 msec
