                         Program Version 4.2.1 -  RELEASE  -
|  1> ! wB97X-D3 SP def2-SVP
|  2> %pal
|  3> nprocs 16
|  4> end
|  5>
|  6> * xyz 0 1
|  7> S 	 15.8342 	 32.9935 	 56.104
|  8> C 	 14.7542 	 31.82 	 56.8988
|  9> C 	 14.6655 	 31.9424 	 58.2299
| 10> C 	 15.133 	 33.2316 	 58.6479
| 11> C 	 15.813 	 33.9382 	 57.5798
| 12> H 	 14.9358 	 33.7893 	 59.5889
| 13> C 	 13.9096 	 30.9508 	 59.0511
| 14> H 	 13.1085 	 30.5575 	 58.4904
| 15> H 	 13.3914 	 31.6848 	 59.5989
| 16> C 	 14.7137 	 29.984 	 59.905
| 17> H 	 15.1541 	 29.2406 	 59.294
| 18> H 	 15.4962 	 30.5891 	 60.3963
| 19> C 	 13.7981 	 29.3367 	 60.9136
| 20> H 	 13.46 	 30.1708 	 61.5439
| 21> H 	 12.9443 	 28.7663 	 60.4644
| 22> H 	 14.358 	 28.6231 	 61.5714
| 23> S 	 15.3489 	 36.414 	 56.5615
| 24> C 	 16.4963 	 37.7167 	 56.944
| 25> C 	 17.3565 	 37.3616 	 57.9306
| 26> C 	 17.1335 	 36.0601 	 58.3723
| 27> C 	 16.1844 	 35.3101 	 57.6825
| 28> H 	 18.1321 	 38.0192 	 58.2873
| 29> C 	 18.128 	 35.5557 	 59.4064
| 30> H 	 18.9909 	 36.1666 	 59.2685
| 31> H 	 18.4844 	 34.5673 	 59.1022
| 32> C 	 17.8538 	 35.7003 	 60.926
| 33> H 	 18.8319 	 35.6975 	 61.4146
| 34> H 	 17.3015 	 34.8187 	 61.3002
| 35> C 	 17.1701 	 37.0903 	 61.3183
| 36> H 	 17.9327 	 37.9088 	 61.1389
| 37> H 	 16.9901 	 37.1379 	 62.4153
| 38> H 	 16.1761 	 37.1559 	 60.7495
| 39> H 	 14.4463 	 30.937 	 56.379
| 40> H 	 16.5531 	 38.6605 	 56.4868
| 41> *
| 42>
| 43>                          ****END OF INPUT****

CARTESIAN COORDINATES (ANGSTROEM)
---------------------------------
  S     15.834200   32.993500   56.104000
  C     14.754200   31.820000   56.898800
  C     14.665500   31.942400   58.229900
  C     15.133000   33.231600   58.647900
  C     15.813000   33.938200   57.579800
  H     14.935800   33.789300   59.588900
  C     13.909600   30.950800   59.051100
  H     13.108500   30.557500   58.490400
  H     13.391400   31.684800   59.598900
  C     14.713700   29.984000   59.905000
  H     15.154100   29.240600   59.294000
  H     15.496200   30.589100   60.396300
  C     13.798100   29.336700   60.913600
  H     13.460000   30.170800   61.543900
  H     12.944300   28.766300   60.464400
  H     14.358000   28.623100   61.571400
  S     15.348900   36.414000   56.561500
  C     16.496300   37.716700   56.944000
  C     17.356500   37.361600   57.930600
  C     17.133500   36.060100   58.372300
  C     16.184400   35.310100   57.682500
  H     18.132100   38.019200   58.287300
  C     18.128000   35.555700   59.406400
  H     18.990900   36.166600   59.268500
  H     18.484400   34.567300   59.102200
  C     17.853800   35.700300   60.926000
  H     18.831900   35.697500   61.414600
  H     17.301500   34.818700   61.300200
  C     17.170100   37.090300   61.318300
  H     17.932700   37.908800   61.138900
  H     16.990100   37.137900   62.415300
  H     16.176100   37.155900   60.749500
  H     14.446300   30.937000   56.379000
  H     16.553100   38.660500   56.486800

 Total Charge           Charge          ....    0
 Multiplicity           Mult            ....    1
 Number of Electrons    NEL             ....  134
 Basis Dimension        Dim             ....  322

ORBITAL ENERGIES
----------------

  NO   OCC          E(Eh)            E(eV)
   0   2.0000     -88.968060     -2420.9440
   1   2.0000     -88.960392     -2420.7353
   2   2.0000     -10.332068      -281.1499
   3   2.0000     -10.324392      -280.9410
   4   2.0000     -10.311526      -280.5909
   5   2.0000     -10.308112      -280.4980
   6   2.0000     -10.304730      -280.4059
   7   2.0000     -10.298334      -280.2319
   8   2.0000     -10.297335      -280.2047
   9   2.0000     -10.292991      -280.0865
  10   2.0000     -10.291410      -280.0435
  11   2.0000     -10.286272      -279.9037
  12   2.0000     -10.285027      -279.8698
  13   2.0000     -10.284943      -279.8675
  14   2.0000     -10.283450      -279.8269
  15   2.0000     -10.281510      -279.7741
  16   2.0000      -8.082259      -219.9294
  17   2.0000      -8.074540      -219.7194
  18   2.0000      -6.040715      -164.3762
  19   2.0000      -6.037012      -164.2755
  20   2.0000      -6.033183      -164.1713
  21   2.0000      -6.032921      -164.1641
  22   2.0000      -6.029056      -164.0590
  23   2.0000      -6.025246      -163.9553
  24   2.0000      -1.003599       -27.3093
  25   2.0000      -0.983099       -26.7515
  26   2.0000      -0.922511       -25.1028
  27   2.0000      -0.898914       -24.4607
  28   2.0000      -0.876120       -23.8404
  29   2.0000      -0.850359       -23.1394
  30   2.0000      -0.838762       -22.8239
  31   2.0000      -0.810246       -22.0479
  32   2.0000      -0.782259       -21.2864
  33   2.0000      -0.769594       -20.9417
  34   2.0000      -0.712598       -19.3908
  35   2.0000      -0.705870       -19.2077
  36   2.0000      -0.686314       -18.6755
  37   2.0000      -0.664972       -18.0948
  38   2.0000      -0.640548       -17.4302
  39   2.0000      -0.613350       -16.6901
  40   2.0000      -0.584452       -15.9037
  41   2.0000      -0.572970       -15.5913
  42   2.0000      -0.568584       -15.4720
  43   2.0000      -0.553024       -15.0485
  44   2.0000      -0.540386       -14.7046
  45   2.0000      -0.527711       -14.3597
  46   2.0000      -0.521844       -14.2001
  47   2.0000      -0.511180       -13.9099
  48   2.0000      -0.499170       -13.5831
  49   2.0000      -0.496592       -13.5130
  50   2.0000      -0.485349       -13.2070
  51   2.0000      -0.472609       -12.8604
  52   2.0000      -0.467813       -12.7298
  53   2.0000      -0.463725       -12.6186
  54   2.0000      -0.456153       -12.4125
  55   2.0000      -0.447007       -12.1637
  56   2.0000      -0.442808       -12.0494
  57   2.0000      -0.440220       -11.9790
  58   2.0000      -0.434687       -11.8284
  59   2.0000      -0.432193       -11.7606
  60   2.0000      -0.413061       -11.2400
  61   2.0000      -0.412927       -11.2363
  62   2.0000      -0.409402       -11.1404
  63   2.0000      -0.339624        -9.2417
  64   2.0000      -0.332638        -9.0515
  65   2.0000      -0.324476        -8.8294
  66   2.0000      -0.292893        -7.9700
  67   0.0000       0.023477         0.6388
  68   0.0000       0.066073         1.7979
  69   0.0000       0.109201         2.9715
  70   0.0000       0.120194         3.2706
  71   0.0000       0.125002         3.4015

MULLIKEN ATOMIC CHARGES
-----------------------
   0 S :    0.122093
   1 C :   -0.129000
   2 C :   -0.064350
   3 C :    0.005506
   4 C :   -0.168862
   5 H :    0.037060
   6 C :    0.076821
   7 H :    0.005441
   8 H :    0.000152
   9 C :   -0.011983
  10 H :    0.022165
  11 H :    0.033067
  12 C :   -0.070647
  13 H :    0.032696
  14 H :    0.044418
  15 H :    0.039911
  16 S :    0.092658
  17 C :   -0.064700
  18 C :   -0.032775
  19 C :   -0.030102
  20 C :   -0.174090
  21 H :    0.019955
  22 C :    0.080644
  23 H :   -0.003558
  24 H :    0.029139
  25 C :   -0.076114
  26 H :    0.029953
  27 H :    0.034996
  28 C :   -0.111794
  29 H :    0.040790
  30 H :    0.043515
  31 H :    0.072902
  32 H :    0.039793
  33 H :    0.034300
Sum of atomic charges:   -0.0000000

LOEWDIN ATOMIC CHARGES
----------------------
   0 S :    0.393071
   1 C :   -0.176365
   2 C :   -0.064642
   3 C :   -0.055647
   4 C :   -0.204118
   5 H :    0.038002
   6 C :   -0.030326
   7 H :    0.025985
   8 H :    0.028658
   9 C :   -0.032241
  10 H :    0.019188
  11 H :    0.031538
  12 C :   -0.068922
  13 H :    0.026949
  14 H :    0.030410
  15 H :    0.028420
  16 S :    0.380796
  17 C :   -0.161264
  18 C :   -0.072840
  19 C :   -0.057527
  20 C :   -0.194638
  21 H :    0.033642
  22 C :   -0.034507
  23 H :    0.023435
  24 H :    0.032233
  25 C :   -0.040522
  26 H :    0.024675
  27 H :    0.020134
  28 C :   -0.080207
  29 H :    0.029599
  30 H :    0.027920
  31 H :    0.039066
  32 H :    0.019984
  33 H :    0.020063

  Mayer bond orders larger than 0.100000
B(  0-S ,  1-C ) :   1.1230 B(  0-S ,  4-C ) :   1.1507 B(  1-C ,  2-C ) :   1.6439
B(  1-C , 32-H ) :   0.9647 B(  2-C ,  3-C ) :   1.2155 B(  2-C ,  6-C ) :   0.9933
B(  3-C ,  4-C ) :   1.5609 B(  3-C ,  5-H ) :   0.9815 B(  4-C , 20-C ) :   1.0855
B(  6-C ,  7-H ) :   0.9400 B(  6-C ,  8-H ) :   0.9351 B(  6-C ,  9-C ) :   1.0505
B(  9-C , 10-H ) :   0.9523 B(  9-C , 11-H ) :   0.9542 B(  9-C , 12-C ) :   1.0838
B( 12-C , 13-H ) :   0.9766 B( 12-C , 14-H ) :   0.9728 B( 12-C , 15-H ) :   0.9740
B( 16-S , 17-C ) :   1.1487 B( 16-S , 20-C ) :   1.1202 B( 17-C , 18-C ) :   1.6131
B( 17-C , 20-C ) :   0.1002 B( 17-C , 33-H ) :   0.9692 B( 18-C , 19-C ) :   1.2511
B( 18-C , 21-H ) :   0.9899 B( 19-C , 20-C ) :   1.5821 B( 19-C , 22-C ) :   1.0384
B( 22-C , 23-H ) :   0.9347 B( 22-C , 24-H ) :   0.9373 B( 22-C , 25-C ) :   1.0588
B( 25-C , 26-H ) :   0.9578 B( 25-C , 27-H ) :   0.9602 B( 25-C , 28-C ) :   1.0743
B( 28-C , 29-H ) :   0.9736 B( 28-C , 30-H ) :   0.9755 B( 28-C , 31-H ) :   0.9692

Dispersion correction           -0.014076266
FINAL SINGLE POINT ENERGY     -1339.851845302145

DIPOLE MOMENT
-------------
                                X             Y             Z
Electronic contribution:     -1.24399       9.41132     -26.34862
Nuclear contribution   :      1.35984      -9.60829      26.90234
                        -----------------------------------------
Total Dipole Moment    :      0.11586      -0.19697       0.55373
                        -----------------------------------------
Magnitude (a.u.)       :      0.59902
Magnitude (Debye)      :      1.52260

Rotational constants in cm-1:     0.019399     0.008170     0.006279
Rotational constants in MHz :   581.559335   244.921299   188.252334

                             ****ORCA TERMINATED NORMALLY****
TOTAL RUN TIME: 0 days 0 hours 0 minutes 34 seconds 969 msec
