                         Program Version 4.2.1 -  RELEASE  -
|  1> ! wB97X-D3 SP def2-SVP
|  2> %pal
|  3> nprocs 16
|  4> end
|  5>
|  6> * xyz 0 1
|  7> S 	 31.019 	 25.6323 	 51.1626
|  8> C 	 30.5524 	 26.8993 	 50.065
|  9> C 	 30.4354 	 28.1151 	 50.6815
| 10> C 	 30.4447 	 27.9824 	 52.1471
| 11> C 	 30.7462 	 26.6843 	 52.5466
| 12> H 	 30.3516 	 28.8251 	 52.873
| 13> C 	 30.2675 	 29.4303 	 49.9982
| 14> H 	 29.5254 	 30.0751 	 50.5302
| 15> H 	 29.8411 	 29.2759 	 49.0496
| 16> C 	 31.6166 	 30.1983 	 49.9498
| 17> H 	 31.8301 	 30.7788 	 50.8426
| 18> H 	 32.4047 	 29.4597 	 49.6825
| 19> C 	 31.5838 	 31.1591 	 48.7318
| 20> H 	 32.4924 	 31.7214 	 48.4844
| 21> H 	 31.395 	 30.5759 	 47.8361
| 22> H 	 30.7811 	 31.8794 	 48.874
| 23> S 	 32.7492 	 25.9526 	 54.3568
| 24> C 	 32.274 	 25.8009 	 56.0073
| 25> C 	 30.9741 	 26.0331 	 56.2671
| 26> C 	 30.2963 	 26.4038 	 55.0681
| 27> C 	 31.0786 	 26.3336 	 53.9422
| 28> H 	 30.5699 	 25.9976 	 57.2436
| 29> C 	 28.8151 	 26.6265 	 55.0942
| 30> H 	 28.6327 	 27.4785 	 54.55
| 31> H 	 28.3429 	 26.8629 	 56.1064
| 32> C 	 27.9758 	 25.5316 	 54.4131
| 33> H 	 28.2036 	 24.5961 	 54.9336
| 34> H 	 28.2278 	 25.4695 	 53.3381
| 35> C 	 26.4802 	 25.8473 	 54.4462
| 36> H 	 26.2463 	 26.8508 	 54.1523
| 37> H 	 25.9836 	 25.7348 	 55.4616
| 38> H 	 26.0165 	 25.1123 	 53.7918
| 39> H 	 30.6521 	 26.7956 	 49.0304
| 40> H 	 33.0056 	 25.6315 	 56.8064
| 41> *
| 42>
| 43>                          ****END OF INPUT****

CARTESIAN COORDINATES (ANGSTROEM)
---------------------------------
  S     31.019000   25.632300   51.162600
  C     30.552400   26.899300   50.065000
  C     30.435400   28.115100   50.681500
  C     30.444700   27.982400   52.147100
  C     30.746200   26.684300   52.546600
  H     30.351600   28.825100   52.873000
  C     30.267500   29.430300   49.998200
  H     29.525400   30.075100   50.530200
  H     29.841100   29.275900   49.049600
  C     31.616600   30.198300   49.949800
  H     31.830100   30.778800   50.842600
  H     32.404700   29.459700   49.682500
  C     31.583800   31.159100   48.731800
  H     32.492400   31.721400   48.484400
  H     31.395000   30.575900   47.836100
  H     30.781100   31.879400   48.874000
  S     32.749200   25.952600   54.356800
  C     32.274000   25.800900   56.007300
  C     30.974100   26.033100   56.267100
  C     30.296300   26.403800   55.068100
  C     31.078600   26.333600   53.942200
  H     30.569900   25.997600   57.243600
  C     28.815100   26.626500   55.094200
  H     28.632700   27.478500   54.550000
  H     28.342900   26.862900   56.106400
  C     27.975800   25.531600   54.413100
  H     28.203600   24.596100   54.933600
  H     28.227800   25.469500   53.338100
  C     26.480200   25.847300   54.446200
  H     26.246300   26.850800   54.152300
  H     25.983600   25.734800   55.461600
  H     26.016500   25.112300   53.791800
  H     30.652100   26.795600   49.030400
  H     33.005600   25.631500   56.806400

 Total Charge           Charge          ....    0
 Multiplicity           Mult            ....    1
 Number of Electrons    NEL             ....  134
 Basis Dimension        Dim             ....  322

ORBITAL ENERGIES
----------------

  NO   OCC          E(Eh)            E(eV)
   0   2.0000     -88.966761     -2420.9086
   1   2.0000     -88.964269     -2420.8408
   2   2.0000     -10.332105      -281.1509
   3   2.0000     -10.323101      -280.9059
   4   2.0000     -10.310977      -280.5760
   5   2.0000     -10.308382      -280.5053
   6   2.0000     -10.302603      -280.3481
   7   2.0000     -10.301065      -280.3062
   8   2.0000     -10.297297      -280.2037
   9   2.0000     -10.291939      -280.0579
  10   2.0000     -10.291830      -280.0549
  11   2.0000     -10.284592      -279.8580
  12   2.0000     -10.281717      -279.7797
  13   2.0000     -10.281112      -279.7633
  14   2.0000     -10.277877      -279.6753
  15   2.0000     -10.275118      -279.6002
  16   2.0000      -8.081492      -219.9086
  17   2.0000      -8.079527      -219.8551
  18   2.0000      -6.040095      -164.3593
  19   2.0000      -6.037964      -164.3013
  20   2.0000      -6.036084      -164.2502
  21   2.0000      -6.034119      -164.1967
  22   2.0000      -6.032066      -164.1409
  23   2.0000      -6.030181      -164.0896
  24   2.0000      -1.006954       -27.4006
  25   2.0000      -0.986214       -26.8363
  26   2.0000      -0.913281       -24.8516
  27   2.0000      -0.907678       -24.6992
  28   2.0000      -0.869264       -23.6539
  29   2.0000      -0.850839       -23.1525
  30   2.0000      -0.845688       -23.0123
  31   2.0000      -0.815002       -22.1773
  32   2.0000      -0.779467       -21.2104
  33   2.0000      -0.768853       -20.9216
  34   2.0000      -0.704739       -19.1769
  35   2.0000      -0.698175       -18.9983
  36   2.0000      -0.686851       -18.6902
  37   2.0000      -0.662006       -18.0141
  38   2.0000      -0.643332       -17.5060
  39   2.0000      -0.617398       -16.8002
  40   2.0000      -0.599514       -16.3136
  41   2.0000      -0.577273       -15.7084
  42   2.0000      -0.565885       -15.3985
  43   2.0000      -0.557377       -15.1670
  44   2.0000      -0.523879       -14.2555
  45   2.0000      -0.519851       -14.1459
  46   2.0000      -0.517696       -14.0872
  47   2.0000      -0.510406       -13.8889
  48   2.0000      -0.503521       -13.7015
  49   2.0000      -0.498326       -13.5601
  50   2.0000      -0.493830       -13.4378
  51   2.0000      -0.477889       -13.0040
  52   2.0000      -0.470755       -12.8099
  53   2.0000      -0.459626       -12.5070
  54   2.0000      -0.455051       -12.3826
  55   2.0000      -0.449562       -12.2332
  56   2.0000      -0.443387       -12.0652
  57   2.0000      -0.434945       -11.8355
  58   2.0000      -0.430320       -11.7096
  59   2.0000      -0.426550       -11.6070
  60   2.0000      -0.422861       -11.5066
  61   2.0000      -0.421441       -11.4680
  62   2.0000      -0.412706       -11.2303
  63   2.0000      -0.344485        -9.3739
  64   2.0000      -0.330833        -9.0024
  65   2.0000      -0.325597        -8.8599
  66   2.0000      -0.298312        -8.1175
  67   0.0000       0.039193         1.0665
  68   0.0000       0.065251         1.7756
  69   0.0000       0.116869         3.1802
  70   0.0000       0.122195         3.3251
  71   0.0000       0.125092         3.4039

MULLIKEN ATOMIC CHARGES
-----------------------
   0 S :    0.106970
   1 C :   -0.088346
   2 C :   -0.106828
   3 C :    0.034215
   4 C :   -0.176016
   5 H :    0.037459
   6 C :    0.069492
   7 H :    0.032671
   8 H :    0.007534
   9 C :   -0.069502
  10 H :    0.043741
  11 H :    0.042543
  12 C :   -0.067880
  13 H :    0.036888
  14 H :    0.024451
  15 H :    0.026852
  16 S :    0.115558
  17 C :   -0.090305
  18 C :   -0.010390
  19 C :   -0.027159
  20 C :   -0.161494
  21 H :    0.002698
  22 C :    0.095413
  23 H :   -0.018515
  24 H :    0.023484
  25 C :   -0.086539
  26 H :    0.031635
  27 H :    0.045359
  28 C :   -0.049088
  29 H :    0.023546
  30 H :    0.030224
  31 H :    0.036568
  32 H :    0.028258
  33 H :    0.056503
Sum of atomic charges:   -0.0000000

LOEWDIN ATOMIC CHARGES
----------------------
   0 S :    0.401282
   1 C :   -0.195425
   2 C :   -0.056528
   3 C :   -0.059357
   4 C :   -0.193940
   5 H :    0.039329
   6 C :   -0.030798
   7 H :    0.036031
   8 H :    0.022380
   9 C :   -0.033307
  10 H :    0.025608
  11 H :    0.029992
  12 C :   -0.069398
  13 H :    0.025252
  14 H :    0.021475
  15 H :    0.021071
  16 S :    0.407259
  17 C :   -0.185106
  18 C :   -0.068894
  19 C :   -0.050573
  20 C :   -0.199867
  21 H :    0.028957
  22 C :   -0.036522
  23 H :    0.014784
  24 H :    0.034977
  25 C :   -0.035675
  26 H :    0.024075
  27 H :    0.029940
  28 C :   -0.068040
  29 H :    0.019287
  30 H :    0.027329
  31 H :    0.028379
  32 H :    0.015947
  33 H :    0.030074

  Mayer bond orders larger than 0.100000
B(  0-S ,  1-C ) :   1.1216 B(  0-S ,  4-C ) :   1.1436 B(  1-C ,  2-C ) :   1.6437
B(  1-C , 32-H ) :   0.9701 B(  2-C ,  3-C ) :   1.2086 B(  2-C ,  6-C ) :   1.0451
B(  3-C ,  4-C ) :   1.5997 B(  3-C ,  5-H ) :   0.9821 B(  4-C , 20-C ) :   1.0203
B(  6-C ,  7-H ) :   0.9354 B(  6-C ,  8-H ) :   0.9461 B(  6-C ,  9-C ) :   1.0391
B(  9-C , 10-H ) :   0.9569 B(  9-C , 11-H ) :   0.9637 B(  9-C , 12-C ) :   1.0767
B( 12-C , 13-H ) :   0.9765 B( 12-C , 14-H ) :   0.9789 B( 12-C , 15-H ) :   0.9744
B( 16-S , 17-C ) :   1.1600 B( 16-S , 20-C ) :   1.1291 B( 17-C , 18-C ) :   1.6234
B( 17-C , 33-H ) :   0.9588 B( 18-C , 19-C ) :   1.2262 B( 18-C , 21-H ) :   1.0039
B( 19-C , 20-C ) :   1.6237 B( 19-C , 22-C ) :   1.0528 B( 22-C , 23-H ) :   0.9033
B( 22-C , 24-H ) :   0.9422 B( 22-C , 25-C ) :   1.0725 B( 25-C , 26-H ) :   0.9562
B( 25-C , 27-H ) :   0.9511 B( 25-C , 28-C ) :   1.0845 B( 28-C , 29-H ) :   0.9734
B( 28-C , 30-H ) :   0.9732 B( 28-C , 31-H ) :   0.9744

Dispersion correction           -0.014267130
FINAL SINGLE POINT ENERGY     -1339.885321167708

DIPOLE MOMENT
-------------
                                X             Y             Z
Electronic contribution:     15.67246     -15.55630       5.89461
Nuclear contribution   :    -15.87133      16.10328      -5.88232
                        -----------------------------------------
Total Dipole Moment    :     -0.19887       0.54697       0.01228
                        -----------------------------------------
Magnitude (a.u.)       :      0.58213
Magnitude (Debye)      :      1.47967

Rotational constants in cm-1:     0.018790     0.008063     0.006924
Rotational constants in MHz :   563.304893   241.726604   207.583578

                             ****ORCA TERMINATED NORMALLY****
TOTAL RUN TIME: 0 days 0 hours 0 minutes 35 seconds 606 msec
