                         Program Version 4.2.1 -  RELEASE  -
|  1> ! wB97X-D3 SP def2-SVP
|  2> %pal
|  3> nprocs 16
|  4> end
|  5>
|  6> * xyz 0 1
|  7> S 	 1.72019 	 -8.08276 	 91.5916
|  8> C 	 0.0475599 	 -8.37598 	 92.1886
|  9> C 	 -0.567991 	 -9.31951 	 91.4105
| 10> C 	 0.320501 	 -9.83668 	 90.408
| 11> C 	 1.63195 	 -9.52635 	 90.6503
| 12> H 	 0.099327 	 -10.5392 	 89.6195
| 13> C 	 -2.06165 	 -9.61714 	 91.4674
| 14> H 	 -2.66149 	 -8.77946 	 91.0688
| 15> H 	 -2.41495 	 -9.60243 	 92.4905
| 16> C 	 -2.44607 	 -10.9626 	 90.9318
| 17> H 	 -2.42554 	 -10.9489 	 89.8092
| 18> H 	 -1.77923 	 -11.719 	 91.3735
| 19> C 	 -3.87312 	 -11.4428 	 91.442
| 20> H 	 -4.63831 	 -10.685 	 91.2611
| 21> H 	 -4.08051 	 -12.4042 	 90.9052
| 22> H 	 -3.87042 	 -11.7524 	 92.4689
| 23> S 	 3.77199 	 -8.76822 	 89.1104
| 24> C 	 4.74919 	 -10.0246 	 88.427
| 25> C 	 4.32062 	 -11.2824 	 88.8126
| 26> C 	 3.16419 	 -11.2772 	 89.583
| 27> C 	 2.78018 	 -9.9832 	 89.8688
| 28> H 	 4.91649 	 -12.1082 	 88.5093
| 29> C 	 2.54549 	 -12.5617 	 90.098
| 30> H 	 1.56777 	 -12.3667 	 90.4391
| 31> H 	 3.14905 	 -12.9139 	 90.9965
| 32> C 	 2.58642 	 -13.7803 	 89.1472
| 33> H 	 3.57056 	 -13.958 	 88.7621
| 34> H 	 1.94124 	 -13.5116 	 88.331
| 35> C 	 2.07748 	 -15.0462 	 89.8234
| 36> H 	 0.980186 	 -15.062 	 90.0712
| 37> H 	 2.63777 	 -15.2829 	 90.6998
| 38> H 	 2.41971 	 -15.8307 	 89.1262
| 39> H 	 -0.480049 	 -7.84775 	 93.017
| 40> H 	 5.60272 	 -9.92192 	 87.6612
| 41> *
| 42>
| 43>                          ****END OF INPUT****

CARTESIAN COORDINATES (ANGSTROEM)
---------------------------------
  S      1.720190   -8.082760   91.591600
  C      0.047560   -8.375980   92.188600
  C     -0.567991   -9.319510   91.410500
  C      0.320501   -9.836680   90.408000
  C      1.631950   -9.526350   90.650300
  H      0.099327  -10.539200   89.619500
  C     -2.061650   -9.617140   91.467400
  H     -2.661490   -8.779460   91.068800
  H     -2.414950   -9.602430   92.490500
  C     -2.446070  -10.962600   90.931800
  H     -2.425540  -10.948900   89.809200
  H     -1.779230  -11.719000   91.373500
  C     -3.873120  -11.442800   91.442000
  H     -4.638310  -10.685000   91.261100
  H     -4.080510  -12.404200   90.905200
  H     -3.870420  -11.752400   92.468900
  S      3.771990   -8.768220   89.110400
  C      4.749190  -10.024600   88.427000
  C      4.320620  -11.282400   88.812600
  C      3.164190  -11.277200   89.583000
  C      2.780180   -9.983200   89.868800
  H      4.916490  -12.108200   88.509300
  C      2.545490  -12.561700   90.098000
  H      1.567770  -12.366700   90.439100
  H      3.149050  -12.913900   90.996500
  C      2.586420  -13.780300   89.147200
  H      3.570560  -13.958000   88.762100
  H      1.941240  -13.511600   88.331000
  C      2.077480  -15.046200   89.823400
  H      0.980186  -15.062000   90.071200
  H      2.637770  -15.282900   90.699800
  H      2.419710  -15.830700   89.126200
  H     -0.480049   -7.847750   93.017000
  H      5.602720   -9.921920   87.661200

 Total Charge           Charge          ....    0
 Multiplicity           Mult            ....    1
 Number of Electrons    NEL             ....  134
 Basis Dimension        Dim             ....  322

ORBITAL ENERGIES
----------------

  NO   OCC          E(Eh)            E(eV)
   0   2.0000     -88.969255     -2420.9765
   1   2.0000     -88.962016     -2420.7795
   2   2.0000     -10.324022      -280.9309
   3   2.0000     -10.322328      -280.8848
   4   2.0000     -10.319006      -280.7944
   5   2.0000     -10.314444      -280.6703
   6   2.0000     -10.300283      -280.2850
   7   2.0000     -10.298299      -280.2310
   8   2.0000     -10.293228      -280.0930
   9   2.0000     -10.290581      -280.0210
  10   2.0000     -10.289766      -279.9988
  11   2.0000     -10.289736      -279.9979
  12   2.0000     -10.285652      -279.8868
  13   2.0000     -10.284079      -279.8440
  14   2.0000     -10.284026      -279.8426
  15   2.0000     -10.281220      -279.7662
  16   2.0000      -8.084218      -219.9828
  17   2.0000      -8.076715      -219.7786
  18   2.0000      -6.042576      -164.4268
  19   2.0000      -6.038768      -164.3232
  20   2.0000      -6.035305      -164.2290
  21   2.0000      -6.035052      -164.2221
  22   2.0000      -6.031603      -164.1283
  23   2.0000      -6.027011      -164.0033
  24   2.0000      -1.011736       -27.5307
  25   2.0000      -0.986623       -26.8474
  26   2.0000      -0.913705       -24.8632
  27   2.0000      -0.911141       -24.7934
  28   2.0000      -0.867479       -23.6053
  29   2.0000      -0.858155       -23.3516
  30   2.0000      -0.838773       -22.8242
  31   2.0000      -0.812656       -22.1135
  32   2.0000      -0.783481       -21.3196
  33   2.0000      -0.772483       -21.0203
  34   2.0000      -0.708408       -19.2768
  35   2.0000      -0.699690       -19.0395
  36   2.0000      -0.685169       -18.6444
  37   2.0000      -0.655523       -17.8377
  38   2.0000      -0.638380       -17.3712
  39   2.0000      -0.618762       -16.8374
  40   2.0000      -0.597513       -16.2592
  41   2.0000      -0.573187       -15.5972
  42   2.0000      -0.571116       -15.5409
  43   2.0000      -0.561494       -15.2790
  44   2.0000      -0.527372       -14.3505
  45   2.0000      -0.525283       -14.2937
  46   2.0000      -0.513314       -13.9680
  47   2.0000      -0.506556       -13.7841
  48   2.0000      -0.503750       -13.7077
  49   2.0000      -0.493554       -13.4303
  50   2.0000      -0.488181       -13.2841
  51   2.0000      -0.482232       -13.1222
  52   2.0000      -0.475394       -12.9361
  53   2.0000      -0.465705       -12.6725
  54   2.0000      -0.459190       -12.4952
  55   2.0000      -0.452907       -12.3242
  56   2.0000      -0.442393       -12.0381
  57   2.0000      -0.438372       -11.9287
  58   2.0000      -0.436231       -11.8704
  59   2.0000      -0.427974       -11.6458
  60   2.0000      -0.423443       -11.5225
  61   2.0000      -0.418151       -11.3785
  62   2.0000      -0.411081       -11.1861
  63   2.0000      -0.345499        -9.4015
  64   2.0000      -0.334732        -9.1085
  65   2.0000      -0.324971        -8.8429
  66   2.0000      -0.285602        -7.7716
  67   0.0000       0.027780         0.7559
  68   0.0000       0.068546         1.8652
  69   0.0000       0.099839         2.7167
  70   0.0000       0.123613         3.3637
  71   0.0000       0.134019         3.6468

MULLIKEN ATOMIC CHARGES
-----------------------
   0 S :    0.086559
   1 C :   -0.128177
   2 C :   -0.076729
   3 C :    0.026046
   4 C :   -0.151891
   5 H :    0.020597
   6 C :    0.074487
   7 H :    0.043386
   8 H :    0.009235
   9 C :   -0.127629
  10 H :    0.049965
  11 H :    0.040673
  12 C :   -0.058813
  13 H :    0.039981
  14 H :    0.036674
  15 H :    0.033288
  16 S :    0.126264
  17 C :   -0.121487
  18 C :   -0.050262
  19 C :   -0.002314
  20 C :   -0.163849
  21 H :    0.005539
  22 C :    0.084738
  23 H :    0.000688
  24 H :    0.039496
  25 C :   -0.089917
  26 H :    0.025197
  27 H :    0.027898
  28 C :   -0.037258
  29 H :    0.050564
  30 H :    0.018497
  31 H :    0.032131
  32 H :    0.057192
  33 H :    0.079234
Sum of atomic charges:    0.0000000

LOEWDIN ATOMIC CHARGES
----------------------
   0 S :    0.382333
   1 C :   -0.188886
   2 C :   -0.061963
   3 C :   -0.064910
   4 C :   -0.189493
   5 H :    0.028901
   6 C :   -0.042596
   7 H :    0.037204
   8 H :    0.029940
   9 C :   -0.046522
  10 H :    0.027754
  11 H :    0.029598
  12 C :   -0.066567
  13 H :    0.023336
  14 H :    0.032400
  15 H :    0.021507
  16 S :    0.419813
  17 C :   -0.205731
  18 C :   -0.072251
  19 C :   -0.058798
  20 C :   -0.201044
  21 H :    0.026186
  22 C :   -0.028284
  23 H :    0.017959
  24 H :    0.040335
  25 C :   -0.037085
  26 H :    0.019176
  27 H :    0.022901
  28 C :   -0.066037
  29 H :    0.033498
  30 H :    0.019176
  31 H :    0.033143
  32 H :    0.037446
  33 H :    0.047561

  Mayer bond orders larger than 0.100000
B(  0-S ,  1-C ) :   1.1096 B(  0-S ,  4-C ) :   1.1459 B(  1-C ,  2-C ) :   1.6425
B(  1-C , 32-H ) :   0.9674 B(  2-C ,  3-C ) :   1.2144 B(  2-C ,  6-C ) :   1.0198
B(  3-C ,  4-C ) :   1.5790 B(  3-C ,  5-H ) :   0.9868 B(  4-C , 20-C ) :   1.0374
B(  6-C ,  7-H ) :   0.9284 B(  6-C ,  8-H ) :   0.9374 B(  6-C ,  9-C ) :   1.0752
B(  9-C , 10-H ) :   0.9483 B(  9-C , 11-H ) :   0.9594 B(  9-C , 12-C ) :   1.0826
B( 12-C , 13-H ) :   0.9768 B( 12-C , 14-H ) :   0.9748 B( 12-C , 15-H ) :   0.9755
B( 16-S , 17-C ) :   1.1559 B( 16-S , 20-C ) :   1.1524 B( 17-C , 18-C ) :   1.6124
B( 17-C , 33-H ) :   0.9543 B( 18-C , 19-C ) :   1.2478 B( 18-C , 21-H ) :   0.9944
B( 19-C , 20-C ) :   1.5900 B( 19-C , 22-C ) :   1.0457 B( 22-C , 23-H ) :   0.9285
B( 22-C , 24-H ) :   0.9303 B( 22-C , 25-C ) :   1.0643 B( 25-C , 26-H ) :   0.9509
B( 25-C , 27-H ) :   0.9555 B( 25-C , 28-C ) :   1.0936 B( 28-C , 29-H ) :   0.9736
B( 28-C , 30-H ) :   0.9708 B( 28-C , 31-H ) :   0.9724

Dispersion correction           -0.013497035
FINAL SINGLE POINT ENERGY     -1339.866856297043

DIPOLE MOMENT
-------------
                                X             Y             Z
Electronic contribution:     19.99348      26.39028      -0.91714
Nuclear contribution   :    -20.37525     -27.02195       0.78329
                        -----------------------------------------
Total Dipole Moment    :     -0.38177      -0.63167      -0.13385
                        -----------------------------------------
Magnitude (a.u.)       :      0.75011
Magnitude (Debye)      :      1.90664

Rotational constants in cm-1:     0.015615     0.009589     0.006342
Rotational constants in MHz :   468.138357   287.468025   190.140547

                             ****ORCA TERMINATED NORMALLY****
TOTAL RUN TIME: 0 days 0 hours 0 minutes 32 seconds 778 msec
