                         Program Version 4.2.1 -  RELEASE  -
|  1> ! wB97X-D3 SP def2-SVP
|  2> %pal
|  3> nprocs 16
|  4> end
|  5>
|  6> * xyz 0 1
|  7> S 	 -5.17645 	 -9.40424 	 82.263
|  8> C 	 -5.86076 	 -10.1789 	 80.7814
|  9> C 	 -6.48099 	 -9.24682 	 79.9393
| 10> C 	 -6.40496 	 -7.89229 	 80.476
| 11> C 	 -5.78966 	 -7.82098 	 81.6985
| 12> H 	 -6.84057 	 -6.94002 	 80.0359
| 13> C 	 -7.11265 	 -9.61985 	 78.591
| 14> H 	 -7.216 	 -10.7065 	 78.5289
| 15> H 	 -6.33848 	 -9.41981 	 77.769
| 16> C 	 -8.36708 	 -8.82685 	 78.1997
| 17> H 	 -9.21666 	 -9.23039 	 78.8554
| 18> H 	 -8.30252 	 -7.79957 	 78.4819
| 19> C 	 -8.87551 	 -8.96901 	 76.7447
| 20> H 	 -8.02828 	 -8.78934 	 76.0655
| 21> H 	 -9.31043 	 -9.93738 	 76.5591
| 22> H 	 -9.65902 	 -8.29222 	 76.3981
| 23> S 	 -5.6657 	 -7.1022 	 84.2696
| 24> C 	 -5.05699 	 -5.51833 	 84.6527
| 25> C 	 -5.26051 	 -4.62181 	 83.6657
| 26> C 	 -5.58304 	 -5.32473 	 82.4493
| 27> C 	 -5.67868 	 -6.66793 	 82.5926
| 28> H 	 -5.01957 	 -3.56285 	 83.8371
| 29> C 	 -5.65599 	 -4.65643 	 81.0745
| 30> H 	 -5.35337 	 -5.24711 	 80.246
| 31> H 	 -4.99309 	 -3.82204 	 81.0714
| 32> C 	 -7.04359 	 -4.13435 	 80.6794
| 33> H 	 -7.33676 	 -3.545 	 81.5135
| 34> H 	 -7.70607 	 -4.99132 	 80.5963
| 35> C 	 -7.02765 	 -3.37535 	 79.3694
| 36> H 	 -6.42603 	 -2.47885 	 79.4775
| 37> H 	 -8.06655 	 -3.11306 	 78.9955
| 38> H 	 -6.48167 	 -4.0483 	 78.6676
| 39> H 	 -5.83166 	 -11.1853 	 80.5144
| 40> H 	 -4.90908 	 -5.12521 	 85.6703
| 41> *
| 42>
| 43>                          ****END OF INPUT****

CARTESIAN COORDINATES (ANGSTROEM)
---------------------------------
  S     -5.176450   -9.404240   82.263000
  C     -5.860760  -10.178900   80.781400
  C     -6.480990   -9.246820   79.939300
  C     -6.404960   -7.892290   80.476000
  C     -5.789660   -7.820980   81.698500
  H     -6.840570   -6.940020   80.035900
  C     -7.112650   -9.619850   78.591000
  H     -7.216000  -10.706500   78.528900
  H     -6.338480   -9.419810   77.769000
  C     -8.367080   -8.826850   78.199700
  H     -9.216660   -9.230390   78.855400
  H     -8.302520   -7.799570   78.481900
  C     -8.875510   -8.969010   76.744700
  H     -8.028280   -8.789340   76.065500
  H     -9.310430   -9.937380   76.559100
  H     -9.659020   -8.292220   76.398100
  S     -5.665700   -7.102200   84.269600
  C     -5.056990   -5.518330   84.652700
  C     -5.260510   -4.621810   83.665700
  C     -5.583040   -5.324730   82.449300
  C     -5.678680   -6.667930   82.592600
  H     -5.019570   -3.562850   83.837100
  C     -5.655990   -4.656430   81.074500
  H     -5.353370   -5.247110   80.246000
  H     -4.993090   -3.822040   81.071400
  C     -7.043590   -4.134350   80.679400
  H     -7.336760   -3.545000   81.513500
  H     -7.706070   -4.991320   80.596300
  C     -7.027650   -3.375350   79.369400
  H     -6.426030   -2.478850   79.477500
  H     -8.066550   -3.113060   78.995500
  H     -6.481670   -4.048300   78.667600
  H     -5.831660  -11.185300   80.514400
  H     -4.909080   -5.125210   85.670300

 Total Charge           Charge          ....    0
 Multiplicity           Mult            ....    1
 Number of Electrons    NEL             ....  134
 Basis Dimension        Dim             ....  322

ORBITAL ENERGIES
----------------

  NO   OCC          E(Eh)            E(eV)
   0   2.0000     -88.970322     -2421.0055
   1   2.0000     -88.962639     -2420.7965
   2   2.0000     -10.335370      -281.2397
   3   2.0000     -10.323301      -280.9113
   4   2.0000     -10.316410      -280.7238
   5   2.0000     -10.312794      -280.6254
   6   2.0000     -10.311766      -280.5974
   7   2.0000     -10.304336      -280.3952
   8   2.0000     -10.303730      -280.3788
   9   2.0000     -10.303377      -280.3691
  10   2.0000     -10.296982      -280.1951
  11   2.0000     -10.294017      -280.1144
  12   2.0000     -10.286626      -279.9133
  13   2.0000     -10.284202      -279.8474
  14   2.0000     -10.281926      -279.7854
  15   2.0000     -10.280596      -279.7492
  16   2.0000      -8.083171      -219.9543
  17   2.0000      -8.078426      -219.8251
  18   2.0000      -6.042005      -164.4113
  19   2.0000      -6.038001      -164.3024
  20   2.0000      -6.036893      -164.2722
  21   2.0000      -6.033596      -164.1825
  22   2.0000      -6.033061      -164.1679
  23   2.0000      -6.028855      -164.0535
  24   2.0000      -1.013229       -27.5714
  25   2.0000      -0.978914       -26.6376
  26   2.0000      -0.916197       -24.9310
  27   2.0000      -0.907791       -24.7023
  28   2.0000      -0.872267       -23.7356
  29   2.0000      -0.853890       -23.2355
  30   2.0000      -0.840489       -22.8709
  31   2.0000      -0.820829       -22.3359
  32   2.0000      -0.781596       -21.2683
  33   2.0000      -0.773258       -21.0414
  34   2.0000      -0.711578       -19.3630
  35   2.0000      -0.697735       -18.9863
  36   2.0000      -0.692924       -18.8554
  37   2.0000      -0.664973       -18.0948
  38   2.0000      -0.640610       -17.4319
  39   2.0000      -0.619027       -16.8446
  40   2.0000      -0.600080       -16.3290
  41   2.0000      -0.574228       -15.6255
  42   2.0000      -0.565861       -15.3979
  43   2.0000      -0.559770       -15.2321
  44   2.0000      -0.528265       -14.3748
  45   2.0000      -0.520105       -14.1528
  46   2.0000      -0.514733       -14.0066
  47   2.0000      -0.508166       -13.8279
  48   2.0000      -0.503121       -13.6906
  49   2.0000      -0.500572       -13.6212
  50   2.0000      -0.498337       -13.5604
  51   2.0000      -0.481452       -13.1010
  52   2.0000      -0.470616       -12.8061
  53   2.0000      -0.466014       -12.6809
  54   2.0000      -0.462352       -12.5812
  55   2.0000      -0.453611       -12.3434
  56   2.0000      -0.448868       -12.2143
  57   2.0000      -0.435416       -11.8483
  58   2.0000      -0.431725       -11.7478
  59   2.0000      -0.428513       -11.6604
  60   2.0000      -0.425880       -11.5888
  61   2.0000      -0.415531       -11.3072
  62   2.0000      -0.412723       -11.2308
  63   2.0000      -0.358457        -9.7541
  64   2.0000      -0.331440        -9.0190
  65   2.0000      -0.330358        -8.9895
  66   2.0000      -0.289296        -7.8721
  67   0.0000       0.021974         0.5979
  68   0.0000       0.075520         2.0550
  69   0.0000       0.095292         2.5930
  70   0.0000       0.113787         3.0963
  71   0.0000       0.124528         3.3886

MULLIKEN ATOMIC CHARGES
-----------------------
   0 S :    0.104805
   1 C :   -0.092895
   2 C :   -0.073619
   3 C :   -0.022056
   4 C :   -0.096822
   5 H :    0.028807
   6 C :    0.057857
   7 H :    0.021663
   8 H :    0.044783
   9 C :   -0.100405
  10 H :    0.039399
  11 H :    0.029581
  12 C :   -0.047531
  13 H :    0.028575
  14 H :    0.030196
  15 H :    0.035427
  16 S :    0.093469
  17 C :   -0.084536
  18 C :   -0.040815
  19 C :   -0.047246
  20 C :   -0.124527
  21 H :    0.034045
  22 C :    0.042891
  23 H :    0.010753
  24 H :    0.001754
  25 C :   -0.063774
  26 H :    0.015403
  27 H :    0.024449
  28 C :   -0.039505
  29 H :    0.030656
  30 H :    0.054317
  31 H :    0.025779
  32 H :    0.021025
  33 H :    0.058096
Sum of atomic charges:   -0.0000000

LOEWDIN ATOMIC CHARGES
----------------------
   0 S :    0.367917
   1 C :   -0.175452
   2 C :   -0.052033
   3 C :   -0.075006
   4 C :   -0.171315
   5 H :    0.040966
   6 C :   -0.036775
   7 H :    0.029643
   8 H :    0.039449
   9 C :   -0.047824
  10 H :    0.034093
  11 H :    0.018146
  12 C :   -0.068786
  13 H :    0.024553
  14 H :    0.023784
  15 H :    0.030033
  16 S :    0.403943
  17 C :   -0.186238
  18 C :   -0.069803
  19 C :   -0.056815
  20 C :   -0.190150
  21 H :    0.040395
  22 C :   -0.028272
  23 H :    0.019585
  24 H :    0.022019
  25 C :   -0.039732
  26 H :    0.017128
  27 H :    0.017469
  28 C :   -0.066093
  29 H :    0.023722
  30 H :    0.035892
  31 H :    0.027162
  32 H :    0.015954
  33 H :    0.032439

  Mayer bond orders larger than 0.100000
B(  0-S ,  1-C ) :   1.1028 B(  0-S ,  4-C ) :   1.1208 B(  1-C ,  2-C ) :   1.6511
B(  1-C , 32-H ) :   0.9724 B(  2-C ,  3-C ) :   1.1935 B(  2-C ,  6-C ) :   1.0276
B(  3-C ,  4-C ) :   1.6231 B(  3-C ,  5-H ) :   0.9688 B(  4-C , 20-C ) :   1.0523
B(  6-C ,  7-H ) :   0.9425 B(  6-C ,  8-H ) :   0.9347 B(  6-C ,  9-C ) :   1.0487
B(  9-C , 10-H ) :   0.9546 B(  9-C , 11-H ) :   0.9592 B(  9-C , 12-C ) :   1.0794
B( 12-C , 13-H ) :   0.9750 B( 12-C , 14-H ) :   0.9769 B( 12-C , 15-H ) :   0.9752
B( 16-S , 17-C ) :   1.1379 B( 16-S , 20-C ) :   1.1225 B( 17-C , 18-C ) :   1.6590
B( 17-C , 33-H ) :   0.9579 B( 18-C , 19-C ) :   1.2020 B( 18-C , 21-H ) :   0.9888
B( 19-C , 20-C ) :   1.6453 B( 19-C , 22-C ) :   1.0435 B( 22-C , 23-H ) :   0.9371
B( 22-C , 24-H ) :   0.9314 B( 22-C , 25-C ) :   1.0614 B( 25-C , 26-H ) :   0.9500
B( 25-C , 27-H ) :   0.9503 B( 25-C , 28-C ) :   1.0821 B( 28-C , 29-H ) :   0.9731
B( 28-C , 30-H ) :   0.9724 B( 28-C , 31-H ) :   0.9698

Dispersion correction           -0.013854990
FINAL SINGLE POINT ENERGY     -1339.871729371716

DIPOLE MOMENT
-------------
                                X             Y             Z
Electronic contribution:     13.82960     -10.89557      28.40655
Nuclear contribution   :    -14.09457      11.30711     -28.92041
                        -----------------------------------------
Total Dipole Moment    :     -0.26498       0.41153      -0.51386
                        -----------------------------------------
Magnitude (a.u.)       :      0.70966
Magnitude (Debye)      :      1.80382

Rotational constants in cm-1:     0.016905     0.009608     0.006421
Rotational constants in MHz :   506.804937   288.036364   192.490105

                             ****ORCA TERMINATED NORMALLY****
TOTAL RUN TIME: 0 days 0 hours 0 minutes 32 seconds 423 msec
