                         Program Version 4.2.1 -  RELEASE  -
|  1> ! wB97X-D3 SP def2-SVP
|  2> %pal
|  3> nprocs 16
|  4> end
|  5>
|  6> * xyz 0 1
|  7> S 	 8.96241 	 -11.1635 	 95.2393
|  8> C 	 9.57918 	 -9.56574 	 95.0485
|  9> C 	 8.62359 	 -8.77825 	 94.475
| 10> C 	 7.4395 	 -9.4242 	 94.1838
| 11> C 	 7.43748 	 -10.7818 	 94.4763
| 12> H 	 6.72015 	 -8.99075 	 93.4541
| 13> C 	 8.9144 	 -7.37075 	 93.9633
| 14> H 	 8.27669 	 -7.23353 	 93.1096
| 15> H 	 10.0101 	 -7.25468 	 93.6395
| 16> C 	 8.67427 	 -6.11713 	 94.9062
| 17> H 	 9.08208 	 -5.23726 	 94.4514
| 18> H 	 7.61683 	 -5.85816 	 95.07
| 19> C 	 9.40082 	 -6.4389 	 96.2216
| 20> H 	 8.79091 	 -7.19468 	 96.6991
| 21> H 	 10.4506 	 -6.5753 	 96.1537
| 22> H 	 9.20141 	 -5.51915 	 96.8287
| 23> S 	 6.95372 	 -13.4139 	 94.0208
| 24> C 	 5.29067 	 -13.9581 	 93.9424
| 25> C 	 4.39247 	 -12.9148 	 94.0833
| 26> C 	 4.97999 	 -11.6482 	 94.4027
| 27> C 	 6.41754 	 -11.764 	 94.3872
| 28> H 	 3.29497 	 -13.129 	 94.0771
| 29> C 	 4.12042 	 -10.4151 	 94.6227
| 30> H 	 3.2556 	 -10.3605 	 93.9832
| 31> H 	 4.63159 	 -9.42217 	 94.4181
| 32> C 	 3.42422 	 -10.3309 	 95.9482
| 33> H 	 2.62178 	 -11.1166 	 95.9904
| 34> H 	 2.8341 	 -9.4249 	 95.905
| 35> C 	 4.30665 	 -10.4552 	 97.2316
| 36> H 	 4.6188 	 -11.4897 	 97.3492
| 37> H 	 3.75143 	 -10.2873 	 98.1611
| 38> H 	 5.12355 	 -9.69831 	 97.1903
| 39> H 	 10.5127 	 -9.23787 	 95.4233
| 40> H 	 5.0074 	 -14.9602 	 93.93
| 41> *
| 42>
| 43>                          ****END OF INPUT****

CARTESIAN COORDINATES (ANGSTROEM)
---------------------------------
  S      8.962410  -11.163500   95.239300
  C      9.579180   -9.565740   95.048500
  C      8.623590   -8.778250   94.475000
  C      7.439500   -9.424200   94.183800
  C      7.437480  -10.781800   94.476300
  H      6.720150   -8.990750   93.454100
  C      8.914400   -7.370750   93.963300
  H      8.276690   -7.233530   93.109600
  H     10.010100   -7.254680   93.639500
  C      8.674270   -6.117130   94.906200
  H      9.082080   -5.237260   94.451400
  H      7.616830   -5.858160   95.070000
  C      9.400820   -6.438900   96.221600
  H      8.790910   -7.194680   96.699100
  H     10.450600   -6.575300   96.153700
  H      9.201410   -5.519150   96.828700
  S      6.953720  -13.413900   94.020800
  C      5.290670  -13.958100   93.942400
  C      4.392470  -12.914800   94.083300
  C      4.979990  -11.648200   94.402700
  C      6.417540  -11.764000   94.387200
  H      3.294970  -13.129000   94.077100
  C      4.120420  -10.415100   94.622700
  H      3.255600  -10.360500   93.983200
  H      4.631590   -9.422170   94.418100
  C      3.424220  -10.330900   95.948200
  H      2.621780  -11.116600   95.990400
  H      2.834100   -9.424900   95.905000
  C      4.306650  -10.455200   97.231600
  H      4.618800  -11.489700   97.349200
  H      3.751430  -10.287300   98.161100
  H      5.123550   -9.698310   97.190300
  H     10.512700   -9.237870   95.423300
  H      5.007400  -14.960200   93.930000

 Total Charge           Charge          ....    0
 Multiplicity           Mult            ....    1
 Number of Electrons    NEL             ....  134
 Basis Dimension        Dim             ....  322

ORBITAL ENERGIES
----------------

  NO   OCC          E(Eh)            E(eV)
   0   2.0000     -88.969388     -2420.9801
   1   2.0000     -88.964692     -2420.8523
   2   2.0000     -10.333734      -281.1952
   3   2.0000     -10.328113      -281.0422
   4   2.0000     -10.314989      -280.6851
   5   2.0000     -10.313631      -280.6482
   6   2.0000     -10.307483      -280.4809
   7   2.0000     -10.299962      -280.2762
   8   2.0000     -10.294972      -280.1404
   9   2.0000     -10.294602      -280.1304
  10   2.0000     -10.293443      -280.0988
  11   2.0000     -10.291127      -280.0358
  12   2.0000     -10.286794      -279.9179
  13   2.0000     -10.286496      -279.9098
  14   2.0000     -10.275778      -279.6181
  15   2.0000     -10.273847      -279.5656
  16   2.0000      -8.083652      -219.9674
  17   2.0000      -8.080131      -219.8715
  18   2.0000      -6.042154      -164.4154
  19   2.0000      -6.038516      -164.3164
  20   2.0000      -6.038253      -164.3092
  21   2.0000      -6.034425      -164.2050
  22   2.0000      -6.034366      -164.2034
  23   2.0000      -6.031155      -164.1161
  24   2.0000      -1.011913       -27.5356
  25   2.0000      -0.984185       -26.7810
  26   2.0000      -0.911665       -24.8077
  27   2.0000      -0.906688       -24.6722
  28   2.0000      -0.872486       -23.7416
  29   2.0000      -0.852007       -23.1843
  30   2.0000      -0.842072       -22.9139
  31   2.0000      -0.809982       -22.0407
  32   2.0000      -0.785050       -21.3623
  33   2.0000      -0.772777       -21.0283
  34   2.0000      -0.714254       -19.4358
  35   2.0000      -0.696139       -18.9429
  36   2.0000      -0.688992       -18.7484
  37   2.0000      -0.656411       -17.8618
  38   2.0000      -0.638633       -17.3781
  39   2.0000      -0.622544       -16.9403
  40   2.0000      -0.600251       -16.3337
  41   2.0000      -0.566046       -15.4029
  42   2.0000      -0.551164       -14.9979
  43   2.0000      -0.548051       -14.9132
  44   2.0000      -0.541839       -14.7442
  45   2.0000      -0.536960       -14.6114
  46   2.0000      -0.523186       -14.2366
  47   2.0000      -0.511050       -13.9064
  48   2.0000      -0.504712       -13.7339
  49   2.0000      -0.499329       -13.5874
  50   2.0000      -0.484869       -13.1940
  51   2.0000      -0.482760       -13.1366
  52   2.0000      -0.469931       -12.7875
  53   2.0000      -0.465078       -12.6554
  54   2.0000      -0.458140       -12.4666
  55   2.0000      -0.448725       -12.2104
  56   2.0000      -0.442268       -12.0347
  57   2.0000      -0.436124       -11.8676
  58   2.0000      -0.429266       -11.6809
  59   2.0000      -0.421165       -11.4605
  60   2.0000      -0.416216       -11.3258
  61   2.0000      -0.409638       -11.1468
  62   2.0000      -0.406460       -11.0603
  63   2.0000      -0.356682        -9.7058
  64   2.0000      -0.335229        -9.1220
  65   2.0000      -0.331854        -9.0302
  66   2.0000      -0.279564        -7.6073
  67   0.0000       0.014468         0.3937
  68   0.0000       0.078269         2.1298
  69   0.0000       0.101788         2.7698
  70   0.0000       0.119048         3.2395
  71   0.0000       0.128288         3.4909

MULLIKEN ATOMIC CHARGES
-----------------------
   0 S :    0.103033
   1 C :   -0.102398
   2 C :   -0.073383
   3 C :   -0.009218
   4 C :   -0.131461
   5 H :    0.040016
   6 C :    0.021786
   7 H :    0.016267
   8 H :    0.043978
   9 C :   -0.070152
  10 H :    0.022826
  11 H :    0.028468
  12 C :   -0.060176
  13 H :    0.051055
  14 H :    0.035501
  15 H :    0.027770
  16 S :    0.105488
  17 C :   -0.066161
  18 C :   -0.054309
  19 C :   -0.019370
  20 C :   -0.141928
  21 H :    0.036692
  22 C :    0.068381
  23 H :    0.020331
  24 H :    0.030388
  25 C :   -0.110648
  26 H :    0.021240
  27 H :    0.023030
  28 C :   -0.041759
  29 H :    0.042555
  30 H :    0.027867
  31 H :    0.042626
  32 H :    0.033192
  33 H :    0.038475
Sum of atomic charges:   -0.0000000

LOEWDIN ATOMIC CHARGES
----------------------
   0 S :    0.422138
   1 C :   -0.193563
   2 C :   -0.075178
   3 C :   -0.077271
   4 C :   -0.193110
   5 H :    0.039334
   6 C :   -0.032030
   7 H :    0.022109
   8 H :    0.038883
   9 C :   -0.037713
  10 H :    0.017500
  11 H :    0.022834
  12 C :   -0.066573
  13 H :    0.029401
  14 H :    0.018377
  15 H :    0.029815
  16 S :    0.401345
  17 C :   -0.178800
  18 C :   -0.069769
  19 C :   -0.048944
  20 C :   -0.190120
  21 H :    0.039189
  22 C :   -0.040378
  23 H :    0.035196
  24 H :    0.035207
  25 C :   -0.044987
  26 H :    0.021432
  27 H :    0.021553
  28 C :   -0.069727
  29 H :    0.028813
  30 H :    0.026028
  31 H :    0.030061
  32 H :    0.021407
  33 H :    0.017543

  Mayer bond orders larger than 0.100000
B(  0-S ,  1-C ) :   1.1507 B(  0-S ,  4-C ) :   1.1672 B(  1-C ,  2-C ) :   1.5640
B(  1-C ,  4-C ) :   0.1097 B(  1-C , 32-H ) :   0.9789 B(  2-C ,  3-C ) :   1.3122
B(  2-C ,  6-C ) :   1.0079 B(  3-C ,  4-C ) :   1.5361 B(  3-C ,  5-H ) :   0.9715
B(  4-C , 20-C ) :   1.0920 B(  6-C ,  7-H ) :   0.9447 B(  6-C ,  8-H ) :   0.9550
B(  6-C ,  9-C ) :   1.0654 B(  9-C , 10-H ) :   0.9592 B(  9-C , 11-H ) :   0.9570
B(  9-C , 12-C ) :   1.0813 B( 12-C , 13-H ) :   0.9704 B( 12-C , 14-H ) :   0.9771
B( 12-C , 15-H ) :   0.9723 B( 16-S , 17-C ) :   1.1453 B( 16-S , 20-C ) :   1.1465
B( 17-C , 18-C ) :   1.6047 B( 17-C , 20-C ) :   0.1075 B( 17-C , 33-H ) :   0.9752
B( 18-C , 19-C ) :   1.2564 B( 18-C , 21-H ) :   0.9782 B( 19-C , 20-C ) :   1.5365
B( 19-C , 22-C ) :   1.0398 B( 22-C , 23-H ) :   0.9303 B( 22-C , 24-H ) :   0.9378
B( 22-C , 25-C ) :   1.0784 B( 25-C , 26-H ) :   0.9564 B( 25-C , 27-H ) :   0.9548
B( 25-C , 28-C ) :   1.0696 B( 28-C , 29-H ) :   0.9717 B( 28-C , 30-H ) :   0.9741
B( 28-C , 31-H ) :   0.9774

Dispersion correction           -0.014711759
FINAL SINGLE POINT ENERGY     -1339.871534600265

DIPOLE MOMENT
-------------
                                X             Y             Z
Electronic contribution:      8.60391     -24.29756      -8.41336
Nuclear contribution   :     -9.02675      24.77113       8.39446
                        -----------------------------------------
Total Dipole Moment    :     -0.42284       0.47357      -0.01890
                        -----------------------------------------
Magnitude (a.u.)       :      0.63516
Magnitude (Debye)      :      1.61444

Rotational constants in cm-1:     0.020894     0.008818     0.007039
Rotational constants in MHz :   626.393560   264.351757   211.031500

                             ****ORCA TERMINATED NORMALLY****
TOTAL RUN TIME: 0 days 0 hours 0 minutes 34 seconds 738 msec
