                         Program Version 4.2.1 -  RELEASE  -
|  1> ! wB97X-D3 SP def2-SVP
|  2> %pal
|  3> nprocs 16
|  4> end
|  5>
|  6> * xyz 0 1
|  7> S 	 44.1683 	 11.5807 	 87.4882
|  8> C 	 44.9503 	 13.0649 	 87.0579
|  9> C 	 44.1629 	 13.9412 	 86.3027
| 10> C 	 42.9561 	 13.2542 	 85.9217
| 11> C 	 42.8019 	 11.9816 	 86.4925
| 12> H 	 42.1573 	 13.6642 	 85.2656
| 13> C 	 44.545 	 15.3039 	 85.8039
| 14> H 	 44.292 	 15.2868 	 84.7314
| 15> H 	 45.6457 	 15.348 	 85.7074
| 16> C 	 43.8918 	 16.4989 	 86.4722
| 17> H 	 44.0873 	 17.349 	 85.845
| 18> H 	 42.8356 	 16.3583 	 86.3464
| 19> C 	 44.4471 	 16.8162 	 87.8688
| 20> H 	 45.5066 	 16.607 	 87.9698
| 21> H 	 44.2784 	 17.8564 	 88.0006
| 22> H 	 43.773 	 16.3395 	 88.5536
| 23> S 	 42.3085 	 9.40407 	 85.9967
| 24> C 	 40.7307 	 8.82686 	 85.5902
| 25> C 	 39.8164 	 9.83728 	 85.618
| 26> C 	 40.3842 	 11.0811 	 85.8957
| 27> C 	 41.7208 	 11.0314 	 86.1827
| 28> H 	 38.82 	 9.62494 	 85.3364
| 29> C 	 39.5609 	 12.3902 	 86.0443
| 30> H 	 38.7291 	 12.3216 	 85.4273
| 31> H 	 40.1006 	 13.2775 	 85.7606
| 32> C 	 39.0027 	 12.6891 	 87.4122
| 33> H 	 38.3775 	 11.8944 	 87.8032
| 34> H 	 38.4849 	 13.5722 	 87.0935
| 35> C 	 40.0828 	 13.16 	 88.3434
| 36> H 	 40.7539 	 12.3277 	 88.7216
| 37> H 	 39.557 	 13.4352 	 89.1969
| 38> H 	 40.6621 	 13.9807 	 87.9221
| 39> H 	 45.9231 	 13.3277 	 87.5363
| 40> H 	 40.4296 	 7.85767 	 85.2266
| 41> *
| 42>
| 43>                          ****END OF INPUT****

CARTESIAN COORDINATES (ANGSTROEM)
---------------------------------
  S     44.168300   11.580700   87.488200
  C     44.950300   13.064900   87.057900
  C     44.162900   13.941200   86.302700
  C     42.956100   13.254200   85.921700
  C     42.801900   11.981600   86.492500
  H     42.157300   13.664200   85.265600
  C     44.545000   15.303900   85.803900
  H     44.292000   15.286800   84.731400
  H     45.645700   15.348000   85.707400
  C     43.891800   16.498900   86.472200
  H     44.087300   17.349000   85.845000
  H     42.835600   16.358300   86.346400
  C     44.447100   16.816200   87.868800
  H     45.506600   16.607000   87.969800
  H     44.278400   17.856400   88.000600
  H     43.773000   16.339500   88.553600
  S     42.308500    9.404070   85.996700
  C     40.730700    8.826860   85.590200
  C     39.816400    9.837280   85.618000
  C     40.384200   11.081100   85.895700
  C     41.720800   11.031400   86.182700
  H     38.820000    9.624940   85.336400
  C     39.560900   12.390200   86.044300
  H     38.729100   12.321600   85.427300
  H     40.100600   13.277500   85.760600
  C     39.002700   12.689100   87.412200
  H     38.377500   11.894400   87.803200
  H     38.484900   13.572200   87.093500
  C     40.082800   13.160000   88.343400
  H     40.753900   12.327700   88.721600
  H     39.557000   13.435200   89.196900
  H     40.662100   13.980700   87.922100
  H     45.923100   13.327700   87.536300
  H     40.429600    7.857670   85.226600

 Total Charge           Charge          ....    0
 Multiplicity           Mult            ....    1
 Number of Electrons    NEL             ....  134
 Basis Dimension        Dim             ....  322

ORBITAL ENERGIES
----------------

  NO   OCC          E(Eh)            E(eV)
   0   2.0000     -88.969302     -2420.9778
   1   2.0000     -88.961370     -2420.7620
   2   2.0000     -10.330547      -281.1085
   3   2.0000     -10.322431      -280.8876
   4   2.0000     -10.315233      -280.6918
   5   2.0000     -10.309797      -280.5438
   6   2.0000     -10.303264      -280.3661
   7   2.0000     -10.296497      -280.1819
   8   2.0000     -10.296438      -280.1803
   9   2.0000     -10.291821      -280.0547
  10   2.0000     -10.284671      -279.8601
  11   2.0000     -10.283355      -279.8243
  12   2.0000     -10.279932      -279.7312
  13   2.0000     -10.275736      -279.6170
  14   2.0000     -10.273551      -279.5575
  15   2.0000     -10.265444      -279.3369
  16   2.0000      -8.084212      -219.9826
  17   2.0000      -8.076845      -219.7821
  18   2.0000      -6.042675      -164.4296
  19   2.0000      -6.038655      -164.3202
  20   2.0000      -6.035283      -164.2284
  21   2.0000      -6.035063      -164.2224
  22   2.0000      -6.031165      -164.1163
  23   2.0000      -6.027709      -164.0223
  24   2.0000      -1.010846       -27.5065
  25   2.0000      -0.986726       -26.8502
  26   2.0000      -0.917955       -24.9788
  27   2.0000      -0.915573       -24.9140
  28   2.0000      -0.870168       -23.6785
  29   2.0000      -0.851695       -23.1758
  30   2.0000      -0.846687       -23.0395
  31   2.0000      -0.812177       -22.1005
  32   2.0000      -0.786928       -21.4134
  33   2.0000      -0.778698       -21.1895
  34   2.0000      -0.709555       -19.3080
  35   2.0000      -0.694399       -18.8955
  36   2.0000      -0.686417       -18.6784
  37   2.0000      -0.662537       -18.0285
  38   2.0000      -0.635730       -17.2991
  39   2.0000      -0.621296       -16.9063
  40   2.0000      -0.602950       -16.4071
  41   2.0000      -0.571563       -15.5530
  42   2.0000      -0.558095       -15.1865
  43   2.0000      -0.549923       -14.9642
  44   2.0000      -0.545426       -14.8418
  45   2.0000      -0.540086       -14.6965
  46   2.0000      -0.521122       -14.1804
  47   2.0000      -0.508334       -13.8325
  48   2.0000      -0.503384       -13.6978
  49   2.0000      -0.494498       -13.4560
  50   2.0000      -0.489342       -13.3157
  51   2.0000      -0.480283       -13.0692
  52   2.0000      -0.473047       -12.8723
  53   2.0000      -0.465504       -12.6670
  54   2.0000      -0.463578       -12.6146
  55   2.0000      -0.449522       -12.2321
  56   2.0000      -0.443213       -12.0604
  57   2.0000      -0.439399       -11.9567
  58   2.0000      -0.433480       -11.7956
  59   2.0000      -0.423686       -11.5291
  60   2.0000      -0.420502       -11.4424
  61   2.0000      -0.413136       -11.2420
  62   2.0000      -0.400555       -10.8997
  63   2.0000      -0.353163        -9.6101
  64   2.0000      -0.332300        -9.0423
  65   2.0000      -0.330028        -8.9805
  66   2.0000      -0.284093        -7.7306
  67   0.0000       0.029920         0.8142
  68   0.0000       0.078298         2.1306
  69   0.0000       0.111392         3.0311
  70   0.0000       0.116478         3.1695
  71   0.0000       0.130041         3.5386

MULLIKEN ATOMIC CHARGES
-----------------------
   0 S :    0.123522
   1 C :   -0.148086
   2 C :   -0.071024
   3 C :   -0.007193
   4 C :   -0.131270
   5 H :    0.026332
   6 C :    0.025080
   7 H :    0.025297
   8 H :    0.022798
   9 C :   -0.052398
  10 H :    0.017624
  11 H :    0.018013
  12 C :    0.000969
  13 H :    0.037705
  14 H :    0.019945
  15 H :    0.037347
  16 S :    0.096699
  17 C :   -0.073896
  18 C :   -0.037014
  19 C :   -0.037263
  20 C :   -0.143380
  21 H :   -0.000757
  22 C :    0.097107
  23 H :   -0.009244
  24 H :   -0.004983
  25 C :   -0.051185
  26 H :    0.030971
  27 H :    0.018958
  28 C :   -0.027244
  29 H :    0.046533
  30 H :    0.012242
  31 H :    0.029427
  32 H :    0.062210
  33 H :    0.046156
Sum of atomic charges:   -0.0000000

LOEWDIN ATOMIC CHARGES
----------------------
   0 S :    0.419553
   1 C :   -0.211075
   2 C :   -0.063546
   3 C :   -0.069661
   4 C :   -0.200606
   5 H :    0.032571
   6 C :   -0.040291
   7 H :    0.035816
   8 H :    0.030978
   9 C :   -0.038324
  10 H :    0.021581
  11 H :    0.022347
  12 C :   -0.055709
  13 H :    0.028237
  14 H :    0.024100
  15 H :    0.029341
  16 S :    0.416076
  17 C :   -0.189912
  18 C :   -0.069896
  19 C :   -0.063163
  20 C :   -0.193631
  21 H :    0.026389
  22 C :   -0.022614
  23 H :    0.016802
  24 H :    0.022003
  25 C :   -0.031908
  26 H :    0.024019
  27 H :    0.026599
  28 C :   -0.062971
  29 H :    0.034117
  30 H :    0.015766
  31 H :    0.024969
  32 H :    0.032169
  33 H :    0.029875

  Mayer bond orders larger than 0.100000
B(  0-S ,  1-C ) :   1.1463 B(  0-S ,  4-C ) :   1.1596 B(  1-C ,  2-C ) :   1.5923
B(  1-C , 32-H ) :   0.9605 B(  2-C ,  3-C ) :   1.2532 B(  2-C ,  6-C ) :   1.0185
B(  3-C ,  4-C ) :   1.5640 B(  3-C ,  5-H ) :   0.9802 B(  4-C , 20-C ) :   1.0323
B(  6-C ,  7-H ) :   0.9362 B(  6-C ,  8-H ) :   0.9445 B(  6-C ,  9-C ) :   1.0808
B(  9-C , 10-H ) :   0.9545 B(  9-C , 11-H ) :   0.9540 B(  9-C , 12-C ) :   1.0623
B( 12-C , 13-H ) :   0.9766 B( 12-C , 14-H ) :   0.9742 B( 12-C , 15-H ) :   0.9762
B( 16-S , 17-C ) :   1.1598 B( 16-S , 20-C ) :   1.1448 B( 17-C , 18-C ) :   1.6053
B( 17-C , 33-H ) :   0.9662 B( 18-C , 19-C ) :   1.2552 B( 18-C , 21-H ) :   0.9983
B( 19-C , 20-C ) :   1.5990 B( 19-C , 22-C ) :   1.0349 B( 22-C , 23-H ) :   0.9229
B( 22-C , 24-H ) :   0.9384 B( 22-C , 25-C ) :   1.0796 B( 25-C , 26-H ) :   0.9519
B( 25-C , 27-H ) :   0.9510 B( 25-C , 28-C ) :   1.0984 B( 28-C , 29-H ) :   0.9679
B( 28-C , 30-H ) :   0.9686 B( 28-C , 31-H ) :   0.9697

Dispersion correction           -0.015480867
FINAL SINGLE POINT ENERGY     -1339.871370655082

DIPOLE MOMENT
-------------
                                X             Y             Z
Electronic contribution:      7.28593     -26.34566      -3.84769
Nuclear contribution   :     -7.63941      26.96492       3.67510
                        -----------------------------------------
Total Dipole Moment    :     -0.35348       0.61926      -0.17259
                        -----------------------------------------
Magnitude (a.u.)       :      0.73364
Magnitude (Debye)      :      1.86475

Rotational constants in cm-1:     0.022045     0.009055     0.007295
Rotational constants in MHz :   660.905459   271.464809   218.697778

                             ****ORCA TERMINATED NORMALLY****
TOTAL RUN TIME: 0 days 0 hours 0 minutes 32 seconds 499 msec
