                         Program Version 4.2.1 -  RELEASE  -
|  1> ! wB97X-D3 SP def2-SVP
|  2> %pal
|  3> nprocs 16
|  4> end
|  5>
|  6> * xyz 0 1
|  7> S 	 49.1141 	 12.6476 	 86.4547
|  8> C 	 48.0401 	 13.2383 	 85.1741
|  9> C 	 47.9647 	 12.353 	 84.155
| 10> C 	 48.6264 	 11.1244 	 84.5288
| 11> C 	 49.3182 	 11.0985 	 85.7081
| 12> H 	 48.8183 	 10.3067 	 83.8257
| 13> C 	 47.0925 	 12.3673 	 82.851
| 14> H 	 47.8228 	 12.06 	 82.0803
| 15> H 	 46.83 	 13.4439 	 82.6415
| 16> C 	 45.867 	 11.3983 	 82.8967
| 17> H 	 46.2452 	 10.3896 	 82.7953
| 18> H 	 45.5056 	 11.4237 	 83.9409
| 19> C 	 44.7535 	 11.6908 	 81.8632
| 20> H 	 44.2659 	 12.6315 	 82.2215
| 21> H 	 45.2326 	 11.9319 	 80.9204
| 22> H 	 43.9122 	 11.0547 	 81.6962
| 23> S 	 52.0655 	 10.9338 	 86.0749
| 24> C 	 52.6969 	 9.34733 	 86.6299
| 25> C 	 51.7417 	 8.38152 	 86.7584
| 26> C 	 50.4284 	 8.88678 	 86.5156
| 27> C 	 50.3889 	 10.2337 	 86.1363
| 28> H 	 52.0438 	 7.4139 	 87.1043
| 29> C 	 49.1932 	 8.03205 	 86.7757
| 30> H 	 48.3608 	 8.73579 	 86.8621
| 31> H 	 49.1635 	 7.7206 	 87.8398
| 32> C 	 48.8776 	 6.95691 	 85.7632
| 33> H 	 48.0895 	 6.31817 	 86.234
| 34> H 	 49.7488 	 6.38388 	 85.5146
| 35> C 	 48.4413 	 7.54695 	 84.4747
| 36> H 	 47.5657 	 8.08048 	 84.6962
| 37> H 	 48.1284 	 6.71739 	 83.824
| 38> H 	 49.2568 	 8.19191 	 84.0216
| 39> H 	 47.3605 	 14.0824 	 85.354
| 40> H 	 53.7503 	 9.16134 	 86.6033
| 41> *
| 42>
| 43>                          ****END OF INPUT****

CARTESIAN COORDINATES (ANGSTROEM)
---------------------------------
  S     49.114100   12.647600   86.454700
  C     48.040100   13.238300   85.174100
  C     47.964700   12.353000   84.155000
  C     48.626400   11.124400   84.528800
  C     49.318200   11.098500   85.708100
  H     48.818300   10.306700   83.825700
  C     47.092500   12.367300   82.851000
  H     47.822800   12.060000   82.080300
  H     46.830000   13.443900   82.641500
  C     45.867000   11.398300   82.896700
  H     46.245200   10.389600   82.795300
  H     45.505600   11.423700   83.940900
  C     44.753500   11.690800   81.863200
  H     44.265900   12.631500   82.221500
  H     45.232600   11.931900   80.920400
  H     43.912200   11.054700   81.696200
  S     52.065500   10.933800   86.074900
  C     52.696900    9.347330   86.629900
  C     51.741700    8.381520   86.758400
  C     50.428400    8.886780   86.515600
  C     50.388900   10.233700   86.136300
  H     52.043800    7.413900   87.104300
  C     49.193200    8.032050   86.775700
  H     48.360800    8.735790   86.862100
  H     49.163500    7.720600   87.839800
  C     48.877600    6.956910   85.763200
  H     48.089500    6.318170   86.234000
  H     49.748800    6.383880   85.514600
  C     48.441300    7.546950   84.474700
  H     47.565700    8.080480   84.696200
  H     48.128400    6.717390   83.824000
  H     49.256800    8.191910   84.021600
  H     47.360500   14.082400   85.354000
  H     53.750300    9.161340   86.603300

 Total Charge           Charge          ....    0
 Multiplicity           Mult            ....    1
 Number of Electrons    NEL             ....  134
 Basis Dimension        Dim             ....  322

ORBITAL ENERGIES
----------------

  NO   OCC          E(Eh)            E(eV)
   0   2.0000     -88.964918     -2420.8585
   1   2.0000     -88.960094     -2420.7272
   2   2.0000     -10.333047      -281.1765
   3   2.0000     -10.326442      -280.9968
   4   2.0000     -10.318607      -280.7836
   5   2.0000     -10.317333      -280.7489
   6   2.0000     -10.307345      -280.4771
   7   2.0000     -10.306184      -280.4455
   8   2.0000     -10.304820      -280.4084
   9   2.0000     -10.293740      -280.1069
  10   2.0000     -10.293555      -280.1019
  11   2.0000     -10.292975      -280.0861
  12   2.0000     -10.288292      -279.9587
  13   2.0000     -10.282502      -279.8011
  14   2.0000     -10.282110      -279.7904
  15   2.0000     -10.273023      -279.5432
  16   2.0000      -8.078204      -219.8191
  17   2.0000      -8.075381      -219.7423
  18   2.0000      -6.036835      -164.2706
  19   2.0000      -6.033986      -164.1931
  20   2.0000      -6.033069      -164.1682
  21   2.0000      -6.029738      -164.0775
  22   2.0000      -6.028748      -164.0506
  23   2.0000      -6.026043      -163.9770
  24   2.0000      -1.006003       -27.3747
  25   2.0000      -0.978873       -26.6365
  26   2.0000      -0.916086       -24.9280
  27   2.0000      -0.905536       -24.6409
  28   2.0000      -0.872669       -23.7465
  29   2.0000      -0.848747       -23.0956
  30   2.0000      -0.841291       -22.8927
  31   2.0000      -0.815439       -22.1892
  32   2.0000      -0.782433       -21.2911
  33   2.0000      -0.773561       -21.0497
  34   2.0000      -0.709507       -19.3067
  35   2.0000      -0.699394       -19.0315
  36   2.0000      -0.692470       -18.8431
  37   2.0000      -0.656221       -17.8567
  38   2.0000      -0.643597       -17.5132
  39   2.0000      -0.617536       -16.8040
  40   2.0000      -0.603092       -16.4110
  41   2.0000      -0.567663       -15.4469
  42   2.0000      -0.557678       -15.1752
  43   2.0000      -0.554014       -15.0755
  44   2.0000      -0.545950       -14.8561
  45   2.0000      -0.529952       -14.4207
  46   2.0000      -0.525921       -14.3110
  47   2.0000      -0.509108       -13.8535
  48   2.0000      -0.500609       -13.6223
  49   2.0000      -0.495723       -13.4893
  50   2.0000      -0.487356       -13.2616
  51   2.0000      -0.474209       -12.9039
  52   2.0000      -0.468414       -12.7462
  53   2.0000      -0.463238       -12.6053
  54   2.0000      -0.457565       -12.4510
  55   2.0000      -0.446719       -12.1558
  56   2.0000      -0.443783       -12.0759
  57   2.0000      -0.435276       -11.8445
  58   2.0000      -0.433637       -11.7999
  59   2.0000      -0.419577       -11.4173
  60   2.0000      -0.417076       -11.3492
  61   2.0000      -0.413566       -11.2537
  62   2.0000      -0.410761       -11.1774
  63   2.0000      -0.346612        -9.4318
  64   2.0000      -0.335227        -9.1220
  65   2.0000      -0.326680        -8.8894
  66   2.0000      -0.298289        -8.1169
  67   0.0000       0.033470         0.9108
  68   0.0000       0.055422         1.5081
  69   0.0000       0.111603         3.0369
  70   0.0000       0.120808         3.2873
  71   0.0000       0.125531         3.4159

MULLIKEN ATOMIC CHARGES
-----------------------
   0 S :    0.082691
   1 C :   -0.133778
   2 C :   -0.088952
   3 C :    0.026473
   4 C :   -0.155780
   5 H :    0.007775
   6 C :    0.033316
   7 H :    0.041835
   8 H :    0.033115
   9 C :   -0.069343
  10 H :    0.030946
  11 H :    0.039427
  12 C :   -0.042942
  13 H :    0.027625
  14 H :    0.031606
  15 H :    0.039618
  16 S :    0.090533
  17 C :   -0.086883
  18 C :   -0.011275
  19 C :   -0.045893
  20 C :   -0.148066
  21 H :    0.016498
  22 C :    0.045714
  23 H :    0.012063
  24 H :    0.033839
  25 C :   -0.049252
  26 H :    0.036467
  27 H :    0.021735
  28 C :   -0.052852
  29 H :    0.015939
  30 H :    0.033469
  31 H :    0.065480
  32 H :    0.063768
  33 H :    0.055083
Sum of atomic charges:    0.0000000

LOEWDIN ATOMIC CHARGES
----------------------
   0 S :    0.395582
   1 C :   -0.185185
   2 C :   -0.068931
   3 C :   -0.061903
   4 C :   -0.205323
   5 H :    0.028101
   6 C :   -0.029959
   7 H :    0.035203
   8 H :    0.031741
   9 C :   -0.042505
  10 H :    0.021699
  11 H :    0.027500
  12 C :   -0.068719
  13 H :    0.030963
  14 H :    0.025721
  15 H :    0.024881
  16 S :    0.357381
  17 C :   -0.157751
  18 C :   -0.067253
  19 C :   -0.053083
  20 C :   -0.178555
  21 H :    0.032981
  22 C :   -0.040367
  23 H :    0.029548
  24 H :    0.035916
  25 C :   -0.042381
  26 H :    0.031617
  27 H :    0.019271
  28 C :   -0.063014
  29 H :    0.015338
  30 H :    0.029077
  31 H :    0.034253
  32 H :    0.034651
  33 H :    0.023504

  Mayer bond orders larger than 0.100000
B(  0-S ,  1-C ) :   1.1343 B(  0-S ,  4-C ) :   1.1359 B(  1-C ,  2-C ) :   1.6342
B(  1-C , 32-H ) :   0.9640 B(  2-C ,  3-C ) :   1.2300 B(  2-C ,  6-C ) :   1.0174
B(  3-C ,  4-C ) :   1.6043 B(  3-C ,  5-H ) :   0.9794 B(  4-C , 20-C ) :   1.0287
B(  6-C ,  7-H ) :   0.9342 B(  6-C ,  8-H ) :   0.9533 B(  6-C ,  9-C ) :   1.0424
B(  9-C , 10-H ) :   0.9516 B(  9-C , 11-H ) :   0.9663 B(  9-C , 12-C ) :   1.0683
B( 12-C , 13-H ) :   0.9758 B( 12-C , 14-H ) :   0.9759 B( 12-C , 15-H ) :   0.9785
B( 16-S , 17-C ) :   1.1348 B( 16-S , 20-C ) :   1.1182 B( 17-C , 18-C ) :   1.6502
B( 17-C , 33-H ) :   0.9646 B( 18-C , 19-C ) :   1.2051 B( 18-C , 21-H ) :   0.9946
B( 19-C , 20-C ) :   1.6279 B( 19-C , 22-C ) :   1.0380 B( 22-C , 23-H ) :   0.9312
B( 22-C , 24-H ) :   0.9385 B( 22-C , 25-C ) :   1.0605 B( 25-C , 26-H ) :   0.9504
B( 25-C , 27-H ) :   0.9583 B( 25-C , 28-C ) :   1.0856 B( 28-C , 29-H ) :   0.9715
B( 28-C , 30-H ) :   0.9660 B( 28-C , 31-H ) :   0.9635

Dispersion correction           -0.015092351
FINAL SINGLE POINT ENERGY     -1339.870325942438

DIPOLE MOMENT
-------------
                                X             Y             Z
Electronic contribution:     21.77503      12.90564      15.65815
Nuclear contribution   :    -22.18962     -13.40397     -16.00196
                        -----------------------------------------
Total Dipole Moment    :     -0.41459      -0.49833      -0.34381
                        -----------------------------------------
Magnitude (a.u.)       :      0.73377
Magnitude (Debye)      :      1.86511

Rotational constants in cm-1:     0.019673     0.008939     0.006818
Rotational constants in MHz :   589.783781   267.992172   204.396211

                             ****ORCA TERMINATED NORMALLY****
TOTAL RUN TIME: 0 days 0 hours 0 minutes 31 seconds 448 msec
