                         Program Version 4.2.1 -  RELEASE  -
|  1> ! wB97X-D3 SP def2-SVP
|  2> %pal
|  3> nprocs 16
|  4> end
|  5>
|  6> * xyz 0 1
|  7> S 	 39.0254 	 8.984 	 86.9094
|  8> C 	 40.1031 	 9.62017 	 85.736
|  9> C 	 40.5038 	 8.68829 	 84.7399
| 10> C 	 39.6637 	 7.51908 	 84.8736
| 11> C 	 38.9562 	 7.45391 	 86.0675
| 12> H 	 39.5379 	 6.7044 	 84.1839
| 13> C 	 41.2787 	 9.06415 	 83.4992
| 14> H 	 41.817 	 9.98982 	 83.6599
| 15> H 	 40.5498 	 9.29616 	 82.7081
| 16> C 	 42.31 	 7.97119 	 83.0754
| 17> H 	 41.8777 	 6.96538 	 83.119
| 18> H 	 42.7149 	 8.28413 	 82.1599
| 19> C 	 43.4299 	 7.86664 	 84.0847
| 20> H 	 43.0254 	 7.45065 	 85.0236
| 21> H 	 44.4018 	 7.28883 	 83.7514
| 22> H 	 43.6928 	 8.8793 	 84.3402
| 23> S 	 36.7138 	 6.54884 	 87.2542
| 24> C 	 36.3495 	 4.85156 	 87.3502
| 25> C 	 37.5198 	 4.06226 	 87.0447
| 26> C 	 38.6362 	 4.86154 	 86.5431
| 27> C 	 38.3515 	 6.26016 	 86.6058
| 28> H 	 37.518 	 3.0133 	 87.2171
| 29> C 	 40.0295 	 4.30216 	 86.2114
| 30> H 	 40.4946 	 4.94204 	 85.4776
| 31> H 	 39.9433 	 3.35324 	 85.8209
| 32> C 	 40.8663 	 4.23223 	 87.5873
| 33> H 	 41.7842 	 3.65435 	 87.364
| 34> H 	 40.4152 	 3.68327 	 88.3854
| 35> C 	 41.3568 	 5.62233 	 88.0986
| 36> H 	 40.672 	 6.46335 	 88.2484
| 37> H 	 42.16 	 5.98654 	 87.3724
| 38> H 	 41.9568 	 5.45543 	 88.9639
| 39> H 	 40.5543 	 10.6451 	 85.7883
| 40> H 	 35.3758 	 4.48175 	 87.6663
| 41> *
| 42>
| 43>                          ****END OF INPUT****

CARTESIAN COORDINATES (ANGSTROEM)
---------------------------------
  S     39.025400    8.984000   86.909400
  C     40.103100    9.620170   85.736000
  C     40.503800    8.688290   84.739900
  C     39.663700    7.519080   84.873600
  C     38.956200    7.453910   86.067500
  H     39.537900    6.704400   84.183900
  C     41.278700    9.064150   83.499200
  H     41.817000    9.989820   83.659900
  H     40.549800    9.296160   82.708100
  C     42.310000    7.971190   83.075400
  H     41.877700    6.965380   83.119000
  H     42.714900    8.284130   82.159900
  C     43.429900    7.866640   84.084700
  H     43.025400    7.450650   85.023600
  H     44.401800    7.288830   83.751400
  H     43.692800    8.879300   84.340200
  S     36.713800    6.548840   87.254200
  C     36.349500    4.851560   87.350200
  C     37.519800    4.062260   87.044700
  C     38.636200    4.861540   86.543100
  C     38.351500    6.260160   86.605800
  H     37.518000    3.013300   87.217100
  C     40.029500    4.302160   86.211400
  H     40.494600    4.942040   85.477600
  H     39.943300    3.353240   85.820900
  C     40.866300    4.232230   87.587300
  H     41.784200    3.654350   87.364000
  H     40.415200    3.683270   88.385400
  C     41.356800    5.622330   88.098600
  H     40.672000    6.463350   88.248400
  H     42.160000    5.986540   87.372400
  H     41.956800    5.455430   88.963900
  H     40.554300   10.645100   85.788300
  H     35.375800    4.481750   87.666300

 Total Charge           Charge          ....    0
 Multiplicity           Mult            ....    1
 Number of Electrons    NEL             ....  134
 Basis Dimension        Dim             ....  322

ORBITAL ENERGIES
----------------

  NO   OCC          E(Eh)            E(eV)
   0   2.0000     -88.970678     -2421.0152
   1   2.0000     -88.965100     -2420.8635
   2   2.0000     -10.330782      -281.1149
   3   2.0000     -10.327830      -281.0345
   4   2.0000     -10.326719      -281.0043
   5   2.0000     -10.318302      -280.7753
   6   2.0000     -10.316626      -280.7297
   7   2.0000     -10.306707      -280.4597
   8   2.0000     -10.304080      -280.3883
   9   2.0000     -10.296243      -280.1750
  10   2.0000     -10.294057      -280.1155
  11   2.0000     -10.293988      -280.1137
  12   2.0000     -10.292563      -280.0749
  13   2.0000     -10.283399      -279.8255
  14   2.0000     -10.280245      -279.7397
  15   2.0000     -10.274809      -279.5918
  16   2.0000      -8.085609      -220.0206
  17   2.0000      -8.079568      -219.8562
  18   2.0000      -6.044042      -164.4668
  19   2.0000      -6.040074      -164.3588
  20   2.0000      -6.038005      -164.3025
  21   2.0000      -6.036459      -164.2604
  22   2.0000      -6.033966      -164.1926
  23   2.0000      -6.030587      -164.1006
  24   2.0000      -1.003507       -27.3068
  25   2.0000      -0.975219       -26.5371
  26   2.0000      -0.915076       -24.9005
  27   2.0000      -0.898839       -24.4586
  28   2.0000      -0.865995       -23.5649
  29   2.0000      -0.850214       -23.1355
  30   2.0000      -0.839999       -22.8575
  31   2.0000      -0.807503       -21.9733
  32   2.0000      -0.781986       -21.2789
  33   2.0000      -0.766502       -20.8576
  34   2.0000      -0.705076       -19.1861
  35   2.0000      -0.696630       -18.9563
  36   2.0000      -0.687002       -18.6943
  37   2.0000      -0.661824       -18.0092
  38   2.0000      -0.640515       -17.4293
  39   2.0000      -0.622775       -16.9466
  40   2.0000      -0.591463       -16.0945
  41   2.0000      -0.568521       -15.4702
  42   2.0000      -0.553430       -15.0596
  43   2.0000      -0.548110       -14.9148
  44   2.0000      -0.542131       -14.7521
  45   2.0000      -0.533711       -14.5230
  46   2.0000      -0.514421       -13.9981
  47   2.0000      -0.507329       -13.8051
  48   2.0000      -0.501313       -13.6414
  49   2.0000      -0.495104       -13.4725
  50   2.0000      -0.485945       -13.2232
  51   2.0000      -0.474446       -12.9103
  52   2.0000      -0.471586       -12.8325
  53   2.0000      -0.459409       -12.5011
  54   2.0000      -0.455568       -12.3966
  55   2.0000      -0.445719       -12.1286
  56   2.0000      -0.445205       -12.1146
  57   2.0000      -0.439536       -11.9604
  58   2.0000      -0.430163       -11.7053
  59   2.0000      -0.428031       -11.6473
  60   2.0000      -0.423756       -11.5310
  61   2.0000      -0.414524       -11.2798
  62   2.0000      -0.412144       -11.2150
  63   2.0000      -0.347456        -9.4548
  64   2.0000      -0.330690        -8.9985
  65   2.0000      -0.327041        -8.8992
  66   2.0000      -0.280005        -7.6193
  67   0.0000       0.021388         0.5820
  68   0.0000       0.066306         1.8043
  69   0.0000       0.106590         2.9005
  70   0.0000       0.107957         2.9377
  71   0.0000       0.125883         3.4254

MULLIKEN ATOMIC CHARGES
-----------------------
   0 S :    0.126839
   1 C :   -0.128353
   2 C :   -0.106649
   3 C :    0.007365
   4 C :   -0.132069
   5 H :    0.021875
   6 C :    0.033792
   7 H :    0.014983
   8 H :    0.054181
   9 C :   -0.030356
  10 H :    0.034347
  11 H :    0.020852
  12 C :   -0.093904
  13 H :    0.044097
  14 H :    0.057169
  15 H :    0.010266
  16 S :    0.090888
  17 C :   -0.101979
  18 C :   -0.030776
  19 C :   -0.065686
  20 C :   -0.158689
  21 H :    0.014997
  22 C :    0.138784
  23 H :    0.015360
  24 H :    0.002637
  25 C :   -0.076691
  26 H :    0.029279
  27 H :    0.029839
  28 C :   -0.065786
  29 H :    0.055936
  30 H :    0.029154
  31 H :    0.022263
  32 H :    0.067480
  33 H :    0.068554
Sum of atomic charges:    0.0000000

LOEWDIN ATOMIC CHARGES
----------------------
   0 S :    0.421793
   1 C :   -0.216571
   2 C :   -0.065530
   3 C :   -0.062948
   4 C :   -0.203731
   5 H :    0.028134
   6 C :   -0.028749
   7 H :    0.026319
   8 H :    0.039430
   9 C :   -0.037484
  10 H :    0.026117
  11 H :    0.017387
  12 C :   -0.074133
  13 H :    0.026282
  14 H :    0.038926
  15 H :    0.015155
  16 S :    0.400190
  17 C :   -0.187695
  18 C :   -0.069023
  19 C :   -0.043030
  20 C :   -0.195634
  21 H :    0.025416
  22 C :   -0.015408
  23 H :    0.028062
  24 H :    0.017887
  25 C :   -0.029676
  26 H :    0.026671
  27 H :    0.019438
  28 C :   -0.072338
  29 H :    0.025117
  30 H :    0.031122
  31 H :    0.021886
  32 H :    0.036530
  33 H :    0.030088

  Mayer bond orders larger than 0.100000
B(  0-S ,  1-C ) :   1.1562 B(  0-S ,  4-C ) :   1.1418 B(  1-C ,  2-C ) :   1.5862
B(  1-C , 32-H ) :   0.9584 B(  2-C ,  3-C ) :   1.2315 B(  2-C ,  6-C ) :   1.0335
B(  3-C ,  4-C ) :   1.5823 B(  3-C ,  5-H ) :   0.9861 B(  4-C , 20-C ) :   1.0489
B(  6-C ,  7-H ) :   0.9418 B(  6-C ,  8-H ) :   0.9437 B(  6-C ,  9-C ) :   1.0654
B(  9-C , 10-H ) :   0.9620 B(  9-C , 11-H ) :   0.9554 B(  9-C , 12-C ) :   1.0660
B( 12-C , 13-H ) :   0.9723 B( 12-C , 14-H ) :   0.9729 B( 12-C , 15-H ) :   0.9724
B( 16-S , 17-C ) :   1.1845 B( 16-S , 20-C ) :   1.1320 B( 17-C , 18-C ) :   1.5587
B( 17-C , 20-C ) :   0.1100 B( 17-C , 33-H ) :   0.9706 B( 18-C , 19-C ) :   1.2528
B( 18-C , 21-H ) :   0.9939 B( 19-C , 20-C ) :   1.5567 B( 19-C , 22-C ) :   1.0503
B( 22-C , 23-H ) :   0.9379 B( 22-C , 24-H ) :   0.9264 B( 22-C , 25-C ) :   1.0562
B( 25-C , 26-H ) :   0.9559 B( 25-C , 27-H ) :   0.9623 B( 25-C , 28-C ) :   1.0744
B( 28-C , 29-H ) :   0.9737 B( 28-C , 30-H ) :   0.9753 B( 28-C , 31-H ) :   0.9698

Dispersion correction           -0.016084321
FINAL SINGLE POINT ENERGY     -1339.863473052698

DIPOLE MOMENT
-------------
                                X             Y             Z
Electronic contribution:    -25.51851       6.71935       8.30353
Nuclear contribution   :     25.91987      -7.04395      -8.59552
                        -----------------------------------------
Total Dipole Moment    :      0.40136      -0.32460      -0.29199
                        -----------------------------------------
Magnitude (a.u.)       :      0.59305
Magnitude (Debye)      :      1.50742

Rotational constants in cm-1:     0.020217     0.009720     0.007859
Rotational constants in MHz :   606.099875   291.398602   235.607976

                             ****ORCA TERMINATED NORMALLY****
TOTAL RUN TIME: 0 days 0 hours 0 minutes 30 seconds 606 msec
