                         Program Version 4.2.1 -  RELEASE  -
|  1> ! wB97X-D3 SP def2-SVP
|  2> %pal
|  3> nprocs 16
|  4> end
|  5>
|  6> * xyz 0 1
|  7> S 	 -39.5781 	 35.0318 	 86.5824
|  8> C 	 -38.4598 	 36.3077 	 86.7355
|  9> C 	 -38.1829 	 36.9723 	 85.5174
| 10> C 	 -38.9827 	 36.3653 	 84.4824
| 11> C 	 -39.8213 	 35.3069 	 84.9299
| 12> H 	 -38.8382 	 36.6203 	 83.4613
| 13> C 	 -37.0225 	 37.9512 	 85.2104
| 14> H 	 -36.9127 	 38.7002 	 85.9895
| 15> H 	 -37.2019 	 38.6201 	 84.265
| 16> C 	 -35.6704 	 37.2346 	 84.9653
| 17> H 	 -35.6065 	 36.4577 	 85.6965
| 18> H 	 -35.8356 	 36.8037 	 83.9964
| 19> C 	 -34.3973 	 38.1403 	 84.9711
| 20> H 	 -33.5562 	 37.5399 	 84.625
| 21> H 	 -34.5355 	 38.9949 	 84.2532
| 22> H 	 -34.0752 	 38.5608 	 85.9392
| 23> S 	 -42.3591 	 34.9318 	 84.0143
| 24> C 	 -42.714 	 33.4121 	 83.1632
| 25> C 	 -41.5833 	 32.7766 	 82.718
| 26> C 	 -40.3696 	 33.4539 	 83.2111
| 27> C 	 -40.7031 	 34.4367 	 84.1567
| 28> H 	 -41.5789 	 31.932 	 82.0941
| 29> C 	 -38.9249 	 33.0051 	 82.9324
| 30> H 	 -38.9609 	 32.0127 	 82.5736
| 31> H 	 -38.2165 	 33.0202 	 83.7645
| 32> C 	 -38.2033 	 33.8217 	 81.794
| 33> H 	 -38.159 	 34.8188 	 82.2297
| 34> H 	 -38.8184 	 33.7433 	 80.894
| 35> C 	 -36.7791 	 33.2936 	 81.6546
| 36> H 	 -36.0481 	 33.6956 	 82.3721
| 37> H 	 -36.5427 	 33.782 	 80.6082
| 38> H 	 -36.8925 	 32.1918 	 81.5228
| 39> H 	 -37.7713 	 36.2943 	 87.5881
| 40> H 	 -43.6944 	 33.1373 	 82.8363
| 41> *
| 42>
| 43>                          ****END OF INPUT****

CARTESIAN COORDINATES (ANGSTROEM)
---------------------------------
  S    -39.578100   35.031800   86.582400
  C    -38.459800   36.307700   86.735500
  C    -38.182900   36.972300   85.517400
  C    -38.982700   36.365300   84.482400
  C    -39.821300   35.306900   84.929900
  H    -38.838200   36.620300   83.461300
  C    -37.022500   37.951200   85.210400
  H    -36.912700   38.700200   85.989500
  H    -37.201900   38.620100   84.265000
  C    -35.670400   37.234600   84.965300
  H    -35.606500   36.457700   85.696500
  H    -35.835600   36.803700   83.996400
  C    -34.397300   38.140300   84.971100
  H    -33.556200   37.539900   84.625000
  H    -34.535500   38.994900   84.253200
  H    -34.075200   38.560800   85.939200
  S    -42.359100   34.931800   84.014300
  C    -42.714000   33.412100   83.163200
  C    -41.583300   32.776600   82.718000
  C    -40.369600   33.453900   83.211100
  C    -40.703100   34.436700   84.156700
  H    -41.578900   31.932000   82.094100
  C    -38.924900   33.005100   82.932400
  H    -38.960900   32.012700   82.573600
  H    -38.216500   33.020200   83.764500
  C    -38.203300   33.821700   81.794000
  H    -38.159000   34.818800   82.229700
  H    -38.818400   33.743300   80.894000
  C    -36.779100   33.293600   81.654600
  H    -36.048100   33.695600   82.372100
  H    -36.542700   33.782000   80.608200
  H    -36.892500   32.191800   81.522800
  H    -37.771300   36.294300   87.588100
  H    -43.694400   33.137300   82.836300

 Total Charge           Charge          ....    0
 Multiplicity           Mult            ....    1
 Number of Electrons    NEL             ....  134
 Basis Dimension        Dim             ....  322

ORBITAL ENERGIES
----------------

  NO   OCC          E(Eh)            E(eV)
   0   2.0000     -88.969057     -2420.9711
   1   2.0000     -88.962956     -2420.8051
   2   2.0000     -10.327023      -281.0126
   3   2.0000     -10.323087      -280.9055
   4   2.0000     -10.316724      -280.7323
   5   2.0000     -10.314764      -280.6790
   6   2.0000     -10.310229      -280.5556
   7   2.0000     -10.309348      -280.5316
   8   2.0000     -10.304101      -280.3888
   9   2.0000     -10.297125      -280.1990
  10   2.0000     -10.296849      -280.1915
  11   2.0000     -10.291474      -280.0452
  12   2.0000     -10.289325      -279.9868
  13   2.0000     -10.288873      -279.9745
  14   2.0000     -10.287103      -279.9263
  15   2.0000     -10.285696      -279.8880
  16   2.0000      -8.085371      -220.0141
  17   2.0000      -8.077796      -219.8080
  18   2.0000      -6.043503      -164.4521
  19   2.0000      -6.039408      -164.3406
  20   2.0000      -6.036690      -164.2667
  21   2.0000      -6.036283      -164.2556
  22   2.0000      -6.032604      -164.1555
  23   2.0000      -6.028251      -164.0371
  24   2.0000      -1.008445       -27.4412
  25   2.0000      -0.982691       -26.7404
  26   2.0000      -0.907855       -24.7040
  27   2.0000      -0.906490       -24.6668
  28   2.0000      -0.867365       -23.6022
  29   2.0000      -0.849122       -23.1058
  30   2.0000      -0.844995       -22.9935
  31   2.0000      -0.809908       -22.0387
  32   2.0000      -0.781895       -21.2764
  33   2.0000      -0.764927       -20.8147
  34   2.0000      -0.702098       -19.1051
  35   2.0000      -0.694988       -18.9116
  36   2.0000      -0.685223       -18.6459
  37   2.0000      -0.663476       -18.0541
  38   2.0000      -0.645664       -17.5694
  39   2.0000      -0.619176       -16.8486
  40   2.0000      -0.596083       -16.2202
  41   2.0000      -0.577992       -15.7280
  42   2.0000      -0.573039       -15.5932
  43   2.0000      -0.556389       -15.1401
  44   2.0000      -0.524955       -14.2847
  45   2.0000      -0.520025       -14.1506
  46   2.0000      -0.511914       -13.9299
  47   2.0000      -0.507464       -13.8088
  48   2.0000      -0.502551       -13.6751
  49   2.0000      -0.493602       -13.4316
  50   2.0000      -0.484643       -13.1878
  51   2.0000      -0.482517       -13.1300
  52   2.0000      -0.473197       -12.8764
  53   2.0000      -0.465428       -12.6649
  54   2.0000      -0.464425       -12.6376
  55   2.0000      -0.445259       -12.1161
  56   2.0000      -0.444029       -12.0826
  57   2.0000      -0.439800       -11.9676
  58   2.0000      -0.433525       -11.7968
  59   2.0000      -0.431865       -11.7516
  60   2.0000      -0.421344       -11.4654
  61   2.0000      -0.420160       -11.4331
  62   2.0000      -0.403404       -10.9772
  63   2.0000      -0.336332        -9.1521
  64   2.0000      -0.329638        -8.9699
  65   2.0000      -0.316831        -8.6214
  66   2.0000      -0.306281        -8.3343
  67   0.0000       0.040902         1.1130
  68   0.0000       0.050427         1.3722
  69   0.0000       0.104775         2.8511
  70   0.0000       0.112578         3.0634
  71   0.0000       0.123868         3.3706

MULLIKEN ATOMIC CHARGES
-----------------------
   0 S :    0.146501
   1 C :   -0.128655
   2 C :   -0.091743
   3 C :    0.055961
   4 C :   -0.194968
   5 H :    0.006844
   6 C :    0.001971
   7 H :    0.027222
   8 H :    0.039297
   9 C :   -0.047740
  10 H :    0.023166
  11 H :    0.021805
  12 C :   -0.060431
  13 H :    0.038650
  14 H :    0.036593
  15 H :    0.040915
  16 S :    0.110317
  17 C :   -0.068159
  18 C :   -0.006541
  19 C :   -0.013733
  20 C :   -0.173510
  21 H :    0.003335
  22 C :    0.060683
  23 H :   -0.002796
  24 H :    0.031811
  25 C :   -0.098362
  26 H :    0.021231
  27 H :    0.038615
  28 C :   -0.073298
  29 H :    0.059036
  30 H :    0.043512
  31 H :    0.043992
  32 H :    0.062799
  33 H :    0.045679
Sum of atomic charges:    0.0000000

LOEWDIN ATOMIC CHARGES
----------------------
   0 S :    0.472581
   1 C :   -0.223392
   2 C :   -0.060232
   3 C :   -0.057849
   4 C :   -0.228304
   5 H :    0.021422
   6 C :   -0.039269
   7 H :    0.024558
   8 H :    0.038179
   9 C :   -0.036663
  10 H :    0.018193
  11 H :    0.022105
  12 C :   -0.069910
  13 H :    0.028986
  14 H :    0.029956
  15 H :    0.027263
  16 S :    0.399743
  17 C :   -0.168505
  18 C :   -0.059823
  19 C :   -0.043250
  20 C :   -0.214408
  21 H :    0.024069
  22 C :   -0.033424
  23 H :    0.015559
  24 H :    0.031717
  25 C :   -0.040001
  26 H :    0.020363
  27 H :    0.023336
  28 C :   -0.075979
  29 H :    0.031178
  30 H :    0.041526
  31 H :    0.029483
  32 H :    0.028227
  33 H :    0.022565

  Mayer bond orders larger than 0.100000
B(  0-S ,  1-C ) :   1.1917 B(  0-S ,  4-C ) :   1.2074 B(  1-C ,  2-C ) :   1.5498
B(  1-C ,  4-C ) :   0.1058 B(  1-C , 32-H ) :   0.9624 B(  2-C ,  3-C ) :   1.3027
B(  2-C ,  6-C ) :   1.0279 B(  3-C ,  4-C ) :   1.5135 B(  3-C ,  5-H ) :   0.9954
B(  4-C , 20-C ) :   1.0044 B(  6-C ,  7-H ) :   0.9469 B(  6-C ,  8-H ) :   0.9476
B(  6-C ,  9-C ) :   1.0444 B(  9-C , 10-H ) :   0.9607 B(  9-C , 11-H ) :   0.9574
B(  9-C , 12-C ) :   1.0764 B( 12-C , 13-H ) :   0.9742 B( 12-C , 14-H ) :   0.9745
B( 12-C , 15-H ) :   0.9767 B( 16-S , 17-C ) :   1.1374 B( 16-S , 20-C ) :   1.1480
B( 17-C , 18-C ) :   1.6313 B( 17-C , 33-H ) :   0.9702 B( 18-C , 19-C ) :   1.2113
B( 18-C , 21-H ) :   0.9979 B( 19-C , 20-C ) :   1.6091 B( 19-C , 22-C ) :   1.0476
B( 22-C , 23-H ) :   0.9334 B( 22-C , 24-H ) :   0.9430 B( 22-C , 25-C ) :   1.0552
B( 25-C , 26-H ) :   0.9504 B( 25-C , 27-H ) :   0.9602 B( 25-C , 28-C ) :   1.0775
B( 28-C , 29-H ) :   0.9714 B( 28-C , 30-H ) :   0.9745 B( 28-C , 31-H ) :   0.9714

Dispersion correction           -0.014743070
FINAL SINGLE POINT ENERGY     -1339.858343525103

DIPOLE MOMENT
-------------
                                X             Y             Z
Electronic contribution:    -29.58465      -4.23333      11.94817
Nuclear contribution   :     30.24801       4.10753     -12.37266
                        -----------------------------------------
Total Dipole Moment    :      0.66336      -0.12581      -0.42449
                        -----------------------------------------
Magnitude (a.u.)       :      0.79754
Magnitude (Debye)      :      2.02718

Rotational constants in cm-1:     0.019271     0.008789     0.006768
Rotational constants in MHz :   577.728376   263.492943   202.903235

                             ****ORCA TERMINATED NORMALLY****
TOTAL RUN TIME: 0 days 0 hours 0 minutes 30 seconds 301 msec
