                         Program Version 4.2.1 -  RELEASE  -
|  1> ! wB97X-D3 SP def2-SVP
|  2> %pal
|  3> nprocs 16
|  4> end
|  5>
|  6> * xyz 0 1
|  7> S 	 51.1361 	 9.50218 	 88.1163
|  8> C 	 50.6022 	 10.6777 	 89.258
|  9> C 	 51.199 	 11.9405 	 89.0403
| 10> C 	 52.2201 	 11.8407 	 88.023
| 11> C 	 52.3447 	 10.5721 	 87.426
| 12> H 	 52.9519 	 12.5149 	 87.6979
| 13> C 	 51.0573 	 13.1115 	 90.0313
| 14> H 	 50.1113 	 13.5613 	 89.8401
| 15> H 	 51.7524 	 13.9448 	 89.809
| 16> C 	 51.2534 	 12.697 	 91.494
| 17> H 	 50.7982 	 13.3552 	 92.2354
| 18> H 	 50.5923 	 11.8134 	 91.6313
| 19> C 	 52.7373 	 12.357 	 91.804
| 20> H 	 53.3697 	 13.181 	 91.4768
| 21> H 	 52.8431 	 12.1316 	 92.7743
| 22> H 	 53.119 	 11.4938 	 91.2547
| 23> S 	 54.936 	 10.6252 	 86.4765
| 24> C 	 55.2605 	 10.2942 	 84.8329
| 25> C 	 54.0925 	 9.9363 	 84.1487
| 26> C 	 52.9501 	 9.7935 	 85.0543
| 27> C 	 53.2504 	 10.1823 	 86.3246
| 28> H 	 54.2008 	 9.81517 	 83.0406
| 29> C 	 51.54 	 9.49211 	 84.5282
| 30> H 	 51.388 	 10.2511 	 83.7893
| 31> H 	 50.781 	 9.44525 	 85.3006
| 32> C 	 51.5098 	 8.10735 	 83.8759
| 33> H 	 51.8543 	 7.38606 	 84.5689
| 34> H 	 52.2543 	 8.09009 	 83.0731
| 35> C 	 50.1432 	 7.82294 	 83.2003
| 36> H 	 49.734 	 8.79141 	 82.7568
| 37> H 	 49.3467 	 7.46764 	 83.8179
| 38> H 	 50.1472 	 7.02897 	 82.4656
| 39> H 	 49.9451 	 10.4377 	 90.0876
| 40> H 	 56.2623 	 10.4508 	 84.4436
| 41> *
| 42>
| 43>                          ****END OF INPUT****

CARTESIAN COORDINATES (ANGSTROEM)
---------------------------------
  S     51.136100    9.502180   88.116300
  C     50.602200   10.677700   89.258000
  C     51.199000   11.940500   89.040300
  C     52.220100   11.840700   88.023000
  C     52.344700   10.572100   87.426000
  H     52.951900   12.514900   87.697900
  C     51.057300   13.111500   90.031300
  H     50.111300   13.561300   89.840100
  H     51.752400   13.944800   89.809000
  C     51.253400   12.697000   91.494000
  H     50.798200   13.355200   92.235400
  H     50.592300   11.813400   91.631300
  C     52.737300   12.357000   91.804000
  H     53.369700   13.181000   91.476800
  H     52.843100   12.131600   92.774300
  H     53.119000   11.493800   91.254700
  S     54.936000   10.625200   86.476500
  C     55.260500   10.294200   84.832900
  C     54.092500    9.936300   84.148700
  C     52.950100    9.793500   85.054300
  C     53.250400   10.182300   86.324600
  H     54.200800    9.815170   83.040600
  C     51.540000    9.492110   84.528200
  H     51.388000   10.251100   83.789300
  H     50.781000    9.445250   85.300600
  C     51.509800    8.107350   83.875900
  H     51.854300    7.386060   84.568900
  H     52.254300    8.090090   83.073100
  C     50.143200    7.822940   83.200300
  H     49.734000    8.791410   82.756800
  H     49.346700    7.467640   83.817900
  H     50.147200    7.028970   82.465600
  H     49.945100   10.437700   90.087600
  H     56.262300   10.450800   84.443600

 Total Charge           Charge          ....    0
 Multiplicity           Mult            ....    1
 Number of Electrons    NEL             ....  134
 Basis Dimension        Dim             ....  322

ORBITAL ENERGIES
----------------

  NO   OCC          E(Eh)            E(eV)
   0   2.0000     -88.968160     -2420.9467
   1   2.0000     -88.963598     -2420.8226
   2   2.0000     -10.331361      -281.1306
   3   2.0000     -10.325587      -280.9735
   4   2.0000     -10.319415      -280.8056
   5   2.0000     -10.316398      -280.7235
   6   2.0000     -10.309034      -280.5231
   7   2.0000     -10.307239      -280.4742
   8   2.0000     -10.304589      -280.4021
   9   2.0000     -10.294433      -280.1258
  10   2.0000     -10.292762      -280.0803
  11   2.0000     -10.289874      -280.0017
  12   2.0000     -10.288094      -279.9533
  13   2.0000     -10.281809      -279.7822
  14   2.0000     -10.278069      -279.6805
  15   2.0000     -10.267269      -279.3866
  16   2.0000      -8.082631      -219.9396
  17   2.0000      -8.079364      -219.8507
  18   2.0000      -6.041025      -164.3847
  19   2.0000      -6.037791      -164.2966
  20   2.0000      -6.036984      -164.2747
  21   2.0000      -6.033734      -164.1862
  22   2.0000      -6.033668      -164.1845
  23   2.0000      -6.030215      -164.0905
  24   2.0000      -1.006565       -27.3900
  25   2.0000      -0.983865       -26.7723
  26   2.0000      -0.910607       -24.7789
  27   2.0000      -0.907939       -24.7063
  28   2.0000      -0.866117       -23.5683
  29   2.0000      -0.847988       -23.0749
  30   2.0000      -0.842666       -22.9301
  31   2.0000      -0.810732       -22.0611
  32   2.0000      -0.783685       -21.3252
  33   2.0000      -0.773969       -21.0608
  34   2.0000      -0.708100       -19.2684
  35   2.0000      -0.702374       -19.1126
  36   2.0000      -0.691987       -18.8299
  37   2.0000      -0.663005       -18.0413
  38   2.0000      -0.643608       -17.5135
  39   2.0000      -0.609399       -16.5826
  40   2.0000      -0.594191       -16.1688
  41   2.0000      -0.574008       -15.6196
  42   2.0000      -0.568142       -15.4599
  43   2.0000      -0.561252       -15.2724
  44   2.0000      -0.532461       -14.4890
  45   2.0000      -0.521525       -14.1914
  46   2.0000      -0.518486       -14.1087
  47   2.0000      -0.511247       -13.9117
  48   2.0000      -0.502709       -13.6794
  49   2.0000      -0.492719       -13.4076
  50   2.0000      -0.486455       -13.2371
  51   2.0000      -0.477314       -12.9884
  52   2.0000      -0.471338       -12.8258
  53   2.0000      -0.466691       -12.6993
  54   2.0000      -0.459502       -12.5037
  55   2.0000      -0.448771       -12.2117
  56   2.0000      -0.444045       -12.0831
  57   2.0000      -0.436880       -11.8881
  58   2.0000      -0.431498       -11.7417
  59   2.0000      -0.430155       -11.7051
  60   2.0000      -0.419249       -11.4084
  61   2.0000      -0.414764       -11.2863
  62   2.0000      -0.410906       -11.1813
  63   2.0000      -0.348428        -9.4812
  64   2.0000      -0.329711        -8.9719
  65   2.0000      -0.328535        -8.9399
  66   2.0000      -0.293320        -7.9816
  67   0.0000       0.035250         0.9592
  68   0.0000       0.067337         1.8323
  69   0.0000       0.107631         2.9288
  70   0.0000       0.120258         3.2724
  71   0.0000       0.135015         3.6739

MULLIKEN ATOMIC CHARGES
-----------------------
   0 S :    0.119400
   1 C :   -0.141732
   2 C :   -0.069974
   3 C :    0.049746
   4 C :   -0.186708
   5 H :   -0.010630
   6 C :    0.070281
   7 H :    0.026871
   8 H :    0.023717
   9 C :   -0.089093
  10 H :    0.027706
  11 H :    0.012487
  12 C :    0.004813
  13 H :    0.026447
  14 H :    0.008940
  15 H :    0.037745
  16 S :    0.099934
  17 C :   -0.107822
  18 C :   -0.056339
  19 C :   -0.047671
  20 C :   -0.142740
  21 H :    0.045939
  22 C :    0.108411
  23 H :    0.029780
  24 H :    0.023545
  25 C :   -0.078910
  26 H :    0.025003
  27 H :    0.021220
  28 C :   -0.043566
  29 H :    0.032900
  30 H :    0.023775
  31 H :    0.028041
  32 H :    0.062635
  33 H :    0.065846
Sum of atomic charges:    0.0000000

LOEWDIN ATOMIC CHARGES
----------------------
   0 S :    0.425255
   1 C :   -0.207162
   2 C :   -0.059052
   3 C :   -0.059115
   4 C :   -0.193366
   5 H :    0.018775
   6 C :   -0.031973
   7 H :    0.028446
   8 H :    0.030039
   9 C :   -0.040637
  10 H :    0.024073
  11 H :    0.021246
  12 C :   -0.051154
  13 H :    0.026647
  14 H :    0.008578
  15 H :    0.032430
  16 S :    0.420044
  17 C :   -0.195628
  18 C :   -0.080102
  19 C :   -0.051231
  20 C :   -0.206206
  21 H :    0.041218
  22 C :   -0.021160
  23 H :    0.030856
  24 H :    0.020180
  25 C :   -0.035954
  26 H :    0.020328
  27 H :    0.021234
  28 C :   -0.072804
  29 H :    0.033587
  30 H :    0.020620
  31 H :    0.024224
  32 H :    0.027619
  33 H :    0.030146

  Mayer bond orders larger than 0.100000
B(  0-S ,  1-C ) :   1.1698 B(  0-S ,  4-C ) :   1.1579 B(  1-C ,  2-C ) :   1.5695
B(  1-C ,  4-C ) :   0.1026 B(  1-C , 32-H ) :   0.9680 B(  2-C ,  3-C ) :   1.2445
B(  2-C ,  6-C ) :   1.0143 B(  3-C ,  4-C ) :   1.5775 B(  3-C ,  5-H ) :   0.9978
B(  4-C , 20-C ) :   1.0066 B(  6-C ,  7-H ) :   0.9307 B(  6-C ,  8-H ) :   0.9539
B(  6-C ,  9-C ) :   1.0759 B(  9-C , 10-H ) :   0.9556 B(  9-C , 11-H ) :   0.9527
B(  9-C , 12-C ) :   1.0653 B( 12-C , 13-H ) :   0.9765 B( 12-C , 14-H ) :   0.9736
B( 12-C , 15-H ) :   0.9745 B( 16-S , 17-C ) :   1.1731 B( 16-S , 20-C ) :   1.1357
B( 17-C , 18-C ) :   1.6039 B( 17-C , 33-H ) :   0.9691 B( 18-C , 19-C ) :   1.2148
B( 18-C , 21-H ) :   0.9850 B( 19-C , 20-C ) :   1.6171 B( 19-C , 22-C ) :   1.0410
B( 22-C , 23-H ) :   0.9278 B( 22-C , 24-H ) :   0.9375 B( 22-C , 25-C ) :   1.0585
B( 25-C , 26-H ) :   0.9588 B( 25-C , 27-H ) :   0.9592 B( 25-C , 28-C ) :   1.0691
B( 28-C , 29-H ) :   0.9726 B( 28-C , 30-H ) :   0.9744 B( 28-C , 31-H ) :   0.9756

Dispersion correction           -0.014307942
FINAL SINGLE POINT ENERGY     -1339.874044580379

DIPOLE MOMENT
-------------
                                X             Y             Z
Electronic contribution:     10.13220      -2.07191      -1.47233
Nuclear contribution   :    -10.22753       2.31240       1.40192
                        -----------------------------------------
Total Dipole Moment    :     -0.09533       0.24049      -0.07041
                        -----------------------------------------
Magnitude (a.u.)       :      0.26811
Magnitude (Debye)      :      0.68148

Rotational constants in cm-1:     0.022195     0.007918     0.006262
Rotational constants in MHz :   665.390330   237.388740   187.738463

                             ****ORCA TERMINATED NORMALLY****
TOTAL RUN TIME: 0 days 0 hours 0 minutes 29 seconds 565 msec
