                         Program Version 4.2.1 -  RELEASE  -
|  1> ! wB97X-D3 SP def2-SVP
|  2> %pal
|  3> nprocs 16
|  4> end
|  5>
|  6> * xyz 0 1
|  7> S 	 -7.28315 	 41.405 	 36.8007
|  8> C 	 -7.37927 	 39.9085 	 35.8727
|  9> C 	 -6.23735 	 39.1228 	 36.0568
| 10> C 	 -5.18437 	 39.9061 	 36.6723
| 11> C 	 -5.55652 	 41.1367 	 36.9636
| 12> H 	 -4.27139 	 39.5287 	 36.9809
| 13> C 	 -5.91045 	 37.7131 	 35.6991
| 14> H 	 -4.91935 	 37.5572 	 35.256
| 15> H 	 -6.63701 	 37.4197 	 34.991
| 16> C 	 -5.84706 	 36.7183 	 36.847
| 17> H 	 -4.92045 	 37.0219 	 37.378
| 18> H 	 -6.66608 	 36.9541 	 37.5123
| 19> C 	 -5.87599 	 35.2763 	 36.3863
| 20> H 	 -6.78923 	 34.9756 	 35.8781
| 21> H 	 -5.09517 	 35.0886 	 35.6681
| 22> H 	 -5.88848 	 34.5031 	 37.1661
| 23> S 	 -5.00214 	 42.543 	 39.2855
| 24> C 	 -3.67932 	 43.6921 	 39.2342
| 25> C 	 -3.12973 	 43.7431 	 37.9919
| 26> C 	 -3.63602 	 42.7637 	 37.0838
| 27> C 	 -4.69992 	 42.104 	 37.6233
| 28> H 	 -2.26851 	 44.4006 	 37.8565
| 29> C 	 -3.02053 	 42.541 	 35.6997
| 30> H 	 -3.22673 	 43.4194 	 35.011
| 31> H 	 -3.52731 	 41.7647 	 35.1231
| 32> C 	 -1.49829 	 42.3113 	 35.6877
| 33> H 	 -1.23653 	 41.5524 	 36.4524
| 34> H 	 -0.930178 	 43.234 	 35.9991
| 35> C 	 -0.891219 	 41.844 	 34.3713
| 36> H 	 -1.19043 	 42.4686 	 33.5374
| 37> H 	 -1.29669 	 40.8803 	 34.0964
| 38> H 	 0.191847 	 41.7116 	 34.5054
| 39> H 	 -8.28089 	 39.4312 	 35.5657
| 40> H 	 -3.29335 	 44.1264 	 40.1356
| 41> *
| 42>
| 43>                          ****END OF INPUT****

CARTESIAN COORDINATES (ANGSTROEM)
---------------------------------
  S     -7.283150   41.405000   36.800700
  C     -7.379270   39.908500   35.872700
  C     -6.237350   39.122800   36.056800
  C     -5.184370   39.906100   36.672300
  C     -5.556520   41.136700   36.963600
  H     -4.271390   39.528700   36.980900
  C     -5.910450   37.713100   35.699100
  H     -4.919350   37.557200   35.256000
  H     -6.637010   37.419700   34.991000
  C     -5.847060   36.718300   36.847000
  H     -4.920450   37.021900   37.378000
  H     -6.666080   36.954100   37.512300
  C     -5.875990   35.276300   36.386300
  H     -6.789230   34.975600   35.878100
  H     -5.095170   35.088600   35.668100
  H     -5.888480   34.503100   37.166100
  S     -5.002140   42.543000   39.285500
  C     -3.679320   43.692100   39.234200
  C     -3.129730   43.743100   37.991900
  C     -3.636020   42.763700   37.083800
  C     -4.699920   42.104000   37.623300
  H     -2.268510   44.400600   37.856500
  C     -3.020530   42.541000   35.699700
  H     -3.226730   43.419400   35.011000
  H     -3.527310   41.764700   35.123100
  C     -1.498290   42.311300   35.687700
  H     -1.236530   41.552400   36.452400
  H     -0.930178   43.234000   35.999100
  C     -0.891219   41.844000   34.371300
  H     -1.190430   42.468600   33.537400
  H     -1.296690   40.880300   34.096400
  H      0.191847   41.711600   34.505400
  H     -8.280890   39.431200   35.565700
  H     -3.293350   44.126400   40.135600

 Total Charge           Charge          ....    0
 Multiplicity           Mult            ....    1
 Number of Electrons    NEL             ....  134
 Basis Dimension        Dim             ....  322

ORBITAL ENERGIES
----------------

  NO   OCC          E(Eh)            E(eV)
   0   2.0000     -88.965249     -2420.8675
   1   2.0000     -88.962390     -2420.7897
   2   2.0000     -10.320187      -280.8266
   3   2.0000     -10.319315      -280.8028
   4   2.0000     -10.314394      -280.6689
   5   2.0000     -10.314140      -280.6620
   6   2.0000     -10.302432      -280.3434
   7   2.0000     -10.302341      -280.3410
   8   2.0000     -10.296349      -280.1779
   9   2.0000     -10.292313      -280.0681
  10   2.0000     -10.290785      -280.0265
  11   2.0000     -10.287563      -279.9388
  12   2.0000     -10.285818      -279.8913
  13   2.0000     -10.280443      -279.7451
  14   2.0000     -10.280419      -279.7444
  15   2.0000     -10.277567      -279.6668
  16   2.0000      -8.079946      -219.8665
  17   2.0000      -8.077636      -219.8037
  18   2.0000      -6.038572      -164.3179
  19   2.0000      -6.036111      -164.2509
  20   2.0000      -6.034842      -164.2164
  21   2.0000      -6.032104      -164.1419
  22   2.0000      -6.030183      -164.0896
  23   2.0000      -6.028383      -164.0407
  24   2.0000      -1.011378       -27.5210
  25   2.0000      -0.986639       -26.8478
  26   2.0000      -0.919573       -25.0229
  27   2.0000      -0.905282       -24.6340
  28   2.0000      -0.873119       -23.7588
  29   2.0000      -0.853428       -23.2230
  30   2.0000      -0.848637       -23.0926
  31   2.0000      -0.818316       -22.2675
  32   2.0000      -0.784471       -21.3466
  33   2.0000      -0.774448       -21.0738
  34   2.0000      -0.706598       -19.2275
  35   2.0000      -0.699062       -19.0224
  36   2.0000      -0.695348       -18.9214
  37   2.0000      -0.656569       -17.8661
  38   2.0000      -0.645996       -17.5784
  39   2.0000      -0.626801       -17.0561
  40   2.0000      -0.602813       -16.4034
  41   2.0000      -0.582515       -15.8510
  42   2.0000      -0.559724       -15.2309
  43   2.0000      -0.553061       -15.0496
  44   2.0000      -0.533456       -14.5161
  45   2.0000      -0.524742       -14.2790
  46   2.0000      -0.518037       -14.0965
  47   2.0000      -0.509985       -13.8774
  48   2.0000      -0.506892       -13.7932
  49   2.0000      -0.501969       -13.6593
  50   2.0000      -0.489681       -13.3249
  51   2.0000      -0.479464       -13.0469
  52   2.0000      -0.476390       -12.9632
  53   2.0000      -0.466721       -12.7001
  54   2.0000      -0.458016       -12.4633
  55   2.0000      -0.449943       -12.2436
  56   2.0000      -0.444525       -12.0961
  57   2.0000      -0.436776       -11.8853
  58   2.0000      -0.430492       -11.7143
  59   2.0000      -0.426815       -11.6142
  60   2.0000      -0.425017       -11.5653
  61   2.0000      -0.418396       -11.3851
  62   2.0000      -0.409991       -11.1564
  63   2.0000      -0.343987        -9.3604
  64   2.0000      -0.331361        -9.0168
  65   2.0000      -0.325630        -8.8609
  66   2.0000      -0.300811        -8.1855
  67   0.0000       0.042233         1.1492
  68   0.0000       0.059906         1.6301
  69   0.0000       0.108552         2.9538
  70   0.0000       0.124464         3.3868
  71   0.0000       0.126783         3.4499

MULLIKEN ATOMIC CHARGES
-----------------------
   0 S :    0.107417
   1 C :   -0.089756
   2 C :   -0.094074
   3 C :    0.046771
   4 C :   -0.136425
   5 H :   -0.013208
   6 C :    0.065538
   7 H :    0.026541
   8 H :    0.000885
   9 C :   -0.070294
  10 H :    0.030875
  11 H :    0.026405
  12 C :   -0.027075
  13 H :    0.021257
  14 H :    0.024599
  15 H :    0.035463
  16 S :    0.101763
  17 C :   -0.098962
  18 C :   -0.024781
  19 C :    0.000549
  20 C :   -0.183045
  21 H :    0.023804
  22 C :    0.067228
  23 H :    0.037123
  24 H :    0.021392
  25 C :   -0.123543
  26 H :    0.032629
  27 H :    0.035777
  28 C :   -0.027005
  29 H :    0.028494
  30 H :    0.017295
  31 H :    0.044384
  32 H :    0.035674
  33 H :    0.056305
Sum of atomic charges:   -0.0000000

LOEWDIN ATOMIC CHARGES
----------------------
   0 S :    0.391335
   1 C :   -0.192979
   2 C :   -0.048965
   3 C :   -0.050985
   4 C :   -0.182761
   5 H :    0.020832
   6 C :   -0.035245
   7 H :    0.032777
   8 H :    0.020453
   9 C :   -0.038733
  10 H :    0.026072
  11 H :    0.021589
  12 C :   -0.067573
  13 H :    0.027226
  14 H :    0.023611
  15 H :    0.030872
  16 S :    0.394457
  17 C :   -0.176551
  18 C :   -0.068338
  19 C :   -0.054645
  20 C :   -0.198230
  21 H :    0.033955
  22 C :   -0.038006
  23 H :    0.039339
  24 H :    0.028884
  25 C :   -0.049416
  26 H :    0.025186
  27 H :    0.025213
  28 C :   -0.065001
  29 H :    0.023832
  30 H :    0.021135
  31 H :    0.032776
  32 H :    0.021186
  33 H :    0.026699

  Mayer bond orders larger than 0.100000
B(  0-S ,  1-C ) :   1.1155 B(  0-S ,  4-C ) :   1.1244 B(  1-C ,  2-C ) :   1.6519
B(  1-C , 32-H ) :   0.9636 B(  2-C ,  3-C ) :   1.1796 B(  2-C ,  6-C ) :   1.0473
B(  3-C ,  4-C ) :   1.6346 B(  3-C ,  5-H ) :   1.0100 B(  4-C , 20-C ) :   1.0125
B(  6-C ,  7-H ) :   0.9420 B(  6-C ,  8-H ) :   0.9353 B(  6-C ,  9-C ) :   1.0501
B(  9-C , 10-H ) :   0.9548 B(  9-C , 11-H ) :   0.9555 B(  9-C , 12-C ) :   1.0858
B( 12-C , 13-H ) :   0.9710 B( 12-C , 14-H ) :   0.9719 B( 12-C , 15-H ) :   0.9726
B( 16-S , 17-C ) :   1.1397 B( 16-S , 20-C ) :   1.1425 B( 17-C , 18-C ) :   1.6346
B( 17-C , 33-H ) :   0.9704 B( 18-C , 19-C ) :   1.2125 B( 18-C , 21-H ) :   0.9874
B( 19-C , 20-C ) :   1.6364 B( 19-C , 22-C ) :   1.0477 B( 22-C , 23-H ) :   0.9288
B( 22-C , 24-H ) :   0.9360 B( 22-C , 25-C ) :   1.0500 B( 25-C , 26-H ) :   0.9580
B( 25-C , 27-H ) :   0.9506 B( 25-C , 28-C ) :   1.0941 B( 28-C , 29-H ) :   0.9723
B( 28-C , 30-H ) :   0.9713 B( 28-C , 31-H ) :   0.9730

Dispersion correction           -0.013797416
FINAL SINGLE POINT ENERGY     -1339.874961477431

DIPOLE MOMENT
-------------
                                X             Y             Z
Electronic contribution:    -15.67642      18.68354      14.40745
Nuclear contribution   :     16.16781     -19.15715     -14.56417
                        -----------------------------------------
Total Dipole Moment    :      0.49139      -0.47361      -0.15671
                        -----------------------------------------
Magnitude (a.u.)       :      0.70024
Magnitude (Debye)      :      1.77986

Rotational constants in cm-1:     0.016781     0.008424     0.006705
Rotational constants in MHz :   503.074963   252.552504   201.006567

                             ****ORCA TERMINATED NORMALLY****
TOTAL RUN TIME: 0 days 0 hours 0 minutes 32 seconds 890 msec
