                         Program Version 4.2.1 -  RELEASE  -
|  1> ! wB97X-D3 SP def2-SVP
|  2> %pal
|  3> nprocs 16
|  4> end
|  5>
|  6> * xyz 0 1
|  7> S 	 -42.8165 	 37.998 	 98.6932
|  8> C 	 -44.0439 	 38.7964 	 97.7995
|  9> C 	 -45.2692 	 38.7898 	 98.4521
| 10> C 	 -45.2236 	 38.072 	 99.6897
| 11> C 	 -43.9273 	 37.6226 	 99.9955
| 12> H 	 -46.089 	 37.9978 	 100.401
| 13> C 	 -46.488 	 39.4932 	 97.9131
| 14> H 	 -47.3606 	 39.1322 	 98.4834
| 15> H 	 -46.7606 	 39.1582 	 96.9491
| 16> C 	 -46.6957 	 41.023 	 98.1745
| 17> H 	 -47.2914 	 41.1438 	 99.1002
| 18> H 	 -45.6832 	 41.3975 	 98.2246
| 19> C 	 -47.5214 	 41.8072 	 97.1243
| 20> H 	 -47.2026 	 41.5931 	 96.0976
| 21> H 	 -48.6253 	 41.5232 	 97.267
| 22> H 	 -47.6924 	 42.9208 	 97.1663
| 23> S 	 -42.2581 	 35.7829 	 101.185
| 24> C 	 -42.2174 	 35.6997 	 102.958
| 25> C 	 -43.1211 	 36.5428 	 103.563
| 26> C 	 -43.7523 	 37.3742 	 102.601
| 27> C 	 -43.4478 	 37.0941 	 101.266
| 28> H 	 -43.1861 	 36.4858 	 104.676
| 29> C 	 -44.6818 	 38.464 	 103.049
| 30> H 	 -44.7744 	 39.1976 	 102.32
| 31> H 	 -44.1039 	 38.9489 	 103.876
| 32> C 	 -46.1114 	 38.0455 	 103.558
| 33> H 	 -45.9967 	 37.3656 	 104.45
| 34> H 	 -46.5872 	 37.5875 	 102.732
| 35> C 	 -46.9966 	 39.2006 	 103.978
| 36> H 	 -47.1279 	 39.2856 	 105.072
| 37> H 	 -47.9849 	 39.1234 	 103.528
| 38> H 	 -46.6323 	 40.1708 	 103.603
| 39> H 	 -43.9349 	 39.3864 	 96.845
| 40> H 	 -41.6088 	 35.0118 	 103.56
| 41> *
| 42>
| 43>                          ****END OF INPUT****

CARTESIAN COORDINATES (ANGSTROEM)
---------------------------------
  S    -42.816500   37.998000   98.693200
  C    -44.043900   38.796400   97.799500
  C    -45.269200   38.789800   98.452100
  C    -45.223600   38.072000   99.689700
  C    -43.927300   37.622600   99.995500
  H    -46.089000   37.997800  100.401000
  C    -46.488000   39.493200   97.913100
  H    -47.360600   39.132200   98.483400
  H    -46.760600   39.158200   96.949100
  C    -46.695700   41.023000   98.174500
  H    -47.291400   41.143800   99.100200
  H    -45.683200   41.397500   98.224600
  C    -47.521400   41.807200   97.124300
  H    -47.202600   41.593100   96.097600
  H    -48.625300   41.523200   97.267000
  H    -47.692400   42.920800   97.166300
  S    -42.258100   35.782900  101.185000
  C    -42.217400   35.699700  102.958000
  C    -43.121100   36.542800  103.563000
  C    -43.752300   37.374200  102.601000
  C    -43.447800   37.094100  101.266000
  H    -43.186100   36.485800  104.676000
  C    -44.681800   38.464000  103.049000
  H    -44.774400   39.197600  102.320000
  H    -44.103900   38.948900  103.876000
  C    -46.111400   38.045500  103.558000
  H    -45.996700   37.365600  104.450000
  H    -46.587200   37.587500  102.732000
  C    -46.996600   39.200600  103.978000
  H    -47.127900   39.285600  105.072000
  H    -47.984900   39.123400  103.528000
  H    -46.632300   40.170800  103.603000
  H    -43.934900   39.386400   96.845000
  H    -41.608800   35.011800  103.560000

 Total Charge           Charge          ....    0
 Multiplicity           Mult            ....    1
 Number of Electrons    NEL             ....  134
 Basis Dimension        Dim             ....  322

ORBITAL ENERGIES
----------------

  NO   OCC          E(Eh)            E(eV)
   0   2.0000     -88.972291     -2421.0591
   1   2.0000     -88.965408     -2420.8718
   2   2.0000     -10.334481      -281.2155
   3   2.0000     -10.329908      -281.0911
   4   2.0000     -10.320417      -280.8328
   5   2.0000     -10.317441      -280.7519
   6   2.0000     -10.304842      -280.4090
   7   2.0000     -10.304006      -280.3862
   8   2.0000     -10.303042      -280.3600
   9   2.0000     -10.297712      -280.2150
  10   2.0000     -10.294310      -280.1224
  11   2.0000     -10.291344      -280.0417
  12   2.0000     -10.290173      -280.0098
  13   2.0000     -10.289836      -280.0007
  14   2.0000     -10.286859      -279.9197
  15   2.0000     -10.279538      -279.7204
  16   2.0000      -8.087277      -220.0660
  17   2.0000      -8.079525      -219.8550
  18   2.0000      -6.045744      -164.5131
  19   2.0000      -6.041659      -164.4019
  20   2.0000      -6.038136      -164.3060
  21   2.0000      -6.038082      -164.3046
  22   2.0000      -6.034176      -164.1983
  23   2.0000      -6.030230      -164.0909
  24   2.0000      -1.007026       -27.4026
  25   2.0000      -0.984050       -26.7774
  26   2.0000      -0.909392       -24.7458
  27   2.0000      -0.906032       -24.6544
  28   2.0000      -0.869427       -23.6583
  29   2.0000      -0.854465       -23.2512
  30   2.0000      -0.848481       -23.0883
  31   2.0000      -0.814888       -22.1742
  32   2.0000      -0.781966       -21.2784
  33   2.0000      -0.768677       -20.9168
  34   2.0000      -0.706282       -19.2189
  35   2.0000      -0.699381       -19.0311
  36   2.0000      -0.694740       -18.9048
  37   2.0000      -0.661778       -18.0079
  38   2.0000      -0.634693       -17.2709
  39   2.0000      -0.619892       -16.8681
  40   2.0000      -0.592766       -16.1300
  41   2.0000      -0.577036       -15.7019
  42   2.0000      -0.568828       -15.4786
  43   2.0000      -0.558405       -15.1950
  44   2.0000      -0.525847       -14.3090
  45   2.0000      -0.521353       -14.1867
  46   2.0000      -0.517910       -14.0931
  47   2.0000      -0.507612       -13.8128
  48   2.0000      -0.504490       -13.7279
  49   2.0000      -0.497643       -13.5415
  50   2.0000      -0.487950       -13.2778
  51   2.0000      -0.481108       -13.0916
  52   2.0000      -0.476041       -12.9537
  53   2.0000      -0.464827       -12.6486
  54   2.0000      -0.460018       -12.5177
  55   2.0000      -0.450492       -12.2585
  56   2.0000      -0.448533       -12.2052
  57   2.0000      -0.436956       -11.8902
  58   2.0000      -0.429089       -11.6761
  59   2.0000      -0.424049       -11.5389
  60   2.0000      -0.422187       -11.4883
  61   2.0000      -0.417568       -11.3626
  62   2.0000      -0.401784       -10.9331
  63   2.0000      -0.352575        -9.5941
  64   2.0000      -0.336338        -9.1522
  65   2.0000      -0.330516        -8.9938
  66   2.0000      -0.286850        -7.8056
  67   0.0000       0.024113         0.6561
  68   0.0000       0.071853         1.9552
  69   0.0000       0.102801         2.7973
  70   0.0000       0.120801         3.2872
  71   0.0000       0.121056         3.2941

MULLIKEN ATOMIC CHARGES
-----------------------
   0 S :    0.132310
   1 C :   -0.118438
   2 C :   -0.122604
   3 C :    0.025314
   4 C :   -0.140594
   5 H :    0.026301
   6 C :    0.063329
   7 H :    0.008191
   8 H :    0.023701
   9 C :   -0.051753
  10 H :    0.040546
  11 H :    0.035573
  12 C :   -0.108329
  13 H :    0.037060
  14 H :    0.030408
  15 H :    0.046847
  16 S :    0.090285
  17 C :   -0.095009
  18 C :   -0.052493
  19 C :   -0.030405
  20 C :   -0.137327
  21 H :    0.040824
  22 C :    0.048624
  23 H :    0.005783
  24 H :    0.028626
  25 C :   -0.059021
  26 H :    0.039968
  27 H :    0.021165
  28 C :   -0.048789
  29 H :    0.040593
  30 H :    0.028578
  31 H :    0.024469
  32 H :    0.067554
  33 H :    0.058713
Sum of atomic charges:    0.0000000

LOEWDIN ATOMIC CHARGES
----------------------
   0 S :    0.430727
   1 C :   -0.216331
   2 C :   -0.070884
   3 C :   -0.063068
   4 C :   -0.197240
   5 H :    0.039180
   6 C :   -0.039715
   7 H :    0.035221
   8 H :    0.025355
   9 C :   -0.037496
  10 H :    0.029376
  11 H :    0.020328
  12 C :   -0.085391
  13 H :    0.021386
  14 H :    0.030520
  15 H :    0.034556
  16 S :    0.379550
  17 C :   -0.173890
  18 C :   -0.076578
  19 C :   -0.055182
  20 C :   -0.192781
  21 H :    0.045071
  22 C :   -0.031475
  23 H :    0.015629
  24 H :    0.035800
  25 C :   -0.037570
  26 H :    0.031909
  27 H :    0.016178
  28 C :   -0.071227
  29 H :    0.029163
  30 H :    0.027154
  31 H :    0.025700
  32 H :    0.043811
  33 H :    0.032213

  Mayer bond orders larger than 0.100000
B(  0-S ,  1-C ) :   1.1490 B(  0-S ,  4-C ) :   1.1678 B(  1-C ,  2-C ) :   1.5935
B(  1-C , 32-H ) :   0.9594 B(  2-C ,  3-C ) :   1.2744 B(  2-C ,  6-C ) :   1.0378
B(  3-C ,  4-C ) :   1.5303 B(  3-C ,  5-H ) :   0.9851 B(  4-C , 20-C ) :   1.0510
B(  6-C ,  7-H ) :   0.9379 B(  6-C ,  8-H ) :   0.9466 B(  6-C ,  9-C ) :   1.0237
B(  9-C , 10-H ) :   0.9681 B(  9-C , 11-H ) :   0.9659 B(  9-C , 12-C ) :   1.0650
B( 12-C , 13-H ) :   0.9789 B( 12-C , 14-H ) :   0.9759 B( 12-C , 15-H ) :   0.9752
B( 16-S , 17-C ) :   1.1471 B( 16-S , 20-C ) :   1.1180 B( 17-C , 18-C ) :   1.6395
B( 17-C , 33-H ) :   0.9610 B( 18-C , 19-C ) :   1.2180 B( 18-C , 21-H ) :   0.9848
B( 19-C , 20-C ) :   1.6010 B( 19-C , 22-C ) :   1.0501 B( 22-C , 23-H ) :   0.9290
B( 22-C , 24-H ) :   0.9331 B( 22-C , 25-C ) :   1.0679 B( 25-C , 26-H ) :   0.9578
B( 25-C , 27-H ) :   0.9590 B( 25-C , 28-C ) :   1.0733 B( 28-C , 29-H ) :   0.9782
B( 28-C , 30-H ) :   0.9773 B( 28-C , 31-H ) :   0.9738

Dispersion correction           -0.013860817
FINAL SINGLE POINT ENERGY     -1339.866174730607

DIPOLE MOMENT
-------------
                                X             Y             Z
Electronic contribution:     26.82930     -19.97859      -4.27241
Nuclear contribution   :    -27.38720      20.37631       4.58753
                        -----------------------------------------
Total Dipole Moment    :     -0.55789       0.39772       0.31512
                        -----------------------------------------
Magnitude (a.u.)       :      0.75414
Magnitude (Debye)      :      1.91687

Rotational constants in cm-1:     0.018064     0.008708     0.006104
Rotational constants in MHz :   541.530986   261.061417   182.982352

                             ****ORCA TERMINATED NORMALLY****
TOTAL RUN TIME: 0 days 0 hours 0 minutes 30 seconds 210 msec
