                         Program Version 4.2.1 -  RELEASE  -
|  1> ! wB97X-D3 SP def2-SVP
|  2> %pal
|  3> nprocs 16
|  4> end
|  5>
|  6> * xyz 0 1
|  7> S 	 6.02358 	 25.5278 	 67.4078
|  8> C 	 5.00572 	 24.3738 	 66.6943
|  9> C 	 5.50411 	 23.1017 	 66.8678
| 10> C 	 6.68436 	 23.0996 	 67.6199
| 11> C 	 7.14292 	 24.3512 	 68.1061
| 12> H 	 7.23504 	 22.1543 	 67.9323
| 13> C 	 5.01474 	 21.7444 	 66.3737
| 14> H 	 5.94645 	 21.2066 	 66.034
| 15> H 	 4.43901 	 21.9078 	 65.4771
| 16> C 	 4.29309 	 20.9096 	 67.4022
| 17> H 	 4.30019 	 19.8742 	 67.1165
| 18> H 	 4.86993 	 20.9501 	 68.2719
| 19> C 	 2.83932 	 21.2876 	 67.738
| 20> H 	 2.64256 	 22.3333 	 67.9733
| 21> H 	 2.1442 	 20.9796 	 66.9556
| 22> H 	 2.55534 	 20.796 	 68.7247
| 23> S 	 9.42424 	 23.3525 	 69.3163
| 24> C 	 10.518 	 24.4707 	 70.131
| 25> C 	 10.0626 	 25.7354 	 70.1694
| 26> C 	 8.88713 	 25.9271 	 69.3947
| 27> C 	 8.37892 	 24.7385 	 68.9239
| 28> H 	 10.707 	 26.5118 	 70.5981
| 29> C 	 8.24547 	 27.3064 	 69.2335
| 30> H 	 8.63126 	 27.752 	 70.1881
| 31> H 	 7.12485 	 27.3107 	 69.5073
| 32> C 	 8.65008 	 28.2426 	 68.0574
| 33> H 	 8.13977 	 28.0095 	 67.0849
| 34> H 	 9.69381 	 28.0172 	 67.7617
| 35> C 	 8.42619 	 29.721 	 68.2459
| 36> H 	 9.19437 	 30.1287 	 68.881
| 37> H 	 7.45897 	 29.9857 	 68.7307
| 38> H 	 8.48323 	 30.2833 	 67.3637
| 39> H 	 4.06042 	 24.5652 	 66.1531
| 40> H 	 11.495 	 24.1772 	 70.5461
| 41> *
| 42>
| 43>                          ****END OF INPUT****

CARTESIAN COORDINATES (ANGSTROEM)
---------------------------------
  S      6.023580   25.527800   67.407800
  C      5.005720   24.373800   66.694300
  C      5.504110   23.101700   66.867800
  C      6.684360   23.099600   67.619900
  C      7.142920   24.351200   68.106100
  H      7.235040   22.154300   67.932300
  C      5.014740   21.744400   66.373700
  H      5.946450   21.206600   66.034000
  H      4.439010   21.907800   65.477100
  C      4.293090   20.909600   67.402200
  H      4.300190   19.874200   67.116500
  H      4.869930   20.950100   68.271900
  C      2.839320   21.287600   67.738000
  H      2.642560   22.333300   67.973300
  H      2.144200   20.979600   66.955600
  H      2.555340   20.796000   68.724700
  S      9.424240   23.352500   69.316300
  C     10.518000   24.470700   70.131000
  C     10.062600   25.735400   70.169400
  C      8.887130   25.927100   69.394700
  C      8.378920   24.738500   68.923900
  H     10.707000   26.511800   70.598100
  C      8.245470   27.306400   69.233500
  H      8.631260   27.752000   70.188100
  H      7.124850   27.310700   69.507300
  C      8.650080   28.242600   68.057400
  H      8.139770   28.009500   67.084900
  H      9.693810   28.017200   67.761700
  C      8.426190   29.721000   68.245900
  H      9.194370   30.128700   68.881000
  H      7.458970   29.985700   68.730700
  H      8.483230   30.283300   67.363700
  H      4.060420   24.565200   66.153100
  H     11.495000   24.177200   70.546100

 Total Charge           Charge          ....    0
 Multiplicity           Mult            ....    1
 Number of Electrons    NEL             ....  134
 Basis Dimension        Dim             ....  322

ORBITAL ENERGIES
----------------

  NO   OCC          E(Eh)            E(eV)
   0   2.0000     -88.967603     -2420.9315
   1   2.0000     -88.967170     -2420.9198
   2   2.0000     -10.340551      -281.3807
   3   2.0000     -10.338849      -281.3344
   4   2.0000     -10.318848      -280.7901
   5   2.0000     -10.312823      -280.6262
   6   2.0000     -10.307404      -280.4787
   7   2.0000     -10.304308      -280.3945
   8   2.0000     -10.297149      -280.1997
   9   2.0000     -10.295534      -280.1557
  10   2.0000     -10.293926      -280.1120
  11   2.0000     -10.292058      -280.0611
  12   2.0000     -10.291502      -280.0460
  13   2.0000     -10.280154      -279.7372
  14   2.0000     -10.278633      -279.6958
  15   2.0000     -10.272819      -279.5376
  16   2.0000      -8.081753      -219.9157
  17   2.0000      -8.081599      -219.9115
  18   2.0000      -6.040340      -164.3660
  19   2.0000      -6.040074      -164.3588
  20   2.0000      -6.036557      -164.2631
  21   2.0000      -6.035897      -164.2451
  22   2.0000      -6.032659      -164.1570
  23   2.0000      -6.032280      -164.1467
  24   2.0000      -1.006040       -27.3757
  25   2.0000      -0.990158       -26.9436
  26   2.0000      -0.911788       -24.8110
  27   2.0000      -0.902690       -24.5634
  28   2.0000      -0.866177       -23.5699
  29   2.0000      -0.856064       -23.2947
  30   2.0000      -0.845458       -23.0061
  31   2.0000      -0.812725       -22.1154
  32   2.0000      -0.782564       -21.2946
  33   2.0000      -0.774168       -21.0662
  34   2.0000      -0.707385       -19.2489
  35   2.0000      -0.699713       -19.0402
  36   2.0000      -0.688584       -18.7373
  37   2.0000      -0.667464       -18.1626
  38   2.0000      -0.629412       -17.1272
  39   2.0000      -0.618394       -16.8274
  40   2.0000      -0.595734       -16.2107
  41   2.0000      -0.572326       -15.5738
  42   2.0000      -0.551696       -15.0124
  43   2.0000      -0.544030       -14.8038
  44   2.0000      -0.534923       -14.5560
  45   2.0000      -0.526124       -14.3166
  46   2.0000      -0.518469       -14.1083
  47   2.0000      -0.514746       -14.0069
  48   2.0000      -0.510462       -13.8904
  49   2.0000      -0.491926       -13.3860
  50   2.0000      -0.484195       -13.1756
  51   2.0000      -0.479979       -13.0609
  52   2.0000      -0.469127       -12.7656
  53   2.0000      -0.464663       -12.6441
  54   2.0000      -0.457246       -12.4423
  55   2.0000      -0.455833       -12.4038
  56   2.0000      -0.441572       -12.0158
  57   2.0000      -0.436605       -11.8806
  58   2.0000      -0.432312       -11.7638
  59   2.0000      -0.425708       -11.5841
  60   2.0000      -0.422713       -11.5026
  61   2.0000      -0.409296       -11.1375
  62   2.0000      -0.398649       -10.8478
  63   2.0000      -0.364046        -9.9062
  64   2.0000      -0.337006        -9.1704
  65   2.0000      -0.330238        -8.9862
  66   2.0000      -0.284851        -7.7512
  67   0.0000       0.021402         0.5824
  68   0.0000       0.086532         2.3547
  69   0.0000       0.105543         2.8720
  70   0.0000       0.123958         3.3731
  71   0.0000       0.130084         3.5398

MULLIKEN ATOMIC CHARGES
-----------------------
   0 S :    0.104034
   1 C :   -0.120476
   2 C :   -0.099323
   3 C :   -0.034215
   4 C :   -0.121527
   5 H :    0.038213
   6 C :    0.060119
   7 H :    0.037532
   8 H :    0.011576
   9 C :   -0.009001
  10 H :    0.024515
  11 H :    0.007455
  12 C :   -0.076904
  13 H :    0.030636
  14 H :    0.036639
  15 H :    0.037207
  16 S :    0.080752
  17 C :   -0.089870
  18 C :   -0.021358
  19 C :   -0.085635
  20 C :   -0.089589
  21 H :    0.029481
  22 C :   -0.002377
  23 H :    0.019975
  24 H :    0.053525
  25 C :   -0.044396
  26 H :    0.031579
  27 H :    0.026393
  28 C :   -0.032771
  29 H :    0.021607
  30 H :    0.034782
  31 H :    0.023330
  32 H :    0.057211
  33 H :    0.060882
Sum of atomic charges:    0.0000000

LOEWDIN ATOMIC CHARGES
----------------------
   0 S :    0.437409
   1 C :   -0.222309
   2 C :   -0.075696
   3 C :   -0.084175
   4 C :   -0.189531
   5 H :    0.032883
   6 C :   -0.028631
   7 H :    0.041246
   8 H :    0.023003
   9 C :   -0.038414
  10 H :    0.025754
  11 H :    0.017849
  12 C :   -0.070557
  13 H :    0.022939
  14 H :    0.023589
  15 H :    0.035737
  16 S :    0.383830
  17 C :   -0.174006
  18 C :   -0.075926
  19 C :   -0.067537
  20 C :   -0.169540
  21 H :    0.039475
  22 C :   -0.051629
  23 H :    0.036381
  24 H :    0.038225
  25 C :   -0.049186
  26 H :    0.026522
  27 H :    0.028500
  28 C :   -0.064072
  29 H :    0.021538
  30 H :    0.031134
  31 H :    0.021743
  32 H :    0.038956
  33 H :    0.034497

  Mayer bond orders larger than 0.100000
B(  0-S ,  1-C ) :   1.1632 B(  0-S ,  4-C ) :   1.1674 B(  1-C ,  2-C ) :   1.5745
B(  1-C ,  4-C ) :   0.1030 B(  1-C , 32-H ) :   0.9623 B(  2-C ,  3-C ) :   1.3144
B(  2-C ,  6-C ) :   1.0120 B(  3-C ,  4-C ) :   1.5319 B(  3-C ,  5-H ) :   0.9643
B(  4-C , 20-C ) :   1.0405 B(  6-C ,  7-H ) :   0.9401 B(  6-C ,  8-H ) :   0.9422
B(  6-C ,  9-C ) :   1.0739 B(  9-C , 10-H ) :   0.9509 B(  9-C , 11-H ) :   0.9514
B(  9-C , 12-C ) :   1.0784 B( 12-C , 13-H ) :   0.9770 B( 12-C , 14-H ) :   0.9771
B( 12-C , 15-H ) :   0.9732 B( 16-S , 17-C ) :   1.1367 B( 16-S , 20-C ) :   1.1257
B( 17-C , 18-C ) :   1.6607 B( 17-C , 33-H ) :   0.9593 B( 18-C , 19-C ) :   1.2252
B( 18-C , 21-H ) :   0.9796 B( 19-C , 20-C ) :   1.6335 B( 19-C , 22-C ) :   1.0198
B( 22-C , 23-H ) :   0.9384 B( 22-C , 24-H ) :   0.9344 B( 22-C , 25-C ) :   1.0412
B( 25-C , 26-H ) :   0.9537 B( 25-C , 27-H ) :   0.9542 B( 25-C , 28-C ) :   1.0856
B( 28-C , 29-H ) :   0.9738 B( 28-C , 30-H ) :   0.9745 B( 28-C , 31-H ) :   0.9723

Dispersion correction           -0.013860965
FINAL SINGLE POINT ENERGY     -1339.876758950458

DIPOLE MOMENT
-------------
                                X             Y             Z
Electronic contribution:     10.54632      -3.73772       2.82634
Nuclear contribution   :    -10.48274       3.81239      -2.83697
                        -----------------------------------------
Total Dipole Moment    :      0.06357       0.07468      -0.01063
                        -----------------------------------------
Magnitude (a.u.)       :      0.09865
Magnitude (Debye)      :      0.25074

Rotational constants in cm-1:     0.021285     0.007876     0.006056
Rotational constants in MHz :   638.096378   236.117140   181.568139

                             ****ORCA TERMINATED NORMALLY****
TOTAL RUN TIME: 0 days 0 hours 0 minutes 33 seconds 307 msec
