                         Program Version 4.2.1 -  RELEASE  -
|  1> ! wB97X-D3 SP def2-SVP
|  2> %pal
|  3> nprocs 16
|  4> end
|  5>
|  6> * xyz 0 1
|  7> S 	 14.8375 	 9.85588 	 88.4322
|  8> C 	 15.0318 	 9.81105 	 86.6902
|  9> C 	 14.085 	 10.669 	 86.0705
| 10> C 	 13.3665 	 11.3982 	 87.0349
| 11> C 	 13.6881 	 11.2381 	 88.3521
| 12> H 	 12.5141 	 12.0921 	 86.7479
| 13> C 	 14.021 	 10.9664 	 84.5908
| 14> H 	 13.2618 	 11.742 	 84.2675
| 15> H 	 13.6091 	 10.0233 	 84.2004
| 16> C 	 15.3276 	 11.3868 	 83.9352
| 17> H 	 16.1696 	 10.6713 	 83.9184
| 18> H 	 15.0209 	 11.5912 	 82.9264
| 19> C 	 15.8257 	 12.6801 	 84.5996
| 20> H 	 16.8975 	 12.8003 	 84.2821
| 21> H 	 15.1497 	 13.5161 	 84.2965
| 22> H 	 15.7573 	 12.6071 	 85.7271
| 23> S 	 14.1609 	 12.5874 	 90.7461
| 24> C 	 12.8259 	 12.8901 	 91.8381
| 25> C 	 11.5634 	 12.6863 	 91.187
| 26> C 	 11.7475 	 12.0757 	 89.9036
| 27> C 	 13.0594 	 11.8394 	 89.5597
| 28> H 	 10.6487 	 12.9178 	 91.6645
| 29> C 	 10.4633 	 11.7514 	 89.1153
| 30> H 	 10.4895 	 11.8352 	 88.0446
| 31> H 	 9.58217 	 12.3841 	 89.3391
| 32> C 	 10.0301 	 10.3412 	 89.4723
| 33> H 	 10.0281 	 10.2 	 90.5577
| 34> H 	 10.7621 	 9.62611 	 89.2025
| 35> C 	 8.79047 	 9.70375 	 88.7972
| 36> H 	 7.83979 	 10.3261 	 88.9721
| 37> H 	 8.56102 	 8.77987 	 89.2661
| 38> H 	 9.01808 	 9.35725 	 87.8221
| 39> H 	 15.7772 	 9.19908 	 86.1897
| 40> H 	 12.987 	 13.1869 	 92.8863
| 41> *
| 42>
| 43>                          ****END OF INPUT****

CARTESIAN COORDINATES (ANGSTROEM)
---------------------------------
  S     14.837500    9.855880   88.432200
  C     15.031800    9.811050   86.690200
  C     14.085000   10.669000   86.070500
  C     13.366500   11.398200   87.034900
  C     13.688100   11.238100   88.352100
  H     12.514100   12.092100   86.747900
  C     14.021000   10.966400   84.590800
  H     13.261800   11.742000   84.267500
  H     13.609100   10.023300   84.200400
  C     15.327600   11.386800   83.935200
  H     16.169600   10.671300   83.918400
  H     15.020900   11.591200   82.926400
  C     15.825700   12.680100   84.599600
  H     16.897500   12.800300   84.282100
  H     15.149700   13.516100   84.296500
  H     15.757300   12.607100   85.727100
  S     14.160900   12.587400   90.746100
  C     12.825900   12.890100   91.838100
  C     11.563400   12.686300   91.187000
  C     11.747500   12.075700   89.903600
  C     13.059400   11.839400   89.559700
  H     10.648700   12.917800   91.664500
  C     10.463300   11.751400   89.115300
  H     10.489500   11.835200   88.044600
  H      9.582170   12.384100   89.339100
  C     10.030100   10.341200   89.472300
  H     10.028100   10.200000   90.557700
  H     10.762100    9.626110   89.202500
  C      8.790470    9.703750   88.797200
  H      7.839790   10.326100   88.972100
  H      8.561020    8.779870   89.266100
  H      9.018080    9.357250   87.822100
  H     15.777200    9.199080   86.189700
  H     12.987000   13.186900   92.886300

 Total Charge           Charge          ....    0
 Multiplicity           Mult            ....    1
 Number of Electrons    NEL             ....  134
 Basis Dimension        Dim             ....  322

ORBITAL ENERGIES
----------------

  NO   OCC          E(Eh)            E(eV)
   0   2.0000     -88.967750     -2420.9355
   1   2.0000     -88.966312     -2420.8964
   2   2.0000     -10.333284      -281.1829
   3   2.0000     -10.332583      -281.1639
   4   2.0000     -10.327408      -281.0231
   5   2.0000     -10.321007      -280.8489
   6   2.0000     -10.310913      -280.5742
   7   2.0000     -10.303471      -280.3717
   8   2.0000     -10.300090      -280.2797
   9   2.0000     -10.297318      -280.2043
  10   2.0000     -10.296400      -280.1793
  11   2.0000     -10.294308      -280.1224
  12   2.0000     -10.286461      -279.9088
  13   2.0000     -10.282220      -279.7934
  14   2.0000     -10.276758      -279.6448
  15   2.0000     -10.276646      -279.6417
  16   2.0000      -8.081961      -219.9213
  17   2.0000      -8.080066      -219.8698
  18   2.0000      -6.040426      -164.3683
  19   2.0000      -6.038608      -164.3189
  20   2.0000      -6.036570      -164.2634
  21   2.0000      -6.034652      -164.2112
  22   2.0000      -6.032767      -164.1599
  23   2.0000      -6.030896      -164.1090
  24   2.0000      -1.000142       -27.2152
  25   2.0000      -0.980598       -26.6834
  26   2.0000      -0.913354       -24.8536
  27   2.0000      -0.907888       -24.7049
  28   2.0000      -0.861152       -23.4331
  29   2.0000      -0.850048       -23.1310
  30   2.0000      -0.843192       -22.9444
  31   2.0000      -0.808774       -22.0079
  32   2.0000      -0.784748       -21.3541
  33   2.0000      -0.769263       -20.9327
  34   2.0000      -0.699670       -19.0390
  35   2.0000      -0.697061       -18.9680
  36   2.0000      -0.688521       -18.7356
  37   2.0000      -0.667687       -18.1687
  38   2.0000      -0.636771       -17.3274
  39   2.0000      -0.615683       -16.7536
  40   2.0000      -0.598770       -16.2934
  41   2.0000      -0.580061       -15.7843
  42   2.0000      -0.562689       -15.3115
  43   2.0000      -0.554675       -15.0935
  44   2.0000      -0.540113       -14.6972
  45   2.0000      -0.515407       -14.0249
  46   2.0000      -0.514198       -13.9920
  47   2.0000      -0.506825       -13.7914
  48   2.0000      -0.502658       -13.6780
  49   2.0000      -0.495785       -13.4910
  50   2.0000      -0.487001       -13.2520
  51   2.0000      -0.481972       -13.1151
  52   2.0000      -0.473580       -12.8868
  53   2.0000      -0.463142       -12.6027
  54   2.0000      -0.458784       -12.4842
  55   2.0000      -0.441201       -12.0057
  56   2.0000      -0.437400       -11.9022
  57   2.0000      -0.431622       -11.7450
  58   2.0000      -0.426398       -11.6029
  59   2.0000      -0.424105       -11.5405
  60   2.0000      -0.419593       -11.4177
  61   2.0000      -0.415601       -11.3091
  62   2.0000      -0.407545       -11.0898
  63   2.0000      -0.340891        -9.2761
  64   2.0000      -0.333561        -9.0767
  65   2.0000      -0.327053        -8.8996
  66   2.0000      -0.294372        -8.0103
  67   0.0000       0.022071         0.6006
  68   0.0000       0.063461         1.7269
  69   0.0000       0.101751         2.7688
  70   0.0000       0.111929         3.0457
  71   0.0000       0.135822         3.6959

MULLIKEN ATOMIC CHARGES
-----------------------
   0 S :    0.104689
   1 C :   -0.129706
   2 C :   -0.098577
   3 C :    0.003294
   4 C :   -0.129772
   5 H :    0.032251
   6 C :    0.033979
   7 H :    0.032979
   8 H :    0.038898
   9 C :   -0.061776
  10 H :    0.034693
  11 H :    0.028164
  12 C :   -0.092734
  13 H :    0.045643
  14 H :    0.034099
  15 H :    0.062582
  16 S :    0.111497
  17 C :   -0.114153
  18 C :   -0.021692
  19 C :   -0.004712
  20 C :   -0.173777
  21 H :    0.013283
  22 C :    0.092175
  23 H :    0.008230
  24 H :    0.022300
  25 C :   -0.100739
  26 H :    0.018690
  27 H :    0.015568
  28 C :   -0.018370
  29 H :    0.038193
  30 H :    0.014247
  31 H :    0.027968
  32 H :    0.057115
  33 H :    0.075469
Sum of atomic charges:   -0.0000000

LOEWDIN ATOMIC CHARGES
----------------------
   0 S :    0.390727
   1 C :   -0.193342
   2 C :   -0.071319
   3 C :   -0.071298
   4 C :   -0.189017
   5 H :    0.040342
   6 C :   -0.040202
   7 H :    0.037440
   8 H :    0.035206
   9 C :   -0.044442
  10 H :    0.022712
  11 H :    0.024136
  12 C :   -0.073053
  13 H :    0.030994
  14 H :    0.026824
  15 H :    0.034804
  16 S :    0.400855
  17 C :   -0.183151
  18 C :   -0.061809
  19 C :   -0.044339
  20 C :   -0.194649
  21 H :    0.026540
  22 C :   -0.029114
  23 H :    0.022290
  24 H :    0.033444
  25 C :   -0.047178
  26 H :    0.022588
  27 H :    0.021907
  28 C :   -0.067659
  29 H :    0.030699
  30 H :    0.024559
  31 H :    0.022056
  32 H :    0.029121
  33 H :    0.033326

  Mayer bond orders larger than 0.100000
B(  0-S ,  1-C ) :   1.1594 B(  0-S ,  4-C ) :   1.1392 B(  1-C ,  2-C ) :   1.5532
B(  1-C ,  4-C ) :   0.1129 B(  1-C , 32-H ) :   0.9729 B(  2-C ,  3-C ) :   1.2765
B(  2-C ,  6-C ) :   1.0102 B(  3-C ,  4-C ) :   1.5755 B(  3-C ,  5-H ) :   0.9824
B(  4-C , 20-C ) :   1.0240 B(  6-C ,  7-H ) :   0.9529 B(  6-C ,  8-H ) :   0.9279
B(  6-C ,  9-C ) :   1.0745 B(  9-C , 10-H ) :   0.9589 B(  9-C , 11-H ) :   0.9552
B(  9-C , 12-C ) :   1.0618 B( 12-C , 13-H ) :   0.9754 B( 12-C , 14-H ) :   0.9748
B( 12-C , 15-H ) :   0.9755 B( 16-S , 17-C ) :   1.1741 B( 16-S , 20-C ) :   1.1381
B( 17-C , 18-C ) :   1.5685 B( 17-C , 20-C ) :   0.1065 B( 17-C , 33-H ) :   0.9667
B( 18-C , 19-C ) :   1.2450 B( 18-C , 21-H ) :   0.9981 B( 19-C , 20-C ) :   1.6065
B( 19-C , 22-C ) :   1.0351 B( 22-C , 23-H ) :   0.9385 B( 22-C , 24-H ) :   0.9386
B( 22-C , 25-C ) :   1.0578 B( 25-C , 26-H ) :   0.9562 B( 25-C , 27-H ) :   0.9518
B( 25-C , 28-C ) :   1.0877 B( 28-C , 29-H ) :   0.9728 B( 28-C , 30-H ) :   0.9668
B( 28-C , 31-H ) :   0.9738

Dispersion correction           -0.014527045
FINAL SINGLE POINT ENERGY     -1339.861602397781

DIPOLE MOMENT
-------------
                                X             Y             Z
Electronic contribution:     12.99182       1.11832      17.79355
Nuclear contribution   :    -13.43230      -1.13038     -18.16635
                        -----------------------------------------
Total Dipole Moment    :     -0.44048      -0.01206      -0.37281
                        -----------------------------------------
Magnitude (a.u.)       :      0.57720
Magnitude (Debye)      :      1.46712

Rotational constants in cm-1:     0.018547     0.008502     0.006980
Rotational constants in MHz :   556.035198   254.885369   209.249309

                             ****ORCA TERMINATED NORMALLY****
TOTAL RUN TIME: 0 days 0 hours 0 minutes 34 seconds 516 msec
