                         Program Version 4.2.1 -  RELEASE  -
|  1> ! wB97X-D3 SP def2-SVP
|  2> %pal
|  3> nprocs 16
|  4> end
|  5>
|  6> * xyz 0 1
|  7> S 	 -36.5661 	 73.4453 	 152.1
|  8> C 	 -35.6858 	 74.9476 	 151.837
|  9> C 	 -34.4181 	 74.7778 	 151.313
| 10> C 	 -34.3034 	 73.478 	 150.774
| 11> C 	 -35.2906 	 72.5866 	 151.215
| 12> H 	 -33.4741 	 73.1685 	 150.162
| 13> C 	 -33.3094 	 75.8073 	 151.157
| 14> H 	 -33.8976 	 76.6306 	 151.429
| 15> H 	 -33.2348 	 75.9656 	 150.051
| 16> C 	 -31.9588 	 75.5318 	 151.962
| 17> H 	 -32.0834 	 75.4633 	 153.052
| 18> H 	 -31.6282 	 74.524 	 151.718
| 19> C 	 -30.8219 	 76.5937 	 151.659
| 20> H 	 -30.8663 	 76.941 	 150.696
| 21> H 	 -30.8668 	 77.4376 	 152.357
| 22> H 	 -29.8706 	 76.1501 	 151.849
| 23> S 	 -37.1573 	 70.7214 	 150.359
| 24> C 	 -36.6825 	 69.1718 	 149.855
| 25> C 	 -35.3297 	 68.9746 	 150.008
| 26> C 	 -34.633 	 70.1532 	 150.484
| 27> C 	 -35.4961 	 71.171 	 150.831
| 28> H 	 -34.9397 	 68.0184 	 149.827
| 29> C 	 -33.092 	 70.0418 	 150.778
| 30> H 	 -32.8236 	 69.0236 	 151.103
| 31> H 	 -32.9111 	 70.789 	 151.557
| 32> C 	 -32.1816 	 70.3074 	 149.646
| 33> H 	 -32.5089 	 71.2327 	 149.169
| 34> H 	 -32.436 	 69.5851 	 148.876
| 35> C 	 -30.6884 	 70.37 	 150.022
| 36> H 	 -30.2178 	 69.4453 	 150.296
| 37> H 	 -30.5818 	 71.205 	 150.719
| 38> H 	 -30.378 	 70.6951 	 149.03
| 39> H 	 -35.9882 	 75.7939 	 152.383
| 40> H 	 -37.2909 	 68.3714 	 149.515
| 41> *
| 42>
| 43>                          ****END OF INPUT****

CARTESIAN COORDINATES (ANGSTROEM)
---------------------------------
  S    -36.566100   73.445300  152.100000
  C    -35.685800   74.947600  151.837000
  C    -34.418100   74.777800  151.313000
  C    -34.303400   73.478000  150.774000
  C    -35.290600   72.586600  151.215000
  H    -33.474100   73.168500  150.162000
  C    -33.309400   75.807300  151.157000
  H    -33.897600   76.630600  151.429000
  H    -33.234800   75.965600  150.051000
  C    -31.958800   75.531800  151.962000
  H    -32.083400   75.463300  153.052000
  H    -31.628200   74.524000  151.718000
  C    -30.821900   76.593700  151.659000
  H    -30.866300   76.941000  150.696000
  H    -30.866800   77.437600  152.357000
  H    -29.870600   76.150100  151.849000
  S    -37.157300   70.721400  150.359000
  C    -36.682500   69.171800  149.855000
  C    -35.329700   68.974600  150.008000
  C    -34.633000   70.153200  150.484000
  C    -35.496100   71.171000  150.831000
  H    -34.939700   68.018400  149.827000
  C    -33.092000   70.041800  150.778000
  H    -32.823600   69.023600  151.103000
  H    -32.911100   70.789000  151.557000
  C    -32.181600   70.307400  149.646000
  H    -32.508900   71.232700  149.169000
  H    -32.436000   69.585100  148.876000
  C    -30.688400   70.370000  150.022000
  H    -30.217800   69.445300  150.296000
  H    -30.581800   71.205000  150.719000
  H    -30.378000   70.695100  149.030000
  H    -35.988200   75.793900  152.383000
  H    -37.290900   68.371400  149.515000

 Total Charge           Charge          ....    0
 Multiplicity           Mult            ....    1
 Number of Electrons    NEL             ....  134
 Basis Dimension        Dim             ....  322

ORBITAL ENERGIES
----------------

  NO   OCC          E(Eh)            E(eV)
   0   2.0000     -88.967732     -2420.9351
   1   2.0000     -88.962584     -2420.7950
   2   2.0000     -10.335145      -281.2336
   3   2.0000     -10.329538      -281.0810
   4   2.0000     -10.310582      -280.5652
   5   2.0000     -10.309996      -280.5493
   6   2.0000     -10.306181      -280.4454
   7   2.0000     -10.302351      -280.3412
   8   2.0000     -10.300648      -280.2949
   9   2.0000     -10.298326      -280.2317
  10   2.0000     -10.292726      -280.0793
  11   2.0000     -10.289081      -279.9801
  12   2.0000     -10.287502      -279.9372
  13   2.0000     -10.281496      -279.7737
  14   2.0000     -10.280975      -279.7596
  15   2.0000     -10.276735      -279.6442
  16   2.0000      -8.081936      -219.9207
  17   2.0000      -8.077838      -219.8091
  18   2.0000      -6.040436      -164.3686
  19   2.0000      -6.036673      -164.2662
  20   2.0000      -6.036356      -164.2576
  21   2.0000      -6.032592      -164.1552
  22   2.0000      -6.032200      -164.1445
  23   2.0000      -6.028608      -164.0468
  24   2.0000      -1.003959       -27.3191
  25   2.0000      -0.983695       -26.7677
  26   2.0000      -0.915496       -24.9119
  27   2.0000      -0.904087       -24.6014
  28   2.0000      -0.866267       -23.5723
  29   2.0000      -0.853626       -23.2283
  30   2.0000      -0.844989       -22.9933
  31   2.0000      -0.815523       -22.1915
  32   2.0000      -0.786459       -21.4006
  33   2.0000      -0.775826       -21.1113
  34   2.0000      -0.717569       -19.5261
  35   2.0000      -0.700348       -19.0575
  36   2.0000      -0.690119       -18.7791
  37   2.0000      -0.662831       -18.0365
  38   2.0000      -0.639566       -17.4035
  39   2.0000      -0.622664       -16.9436
  40   2.0000      -0.594165       -16.1681
  41   2.0000      -0.575109       -15.6495
  42   2.0000      -0.566173       -15.4064
  43   2.0000      -0.550659       -14.9842
  44   2.0000      -0.531346       -14.4587
  45   2.0000      -0.523684       -14.2502
  46   2.0000      -0.520179       -14.1548
  47   2.0000      -0.514253       -13.9935
  48   2.0000      -0.507187       -13.8013
  49   2.0000      -0.497273       -13.5315
  50   2.0000      -0.496295       -13.5049
  51   2.0000      -0.482031       -13.1167
  52   2.0000      -0.469769       -12.7831
  53   2.0000      -0.466837       -12.7033
  54   2.0000      -0.461361       -12.5543
  55   2.0000      -0.451253       -12.2792
  56   2.0000      -0.448727       -12.2105
  57   2.0000      -0.439235       -11.9522
  58   2.0000      -0.434015       -11.8101
  59   2.0000      -0.424690       -11.5564
  60   2.0000      -0.422073       -11.4852
  61   2.0000      -0.415929       -11.3180
  62   2.0000      -0.407700       -11.0941
  63   2.0000      -0.352740        -9.5985
  64   2.0000      -0.332224        -9.0403
  65   2.0000      -0.328988        -8.9522
  66   2.0000      -0.287718        -7.8292
  67   0.0000       0.025461         0.6928
  68   0.0000       0.077198         2.1007
  69   0.0000       0.100478         2.7342
  70   0.0000       0.117680         3.2022
  71   0.0000       0.121972         3.3190

MULLIKEN ATOMIC CHARGES
-----------------------
   0 S :    0.097571
   1 C :   -0.103882
   2 C :   -0.143265
   3 C :    0.029588
   4 C :   -0.132544
   5 H :   -0.003100
   6 C :    0.102577
   7 H :   -0.006101
   8 H :    0.042688
   9 C :   -0.071539
  10 H :    0.039673
  11 H :    0.025722
  12 C :   -0.008913
  13 H :    0.018048
  14 H :    0.034751
  15 H :    0.025771
  16 S :    0.099446
  17 C :   -0.065093
  18 C :   -0.028460
  19 C :   -0.047808
  20 C :   -0.120154
  21 H :   -0.003613
  22 C :    0.070324
  23 H :    0.021910
  24 H :    0.018647
  25 C :   -0.112249
  26 H :    0.015115
  27 H :    0.014728
  28 C :   -0.003316
  29 H :    0.044620
  30 H :    0.034945
  31 H :    0.033757
  32 H :    0.036004
  33 H :    0.044153
Sum of atomic charges:    0.0000000

LOEWDIN ATOMIC CHARGES
----------------------
   0 S :    0.390222
   1 C :   -0.189499
   2 C :   -0.060817
   3 C :   -0.060597
   4 C :   -0.179119
   5 H :    0.025546
   6 C :   -0.034032
   7 H :    0.022614
   8 H :    0.042241
   9 C :   -0.030867
  10 H :    0.031149
  11 H :    0.020888
  12 C :   -0.053635
  13 H :    0.012586
  14 H :    0.029368
  15 H :    0.025328
  16 S :    0.409177
  17 C :   -0.193696
  18 C :   -0.070024
  19 C :   -0.052473
  20 C :   -0.191330
  21 H :    0.020949
  22 C :   -0.030496
  23 H :    0.030257
  24 H :    0.025320
  25 C :   -0.049502
  26 H :    0.018090
  27 H :    0.020556
  28 C :   -0.055896
  29 H :    0.024426
  30 H :    0.027987
  31 H :    0.034772
  32 H :    0.013309
  33 H :    0.027198

  Mayer bond orders larger than 0.100000
B(  0-S ,  1-C ) :   1.1358 B(  0-S ,  4-C ) :   1.1489 B(  1-C ,  2-C ) :   1.6275
B(  1-C , 32-H ) :   0.9601 B(  2-C ,  3-C ) :   1.2348 B(  2-C ,  6-C ) :   1.0108
B(  3-C ,  4-C ) :   1.5734 B(  3-C ,  5-H ) :   0.9854 B(  4-C , 20-C ) :   1.0300
B(  6-C ,  7-H ) :   0.9350 B(  6-C ,  8-H ) :   0.9382 B(  6-C ,  9-C ) :   1.0306
B(  9-C , 10-H ) :   0.9599 B(  9-C , 11-H ) :   0.9649 B(  9-C , 12-C ) :   1.0710
B( 12-C , 13-H ) :   0.9799 B( 12-C , 14-H ) :   0.9791 B( 12-C , 15-H ) :   0.9760
B( 16-S , 17-C ) :   1.1633 B( 16-S , 20-C ) :   1.1229 B( 17-C , 18-C ) :   1.6202
B( 17-C , 33-H ) :   0.9671 B( 18-C , 19-C ) :   1.2212 B( 18-C , 21-H ) :   0.9983
B( 19-C , 20-C ) :   1.6310 B( 19-C , 22-C ) :   1.0288 B( 22-C , 23-H ) :   0.9415
B( 22-C , 24-H ) :   0.9376 B( 22-C , 25-C ) :   1.0723 B( 25-C , 26-H ) :   0.9508
B( 25-C , 27-H ) :   0.9467 B( 25-C , 28-C ) :   1.0643 B( 28-C , 29-H ) :   0.9759
B( 28-C , 30-H ) :   0.9725 B( 28-C , 31-H ) :   0.9751

Dispersion correction           -0.013845650
FINAL SINGLE POINT ENERGY     -1339.857252912130

DIPOLE MOMENT
-------------
                                X             Y             Z
Electronic contribution:    -32.65837      -7.40689       2.55628
Nuclear contribution   :     33.42830       7.43262      -2.68274
                        -----------------------------------------
Total Dipole Moment    :      0.76993       0.02573      -0.12647
                        -----------------------------------------
Magnitude (a.u.)       :      0.78068
Magnitude (Debye)      :      1.98432

Rotational constants in cm-1:     0.016807     0.009360     0.006234
Rotational constants in MHz :   503.868947   280.594300   186.886697

                             ****ORCA TERMINATED NORMALLY****
TOTAL RUN TIME: 0 days 0 hours 0 minutes 35 seconds 96 msec
