                         Program Version 4.2.1 -  RELEASE  -
|  1> ! wB97X-D3 SP def2-SVP
|  2> %pal
|  3> nprocs 16
|  4> end
|  5>
|  6> * xyz 0 1
|  7> S 	 -41.2362 	 57.0513 	 100.253
|  8> C 	 -40.5931 	 56.751 	 101.884
|  9> C 	 -41.6232 	 56.2449 	 102.661
| 10> C 	 -42.8531 	 56.0295 	 101.926
| 11> C 	 -42.8582 	 56.371 	 100.593
| 12> H 	 -43.7154 	 55.6791 	 102.456
| 13> C 	 -41.652 	 56.2288 	 104.163
| 14> H 	 -42.1758 	 57.1799 	 104.466
| 15> H 	 -40.6269 	 56.3573 	 104.491
| 16> C 	 -42.2218 	 54.9952 	 104.856
| 17> H 	 -42.5405 	 55.1347 	 105.938
| 18> H 	 -43.0961 	 54.6022 	 104.439
| 19> C 	 -41.2734 	 53.7245 	 104.946
| 20> H 	 -40.3511 	 53.8866 	 105.561
| 21> H 	 -41.7526 	 52.8003 	 105.305
| 22> H 	 -40.9418 	 53.5365 	 103.903
| 23> S 	 -43.6318 	 56.1521 	 97.9206
| 24> C 	 -45.3639 	 56.2176 	 97.5114
| 25> C 	 -46.1206 	 56.3489 	 98.6556
| 26> C 	 -45.3411 	 56.5738 	 99.8618
| 27> C 	 -43.9671 	 56.4757 	 99.6371
| 28> H 	 -47.1896 	 56.5071 	 98.6091
| 29> C 	 -46.0746 	 56.7187 	 101.229
| 30> H 	 -46.6751 	 57.6154 	 101.124
| 31> H 	 -45.3889 	 57.0688 	 101.956
| 32> C 	 -47.0583 	 55.6236 	 101.701
| 33> H 	 -46.6982 	 54.6052 	 101.562
| 34> H 	 -47.8082 	 55.6415 	 100.973
| 35> C 	 -47.4479 	 55.7621 	 103.193
| 36> H 	 -48.02 	 54.9852 	 103.651
| 37> H 	 -47.7914 	 56.7045 	 103.383
| 38> H 	 -46.5937 	 55.879 	 103.766
| 39> H 	 -39.6372 	 57.0958 	 102.209
| 40> H 	 -45.8799 	 56.1809 	 96.6076
| 41> *
| 42>
| 43>                          ****END OF INPUT****

CARTESIAN COORDINATES (ANGSTROEM)
---------------------------------
  S    -41.236200   57.051300  100.253000
  C    -40.593100   56.751000  101.884000
  C    -41.623200   56.244900  102.661000
  C    -42.853100   56.029500  101.926000
  C    -42.858200   56.371000  100.593000
  H    -43.715400   55.679100  102.456000
  C    -41.652000   56.228800  104.163000
  H    -42.175800   57.179900  104.466000
  H    -40.626900   56.357300  104.491000
  C    -42.221800   54.995200  104.856000
  H    -42.540500   55.134700  105.938000
  H    -43.096100   54.602200  104.439000
  C    -41.273400   53.724500  104.946000
  H    -40.351100   53.886600  105.561000
  H    -41.752600   52.800300  105.305000
  H    -40.941800   53.536500  103.903000
  S    -43.631800   56.152100   97.920600
  C    -45.363900   56.217600   97.511400
  C    -46.120600   56.348900   98.655600
  C    -45.341100   56.573800   99.861800
  C    -43.967100   56.475700   99.637100
  H    -47.189600   56.507100   98.609100
  C    -46.074600   56.718700  101.229000
  H    -46.675100   57.615400  101.124000
  H    -45.388900   57.068800  101.956000
  C    -47.058300   55.623600  101.701000
  H    -46.698200   54.605200  101.562000
  H    -47.808200   55.641500  100.973000
  C    -47.447900   55.762100  103.193000
  H    -48.020000   54.985200  103.651000
  H    -47.791400   56.704500  103.383000
  H    -46.593700   55.879000  103.766000
  H    -39.637200   57.095800  102.209000
  H    -45.879900   56.180900   96.607600

 Total Charge           Charge          ....    0
 Multiplicity           Mult            ....    1
 Number of Electrons    NEL             ....  134
 Basis Dimension        Dim             ....  322

ORBITAL ENERGIES
----------------

  NO   OCC          E(Eh)            E(eV)
   0   2.0000     -88.970501     -2421.0104
   1   2.0000     -88.962717     -2420.7986
   2   2.0000     -10.338535      -281.3258
   3   2.0000     -10.336957      -281.2829
   4   2.0000     -10.320462      -280.8340
   5   2.0000     -10.320026      -280.8222
   6   2.0000     -10.313354      -280.6406
   7   2.0000     -10.304820      -280.4084
   8   2.0000     -10.299737      -280.2701
   9   2.0000     -10.297513      -280.2096
  10   2.0000     -10.294786      -280.1354
  11   2.0000     -10.294170      -280.1186
  12   2.0000     -10.291980      -280.0590
  13   2.0000     -10.288775      -279.9718
  14   2.0000     -10.284431      -279.8536
  15   2.0000     -10.270139      -279.4647
  16   2.0000      -8.084036      -219.9778
  17   2.0000      -8.076614      -219.7758
  18   2.0000      -6.042860      -164.4346
  19   2.0000      -6.038725      -164.3221
  20   2.0000      -6.035411      -164.2319
  21   2.0000      -6.034488      -164.2068
  22   2.0000      -6.031159      -164.1162
  23   2.0000      -6.027182      -164.0080
  24   2.0000      -1.000392       -27.2220
  25   2.0000      -0.979094       -26.6425
  26   2.0000      -0.910287       -24.7702
  27   2.0000      -0.908506       -24.7217
  28   2.0000      -0.870446       -23.6860
  29   2.0000      -0.852443       -23.1962
  30   2.0000      -0.837906       -22.8006
  31   2.0000      -0.820487       -22.3266
  32   2.0000      -0.787904       -21.4400
  33   2.0000      -0.773767       -21.0553
  34   2.0000      -0.722718       -19.6662
  35   2.0000      -0.710517       -19.3341
  36   2.0000      -0.697484       -18.9795
  37   2.0000      -0.660759       -17.9802
  38   2.0000      -0.643111       -17.4999
  39   2.0000      -0.627454       -17.0739
  40   2.0000      -0.596561       -16.2332
  41   2.0000      -0.566535       -15.4162
  42   2.0000      -0.560095       -15.2410
  43   2.0000      -0.553813       -15.0700
  44   2.0000      -0.537298       -14.6206
  45   2.0000      -0.529358       -14.4046
  46   2.0000      -0.522329       -14.2133
  47   2.0000      -0.518261       -14.1026
  48   2.0000      -0.510121       -13.8811
  49   2.0000      -0.495967       -13.4959
  50   2.0000      -0.488559       -13.2944
  51   2.0000      -0.481045       -13.0899
  52   2.0000      -0.472625       -12.8608
  53   2.0000      -0.468749       -12.7553
  54   2.0000      -0.459886       -12.5141
  55   2.0000      -0.453946       -12.3525
  56   2.0000      -0.448461       -12.2033
  57   2.0000      -0.444568       -12.0973
  58   2.0000      -0.432961       -11.7815
  59   2.0000      -0.426270       -11.5994
  60   2.0000      -0.420285       -11.4365
  61   2.0000      -0.410160       -11.1610
  62   2.0000      -0.404602       -11.0098
  63   2.0000      -0.358886        -9.7658
  64   2.0000      -0.332856        -9.0575
  65   2.0000      -0.325442        -8.8557
  66   2.0000      -0.292590        -7.9618
  67   0.0000       0.019448         0.5292
  68   0.0000       0.074914         2.0385
  69   0.0000       0.100900         2.7456
  70   0.0000       0.109711         2.9854
  71   0.0000       0.122876         3.3436

MULLIKEN ATOMIC CHARGES
-----------------------
   0 S :    0.073157
   1 C :   -0.108065
   2 C :   -0.093822
   3 C :   -0.002003
   4 C :   -0.088281
   5 H :    0.007312
   6 C :    0.070887
   7 H :    0.059781
   8 H :    0.013569
   9 C :   -0.073077
  10 H :    0.033577
  11 H :    0.016714
  12 C :   -0.100778
  13 H :    0.038128
  14 H :    0.042005
  15 H :    0.038275
  16 S :    0.104517
  17 C :   -0.047486
  18 C :   -0.050902
  19 C :   -0.060810
  20 C :   -0.119325
  21 H :    0.027104
  22 C :    0.044308
  23 H :    0.022721
  24 H :   -0.000158
  25 C :   -0.027192
  26 H :    0.025007
  27 H :    0.008080
  28 C :    0.036658
  29 H :    0.042068
  30 H :   -0.006598
  31 H :   -0.007403
  32 H :    0.047010
  33 H :    0.035024
Sum of atomic charges:    0.0000000

LOEWDIN ATOMIC CHARGES
----------------------
   0 S :    0.370607
   1 C :   -0.179288
   2 C :   -0.066969
   3 C :   -0.064233
   4 C :   -0.172523
   5 H :    0.024850
   6 C :   -0.033785
   7 H :    0.046883
   8 H :    0.029585
   9 C :   -0.046755
  10 H :    0.031733
  11 H :    0.013219
  12 C :   -0.073303
  13 H :    0.024985
  14 H :    0.027599
  15 H :    0.026550
  16 S :    0.387362
  17 C :   -0.163799
  18 C :   -0.069773
  19 C :   -0.046519
  20 C :   -0.190014
  21 H :    0.030603
  22 C :   -0.032096
  23 H :    0.034144
  24 H :    0.019005
  25 C :   -0.030213
  26 H :    0.024754
  27 H :    0.014118
  28 C :   -0.054216
  29 H :    0.029633
  30 H :    0.016203
  31 H :    0.021626
  32 H :    0.026450
  33 H :    0.023575

  Mayer bond orders larger than 0.100000
B(  0-S ,  1-C ) :   1.1262 B(  0-S ,  4-C ) :   1.1316 B(  1-C ,  2-C ) :   1.6045
B(  1-C , 32-H ) :   0.9747 B(  2-C ,  3-C ) :   1.2334 B(  2-C ,  6-C ) :   1.0307
B(  3-C ,  4-C ) :   1.5827 B(  3-C ,  5-H ) :   0.9959 B(  4-C , 20-C ) :   1.0465
B(  6-C ,  7-H ) :   0.9396 B(  6-C ,  8-H ) :   0.9421 B(  6-C ,  9-C ) :   1.0498
B(  9-C , 10-H ) :   0.9568 B(  9-C , 11-H ) :   0.9622 B(  9-C , 12-C ) :   1.0682
B( 12-C , 13-H ) :   0.9770 B( 12-C , 14-H ) :   0.9766 B( 12-C , 15-H ) :   0.9791
B( 16-S , 17-C ) :   1.1330 B( 16-S , 20-C ) :   1.1168 B( 17-C , 18-C ) :   1.6430
B( 17-C , 33-H ) :   0.9713 B( 18-C , 19-C ) :   1.2308 B( 18-C , 21-H ) :   0.9796
B( 19-C , 20-C ) :   1.6210 B( 19-C , 22-C ) :   1.0373 B( 22-C , 23-H ) :   0.9246
B( 22-C , 24-H ) :   0.9428 B( 22-C , 25-C ) :   1.0416 B( 25-C , 26-H ) :   0.9628
B( 25-C , 27-H ) :   0.9508 B( 25-C , 28-C ) :   1.0743 B( 28-C , 29-H ) :   0.9749
B( 28-C , 30-H ) :   0.9655 B( 28-C , 31-H ) :   0.9635

Dispersion correction           -0.014017044
FINAL SINGLE POINT ENERGY     -1339.853908038933

DIPOLE MOMENT
-------------
                                X             Y             Z
Electronic contribution:     11.72745       8.43783     -28.75430
Nuclear contribution   :    -12.34116      -8.37301      29.43910
                        -----------------------------------------
Total Dipole Moment    :     -0.61371       0.06482       0.68480
                        -----------------------------------------
Magnitude (a.u.)       :      0.92184
Magnitude (Debye)      :      2.34313

Rotational constants in cm-1:     0.016202     0.009616     0.006545
Rotational constants in MHz :   485.713763   288.268057   196.204451

                             ****ORCA TERMINATED NORMALLY****
TOTAL RUN TIME: 0 days 0 hours 0 minutes 30 seconds 478 msec
