                         Program Version 4.2.1 -  RELEASE  -
|  1> ! wB97X-D3 SP def2-SVP
|  2> %pal
|  3> nprocs 16
|  4> end
|  5>
|  6> * xyz 0 1
|  7> S 	 48.4898 	 21.9138 	 89.691
|  8> C 	 47.7004 	 22.495 	 91.1193
|  9> C 	 46.5042 	 23.113 	 90.7392
| 10> C 	 46.2328 	 23.0215 	 89.3384
| 11> C 	 47.3737 	 22.7402 	 88.6536
| 12> H 	 45.428 	 23.5436 	 88.842
| 13> C 	 45.5207 	 23.6128 	 91.7996
| 14> H 	 45.9673 	 24.5724 	 92.0352
| 15> H 	 45.5536 	 22.9626 	 92.6618
| 16> C 	 44.0321 	 23.8245 	 91.5084
| 17> H 	 43.5518 	 24.0576 	 92.4649
| 18> H 	 43.8503 	 24.6681 	 90.9081
| 19> C 	 43.3538 	 22.4442 	 90.997
| 20> H 	 42.293 	 22.5133 	 90.7458
| 21> H 	 43.7295 	 22.1271 	 89.9981
| 22> H 	 43.4678 	 21.6296 	 91.7426
| 23> S 	 47.3068 	 21.3591 	 86.1716
| 24> C 	 47.2895 	 22.2505 	 84.6801
| 25> C 	 47.6012 	 23.5629 	 84.9776
| 26> C 	 47.656 	 23.873 	 86.3677
| 27> C 	 47.5036 	 22.7895 	 87.222
| 28> H 	 47.4911 	 24.1829 	 84.0924
| 29> C 	 47.6548 	 25.3607 	 86.8075
| 30> H 	 46.8402 	 25.509 	 87.4766
| 31> H 	 47.4703 	 25.9675 	 85.9403
| 32> C 	 48.8543 	 25.7296 	 87.7281
| 33> H 	 49.7531 	 25.6142 	 87.1276
| 34> H 	 49.0146 	 25.0189 	 88.5592
| 35> C 	 48.836 	 27.1509 	 88.2284
| 36> H 	 49.8025 	 27.4157 	 88.5904
| 37> H 	 48.1381 	 27.3458 	 89.042
| 38> H 	 48.6574 	 27.8338 	 87.4443
| 39> H 	 48.1476 	 22.3362 	 92.0841
| 40> H 	 47.1619 	 21.7466 	 83.7288
| 41> *
| 42>
| 43>                          ****END OF INPUT****

CARTESIAN COORDINATES (ANGSTROEM)
---------------------------------
  S     48.489800   21.913800   89.691000
  C     47.700400   22.495000   91.119300
  C     46.504200   23.113000   90.739200
  C     46.232800   23.021500   89.338400
  C     47.373700   22.740200   88.653600
  H     45.428000   23.543600   88.842000
  C     45.520700   23.612800   91.799600
  H     45.967300   24.572400   92.035200
  H     45.553600   22.962600   92.661800
  C     44.032100   23.824500   91.508400
  H     43.551800   24.057600   92.464900
  H     43.850300   24.668100   90.908100
  C     43.353800   22.444200   90.997000
  H     42.293000   22.513300   90.745800
  H     43.729500   22.127100   89.998100
  H     43.467800   21.629600   91.742600
  S     47.306800   21.359100   86.171600
  C     47.289500   22.250500   84.680100
  C     47.601200   23.562900   84.977600
  C     47.656000   23.873000   86.367700
  C     47.503600   22.789500   87.222000
  H     47.491100   24.182900   84.092400
  C     47.654800   25.360700   86.807500
  H     46.840200   25.509000   87.476600
  H     47.470300   25.967500   85.940300
  C     48.854300   25.729600   87.728100
  H     49.753100   25.614200   87.127600
  H     49.014600   25.018900   88.559200
  C     48.836000   27.150900   88.228400
  H     49.802500   27.415700   88.590400
  H     48.138100   27.345800   89.042000
  H     48.657400   27.833800   87.444300
  H     48.147600   22.336200   92.084100
  H     47.161900   21.746600   83.728800

 Total Charge           Charge          ....    0
 Multiplicity           Mult            ....    1
 Number of Electrons    NEL             ....  134
 Basis Dimension        Dim             ....  322

ORBITAL ENERGIES
----------------

  NO   OCC          E(Eh)            E(eV)
   0   2.0000     -88.963197     -2420.8117
   1   2.0000     -88.958668     -2420.6884
   2   2.0000     -10.326271      -280.9921
   3   2.0000     -10.325346      -280.9669
   4   2.0000     -10.318800      -280.7888
   5   2.0000     -10.313757      -280.6516
   6   2.0000     -10.305812      -280.4354
   7   2.0000     -10.305253      -280.4202
   8   2.0000     -10.293511      -280.1007
   9   2.0000     -10.293015      -280.0872
  10   2.0000     -10.292535      -280.0741
  11   2.0000     -10.290352      -280.0147
  12   2.0000     -10.287273      -279.9309
  13   2.0000     -10.285917      -279.8940
  14   2.0000     -10.280146      -279.7370
  15   2.0000     -10.265969      -279.3512
  16   2.0000      -8.078742      -219.8337
  17   2.0000      -8.073460      -219.6900
  18   2.0000      -6.037117      -164.2783
  19   2.0000      -6.033116      -164.1694
  20   2.0000      -6.031954      -164.1378
  21   2.0000      -6.029599      -164.0737
  22   2.0000      -6.027779      -164.0242
  23   2.0000      -6.024386      -163.9319
  24   2.0000      -1.010628       -27.5006
  25   2.0000      -0.985928       -26.8285
  26   2.0000      -0.907352       -24.6903
  27   2.0000      -0.903600       -24.5882
  28   2.0000      -0.872314       -23.7369
  29   2.0000      -0.847083       -23.0503
  30   2.0000      -0.841927       -22.9100
  31   2.0000      -0.816618       -22.2213
  32   2.0000      -0.782151       -21.2834
  33   2.0000      -0.771712       -20.9993
  34   2.0000      -0.714604       -19.4454
  35   2.0000      -0.699186       -19.0258
  36   2.0000      -0.691017       -18.8035
  37   2.0000      -0.656524       -17.8649
  38   2.0000      -0.646025       -17.5792
  39   2.0000      -0.621500       -16.9119
  40   2.0000      -0.594148       -16.1676
  41   2.0000      -0.571843       -15.5606
  42   2.0000      -0.562798       -15.3145
  43   2.0000      -0.553774       -15.0690
  44   2.0000      -0.527844       -14.3634
  45   2.0000      -0.523196       -14.2369
  46   2.0000      -0.519727       -14.1425
  47   2.0000      -0.515097       -14.0165
  48   2.0000      -0.506306       -13.7773
  49   2.0000      -0.499654       -13.5963
  50   2.0000      -0.490272       -13.3410
  51   2.0000      -0.481954       -13.1146
  52   2.0000      -0.479450       -13.0465
  53   2.0000      -0.464800       -12.6478
  54   2.0000      -0.464066       -12.6279
  55   2.0000      -0.442964       -12.0537
  56   2.0000      -0.437633       -11.9086
  57   2.0000      -0.435524       -11.8512
  58   2.0000      -0.431140       -11.7319
  59   2.0000      -0.425395       -11.5756
  60   2.0000      -0.413425       -11.2499
  61   2.0000      -0.412289       -11.2189
  62   2.0000      -0.404996       -11.0205
  63   2.0000      -0.338338        -9.2066
  64   2.0000      -0.326350        -8.8804
  65   2.0000      -0.322258        -8.7691
  66   2.0000      -0.303463        -8.2576
  67   0.0000       0.036896         1.0040
  68   0.0000       0.050259         1.3676
  69   0.0000       0.115649         3.1470
  70   0.0000       0.129597         3.5265
  71   0.0000       0.133854         3.6424

MULLIKEN ATOMIC CHARGES
-----------------------
   0 S :    0.115474
   1 C :   -0.130024
   2 C :   -0.101068
   3 C :    0.065254
   4 C :   -0.198512
   5 H :    0.031831
   6 C :    0.051801
   7 H :    0.037459
   8 H :    0.028951
   9 C :   -0.042444
  10 H :    0.032822
  11 H :    0.020803
  12 C :   -0.093396
  13 H :    0.031519
  14 H :    0.038637
  15 H :    0.044454
  16 S :    0.092201
  17 C :   -0.121438
  18 C :   -0.037325
  19 C :   -0.029923
  20 C :   -0.145699
  21 H :    0.025948
  22 C :    0.115767
  23 H :    0.009798
  24 H :    0.016081
  25 C :   -0.107147
  26 H :    0.020757
  27 H :    0.046589
  28 C :   -0.001077
  29 H :    0.017814
  30 H :    0.028813
  31 H :    0.011865
  32 H :    0.052974
  33 H :    0.070439
Sum of atomic charges:    0.0000000

LOEWDIN ATOMIC CHARGES
----------------------
   0 S :    0.420445
   1 C :   -0.201026
   2 C :   -0.058661
   3 C :   -0.059348
   4 C :   -0.197851
   5 H :    0.034214
   6 C :   -0.035425
   7 H :    0.035942
   8 H :    0.029520
   9 C :   -0.034633
  10 H :    0.031485
  11 H :    0.014614
  12 C :   -0.075727
  13 H :    0.024638
  14 H :    0.028290
  15 H :    0.029868
  16 S :    0.392292
  17 C :   -0.181038
  18 C :   -0.087557
  19 C :   -0.049241
  20 C :   -0.198943
  21 H :    0.034049
  22 C :   -0.023283
  23 H :    0.024796
  24 H :    0.026329
  25 C :   -0.040596
  26 H :    0.021448
  27 H :    0.029405
  28 C :   -0.060832
  29 H :    0.024744
  30 H :    0.023635
  31 H :    0.018737
  32 H :    0.026484
  33 H :    0.033227

  Mayer bond orders larger than 0.100000
B(  0-S ,  1-C ) :   1.1455 B(  0-S ,  4-C ) :   1.1625 B(  1-C ,  2-C ) :   1.5814
B(  1-C ,  4-C ) :   0.1030 B(  1-C , 32-H ) :   0.9814 B(  2-C ,  3-C ) :   1.2611
B(  2-C ,  6-C ) :   0.9963 B(  3-C ,  4-C ) :   1.5772 B(  3-C ,  5-H ) :   0.9712
B(  4-C , 20-C ) :   1.0329 B(  6-C ,  7-H ) :   0.9319 B(  6-C ,  8-H ) :   0.9522
B(  6-C ,  9-C ) :   1.0925 B(  9-C , 10-H ) :   0.9535 B(  9-C , 11-H ) :   0.9546
B(  9-C , 12-C ) :   1.0592 B( 12-C , 13-H ) :   0.9767 B( 12-C , 14-H ) :   0.9759
B( 12-C , 15-H ) :   0.9776 B( 16-S , 17-C ) :   1.1787 B( 16-S , 20-C ) :   1.1328
B( 17-C , 18-C ) :   1.5870 B( 17-C , 20-C ) :   0.1076 B( 17-C , 33-H ) :   0.9683
B( 18-C , 19-C ) :   1.2454 B( 18-C , 21-H ) :   0.9913 B( 19-C , 20-C ) :   1.5974
B( 19-C , 22-C ) :   1.0390 B( 22-C , 23-H ) :   0.9332 B( 22-C , 24-H ) :   0.9390
B( 22-C , 25-C ) :   1.0489 B( 25-C , 26-H ) :   0.9548 B( 25-C , 27-H ) :   0.9551
B( 25-C , 28-C ) :   1.0956 B( 28-C , 29-H ) :   0.9700 B( 28-C , 30-H ) :   0.9739
B( 28-C , 31-H ) :   0.9693

Dispersion correction           -0.014929091
FINAL SINGLE POINT ENERGY     -1339.859970554507

DIPOLE MOMENT
-------------
                                X             Y             Z
Electronic contribution:     10.42473     -19.14036     -10.51199
Nuclear contribution   :    -10.82729      19.70827      10.66744
                        -----------------------------------------
Total Dipole Moment    :     -0.40256       0.56791       0.15545
                        -----------------------------------------
Magnitude (a.u.)       :      0.71327
Magnitude (Debye)      :      1.81298

Rotational constants in cm-1:     0.016719     0.009362     0.007996
Rotational constants in MHz :   501.226038   280.654053   239.725392

                             ****ORCA TERMINATED NORMALLY****
TOTAL RUN TIME: 0 days 0 hours 0 minutes 31 seconds 233 msec
