                         Program Version 4.2.1 -  RELEASE  -
|  1> ! wB97X-D3 SP def2-SVP
|  2> %pal
|  3> nprocs 16
|  4> end
|  5>
|  6> * xyz 0 1
|  7> S 	 -41.9848 	 54.5871 	 103.812
|  8> C 	 -42.6613 	 53.6363 	 102.463
|  9> C 	 -42.1352 	 54.0168 	 101.235
| 10> C 	 -41.2557 	 55.1106 	 101.366
| 11> C 	 -41.1054 	 55.5415 	 102.662
| 12> H 	 -40.7413 	 55.718 	 100.591
| 13> C 	 -42.6044 	 53.3661 	 99.9067
| 14> H 	 -43.2672 	 54.087 	 99.3992
| 15> H 	 -43.1667 	 52.4707 	 100.03
| 16> C 	 -41.5827 	 52.7959 	 99.033
| 17> H 	 -41.9893 	 52.3136 	 98.1601
| 18> H 	 -40.9093 	 53.6768 	 98.684
| 19> C 	 -40.7199 	 51.6561 	 99.6457
| 20> H 	 -41.299 	 50.7514 	 99.9171
| 21> H 	 -39.9473 	 51.3334 	 98.9091
| 22> H 	 -40.2043 	 51.9205 	 100.576
| 23> S 	 -41.0142 	 58.1219 	 103.666
| 24> C 	 -39.6517 	 59.0397 	 103.163
| 25> C 	 -38.6001 	 58.3275 	 102.705
| 26> C 	 -38.9428 	 56.9712 	 102.467
| 27> C 	 -40.2313 	 56.6689 	 103
| 28> H 	 -37.6723 	 58.7637 	 102.487
| 29> C 	 -37.9893 	 56.0267 	 101.757
| 30> H 	 -37.2436 	 56.5965 	 101.15
| 31> H 	 -38.5015 	 55.5452 	 100.923
| 32> C 	 -37.5616 	 54.7418 	 102.615
| 33> H 	 -38.4414 	 54.0787 	 102.709
| 34> H 	 -37.3795 	 55.1578 	 103.685
| 35> C 	 -36.3945 	 53.8477 	 102.145
| 36> H 	 -35.5138 	 54.3391 	 102.268
| 37> H 	 -36.4898 	 53.592 	 101.079
| 38> H 	 -36.3616 	 52.8263 	 102.611
| 39> H 	 -43.322 	 52.7898 	 102.702
| 40> H 	 -39.4454 	 60.1005 	 103.423
| 41> *
| 42>
| 43>                          ****END OF INPUT****

CARTESIAN COORDINATES (ANGSTROEM)
---------------------------------
  S    -41.984800   54.587100  103.812000
  C    -42.661300   53.636300  102.463000
  C    -42.135200   54.016800  101.235000
  C    -41.255700   55.110600  101.366000
  C    -41.105400   55.541500  102.662000
  H    -40.741300   55.718000  100.591000
  C    -42.604400   53.366100   99.906700
  H    -43.267200   54.087000   99.399200
  H    -43.166700   52.470700  100.030000
  C    -41.582700   52.795900   99.033000
  H    -41.989300   52.313600   98.160100
  H    -40.909300   53.676800   98.684000
  C    -40.719900   51.656100   99.645700
  H    -41.299000   50.751400   99.917100
  H    -39.947300   51.333400   98.909100
  H    -40.204300   51.920500  100.576000
  S    -41.014200   58.121900  103.666000
  C    -39.651700   59.039700  103.163000
  C    -38.600100   58.327500  102.705000
  C    -38.942800   56.971200  102.467000
  C    -40.231300   56.668900  103.000000
  H    -37.672300   58.763700  102.487000
  C    -37.989300   56.026700  101.757000
  H    -37.243600   56.596500  101.150000
  H    -38.501500   55.545200  100.923000
  C    -37.561600   54.741800  102.615000
  H    -38.441400   54.078700  102.709000
  H    -37.379500   55.157800  103.685000
  C    -36.394500   53.847700  102.145000
  H    -35.513800   54.339100  102.268000
  H    -36.489800   53.592000  101.079000
  H    -36.361600   52.826300  102.611000
  H    -43.322000   52.789800  102.702000
  H    -39.445400   60.100500  103.423000

 Total Charge           Charge          ....    0
 Multiplicity           Mult            ....    1
 Number of Electrons    NEL             ....  134
 Basis Dimension        Dim             ....  322

ORBITAL ENERGIES
----------------

  NO   OCC          E(Eh)            E(eV)
   0   2.0000     -88.968800     -2420.9641
   1   2.0000     -88.966656     -2420.9058
   2   2.0000     -10.328055      -281.0407
   3   2.0000     -10.325528      -280.9719
   4   2.0000     -10.317862      -280.7633
   5   2.0000     -10.313712      -280.6504
   6   2.0000     -10.308720      -280.5145
   7   2.0000     -10.306396      -280.4513
   8   2.0000     -10.299257      -280.2570
   9   2.0000     -10.297223      -280.2017
  10   2.0000     -10.292977      -280.0861
  11   2.0000     -10.290306      -280.0135
  12   2.0000     -10.289603      -279.9943
  13   2.0000     -10.286126      -279.8997
  14   2.0000     -10.282311      -279.7959
  15   2.0000     -10.275404      -279.6080
  16   2.0000      -8.083623      -219.9666
  17   2.0000      -8.081268      -219.9025
  18   2.0000      -6.042068      -164.4130
  19   2.0000      -6.039546      -164.3444
  20   2.0000      -6.038224      -164.3084
  21   2.0000      -6.035924      -164.2458
  22   2.0000      -6.034332      -164.2025
  23   2.0000      -6.032164      -164.1435
  24   2.0000      -1.006358       -27.3844
  25   2.0000      -0.984801       -26.7978
  26   2.0000      -0.918187       -24.9851
  27   2.0000      -0.897444       -24.4207
  28   2.0000      -0.867502       -23.6059
  29   2.0000      -0.851796       -23.1786
  30   2.0000      -0.845465       -23.0063
  31   2.0000      -0.811862       -22.0919
  32   2.0000      -0.787932       -21.4407
  33   2.0000      -0.771534       -20.9945
  34   2.0000      -0.705820       -19.2063
  35   2.0000      -0.690899       -18.8003
  36   2.0000      -0.684796       -18.6342
  37   2.0000      -0.657781       -17.8991
  38   2.0000      -0.639652       -17.4058
  39   2.0000      -0.621840       -16.9211
  40   2.0000      -0.596172       -16.2227
  41   2.0000      -0.566222       -15.4077
  42   2.0000      -0.558324       -15.1928
  43   2.0000      -0.553368       -15.0579
  44   2.0000      -0.545437       -14.8421
  45   2.0000      -0.518604       -14.1119
  46   2.0000      -0.513729       -13.9793
  47   2.0000      -0.506047       -13.7702
  48   2.0000      -0.496160       -13.5012
  49   2.0000      -0.492492       -13.4014
  50   2.0000      -0.486641       -13.2422
  51   2.0000      -0.481639       -13.1061
  52   2.0000      -0.474735       -12.9182
  53   2.0000      -0.463027       -12.5996
  54   2.0000      -0.456980       -12.4351
  55   2.0000      -0.452926       -12.3247
  56   2.0000      -0.447819       -12.1858
  57   2.0000      -0.441373       -12.0104
  58   2.0000      -0.434147       -11.8137
  59   2.0000      -0.424423       -11.5491
  60   2.0000      -0.415152       -11.2969
  61   2.0000      -0.406488       -11.0611
  62   2.0000      -0.403577       -10.9819
  63   2.0000      -0.344541        -9.3754
  64   2.0000      -0.336486        -9.1562
  65   2.0000      -0.329906        -8.9772
  66   2.0000      -0.291388        -7.9291
  67   0.0000       0.029747         0.8095
  68   0.0000       0.065811         1.7908
  69   0.0000       0.112997         3.0748
  70   0.0000       0.119930         3.2635
  71   0.0000       0.128554         3.4981

MULLIKEN ATOMIC CHARGES
-----------------------
   0 S :    0.105977
   1 C :   -0.152378
   2 C :   -0.052911
   3 C :   -0.001241
   4 C :   -0.158914
   5 H :    0.037540
   6 C :    0.101423
   7 H :    0.048298
   8 H :    0.001515
   9 C :   -0.094147
  10 H :    0.032265
  11 H :    0.031207
  12 C :   -0.089695
  13 H :    0.029950
  14 H :    0.042597
  15 H :    0.041419
  16 S :    0.120487
  17 C :   -0.089271
  18 C :   -0.020431
  19 C :   -0.058825
  20 C :   -0.145852
  21 H :   -0.002419
  22 C :    0.076429
  23 H :    0.024815
  24 H :    0.012631
  25 C :   -0.123852
  26 H :    0.048315
  27 H :    0.046852
  28 C :   -0.021759
  29 H :    0.018624
  30 H :    0.022874
  31 H :    0.044307
  32 H :    0.060854
  33 H :    0.063318
Sum of atomic charges:    0.0000000

LOEWDIN ATOMIC CHARGES
----------------------
   0 S :    0.394162
   1 C :   -0.188286
   2 C :   -0.058501
   3 C :   -0.070297
   4 C :   -0.201321
   5 H :    0.040726
   6 C :   -0.034117
   7 H :    0.038381
   8 H :    0.026765
   9 C :   -0.047596
  10 H :    0.025806
  11 H :    0.024744
  12 C :   -0.073280
  13 H :    0.025338
  14 H :    0.031771
  15 H :    0.024249
  16 S :    0.414515
  17 C :   -0.196007
  18 C :   -0.069275
  19 C :   -0.044730
  20 C :   -0.198143
  21 H :    0.024841
  22 C :   -0.044589
  23 H :    0.033815
  24 H :    0.029966
  25 C :   -0.042452
  26 H :    0.028401
  27 H :    0.030132
  28 C :   -0.065007
  29 H :    0.009792
  30 H :    0.026497
  31 H :    0.037557
  32 H :    0.029820
  33 H :    0.036321

  Mayer bond orders larger than 0.100000
B(  0-S ,  1-C ) :   1.1345 B(  0-S ,  4-C ) :   1.1529 B(  1-C ,  2-C ) :   1.6072
B(  1-C , 32-H ) :   0.9692 B(  2-C ,  3-C ) :   1.2274 B(  2-C ,  6-C ) :   1.0125
B(  3-C ,  4-C ) :   1.5958 B(  3-C ,  5-H ) :   0.9832 B(  4-C , 20-C ) :   1.0112
B(  6-C ,  7-H ) :   0.9400 B(  6-C ,  8-H ) :   0.9393 B(  6-C ,  9-C ) :   1.0760
B(  9-C , 10-H ) :   0.9554 B(  9-C , 11-H ) :   0.9516 B(  9-C , 12-C ) :   1.0693
B( 12-C , 13-H ) :   0.9719 B( 12-C , 14-H ) :   0.9753 B( 12-C , 15-H ) :   0.9756
B( 16-S , 17-C ) :   1.1685 B( 16-S , 20-C ) :   1.1398 B( 17-C , 18-C ) :   1.6179
B( 17-C , 33-H ) :   0.9513 B( 18-C , 19-C ) :   1.2496 B( 18-C , 21-H ) :   0.9985
B( 19-C , 20-C ) :   1.5690 B( 19-C , 22-C ) :   1.0555 B( 22-C , 23-H ) :   0.9425
B( 22-C , 24-H ) :   0.9216 B( 22-C , 25-C ) :   1.0238 B( 25-C , 26-H ) :   0.9558
B( 25-C , 27-H ) :   0.9651 B( 25-C , 28-C ) :   1.0777 B( 28-C , 29-H ) :   0.9788
B( 28-C , 30-H ) :   0.9712 B( 28-C , 31-H ) :   0.9737

Dispersion correction           -0.015124044
FINAL SINGLE POINT ENERGY     -1339.861289224745

DIPOLE MOMENT
-------------
                                X             Y             Z
Electronic contribution:    -14.46137      19.24769      18.44316
Nuclear contribution   :     14.76208     -19.45818     -19.03064
                        -----------------------------------------
Total Dipole Moment    :      0.30071      -0.21049      -0.58748
                        -----------------------------------------
Magnitude (a.u.)       :      0.69272
Magnitude (Debye)      :      1.76076

Rotational constants in cm-1:     0.017134     0.009827     0.007552
Rotational constants in MHz :   513.662220   294.614467   226.396802

                             ****ORCA TERMINATED NORMALLY****
TOTAL RUN TIME: 0 days 0 hours 0 minutes 31 seconds 663 msec
