                         Program Version 4.2.1 -  RELEASE  -
|  1> ! wB97X-D3 SP def2-SVP
|  2> %pal
|  3> nprocs 16
|  4> end
|  5>
|  6> * xyz 0 1
|  7> S 	 -57.9064 	 54.3727 	 135.073
|  8> C 	 -56.5185 	 55.0974 	 135.922
|  9> C 	 -56.8684 	 56.3094 	 136.433
| 10> C 	 -58.2787 	 56.5258 	 136.434
| 11> C 	 -59.0224 	 55.5486 	 135.783
| 12> H 	 -58.7364 	 57.2718 	 136.982
| 13> C 	 -55.9849 	 57.2116 	 137.376
| 14> H 	 -56.4468 	 58.212 	 137.453
| 15> H 	 -54.9927 	 57.476 	 136.89
| 16> C 	 -55.9015 	 56.6983 	 138.863
| 17> H 	 -56.9277 	 56.616 	 139.241
| 18> H 	 -55.4498 	 55.6619 	 138.83
| 19> C 	 -55.0936 	 57.6224 	 139.82
| 20> H 	 -54.0886 	 57.7288 	 139.386
| 21> H 	 -55.4572 	 58.6056 	 139.855
| 22> H 	 -55.0812 	 57.2411 	 140.849
| 23> S 	 -61.1266 	 54.183 	 134.531
| 24> C 	 -62.7622 	 54.4729 	 134.955
| 25> C 	 -62.8404 	 55.312 	 136.053
| 26> C 	 -61.536 	 55.8141 	 136.465
| 27> C 	 -60.4897 	 55.3571 	 135.662
| 28> H 	 -63.7423 	 55.4973 	 136.547
| 29> C 	 -61.3673 	 56.6259 	 137.752
| 30> H 	 -62.3584 	 57.1635 	 137.902
| 31> H 	 -60.6368 	 57.3958 	 137.623
| 32> C 	 -61.0353 	 55.7596 	 138.959
| 33> H 	 -61.1561 	 56.4172 	 139.878
| 34> H 	 -60.0268 	 55.4922 	 139.023
| 35> C 	 -61.9975 	 54.6364 	 139.193
| 36> H 	 -61.9466 	 54.0377 	 138.325
| 37> H 	 -62.9483 	 55.0535 	 139.318
| 38> H 	 -61.5545 	 53.9573 	 139.925
| 39> H 	 -55.4709 	 54.7759 	 135.937
| 40> H 	 -63.5942 	 53.9363 	 134.541
| 41> *
| 42>
| 43>                          ****END OF INPUT****

CARTESIAN COORDINATES (ANGSTROEM)
---------------------------------
  S    -57.906400   54.372700  135.073000
  C    -56.518500   55.097400  135.922000
  C    -56.868400   56.309400  136.433000
  C    -58.278700   56.525800  136.434000
  C    -59.022400   55.548600  135.783000
  H    -58.736400   57.271800  136.982000
  C    -55.984900   57.211600  137.376000
  H    -56.446800   58.212000  137.453000
  H    -54.992700   57.476000  136.890000
  C    -55.901500   56.698300  138.863000
  H    -56.927700   56.616000  139.241000
  H    -55.449800   55.661900  138.830000
  C    -55.093600   57.622400  139.820000
  H    -54.088600   57.728800  139.386000
  H    -55.457200   58.605600  139.855000
  H    -55.081200   57.241100  140.849000
  S    -61.126600   54.183000  134.531000
  C    -62.762200   54.472900  134.955000
  C    -62.840400   55.312000  136.053000
  C    -61.536000   55.814100  136.465000
  C    -60.489700   55.357100  135.662000
  H    -63.742300   55.497300  136.547000
  C    -61.367300   56.625900  137.752000
  H    -62.358400   57.163500  137.902000
  H    -60.636800   57.395800  137.623000
  C    -61.035300   55.759600  138.959000
  H    -61.156100   56.417200  139.878000
  H    -60.026800   55.492200  139.023000
  C    -61.997500   54.636400  139.193000
  H    -61.946600   54.037700  138.325000
  H    -62.948300   55.053500  139.318000
  H    -61.554500   53.957300  139.925000
  H    -55.470900   54.775900  135.937000
  H    -63.594200   53.936300  134.541000

 Total Charge           Charge          ....    0
 Multiplicity           Mult            ....    1
 Number of Electrons    NEL             ....  134
 Basis Dimension        Dim             ....  322

ORBITAL ENERGIES
----------------

  NO   OCC          E(Eh)            E(eV)
   0   2.0000     -88.967474     -2420.9280
   1   2.0000     -88.966713     -2420.9073
   2   2.0000     -10.338779      -281.3325
   3   2.0000     -10.333302      -281.1834
   4   2.0000     -10.318745      -280.7873
   5   2.0000     -10.317864      -280.7634
   6   2.0000     -10.307641      -280.4852
   7   2.0000     -10.305679      -280.4318
   8   2.0000     -10.303361      -280.3687
   9   2.0000     -10.298213      -280.2286
  10   2.0000     -10.296065      -280.1702
  11   2.0000     -10.295362      -280.1510
  12   2.0000     -10.290837      -280.0279
  13   2.0000     -10.280417      -279.7444
  14   2.0000     -10.279845      -279.7288
  15   2.0000     -10.263583      -279.2863
  16   2.0000      -8.082144      -219.9263
  17   2.0000      -8.081426      -219.9068
  18   2.0000      -6.040720      -164.3764
  19   2.0000      -6.040233      -164.3631
  20   2.0000      -6.036486      -164.2611
  21   2.0000      -6.036098      -164.2506
  22   2.0000      -6.032874      -164.1628
  23   2.0000      -6.031861      -164.1353
  24   2.0000      -1.007030       -27.4027
  25   2.0000      -0.985288       -26.8110
  26   2.0000      -0.916611       -24.9423
  27   2.0000      -0.901325       -24.5263
  28   2.0000      -0.869264       -23.6539
  29   2.0000      -0.852500       -23.1977
  30   2.0000      -0.841785       -22.9061
  31   2.0000      -0.816878       -22.2284
  32   2.0000      -0.786365       -21.3981
  33   2.0000      -0.775208       -21.0945
  34   2.0000      -0.708675       -19.2840
  35   2.0000      -0.698860       -19.0169
  36   2.0000      -0.689789       -18.7701
  37   2.0000      -0.668776       -18.1983
  38   2.0000      -0.638687       -17.3796
  39   2.0000      -0.624006       -16.9801
  40   2.0000      -0.593018       -16.1368
  41   2.0000      -0.570968       -15.5368
  42   2.0000      -0.567699       -15.4479
  43   2.0000      -0.556653       -15.1473
  44   2.0000      -0.548354       -14.9215
  45   2.0000      -0.526449       -14.3254
  46   2.0000      -0.521577       -14.1928
  47   2.0000      -0.508921       -13.8485
  48   2.0000      -0.502837       -13.6829
  49   2.0000      -0.497046       -13.5253
  50   2.0000      -0.494910       -13.4672
  51   2.0000      -0.481693       -13.1075
  52   2.0000      -0.477696       -12.9988
  53   2.0000      -0.465568       -12.6687
  54   2.0000      -0.459696       -12.5090
  55   2.0000      -0.449335       -12.2270
  56   2.0000      -0.443009       -12.0549
  57   2.0000      -0.438387       -11.9291
  58   2.0000      -0.435682       -11.8555
  59   2.0000      -0.428971       -11.6729
  60   2.0000      -0.417390       -11.3578
  61   2.0000      -0.415221       -11.2987
  62   2.0000      -0.400998       -10.9117
  63   2.0000      -0.363741        -9.8979
  64   2.0000      -0.336218        -9.1489
  65   2.0000      -0.327357        -8.9078
  66   2.0000      -0.286430        -7.7942
  67   0.0000       0.018615         0.5065
  68   0.0000       0.079598         2.1660
  69   0.0000       0.097005         2.6396
  70   0.0000       0.114313         3.1106
  71   0.0000       0.130678         3.5559

MULLIKEN ATOMIC CHARGES
-----------------------
   0 S :    0.091899
   1 C :   -0.123296
   2 C :   -0.046668
   3 C :    0.020551
   4 C :   -0.097751
   5 H :   -0.035198
   6 C :   -0.008260
   7 H :    0.021988
   8 H :    0.039624
   9 C :   -0.085526
  10 H :    0.033944
  11 H :    0.039348
  12 C :   -0.029111
  13 H :    0.030015
  14 H :    0.017445
  15 H :    0.046942
  16 S :    0.096942
  17 C :   -0.072440
  18 C :   -0.010607
  19 C :   -0.108202
  20 C :   -0.100503
  21 H :   -0.002676
  22 C :    0.054810
  23 H :    0.028898
  24 H :    0.024001
  25 C :   -0.073222
  26 H :    0.022763
  27 H :    0.020167
  28 C :    0.008947
  29 H :    0.028156
  30 H :    0.020334
  31 H :    0.030806
  32 H :    0.056975
  33 H :    0.058906
Sum of atomic charges:    0.0000000

LOEWDIN ATOMIC CHARGES
----------------------
   0 S :    0.378709
   1 C :   -0.185485
   2 C :   -0.064832
   3 C :   -0.061785
   4 C :   -0.168933
   5 H :    0.013214
   6 C :   -0.039773
   7 H :    0.027421
   8 H :    0.032550
   9 C :   -0.040773
  10 H :    0.023654
  11 H :    0.028142
  12 C :   -0.065121
  13 H :    0.028100
  14 H :    0.016296
  15 H :    0.032167
  16 S :    0.417145
  17 C :   -0.188493
  18 C :   -0.065249
  19 C :   -0.056841
  20 C :   -0.199675
  21 H :    0.020975
  22 C :   -0.031847
  23 H :    0.036613
  24 H :    0.023086
  25 C :   -0.038160
  26 H :    0.027670
  27 H :    0.014681
  28 C :   -0.054665
  29 H :    0.021874
  30 H :    0.018087
  31 H :    0.033852
  32 H :    0.036811
  33 H :    0.030582

  Mayer bond orders larger than 0.100000
B(  0-S ,  1-C ) :   1.1204 B(  0-S ,  4-C ) :   1.1344 B(  1-C ,  2-C ) :   1.6419
B(  1-C , 32-H ) :   0.9646 B(  2-C ,  3-C ) :   1.2237 B(  2-C ,  6-C ) :   1.0315
B(  3-C ,  4-C ) :   1.5758 B(  3-C ,  5-H ) :   1.0079 B(  4-C , 20-C ) :   1.0728
B(  6-C ,  7-H ) :   0.9445 B(  6-C ,  8-H ) :   0.9470 B(  6-C ,  9-C ) :   1.0453
B(  9-C , 10-H ) :   0.9566 B(  9-C , 11-H ) :   0.9594 B(  9-C , 12-C ) :   1.0743
B( 12-C , 13-H ) :   0.9752 B( 12-C , 14-H ) :   0.9749 B( 12-C , 15-H ) :   0.9747
B( 16-S , 17-C ) :   1.1712 B( 16-S , 20-C ) :   1.1370 B( 17-C , 18-C ) :   1.5802
B( 17-C , 33-H ) :   0.9704 B( 18-C , 19-C ) :   1.2566 B( 18-C , 21-H ) :   1.0017
B( 19-C , 20-C ) :   1.5739 B( 19-C , 22-C ) :   1.0351 B( 22-C , 23-H ) :   0.9328
B( 22-C , 24-H ) :   0.9381 B( 22-C , 25-C ) :   1.0732 B( 25-C , 26-H ) :   0.9534
B( 25-C , 27-H ) :   0.9553 B( 25-C , 28-C ) :   1.0843 B( 28-C , 29-H ) :   0.9679
B( 28-C , 30-H ) :   0.9754 B( 28-C , 31-H ) :   0.9654

Dispersion correction           -0.014977234
FINAL SINGLE POINT ENERGY     -1339.870821778898

DIPOLE MOMENT
-------------
                                X             Y             Z
Electronic contribution:     -6.48974     -12.00050     -27.11954
Nuclear contribution   :      6.44460      12.28648      27.83991
                        -----------------------------------------
Total Dipole Moment    :     -0.04514       0.28599       0.72037
                        -----------------------------------------
Magnitude (a.u.)       :      0.77638
Magnitude (Debye)      :      1.97340

Rotational constants in cm-1:     0.020740     0.008814     0.006719
Rotational constants in MHz :   621.783243   264.230119   201.434915

                             ****ORCA TERMINATED NORMALLY****
TOTAL RUN TIME: 0 days 0 hours 0 minutes 36 seconds 596 msec
