                         Program Version 4.2.1 -  RELEASE  -
|  1> ! wB97X-D3 SP def2-SVP
|  2> %pal
|  3> nprocs 16
|  4> end
|  5>
|  6> * xyz 0 1
|  7> S 	 -3.63725 	 60.0048 	 49.6246
|  8> C 	 -5.33821 	 59.8039 	 50.0843
|  9> C 	 -6.14683 	 59.5082 	 48.9935
| 10> C 	 -5.39113 	 59.4766 	 47.807
| 11> C 	 -3.99764 	 59.4861 	 48.0138
| 12> H 	 -5.79464 	 59.4733 	 46.7818
| 13> C 	 -7.66258 	 59.3524 	 48.9502
| 14> H 	 -7.8021 	 58.2778 	 49.1062
| 15> H 	 -8.06026 	 59.5477 	 47.9339
| 16> C 	 -8.61573 	 60.1636 	 49.8878
| 17> H 	 -8.34447 	 60.1578 	 50.9136
| 18> H 	 -8.52803 	 61.2209 	 49.5939
| 19> C 	 -10.0449 	 59.6161 	 49.6549
| 20> H 	 -9.94278 	 58.5382 	 49.8949
| 21> H 	 -10.7379 	 60.145 	 50.4248
| 22> H 	 -10.4703 	 59.7617 	 48.6082
| 23> S 	 -1.98654 	 60.9645 	 46.7679
| 24> C 	 -1.55269 	 60.4613 	 45.1478
| 25> C 	 -1.85344 	 59.1499 	 44.8598
| 26> C 	 -2.67736 	 58.5483 	 45.9103
| 27> C 	 -2.99702 	 59.484 	 46.9318
| 28> H 	 -1.44411 	 58.7792 	 43.948
| 29> C 	 -3.03908 	 57.0714 	 45.8872
| 30> H 	 -3.1403 	 56.8212 	 44.8607
| 31> H 	 -4.0211 	 56.8761 	 46.3302
| 32> C 	 -2.10753 	 56.0947 	 46.6433
| 33> H 	 -1.04744 	 55.9142 	 46.2136
| 34> H 	 -2.52282 	 55.0521 	 46.6395
| 35> C 	 -1.80451 	 56.4994 	 48.1295
| 36> H 	 -2.68409 	 57.0526 	 48.5529
| 37> H 	 -0.980418 	 57.3215 	 48.1627
| 38> H 	 -1.55729 	 55.757 	 48.8175
| 39> H 	 -5.77554 	 59.9226 	 51.0808
| 40> H 	 -1.07138 	 61.1804 	 44.4711
| 41> *
| 42>
| 43>                          ****END OF INPUT****

CARTESIAN COORDINATES (ANGSTROEM)
---------------------------------
  S     -3.637250   60.004800   49.624600
  C     -5.338210   59.803900   50.084300
  C     -6.146830   59.508200   48.993500
  C     -5.391130   59.476600   47.807000
  C     -3.997640   59.486100   48.013800
  H     -5.794640   59.473300   46.781800
  C     -7.662580   59.352400   48.950200
  H     -7.802100   58.277800   49.106200
  H     -8.060260   59.547700   47.933900
  C     -8.615730   60.163600   49.887800
  H     -8.344470   60.157800   50.913600
  H     -8.528030   61.220900   49.593900
  C    -10.044900   59.616100   49.654900
  H     -9.942780   58.538200   49.894900
  H    -10.737900   60.145000   50.424800
  H    -10.470300   59.761700   48.608200
  S     -1.986540   60.964500   46.767900
  C     -1.552690   60.461300   45.147800
  C     -1.853440   59.149900   44.859800
  C     -2.677360   58.548300   45.910300
  C     -2.997020   59.484000   46.931800
  H     -1.444110   58.779200   43.948000
  C     -3.039080   57.071400   45.887200
  H     -3.140300   56.821200   44.860700
  H     -4.021100   56.876100   46.330200
  C     -2.107530   56.094700   46.643300
  H     -1.047440   55.914200   46.213600
  H     -2.522820   55.052100   46.639500
  C     -1.804510   56.499400   48.129500
  H     -2.684090   57.052600   48.552900
  H     -0.980418   57.321500   48.162700
  H     -1.557290   55.757000   48.817500
  H     -5.775540   59.922600   51.080800
  H     -1.071380   61.180400   44.471100

 Total Charge           Charge          ....    0
 Multiplicity           Mult            ....    1
 Number of Electrons    NEL             ....  134
 Basis Dimension        Dim             ....  322

ORBITAL ENERGIES
----------------

  NO   OCC          E(Eh)            E(eV)
   0   2.0000     -88.970723     -2421.0164
   1   2.0000     -88.962904     -2420.8037
   2   2.0000     -10.334424      -281.2140
   3   2.0000     -10.331191      -281.1260
   4   2.0000     -10.319288      -280.8021
   5   2.0000     -10.316168      -280.7172
   6   2.0000     -10.315219      -280.6914
   7   2.0000     -10.301660      -280.3224
   8   2.0000     -10.298305      -280.2311
   9   2.0000     -10.297165      -280.2001
  10   2.0000     -10.297021      -280.1962
  11   2.0000     -10.296811      -280.1905
  12   2.0000     -10.294544      -280.1288
  13   2.0000     -10.293032      -280.0876
  14   2.0000     -10.291120      -280.0356
  15   2.0000     -10.274573      -279.5853
  16   2.0000      -8.084907      -220.0015
  17   2.0000      -8.077423      -219.7978
  18   2.0000      -6.043460      -164.4509
  19   2.0000      -6.039555      -164.3446
  20   2.0000      -6.035870      -164.2444
  21   2.0000      -6.035602      -164.2371
  22   2.0000      -6.032200      -164.1445
  23   2.0000      -6.028017      -164.0307
  24   2.0000      -1.001680       -27.2571
  25   2.0000      -0.978113       -26.6158
  26   2.0000      -0.909567       -24.7506
  27   2.0000      -0.899254       -24.4699
  28   2.0000      -0.865925       -23.5630
  29   2.0000      -0.848239       -23.0818
  30   2.0000      -0.838104       -22.8060
  31   2.0000      -0.806602       -21.9488
  32   2.0000      -0.779237       -21.2041
  33   2.0000      -0.768094       -20.9009
  34   2.0000      -0.708501       -19.2793
  35   2.0000      -0.698665       -19.0116
  36   2.0000      -0.684078       -18.6147
  37   2.0000      -0.656318       -17.8593
  38   2.0000      -0.634832       -17.2746
  39   2.0000      -0.613983       -16.7073
  40   2.0000      -0.590642       -16.0722
  41   2.0000      -0.574222       -15.6254
  42   2.0000      -0.564575       -15.3629
  43   2.0000      -0.550553       -14.9813
  44   2.0000      -0.534871       -14.5546
  45   2.0000      -0.518287       -14.1033
  46   2.0000      -0.507945       -13.8219
  47   2.0000      -0.500327       -13.6146
  48   2.0000      -0.495067       -13.4715
  49   2.0000      -0.494226       -13.4486
  50   2.0000      -0.485741       -13.2177
  51   2.0000      -0.476887       -12.9768
  52   2.0000      -0.474332       -12.9072
  53   2.0000      -0.457297       -12.4437
  54   2.0000      -0.453896       -12.3511
  55   2.0000      -0.447630       -12.1806
  56   2.0000      -0.445784       -12.1304
  57   2.0000      -0.441937       -12.0257
  58   2.0000      -0.431668       -11.7463
  59   2.0000      -0.430107       -11.7038
  60   2.0000      -0.419569       -11.4171
  61   2.0000      -0.414966       -11.2918
  62   2.0000      -0.400164       -10.8890
  63   2.0000      -0.341003        -9.2792
  64   2.0000      -0.331548        -9.0219
  65   2.0000      -0.327491        -8.9115
  66   2.0000      -0.286246        -7.7892
  67   0.0000       0.026138         0.7113
  68   0.0000       0.057142         1.5549
  69   0.0000       0.097480         2.6526
  70   0.0000       0.119452         3.2505
  71   0.0000       0.133828         3.6416

MULLIKEN ATOMIC CHARGES
-----------------------
   0 S :    0.115633
   1 C :   -0.130471
   2 C :   -0.049215
   3 C :    0.007354
   4 C :   -0.157824
   5 H :    0.028488
   6 C :    0.015380
   7 H :    0.040956
   8 H :    0.028642
   9 C :   -0.055027
  10 H :    0.025352
  11 H :    0.037167
  12 C :   -0.107324
  13 H :    0.040902
  14 H :    0.052632
  15 H :    0.055754
  16 S :    0.091742
  17 C :   -0.114677
  18 C :   -0.012803
  19 C :   -0.041470
  20 C :   -0.157040
  21 H :    0.015628
  22 C :    0.111834
  23 H :    0.014254
  24 H :    0.030945
  25 C :   -0.105678
  26 H :    0.038360
  27 H :    0.037872
  28 C :   -0.079037
  29 H :    0.031396
  30 H :    0.046334
  31 H :    0.029700
  32 H :    0.046667
  33 H :    0.067575
Sum of atomic charges:    0.0000000

LOEWDIN ATOMIC CHARGES
----------------------
   0 S :    0.410052
   1 C :   -0.200147
   2 C :   -0.065110
   3 C :   -0.061104
   4 C :   -0.206936
   5 H :    0.036273
   6 C :   -0.036134
   7 H :    0.034632
   8 H :    0.034432
   9 C :   -0.041369
  10 H :    0.016152
  11 H :    0.027096
  12 C :   -0.075592
  13 H :    0.027862
  14 H :    0.036800
  15 H :    0.033436
  16 S :    0.372691
  17 C :   -0.177006
  18 C :   -0.070366
  19 C :   -0.046146
  20 C :   -0.181149
  21 H :    0.031906
  22 C :   -0.031694
  23 H :    0.026856
  24 H :    0.036644
  25 C :   -0.048786
  26 H :    0.028628
  27 H :    0.028086
  28 C :   -0.077060
  29 H :    0.025891
  30 H :    0.035526
  31 H :    0.014856
  32 H :    0.029854
  33 H :    0.030927

  Mayer bond orders larger than 0.100000
B(  0-S ,  1-C ) :   1.1304 B(  0-S ,  4-C ) :   1.1582 B(  1-C ,  2-C ) :   1.6030
B(  1-C ,  4-C ) :   0.1016 B(  1-C , 32-H ) :   0.9662 B(  2-C ,  3-C ) :   1.2688
B(  2-C ,  6-C ) :   0.9992 B(  3-C ,  4-C ) :   1.5464 B(  3-C ,  5-H ) :   0.9879
B(  4-C , 20-C ) :   1.0420 B(  6-C ,  7-H ) :   0.9351 B(  6-C ,  8-H ) :   0.9533
B(  6-C ,  9-C ) :   1.0565 B(  9-C , 10-H ) :   0.9558 B(  9-C , 11-H ) :   0.9571
B(  9-C , 12-C ) :   1.0692 B( 12-C , 13-H ) :   0.9758 B( 12-C , 14-H ) :   0.9729
B( 12-C , 15-H ) :   0.9746 B( 16-S , 17-C ) :   1.1513 B( 16-S , 20-C ) :   1.1186
B( 17-C , 18-C ) :   1.6369 B( 17-C , 33-H ) :   0.9639 B( 18-C , 19-C ) :   1.1880
B( 18-C , 21-H ) :   0.9995 B( 19-C , 20-C ) :   1.6089 B( 19-C , 22-C ) :   1.0507
B( 22-C , 23-H ) :   0.9309 B( 22-C , 24-H ) :   0.9324 B( 22-C , 25-C ) :   1.0637
B( 25-C , 26-H ) :   0.9598 B( 25-C , 27-H ) :   0.9590 B( 25-C , 28-C ) :   1.0590
B( 28-C , 29-H ) :   0.9758 B( 28-C , 30-H ) :   0.9728 B( 28-C , 31-H ) :   0.9767

Dispersion correction           -0.014633284
FINAL SINGLE POINT ENERGY     -1339.859308997163

DIPOLE MOMENT
-------------
                                X             Y             Z
Electronic contribution:     17.94202      14.10799      -2.08474
Nuclear contribution   :    -18.43783     -14.32608       1.80881
                        -----------------------------------------
Total Dipole Moment    :     -0.49581      -0.21809      -0.27593
                        -----------------------------------------
Magnitude (a.u.)       :      0.60789
Magnitude (Debye)      :      1.54513

Rotational constants in cm-1:     0.022112     0.007194     0.006695
Rotational constants in MHz :   662.907471   215.676357   200.707962

                             ****ORCA TERMINATED NORMALLY****
TOTAL RUN TIME: 0 days 0 hours 0 minutes 33 seconds 912 msec
