                         Program Version 4.2.1 -  RELEASE  -
|  1> ! wB97X-D3 SP def2-SVP
|  2> %pal
|  3> nprocs 16
|  4> end
|  5>
|  6> * xyz 0 1
|  7> S 	 -89.2002 	 50.9605 	 131.858
|  8> C 	 -89.4284 	 52.6646 	 132.227
|  9> C 	 -88.3605 	 53.442 	 131.868
| 10> C 	 -87.3056 	 52.6595 	 131.332
| 11> C 	 -87.5503 	 51.286 	 131.153
| 12> H 	 -86.3361 	 53.035 	 131.017
| 13> C 	 -88.3154 	 54.8882 	 132.138
| 14> H 	 -89.2784 	 55.1843 	 132.533
| 15> H 	 -88.1376 	 55.473 	 131.248
| 16> C 	 -87.3738 	 55.4823 	 133.189
| 17> H 	 -87.4506 	 56.5591 	 133.042
| 18> H 	 -87.692 	 55.2179 	 134.222
| 19> C 	 -85.8714 	 55.4005 	 132.912
| 20> H 	 -85.463 	 55.6338 	 131.952
| 21> H 	 -85.4469 	 56.2034 	 133.624
| 22> H 	 -85.4225 	 54.411 	 133.145
| 23> S 	 -87.6016 	 49.3667 	 129.147
| 24> C 	 -86.2266 	 48.2977 	 128.844
| 25> C 	 -85.2214 	 48.5915 	 129.723
| 26> C 	 -85.4882 	 49.8055 	 130.501
| 27> C 	 -86.797 	 50.2639 	 130.402
| 28> H 	 -84.3322 	 47.9621 	 129.772
| 29> C 	 -84.4776 	 50.377 	 131.437
| 30> H 	 -84.8795 	 51.2601 	 131.874
| 31> H 	 -83.5501 	 50.7582 	 130.917
| 32> C 	 -83.8693 	 49.393 	 132.518
| 33> H 	 -83.0229 	 49.9681 	 132.915
| 34> H 	 -83.3902 	 48.536 	 131.935
| 35> C 	 -84.969 	 48.9412 	 133.555
| 36> H 	 -84.465 	 48.0806 	 133.992
| 37> H 	 -85.8852 	 48.6724 	 133.144
| 38> H 	 -85.1503 	 49.687 	 134.319
| 39> H 	 -90.3623 	 53.0513 	 132.645
| 40> H 	 -86.2472 	 47.5227 	 128.098
| 41> *
| 42>
| 43>                          ****END OF INPUT****

CARTESIAN COORDINATES (ANGSTROEM)
---------------------------------
  S    -89.200200   50.960500  131.858000
  C    -89.428400   52.664600  132.227000
  C    -88.360500   53.442000  131.868000
  C    -87.305600   52.659500  131.332000
  C    -87.550300   51.286000  131.153000
  H    -86.336100   53.035000  131.017000
  C    -88.315400   54.888200  132.138000
  H    -89.278400   55.184300  132.533000
  H    -88.137600   55.473000  131.248000
  C    -87.373800   55.482300  133.189000
  H    -87.450600   56.559100  133.042000
  H    -87.692000   55.217900  134.222000
  C    -85.871400   55.400500  132.912000
  H    -85.463000   55.633800  131.952000
  H    -85.446900   56.203400  133.624000
  H    -85.422500   54.411000  133.145000
  S    -87.601600   49.366700  129.147000
  C    -86.226600   48.297700  128.844000
  C    -85.221400   48.591500  129.723000
  C    -85.488200   49.805500  130.501000
  C    -86.797000   50.263900  130.402000
  H    -84.332200   47.962100  129.772000
  C    -84.477600   50.377000  131.437000
  H    -84.879500   51.260100  131.874000
  H    -83.550100   50.758200  130.917000
  C    -83.869300   49.393000  132.518000
  H    -83.022900   49.968100  132.915000
  H    -83.390200   48.536000  131.935000
  C    -84.969000   48.941200  133.555000
  H    -84.465000   48.080600  133.992000
  H    -85.885200   48.672400  133.144000
  H    -85.150300   49.687000  134.319000
  H    -90.362300   53.051300  132.645000
  H    -86.247200   47.522700  128.098000

 Total Charge           Charge          ....    0
 Multiplicity           Mult            ....    1
 Number of Electrons    NEL             ....  134
 Basis Dimension        Dim             ....  322

ORBITAL ENERGIES
----------------

  NO   OCC          E(Eh)            E(eV)
   0   2.0000     -88.966568     -2420.9034
   1   2.0000     -88.961126     -2420.7553
   2   2.0000     -10.341240      -281.3994
   3   2.0000     -10.330786      -281.1150
   4   2.0000     -10.319979      -280.8209
   5   2.0000     -10.317330      -280.7488
   6   2.0000     -10.305882      -280.4373
   7   2.0000     -10.299655      -280.2679
   8   2.0000     -10.298737      -280.2429
   9   2.0000     -10.298552      -280.2379
  10   2.0000     -10.296798      -280.1901
  11   2.0000     -10.291900      -280.0568
  12   2.0000     -10.287571      -279.9391
  13   2.0000     -10.287242      -279.9301
  14   2.0000     -10.285297      -279.8772
  15   2.0000     -10.270465      -279.4736
  16   2.0000      -8.080094      -219.8705
  17   2.0000      -8.076062      -219.7608
  18   2.0000      -6.038659      -164.3203
  19   2.0000      -6.034782      -164.2148
  20   2.0000      -6.034702      -164.2126
  21   2.0000      -6.030846      -164.1077
  22   2.0000      -6.030417      -164.0960
  23   2.0000      -6.026758      -163.9964
  24   2.0000      -1.001448       -27.2508
  25   2.0000      -0.982050       -26.7230
  26   2.0000      -0.914776       -24.8923
  27   2.0000      -0.899558       -24.4782
  28   2.0000      -0.871234       -23.7075
  29   2.0000      -0.846615       -23.0376
  30   2.0000      -0.838001       -22.8032
  31   2.0000      -0.820527       -22.3277
  32   2.0000      -0.784500       -21.3473
  33   2.0000      -0.772686       -21.0258
  34   2.0000      -0.708053       -19.2671
  35   2.0000      -0.697306       -18.9747
  36   2.0000      -0.695937       -18.9374
  37   2.0000      -0.654626       -17.8133
  38   2.0000      -0.641149       -17.4465
  39   2.0000      -0.617895       -16.8138
  40   2.0000      -0.597225       -16.2513
  41   2.0000      -0.581741       -15.8300
  42   2.0000      -0.553553       -15.0630
  43   2.0000      -0.539277       -14.6745
  44   2.0000      -0.537537       -14.6271
  45   2.0000      -0.530375       -14.4322
  46   2.0000      -0.521783       -14.1984
  47   2.0000      -0.515313       -14.0224
  48   2.0000      -0.504130       -13.7181
  49   2.0000      -0.499956       -13.6045
  50   2.0000      -0.492747       -13.4083
  51   2.0000      -0.485692       -13.2164
  52   2.0000      -0.472313       -12.8523
  53   2.0000      -0.467475       -12.7206
  54   2.0000      -0.462240       -12.5782
  55   2.0000      -0.446473       -12.1491
  56   2.0000      -0.442391       -12.0381
  57   2.0000      -0.432549       -11.7703
  58   2.0000      -0.424056       -11.5391
  59   2.0000      -0.418652       -11.3921
  60   2.0000      -0.413577       -11.2540
  61   2.0000      -0.411118       -11.1871
  62   2.0000      -0.410193       -11.1619
  63   2.0000      -0.350451        -9.5363
  64   2.0000      -0.330607        -8.9963
  65   2.0000      -0.323473        -8.8021
  66   2.0000      -0.293560        -7.9882
  67   0.0000       0.027626         0.7517
  68   0.0000       0.066833         1.8186
  69   0.0000       0.113842         3.0978
  70   0.0000       0.119201         3.2436
  71   0.0000       0.123150         3.3511

MULLIKEN ATOMIC CHARGES
-----------------------
   0 S :    0.099004
   1 C :   -0.135642
   2 C :   -0.049847
   3 C :    0.044583
   4 C :   -0.166254
   5 H :    0.011890
   6 C :    0.086589
   7 H :    0.005736
   8 H :    0.024060
   9 C :   -0.070971
  10 H :    0.028059
  11 H :    0.042502
  12 C :   -0.093172
  13 H :    0.028557
  14 H :    0.041777
  15 H :    0.039343
  16 S :    0.093257
  17 C :   -0.089239
  18 C :   -0.026423
  19 C :   -0.037400
  20 C :   -0.144414
  21 H :    0.029243
  22 C :    0.043714
  23 H :   -0.000260
  24 H :    0.033896
  25 C :   -0.116037
  26 H :    0.034043
  27 H :    0.036426
  28 C :   -0.009546
  29 H :    0.031924
  30 H :    0.034892
  31 H :    0.035540
  32 H :    0.055729
  33 H :    0.058444
Sum of atomic charges:   -0.0000000

LOEWDIN ATOMIC CHARGES
----------------------
   0 S :    0.373107
   1 C :   -0.184227
   2 C :   -0.073201
   3 C :   -0.055223
   4 C :   -0.171601
   5 H :    0.029147
   6 C :   -0.034642
   7 H :    0.031074
   8 H :    0.031365
   9 C :   -0.040259
  10 H :    0.030502
  11 H :    0.030118
  12 C :   -0.078216
  13 H :    0.019486
  14 H :    0.038454
  15 H :    0.021860
  16 S :    0.397683
  17 C :   -0.171092
  18 C :   -0.070193
  19 C :   -0.055644
  20 C :   -0.207786
  21 H :    0.033729
  22 C :   -0.043152
  23 H :    0.019023
  24 H :    0.036393
  25 C :   -0.037382
  26 H :    0.025269
  27 H :    0.025357
  28 C :   -0.056395
  29 H :    0.029226
  30 H :    0.018768
  31 H :    0.028077
  32 H :    0.031415
  33 H :    0.028955

  Mayer bond orders larger than 0.100000
B(  0-S ,  1-C ) :   1.1397 B(  0-S ,  4-C ) :   1.1315 B(  1-C ,  2-C ) :   1.6102
B(  1-C ,  4-C ) :   0.1002 B(  1-C , 32-H ) :   0.9606 B(  2-C ,  3-C ) :   1.2376
B(  2-C ,  6-C ) :   1.0425 B(  3-C ,  4-C ) :   1.5729 B(  3-C ,  5-H ) :   0.9876
B(  4-C , 20-C ) :   1.0481 B(  6-C ,  7-H ) :   0.9321 B(  6-C ,  8-H ) :   0.9302
B(  6-C ,  9-C ) :   1.0865 B(  9-C , 10-H ) :   0.9551 B(  9-C , 11-H ) :   0.9550
B(  9-C , 12-C ) :   1.0658 B( 12-C , 13-H ) :   0.9741 B( 12-C , 14-H ) :   0.9757
B( 12-C , 15-H ) :   0.9726 B( 16-S , 17-C ) :   1.1449 B( 16-S , 20-C ) :   1.1336
B( 17-C , 18-C ) :   1.6228 B( 17-C , 33-H ) :   0.9717 B( 18-C , 19-C ) :   1.2091
B( 18-C , 21-H ) :   0.9893 B( 19-C , 20-C ) :   1.5869 B( 19-C , 22-C ) :   1.0718
B( 22-C , 23-H ) :   0.9303 B( 22-C , 24-H ) :   0.9306 B( 22-C , 25-C ) :   1.0673
B( 25-C , 26-H ) :   0.9575 B( 25-C , 27-H ) :   0.9598 B( 25-C , 28-C ) :   1.0504
B( 28-C , 29-H ) :   0.9771 B( 28-C , 30-H ) :   0.9811 B( 28-C , 31-H ) :   0.9764

Dispersion correction           -0.014646028
FINAL SINGLE POINT ENERGY     -1339.869867713665

DIPOLE MOMENT
-------------
                                X             Y             Z
Electronic contribution:    -17.16097     -13.92895     -15.16517
Nuclear contribution   :     17.63590      14.33063      15.36979
                        -----------------------------------------
Total Dipole Moment    :      0.47493       0.40168       0.20462
                        -----------------------------------------
Magnitude (a.u.)       :      0.65481
Magnitude (Debye)      :      1.66440

Rotational constants in cm-1:     0.018902     0.008896     0.007225
Rotational constants in MHz :   566.653915   266.680558   216.613002

                             ****ORCA TERMINATED NORMALLY****
TOTAL RUN TIME: 0 days 0 hours 0 minutes 34 seconds 536 msec
