                         Program Version 4.2.1 -  RELEASE  -
|  1> ! wB97X-D3 SP def2-SVP
|  2> %pal
|  3> nprocs 16
|  4> end
|  5>
|  6> * xyz 0 1
|  7> S 	 7.47456 	 -11.1947 	 61.5688
|  8> C 	 8.18796 	 -12.4106 	 62.4936
|  9> C 	 7.55752 	 -12.5951 	 63.7174
| 10> C 	 6.36734 	 -11.7832 	 63.8018
| 11> C 	 6.17938 	 -10.9745 	 62.7179
| 12> H 	 5.77313 	 -11.6651 	 64.7545
| 13> C 	 7.97619 	 -13.6847 	 64.6475
| 14> H 	 7.66881 	 -13.5229 	 65.6638
| 15> H 	 9.09758 	 -13.6689 	 64.6211
| 16> C 	 7.64384 	 -15.1809 	 64.2802
| 17> H 	 7.54211 	 -15.3033 	 63.2353
| 18> H 	 8.54481 	 -15.7521 	 64.5849
| 19> C 	 6.34474 	 -15.6697 	 64.8993
| 20> H 	 5.40295 	 -15.3836 	 64.3509
| 21> H 	 6.453 	 -16.6942 	 65.1564
| 22> H 	 6.20727 	 -15.1709 	 65.8767
| 23> S 	 5.54028 	 -8.24992 	 62.5472
| 24> C 	 3.93217 	 -7.69798 	 62.5241
| 25> C 	 3.05045 	 -8.8066 	 62.6618
| 26> C 	 3.6824 	 -10.1252 	 62.7397
| 27> C 	 5.06363 	 -9.98542 	 62.5797
| 28> H 	 2.03757 	 -8.52962 	 62.4157
| 29> C 	 2.93618 	 -11.4571 	 62.6438
| 30> H 	 2.0824 	 -11.5137 	 63.3578
| 31> H 	 3.60477 	 -12.1625 	 62.9911
| 32> C 	 2.54393 	 -11.9016 	 61.2166
| 33> H 	 3.35448 	 -12.3804 	 60.6957
| 34> H 	 2.442 	 -10.9811 	 60.6383
| 35> C 	 1.27261 	 -12.7758 	 61.1932
| 36> H 	 1.09777 	 -12.9458 	 60.1478
| 37> H 	 0.422053 	 -12.1695 	 61.6034
| 38> H 	 1.29401 	 -13.6212 	 61.8123
| 39> H 	 9.056 	 -12.945 	 62.1103
| 40> H 	 3.68917 	 -6.70654 	 62.1415
| 41> *
| 42>
| 43>                          ****END OF INPUT****

CARTESIAN COORDINATES (ANGSTROEM)
---------------------------------
  S      7.474560  -11.194700   61.568800
  C      8.187960  -12.410600   62.493600
  C      7.557520  -12.595100   63.717400
  C      6.367340  -11.783200   63.801800
  C      6.179380  -10.974500   62.717900
  H      5.773130  -11.665100   64.754500
  C      7.976190  -13.684700   64.647500
  H      7.668810  -13.522900   65.663800
  H      9.097580  -13.668900   64.621100
  C      7.643840  -15.180900   64.280200
  H      7.542110  -15.303300   63.235300
  H      8.544810  -15.752100   64.584900
  C      6.344740  -15.669700   64.899300
  H      5.402950  -15.383600   64.350900
  H      6.453000  -16.694200   65.156400
  H      6.207270  -15.170900   65.876700
  S      5.540280   -8.249920   62.547200
  C      3.932170   -7.697980   62.524100
  C      3.050450   -8.806600   62.661800
  C      3.682400  -10.125200   62.739700
  C      5.063630   -9.985420   62.579700
  H      2.037570   -8.529620   62.415700
  C      2.936180  -11.457100   62.643800
  H      2.082400  -11.513700   63.357800
  H      3.604770  -12.162500   62.991100
  C      2.543930  -11.901600   61.216600
  H      3.354480  -12.380400   60.695700
  H      2.442000  -10.981100   60.638300
  C      1.272610  -12.775800   61.193200
  H      1.097770  -12.945800   60.147800
  H      0.422053  -12.169500   61.603400
  H      1.294010  -13.621200   61.812300
  H      9.056000  -12.945000   62.110300
  H      3.689170   -6.706540   62.141500

 Total Charge           Charge          ....    0
 Multiplicity           Mult            ....    1
 Number of Electrons    NEL             ....  134
 Basis Dimension        Dim             ....  322

ORBITAL ENERGIES
----------------

  NO   OCC          E(Eh)            E(eV)
   0   2.0000     -88.967553     -2420.9302
   1   2.0000     -88.960963     -2420.7509
   2   2.0000     -10.333231      -281.1815
   3   2.0000     -10.329032      -281.0673
   4   2.0000     -10.317474      -280.7527
   5   2.0000     -10.312745      -280.6240
   6   2.0000     -10.311881      -280.6005
   7   2.0000     -10.300819      -280.2995
   8   2.0000     -10.298834      -280.2455
   9   2.0000     -10.298797      -280.2445
  10   2.0000     -10.292182      -280.0645
  11   2.0000     -10.286960      -279.9224
  12   2.0000     -10.286101      -279.8990
  13   2.0000     -10.282428      -279.7991
  14   2.0000     -10.278248      -279.6853
  15   2.0000     -10.276145      -279.6281
  16   2.0000      -8.083550      -219.9646
  17   2.0000      -8.076058      -219.7607
  18   2.0000      -6.041844      -164.4069
  19   2.0000      -6.037770      -164.2961
  20   2.0000      -6.034579      -164.2092
  21   2.0000      -6.034519      -164.2076
  22   2.0000      -6.030355      -164.0943
  23   2.0000      -6.027005      -164.0031
  24   2.0000      -1.007881       -27.4258
  25   2.0000      -0.982528       -26.7359
  26   2.0000      -0.909470       -24.7479
  27   2.0000      -0.906920       -24.6785
  28   2.0000      -0.867051       -23.5937
  29   2.0000      -0.852416       -23.1954
  30   2.0000      -0.845682       -23.0122
  31   2.0000      -0.810985       -22.0680
  32   2.0000      -0.783293       -21.3145
  33   2.0000      -0.769363       -20.9354
  34   2.0000      -0.704504       -19.1705
  35   2.0000      -0.702405       -19.1134
  36   2.0000      -0.690494       -18.7893
  37   2.0000      -0.656324       -17.8595
  38   2.0000      -0.643634       -17.5142
  39   2.0000      -0.615854       -16.7582
  40   2.0000      -0.593851       -16.1595
  41   2.0000      -0.572142       -15.5688
  42   2.0000      -0.557018       -15.1572
  43   2.0000      -0.553868       -15.0715
  44   2.0000      -0.532556       -14.4916
  45   2.0000      -0.530285       -14.4298
  46   2.0000      -0.518828       -14.1180
  47   2.0000      -0.509067       -13.8524
  48   2.0000      -0.503584       -13.7032
  49   2.0000      -0.502865       -13.6837
  50   2.0000      -0.486360       -13.2345
  51   2.0000      -0.479701       -13.0533
  52   2.0000      -0.474312       -12.9067
  53   2.0000      -0.461282       -12.5521
  54   2.0000      -0.459953       -12.5160
  55   2.0000      -0.447394       -12.1742
  56   2.0000      -0.441285       -12.0080
  57   2.0000      -0.434088       -11.8121
  58   2.0000      -0.432184       -11.7603
  59   2.0000      -0.426831       -11.6147
  60   2.0000      -0.419932       -11.4269
  61   2.0000      -0.416066       -11.3217
  62   2.0000      -0.410167       -11.1612
  63   2.0000      -0.345213        -9.3937
  64   2.0000      -0.329675        -8.9709
  65   2.0000      -0.323218        -8.7952
  66   2.0000      -0.297749        -8.1022
  67   0.0000       0.032336         0.8799
  68   0.0000       0.066565         1.8113
  69   0.0000       0.111336         3.0296
  70   0.0000       0.120600         3.2817
  71   0.0000       0.129708         3.5295

MULLIKEN ATOMIC CHARGES
-----------------------
   0 S :    0.128539
   1 C :   -0.134352
   2 C :   -0.078602
   3 C :    0.024952
   4 C :   -0.168683
   5 H :    0.044141
   6 C :    0.031980
   7 H :    0.016892
   8 H :    0.029507
   9 C :   -0.055458
  10 H :    0.020813
  11 H :    0.033244
  12 C :   -0.046675
  13 H :    0.051602
  14 H :    0.031955
  15 H :    0.010803
  16 S :    0.096094
  17 C :   -0.117846
  18 C :   -0.046106
  19 C :   -0.048558
  20 C :   -0.156383
  21 H :    0.023331
  22 C :    0.106259
  23 H :    0.029830
  24 H :   -0.004039
  25 C :   -0.067662
  26 H :    0.026776
  27 H :    0.024672
  28 C :   -0.034115
  29 H :    0.036337
  30 H :    0.030064
  31 H :    0.029317
  32 H :    0.055981
  33 H :    0.075388
Sum of atomic charges:    0.0000000

LOEWDIN ATOMIC CHARGES
----------------------
   0 S :    0.438681
   1 C :   -0.210416
   2 C :   -0.072161
   3 C :   -0.065535
   4 C :   -0.211499
   5 H :    0.045170
   6 C :   -0.035437
   7 H :    0.023242
   8 H :    0.037745
   9 C :   -0.037194
  10 H :    0.018917
  11 H :    0.029154
  12 C :   -0.071235
  13 H :    0.035481
  14 H :    0.023891
  15 H :    0.022225
  16 S :    0.402582
  17 C :   -0.207513
  18 C :   -0.075427
  19 C :   -0.051924
  20 C :   -0.182004
  21 H :    0.027870
  22 C :   -0.029777
  23 H :    0.034328
  24 H :    0.019619
  25 C :   -0.036217
  26 H :    0.023238
  27 H :    0.024131
  28 C :   -0.057632
  29 H :    0.027588
  30 H :    0.029792
  31 H :    0.017236
  32 H :    0.029540
  33 H :    0.033540

  Mayer bond orders larger than 0.100000
B(  0-S ,  1-C ) :   1.1739 B(  0-S ,  4-C ) :   1.1624 B(  1-C ,  2-C ) :   1.5647
B(  1-C , 32-H ) :   0.9708 B(  2-C ,  3-C ) :   1.2641 B(  2-C ,  6-C ) :   1.0495
B(  3-C ,  4-C ) :   1.5701 B(  3-C ,  5-H ) :   0.9826 B(  4-C , 20-C ) :   0.9967
B(  6-C ,  7-H ) :   0.9444 B(  6-C ,  8-H ) :   0.9398 B(  6-C ,  9-C ) :   1.0567
B(  9-C , 10-H ) :   0.9569 B(  9-C , 11-H ) :   0.9600 B(  9-C , 12-C ) :   1.0756
B( 12-C , 13-H ) :   0.9749 B( 12-C , 14-H ) :   0.9726 B( 12-C , 15-H ) :   0.9767
B( 16-S , 17-C ) :   1.1739 B( 16-S , 20-C ) :   1.1520 B( 17-C , 18-C ) :   1.5998
B( 17-C , 20-C ) :   0.1035 B( 17-C , 33-H ) :   0.9643 B( 18-C , 19-C ) :   1.2144
B( 18-C , 21-H ) :   0.9877 B( 19-C , 20-C ) :   1.5984 B( 19-C , 22-C ) :   1.0617
B( 22-C , 23-H ) :   0.9426 B( 22-C , 24-H ) :   0.9157 B( 22-C , 25-C ) :   1.0466
B( 25-C , 26-H ) :   0.9535 B( 25-C , 27-H ) :   0.9635 B( 25-C , 28-C ) :   1.0756
B( 28-C , 29-H ) :   0.9734 B( 28-C , 30-H ) :   0.9768 B( 28-C , 31-H ) :   0.9782

Dispersion correction           -0.014027079
FINAL SINGLE POINT ENERGY     -1339.866630971816

DIPOLE MOMENT
-------------
                                X             Y             Z
Electronic contribution:     12.31217      24.95080      -5.83796
Nuclear contribution   :    -12.47542     -25.48714       5.89762
                        -----------------------------------------
Total Dipole Moment    :     -0.16325      -0.53633       0.05966
                        -----------------------------------------
Magnitude (a.u.)       :      0.56379
Magnitude (Debye)      :      1.43305

Rotational constants in cm-1:     0.017081     0.008881     0.006758
Rotational constants in MHz :   512.071946   266.248061   202.598370

                             ****ORCA TERMINATED NORMALLY****
TOTAL RUN TIME: 0 days 0 hours 0 minutes 29 seconds 844 msec
