                         Program Version 4.2.1 -  RELEASE  -
|  1> ! wB97X-D3 SP def2-SVP
|  2> %pal
|  3> nprocs 16
|  4> end
|  5>
|  6> * xyz 0 1
|  7> S 	 -73.2585 	 39.1923 	 138.936
|  8> C 	 -73.735 	 38.9435 	 137.239
|  9> C 	 -73.0546 	 39.7946 	 136.383
| 10> C 	 -72.3184 	 40.7614 	 137.121
| 11> C 	 -72.3083 	 40.5892 	 138.464
| 12> H 	 -71.726 	 41.5634 	 136.696
| 13> C 	 -73.2021 	 39.9294 	 134.847
| 14> H 	 -72.9329 	 40.9716 	 134.546
| 15> H 	 -74.286 	 39.7325 	 134.811
| 16> C 	 -72.6333 	 38.799 	 133.953
| 17> H 	 -71.6374 	 38.5884 	 134.238
| 18> H 	 -73.1513 	 37.8502 	 134.084
| 19> C 	 -72.7054 	 39.1464 	 132.491
| 20> H 	 -72.3313 	 38.3404 	 131.86
| 21> H 	 -73.737 	 39.2739 	 132.105
| 22> H 	 -72.2604 	 40.1121 	 132.309
| 23> S 	 -70.6101 	 40.6064 	 140.518
| 24> C 	 -70.3849 	 42.0779 	 141.439
| 25> C 	 -71.1297 	 43.0915 	 140.843
| 26> C 	 -71.7971 	 42.7811 	 139.639
| 27> C 	 -71.6599 	 41.4443 	 139.36
| 28> H 	 -71.0634 	 44.0584 	 141.301
| 29> C 	 -72.6921 	 43.7174 	 138.908
| 30> H 	 -73.0093 	 44.4466 	 139.725
| 31> H 	 -73.5547 	 43.1923 	 138.501
| 32> C 	 -72.0001 	 44.5555 	 137.85
| 33> H 	 -71.715 	 43.897 	 136.977
| 34> H 	 -71.1634 	 44.9393 	 138.301
| 35> C 	 -72.7876 	 45.7217 	 137.228
| 36> H 	 -73.5959 	 45.3307 	 136.685
| 37> H 	 -72.1699 	 46.3342 	 136.591
| 38> H 	 -73.1918 	 46.3571 	 138.072
| 39> H 	 -74.4782 	 38.2411 	 136.904
| 40> H 	 -69.6114 	 42.2982 	 142.115
| 41> *
| 42>
| 43>                          ****END OF INPUT****

CARTESIAN COORDINATES (ANGSTROEM)
---------------------------------
  S    -73.258500   39.192300  138.936000
  C    -73.735000   38.943500  137.239000
  C    -73.054600   39.794600  136.383000
  C    -72.318400   40.761400  137.121000
  C    -72.308300   40.589200  138.464000
  H    -71.726000   41.563400  136.696000
  C    -73.202100   39.929400  134.847000
  H    -72.932900   40.971600  134.546000
  H    -74.286000   39.732500  134.811000
  C    -72.633300   38.799000  133.953000
  H    -71.637400   38.588400  134.238000
  H    -73.151300   37.850200  134.084000
  C    -72.705400   39.146400  132.491000
  H    -72.331300   38.340400  131.860000
  H    -73.737000   39.273900  132.105000
  H    -72.260400   40.112100  132.309000
  S    -70.610100   40.606400  140.518000
  C    -70.384900   42.077900  141.439000
  C    -71.129700   43.091500  140.843000
  C    -71.797100   42.781100  139.639000
  C    -71.659900   41.444300  139.360000
  H    -71.063400   44.058400  141.301000
  C    -72.692100   43.717400  138.908000
  H    -73.009300   44.446600  139.725000
  H    -73.554700   43.192300  138.501000
  C    -72.000100   44.555500  137.850000
  H    -71.715000   43.897000  136.977000
  H    -71.163400   44.939300  138.301000
  C    -72.787600   45.721700  137.228000
  H    -73.595900   45.330700  136.685000
  H    -72.169900   46.334200  136.591000
  H    -73.191800   46.357100  138.072000
  H    -74.478200   38.241100  136.904000
  H    -69.611400   42.298200  142.115000

 Total Charge           Charge          ....    0
 Multiplicity           Mult            ....    1
 Number of Electrons    NEL             ....  134
 Basis Dimension        Dim             ....  322

ORBITAL ENERGIES
----------------

  NO   OCC          E(Eh)            E(eV)
   0   2.0000     -88.968233     -2420.9487
   1   2.0000     -88.962671     -2420.7973
   2   2.0000     -10.321230      -280.8549
   3   2.0000     -10.319894      -280.8186
   4   2.0000     -10.316051      -280.7140
   5   2.0000     -10.313299      -280.6391
   6   2.0000     -10.303149      -280.3629
   7   2.0000     -10.301339      -280.3137
   8   2.0000     -10.300127      -280.2807
   9   2.0000     -10.293591      -280.1029
  10   2.0000     -10.291803      -280.0542
  11   2.0000     -10.287124      -279.9269
  12   2.0000     -10.284459      -279.8543
  13   2.0000     -10.282434      -279.7993
  14   2.0000     -10.278098      -279.6813
  15   2.0000     -10.278059      -279.6802
  16   2.0000      -8.082302      -219.9306
  17   2.0000      -8.077287      -219.7942
  18   2.0000      -6.040899      -164.3812
  19   2.0000      -6.037013      -164.2755
  20   2.0000      -6.035835      -164.2434
  21   2.0000      -6.032876      -164.1629
  22   2.0000      -6.031694      -164.1307
  23   2.0000      -6.028127      -164.0337
  24   2.0000      -1.011562       -27.5260
  25   2.0000      -0.983109       -26.7518
  26   2.0000      -0.914851       -24.8944
  27   2.0000      -0.912101       -24.8195
  28   2.0000      -0.876635       -23.8545
  29   2.0000      -0.856640       -23.3104
  30   2.0000      -0.848960       -23.1014
  31   2.0000      -0.813947       -22.1486
  32   2.0000      -0.784151       -21.3378
  33   2.0000      -0.772542       -21.0219
  34   2.0000      -0.710360       -19.3299
  35   2.0000      -0.705075       -19.1861
  36   2.0000      -0.695480       -18.9250
  37   2.0000      -0.667608       -18.1665
  38   2.0000      -0.642607       -17.4862
  39   2.0000      -0.617937       -16.8149
  40   2.0000      -0.597708       -16.2645
  41   2.0000      -0.574824       -15.6417
  42   2.0000      -0.570350       -15.5200
  43   2.0000      -0.556288       -15.1374
  44   2.0000      -0.533282       -14.5113
  45   2.0000      -0.525953       -14.3119
  46   2.0000      -0.522861       -14.2278
  47   2.0000      -0.514450       -13.9989
  48   2.0000      -0.507799       -13.8179
  49   2.0000      -0.502130       -13.6637
  50   2.0000      -0.495105       -13.4725
  51   2.0000      -0.480497       -13.0750
  52   2.0000      -0.473412       -12.8822
  53   2.0000      -0.464539       -12.6408
  54   2.0000      -0.460965       -12.5435
  55   2.0000      -0.448993       -12.2177
  56   2.0000      -0.443083       -12.0569
  57   2.0000      -0.440150       -11.9771
  58   2.0000      -0.433986       -11.8093
  59   2.0000      -0.428696       -11.6654
  60   2.0000      -0.423264       -11.5176
  61   2.0000      -0.415256       -11.2997
  62   2.0000      -0.409362       -11.1393
  63   2.0000      -0.347105        -9.4452
  64   2.0000      -0.335140        -9.1196
  65   2.0000      -0.329487        -8.9658
  66   2.0000      -0.288454        -7.8492
  67   0.0000       0.030894         0.8407
  68   0.0000       0.060100         1.6354
  69   0.0000       0.110532         3.0077
  70   0.0000       0.120479         3.2784
  71   0.0000       0.125833         3.4241

MULLIKEN ATOMIC CHARGES
-----------------------
   0 S :    0.124670
   1 C :   -0.135234
   2 C :   -0.044981
   3 C :   -0.011775
   4 C :   -0.118907
   5 H :    0.006117
   6 C :    0.030972
   7 H :    0.037619
   8 H :    0.035508
   9 C :   -0.035989
  10 H :    0.022224
  11 H :    0.022773
  12 C :   -0.046338
  13 H :    0.038947
  14 H :    0.020924
  15 H :    0.024548
  16 S :    0.094545
  17 C :   -0.066121
  18 C :   -0.064201
  19 C :    0.017304
  20 C :   -0.202012
  21 H :    0.009278
  22 C :    0.053936
  23 H :    0.025231
  24 H :    0.038101
  25 C :   -0.067901
  26 H :    0.028548
  27 H :    0.005232
  28 C :   -0.020228
  29 H :    0.022513
  30 H :    0.037034
  31 H :    0.028935
  32 H :    0.041432
  33 H :    0.047297
Sum of atomic charges:   -0.0000000

LOEWDIN ATOMIC CHARGES
----------------------
   0 S :    0.395312
   1 C :   -0.189802
   2 C :   -0.059124
   3 C :   -0.066917
   4 C :   -0.199451
   5 H :    0.029147
   6 C :   -0.032643
   7 H :    0.034237
   8 H :    0.040315
   9 C :   -0.038206
  10 H :    0.017709
  11 H :    0.025851
  12 C :   -0.066549
  13 H :    0.029306
  14 H :    0.026011
  15 H :    0.021538
  16 S :    0.394252
  17 C :   -0.184182
  18 C :   -0.065882
  19 C :   -0.058028
  20 C :   -0.180190
  21 H :    0.025694
  22 C :   -0.030496
  23 H :    0.038906
  24 H :    0.031523
  25 C :   -0.037139
  26 H :    0.025306
  27 H :    0.010571
  28 C :   -0.057796
  29 H :    0.016993
  30 H :    0.026024
  31 H :    0.029059
  32 H :    0.024885
  33 H :    0.023768

  Mayer bond orders larger than 0.100000
B(  0-S ,  1-C ) :   1.1264 B(  0-S ,  4-C ) :   1.1252 B(  1-C ,  2-C ) :   1.6205
B(  1-C , 32-H ) :   0.9698 B(  2-C ,  3-C ) :   1.2231 B(  2-C ,  6-C ) :   0.9986
B(  3-C ,  4-C ) :   1.5824 B(  3-C ,  5-H ) :   1.0000 B(  4-C , 20-C ) :   1.0734
B(  6-C ,  7-H ) :   0.9541 B(  6-C ,  8-H ) :   0.9384 B(  6-C ,  9-C ) :   1.0548
B(  9-C , 10-H ) :   0.9573 B(  9-C , 11-H ) :   0.9513 B(  9-C , 12-C ) :   1.0924
B( 12-C , 13-H ) :   0.9720 B( 12-C , 14-H ) :   0.9724 B( 12-C , 15-H ) :   0.9741
B( 16-S , 17-C ) :   1.1393 B( 16-S , 20-C ) :   1.1415 B( 17-C , 18-C ) :   1.6152
B( 17-C , 20-C ) :   0.1082 B( 17-C , 33-H ) :   0.9698 B( 18-C , 19-C ) :   1.2455
B( 18-C , 21-H ) :   0.9853 B( 19-C , 20-C ) :   1.5750 B( 19-C , 22-C ) :   1.0453
B( 22-C , 23-H ) :   0.9288 B( 22-C , 24-H ) :   0.9283 B( 22-C , 25-C ) :   1.0735
B( 25-C , 26-H ) :   0.9464 B( 25-C , 27-H ) :   0.9525 B( 25-C , 28-C ) :   1.0904
B( 28-C , 29-H ) :   0.9748 B( 28-C , 30-H ) :   0.9745 B( 28-C , 31-H ) :   0.9724

Dispersion correction           -0.013764849
FINAL SINGLE POINT ENERGY     -1339.870834691775

DIPOLE MOMENT
-------------
                                X             Y             Z
Electronic contribution:      4.99887     -13.67674      26.48122
Nuclear contribution   :     -5.09788      14.12782     -27.03702
                        -----------------------------------------
Total Dipole Moment    :     -0.09900       0.45108      -0.55580
                        -----------------------------------------
Magnitude (a.u.)       :      0.72263
Magnitude (Debye)      :      1.83677

Rotational constants in cm-1:     0.017673     0.008412     0.006354
Rotational constants in MHz :   529.814623   252.186851   190.478390

                             ****ORCA TERMINATED NORMALLY****
TOTAL RUN TIME: 0 days 0 hours 0 minutes 33 seconds 815 msec
