                         Program Version 4.2.1 -  RELEASE  -
|  1> ! wB97X-D3 SP def2-SVP
|  2> %pal
|  3> nprocs 16
|  4> end
|  5>
|  6> * xyz 0 1
|  7> S 	 -92.0047 	 40.7653 	 117.035
|  8> C 	 -91.0366 	 41.3884 	 118.397
|  9> C 	 -91.2547 	 42.7453 	 118.622
| 10> C 	 -92.0472 	 43.2512 	 117.58
| 11> C 	 -92.5802 	 42.4005 	 116.646
| 12> H 	 -92.3641 	 44.3307 	 117.522
| 13> C 	 -90.8607 	 43.614 	 119.782
| 14> H 	 -91.4297 	 44.477 	 119.777
| 15> H 	 -89.8899 	 44.0634 	 119.653
| 16> C 	 -90.9337 	 43.1313 	 121.243
| 17> H 	 -90.1396 	 42.4581 	 121.415
| 18> H 	 -90.613 	 43.9955 	 121.89
| 19> C 	 -92.3297 	 42.6101 	 121.699
| 20> H 	 -92.8369 	 42.0318 	 120.914
| 21> H 	 -92.255 	 41.9412 	 122.636
| 22> H 	 -93.0471 	 43.4992 	 121.857
| 23> S 	 -93.3408 	 44.3644 	 114.784
| 24> C 	 -94.565 	 43.9187 	 113.656
| 25> C 	 -95.2818 	 42.7861 	 113.935
| 26> C 	 -94.7448 	 42.1347 	 115.123
| 27> C 	 -93.5825 	 42.7496 	 115.623
| 28> H 	 -96.1495 	 42.5316 	 113.485
| 29> C 	 -95.3253 	 40.8116 	 115.591
| 30> H 	 -94.5826 	 40.0638 	 115.378
| 31> H 	 -96.1454 	 40.4713 	 114.99
| 32> C 	 -95.675 	 40.8027 	 117.076
| 33> H 	 -96.5534 	 41.4207 	 117.101
| 34> H 	 -94.8345 	 41.2701 	 117.564
| 35> C 	 -95.8778 	 39.394 	 117.603
| 36> H 	 -96.3259 	 38.8756 	 116.775
| 37> H 	 -96.4831 	 39.2706 	 118.512
| 38> H 	 -94.8875 	 38.9256 	 117.837
| 39> H 	 -90.4736 	 40.7641 	 119.06
| 40> H 	 -94.5881 	 44.5387 	 112.796
| 41> *
| 42>
| 43>                          ****END OF INPUT****

CARTESIAN COORDINATES (ANGSTROEM)
---------------------------------
  S    -92.004700   40.765300  117.035000
  C    -91.036600   41.388400  118.397000
  C    -91.254700   42.745300  118.622000
  C    -92.047200   43.251200  117.580000
  C    -92.580200   42.400500  116.646000
  H    -92.364100   44.330700  117.522000
  C    -90.860700   43.614000  119.782000
  H    -91.429700   44.477000  119.777000
  H    -89.889900   44.063400  119.653000
  C    -90.933700   43.131300  121.243000
  H    -90.139600   42.458100  121.415000
  H    -90.613000   43.995500  121.890000
  C    -92.329700   42.610100  121.699000
  H    -92.836900   42.031800  120.914000
  H    -92.255000   41.941200  122.636000
  H    -93.047100   43.499200  121.857000
  S    -93.340800   44.364400  114.784000
  C    -94.565000   43.918700  113.656000
  C    -95.281800   42.786100  113.935000
  C    -94.744800   42.134700  115.123000
  C    -93.582500   42.749600  115.623000
  H    -96.149500   42.531600  113.485000
  C    -95.325300   40.811600  115.591000
  H    -94.582600   40.063800  115.378000
  H    -96.145400   40.471300  114.990000
  C    -95.675000   40.802700  117.076000
  H    -96.553400   41.420700  117.101000
  H    -94.834500   41.270100  117.564000
  C    -95.877800   39.394000  117.603000
  H    -96.325900   38.875600  116.775000
  H    -96.483100   39.270600  118.512000
  H    -94.887500   38.925600  117.837000
  H    -90.473600   40.764100  119.060000
  H    -94.588100   44.538700  112.796000

 Total Charge           Charge          ....    0
 Multiplicity           Mult            ....    1
 Number of Electrons    NEL             ....  134
 Basis Dimension        Dim             ....  322

ORBITAL ENERGIES
----------------

  NO   OCC          E(Eh)            E(eV)
   0   2.0000     -88.971597     -2421.0402
   1   2.0000     -88.965071     -2420.8627
   2   2.0000     -10.336425      -281.2684
   3   2.0000     -10.334615      -281.2192
   4   2.0000     -10.319113      -280.7973
   5   2.0000     -10.316643      -280.7301
   6   2.0000     -10.310726      -280.5691
   7   2.0000     -10.304293      -280.3941
   8   2.0000     -10.293186      -280.0918
   9   2.0000     -10.291794      -280.0539
  10   2.0000     -10.291483      -280.0455
  11   2.0000     -10.291347      -280.0418
  12   2.0000     -10.287304      -279.9318
  13   2.0000     -10.285341      -279.8784
  14   2.0000     -10.274732      -279.5897
  15   2.0000     -10.274624      -279.5867
  16   2.0000      -8.084628      -219.9939
  17   2.0000      -8.079522      -219.8550
  18   2.0000      -6.043296      -164.4464
  19   2.0000      -6.039372      -164.3397
  20   2.0000      -6.037980      -164.3018
  21   2.0000      -6.035331      -164.2297
  22   2.0000      -6.034339      -164.2027
  23   2.0000      -6.030104      -164.0875
  24   2.0000      -1.001376       -27.2488
  25   2.0000      -0.981371       -26.7045
  26   2.0000      -0.914230       -24.8775
  27   2.0000      -0.910821       -24.7847
  28   2.0000      -0.865706       -23.5571
  29   2.0000      -0.851772       -23.1779
  30   2.0000      -0.845344       -23.0030
  31   2.0000      -0.809081       -22.0162
  32   2.0000      -0.786133       -21.3918
  33   2.0000      -0.773747       -21.0547
  34   2.0000      -0.709237       -19.2993
  35   2.0000      -0.704791       -19.1783
  36   2.0000      -0.688460       -18.7339
  37   2.0000      -0.672166       -18.2906
  38   2.0000      -0.635828       -17.3017
  39   2.0000      -0.612409       -16.6645
  40   2.0000      -0.603959       -16.4346
  41   2.0000      -0.576596       -15.6900
  42   2.0000      -0.571128       -15.5412
  43   2.0000      -0.551754       -15.0140
  44   2.0000      -0.538048       -14.6410
  45   2.0000      -0.525358       -14.2957
  46   2.0000      -0.515330       -14.0229
  47   2.0000      -0.505932       -13.7671
  48   2.0000      -0.503156       -13.6916
  49   2.0000      -0.492795       -13.4096
  50   2.0000      -0.492520       -13.4022
  51   2.0000      -0.483745       -13.1634
  52   2.0000      -0.469690       -12.7809
  53   2.0000      -0.467468       -12.7204
  54   2.0000      -0.456917       -12.4333
  55   2.0000      -0.447927       -12.1887
  56   2.0000      -0.438297       -11.9267
  57   2.0000      -0.432662       -11.7733
  58   2.0000      -0.429868       -11.6973
  59   2.0000      -0.422954       -11.5092
  60   2.0000      -0.422517       -11.4973
  61   2.0000      -0.418793       -11.3959
  62   2.0000      -0.413125       -11.2417
  63   2.0000      -0.354891        -9.6571
  64   2.0000      -0.333862        -9.0848
  65   2.0000      -0.331373        -9.0171
  66   2.0000      -0.283123        -7.7042
  67   0.0000       0.020008         0.5445
  68   0.0000       0.066573         1.8115
  69   0.0000       0.092376         2.5137
  70   0.0000       0.110185         2.9983
  71   0.0000       0.129505         3.5240

MULLIKEN ATOMIC CHARGES
-----------------------
   0 S :    0.098209
   1 C :   -0.120303
   2 C :   -0.061118
   3 C :   -0.025684
   4 C :   -0.122081
   5 H :    0.027979
   6 C :    0.103813
   7 H :   -0.006926
   8 H :    0.030651
   9 C :   -0.069063
  10 H :    0.016396
  11 H :    0.032904
  12 C :   -0.100591
  13 H :    0.047516
  14 H :    0.054750
  15 H :    0.043708
  16 S :    0.082980
  17 C :   -0.072117
  18 C :    0.036791
  19 C :   -0.066952
  20 C :   -0.150956
  21 H :   -0.018981
  22 C :    0.045715
  23 H :    0.026440
  24 H :    0.007812
  25 C :   -0.060250
  26 H :    0.026047
  27 H :    0.043406
  28 C :   -0.040256
  29 H :    0.021344
  30 H :    0.039367
  31 H :    0.035290
  32 H :    0.041399
  33 H :    0.052760
Sum of atomic charges:    0.0000000

LOEWDIN ATOMIC CHARGES
----------------------
   0 S :    0.389055
   1 C :   -0.179456
   2 C :   -0.061590
   3 C :   -0.074550
   4 C :   -0.189050
   5 H :    0.032767
   6 C :   -0.031066
   7 H :    0.022621
   8 H :    0.038333
   9 C :   -0.042299
  10 H :    0.012791
  11 H :    0.034083
  12 C :   -0.081848
  13 H :    0.026169
  14 H :    0.037155
  15 H :    0.034598
  16 S :    0.380781
  17 C :   -0.166583
  18 C :   -0.057920
  19 C :   -0.041409
  20 C :   -0.170435
  21 H :    0.015321
  22 C :   -0.035094
  23 H :    0.026506
  24 H :    0.023734
  25 C :   -0.038032
  26 H :    0.022801
  27 H :    0.019593
  28 C :   -0.066439
  29 H :    0.020404
  30 H :    0.027448
  31 H :    0.030475
  32 H :    0.022555
  33 H :    0.018582

  Mayer bond orders larger than 0.100000
B(  0-S ,  1-C ) :   1.1347 B(  0-S ,  4-C ) :   1.1243 B(  1-C ,  2-C ) :   1.5910
B(  1-C , 32-H ) :   0.9699 B(  2-C ,  3-C ) :   1.2750 B(  2-C ,  6-C ) :   1.0162
B(  3-C ,  4-C ) :   1.5765 B(  3-C ,  5-H ) :   0.9721 B(  4-C , 20-C ) :   1.0618
B(  6-C ,  7-H ) :   0.9354 B(  6-C ,  8-H ) :   0.9205 B(  6-C ,  9-C ) :   1.0834
B(  9-C , 10-H ) :   0.9572 B(  9-C , 11-H ) :   0.9521 B(  9-C , 12-C ) :   1.0588
B( 12-C , 13-H ) :   0.9784 B( 12-C , 14-H ) :   0.9751 B( 12-C , 15-H ) :   0.9742
B( 16-S , 17-C ) :   1.1683 B( 16-S , 20-C ) :   1.1105 B( 17-C , 18-C ) :   1.6021
B( 17-C , 33-H ) :   0.9689 B( 18-C , 19-C ) :   1.2166 B( 18-C , 21-H ) :   1.0114
B( 19-C , 20-C ) :   1.5991 B( 19-C , 22-C ) :   1.0411 B( 22-C , 23-H ) :   0.9381
B( 22-C , 24-H ) :   0.9286 B( 22-C , 25-C ) :   1.0466 B( 25-C , 26-H ) :   0.9548
B( 25-C , 27-H ) :   0.9634 B( 25-C , 28-C ) :   1.0758 B( 28-C , 29-H ) :   0.9732
B( 28-C , 30-H ) :   0.9744 B( 28-C , 31-H ) :   0.9721

Dispersion correction           -0.014891277
FINAL SINGLE POINT ENERGY     -1339.861834864158

DIPOLE MOMENT
-------------
                                X             Y             Z
Electronic contribution:      6.29191       6.49979     -20.94817
Nuclear contribution   :     -6.47886      -6.41643      21.22955
                        -----------------------------------------
Total Dipole Moment    :     -0.18695       0.08335       0.28138
                        -----------------------------------------
Magnitude (a.u.)       :      0.34795
Magnitude (Debye)      :      0.88443

Rotational constants in cm-1:     0.019174     0.008958     0.007182
Rotational constants in MHz :   574.810567   268.556581   215.313873

                             ****ORCA TERMINATED NORMALLY****
TOTAL RUN TIME: 0 days 0 hours 0 minutes 34 seconds 100 msec
