                         Program Version 4.2.1 -  RELEASE  -
|  1> ! wB97X-D3 SP def2-SVP
|  2> %pal
|  3> nprocs 16
|  4> end
|  5>
|  6> * xyz 0 1
|  7> S 	 -59.3272 	 45.8486 	 136.111
|  8> C 	 -58.1815 	 46.6308 	 137.201
|  9> C 	 -57.6279 	 47.8324 	 136.783
| 10> C 	 -58.2593 	 48.1449 	 135.546
| 11> C 	 -59.1074 	 47.1948 	 134.99
| 12> H 	 -58.0093 	 49.062 	 135.068
| 13> C 	 -56.6325 	 48.6638 	 137.571
| 14> H 	 -57.0583 	 48.6733 	 138.579
| 15> H 	 -56.6998 	 49.7644 	 137.255
| 16> C 	 -55.2332 	 48.1534 	 137.649
| 17> H 	 -55.3722 	 47.1171 	 137.939
| 18> H 	 -54.6409 	 48.236 	 136.724
| 19> C 	 -54.2714 	 48.8587 	 138.599
| 20> H 	 -53.3141 	 48.2674 	 138.748
| 21> H 	 -53.9316 	 49.8536 	 138.394
| 22> H 	 -54.699 	 48.9152 	 139.587
| 23> S 	 -61.4594 	 47.3054 	 133.421
| 24> C 	 -61.3079 	 47.2992 	 131.714
| 25> C 	 -59.9795 	 47.2912 	 131.357
| 26> C 	 -59.0217 	 47.1414 	 132.407
| 27> C 	 -59.6799 	 47.1839 	 133.672
| 28> H 	 -59.8228 	 47.324 	 130.274
| 29> C 	 -57.5369 	 46.8859 	 132.245
| 30> H 	 -57.4054 	 46.3272 	 131.304
| 31> H 	 -57.271 	 46.2885 	 133.118
| 32> C 	 -56.7198 	 48.1432 	 132.136
| 33> H 	 -56.6796 	 48.5789 	 133.118
| 34> H 	 -57.2497 	 48.8724 	 131.4
| 35> C 	 -55.3212 	 47.8491 	 131.657
| 36> H 	 -55.3011 	 47.4174 	 130.607
| 37> H 	 -54.7896 	 47.0183 	 132.163
| 38> H 	 -54.7628 	 48.7652 	 131.634
| 39> H 	 -57.8882 	 46.1475 	 138.119
| 40> H 	 -62.1017 	 47.1522 	 131.024
| 41> *
| 42>
| 43>                          ****END OF INPUT****

CARTESIAN COORDINATES (ANGSTROEM)
---------------------------------
  S    -59.327200   45.848600  136.111000
  C    -58.181500   46.630800  137.201000
  C    -57.627900   47.832400  136.783000
  C    -58.259300   48.144900  135.546000
  C    -59.107400   47.194800  134.990000
  H    -58.009300   49.062000  135.068000
  C    -56.632500   48.663800  137.571000
  H    -57.058300   48.673300  138.579000
  H    -56.699800   49.764400  137.255000
  C    -55.233200   48.153400  137.649000
  H    -55.372200   47.117100  137.939000
  H    -54.640900   48.236000  136.724000
  C    -54.271400   48.858700  138.599000
  H    -53.314100   48.267400  138.748000
  H    -53.931600   49.853600  138.394000
  H    -54.699000   48.915200  139.587000
  S    -61.459400   47.305400  133.421000
  C    -61.307900   47.299200  131.714000
  C    -59.979500   47.291200  131.357000
  C    -59.021700   47.141400  132.407000
  C    -59.679900   47.183900  133.672000
  H    -59.822800   47.324000  130.274000
  C    -57.536900   46.885900  132.245000
  H    -57.405400   46.327200  131.304000
  H    -57.271000   46.288500  133.118000
  C    -56.719800   48.143200  132.136000
  H    -56.679600   48.578900  133.118000
  H    -57.249700   48.872400  131.400000
  C    -55.321200   47.849100  131.657000
  H    -55.301100   47.417400  130.607000
  H    -54.789600   47.018300  132.163000
  H    -54.762800   48.765200  131.634000
  H    -57.888200   46.147500  138.119000
  H    -62.101700   47.152200  131.024000

 Total Charge           Charge          ....    0
 Multiplicity           Mult            ....    1
 Number of Electrons    NEL             ....  134
 Basis Dimension        Dim             ....  322

ORBITAL ENERGIES
----------------

  NO   OCC          E(Eh)            E(eV)
   0   2.0000     -88.970039     -2420.9978
   1   2.0000     -88.961271     -2420.7593
   2   2.0000     -10.328752      -281.0596
   3   2.0000     -10.326853      -281.0080
   4   2.0000     -10.317012      -280.7402
   5   2.0000     -10.311146      -280.5806
   6   2.0000     -10.306567      -280.4559
   7   2.0000     -10.304121      -280.3894
   8   2.0000     -10.303000      -280.3589
   9   2.0000     -10.295614      -280.1579
  10   2.0000     -10.291299      -280.0405
  11   2.0000     -10.290178      -280.0100
  12   2.0000     -10.288341      -279.9600
  13   2.0000     -10.287090      -279.9260
  14   2.0000     -10.281358      -279.7700
  15   2.0000     -10.279301      -279.7140
  16   2.0000      -8.084274      -219.9843
  17   2.0000      -8.075917      -219.7569
  18   2.0000      -6.042657      -164.4291
  19   2.0000      -6.038914      -164.3272
  20   2.0000      -6.035131      -164.2243
  21   2.0000      -6.034326      -164.2024
  22   2.0000      -6.030362      -164.0945
  23   2.0000      -6.026866      -163.9994
  24   2.0000      -1.002002       -27.2659
  25   2.0000      -0.981084       -26.6967
  26   2.0000      -0.919473       -25.0201
  27   2.0000      -0.914363       -24.8811
  28   2.0000      -0.870609       -23.6905
  29   2.0000      -0.852886       -23.2082
  30   2.0000      -0.845595       -23.0098
  31   2.0000      -0.812676       -22.1140
  32   2.0000      -0.787097       -21.4180
  33   2.0000      -0.770642       -20.9702
  34   2.0000      -0.705655       -19.2018
  35   2.0000      -0.704180       -19.1617
  36   2.0000      -0.691176       -18.8079
  37   2.0000      -0.653042       -17.7702
  38   2.0000      -0.641470       -17.4553
  39   2.0000      -0.623314       -16.9612
  40   2.0000      -0.593673       -16.1547
  41   2.0000      -0.576602       -15.6901
  42   2.0000      -0.569449       -15.4955
  43   2.0000      -0.561193       -15.2708
  44   2.0000      -0.530267       -14.4293
  45   2.0000      -0.528656       -14.3855
  46   2.0000      -0.521661       -14.1951
  47   2.0000      -0.515135       -14.0175
  48   2.0000      -0.505154       -13.7459
  49   2.0000      -0.498294       -13.5593
  50   2.0000      -0.493396       -13.4260
  51   2.0000      -0.475085       -12.9277
  52   2.0000      -0.464706       -12.6453
  53   2.0000      -0.461226       -12.5506
  54   2.0000      -0.457420       -12.4470
  55   2.0000      -0.451768       -12.2932
  56   2.0000      -0.441668       -12.0184
  57   2.0000      -0.437887       -11.9155
  58   2.0000      -0.437462       -11.9039
  59   2.0000      -0.429117       -11.6769
  60   2.0000      -0.416140       -11.3237
  61   2.0000      -0.414353       -11.2751
  62   2.0000      -0.413861       -11.2617
  63   2.0000      -0.338403        -9.2084
  64   2.0000      -0.329305        -8.9608
  65   2.0000      -0.326049        -8.8723
  66   2.0000      -0.298152        -8.1131
  67   0.0000       0.029753         0.8096
  68   0.0000       0.061177         1.6647
  69   0.0000       0.111269         3.0278
  70   0.0000       0.125721         3.4210
  71   0.0000       0.128781         3.5043

MULLIKEN ATOMIC CHARGES
-----------------------
   0 S :    0.127665
   1 C :   -0.126686
   2 C :   -0.084657
   3 C :    0.052635
   4 C :   -0.182451
   5 H :    0.000672
   6 C :    0.053409
   7 H :    0.031357
   8 H :    0.033630
   9 C :   -0.048888
  10 H :    0.024940
  11 H :    0.037671
  12 C :   -0.057037
  13 H :    0.040434
  14 H :    0.030210
  15 H :    0.013031
  16 S :    0.103398
  17 C :   -0.085011
  18 C :   -0.058646
  19 C :   -0.010426
  20 C :   -0.183411
  21 H :    0.017915
  22 C :    0.087449
  23 H :    0.020233
  24 H :    0.040875
  25 C :   -0.084277
  26 H :    0.020505
  27 H :    0.044700
  28 C :   -0.045088
  29 H :    0.025098
  30 H :    0.032355
  31 H :    0.036854
  32 H :    0.040358
  33 H :    0.051185
Sum of atomic charges:    0.0000000

LOEWDIN ATOMIC CHARGES
----------------------
   0 S :    0.402597
   1 C :   -0.180933
   2 C :   -0.065143
   3 C :   -0.045343
   4 C :   -0.203964
   5 H :    0.023720
   6 C :   -0.037375
   7 H :    0.036643
   8 H :    0.037140
   9 C :   -0.044691
  10 H :    0.027173
  11 H :    0.031117
  12 C :   -0.069425
  13 H :    0.036885
  14 H :    0.021247
  15 H :    0.017429
  16 S :    0.397377
  17 C :   -0.193150
  18 C :   -0.081892
  19 C :   -0.042410
  20 C :   -0.200037
  21 H :    0.031319
  22 C :   -0.030595
  23 H :    0.032037
  24 H :    0.036453
  25 C :   -0.044852
  26 H :    0.019640
  27 H :    0.036160
  28 C :   -0.074019
  29 H :    0.028528
  30 H :    0.028730
  31 H :    0.023954
  32 H :    0.018359
  33 H :    0.027318

  Mayer bond orders larger than 0.100000
B(  0-S ,  1-C ) :   1.1589 B(  0-S ,  4-C ) :   1.1345 B(  1-C ,  2-C ) :   1.6030
B(  1-C , 32-H ) :   0.9620 B(  2-C ,  3-C ) :   1.2674 B(  2-C ,  6-C ) :   1.0082
B(  3-C ,  4-C ) :   1.5641 B(  3-C ,  5-H ) :   0.9945 B(  4-C , 20-C ) :   1.0615
B(  6-C ,  7-H ) :   0.9344 B(  6-C ,  8-H ) :   0.9392 B(  6-C ,  9-C ) :   1.0734
B(  9-C , 10-H ) :   0.9501 B(  9-C , 11-H ) :   0.9549 B(  9-C , 12-C ) :   1.0833
B( 12-C , 13-H ) :   0.9733 B( 12-C , 14-H ) :   0.9761 B( 12-C , 15-H ) :   0.9718
B( 16-S , 17-C ) :   1.1650 B( 16-S , 20-C ) :   1.1405 B( 17-C , 18-C ) :   1.6059
B( 17-C , 20-C ) :   0.1048 B( 17-C , 33-H ) :   0.9690 B( 18-C , 19-C ) :   1.2464
B( 18-C , 21-H ) :   0.9869 B( 19-C , 20-C ) :   1.5531 B( 19-C , 22-C ) :   1.0434
B( 22-C , 23-H ) :   0.9372 B( 22-C , 24-H ) :   0.9190 B( 22-C , 25-C ) :   1.0746
B( 25-C , 26-H ) :   0.9426 B( 25-C , 27-H ) :   0.9552 B( 25-C , 28-C ) :   1.0900
B( 28-C , 29-H ) :   0.9703 B( 28-C , 30-H ) :   0.9688 B( 28-C , 31-H ) :   0.9726

Dispersion correction           -0.014145521
FINAL SINGLE POINT ENERGY     -1339.878653285548

DIPOLE MOMENT
-------------
                                X             Y             Z
Electronic contribution:    -30.74604      -9.65457      -1.95549
Nuclear contribution   :     31.43757       9.83922       1.94258
                        -----------------------------------------
Total Dipole Moment    :      0.69154       0.18465      -0.01291
                        -----------------------------------------
Magnitude (a.u.)       :      0.71588
Magnitude (Debye)      :      1.81962

Rotational constants in cm-1:     0.019038     0.008421     0.006374
Rotational constants in MHz :   570.729958   252.453515   191.083586

                             ****ORCA TERMINATED NORMALLY****
TOTAL RUN TIME: 0 days 0 hours 0 minutes 34 seconds 816 msec
