                         Program Version 4.2.1 -  RELEASE  -
|  1> ! wB97X-D3 SP def2-SVP
|  2> %pal
|  3> nprocs 16
|  4> end
|  5>
|  6> * xyz 0 1
|  7> S 	 -17.9636 	 -1.23754 	 81.9471
|  8> C 	 -16.9773 	 -2.66769 	 81.3952
|  9> C 	 -17.3015 	 -3.81149 	 82.1635
| 10> C 	 -18.4674 	 -3.51737 	 83.0196
| 11> C 	 -18.8112 	 -2.19525 	 83.1092
| 12> H 	 -19.0483 	 -4.11874 	 83.6726
| 13> C 	 -16.896 	 -5.2174 	 81.8772
| 14> H 	 -17.3186 	 -5.88772 	 82.6216
| 15> H 	 -15.7641 	 -5.29514 	 82.0706
| 16> C 	 -17.1624 	 -5.71098 	 80.4258
| 17> H 	 -18.2652 	 -5.62731 	 80.2529
| 18> H 	 -16.6176 	 -4.98325 	 79.7312
| 19> C 	 -16.6175 	 -7.12982 	 80.1109
| 20> H 	 -15.498 	 -6.9501 	 80.2682
| 21> H 	 -16.938 	 -7.92785 	 80.7997
| 22> H 	 -16.818 	 -7.42465 	 79.0211
| 23> S 	 -21.324 	 -2.14693 	 84.2953
| 24> C 	 -21.5115 	 -1.05158 	 85.6205
| 25> C 	 -20.3862 	 -0.385815 	 86.0276
| 26> C 	 -19.2435 	 -0.835194 	 85.2724
| 27> C 	 -19.6245 	 -1.65922 	 84.199
| 28> H 	 -20.4719 	 0.171079 	 86.8958
| 29> C 	 -17.8611 	 -0.310818 	 85.4836
| 30> H 	 -17.76 	 0.728526 	 85.1484
| 31> H 	 -17.1998 	 -0.924038 	 84.9028
| 32> C 	 -17.3945 	 -0.477432 	 86.9951
| 33> H 	 -17.6699 	 -1.43274 	 87.4705
| 34> H 	 -18.0465 	 0.153853 	 87.5972
| 35> C 	 -15.854 	 -0.281331 	 87.2807
| 36> H 	 -15.3475 	 -1.11508 	 86.8948
| 37> H 	 -15.7259 	 -0.192249 	 88.3228
| 38> H 	 -15.5708 	 0.650859 	 86.8102
| 39> H 	 -16.1544 	 -2.59821 	 80.6502
| 40> H 	 -22.3954 	 -0.939064 	 86.1706
| 41> *
| 42>
| 43>                          ****END OF INPUT****

CARTESIAN COORDINATES (ANGSTROEM)
---------------------------------
  S    -17.963600   -1.237540   81.947100
  C    -16.977300   -2.667690   81.395200
  C    -17.301500   -3.811490   82.163500
  C    -18.467400   -3.517370   83.019600
  C    -18.811200   -2.195250   83.109200
  H    -19.048300   -4.118740   83.672600
  C    -16.896000   -5.217400   81.877200
  H    -17.318600   -5.887720   82.621600
  H    -15.764100   -5.295140   82.070600
  C    -17.162400   -5.710980   80.425800
  H    -18.265200   -5.627310   80.252900
  H    -16.617600   -4.983250   79.731200
  C    -16.617500   -7.129820   80.110900
  H    -15.498000   -6.950100   80.268200
  H    -16.938000   -7.927850   80.799700
  H    -16.818000   -7.424650   79.021100
  S    -21.324000   -2.146930   84.295300
  C    -21.511500   -1.051580   85.620500
  C    -20.386200   -0.385815   86.027600
  C    -19.243500   -0.835194   85.272400
  C    -19.624500   -1.659220   84.199000
  H    -20.471900    0.171079   86.895800
  C    -17.861100   -0.310818   85.483600
  H    -17.760000    0.728526   85.148400
  H    -17.199800   -0.924038   84.902800
  C    -17.394500   -0.477432   86.995100
  H    -17.669900   -1.432740   87.470500
  H    -18.046500    0.153853   87.597200
  C    -15.854000   -0.281331   87.280700
  H    -15.347500   -1.115080   86.894800
  H    -15.725900   -0.192249   88.322800
  H    -15.570800    0.650859   86.810200
  H    -16.154400   -2.598210   80.650200
  H    -22.395400   -0.939064   86.170600

 Total Charge           Charge          ....    0
 Multiplicity           Mult            ....    1
 Number of Electrons    NEL             ....  134
 Basis Dimension        Dim             ....  322

ORBITAL ENERGIES
----------------

  NO   OCC          E(Eh)            E(eV)
   0   2.0000     -88.967398     -2420.9260
   1   2.0000     -88.967353     -2420.9248
   2   2.0000     -10.328623      -281.0561
   3   2.0000     -10.326515      -280.9988
   4   2.0000     -10.323716      -280.9226
   5   2.0000     -10.312825      -280.6262
   6   2.0000     -10.309619      -280.5390
   7   2.0000     -10.305302      -280.4215
   8   2.0000     -10.299708      -280.2693
   9   2.0000     -10.299331      -280.2590
  10   2.0000     -10.294583      -280.1298
  11   2.0000     -10.292002      -280.0596
  12   2.0000     -10.289047      -279.9792
  13   2.0000     -10.288046      -279.9520
  14   2.0000     -10.287662      -279.9415
  15   2.0000     -10.272044      -279.5165
  16   2.0000      -8.082087      -219.9248
  17   2.0000      -8.081027      -219.8959
  18   2.0000      -6.040449      -164.3690
  19   2.0000      -6.039625      -164.3465
  20   2.0000      -6.036767      -164.2688
  21   2.0000      -6.035599      -164.2370
  22   2.0000      -6.032859      -164.1624
  23   2.0000      -6.031830      -164.1345
  24   2.0000      -1.002658       -27.2837
  25   2.0000      -0.977903       -26.6101
  26   2.0000      -0.908807       -24.7299
  27   2.0000      -0.900321       -24.4990
  28   2.0000      -0.865751       -23.5583
  29   2.0000      -0.849709       -23.1218
  30   2.0000      -0.842870       -22.9357
  31   2.0000      -0.814695       -22.1690
  32   2.0000      -0.780863       -21.2484
  33   2.0000      -0.767413       -20.8824
  34   2.0000      -0.704643       -19.1743
  35   2.0000      -0.697923       -18.9914
  36   2.0000      -0.692117       -18.8335
  37   2.0000      -0.657826       -17.9004
  38   2.0000      -0.640826       -17.4378
  39   2.0000      -0.609396       -16.5825
  40   2.0000      -0.594747       -16.1839
  41   2.0000      -0.571157       -15.5420
  42   2.0000      -0.561823       -15.2880
  43   2.0000      -0.554564       -15.0905
  44   2.0000      -0.525098       -14.2886
  45   2.0000      -0.521899       -14.2016
  46   2.0000      -0.518346       -14.1049
  47   2.0000      -0.514363       -13.9965
  48   2.0000      -0.503394       -13.6980
  49   2.0000      -0.499641       -13.5959
  50   2.0000      -0.482768       -13.1368
  51   2.0000      -0.477285       -12.9876
  52   2.0000      -0.470393       -12.8000
  53   2.0000      -0.468143       -12.7388
  54   2.0000      -0.456164       -12.4128
  55   2.0000      -0.447864       -12.1870
  56   2.0000      -0.443485       -12.0678
  57   2.0000      -0.433099       -11.7852
  58   2.0000      -0.431857       -11.7514
  59   2.0000      -0.426355       -11.6017
  60   2.0000      -0.421939       -11.4815
  61   2.0000      -0.415174       -11.2975
  62   2.0000      -0.408638       -11.1196
  63   2.0000      -0.338118        -9.2007
  64   2.0000      -0.332634        -9.0514
  65   2.0000      -0.324920        -8.8415
  66   2.0000      -0.296399        -8.0654
  67   0.0000       0.033941         0.9236
  68   0.0000       0.063421         1.7258
  69   0.0000       0.104128         2.8335
  70   0.0000       0.111390         3.0311
  71   0.0000       0.125104         3.4042

MULLIKEN ATOMIC CHARGES
-----------------------
   0 S :    0.107906
   1 C :   -0.151424
   2 C :   -0.050177
   3 C :    0.045750
   4 C :   -0.168882
   5 H :   -0.002331
   6 C :    0.027294
   7 H :    0.024900
   8 H :    0.035291
   9 C :   -0.098924
  10 H :    0.045176
  11 H :    0.037658
  12 C :   -0.085875
  13 H :    0.037982
  14 H :    0.046561
  15 H :    0.059460
  16 S :    0.114925
  17 C :   -0.072023
  18 C :   -0.002234
  19 C :   -0.037017
  20 C :   -0.178736
  21 H :   -0.002203
  22 C :    0.103826
  23 H :    0.048467
  24 H :    0.022011
  25 C :   -0.153059
  26 H :    0.025839
  27 H :    0.016399
  28 C :    0.009887
  29 H :    0.035703
  30 H :    0.025352
  31 H :    0.028004
  32 H :    0.073193
  33 H :    0.031301
Sum of atomic charges:    0.0000000

LOEWDIN ATOMIC CHARGES
----------------------
   0 S :    0.392129
   1 C :   -0.181883
   2 C :   -0.057982
   3 C :   -0.058497
   4 C :   -0.208428
   5 H :    0.022618
   6 C :   -0.045382
   7 H :    0.028293
   8 H :    0.037677
   9 C :   -0.046120
  10 H :    0.026502
  11 H :    0.029748
  12 C :   -0.079821
  13 H :    0.032925
  14 H :    0.025367
  15 H :    0.037974
  16 S :    0.404050
  17 C :   -0.174597
  18 C :   -0.063148
  19 C :   -0.045372
  20 C :   -0.195780
  21 H :    0.022217
  22 C :   -0.030137
  23 H :    0.036792
  24 H :    0.024839
  25 C :   -0.043514
  26 H :    0.024200
  27 H :    0.014373
  28 C :   -0.049303
  29 H :    0.021243
  30 H :    0.022719
  31 H :    0.024601
  32 H :    0.035436
  33 H :    0.016263

  Mayer bond orders larger than 0.100000
B(  0-S ,  1-C ) :   1.1292 B(  0-S ,  4-C ) :   1.1346 B(  1-C ,  2-C ) :   1.6031
B(  1-C , 32-H ) :   0.9659 B(  2-C ,  3-C ) :   1.2080 B(  2-C ,  6-C ) :   1.0474
B(  3-C ,  4-C ) :   1.6210 B(  3-C ,  5-H ) :   0.9854 B(  4-C , 20-C ) :   1.0111
B(  6-C ,  7-H ) :   0.9440 B(  6-C ,  8-H ) :   0.9298 B(  6-C ,  9-C ) :   1.0537
B(  9-C , 10-H ) :   0.9575 B(  9-C , 11-H ) :   0.9540 B(  9-C , 12-C ) :   1.0624
B( 12-C , 13-H ) :   0.9749 B( 12-C , 14-H ) :   0.9766 B( 12-C , 15-H ) :   0.9733
B( 16-S , 17-C ) :   1.1546 B( 16-S , 20-C ) :   1.1285 B( 17-C , 18-C ) :   1.6485
B( 17-C , 33-H ) :   0.9664 B( 18-C , 19-C ) :   1.1952 B( 18-C , 21-H ) :   0.9977
B( 19-C , 20-C ) :   1.6115 B( 19-C , 22-C ) :   1.0614 B( 22-C , 23-H ) :   0.9352
B( 22-C , 24-H ) :   0.9296 B( 22-C , 25-C ) :   1.0355 B( 25-C , 26-H ) :   0.9621
B( 25-C , 27-H ) :   0.9592 B( 25-C , 28-C ) :   1.0778 B( 28-C , 29-H ) :   0.9786
B( 28-C , 30-H ) :   0.9742 B( 28-C , 31-H ) :   0.9763

Dispersion correction           -0.013817435
FINAL SINGLE POINT ENERGY     -1339.862128654233

DIPOLE MOMENT
-------------
                                X             Y             Z
Electronic contribution:    -18.47680      10.65915      -3.61357
Nuclear contribution   :     18.79497     -10.90771       3.92614
                        -----------------------------------------
Total Dipole Moment    :      0.31816      -0.24856       0.31257
                        -----------------------------------------
Magnitude (a.u.)       :      0.51060
Magnitude (Debye)      :      1.29783

Rotational constants in cm-1:     0.019620     0.007306     0.006222
Rotational constants in MHz :   588.180973   219.016079   186.543047

                             ****ORCA TERMINATED NORMALLY****
TOTAL RUN TIME: 0 days 0 hours 0 minutes 32 seconds 227 msec
