                         Program Version 4.2.1 -  RELEASE  -
|  1> ! wB97X-D3 SP def2-SVP
|  2> %pal
|  3> nprocs 16
|  4> end
|  5>
|  6> * xyz 0 1
|  7> S 	 14.8697 	 21.1084 	 40.689
|  8> C 	 15.9095 	 19.676 	 40.903
|  9> C 	 15.6523 	 18.8414 	 39.815
| 10> C 	 14.459 	 19.2275 	 39.0378
| 11> C 	 14.0093 	 20.4875 	 39.377
| 12> H 	 14.11 	 18.7547 	 38.1537
| 13> C 	 16.4845 	 17.5862 	 39.4835
| 14> H 	 15.8255 	 16.7202 	 39.794
| 15> H 	 17.4429 	 17.5771 	 40.0448
| 16> C 	 16.6924 	 17.3192 	 37.9746
| 17> H 	 17.2147 	 16.3495 	 37.8783
| 18> H 	 15.7006 	 17.3306 	 37.4769
| 19> C 	 17.5468 	 18.451 	 37.3553
| 20> H 	 18.4514 	 18.4789 	 37.7712
| 21> H 	 17.629 	 18.4689 	 36.2953
| 22> H 	 16.9331 	 19.3903 	 37.493
| 23> S 	 13.8122 	 22.747 	 37.7169
| 24> C 	 12.2802 	 23.0131 	 36.9875
| 25> C 	 11.375 	 22.0161 	 37.2981
| 26> C 	 11.8331 	 21.0868 	 38.2798
| 27> C 	 13.1648 	 21.283 	 38.6026
| 28> H 	 10.4323 	 21.9921 	 36.8024
| 29> C 	 10.998 	 19.913 	 38.7988
| 30> H 	 11.6457 	 18.9459 	 38.5716
| 31> H 	 10.1145 	 20.0568 	 38.2485
| 32> C 	 10.6772 	 20.0006 	 40.2605
| 33> H 	 11.564 	 20.0067 	 40.8583
| 34> H 	 9.92388 	 19.1729 	 40.5257
| 35> C 	 9.93927 	 21.2709 	 40.5905
| 36> H 	 10.5212 	 22.1882 	 40.2833
| 37> H 	 9.77029 	 21.1708 	 41.6084
| 38> H 	 8.95652 	 21.382 	 40.2122
| 39> H 	 16.7543 	 19.5633 	 41.5377
| 40> H 	 12.1126 	 23.8194 	 36.2953
| 41> *
| 42>
| 43>                          ****END OF INPUT****

CARTESIAN COORDINATES (ANGSTROEM)
---------------------------------
  S     14.869700   21.108400   40.689000
  C     15.909500   19.676000   40.903000
  C     15.652300   18.841400   39.815000
  C     14.459000   19.227500   39.037800
  C     14.009300   20.487500   39.377000
  H     14.110000   18.754700   38.153700
  C     16.484500   17.586200   39.483500
  H     15.825500   16.720200   39.794000
  H     17.442900   17.577100   40.044800
  C     16.692400   17.319200   37.974600
  H     17.214700   16.349500   37.878300
  H     15.700600   17.330600   37.476900
  C     17.546800   18.451000   37.355300
  H     18.451400   18.478900   37.771200
  H     17.629000   18.468900   36.295300
  H     16.933100   19.390300   37.493000
  S     13.812200   22.747000   37.716900
  C     12.280200   23.013100   36.987500
  C     11.375000   22.016100   37.298100
  C     11.833100   21.086800   38.279800
  C     13.164800   21.283000   38.602600
  H     10.432300   21.992100   36.802400
  C     10.998000   19.913000   38.798800
  H     11.645700   18.945900   38.571600
  H     10.114500   20.056800   38.248500
  C     10.677200   20.000600   40.260500
  H     11.564000   20.006700   40.858300
  H      9.923880   19.172900   40.525700
  C      9.939270   21.270900   40.590500
  H     10.521200   22.188200   40.283300
  H      9.770290   21.170800   41.608400
  H      8.956520   21.382000   40.212200
  H     16.754300   19.563300   41.537700
  H     12.112600   23.819400   36.295300

 Total Charge           Charge          ....    0
 Multiplicity           Mult            ....    1
 Number of Electrons    NEL             ....  134
 Basis Dimension        Dim             ....  322

ORBITAL ENERGIES
----------------

  NO   OCC          E(Eh)            E(eV)
   0   2.0000     -88.965912     -2420.8855
   1   2.0000     -88.964456     -2420.8459
   2   2.0000     -10.323700      -280.9222
   3   2.0000     -10.323282      -280.9108
   4   2.0000     -10.317468      -280.7526
   5   2.0000     -10.315953      -280.7113
   6   2.0000     -10.311025      -280.5773
   7   2.0000     -10.302782      -280.3529
   8   2.0000     -10.300621      -280.2942
   9   2.0000     -10.296382      -280.1788
  10   2.0000     -10.293462      -280.0993
  11   2.0000     -10.292819      -280.0818
  12   2.0000     -10.292421      -280.0710
  13   2.0000     -10.281927      -279.7854
  14   2.0000     -10.264882      -279.3216
  15   2.0000     -10.262332      -279.2523
  16   2.0000      -8.080183      -219.8729
  17   2.0000      -8.079817      -219.8630
  18   2.0000      -6.038647      -164.3199
  19   2.0000      -6.038403      -164.3133
  20   2.0000      -6.034765      -164.2143
  21   2.0000      -6.034016      -164.1939
  22   2.0000      -6.030996      -164.1118
  23   2.0000      -6.030626      -164.1017
  24   2.0000      -1.010915       -27.5084
  25   2.0000      -0.982261       -26.7287
  26   2.0000      -0.916668       -24.9438
  27   2.0000      -0.911291       -24.7975
  28   2.0000      -0.875219       -23.8159
  29   2.0000      -0.850961       -23.1558
  30   2.0000      -0.838910       -22.8279
  31   2.0000      -0.812238       -22.1021
  32   2.0000      -0.786023       -21.3888
  33   2.0000      -0.775579       -21.1046
  34   2.0000      -0.715342       -19.4654
  35   2.0000      -0.694937       -18.9102
  36   2.0000      -0.685364       -18.6497
  37   2.0000      -0.662397       -18.0247
  38   2.0000      -0.640753       -17.4358
  39   2.0000      -0.621387       -16.9088
  40   2.0000      -0.590582       -16.0706
  41   2.0000      -0.570799       -15.5322
  42   2.0000      -0.556981       -15.1562
  43   2.0000      -0.554681       -15.0936
  44   2.0000      -0.549094       -14.9416
  45   2.0000      -0.541826       -14.7438
  46   2.0000      -0.520883       -14.1739
  47   2.0000      -0.519927       -14.1479
  48   2.0000      -0.510601       -13.8942
  49   2.0000      -0.492808       -13.4100
  50   2.0000      -0.487168       -13.2565
  51   2.0000      -0.480266       -13.0687
  52   2.0000      -0.475372       -12.9355
  53   2.0000      -0.464443       -12.6381
  54   2.0000      -0.459396       -12.5008
  55   2.0000      -0.443316       -12.0632
  56   2.0000      -0.437940       -11.9169
  57   2.0000      -0.433466       -11.7952
  58   2.0000      -0.429218       -11.6796
  59   2.0000      -0.428279       -11.6541
  60   2.0000      -0.422669       -11.5014
  61   2.0000      -0.409004       -11.1296
  62   2.0000      -0.405253       -11.0275
  63   2.0000      -0.341148        -9.2831
  64   2.0000      -0.332824        -9.0566
  65   2.0000      -0.323124        -8.7926
  66   2.0000      -0.296753        -8.0751
  67   0.0000       0.028442         0.7739
  68   0.0000       0.060799         1.6544
  69   0.0000       0.108426         2.9504
  70   0.0000       0.116186         3.1616
  71   0.0000       0.129067         3.5121

MULLIKEN ATOMIC CHARGES
-----------------------
   0 S :    0.109259
   1 C :   -0.097188
   2 C :   -0.127457
   3 C :    0.051806
   4 C :   -0.184301
   5 H :    0.008741
   6 C :    0.041807
   7 H :    0.053431
   8 H :    0.030184
   9 C :   -0.104753
  10 H :    0.040270
  11 H :    0.037353
  12 C :   -0.013924
  13 H :    0.007794
  14 H :    0.022446
  15 H :    0.039867
  16 S :    0.111421
  17 C :   -0.085561
  18 C :   -0.032368
  19 C :   -0.077252
  20 C :   -0.160787
  21 H :    0.009409
  22 C :    0.131413
  23 H :    0.056365
  24 H :   -0.006372
  25 C :   -0.079770
  26 H :    0.040577
  27 H :    0.040546
  28 C :   -0.046771
  29 H :    0.057595
  30 H :    0.015529
  31 H :    0.011090
  32 H :    0.042315
  33 H :    0.057286
Sum of atomic charges:   -0.0000000

LOEWDIN ATOMIC CHARGES
----------------------
   0 S :    0.423896
   1 C :   -0.196436
   2 C :   -0.052182
   3 C :   -0.063604
   4 C :   -0.216467
   5 H :    0.023109
   6 C :   -0.037666
   7 H :    0.042960
   8 H :    0.030066
   9 C :   -0.040944
  10 H :    0.026952
  11 H :    0.025509
  12 C :   -0.058936
  13 H :    0.004224
  14 H :    0.021209
  15 H :    0.037519
  16 S :    0.388396
  17 C :   -0.184974
  18 C :   -0.076930
  19 C :   -0.049864
  20 C :   -0.188032
  21 H :    0.026732
  22 C :   -0.031734
  23 H :    0.047271
  24 H :    0.021175
  25 C :   -0.040252
  26 H :    0.023560
  27 H :    0.035774
  28 C :   -0.065239
  29 H :    0.035029
  30 H :    0.019672
  31 H :    0.016018
  32 H :    0.025699
  33 H :    0.028490

  Mayer bond orders larger than 0.100000
B(  0-S ,  1-C ) :   1.1117 B(  0-S ,  4-C ) :   1.1650 B(  1-C ,  2-C ) :   1.6224
B(  1-C , 32-H ) :   0.9745 B(  2-C ,  3-C ) :   1.2179 B(  2-C ,  6-C ) :   1.0181
B(  3-C ,  4-C ) :   1.5645 B(  3-C ,  5-H ) :   0.9849 B(  4-C , 20-C ) :   1.0831
B(  6-C ,  7-H ) :   0.9382 B(  6-C ,  8-H ) :   0.9488 B(  6-C ,  9-C ) :   1.0702
B(  9-C , 10-H ) :   0.9563 B(  9-C , 11-H ) :   0.9532 B(  9-C , 12-C ) :   1.0757
B( 12-C , 13-H ) :   0.9780 B( 12-C , 14-H ) :   0.9742 B( 12-C , 15-H ) :   0.9697
B( 16-S , 17-C ) :   1.1663 B( 16-S , 20-C ) :   1.1142 B( 17-C , 18-C ) :   1.6030
B( 17-C , 20-C ) :   0.1017 B( 17-C , 33-H ) :   0.9664 B( 18-C , 19-C ) :   1.2410
B( 18-C , 21-H ) :   0.9916 B( 19-C , 20-C ) :   1.5883 B( 19-C , 22-C ) :   1.0211
B( 22-C , 23-H ) :   0.9297 B( 22-C , 24-H ) :   0.9192 B( 22-C , 25-C ) :   1.0819
B( 25-C , 26-H ) :   0.9547 B( 25-C , 27-H ) :   0.9531 B( 25-C , 28-C ) :   1.0812
B( 28-C , 29-H ) :   0.9676 B( 28-C , 30-H ) :   0.9699 B( 28-C , 31-H ) :   0.9718

Dispersion correction           -0.015569076
FINAL SINGLE POINT ENERGY     -1339.853374060420

DIPOLE MOMENT
-------------
                                X             Y             Z
Electronic contribution:      3.38272      15.63288       1.45786
Nuclear contribution   :     -3.47405     -16.07080      -1.75951
                        -----------------------------------------
Total Dipole Moment    :     -0.09132      -0.43792      -0.30166
                        -----------------------------------------
Magnitude (a.u.)       :      0.53954
Magnitude (Debye)      :      1.37141

Rotational constants in cm-1:     0.020340     0.009041     0.008098
Rotational constants in MHz :   609.788639   271.053164   242.763950

                             ****ORCA TERMINATED NORMALLY****
TOTAL RUN TIME: 0 days 0 hours 0 minutes 38 seconds 173 msec
