                         Program Version 4.2.1 -  RELEASE  -
|  1> ! wB97X-D3 SP def2-SVP
|  2> %pal
|  3> nprocs 16
|  4> end
|  5>
|  6> * xyz 0 1
|  7> S 	 -48.2245 	 64.3638 	 136.49
|  8> C 	 -47.0532 	 63.5954 	 135.459
|  9> C 	 -46.5268 	 62.465 	 136.035
| 10> C 	 -46.9586 	 62.3143 	 137.365
| 11> C 	 -47.7688 	 63.2522 	 137.854
| 12> H 	 -46.7047 	 61.5102 	 138.108
| 13> C 	 -45.5233 	 61.5412 	 135.419
| 14> H 	 -45.2601 	 61.8966 	 134.431
| 15> H 	 -45.9708 	 60.5672 	 135.168
| 16> C 	 -44.219 	 61.3745 	 136.217
| 17> H 	 -43.7948 	 62.3958 	 136.259
| 18> H 	 -44.4595 	 60.9998 	 137.25
| 19> C 	 -43.1801 	 60.4364 	 135.515
| 20> H 	 -43.0228 	 60.6716 	 134.432
| 21> H 	 -42.179 	 60.4271 	 135.946
| 22> H 	 -43.5743 	 59.3755 	 135.592
| 23> S 	 -49.8355 	 64.1184 	 139.568
| 24> C 	 -49.5334 	 64.1807 	 141.329
| 25> C 	 -48.2986 	 63.5981 	 141.642
| 26> C 	 -47.5722 	 63.1656 	 140.457
| 27> C 	 -48.2242 	 63.436 	 139.255
| 28> H 	 -47.9597 	 63.5529 	 142.713
| 29> C 	 -46.2543 	 62.4607 	 140.737
| 30> H 	 -45.6775 	 63.0816 	 141.46
| 31> H 	 -45.6033 	 62.5957 	 139.849
| 32> C 	 -46.302 	 60.9349 	 141.078
| 33> H 	 -46.5599 	 60.344 	 140.171
| 34> H 	 -47.1459 	 60.6888 	 141.712
| 35> C 	 -44.9806 	 60.3481 	 141.6
| 36> H 	 -45.0289 	 59.272 	 141.78
| 37> H 	 -44.6096 	 60.7808 	 142.576
| 38> H 	 -44.1549 	 60.3682 	 140.904
| 39> H 	 -46.8069 	 63.7671 	 134.414
| 40> H 	 -50.1533 	 64.675 	 142.063
| 41> *
| 42>
| 43>                          ****END OF INPUT****

CARTESIAN COORDINATES (ANGSTROEM)
---------------------------------
  S    -48.224500   64.363800  136.490000
  C    -47.053200   63.595400  135.459000
  C    -46.526800   62.465000  136.035000
  C    -46.958600   62.314300  137.365000
  C    -47.768800   63.252200  137.854000
  H    -46.704700   61.510200  138.108000
  C    -45.523300   61.541200  135.419000
  H    -45.260100   61.896600  134.431000
  H    -45.970800   60.567200  135.168000
  C    -44.219000   61.374500  136.217000
  H    -43.794800   62.395800  136.259000
  H    -44.459500   60.999800  137.250000
  C    -43.180100   60.436400  135.515000
  H    -43.022800   60.671600  134.432000
  H    -42.179000   60.427100  135.946000
  H    -43.574300   59.375500  135.592000
  S    -49.835500   64.118400  139.568000
  C    -49.533400   64.180700  141.329000
  C    -48.298600   63.598100  141.642000
  C    -47.572200   63.165600  140.457000
  C    -48.224200   63.436000  139.255000
  H    -47.959700   63.552900  142.713000
  C    -46.254300   62.460700  140.737000
  H    -45.677500   63.081600  141.460000
  H    -45.603300   62.595700  139.849000
  C    -46.302000   60.934900  141.078000
  H    -46.559900   60.344000  140.171000
  H    -47.145900   60.688800  141.712000
  C    -44.980600   60.348100  141.600000
  H    -45.028900   59.272000  141.780000
  H    -44.609600   60.780800  142.576000
  H    -44.154900   60.368200  140.904000
  H    -46.806900   63.767100  134.414000
  H    -50.153300   64.675000  142.063000

 Total Charge           Charge          ....    0
 Multiplicity           Mult            ....    1
 Number of Electrons    NEL             ....  134
 Basis Dimension        Dim             ....  322

ORBITAL ENERGIES
----------------

  NO   OCC          E(Eh)            E(eV)
   0   2.0000     -88.968439     -2420.9543
   1   2.0000     -88.966299     -2420.8961
   2   2.0000     -10.337900      -281.3085
   3   2.0000     -10.332643      -281.1655
   4   2.0000     -10.324522      -280.9445
   5   2.0000     -10.315141      -280.6892
   6   2.0000     -10.310630      -280.5665
   7   2.0000     -10.303848      -280.3820
   8   2.0000     -10.299778      -280.2712
   9   2.0000     -10.297758      -280.2162
  10   2.0000     -10.297663      -280.2137
  11   2.0000     -10.297377      -280.2059
  12   2.0000     -10.292487      -280.0728
  13   2.0000     -10.291399      -280.0432
  14   2.0000     -10.290341      -280.0144
  15   2.0000     -10.285614      -279.8858
  16   2.0000      -8.082044      -219.9236
  17   2.0000      -8.080232      -219.8743
  18   2.0000      -6.040755      -164.3773
  19   2.0000      -6.038999      -164.3295
  20   2.0000      -6.036765      -164.2687
  21   2.0000      -6.034960      -164.2196
  22   2.0000      -6.032601      -164.1554
  23   2.0000      -6.030635      -164.1019
  24   2.0000      -1.004411       -27.3314
  25   2.0000      -0.980639       -26.6846
  26   2.0000      -0.909723       -24.7548
  27   2.0000      -0.902769       -24.5656
  28   2.0000      -0.868938       -23.6450
  29   2.0000      -0.850826       -23.1522
  30   2.0000      -0.843393       -22.9499
  31   2.0000      -0.818094       -22.2615
  32   2.0000      -0.779905       -21.2223
  33   2.0000      -0.770589       -20.9688
  34   2.0000      -0.712015       -19.3749
  35   2.0000      -0.701169       -19.0798
  36   2.0000      -0.693014       -18.8579
  37   2.0000      -0.660388       -17.9701
  38   2.0000      -0.644527       -17.5385
  39   2.0000      -0.619704       -16.8630
  40   2.0000      -0.593153       -16.1405
  41   2.0000      -0.569141       -15.4871
  42   2.0000      -0.560465       -15.2510
  43   2.0000      -0.552539       -15.0354
  44   2.0000      -0.523469       -14.2443
  45   2.0000      -0.518877       -14.1194
  46   2.0000      -0.515675       -14.0322
  47   2.0000      -0.514136       -13.9904
  48   2.0000      -0.501928       -13.6582
  49   2.0000      -0.500268       -13.6130
  50   2.0000      -0.491135       -13.3645
  51   2.0000      -0.485372       -13.2076
  52   2.0000      -0.469279       -12.7697
  53   2.0000      -0.464482       -12.6392
  54   2.0000      -0.456735       -12.4284
  55   2.0000      -0.449102       -12.2207
  56   2.0000      -0.444560       -12.0971
  57   2.0000      -0.438281       -11.9262
  58   2.0000      -0.431594       -11.7443
  59   2.0000      -0.426212       -11.5978
  60   2.0000      -0.423571       -11.5259
  61   2.0000      -0.417809       -11.3691
  62   2.0000      -0.411722       -11.2035
  63   2.0000      -0.358614        -9.7584
  64   2.0000      -0.333510        -9.0753
  65   2.0000      -0.329576        -8.9682
  66   2.0000      -0.290412        -7.9025
  67   0.0000       0.022673         0.6170
  68   0.0000       0.074580         2.0294
  69   0.0000       0.099520         2.7081
  70   0.0000       0.118090         3.2134
  71   0.0000       0.124643         3.3917

MULLIKEN ATOMIC CHARGES
-----------------------
   0 S :    0.101619
   1 C :   -0.097185
   2 C :   -0.081762
   3 C :   -0.013414
   4 C :   -0.115657
   5 H :    0.017714
   6 C :    0.086516
   7 H :   -0.004117
   8 H :    0.032065
   9 C :   -0.103371
  10 H :    0.041344
  11 H :    0.043782
  12 C :   -0.076840
  13 H :    0.037999
  14 H :    0.042559
  15 H :    0.038452
  16 S :    0.094185
  17 C :   -0.096137
  18 C :   -0.046975
  19 C :   -0.055222
  20 C :   -0.128794
  21 H :    0.046756
  22 C :    0.025275
  23 H :    0.032605
  24 H :    0.023650
  25 C :   -0.044556
  26 H :    0.030911
  27 H :    0.029467
  28 C :   -0.062043
  29 H :    0.029570
  30 H :    0.039256
  31 H :    0.026674
  32 H :    0.043518
  33 H :    0.062155
Sum of atomic charges:   -0.0000000

LOEWDIN ATOMIC CHARGES
----------------------
   0 S :    0.374542
   1 C :   -0.192292
   2 C :   -0.070218
   3 C :   -0.068850
   4 C :   -0.165985
   5 H :    0.040837
   6 C :   -0.034887
   7 H :    0.024299
   8 H :    0.032178
   9 C :   -0.042074
  10 H :    0.028927
  11 H :    0.026043
  12 C :   -0.076246
  13 H :    0.028432
  14 H :    0.026503
  15 H :    0.030814
  16 S :    0.377425
  17 C :   -0.174243
  18 C :   -0.072546
  19 C :   -0.059459
  20 C :   -0.184261
  21 H :    0.043819
  22 C :   -0.042546
  23 H :    0.035155
  24 H :    0.030315
  25 C :   -0.040803
  26 H :    0.027826
  27 H :    0.024650
  28 C :   -0.073580
  29 H :    0.029070
  30 H :    0.029925
  31 H :    0.022824
  32 H :    0.033804
  33 H :    0.030603

  Mayer bond orders larger than 0.100000
B(  0-S ,  1-C ) :   1.1297 B(  0-S ,  4-C ) :   1.1041 B(  1-C ,  2-C ) :   1.6424
B(  1-C , 32-H ) :   0.9572 B(  2-C ,  3-C ) :   1.2015 B(  2-C ,  6-C ) :   1.0379
B(  3-C ,  4-C ) :   1.6410 B(  3-C ,  5-H ) :   0.9823 B(  4-C , 20-C ) :   1.0494
B(  6-C ,  7-H ) :   0.9322 B(  6-C ,  8-H ) :   0.9316 B(  6-C ,  9-C ) :   1.0532
B(  9-C , 10-H ) :   0.9577 B(  9-C , 11-H ) :   0.9551 B(  9-C , 12-C ) :   1.0752
B( 12-C , 13-H ) :   0.9748 B( 12-C , 14-H ) :   0.9769 B( 12-C , 15-H ) :   0.9751
B( 16-S , 17-C ) :   1.1386 B( 16-S , 20-C ) :   1.1186 B( 17-C , 18-C ) :   1.6286
B( 17-C , 33-H ) :   0.9672 B( 18-C , 19-C ) :   1.2223 B( 18-C , 21-H ) :   0.9803
B( 19-C , 20-C ) :   1.6125 B( 19-C , 22-C ) :   1.0486 B( 22-C , 23-H ) :   0.9411
B( 22-C , 24-H ) :   0.9303 B( 22-C , 25-C ) :   1.0432 B( 25-C , 26-H ) :   0.9479
B( 25-C , 27-H ) :   0.9567 B( 25-C , 28-C ) :   1.0800 B( 28-C , 29-H ) :   0.9718
B( 28-C , 30-H ) :   0.9756 B( 28-C , 31-H ) :   0.9752

Dispersion correction           -0.014138170
FINAL SINGLE POINT ENERGY     -1339.883403358726

DIPOLE MOMENT
-------------
                                X             Y             Z
Electronic contribution:    -27.48749      21.26665      -2.64687
Nuclear contribution   :     28.13342     -21.76634       2.87152
                        -----------------------------------------
Total Dipole Moment    :      0.64594      -0.49969       0.22465
                        -----------------------------------------
Magnitude (a.u.)       :      0.84699
Magnitude (Debye)      :      2.15288

Rotational constants in cm-1:     0.016117     0.009814     0.006295
Rotational constants in MHz :   483.175618   294.224086   188.717965

                             ****ORCA TERMINATED NORMALLY****
TOTAL RUN TIME: 0 days 0 hours 0 minutes 34 seconds 924 msec
