                         Program Version 4.2.1 -  RELEASE  -
|  1> ! wB97X-D3 SP def2-SVP
|  2> %pal
|  3> nprocs 16
|  4> end
|  5>
|  6> * xyz 0 1
|  7> S 	 66.202 	 22.0618 	 70.8283
|  8> C 	 65.909 	 20.8992 	 72.0827
|  9> C 	 66.423 	 21.1826 	 73.2947
| 10> C 	 67.0741 	 22.4496 	 73.1404
| 11> C 	 67.0927 	 22.988 	 71.8763
| 12> H 	 67.7051 	 22.9395 	 73.904
| 13> C 	 66.4432 	 20.3659 	 74.5852
| 14> H 	 65.532 	 19.7709 	 74.4613
| 15> H 	 66.353 	 20.9398 	 75.4206
| 16> C 	 67.5951 	 19.4568 	 74.7761
| 17> H 	 67.9639 	 18.9886 	 73.8399
| 18> H 	 68.4216 	 20.012 	 75.1633
| 19> C 	 67.2505 	 18.4233 	 75.8104
| 20> H 	 67.9922 	 17.598 	 76.0227
| 21> H 	 67.0022 	 18.9323 	 76.7855
| 22> H 	 66.3337 	 17.8662 	 75.402
| 23> S 	 66.3319 	 25.4195 	 70.7051
| 24> C 	 67.5174 	 26.6625 	 70.5923
| 25> C 	 68.7543 	 26.2277 	 70.9322
| 26> C 	 68.7706 	 24.8801 	 71.4505
| 27> C 	 67.4908 	 24.351 	 71.5084
| 28> H 	 69.6063 	 26.9048 	 70.8195
| 29> C 	 70.0141 	 24.2288 	 72.0594
| 30> H 	 69.8493 	 23.1836 	 72.4023
| 31> H 	 70.2009 	 24.7276 	 73.0099
| 32> C 	 71.3151 	 24.2396 	 71.1925
| 33> H 	 71.5201 	 25.2706 	 71.0482
| 34> H 	 71.0762 	 23.7279 	 70.2506
| 35> C 	 72.5482 	 23.6035 	 71.888
| 36> H 	 73.4096 	 23.5152 	 71.2315
| 37> H 	 72.4066 	 22.6119 	 72.2399
| 38> H 	 73.0021 	 24.2241 	 72.6767
| 39> H 	 65.3859 	 20.0156 	 71.966
| 40> H 	 67.3235 	 27.6855 	 70.3647
| 41> *
| 42>
| 43>                          ****END OF INPUT****

CARTESIAN COORDINATES (ANGSTROEM)
---------------------------------
  S     66.202000   22.061800   70.828300
  C     65.909000   20.899200   72.082700
  C     66.423000   21.182600   73.294700
  C     67.074100   22.449600   73.140400
  C     67.092700   22.988000   71.876300
  H     67.705100   22.939500   73.904000
  C     66.443200   20.365900   74.585200
  H     65.532000   19.770900   74.461300
  H     66.353000   20.939800   75.420600
  C     67.595100   19.456800   74.776100
  H     67.963900   18.988600   73.839900
  H     68.421600   20.012000   75.163300
  C     67.250500   18.423300   75.810400
  H     67.992200   17.598000   76.022700
  H     67.002200   18.932300   76.785500
  H     66.333700   17.866200   75.402000
  S     66.331900   25.419500   70.705100
  C     67.517400   26.662500   70.592300
  C     68.754300   26.227700   70.932200
  C     68.770600   24.880100   71.450500
  C     67.490800   24.351000   71.508400
  H     69.606300   26.904800   70.819500
  C     70.014100   24.228800   72.059400
  H     69.849300   23.183600   72.402300
  H     70.200900   24.727600   73.009900
  C     71.315100   24.239600   71.192500
  H     71.520100   25.270600   71.048200
  H     71.076200   23.727900   70.250600
  C     72.548200   23.603500   71.888000
  H     73.409600   23.515200   71.231500
  H     72.406600   22.611900   72.239900
  H     73.002100   24.224100   72.676700
  H     65.385900   20.015600   71.966000
  H     67.323500   27.685500   70.364700

 Total Charge           Charge          ....    0
 Multiplicity           Mult            ....    1
 Number of Electrons    NEL             ....  134
 Basis Dimension        Dim             ....  322

ORBITAL ENERGIES
----------------

  NO   OCC          E(Eh)            E(eV)
   0   2.0000     -88.964538     -2420.8481
   1   2.0000     -88.963462     -2420.8189
   2   2.0000     -10.324976      -280.9569
   3   2.0000     -10.316933      -280.7380
   4   2.0000     -10.310632      -280.5666
   5   2.0000     -10.304616      -280.4029
   6   2.0000     -10.301820      -280.3268
   7   2.0000     -10.296540      -280.1831
   8   2.0000     -10.292416      -280.0709
   9   2.0000     -10.292142      -280.0634
  10   2.0000     -10.290854      -280.0284
  11   2.0000     -10.288306      -279.9590
  12   2.0000     -10.287474      -279.9364
  13   2.0000     -10.287085      -279.9258
  14   2.0000     -10.282372      -279.7976
  15   2.0000     -10.277631      -279.6686
  16   2.0000      -8.081540      -219.9099
  17   2.0000      -8.078578      -219.8293
  18   2.0000      -6.039791      -164.3511
  19   2.0000      -6.037117      -164.2783
  20   2.0000      -6.035796      -164.2423
  21   2.0000      -6.033088      -164.1687
  22   2.0000      -6.032362      -164.1489
  23   2.0000      -6.029241      -164.0640
  24   2.0000      -1.017513       -27.6879
  25   2.0000      -0.990531       -26.9537
  26   2.0000      -0.928385       -25.2626
  27   2.0000      -0.902213       -24.5505
  28   2.0000      -0.876174       -23.8419
  29   2.0000      -0.851920       -23.1819
  30   2.0000      -0.843852       -22.9624
  31   2.0000      -0.813398       -22.1337
  32   2.0000      -0.786426       -21.3997
  33   2.0000      -0.776120       -21.1193
  34   2.0000      -0.706581       -19.2271
  35   2.0000      -0.699827       -19.0432
  36   2.0000      -0.697518       -18.9804
  37   2.0000      -0.654239       -17.8027
  38   2.0000      -0.644347       -17.5336
  39   2.0000      -0.617961       -16.8156
  40   2.0000      -0.598601       -16.2888
  41   2.0000      -0.589236       -16.0339
  42   2.0000      -0.566117       -15.4048
  43   2.0000      -0.565123       -15.3778
  44   2.0000      -0.528223       -14.3737
  45   2.0000      -0.522561       -14.2196
  46   2.0000      -0.513317       -13.9681
  47   2.0000      -0.509087       -13.8530
  48   2.0000      -0.505803       -13.7636
  49   2.0000      -0.497172       -13.5287
  50   2.0000      -0.494939       -13.4680
  51   2.0000      -0.476667       -12.9708
  52   2.0000      -0.470053       -12.7908
  53   2.0000      -0.465018       -12.6538
  54   2.0000      -0.461007       -12.5446
  55   2.0000      -0.454043       -12.3551
  56   2.0000      -0.443376       -12.0649
  57   2.0000      -0.436600       -11.8805
  58   2.0000      -0.429666       -11.6918
  59   2.0000      -0.427638       -11.6366
  60   2.0000      -0.425746       -11.5851
  61   2.0000      -0.419516       -11.4156
  62   2.0000      -0.415491       -11.3061
  63   2.0000      -0.345475        -9.4008
  64   2.0000      -0.335051        -9.1172
  65   2.0000      -0.327752        -8.9186
  66   2.0000      -0.295284        -8.0351
  67   0.0000       0.043302         1.1783
  68   0.0000       0.069566         1.8930
  69   0.0000       0.117164         3.1882
  70   0.0000       0.129028         3.5110
  71   0.0000       0.132675         3.6103

MULLIKEN ATOMIC CHARGES
-----------------------
   0 S :    0.125425
   1 C :   -0.105002
   2 C :   -0.078115
   3 C :   -0.001065
   4 C :   -0.154678
   5 H :    0.011418
   6 C :    0.123020
   7 H :    0.013263
   8 H :    0.001930
   9 C :   -0.030180
  10 H :    0.034317
  11 H :    0.018084
  12 C :   -0.103496
  13 H :    0.048473
  14 H :    0.039900
  15 H :    0.034577
  16 S :    0.106874
  17 C :   -0.079009
  18 C :   -0.036240
  19 C :   -0.008897
  20 C :   -0.160929
  21 H :    0.024075
  22 C :    0.035345
  23 H :    0.023898
  24 H :    0.031881
  25 C :   -0.067842
  26 H :    0.022826
  27 H :    0.044245
  28 C :   -0.042122
  29 H :    0.024473
  30 H :    0.025653
  31 H :    0.028771
  32 H :    0.002123
  33 H :    0.047005
Sum of atomic charges:   -0.0000000

LOEWDIN ATOMIC CHARGES
----------------------
   0 S :    0.449778
   1 C :   -0.189125
   2 C :   -0.057004
   3 C :   -0.068534
   4 C :   -0.228484
   5 H :    0.027996
   6 C :   -0.016226
   7 H :    0.032792
   8 H :    0.020435
   9 C :   -0.044822
  10 H :    0.028887
  11 H :    0.020835
  12 C :   -0.074500
  13 H :    0.030545
  14 H :    0.029490
  15 H :    0.028939
  16 S :    0.399742
  17 C :   -0.185879
  18 C :   -0.073782
  19 C :   -0.052768
  20 C :   -0.192939
  21 H :    0.032984
  22 C :   -0.036875
  23 H :    0.029462
  24 H :    0.030759
  25 C :   -0.032951
  26 H :    0.017636
  27 H :    0.029959
  28 C :   -0.068617
  29 H :    0.028022
  30 H :    0.019548
  31 H :    0.028435
  32 H :    0.009107
  33 H :    0.027152

  Mayer bond orders larger than 0.100000
B(  0-S ,  1-C ) :   1.1496 B(  0-S ,  4-C ) :   1.1653 B(  1-C ,  2-C ) :   1.6332
B(  1-C , 32-H ) :   0.9659 B(  2-C ,  3-C ) :   1.2450 B(  2-C ,  6-C ) :   1.0114
B(  3-C ,  4-C ) :   1.5852 B(  3-C ,  5-H ) :   0.9873 B(  4-C , 20-C ) :   1.0154
B(  6-C ,  7-H ) :   0.9385 B(  6-C ,  8-H ) :   0.9305 B(  6-C ,  9-C ) :   1.0703
B(  9-C , 10-H ) :   0.9546 B(  9-C , 11-H ) :   0.9459 B(  9-C , 12-C ) :   1.0793
B( 12-C , 13-H ) :   0.9734 B( 12-C , 14-H ) :   0.9703 B( 12-C , 15-H ) :   0.9756
B( 16-S , 17-C ) :   1.1489 B( 16-S , 20-C ) :   1.1325 B( 17-C , 18-C ) :   1.6412
B( 17-C , 33-H ) :   0.9669 B( 18-C , 19-C ) :   1.2143 B( 18-C , 21-H ) :   0.9881
B( 19-C , 20-C ) :   1.6189 B( 19-C , 22-C ) :   1.0421 B( 22-C , 23-H ) :   0.9331
B( 22-C , 24-H ) :   0.9405 B( 22-C , 25-C ) :   1.0530 B( 25-C , 26-H ) :   0.9559
B( 25-C , 27-H ) :   0.9600 B( 25-C , 28-C ) :   1.0886 B( 28-C , 29-H ) :   0.9727
B( 28-C , 30-H ) :   0.9761 B( 28-C , 31-H ) :   0.9733

Dispersion correction           -0.013321665
FINAL SINGLE POINT ENERGY     -1339.872342187652

DIPOLE MOMENT
-------------
                                X             Y             Z
Electronic contribution:    -20.13883      14.59628     -17.42427
Nuclear contribution   :     20.66472     -14.71794      17.86949
                        -----------------------------------------
Total Dipole Moment    :      0.52588      -0.12166       0.44522
                        -----------------------------------------
Magnitude (a.u.)       :      0.69970
Magnitude (Debye)      :      1.77849

Rotational constants in cm-1:     0.017558     0.008214     0.006148
Rotational constants in MHz :   526.385694   246.262013   184.309342

                             ****ORCA TERMINATED NORMALLY****
TOTAL RUN TIME: 0 days 0 hours 0 minutes 29 seconds 709 msec
