                         Program Version 4.2.1 -  RELEASE  -
|  1> ! wB97X-D3 SP def2-SVP
|  2> %pal
|  3> nprocs 16
|  4> end
|  5>
|  6> * xyz 0 1
|  7> S 	 38.4275 	 25.2509 	 95.85
|  8> C 	 40.1754 	 25.4118 	 95.9077
|  9> C 	 40.7405 	 24.1424 	 95.7535
| 10> C 	 39.8074 	 23.0944 	 95.4822
| 11> C 	 38.5129 	 23.503 	 95.6038
| 12> H 	 40.0749 	 22.0391 	 95.2534
| 13> C 	 42.1905 	 23.8118 	 95.9135
| 14> H 	 42.3494 	 22.7851 	 96.0791
| 15> H 	 42.4615 	 24.2929 	 96.8808
| 16> C 	 43.1012 	 24.3346 	 94.7634
| 17> H 	 42.8056 	 25.3486 	 94.5662
| 18> H 	 44.1434 	 24.231 	 95.0314
| 19> C 	 43.0154 	 23.4982 	 93.4734
| 20> H 	 42.0034 	 23.1279 	 93.2682
| 21> H 	 43.3782 	 24.0722 	 92.6341
| 22> H 	 43.5689 	 22.5858 	 93.6596
| 23> S 	 36.3307 	 22.64 	 96.8924
| 24> C 	 35.1222 	 21.6998 	 96.0882
| 25> C 	 35.5506 	 21.2713 	 94.8162
| 26> C 	 36.8574 	 21.7641 	 94.4578
| 27> C 	 37.3506 	 22.6385 	 95.4428
| 28> H 	 34.8797 	 20.7395 	 94.1514
| 29> C 	 37.4205 	 21.4503 	 93.0415
| 30> H 	 38.3107 	 22.0243 	 92.779
| 31> H 	 36.69 	 21.6423 	 92.3178
| 32> C 	 37.8694 	 20.0048 	 92.9705
| 33> H 	 38.0342 	 19.6379 	 91.9092
| 34> H 	 37.1422 	 19.3404 	 93.3758
| 35> C 	 39.3429 	 19.8478 	 93.5391
| 36> H 	 39.6649 	 18.8017 	 93.6073
| 37> H 	 39.5528 	 20.2885 	 94.5529
| 38> H 	 40.1502 	 20.3019 	 92.9064
| 39> H 	 40.6755 	 26.3847 	 95.9157
| 40> H 	 34.2682 	 21.2844 	 96.5461
| 41> *
| 42>
| 43>                          ****END OF INPUT****

CARTESIAN COORDINATES (ANGSTROEM)
---------------------------------
  S     38.427500   25.250900   95.850000
  C     40.175400   25.411800   95.907700
  C     40.740500   24.142400   95.753500
  C     39.807400   23.094400   95.482200
  C     38.512900   23.503000   95.603800
  H     40.074900   22.039100   95.253400
  C     42.190500   23.811800   95.913500
  H     42.349400   22.785100   96.079100
  H     42.461500   24.292900   96.880800
  C     43.101200   24.334600   94.763400
  H     42.805600   25.348600   94.566200
  H     44.143400   24.231000   95.031400
  C     43.015400   23.498200   93.473400
  H     42.003400   23.127900   93.268200
  H     43.378200   24.072200   92.634100
  H     43.568900   22.585800   93.659600
  S     36.330700   22.640000   96.892400
  C     35.122200   21.699800   96.088200
  C     35.550600   21.271300   94.816200
  C     36.857400   21.764100   94.457800
  C     37.350600   22.638500   95.442800
  H     34.879700   20.739500   94.151400
  C     37.420500   21.450300   93.041500
  H     38.310700   22.024300   92.779000
  H     36.690000   21.642300   92.317800
  C     37.869400   20.004800   92.970500
  H     38.034200   19.637900   91.909200
  H     37.142200   19.340400   93.375800
  C     39.342900   19.847800   93.539100
  H     39.664900   18.801700   93.607300
  H     39.552800   20.288500   94.552900
  H     40.150200   20.301900   92.906400
  H     40.675500   26.384700   95.915700
  H     34.268200   21.284400   96.546100

 Total Charge           Charge          ....    0
 Multiplicity           Mult            ....    1
 Number of Electrons    NEL             ....  134
 Basis Dimension        Dim             ....  322

ORBITAL ENERGIES
----------------

  NO   OCC          E(Eh)            E(eV)
   0   2.0000     -88.966190     -2420.8931
   1   2.0000     -88.965655     -2420.8786
   2   2.0000     -10.331029      -281.1216
   3   2.0000     -10.327802      -281.0338
   4   2.0000     -10.317470      -280.7526
   5   2.0000     -10.314603      -280.6746
   6   2.0000     -10.312708      -280.6231
   7   2.0000     -10.300699      -280.2963
   8   2.0000     -10.297601      -280.2120
   9   2.0000     -10.294498      -280.1275
  10   2.0000     -10.292878      -280.0835
  11   2.0000     -10.292132      -280.0632
  12   2.0000     -10.288848      -279.9738
  13   2.0000     -10.286564      -279.9116
  14   2.0000     -10.284111      -279.8449
  15   2.0000     -10.274428      -279.5814
  16   2.0000      -8.080430      -219.8797
  17   2.0000      -8.080395      -219.8787
  18   2.0000      -6.039036      -164.3305
  19   2.0000      -6.038854      -164.3256
  20   2.0000      -6.034933      -164.2189
  21   2.0000      -6.034809      -164.2155
  22   2.0000      -6.031314      -164.1204
  23   2.0000      -6.031160      -164.1162
  24   2.0000      -1.003700       -27.3121
  25   2.0000      -0.980652       -26.6849
  26   2.0000      -0.910830       -24.7849
  27   2.0000      -0.908403       -24.7189
  28   2.0000      -0.866762       -23.5858
  29   2.0000      -0.847878       -23.0719
  30   2.0000      -0.842177       -22.9168
  31   2.0000      -0.811416       -22.0797
  32   2.0000      -0.782378       -21.2896
  33   2.0000      -0.770635       -20.9700
  34   2.0000      -0.706322       -19.2200
  35   2.0000      -0.702370       -19.1125
  36   2.0000      -0.692527       -18.8446
  37   2.0000      -0.661194       -17.9920
  38   2.0000      -0.641842       -17.4654
  39   2.0000      -0.614217       -16.7137
  40   2.0000      -0.599307       -16.3080
  41   2.0000      -0.577049       -15.7023
  42   2.0000      -0.558203       -15.1895
  43   2.0000      -0.546780       -14.8786
  44   2.0000      -0.542704       -14.7677
  45   2.0000      -0.534409       -14.5420
  46   2.0000      -0.521030       -14.1779
  47   2.0000      -0.512150       -13.9363
  48   2.0000      -0.500356       -13.6154
  49   2.0000      -0.495259       -13.4767
  50   2.0000      -0.486980       -13.2514
  51   2.0000      -0.477001       -12.9799
  52   2.0000      -0.469672       -12.7804
  53   2.0000      -0.464535       -12.6406
  54   2.0000      -0.456862       -12.4319
  55   2.0000      -0.444769       -12.1028
  56   2.0000      -0.439018       -11.9463
  57   2.0000      -0.436530       -11.8786
  58   2.0000      -0.434981       -11.8364
  59   2.0000      -0.431845       -11.7511
  60   2.0000      -0.424064       -11.5394
  61   2.0000      -0.413085       -11.2406
  62   2.0000      -0.410173       -11.1614
  63   2.0000      -0.343424        -9.3450
  64   2.0000      -0.333761        -9.0821
  65   2.0000      -0.325685        -8.8624
  66   2.0000      -0.292337        -7.9549
  67   0.0000       0.032192         0.8760
  68   0.0000       0.061054         1.6614
  69   0.0000       0.112404         3.0587
  70   0.0000       0.119997         3.2653
  71   0.0000       0.125342         3.4107

MULLIKEN ATOMIC CHARGES
-----------------------
   0 S :    0.116186
   1 C :   -0.138394
   2 C :   -0.096620
   3 C :    0.039222
   4 C :   -0.132731
   5 H :    0.001756
   6 C :    0.067394
   7 H :    0.002747
   8 H :    0.037932
   9 C :   -0.057176
  10 H :    0.023281
  11 H :    0.031658
  12 C :   -0.049721
  13 H :    0.024477
  14 H :    0.041518
  15 H :    0.021515
  16 S :    0.109579
  17 C :   -0.066742
  18 C :   -0.063307
  19 C :   -0.014217
  20 C :   -0.199793
  21 H :    0.024894
  22 C :    0.118451
  23 H :    0.023950
  24 H :    0.022851
  25 C :   -0.077999
  26 H :    0.039348
  27 H :    0.030989
  28 C :   -0.111443
  29 H :    0.033491
  30 H :    0.047234
  31 H :    0.038355
  32 H :    0.065433
  33 H :    0.045881
Sum of atomic charges:    0.0000000

LOEWDIN ATOMIC CHARGES
----------------------
   0 S :    0.401854
   1 C :   -0.202612
   2 C :   -0.062202
   3 C :   -0.066762
   4 C :   -0.199416
   5 H :    0.035330
   6 C :   -0.031629
   7 H :    0.019101
   8 H :    0.039387
   9 C :   -0.032899
  10 H :    0.017841
  11 H :    0.023676
  12 C :   -0.064167
  13 H :    0.021715
  14 H :    0.027087
  15 H :    0.022592
  16 S :    0.413474
  17 C :   -0.189172
  18 C :   -0.070727
  19 C :   -0.048900
  20 C :   -0.188215
  21 H :    0.030310
  22 C :   -0.020709
  23 H :    0.032947
  24 H :    0.024792
  25 C :   -0.036980
  26 H :    0.033084
  27 H :    0.018033
  28 C :   -0.079713
  29 H :    0.026334
  30 H :    0.022721
  31 H :    0.028591
  32 H :    0.034447
  33 H :    0.020789

  Mayer bond orders larger than 0.100000
B(  0-S ,  1-C ) :   1.1349 B(  0-S ,  4-C ) :   1.1534 B(  1-C ,  2-C ) :   1.5885
B(  1-C , 32-H ) :   0.9701 B(  2-C ,  3-C ) :   1.2484 B(  2-C ,  6-C ) :   1.0208
B(  3-C ,  4-C ) :   1.5719 B(  3-C ,  5-H ) :   0.9857 B(  4-C , 20-C ) :   1.0230
B(  6-C ,  7-H ) :   0.9451 B(  6-C ,  8-H ) :   0.9394 B(  6-C ,  9-C ) :   1.0689
B(  9-C , 10-H ) :   0.9623 B(  9-C , 11-H ) :   0.9601 B(  9-C , 12-C ) :   1.0692
B( 12-C , 13-H ) :   0.9790 B( 12-C , 14-H ) :   0.9745 B( 12-C , 15-H ) :   0.9766
B( 16-S , 17-C ) :   1.1591 B( 16-S , 20-C ) :   1.1587 B( 17-C , 18-C ) :   1.6043
B( 17-C , 20-C ) :   0.1053 B( 17-C , 33-H ) :   0.9714 B( 18-C , 19-C ) :   1.2357
B( 18-C , 21-H ) :   0.9841 B( 19-C , 20-C ) :   1.5953 B( 19-C , 22-C ) :   1.0332
B( 22-C , 23-H ) :   0.9413 B( 22-C , 24-H ) :   0.9397 B( 22-C , 25-C ) :   1.0625
B( 25-C , 26-H ) :   0.9543 B( 25-C , 27-H ) :   0.9630 B( 25-C , 28-C ) :   1.0597
B( 28-C , 29-H ) :   0.9696 B( 28-C , 30-H ) :   0.9696 B( 28-C , 31-H ) :   0.9765

Dispersion correction           -0.015160690
FINAL SINGLE POINT ENERGY     -1339.875685255985

DIPOLE MOMENT
-------------
                                X             Y             Z
Electronic contribution:    -21.67247      12.39758      16.03541
Nuclear contribution   :     22.02705     -12.78632     -16.44963
                        -----------------------------------------
Total Dipole Moment    :      0.35458      -0.38874      -0.41422
                        -----------------------------------------
Magnitude (a.u.)       :      0.66964
Magnitude (Debye)      :      1.70209

Rotational constants in cm-1:     0.019035     0.009608     0.007009
Rotational constants in MHz :   570.668859   288.037539   210.117052

                             ****ORCA TERMINATED NORMALLY****
TOTAL RUN TIME: 0 days 0 hours 0 minutes 29 seconds 450 msec
