                         Program Version 4.2.1 -  RELEASE  -
|  1> ! wB97X-D3 SP def2-SVP
|  2> %pal
|  3> nprocs 16
|  4> end
|  5>
|  6> * xyz 0 1
|  7> S 	 14.7059 	 11.3885 	 84.1411
|  8> C 	 14.8866 	 11.9563 	 82.507
|  9> C 	 13.5737 	 12.2058 	 81.9692
| 10> C 	 12.5309 	 11.9374 	 82.9447
| 11> C 	 12.9627 	 11.4299 	 84.1299
| 12> H 	 11.5801 	 12.2287 	 82.7637
| 13> C 	 13.3756 	 12.7365 	 80.536
| 14> H 	 12.3772 	 12.3388 	 80.2488
| 15> H 	 14.0424 	 12.2399 	 79.8817
| 16> C 	 13.2705 	 14.2547 	 80.3146
| 17> H 	 14.1698 	 14.6825 	 80.7545
| 18> H 	 13.3399 	 14.4889 	 79.261
| 19> C 	 11.9667 	 14.8717 	 80.7431
| 20> H 	 11.9474 	 15.9601 	 80.6321
| 21> H 	 11.1056 	 14.521 	 80.3042
| 22> H 	 11.9897 	 14.721 	 81.8002
| 23> S 	 12.207 	 12.2683 	 86.6262
| 24> C 	 10.7873 	 11.4996 	 87.3894
| 25> C 	 10.4254 	 10.3798 	 86.7301
| 26> C 	 11.0397 	 10.284 	 85.444
| 27> C 	 12.1074 	 11.1578 	 85.2869
| 28> H 	 9.55031 	 9.86237 	 87.0224
| 29> C 	 10.6043 	 9.20542 	 84.4873
| 30> H 	 10.4816 	 9.65753 	 83.5022
| 31> H 	 9.61822 	 8.9037 	 84.8362
| 32> C 	 11.4629 	 7.88045 	 84.486
| 33> H 	 11.6609 	 7.5761 	 85.4887
| 34> H 	 12.5056 	 7.94654 	 84.2016
| 35> C 	 10.7787 	 6.67691 	 83.7177
| 36> H 	 10.5301 	 7.00254 	 82.7006
| 37> H 	 9.89523 	 6.38015 	 84.2654
| 38> H 	 11.2985 	 5.79357 	 83.6468
| 39> H 	 15.7752 	 12.1912 	 82.0644
| 40> H 	 10.4336 	 11.8885 	 88.3353
| 41> *
| 42>
| 43>                          ****END OF INPUT****

CARTESIAN COORDINATES (ANGSTROEM)
---------------------------------
  S     14.705900   11.388500   84.141100
  C     14.886600   11.956300   82.507000
  C     13.573700   12.205800   81.969200
  C     12.530900   11.937400   82.944700
  C     12.962700   11.429900   84.129900
  H     11.580100   12.228700   82.763700
  C     13.375600   12.736500   80.536000
  H     12.377200   12.338800   80.248800
  H     14.042400   12.239900   79.881700
  C     13.270500   14.254700   80.314600
  H     14.169800   14.682500   80.754500
  H     13.339900   14.488900   79.261000
  C     11.966700   14.871700   80.743100
  H     11.947400   15.960100   80.632100
  H     11.105600   14.521000   80.304200
  H     11.989700   14.721000   81.800200
  S     12.207000   12.268300   86.626200
  C     10.787300   11.499600   87.389400
  C     10.425400   10.379800   86.730100
  C     11.039700   10.284000   85.444000
  C     12.107400   11.157800   85.286900
  H      9.550310    9.862370   87.022400
  C     10.604300    9.205420   84.487300
  H     10.481600    9.657530   83.502200
  H      9.618220    8.903700   84.836200
  C     11.462900    7.880450   84.486000
  H     11.660900    7.576100   85.488700
  H     12.505600    7.946540   84.201600
  C     10.778700    6.676910   83.717700
  H     10.530100    7.002540   82.700600
  H      9.895230    6.380150   84.265400
  H     11.298500    5.793570   83.646800
  H     15.775200   12.191200   82.064400
  H     10.433600   11.888500   88.335300

 Total Charge           Charge          ....    0
 Multiplicity           Mult            ....    1
 Number of Electrons    NEL             ....  134
 Basis Dimension        Dim             ....  322

ORBITAL ENERGIES
----------------

  NO   OCC          E(Eh)            E(eV)
   0   2.0000     -88.965813     -2420.8829
   1   2.0000     -88.962440     -2420.7911
   2   2.0000     -10.327573      -281.0275
   3   2.0000     -10.326047      -280.9860
   4   2.0000     -10.319373      -280.8044
   5   2.0000     -10.313684      -280.6496
   6   2.0000     -10.308372      -280.5051
   7   2.0000     -10.303227      -280.3651
   8   2.0000     -10.294341      -280.1233
   9   2.0000     -10.291305      -280.0407
  10   2.0000     -10.290742      -280.0253
  11   2.0000     -10.286916      -279.9212
  12   2.0000     -10.284957      -279.8679
  13   2.0000     -10.282845      -279.8104
  14   2.0000     -10.271973      -279.5146
  15   2.0000     -10.267301      -279.3875
  16   2.0000      -8.080567      -219.8834
  17   2.0000      -8.077290      -219.7942
  18   2.0000      -6.039037      -164.3306
  19   2.0000      -6.035789      -164.2422
  20   2.0000      -6.034888      -164.2176
  21   2.0000      -6.031770      -164.1328
  22   2.0000      -6.031554      -164.1269
  23   2.0000      -6.028053      -164.0317
  24   2.0000      -1.006394       -27.3854
  25   2.0000      -0.983049       -26.7501
  26   2.0000      -0.911574       -24.8052
  27   2.0000      -0.898970       -24.4622
  28   2.0000      -0.873147       -23.7595
  29   2.0000      -0.849031       -23.1033
  30   2.0000      -0.845503       -23.0073
  31   2.0000      -0.821088       -22.3430
  32   2.0000      -0.783463       -21.3191
  33   2.0000      -0.770685       -20.9714
  34   2.0000      -0.712092       -19.3770
  35   2.0000      -0.703739       -19.1497
  36   2.0000      -0.696969       -18.9655
  37   2.0000      -0.666746       -18.1431
  38   2.0000      -0.649852       -17.6834
  39   2.0000      -0.620833       -16.8937
  40   2.0000      -0.597128       -16.2487
  41   2.0000      -0.574837       -15.6421
  42   2.0000      -0.556054       -15.1310
  43   2.0000      -0.553326       -15.0568
  44   2.0000      -0.545930       -14.8555
  45   2.0000      -0.526747       -14.3335
  46   2.0000      -0.518314       -14.1040
  47   2.0000      -0.510754       -13.8983
  48   2.0000      -0.508296       -13.8314
  49   2.0000      -0.503776       -13.7084
  50   2.0000      -0.487144       -13.2559
  51   2.0000      -0.482599       -13.1322
  52   2.0000      -0.475577       -12.9411
  53   2.0000      -0.463305       -12.6072
  54   2.0000      -0.459099       -12.4927
  55   2.0000      -0.449523       -12.2321
  56   2.0000      -0.445432       -12.1208
  57   2.0000      -0.437981       -11.9181
  58   2.0000      -0.431009       -11.7284
  59   2.0000      -0.421961       -11.4821
  60   2.0000      -0.417812       -11.3692
  61   2.0000      -0.414075       -11.2675
  62   2.0000      -0.407478       -11.0880
  63   2.0000      -0.347213        -9.4482
  64   2.0000      -0.329585        -8.9685
  65   2.0000      -0.323138        -8.7930
  66   2.0000      -0.300061        -8.1651
  67   0.0000       0.036853         1.0028
  68   0.0000       0.060061         1.6343
  69   0.0000       0.118050         3.2123
  70   0.0000       0.119577         3.2539
  71   0.0000       0.128229         3.4893

MULLIKEN ATOMIC CHARGES
-----------------------
   0 S :    0.111698
   1 C :   -0.082147
   2 C :   -0.134123
   3 C :    0.093565
   4 C :   -0.148784
   5 H :   -0.031419
   6 C :    0.065504
   7 H :    0.012425
   8 H :    0.022584
   9 C :   -0.043439
  10 H :    0.023052
  11 H :    0.019993
  12 C :   -0.022844
  13 H :    0.030082
  14 H :    0.018441
  15 H :    0.024972
  16 S :    0.093403
  17 C :   -0.103628
  18 C :    0.016593
  19 C :   -0.088828
  20 C :   -0.136134
  21 H :    0.014459
  22 C :    0.107261
  23 H :    0.030007
  24 H :    0.005242
  25 C :   -0.053983
  26 H :    0.008084
  27 H :    0.027128
  28 C :   -0.028725
  29 H :    0.033262
  30 H :    0.022296
  31 H :    0.015410
  32 H :    0.018700
  33 H :    0.059894
Sum of atomic charges:   -0.0000000

LOEWDIN ATOMIC CHARGES
----------------------
   0 S :    0.417565
   1 C :   -0.188978
   2 C :   -0.054236
   3 C :   -0.051686
   4 C :   -0.201338
   5 H :    0.011923
   6 C :   -0.032887
   7 H :    0.031103
   8 H :    0.026897
   9 C :   -0.037926
  10 H :    0.023417
  11 H :    0.021349
  12 C :   -0.058845
  13 H :    0.031320
  14 H :    0.013985
  15 H :    0.025387
  16 S :    0.391148
  17 C :   -0.158804
  18 C :   -0.068463
  19 C :   -0.052971
  20 C :   -0.200707
  21 H :    0.029087
  22 C :   -0.025201
  23 H :    0.031683
  24 H :    0.028733
  25 C :   -0.037260
  26 H :    0.019418
  27 H :    0.024620
  28 C :   -0.059239
  29 H :    0.026902
  30 H :    0.023170
  31 H :    0.015035
  32 H :    0.008981
  33 H :    0.026820

  Mayer bond orders larger than 0.100000
B(  0-S ,  1-C ) :   1.1587 B(  0-S ,  4-C ) :   1.1544 B(  1-C ,  2-C ) :   1.5603
B(  1-C , 32-H ) :   0.9877 B(  2-C ,  3-C ) :   1.2643 B(  2-C ,  6-C ) :   1.0194
B(  3-C ,  4-C ) :   1.5632 B(  3-C ,  5-H ) :   1.0079 B(  4-C , 20-C ) :   1.0106
B(  6-C ,  7-H ) :   0.9401 B(  6-C ,  8-H ) :   0.9447 B(  6-C ,  9-C ) :   1.0635
B(  9-C , 10-H ) :   0.9559 B(  9-C , 11-H ) :   0.9531 B(  9-C , 12-C ) :   1.0822
B( 12-C , 13-H ) :   0.9691 B( 12-C , 14-H ) :   0.9742 B( 12-C , 15-H ) :   0.9761
B( 16-S , 17-C ) :   1.1533 B( 16-S , 20-C ) :   1.1418 B( 17-C , 18-C ) :   1.6241
B( 17-C , 33-H ) :   0.9680 B( 18-C , 19-C ) :   1.2320 B( 18-C , 21-H ) :   0.9847
B( 19-C , 20-C ) :   1.6132 B( 19-C , 22-C ) :   1.0603 B( 22-C , 23-H ) :   0.9275
B( 22-C , 24-H ) :   0.9296 B( 22-C , 25-C ) :   1.0491 B( 25-C , 26-H ) :   0.9530
B( 25-C , 27-H ) :   0.9587 B( 25-C , 28-C ) :   1.0762 B( 28-C , 29-H ) :   0.9789
B( 28-C , 30-H ) :   0.9765 B( 28-C , 31-H ) :   0.9754

Dispersion correction           -0.014161566
FINAL SINGLE POINT ENERGY     -1339.859556939015

DIPOLE MOMENT
-------------
                                X             Y             Z
Electronic contribution:     10.56691       5.26312      19.07240
Nuclear contribution   :    -11.01051      -5.28306     -19.41425
                        -----------------------------------------
Total Dipole Moment    :     -0.44361      -0.01994      -0.34185
                        -----------------------------------------
Magnitude (a.u.)       :      0.56040
Magnitude (Debye)      :      1.42441

Rotational constants in cm-1:     0.017235     0.008306     0.007220
Rotational constants in MHz :   516.705928   248.996540   216.448090

                             ****ORCA TERMINATED NORMALLY****
TOTAL RUN TIME: 0 days 0 hours 0 minutes 34 seconds 212 msec
