                         Program Version 4.2.1 -  RELEASE  -
|  1> ! wB97X-D3 SP def2-SVP
|  2> %pal
|  3> nprocs 16
|  4> end
|  5>
|  6> * xyz 0 1
|  7> S 	 -57.1911 	 34.9256 	 95.813
|  8> C 	 -58.7674 	 34.1466 	 95.844
|  9> C 	 -58.64 	 32.7907 	 95.9783
| 10> C 	 -57.3168 	 32.4166 	 96.3234
| 11> C 	 -56.4287 	 33.5127 	 96.4237
| 12> H 	 -56.9393 	 31.4693 	 96.6079
| 13> C 	 -59.76 	 31.8051 	 96.1001
| 14> H 	 -60.4006 	 32.1264 	 95.261
| 15> H 	 -60.3303 	 32.0803 	 97.0392
| 16> C 	 -59.5585 	 30.3228 	 95.9018
| 17> H 	 -58.9606 	 30.1658 	 95.0465
| 18> H 	 -59.1703 	 29.8696 	 96.8493
| 19> C 	 -60.8171 	 29.5225 	 95.7195
| 20> H 	 -61.2627 	 29.6086 	 94.715
| 21> H 	 -60.6296 	 28.4275 	 95.774
| 22> H 	 -61.597 	 29.8125 	 96.4648
| 23> S 	 -54.4177 	 31.7125 	 97.1936
| 24> C 	 -52.8053 	 32.2878 	 97.4045
| 25> C 	 -52.6567 	 33.6149 	 97.0161
| 26> C 	 -53.9221 	 34.2521 	 96.6461
| 27> C 	 -54.9901 	 33.3309 	 96.6294
| 28> H 	 -51.688 	 34.0639 	 97.1038
| 29> C 	 -53.9813 	 35.7045 	 96.1798
| 30> H 	 -54.1292 	 36.2691 	 97.1274
| 31> H 	 -54.8969 	 35.9302 	 95.5589
| 32> C 	 -52.6948 	 36.292 	 95.5121
| 33> H 	 -52.5405 	 35.7597 	 94.5733
| 34> H 	 -51.8101 	 36.0819 	 96.1416
| 35> C 	 -52.8392 	 37.7329 	 95.1403
| 36> H 	 -51.8493 	 38.1006 	 94.8755
| 37> H 	 -53.0954 	 38.3161 	 96.0064
| 38> H 	 -53.4551 	 37.9188 	 94.2647
| 39> H 	 -59.7504 	 34.6056 	 95.5731
| 40> H 	 -51.9733 	 31.7337 	 97.8335
| 41> *
| 42>
| 43>                          ****END OF INPUT****

CARTESIAN COORDINATES (ANGSTROEM)
---------------------------------
  S    -57.191100   34.925600   95.813000
  C    -58.767400   34.146600   95.844000
  C    -58.640000   32.790700   95.978300
  C    -57.316800   32.416600   96.323400
  C    -56.428700   33.512700   96.423700
  H    -56.939300   31.469300   96.607900
  C    -59.760000   31.805100   96.100100
  H    -60.400600   32.126400   95.261000
  H    -60.330300   32.080300   97.039200
  C    -59.558500   30.322800   95.901800
  H    -58.960600   30.165800   95.046500
  H    -59.170300   29.869600   96.849300
  C    -60.817100   29.522500   95.719500
  H    -61.262700   29.608600   94.715000
  H    -60.629600   28.427500   95.774000
  H    -61.597000   29.812500   96.464800
  S    -54.417700   31.712500   97.193600
  C    -52.805300   32.287800   97.404500
  C    -52.656700   33.614900   97.016100
  C    -53.922100   34.252100   96.646100
  C    -54.990100   33.330900   96.629400
  H    -51.688000   34.063900   97.103800
  C    -53.981300   35.704500   96.179800
  H    -54.129200   36.269100   97.127400
  H    -54.896900   35.930200   95.558900
  C    -52.694800   36.292000   95.512100
  H    -52.540500   35.759700   94.573300
  H    -51.810100   36.081900   96.141600
  C    -52.839200   37.732900   95.140300
  H    -51.849300   38.100600   94.875500
  H    -53.095400   38.316100   96.006400
  H    -53.455100   37.918800   94.264700
  H    -59.750400   34.605600   95.573100
  H    -51.973300   31.733700   97.833500

 Total Charge           Charge          ....    0
 Multiplicity           Mult            ....    1
 Number of Electrons    NEL             ....  134
 Basis Dimension        Dim             ....  322

ORBITAL ENERGIES
----------------

  NO   OCC          E(Eh)            E(eV)
   0   2.0000     -88.969635     -2420.9869
   1   2.0000     -88.966544     -2420.9027
   2   2.0000     -10.333564      -281.1906
   3   2.0000     -10.329851      -281.0895
   4   2.0000     -10.318524      -280.7813
   5   2.0000     -10.312138      -280.6075
   6   2.0000     -10.311499      -280.5902
   7   2.0000     -10.299832      -280.2727
   8   2.0000     -10.297798      -280.2173
   9   2.0000     -10.296021      -280.1690
  10   2.0000     -10.293011      -280.0871
  11   2.0000     -10.288813      -279.9728
  12   2.0000     -10.286634      -279.9135
  13   2.0000     -10.285585      -279.8850
  14   2.0000     -10.282304      -279.7957
  15   2.0000     -10.274819      -279.5920
  16   2.0000      -8.083895      -219.9740
  17   2.0000      -8.080521      -219.8822
  18   2.0000      -6.042563      -164.4265
  19   2.0000      -6.039206      -164.3351
  20   2.0000      -6.038504      -164.3160
  21   2.0000      -6.035220      -164.2267
  22   2.0000      -6.034492      -164.2069
  23   2.0000      -6.031087      -164.1142
  24   2.0000      -1.004939       -27.3458
  25   2.0000      -0.980094       -26.6697
  26   2.0000      -0.917998       -24.9800
  27   2.0000      -0.908564       -24.7233
  28   2.0000      -0.872168       -23.7329
  29   2.0000      -0.854833       -23.2612
  30   2.0000      -0.848672       -23.0935
  31   2.0000      -0.808307       -21.9952
  32   2.0000      -0.782629       -21.2964
  33   2.0000      -0.771281       -20.9876
  34   2.0000      -0.708516       -19.2797
  35   2.0000      -0.701002       -19.0752
  36   2.0000      -0.684961       -18.6387
  37   2.0000      -0.660301       -17.9677
  38   2.0000      -0.628268       -17.0960
  39   2.0000      -0.614177       -16.7126
  40   2.0000      -0.595588       -16.2068
  41   2.0000      -0.581812       -15.8319
  42   2.0000      -0.570764       -15.5313
  43   2.0000      -0.564687       -15.3659
  44   2.0000      -0.525806       -14.3079
  45   2.0000      -0.522193       -14.2096
  46   2.0000      -0.518342       -14.1048
  47   2.0000      -0.511906       -13.9297
  48   2.0000      -0.505500       -13.7553
  49   2.0000      -0.496680       -13.5154
  50   2.0000      -0.482259       -13.1229
  51   2.0000      -0.479138       -13.0380
  52   2.0000      -0.475358       -12.9351
  53   2.0000      -0.474050       -12.8996
  54   2.0000      -0.459082       -12.4922
  55   2.0000      -0.457647       -12.4532
  56   2.0000      -0.446597       -12.1525
  57   2.0000      -0.434807       -11.8317
  58   2.0000      -0.430813       -11.7230
  59   2.0000      -0.424347       -11.5471
  60   2.0000      -0.421295       -11.4640
  61   2.0000      -0.408041       -11.1034
  62   2.0000      -0.406890       -11.0720
  63   2.0000      -0.360341        -9.8054
  64   2.0000      -0.330994        -9.0068
  65   2.0000      -0.326979        -8.8975
  66   2.0000      -0.275409        -7.4943
  67   0.0000       0.016960         0.4615
  68   0.0000       0.084196         2.2911
  69   0.0000       0.109468         2.9788
  70   0.0000       0.117283         3.1914
  71   0.0000       0.132118         3.5951

MULLIKEN ATOMIC CHARGES
-----------------------
   0 S :    0.087963
   1 C :   -0.134065
   2 C :   -0.046823
   3 C :   -0.041051
   4 C :   -0.071456
   5 H :    0.007843
   6 C :    0.014763
   7 H :    0.019208
   8 H :    0.057444
   9 C :   -0.038655
  10 H :    0.027886
  11 H :    0.039239
  12 C :   -0.079110
  13 H :    0.027662
  14 H :    0.038975
  15 H :    0.037249
  16 S :    0.074673
  17 C :   -0.075362
  18 C :   -0.041953
  19 C :   -0.051011
  20 C :   -0.129509
  21 H :    0.014700
  22 C :    0.004712
  23 H :    0.042678
  24 H :    0.051112
  25 C :   -0.097209
  26 H :    0.033586
  27 H :    0.036989
  28 C :   -0.015501
  29 H :    0.021067
  30 H :    0.023983
  31 H :    0.041993
  32 H :    0.056827
  33 H :    0.061153
Sum of atomic charges:    0.0000000

LOEWDIN ATOMIC CHARGES
----------------------
   0 S :    0.429145
   1 C :   -0.211491
   2 C :   -0.064150
   3 C :   -0.072601
   4 C :   -0.191285
   5 H :    0.013077
   6 C :   -0.043445
   7 H :    0.032629
   8 H :    0.044330
   9 C :   -0.045633
  10 H :    0.024503
  11 H :    0.032885
  12 C :   -0.069796
  13 H :    0.021969
  14 H :    0.031224
  15 H :    0.028444
  16 S :    0.393849
  17 C :   -0.189893
  18 C :   -0.074401
  19 C :   -0.054442
  20 C :   -0.177046
  21 H :    0.027219
  22 C :   -0.046739
  23 H :    0.039037
  24 H :    0.022765
  25 C :   -0.042740
  26 H :    0.026806
  27 H :    0.024779
  28 C :   -0.062005
  29 H :    0.028834
  30 H :    0.022610
  31 H :    0.029063
  32 H :    0.038001
  33 H :    0.034497

  Mayer bond orders larger than 0.100000
B(  0-S ,  1-C ) :   1.1236 B(  0-S ,  4-C ) :   1.1625 B(  1-C ,  2-C ) :   1.5992
B(  1-C , 32-H ) :   0.9644 B(  2-C ,  3-C ) :   1.2662 B(  2-C ,  6-C ) :   1.0150
B(  3-C ,  4-C ) :   1.5049 B(  3-C ,  5-H ) :   0.9956 B(  4-C , 20-C ) :   1.1166
B(  6-C ,  7-H ) :   0.9352 B(  6-C ,  8-H ) :   0.9359 B(  6-C ,  9-C ) :   1.0850
B(  9-C , 10-H ) :   0.9527 B(  9-C , 11-H ) :   0.9434 B(  9-C , 12-C ) :   1.0932
B( 12-C , 13-H ) :   0.9716 B( 12-C , 14-H ) :   0.9732 B( 12-C , 15-H ) :   0.9730
B( 16-S , 17-C ) :   1.1537 B( 16-S , 20-C ) :   1.1110 B( 17-C , 18-C ) :   1.6321
B( 17-C , 33-H ) :   0.9611 B( 18-C , 19-C ) :   1.2219 B( 18-C , 21-H ) :   0.9891
B( 19-C , 20-C ) :   1.5839 B( 19-C , 22-C ) :   1.0254 B( 22-C , 23-H ) :   0.9185
B( 22-C , 24-H ) :   0.9417 B( 22-C , 25-C ) :   1.0687 B( 25-C , 26-H ) :   0.9547
B( 25-C , 27-H ) :   0.9482 B( 25-C , 28-C ) :   1.0997 B( 28-C , 29-H ) :   0.9678
B( 28-C , 30-H ) :   0.9721 B( 28-C , 31-H ) :   0.9725

Dispersion correction           -0.013041521
FINAL SINGLE POINT ENERGY     -1339.874507760582

DIPOLE MOMENT
-------------
                                X             Y             Z
Electronic contribution:      5.62007      -1.19800       5.42707
Nuclear contribution   :     -5.54252       1.23883      -5.50419
                        -----------------------------------------
Total Dipole Moment    :      0.07755       0.04083      -0.07713
                        -----------------------------------------
Magnitude (a.u.)       :      0.11675
Magnitude (Debye)      :      0.29675

Rotational constants in cm-1:     0.023606     0.007198     0.005641
Rotational constants in MHz :   707.702886   215.776496   169.109031

                             ****ORCA TERMINATED NORMALLY****
TOTAL RUN TIME: 0 days 0 hours 0 minutes 28 seconds 452 msec
