                         Program Version 4.2.1 -  RELEASE  -
|  1> ! wB97X-D3 SP def2-SVP
|  2> %pal
|  3> nprocs 16
|  4> end
|  5>
|  6> * xyz 0 1
|  7> S 	 -106.195 	 56.6185 	 121.372
|  8> C 	 -105.219 	 58.0488 	 121.447
|  9> C 	 -104.604 	 58.2736 	 120.273
| 10> C 	 -104.997 	 57.3248 	 119.213
| 11> C 	 -105.898 	 56.3384 	 119.646
| 12> H 	 -104.767 	 57.3703 	 118.201
| 13> C 	 -103.669 	 59.4169 	 119.926
| 14> H 	 -102.721 	 58.9178 	 119.659
| 15> H 	 -103.428 	 60.0139 	 120.792
| 16> C 	 -104.12 	 60.3695 	 118.807
| 17> H 	 -103.397 	 61.2563 	 118.791
| 18> H 	 -104.155 	 59.9108 	 117.785
| 19> C 	 -105.503 	 60.9931 	 118.983
| 20> H 	 -105.67 	 61.5286 	 118.097
| 21> H 	 -106.324 	 60.3017 	 119.075
| 22> H 	 -105.549 	 61.6049 	 119.968
| 23> S 	 -106.827 	 53.8263 	 119.618
| 24> C 	 -107.312 	 53.099 	 118.05
| 25> C 	 -107.205 	 53.9889 	 117.038
| 26> C 	 -106.833 	 55.3013 	 117.483
| 27> C 	 -106.574 	 55.2972 	 118.847
| 28> H 	 -107.487 	 53.6309 	 116.052
| 29> C 	 -106.609 	 56.4508 	 116.558
| 30> H 	 -106.767 	 57.3388 	 117.117
| 31> H 	 -107.322 	 56.4661 	 115.727
| 32> C 	 -105.304 	 56.5786 	 115.852
| 33> H 	 -105.355 	 55.7771 	 115.133
| 34> H 	 -104.418 	 56.3217 	 116.429
| 35> C 	 -105.067 	 57.915 	 115.096
| 36> H 	 -104.013 	 57.8458 	 114.681
| 37> H 	 -105.12 	 58.7222 	 115.768
| 38> H 	 -105.772 	 58.1294 	 114.278
| 39> H 	 -105.309 	 58.7815 	 122.247
| 40> H 	 -107.917 	 52.2418 	 117.866
| 41> *
| 42>
| 43>                          ****END OF INPUT****

CARTESIAN COORDINATES (ANGSTROEM)
---------------------------------
  S    -106.195000   56.618500  121.372000
  C    -105.219000   58.048800  121.447000
  C    -104.604000   58.273600  120.273000
  C    -104.997000   57.324800  119.213000
  C    -105.898000   56.338400  119.646000
  H    -104.767000   57.370300  118.201000
  C    -103.669000   59.416900  119.926000
  H    -102.721000   58.917800  119.659000
  H    -103.428000   60.013900  120.792000
  C    -104.120000   60.369500  118.807000
  H    -103.397000   61.256300  118.791000
  H    -104.155000   59.910800  117.785000
  C    -105.503000   60.993100  118.983000
  H    -105.670000   61.528600  118.097000
  H    -106.324000   60.301700  119.075000
  H    -105.549000   61.604900  119.968000
  S    -106.827000   53.826300  119.618000
  C    -107.312000   53.099000  118.050000
  C    -107.205000   53.988900  117.038000
  C    -106.833000   55.301300  117.483000
  C    -106.574000   55.297200  118.847000
  H    -107.487000   53.630900  116.052000
  C    -106.609000   56.450800  116.558000
  H    -106.767000   57.338800  117.117000
  H    -107.322000   56.466100  115.727000
  C    -105.304000   56.578600  115.852000
  H    -105.355000   55.777100  115.133000
  H    -104.418000   56.321700  116.429000
  C    -105.067000   57.915000  115.096000
  H    -104.013000   57.845800  114.681000
  H    -105.120000   58.722200  115.768000
  H    -105.772000   58.129400  114.278000
  H    -105.309000   58.781500  122.247000
  H    -107.917000   52.241800  117.866000

 Total Charge           Charge          ....    0
 Multiplicity           Mult            ....    1
 Number of Electrons    NEL             ....  134
 Basis Dimension        Dim             ....  322

ORBITAL ENERGIES
----------------

  NO   OCC          E(Eh)            E(eV)
   0   2.0000     -88.968528     -2420.9567
   1   2.0000     -88.961690     -2420.7707
   2   2.0000     -10.336191      -281.2620
   3   2.0000     -10.328288      -281.0470
   4   2.0000     -10.313003      -280.6311
   5   2.0000     -10.312401      -280.6147
   6   2.0000     -10.304201      -280.3916
   7   2.0000     -10.303134      -280.3625
   8   2.0000     -10.297489      -280.2089
   9   2.0000     -10.294818      -280.1362
  10   2.0000     -10.294787      -280.1354
  11   2.0000     -10.293787      -280.1082
  12   2.0000     -10.287019      -279.9240
  13   2.0000     -10.285505      -279.8828
  14   2.0000     -10.285263      -279.8762
  15   2.0000     -10.277397      -279.6622
  16   2.0000      -8.083961      -219.9758
  17   2.0000      -8.076728      -219.7790
  18   2.0000      -6.042510      -164.4251
  19   2.0000      -6.038439      -164.3143
  20   2.0000      -6.035430      -164.2324
  21   2.0000      -6.034550      -164.2084
  22   2.0000      -6.031123      -164.1152
  23   2.0000      -6.027323      -164.0118
  24   2.0000      -1.012244       -27.5446
  25   2.0000      -0.986485       -26.8436
  26   2.0000      -0.920345       -25.0439
  27   2.0000      -0.910108       -24.7653
  28   2.0000      -0.876926       -23.8624
  29   2.0000      -0.854096       -23.2411
  30   2.0000      -0.842746       -22.9323
  31   2.0000      -0.822835       -22.3905
  32   2.0000      -0.784847       -21.3568
  33   2.0000      -0.777559       -21.1585
  34   2.0000      -0.710217       -19.3260
  35   2.0000      -0.699525       -19.0350
  36   2.0000      -0.690891       -18.8001
  37   2.0000      -0.666058       -18.1244
  38   2.0000      -0.641188       -17.4476
  39   2.0000      -0.624417       -16.9912
  40   2.0000      -0.600403       -16.3378
  41   2.0000      -0.574693       -15.6382
  42   2.0000      -0.566329       -15.4106
  43   2.0000      -0.557131       -15.1603
  44   2.0000      -0.540698       -14.7132
  45   2.0000      -0.528377       -14.3779
  46   2.0000      -0.519006       -14.1229
  47   2.0000      -0.517204       -14.0738
  48   2.0000      -0.508468       -13.8361
  49   2.0000      -0.499689       -13.5972
  50   2.0000      -0.495817       -13.4919
  51   2.0000      -0.486997       -13.2519
  52   2.0000      -0.472188       -12.8489
  53   2.0000      -0.470222       -12.7954
  54   2.0000      -0.455638       -12.3985
  55   2.0000      -0.448052       -12.1921
  56   2.0000      -0.443406       -12.0657
  57   2.0000      -0.440180       -11.9779
  58   2.0000      -0.436396       -11.8749
  59   2.0000      -0.429087       -11.6760
  60   2.0000      -0.418170       -11.3790
  61   2.0000      -0.414599       -11.2818
  62   2.0000      -0.410309       -11.1651
  63   2.0000      -0.361729        -9.8431
  64   2.0000      -0.333585        -9.0773
  65   2.0000      -0.325115        -8.8468
  66   2.0000      -0.292091        -7.9482
  67   0.0000       0.023932         0.6512
  68   0.0000       0.081655         2.2219
  69   0.0000       0.102188         2.7807
  70   0.0000       0.119018         3.2386
  71   0.0000       0.122406         3.3308

MULLIKEN ATOMIC CHARGES
-----------------------
   0 S :    0.085762
   1 C :   -0.126071
   2 C :   -0.080365
   3 C :    0.052812
   4 C :   -0.121336
   5 H :   -0.057829
   6 C :    0.097913
   7 H :    0.042378
   8 H :    0.010646
   9 C :   -0.127984
  10 H :    0.045060
  11 H :    0.038698
  12 C :   -0.053453
  13 H :    0.029348
  14 H :    0.036095
  15 H :    0.036081
  16 S :    0.109417
  17 C :   -0.078991
  18 C :   -0.043443
  19 C :   -0.047258
  20 C :   -0.105705
  21 H :    0.021008
  22 C :    0.076508
  23 H :    0.011597
  24 H :    0.016657
  25 C :   -0.090359
  26 H :    0.010756
  27 H :    0.037962
  28 C :   -0.036187
  29 H :    0.048538
  30 H :    0.016018
  31 H :    0.038024
  32 H :    0.058540
  33 H :    0.049163
Sum of atomic charges:    0.0000000

LOEWDIN ATOMIC CHARGES
----------------------
   0 S :    0.386105
   1 C :   -0.201118
   2 C :   -0.062220
   3 C :   -0.055387
   4 C :   -0.177140
   5 H :    0.014954
   6 C :   -0.035521
   7 H :    0.039958
   8 H :    0.026598
   9 C :   -0.048976
  10 H :    0.035072
  11 H :    0.023965
  12 C :   -0.068347
  13 H :    0.020629
  14 H :    0.021498
  15 H :    0.032315
  16 S :    0.420025
  17 C :   -0.177614
  18 C :   -0.060532
  19 C :   -0.058862
  20 C :   -0.207831
  21 H :    0.035005
  22 C :   -0.038636
  23 H :    0.021871
  24 H :    0.034068
  25 C :   -0.046484
  26 H :    0.021412
  27 H :    0.022081
  28 C :   -0.059913
  29 H :    0.039546
  30 H :    0.011507
  31 H :    0.028123
  32 H :    0.035652
  33 H :    0.028198

  Mayer bond orders larger than 0.100000
B(  0-S ,  1-C ) :   1.1231 B(  0-S ,  4-C ) :   1.1401 B(  1-C ,  2-C ) :   1.6501
B(  1-C , 32-H ) :   0.9626 B(  2-C ,  3-C ) :   1.1972 B(  2-C ,  6-C ) :   1.0271
B(  3-C ,  4-C ) :   1.5849 B(  3-C ,  5-H ) :   1.0052 B(  4-C , 20-C ) :   1.0298
B(  6-C ,  7-H ) :   0.9347 B(  6-C ,  8-H ) :   0.9414 B(  6-C ,  9-C ) :   1.0675
B(  9-C , 10-H ) :   0.9547 B(  9-C , 11-H ) :   0.9522 B(  9-C , 12-C ) :   1.0759
B( 12-C , 13-H ) :   0.9742 B( 12-C , 14-H ) :   0.9715 B( 12-C , 15-H ) :   0.9745
B( 16-S , 17-C ) :   1.1239 B( 16-S , 20-C ) :   1.1604 B( 17-C , 18-C ) :   1.6573
B( 17-C , 33-H ) :   0.9624 B( 18-C , 19-C ) :   1.2243 B( 18-C , 21-H ) :   0.9874
B( 19-C , 20-C ) :   1.5823 B( 19-C , 22-C ) :   1.0644 B( 22-C , 23-H ) :   0.9286
B( 22-C , 24-H ) :   0.9256 B( 22-C , 25-C ) :   1.0557 B( 25-C , 26-H ) :   0.9454
B( 25-C , 27-H ) :   0.9513 B( 25-C , 28-C ) :   1.0774 B( 28-C , 29-H ) :   0.9734
B( 28-C , 30-H ) :   0.9744 B( 28-C , 31-H ) :   0.9720

Dispersion correction           -0.015722955
FINAL SINGLE POINT ENERGY     -1339.872074762422

DIPOLE MOMENT
-------------
                                X             Y             Z
Electronic contribution:     -8.91819     -23.72926      19.93758
Nuclear contribution   :      9.01443      24.18373     -20.62192
                        -----------------------------------------
Total Dipole Moment    :      0.09624       0.45447      -0.68434
                        -----------------------------------------
Magnitude (a.u.)       :      0.82712
Magnitude (Debye)      :      2.10237

Rotational constants in cm-1:     0.018276     0.010741     0.007216
Rotational constants in MHz :   547.891820   322.003217   216.344404

                             ****ORCA TERMINATED NORMALLY****
TOTAL RUN TIME: 0 days 0 hours 0 minutes 37 seconds 345 msec
