                         Program Version 4.2.1 -  RELEASE  -
|  1> ! wB97X-D3 SP def2-SVP
|  2> %pal
|  3> nprocs 16
|  4> end
|  5>
|  6> * xyz 0 1
|  7> S 	 -55.1551 	 60.5732 	 134.692
|  8> C 	 -54.1765 	 60.0974 	 133.292
|  9> C 	 -52.8552 	 60.5198 	 133.428
| 10> C 	 -52.6529 	 61.2282 	 134.654
| 11> C 	 -53.7684 	 61.2258 	 135.524
| 12> H 	 -51.6803 	 61.5671 	 134.885
| 13> C 	 -51.7831 	 60.4863 	 132.341
| 14> H 	 -51.2481 	 61.3936 	 132.17
| 15> H 	 -52.2845 	 60.4635 	 131.39
| 16> C 	 -50.8616 	 59.24 	 132.495
| 17> H 	 -50.3635 	 59.1883 	 133.547
| 18> H 	 -51.5035 	 58.3199 	 132.398
| 19> C 	 -49.8098 	 59.0487 	 131.433
| 20> H 	 -49.3063 	 58.2442 	 131.721
| 21> H 	 -50.4075 	 58.9001 	 130.5
| 22> H 	 -49.1217 	 59.8739 	 131.343
| 23> S 	 -55.2084 	 62.7356 	 137.301
| 24> C 	 -54.3694 	 63.3031 	 138.703
| 25> C 	 -53.0958 	 62.8177 	 138.858
| 26> C 	 -52.7368 	 62.0069 	 137.759
| 27> C 	 -53.7716 	 61.8506 	 136.831
| 28> H 	 -52.5556 	 63.1341 	 139.734
| 29> C 	 -51.3992 	 61.2794 	 137.744
| 30> H 	 -50.8927 	 61.5984 	 138.614
| 31> H 	 -50.7035 	 61.7917 	 137.075
| 32> C 	 -51.3536 	 59.7278 	 137.77
| 33> H 	 -50.337 	 59.4449 	 138.047
| 34> H 	 -51.3964 	 59.4587 	 136.727
| 35> C 	 -52.4647 	 58.9435 	 138.614
| 36> H 	 -53.4195 	 58.9736 	 138.148
| 37> H 	 -52.4983 	 59.5671 	 139.571
| 38> H 	 -52.0682 	 57.9827 	 138.906
| 39> H 	 -54.4363 	 59.4624 	 132.433
| 40> H 	 -54.8142 	 64.018 	 139.394
| 41> *
| 42>
| 43>                          ****END OF INPUT****

CARTESIAN COORDINATES (ANGSTROEM)
---------------------------------
  S    -55.155100   60.573200  134.692000
  C    -54.176500   60.097400  133.292000
  C    -52.855200   60.519800  133.428000
  C    -52.652900   61.228200  134.654000
  C    -53.768400   61.225800  135.524000
  H    -51.680300   61.567100  134.885000
  C    -51.783100   60.486300  132.341000
  H    -51.248100   61.393600  132.170000
  H    -52.284500   60.463500  131.390000
  C    -50.861600   59.240000  132.495000
  H    -50.363500   59.188300  133.547000
  H    -51.503500   58.319900  132.398000
  C    -49.809800   59.048700  131.433000
  H    -49.306300   58.244200  131.721000
  H    -50.407500   58.900100  130.500000
  H    -49.121700   59.873900  131.343000
  S    -55.208400   62.735600  137.301000
  C    -54.369400   63.303100  138.703000
  C    -53.095800   62.817700  138.858000
  C    -52.736800   62.006900  137.759000
  C    -53.771600   61.850600  136.831000
  H    -52.555600   63.134100  139.734000
  C    -51.399200   61.279400  137.744000
  H    -50.892700   61.598400  138.614000
  H    -50.703500   61.791700  137.075000
  C    -51.353600   59.727800  137.770000
  H    -50.337000   59.444900  138.047000
  H    -51.396400   59.458700  136.727000
  C    -52.464700   58.943500  138.614000
  H    -53.419500   58.973600  138.148000
  H    -52.498300   59.567100  139.571000
  H    -52.068200   57.982700  138.906000
  H    -54.436300   59.462400  132.433000
  H    -54.814200   64.018000  139.394000

 Total Charge           Charge          ....    0
 Multiplicity           Mult            ....    1
 Number of Electrons    NEL             ....  134
 Basis Dimension        Dim             ....  322

ORBITAL ENERGIES
----------------

  NO   OCC          E(Eh)            E(eV)
   0   2.0000     -88.971890     -2421.0482
   1   2.0000     -88.967898     -2420.9396
   2   2.0000     -10.332579      -281.1638
   3   2.0000     -10.326611      -281.0014
   4   2.0000     -10.316338      -280.7218
   5   2.0000     -10.313602      -280.6474
   6   2.0000     -10.304178      -280.3909
   7   2.0000     -10.300192      -280.2825
   8   2.0000     -10.295506      -280.1550
   9   2.0000     -10.291437      -280.0442
  10   2.0000     -10.291294      -280.0404
  11   2.0000     -10.289295      -279.9860
  12   2.0000     -10.286812      -279.9184
  13   2.0000     -10.285263      -279.8762
  14   2.0000     -10.280139      -279.7368
  15   2.0000     -10.269007      -279.4339
  16   2.0000      -8.085739      -220.0241
  17   2.0000      -8.083128      -219.9531
  18   2.0000      -6.044450      -164.4778
  19   2.0000      -6.041411      -164.3952
  20   2.0000      -6.040337      -164.3659
  21   2.0000      -6.037688      -164.2939
  22   2.0000      -6.036395      -164.2587
  23   2.0000      -6.034002      -164.1935
  24   2.0000      -1.006902       -27.3992
  25   2.0000      -0.981933       -26.7198
  26   2.0000      -0.911081       -24.7918
  27   2.0000      -0.901092       -24.5200
  28   2.0000      -0.871376       -23.7114
  29   2.0000      -0.850014       -23.1300
  30   2.0000      -0.845162       -22.9980
  31   2.0000      -0.809909       -22.0387
  32   2.0000      -0.787661       -21.4333
  33   2.0000      -0.775558       -21.1040
  34   2.0000      -0.710767       -19.3410
  35   2.0000      -0.691490       -18.8164
  36   2.0000      -0.689671       -18.7669
  37   2.0000      -0.664615       -18.0851
  38   2.0000      -0.631247       -17.1771
  39   2.0000      -0.623128       -16.9562
  40   2.0000      -0.589363       -16.0374
  41   2.0000      -0.570537       -15.5251
  42   2.0000      -0.560298       -15.2465
  43   2.0000      -0.548597       -14.9281
  44   2.0000      -0.543268       -14.7831
  45   2.0000      -0.538553       -14.6548
  46   2.0000      -0.518001       -14.0955
  47   2.0000      -0.502925       -13.6853
  48   2.0000      -0.499101       -13.5812
  49   2.0000      -0.496035       -13.4978
  50   2.0000      -0.490315       -13.3421
  51   2.0000      -0.480662       -13.0795
  52   2.0000      -0.469838       -12.7849
  53   2.0000      -0.459239       -12.4965
  54   2.0000      -0.453994       -12.3538
  55   2.0000      -0.451175       -12.2771
  56   2.0000      -0.444471       -12.0947
  57   2.0000      -0.439526       -11.9601
  58   2.0000      -0.436709       -11.8835
  59   2.0000      -0.425548       -11.5797
  60   2.0000      -0.422155       -11.4874
  61   2.0000      -0.411065       -11.1856
  62   2.0000      -0.396938       -10.8012
  63   2.0000      -0.354808        -9.6548
  64   2.0000      -0.336920        -9.1681
  65   2.0000      -0.330860        -9.0032
  66   2.0000      -0.279163        -7.5964
  67   0.0000       0.021331         0.5804
  68   0.0000       0.076422         2.0795
  69   0.0000       0.101600         2.7647
  70   0.0000       0.124085         3.3765
  71   0.0000       0.128827         3.5056

MULLIKEN ATOMIC CHARGES
-----------------------
   0 S :    0.112775
   1 C :   -0.116749
   2 C :   -0.100477
   3 C :    0.046345
   4 C :   -0.127758
   5 H :   -0.014926
   6 C :    0.085512
   7 H :    0.020334
   8 H :    0.002156
   9 C :   -0.159942
  10 H :    0.042454
  11 H :    0.033265
  12 C :    0.035719
  13 H :    0.007675
  14 H :    0.031576
  15 H :    0.025552
  16 S :    0.110036
  17 C :   -0.096416
  18 C :   -0.029390
  19 C :   -0.060748
  20 C :   -0.133913
  21 H :    0.018631
  22 C :    0.082040
  23 H :   -0.018197
  24 H :    0.025213
  25 C :   -0.059585
  26 H :    0.020597
  27 H :    0.023399
  28 C :   -0.032500
  29 H :    0.052875
  30 H :    0.028460
  31 H :    0.039936
  32 H :    0.052258
  33 H :    0.053791
Sum of atomic charges:   -0.0000000

LOEWDIN ATOMIC CHARGES
----------------------
   0 S :    0.402208
   1 C :   -0.203100
   2 C :   -0.057422
   3 C :   -0.055731
   4 C :   -0.195116
   5 H :    0.020291
   6 C :   -0.034294
   7 H :    0.028279
   8 H :    0.027456
   9 C :   -0.045484
  10 H :    0.027865
  11 H :    0.028405
  12 C :   -0.054132
  13 H :    0.009281
  14 H :    0.032350
  15 H :    0.021504
  16 S :    0.412953
  17 C :   -0.186297
  18 C :   -0.071855
  19 C :   -0.053651
  20 C :   -0.197026
  21 H :    0.035676
  22 C :   -0.041778
  23 H :    0.021752
  24 H :    0.034110
  25 C :   -0.038102
  26 H :    0.023391
  27 H :    0.016814
  28 C :   -0.057066
  29 H :    0.026108
  30 H :    0.032969
  31 H :    0.026694
  32 H :    0.035420
  33 H :    0.027527

  Mayer bond orders larger than 0.100000
B(  0-S ,  1-C ) :   1.1260 B(  0-S ,  4-C ) :   1.1512 B(  1-C ,  2-C ) :   1.6126
B(  1-C , 32-H ) :   0.9586 B(  2-C ,  3-C ) :   1.2800 B(  2-C ,  6-C ) :   1.0195
B(  3-C ,  4-C ) :   1.5175 B(  3-C ,  5-H ) :   0.9928 B(  4-C , 20-C ) :   1.0872
B(  6-C ,  7-H ) :   0.9489 B(  6-C ,  8-H ) :   0.9365 B(  6-C ,  9-C ) :   1.0451
B(  9-C , 10-H ) :   0.9586 B(  9-C , 11-H ) :   0.9587 B(  9-C , 12-C ) :   1.0799
B( 12-C , 13-H ) :   0.9694 B( 12-C , 14-H ) :   0.9730 B( 12-C , 15-H ) :   0.9725
B( 16-S , 17-C ) :   1.1653 B( 16-S , 20-C ) :   1.1380 B( 17-C , 18-C ) :   1.6079
B( 17-C , 33-H ) :   0.9629 B( 18-C , 19-C ) :   1.2487 B( 18-C , 21-H ) :   0.9950
B( 19-C , 20-C ) :   1.5686 B( 19-C , 22-C ) :   1.0432 B( 22-C , 23-H ) :   0.9181
B( 22-C , 24-H ) :   0.9209 B( 22-C , 25-C ) :   1.0548 B( 25-C , 26-H ) :   0.9574
B( 25-C , 27-H ) :   0.9543 B( 25-C , 28-C ) :   1.0678 B( 28-C , 29-H ) :   0.9730
B( 28-C , 30-H ) :   0.9796 B( 28-C , 31-H ) :   0.9758

Dispersion correction           -0.015128707
FINAL SINGLE POINT ENERGY     -1339.857894669352

DIPOLE MOMENT
-------------
                                X             Y             Z
Electronic contribution:    -24.97047      13.75746       6.20048
Nuclear contribution   :     25.68562     -13.78579      -6.22908
                        -----------------------------------------
Total Dipole Moment    :      0.71516      -0.02833      -0.02860
                        -----------------------------------------
Magnitude (a.u.)       :      0.71629
Magnitude (Debye)      :      1.82066

Rotational constants in cm-1:     0.020761     0.008574     0.007017
Rotational constants in MHz :   622.388462   257.033111   210.378054

                             ****ORCA TERMINATED NORMALLY****
TOTAL RUN TIME: 0 days 0 hours 0 minutes 34 seconds 59 msec
