                         Program Version 4.2.1 -  RELEASE  -
|  1> ! wB97X-D3 SP def2-SVP
|  2> %pal
|  3> nprocs 16
|  4> end
|  5>
|  6> * xyz 0 1
|  7> S 	 -0.976385 	 -11.93 	 89.1291
|  8> C 	 0.421398 	 -11.9128 	 90.221
|  9> C 	 0.793532 	 -10.6348 	 90.669
| 10> C 	 -0.121521 	 -9.69723 	 90.0996
| 11> C 	 -1.22691 	 -10.193 	 89.3778
| 12> H 	 -0.132467 	 -8.67454 	 90.3171
| 13> C 	 1.96321 	 -10.1539 	 91.465
| 14> H 	 2.42967 	 -9.48085 	 90.8024
| 15> H 	 2.57729 	 -10.9353 	 91.6816
| 16> C 	 1.5504 	 -9.39967 	 92.7186
| 17> H 	 2.44393 	 -8.90073 	 93.1065
| 18> H 	 0.915633 	 -8.58247 	 92.3187
| 19> C 	 0.802794 	 -10.252 	 93.7622
| 20> H 	 1.34219 	 -11.2447 	 93.8323
| 21> H 	 0.848795 	 -9.79088 	 94.7449
| 22> H 	 -0.26262 	 -10.3862 	 93.427
| 23> S 	 -3.91988 	 -10.1553 	 89.6847
| 24> C 	 -4.92942 	 -8.8252 	 89.1363
| 25> C 	 -4.0657 	 -7.82443 	 88.6488
| 26> C 	 -2.62799 	 -8.1669 	 88.6392
| 27> C 	 -2.43762 	 -9.47049 	 89.037
| 28> H 	 -4.42548 	 -6.89702 	 88.1825
| 29> C 	 -1.50415 	 -7.11555 	 88.4028
| 30> H 	 -1.87541 	 -6.52075 	 87.5021
| 31> H 	 -0.588312 	 -7.67027 	 88.0942
| 32> C 	 -1.25871 	 -6.02703 	 89.4562
| 33> H 	 -0.943664 	 -6.53812 	 90.3735
| 34> H 	 -2.16672 	 -5.44521 	 89.7789
| 35> C 	 -0.072054 	 -5.06026 	 89.1702
| 36> H 	 0.209694 	 -4.61518 	 90.0774
| 37> H 	 -0.288003 	 -4.3387 	 88.4681
| 38> H 	 0.780756 	 -5.64314 	 88.7335
| 39> H 	 1.00531 	 -12.7939 	 90.5406
| 40> H 	 -6.03595 	 -8.80292 	 89.1238
| 41> *
| 42>
| 43>                          ****END OF INPUT****

CARTESIAN COORDINATES (ANGSTROEM)
---------------------------------
  S     -0.976385  -11.930000   89.129100
  C      0.421398  -11.912800   90.221000
  C      0.793532  -10.634800   90.669000
  C     -0.121521   -9.697230   90.099600
  C     -1.226910  -10.193000   89.377800
  H     -0.132467   -8.674540   90.317100
  C      1.963210  -10.153900   91.465000
  H      2.429670   -9.480850   90.802400
  H      2.577290  -10.935300   91.681600
  C      1.550400   -9.399670   92.718600
  H      2.443930   -8.900730   93.106500
  H      0.915633   -8.582470   92.318700
  C      0.802794  -10.252000   93.762200
  H      1.342190  -11.244700   93.832300
  H      0.848795   -9.790880   94.744900
  H     -0.262620  -10.386200   93.427000
  S     -3.919880  -10.155300   89.684700
  C     -4.929420   -8.825200   89.136300
  C     -4.065700   -7.824430   88.648800
  C     -2.627990   -8.166900   88.639200
  C     -2.437620   -9.470490   89.037000
  H     -4.425480   -6.897020   88.182500
  C     -1.504150   -7.115550   88.402800
  H     -1.875410   -6.520750   87.502100
  H     -0.588312   -7.670270   88.094200
  C     -1.258710   -6.027030   89.456200
  H     -0.943664   -6.538120   90.373500
  H     -2.166720   -5.445210   89.778900
  C     -0.072054   -5.060260   89.170200
  H      0.209694   -4.615180   90.077400
  H     -0.288003   -4.338700   88.468100
  H      0.780756   -5.643140   88.733500
  H      1.005310  -12.793900   90.540600
  H     -6.035950   -8.802920   89.123800

 Total Charge           Charge          ....    0
 Multiplicity           Mult            ....    1
 Number of Electrons    NEL             ....  134
 Basis Dimension        Dim             ....  322

ORBITAL ENERGIES
----------------

  NO   OCC          E(Eh)            E(eV)
   0   2.0000     -88.970071     -2420.9987
   1   2.0000     -88.962714     -2420.7985
   2   2.0000     -10.332623      -281.1650
   3   2.0000     -10.328185      -281.0442
   4   2.0000     -10.326130      -280.9883
   5   2.0000     -10.320994      -280.8485
   6   2.0000     -10.309673      -280.5405
   7   2.0000     -10.305583      -280.4292
   8   2.0000     -10.303193      -280.3641
   9   2.0000     -10.303187      -280.3640
  10   2.0000     -10.295802      -280.1630
  11   2.0000     -10.291599      -280.0487
  12   2.0000     -10.289263      -279.9851
  13   2.0000     -10.285716      -279.8886
  14   2.0000     -10.283448      -279.8269
  15   2.0000     -10.276408      -279.6353
  16   2.0000      -8.083638      -219.9670
  17   2.0000      -8.077393      -219.7970
  18   2.0000      -6.042226      -164.4173
  19   2.0000      -6.038300      -164.3105
  20   2.0000      -6.036135      -164.2516
  21   2.0000      -6.034385      -164.2040
  22   2.0000      -6.031839      -164.1347
  23   2.0000      -6.027924      -164.0281
  24   2.0000      -1.001710       -27.2579
  25   2.0000      -0.977635       -26.6028
  26   2.0000      -0.920347       -25.0439
  27   2.0000      -0.904142       -24.6029
  28   2.0000      -0.866324       -23.5739
  29   2.0000      -0.849666       -23.1206
  30   2.0000      -0.841205       -22.8904
  31   2.0000      -0.808612       -22.0035
  32   2.0000      -0.785767       -21.3818
  33   2.0000      -0.777333       -21.1523
  34   2.0000      -0.708029       -19.2664
  35   2.0000      -0.698025       -18.9942
  36   2.0000      -0.692036       -18.8313
  37   2.0000      -0.661474       -17.9996
  38   2.0000      -0.638107       -17.3638
  39   2.0000      -0.624385       -16.9904
  40   2.0000      -0.590998       -16.0819
  41   2.0000      -0.566687       -15.4203
  42   2.0000      -0.563611       -15.3366
  43   2.0000      -0.557373       -15.1669
  44   2.0000      -0.539925       -14.6921
  45   2.0000      -0.527792       -14.3620
  46   2.0000      -0.517783       -14.0896
  47   2.0000      -0.514965       -14.0129
  48   2.0000      -0.509181       -13.8555
  49   2.0000      -0.493160       -13.4196
  50   2.0000      -0.489117       -13.3095
  51   2.0000      -0.477063       -12.9815
  52   2.0000      -0.470057       -12.7909
  53   2.0000      -0.462843       -12.5946
  54   2.0000      -0.460756       -12.5378
  55   2.0000      -0.452466       -12.3122
  56   2.0000      -0.440480       -11.9861
  57   2.0000      -0.438708       -11.9378
  58   2.0000      -0.436101       -11.8669
  59   2.0000      -0.426932       -11.6174
  60   2.0000      -0.420457       -11.4412
  61   2.0000      -0.419707       -11.4208
  62   2.0000      -0.411697       -11.2028
  63   2.0000      -0.347067        -9.4442
  64   2.0000      -0.330230        -8.9860
  65   2.0000      -0.323179        -8.7941
  66   2.0000      -0.291253        -7.9254
  67   0.0000       0.023396         0.6366
  68   0.0000       0.071899         1.9565
  69   0.0000       0.108128         2.9423
  70   0.0000       0.109537         2.9807
  71   0.0000       0.125839         3.4243

MULLIKEN ATOMIC CHARGES
-----------------------
   0 S :    0.120186
   1 C :   -0.134198
   2 C :   -0.104617
   3 C :    0.044803
   4 C :   -0.169421
   5 H :   -0.036732
   6 C :    0.154961
   7 H :    0.027027
   8 H :   -0.010719
   9 C :   -0.100566
  10 H :    0.029255
  11 H :    0.025031
  12 C :   -0.061618
  13 H :    0.034735
  14 H :    0.042246
  15 H :    0.063863
  16 S :    0.094724
  17 C :   -0.103177
  18 C :   -0.045263
  19 C :   -0.048398
  20 C :   -0.119958
  21 H :    0.027233
  22 C :    0.018656
  23 H :    0.032078
  24 H :    0.045249
  25 C :   -0.087830
  26 H :    0.023141
  27 H :    0.040320
  28 C :   -0.011194
  29 H :    0.029176
  30 H :    0.020595
  31 H :    0.028931
  32 H :    0.052393
  33 H :    0.079087
Sum of atomic charges:   -0.0000000

LOEWDIN ATOMIC CHARGES
----------------------
   0 S :    0.393171
   1 C :   -0.195386
   2 C :   -0.058134
   3 C :   -0.052343
   4 C :   -0.194646
   5 H :    0.012648
   6 C :   -0.017923
   7 H :    0.035479
   8 H :    0.013537
   9 C :   -0.042195
  10 H :    0.023193
  11 H :    0.023272
  12 C :   -0.069509
  13 H :    0.030178
  14 H :    0.026852
  15 H :    0.039093
  16 S :    0.400482
  17 C :   -0.192611
  18 C :   -0.072339
  19 C :   -0.059392
  20 C :   -0.195983
  21 H :    0.029991
  22 C :   -0.042200
  23 H :    0.036699
  24 H :    0.035647
  25 C :   -0.046581
  26 H :    0.018159
  27 H :    0.031973
  28 C :   -0.051816
  29 H :    0.022705
  30 H :    0.012612
  31 H :    0.032142
  32 H :    0.031982
  33 H :    0.041245

  Mayer bond orders larger than 0.100000
B(  0-S ,  1-C ) :   1.1421 B(  0-S ,  4-C ) :   1.1359 B(  1-C ,  2-C ) :   1.6003
B(  1-C , 32-H ) :   0.9572 B(  2-C ,  3-C ) :   1.2505 B(  2-C ,  6-C ) :   1.0182
B(  3-C ,  4-C ) :   1.5665 B(  3-C ,  5-H ) :   0.9877 B(  4-C , 20-C ) :   1.0482
B(  6-C ,  7-H ) :   0.9317 B(  6-C ,  8-H ) :   0.9312 B(  6-C ,  9-C ) :   1.0812
B(  9-C , 10-H ) :   0.9552 B(  9-C , 11-H ) :   0.9566 B(  9-C , 12-C ) :   1.0622
B( 12-C , 13-H ) :   0.9771 B( 12-C , 14-H ) :   0.9754 B( 12-C , 15-H ) :   0.9711
B( 16-S , 17-C ) :   1.1412 B( 16-S , 20-C ) :   1.1393 B( 17-C , 18-C ) :   1.6043
B( 17-C , 33-H ) :   0.9680 B( 18-C , 19-C ) :   1.2244 B( 18-C , 21-H ) :   0.9829
B( 19-C , 20-C ) :   1.6119 B( 19-C , 22-C ) :   1.0482 B( 22-C , 23-H ) :   0.9318
B( 22-C , 24-H ) :   0.9333 B( 22-C , 25-C ) :   1.0628 B( 25-C , 26-H ) :   0.9548
B( 25-C , 27-H ) :   0.9492 B( 25-C , 28-C ) :   1.0768 B( 28-C , 29-H ) :   0.9753
B( 28-C , 30-H ) :   0.9783 B( 28-C , 31-H ) :   0.9730

Dispersion correction           -0.014737050
FINAL SINGLE POINT ENERGY     -1339.866024729992

DIPOLE MOMENT
-------------
                                X             Y             Z
Electronic contribution:    -16.90095     -20.06882     -11.29736
Nuclear contribution   :     17.32716      20.72731      11.60762
                        -----------------------------------------
Total Dipole Moment    :      0.42622       0.65849       0.31026
                        -----------------------------------------
Magnitude (a.u.)       :      0.84352
Magnitude (Debye)      :      2.14406

Rotational constants in cm-1:     0.015549     0.010311     0.007515
Rotational constants in MHz :   466.150277   309.102340   225.299197

                             ****ORCA TERMINATED NORMALLY****
TOTAL RUN TIME: 0 days 0 hours 0 minutes 35 seconds 186 msec
