                         Program Version 4.2.1 -  RELEASE  -
|  1> ! wB97X-D3 SP def2-SVP
|  2> %pal
|  3> nprocs 16
|  4> end
|  5>
|  6> * xyz 0 1
|  7> S 	 69.1949 	 23.954 	 73.5574
|  8> C 	 70.2973 	 22.83 	 72.7567
|  9> C 	 71.5714 	 23.3197 	 72.7194
| 10> C 	 71.7088 	 24.4798 	 73.5735
| 11> C 	 70.5195 	 24.9642 	 74.0819
| 12> H 	 72.6754 	 25.0238 	 73.8312
| 13> C 	 72.7424 	 22.7565 	 71.9822
| 14> H 	 72.8146 	 21.7015 	 71.7187
| 15> H 	 73.4824 	 22.9007 	 72.7395
| 16> C 	 73.0792 	 23.585 	 70.7339
| 17> H 	 72.8466 	 24.6447 	 71.0216
| 18> H 	 74.1851 	 23.582 	 70.5092
| 19> C 	 72.2297 	 23.1971 	 69.5512
| 20> H 	 71.1873 	 23.4017 	 69.7264
| 21> H 	 72.4759 	 23.7234 	 68.6474
| 22> H 	 72.3911 	 22.1641 	 69.2669
| 23> S 	 69.192 	 27.3316 	 73.6833
| 24> C 	 69.3712 	 28.6046 	 74.8269
| 25> C 	 70.294 	 28.2425 	 75.8174
| 26> C 	 70.8016 	 26.8886 	 75.7349
| 27> C 	 70.2689 	 26.2584 	 74.6419
| 28> H 	 70.6061 	 28.9973 	 76.5404
| 29> C 	 71.8218 	 26.3522 	 76.8221
| 30> H 	 71.9523 	 25.229 	 76.6185
| 31> H 	 71.3099 	 26.3953 	 77.8168
| 32> C 	 73.2228 	 27.0611 	 77.0154
| 33> H 	 73.5364 	 27.1158 	 78.1421
| 34> H 	 73.219 	 28.1149 	 76.6944
| 35> C 	 74.3742 	 26.5188 	 76.0925
| 36> H 	 74.1468 	 26.3024 	 75.0263
| 37> H 	 74.9108 	 25.6677 	 76.3759
| 38> H 	 75.2723 	 27.2285 	 76.0821
| 39> H 	 69.9276 	 21.9321 	 72.3635
| 40> H 	 68.9194 	 29.538 	 74.8854
| 41> *
| 42>
| 43>                          ****END OF INPUT****

CARTESIAN COORDINATES (ANGSTROEM)
---------------------------------
  S     69.194900   23.954000   73.557400
  C     70.297300   22.830000   72.756700
  C     71.571400   23.319700   72.719400
  C     71.708800   24.479800   73.573500
  C     70.519500   24.964200   74.081900
  H     72.675400   25.023800   73.831200
  C     72.742400   22.756500   71.982200
  H     72.814600   21.701500   71.718700
  H     73.482400   22.900700   72.739500
  C     73.079200   23.585000   70.733900
  H     72.846600   24.644700   71.021600
  H     74.185100   23.582000   70.509200
  C     72.229700   23.197100   69.551200
  H     71.187300   23.401700   69.726400
  H     72.475900   23.723400   68.647400
  H     72.391100   22.164100   69.266900
  S     69.192000   27.331600   73.683300
  C     69.371200   28.604600   74.826900
  C     70.294000   28.242500   75.817400
  C     70.801600   26.888600   75.734900
  C     70.268900   26.258400   74.641900
  H     70.606100   28.997300   76.540400
  C     71.821800   26.352200   76.822100
  H     71.952300   25.229000   76.618500
  H     71.309900   26.395300   77.816800
  C     73.222800   27.061100   77.015400
  H     73.536400   27.115800   78.142100
  H     73.219000   28.114900   76.694400
  C     74.374200   26.518800   76.092500
  H     74.146800   26.302400   75.026300
  H     74.910800   25.667700   76.375900
  H     75.272300   27.228500   76.082100
  H     69.927600   21.932100   72.363500
  H     68.919400   29.538000   74.885400

 Total Charge           Charge          ....    0
 Multiplicity           Mult            ....    1
 Number of Electrons    NEL             ....  134
 Basis Dimension        Dim             ....  322

ORBITAL ENERGIES
----------------

  NO   OCC          E(Eh)            E(eV)
   0   2.0000     -88.966714     -2420.9074
   1   2.0000     -88.962334     -2420.7882
   2   2.0000     -10.328092      -281.0417
   3   2.0000     -10.326653      -281.0025
   4   2.0000     -10.312482      -280.6169
   5   2.0000     -10.312408      -280.6149
   6   2.0000     -10.311899      -280.6011
   7   2.0000     -10.309550      -280.5371
   8   2.0000     -10.309388      -280.5327
   9   2.0000     -10.304557      -280.4012
  10   2.0000     -10.302348      -280.3411
  11   2.0000     -10.294043      -280.1152
  12   2.0000     -10.290604      -280.0216
  13   2.0000     -10.288309      -279.9591
  14   2.0000     -10.285140      -279.8729
  15   2.0000     -10.270314      -279.4695
  16   2.0000      -8.081108      -219.8981
  17   2.0000      -8.077306      -219.7947
  18   2.0000      -6.039791      -164.3511
  19   2.0000      -6.035794      -164.2423
  20   2.0000      -6.035626      -164.2377
  21   2.0000      -6.031802      -164.1337
  22   2.0000      -6.031715      -164.1313
  23   2.0000      -6.028041      -164.0313
  24   2.0000      -1.006901       -27.3992
  25   2.0000      -0.981857       -26.7177
  26   2.0000      -0.917083       -24.9551
  27   2.0000      -0.893133       -24.3034
  28   2.0000      -0.871124       -23.7045
  29   2.0000      -0.849017       -23.1029
  30   2.0000      -0.842096       -22.9146
  31   2.0000      -0.810609       -22.0578
  32   2.0000      -0.784637       -21.3511
  33   2.0000      -0.778465       -21.1831
  34   2.0000      -0.709736       -19.3129
  35   2.0000      -0.697996       -18.9934
  36   2.0000      -0.695091       -18.9144
  37   2.0000      -0.657616       -17.8946
  38   2.0000      -0.646921       -17.6036
  39   2.0000      -0.620064       -16.8728
  40   2.0000      -0.591436       -16.0938
  41   2.0000      -0.570438       -15.5224
  42   2.0000      -0.555163       -15.1067
  43   2.0000      -0.545079       -14.8324
  44   2.0000      -0.535953       -14.5840
  45   2.0000      -0.524311       -14.2672
  46   2.0000      -0.515778       -14.0350
  47   2.0000      -0.511209       -13.9107
  48   2.0000      -0.506247       -13.7757
  49   2.0000      -0.497138       -13.5278
  50   2.0000      -0.489977       -13.3330
  51   2.0000      -0.482003       -13.1160
  52   2.0000      -0.470275       -12.7968
  53   2.0000      -0.461882       -12.5684
  54   2.0000      -0.456888       -12.4326
  55   2.0000      -0.445434       -12.1209
  56   2.0000      -0.442878       -12.0513
  57   2.0000      -0.436503       -11.8778
  58   2.0000      -0.430035       -11.7019
  59   2.0000      -0.426634       -11.6093
  60   2.0000      -0.421412       -11.4672
  61   2.0000      -0.413152       -11.2424
  62   2.0000      -0.411664       -11.2019
  63   2.0000      -0.346176        -9.4199
  64   2.0000      -0.332765        -9.0550
  65   2.0000      -0.325412        -8.8549
  66   2.0000      -0.294677        -8.0186
  67   0.0000       0.032974         0.8973
  68   0.0000       0.064870         1.7652
  69   0.0000       0.111961         3.0466
  70   0.0000       0.118660         3.2289
  71   0.0000       0.123156         3.3512

MULLIKEN ATOMIC CHARGES
-----------------------
   0 S :    0.091990
   1 C :   -0.107070
   2 C :   -0.078546
   3 C :    0.021872
   4 C :   -0.169399
   5 H :    0.024991
   6 C :    0.087046
   7 H :    0.025740
   8 H :    0.015862
   9 C :   -0.106159
  10 H :    0.033733
  11 H :    0.038818
  12 C :   -0.017350
  13 H :    0.034492
  14 H :    0.024447
  15 H :    0.019006
  16 S :    0.118792
  17 C :   -0.059394
  18 C :   -0.062804
  19 C :   -0.003221
  20 C :   -0.165772
  21 H :    0.020763
  22 C :    0.027904
  23 H :    0.049288
  24 H :    0.049654
  25 C :   -0.077862
  26 H :    0.054191
  27 H :    0.043089
  28 C :   -0.088454
  29 H :    0.044341
  30 H :    0.017346
  31 H :    0.029658
  32 H :    0.030449
  33 H :    0.032561
Sum of atomic charges:    0.0000000

LOEWDIN ATOMIC CHARGES
----------------------
   0 S :    0.394014
   1 C :   -0.175308
   2 C :   -0.060995
   3 C :   -0.062996
   4 C :   -0.201570
   5 H :    0.039851
   6 C :   -0.033994
   7 H :    0.029659
   8 H :    0.030727
   9 C :   -0.043807
  10 H :    0.028494
  11 H :    0.028069
  12 C :   -0.064927
  13 H :    0.026873
  14 H :    0.025397
  15 H :    0.021962
  16 S :    0.401366
  17 C :   -0.189894
  18 C :   -0.071065
  19 C :   -0.058537
  20 C :   -0.185157
  21 H :    0.028708
  22 C :   -0.038684
  23 H :    0.039726
  24 H :    0.040167
  25 C :   -0.048940
  26 H :    0.041074
  27 H :    0.029591
  28 C :   -0.082153
  29 H :    0.027527
  30 H :    0.013184
  31 H :    0.034537
  32 H :    0.016730
  33 H :    0.020374

  Mayer bond orders larger than 0.100000
B(  0-S ,  1-C ) :   1.1281 B(  0-S ,  4-C ) :   1.1457 B(  1-C ,  2-C ) :   1.6083
B(  1-C , 32-H ) :   0.9852 B(  2-C ,  3-C ) :   1.2292 B(  2-C ,  6-C ) :   1.0140
B(  3-C ,  4-C ) :   1.5885 B(  3-C ,  5-H ) :   0.9735 B(  4-C , 20-C ) :   1.0404
B(  6-C ,  7-H ) :   0.9528 B(  6-C ,  8-H ) :   0.9291 B(  6-C ,  9-C ) :   1.0615
B(  9-C , 10-H ) :   0.9551 B(  9-C , 11-H ) :   0.9560 B(  9-C , 12-C ) :   1.0794
B( 12-C , 13-H ) :   0.9727 B( 12-C , 14-H ) :   0.9700 B( 12-C , 15-H ) :   0.9734
B( 16-S , 17-C ) :   1.1396 B( 16-S , 20-C ) :   1.1297 B( 17-C , 18-C ) :   1.6362
B( 17-C , 33-H ) :   0.9739 B( 18-C , 19-C ) :   1.2132 B( 18-C , 21-H ) :   0.9833
B( 19-C , 20-C ) :   1.6357 B( 19-C , 22-C ) :   1.0309 B( 22-C , 23-H ) :   0.9439
B( 22-C , 24-H ) :   0.9437 B( 22-C , 25-C ) :   1.0371 B( 25-C , 26-H ) :   0.9588
B( 25-C , 27-H ) :   0.9658 B( 25-C , 28-C ) :   1.0516 B( 28-C , 29-H ) :   0.9746
B( 28-C , 30-H ) :   0.9770 B( 28-C , 31-H ) :   0.9730

Dispersion correction           -0.014560501
FINAL SINGLE POINT ENERGY     -1339.862952455437

DIPOLE MOMENT
-------------
                                X             Y             Z
Electronic contribution:    -24.77149       3.72965       2.17585
Nuclear contribution   :     25.43676      -3.70204      -2.10073
                        -----------------------------------------
Total Dipole Moment    :      0.66527       0.02761       0.07511
                        -----------------------------------------
Magnitude (a.u.)       :      0.67006
Magnitude (Debye)      :      1.70317

Rotational constants in cm-1:     0.018035     0.008981     0.007204
Rotational constants in MHz :   540.665378   269.251883   215.976000

                             ****ORCA TERMINATED NORMALLY****
TOTAL RUN TIME: 0 days 0 hours 0 minutes 30 seconds 184 msec
