                         Program Version 4.2.1 -  RELEASE  -
|  1> ! wB97X-D3 SP def2-SVP
|  2> %pal
|  3> nprocs 16
|  4> end
|  5>
|  6> * xyz 0 1
|  7> S 	 -72.8205 	 49.8998 	 139.687
|  8> C 	 -73.3442 	 51.2173 	 140.767
|  9> C 	 -73.6618 	 52.387 	 140.117
| 10> C 	 -73.567 	 52.2203 	 138.696
| 11> C 	 -73.2508 	 50.9383 	 138.295
| 12> H 	 -73.5477 	 52.925 	 138.004
| 13> C 	 -74.0938 	 53.6849 	 140.718
| 14> H 	 -74.6854 	 54.2489 	 140.014
| 15> H 	 -73.2084 	 54.2575 	 140.896
| 16> C 	 -75.021 	 53.5096 	 141.956
| 17> H 	 -75.7963 	 52.8147 	 141.583
| 18> H 	 -74.4469 	 53.0631 	 142.686
| 19> C 	 -75.5779 	 54.7647 	 142.406
| 20> H 	 -76.0409 	 55.3114 	 141.536
| 21> H 	 -76.3678 	 54.6065 	 143.142
| 22> H 	 -74.7795 	 55.3845 	 142.828
| 23> S 	 -71.7207 	 49.2314 	 136.72
| 24> C 	 -71.8122 	 49.4985 	 134.96
| 25> C 	 -72.851 	 50.2661 	 134.608
| 26> C 	 -73.549 	 50.7662 	 135.726
| 27> C 	 -72.9606 	 50.4931 	 136.968
| 28> H 	 -73.271 	 50.2688 	 133.602
| 29> C 	 -74.9037 	 51.4672 	 135.56
| 30> H 	 -74.9079 	 51.7159 	 134.478
| 31> H 	 -74.9089 	 52.2892 	 136.298
| 32> C 	 -76.1678 	 50.6039 	 135.765
| 33> H 	 -76.1834 	 50.2612 	 136.819
| 34> H 	 -75.9481 	 49.7013 	 135.184
| 35> C 	 -77.4235 	 51.1398 	 135.113
| 36> H 	 -77.2735 	 51.3536 	 134.038
| 37> H 	 -77.6754 	 52.0515 	 135.67
| 38> H 	 -78.2564 	 50.3898 	 135.334
| 39> H 	 -73.4839 	 51.061 	 141.851
| 40> H 	 -71.2687 	 48.8844 	 134.264
| 41> *
| 42>
| 43>                          ****END OF INPUT****

CARTESIAN COORDINATES (ANGSTROEM)
---------------------------------
  S    -72.820500   49.899800  139.687000
  C    -73.344200   51.217300  140.767000
  C    -73.661800   52.387000  140.117000
  C    -73.567000   52.220300  138.696000
  C    -73.250800   50.938300  138.295000
  H    -73.547700   52.925000  138.004000
  C    -74.093800   53.684900  140.718000
  H    -74.685400   54.248900  140.014000
  H    -73.208400   54.257500  140.896000
  C    -75.021000   53.509600  141.956000
  H    -75.796300   52.814700  141.583000
  H    -74.446900   53.063100  142.686000
  C    -75.577900   54.764700  142.406000
  H    -76.040900   55.311400  141.536000
  H    -76.367800   54.606500  143.142000
  H    -74.779500   55.384500  142.828000
  S    -71.720700   49.231400  136.720000
  C    -71.812200   49.498500  134.960000
  C    -72.851000   50.266100  134.608000
  C    -73.549000   50.766200  135.726000
  C    -72.960600   50.493100  136.968000
  H    -73.271000   50.268800  133.602000
  C    -74.903700   51.467200  135.560000
  H    -74.907900   51.715900  134.478000
  H    -74.908900   52.289200  136.298000
  C    -76.167800   50.603900  135.765000
  H    -76.183400   50.261200  136.819000
  H    -75.948100   49.701300  135.184000
  C    -77.423500   51.139800  135.113000
  H    -77.273500   51.353600  134.038000
  H    -77.675400   52.051500  135.670000
  H    -78.256400   50.389800  135.334000
  H    -73.483900   51.061000  141.851000
  H    -71.268700   48.884400  134.264000

 Total Charge           Charge          ....    0
 Multiplicity           Mult            ....    1
 Number of Electrons    NEL             ....  134
 Basis Dimension        Dim             ....  322

ORBITAL ENERGIES
----------------

  NO   OCC          E(Eh)            E(eV)
   0   2.0000     -88.966663     -2420.9060
   1   2.0000     -88.964072     -2420.8355
   2   2.0000     -10.331578      -281.1365
   3   2.0000     -10.327562      -281.0273
   4   2.0000     -10.316940      -280.7382
   5   2.0000     -10.316581      -280.7284
   6   2.0000     -10.301416      -280.3158
   7   2.0000     -10.301214      -280.3103
   8   2.0000     -10.292741      -280.0797
   9   2.0000     -10.290688      -280.0239
  10   2.0000     -10.288401      -279.9616
  11   2.0000     -10.286463      -279.9089
  12   2.0000     -10.285210      -279.8748
  13   2.0000     -10.282771      -279.8084
  14   2.0000     -10.279078      -279.7079
  15   2.0000     -10.278711      -279.6980
  16   2.0000      -8.080506      -219.8818
  17   2.0000      -8.078100      -219.8163
  18   2.0000      -6.039216      -164.3354
  19   2.0000      -6.036733      -164.2679
  20   2.0000      -6.035407      -164.2318
  21   2.0000      -6.033009      -164.1665
  22   2.0000      -6.030858      -164.1080
  23   2.0000      -6.028473      -164.0431
  24   2.0000      -1.004810       -27.3423
  25   2.0000      -0.981478       -26.7074
  26   2.0000      -0.923830       -25.1387
  27   2.0000      -0.906226       -24.6597
  28   2.0000      -0.877249       -23.8712
  29   2.0000      -0.856448       -23.3051
  30   2.0000      -0.847308       -23.0564
  31   2.0000      -0.818973       -22.2854
  32   2.0000      -0.781579       -21.2678
  33   2.0000      -0.766783       -20.8652
  34   2.0000      -0.713564       -19.4171
  35   2.0000      -0.699852       -19.0439
  36   2.0000      -0.683847       -18.6084
  37   2.0000      -0.667683       -18.1686
  38   2.0000      -0.642545       -17.4845
  39   2.0000      -0.618145       -16.8206
  40   2.0000      -0.591787       -16.1033
  41   2.0000      -0.588099       -16.0030
  42   2.0000      -0.571247       -15.5444
  43   2.0000      -0.564937       -15.3727
  44   2.0000      -0.529200       -14.4003
  45   2.0000      -0.523807       -14.2535
  46   2.0000      -0.520704       -14.1691
  47   2.0000      -0.516899       -14.0655
  48   2.0000      -0.507563       -13.8115
  49   2.0000      -0.497358       -13.5338
  50   2.0000      -0.486386       -13.2352
  51   2.0000      -0.482445       -13.1280
  52   2.0000      -0.478169       -13.0116
  53   2.0000      -0.466021       -12.6811
  54   2.0000      -0.457079       -12.4378
  55   2.0000      -0.455953       -12.4071
  56   2.0000      -0.449132       -12.2215
  57   2.0000      -0.436493       -11.8776
  58   2.0000      -0.429581       -11.6895
  59   2.0000      -0.426187       -11.5971
  60   2.0000      -0.419534       -11.4161
  61   2.0000      -0.413487       -11.2516
  62   2.0000      -0.403222       -10.9722
  63   2.0000      -0.360823        -9.8185
  64   2.0000      -0.336037        -9.1440
  65   2.0000      -0.325544        -8.8585
  66   2.0000      -0.278641        -7.5822
  67   0.0000       0.014810         0.4030
  68   0.0000       0.068096         1.8530
  69   0.0000       0.093826         2.5531
  70   0.0000       0.121017         3.2930
  71   0.0000       0.135115         3.6767

MULLIKEN ATOMIC CHARGES
-----------------------
   0 S :    0.085533
   1 C :   -0.143455
   2 C :   -0.066410
   3 C :    0.043044
   4 C :   -0.115036
   5 H :   -0.033737
   6 C :    0.076263
   7 H :    0.009427
   8 H :    0.037185
   9 C :   -0.081452
  10 H :    0.037995
  11 H :    0.016334
  12 C :   -0.024886
  13 H :    0.028816
  14 H :    0.037324
  15 H :    0.030802
  16 S :    0.079495
  17 C :   -0.073440
  18 C :   -0.014255
  19 C :   -0.086464
  20 C :   -0.130986
  21 H :    0.027244
  22 C :    0.061948
  23 H :    0.010886
  24 H :    0.024553
  25 C :   -0.080700
  26 H :    0.042775
  27 H :    0.014164
  28 C :   -0.051363
  29 H :    0.044620
  30 H :    0.030506
  31 H :    0.052275
  32 H :    0.058866
  33 H :    0.052130
Sum of atomic charges:   -0.0000000

LOEWDIN ATOMIC CHARGES
----------------------
   0 S :    0.365503
   1 C :   -0.189665
   2 C :   -0.056331
   3 C :   -0.045545
   4 C :   -0.165330
   5 H :    0.006310
   6 C :   -0.025153
   7 H :    0.025059
   8 H :    0.031549
   9 C :   -0.038097
  10 H :    0.031284
  11 H :    0.011374
  12 C :   -0.064320
  13 H :    0.029412
  14 H :    0.028338
  15 H :    0.028079
  16 S :    0.367653
  17 C :   -0.160953
  18 C :   -0.077298
  19 C :   -0.058235
  20 C :   -0.186356
  21 H :    0.038195
  22 C :   -0.033318
  23 H :    0.028820
  24 H :    0.027963
  25 C :   -0.051301
  26 H :    0.029927
  27 H :    0.021207
  28 C :   -0.068351
  29 H :    0.029716
  30 H :    0.023578
  31 H :    0.039376
  32 H :    0.030482
  33 H :    0.026426

  Mayer bond orders larger than 0.100000
B(  0-S ,  1-C ) :   1.1119 B(  0-S ,  4-C ) :   1.1162 B(  1-C ,  2-C ) :   1.6415
B(  1-C , 32-H ) :   0.9621 B(  2-C ,  3-C ) :   1.2128 B(  2-C ,  6-C ) :   1.0176
B(  3-C ,  4-C ) :   1.5898 B(  3-C ,  5-H ) :   1.0085 B(  4-C , 20-C ) :   1.1079
B(  6-C ,  7-H ) :   0.9459 B(  6-C ,  8-H ) :   0.9224 B(  6-C ,  9-C ) :   1.0659
B(  9-C , 10-H ) :   0.9585 B(  9-C , 11-H ) :   0.9448 B(  9-C , 12-C ) :   1.1133
B( 12-C , 13-H ) :   0.9687 B( 12-C , 14-H ) :   0.9685 B( 12-C , 15-H ) :   0.9675
B( 16-S , 17-C ) :   1.1418 B( 16-S , 20-C ) :   1.1075 B( 17-C , 18-C ) :   1.6249
B( 17-C , 33-H ) :   0.9634 B( 18-C , 19-C ) :   1.2619 B( 18-C , 21-H ) :   0.9796
B( 19-C , 20-C ) :   1.5763 B( 19-C , 22-C ) :   1.0454 B( 22-C , 23-H ) :   0.9326
B( 22-C , 24-H ) :   0.9276 B( 22-C , 25-C ) :   1.0689 B( 25-C , 26-H ) :   0.9526
B( 25-C , 27-H ) :   0.9523 B( 25-C , 28-C ) :   1.0785 B( 28-C , 29-H ) :   0.9702
B( 28-C , 30-H ) :   0.9759 B( 28-C , 31-H ) :   0.9718

Dispersion correction           -0.013535475
FINAL SINGLE POINT ENERGY     -1339.857799580253

DIPOLE MOMENT
-------------
                                X             Y             Z
Electronic contribution:     22.76227     -18.27171      -3.15932
Nuclear contribution   :    -23.24154      18.69577       3.06911
                        -----------------------------------------
Total Dipole Moment    :     -0.47926       0.42406      -0.09021
                        -----------------------------------------
Magnitude (a.u.)       :      0.64626
Magnitude (Debye)      :      1.64267

Rotational constants in cm-1:     0.018996     0.008084     0.006214
Rotational constants in MHz :   569.496901   242.364552   186.286909

                             ****ORCA TERMINATED NORMALLY****
TOTAL RUN TIME: 0 days 0 hours 0 minutes 35 seconds 992 msec
