                         Program Version 4.2.1 -  RELEASE  -
|  1> ! wB97X-D3 SP def2-SVP
|  2> %pal
|  3> nprocs 16
|  4> end
|  5>
|  6> * xyz 0 1
|  7> S 	 31.4037 	 3.97422 	 71.8802
|  8> C 	 30.0908 	 4.28483 	 73.1009
|  9> C 	 29.5501 	 3.12335 	 73.5626
| 10> C 	 30.348 	 1.99459 	 73.1295
| 11> C 	 31.3351 	 2.26237 	 72.2293
| 12> H 	 30.181 	 0.900478 	 73.4476
| 13> C 	 28.5518 	 3.00409 	 74.589
| 14> H 	 28.322 	 4.0061 	 75.0142
| 15> H 	 29.1515 	 2.4082 	 75.2867
| 16> C 	 27.2697 	 2.27526 	 74.1428
| 17> H 	 27.5701 	 1.33182 	 73.6847
| 18> H 	 26.7419 	 2.01465 	 75.0842
| 19> C 	 26.4639 	 3.07265 	 73.0475
| 20> H 	 26.4626 	 4.12185 	 73.2557
| 21> H 	 26.9029 	 2.86703 	 72.105
| 22> H 	 25.4314 	 2.6312 	 73.0931
| 23> S 	 31.9932 	 1.61769 	 69.6628
| 24> C 	 33.0447 	 0.246341 	 69.2777
| 25> C 	 33.5113 	 -0.367497 	 70.4208
| 26> C 	 32.8091 	 0.157421 	 71.6342
| 27> C 	 32.0354 	 1.30207 	 71.3958
| 28> H 	 34.1288 	 -1.21077 	 70.3353
| 29> C 	 32.9612 	 -0.41107 	 72.9887
| 30> H 	 33.4596 	 -1.37863 	 72.8786
| 31> H 	 31.9386 	 -0.701749 	 73.3866
| 32> C 	 33.8913 	 0.359301 	 73.9774
| 33> H 	 33.4572 	 1.34865 	 74.0373
| 34> H 	 34.9474 	 0.394365 	 73.6362
| 35> C 	 33.8503 	 -0.296218 	 75.391
| 36> H 	 34.4009 	 0.313741 	 76.0949
| 37> H 	 34.3283 	 -1.29933 	 75.4289
| 38> H 	 32.8235 	 -0.468995 	 75.8069
| 39> H 	 29.7071 	 5.19782 	 73.4912
| 40> H 	 33.4332 	 0.023376 	 68.2886
| 41> *
| 42>
| 43>                          ****END OF INPUT****

CARTESIAN COORDINATES (ANGSTROEM)
---------------------------------
  S     31.403700    3.974220   71.880200
  C     30.090800    4.284830   73.100900
  C     29.550100    3.123350   73.562600
  C     30.348000    1.994590   73.129500
  C     31.335100    2.262370   72.229300
  H     30.181000    0.900478   73.447600
  C     28.551800    3.004090   74.589000
  H     28.322000    4.006100   75.014200
  H     29.151500    2.408200   75.286700
  C     27.269700    2.275260   74.142800
  H     27.570100    1.331820   73.684700
  H     26.741900    2.014650   75.084200
  C     26.463900    3.072650   73.047500
  H     26.462600    4.121850   73.255700
  H     26.902900    2.867030   72.105000
  H     25.431400    2.631200   73.093100
  S     31.993200    1.617690   69.662800
  C     33.044700    0.246341   69.277700
  C     33.511300   -0.367497   70.420800
  C     32.809100    0.157421   71.634200
  C     32.035400    1.302070   71.395800
  H     34.128800   -1.210770   70.335300
  C     32.961200   -0.411070   72.988700
  H     33.459600   -1.378630   72.878600
  H     31.938600   -0.701749   73.386600
  C     33.891300    0.359301   73.977400
  H     33.457200    1.348650   74.037300
  H     34.947400    0.394365   73.636200
  C     33.850300   -0.296218   75.391000
  H     34.400900    0.313741   76.094900
  H     34.328300   -1.299330   75.428900
  H     32.823500   -0.468995   75.806900
  H     29.707100    5.197820   73.491200
  H     33.433200    0.023376   68.288600

 Total Charge           Charge          ....    0
 Multiplicity           Mult            ....    1
 Number of Electrons    NEL             ....  134
 Basis Dimension        Dim             ....  322

ORBITAL ENERGIES
----------------

  NO   OCC          E(Eh)            E(eV)
   0   2.0000     -88.967294     -2420.9232
   1   2.0000     -88.962517     -2420.7931
   2   2.0000     -10.331637      -281.1381
   3   2.0000     -10.329060      -281.0680
   4   2.0000     -10.319577      -280.8100
   5   2.0000     -10.314329      -280.6672
   6   2.0000     -10.308085      -280.4973
   7   2.0000     -10.300123      -280.2806
   8   2.0000     -10.298579      -280.2386
   9   2.0000     -10.297663      -280.2137
  10   2.0000     -10.293147      -280.0908
  11   2.0000     -10.291956      -280.0584
  12   2.0000     -10.291410      -280.0435
  13   2.0000     -10.290143      -280.0090
  14   2.0000     -10.281870      -279.7839
  15   2.0000     -10.280364      -279.7429
  16   2.0000      -8.080961      -219.8941
  17   2.0000      -8.076856      -219.7824
  18   2.0000      -6.039767      -164.3504
  19   2.0000      -6.035766      -164.2416
  20   2.0000      -6.035558      -164.2359
  21   2.0000      -6.031330      -164.1208
  22   2.0000      -6.031281      -164.1195
  23   2.0000      -6.027501      -164.0166
  24   2.0000      -1.005165       -27.3519
  25   2.0000      -0.979124       -26.6433
  26   2.0000      -0.920854       -25.0577
  27   2.0000      -0.903283       -24.5796
  28   2.0000      -0.869680       -23.6652
  29   2.0000      -0.845227       -22.9998
  30   2.0000      -0.840100       -22.8603
  31   2.0000      -0.818183       -22.2639
  32   2.0000      -0.783727       -21.3263
  33   2.0000      -0.767140       -20.8749
  34   2.0000      -0.713463       -19.4143
  35   2.0000      -0.701349       -19.0847
  36   2.0000      -0.691307       -18.8114
  37   2.0000      -0.663725       -18.0609
  38   2.0000      -0.636039       -17.3075
  39   2.0000      -0.617595       -16.8056
  40   2.0000      -0.588425       -16.0118
  41   2.0000      -0.572088       -15.5673
  42   2.0000      -0.560162       -15.2428
  43   2.0000      -0.555744       -15.1226
  44   2.0000      -0.538947       -14.6655
  45   2.0000      -0.521658       -14.1950
  46   2.0000      -0.520739       -14.1700
  47   2.0000      -0.506867       -13.7926
  48   2.0000      -0.504173       -13.7192
  49   2.0000      -0.499558       -13.5937
  50   2.0000      -0.491401       -13.3717
  51   2.0000      -0.481295       -13.0967
  52   2.0000      -0.468515       -12.7489
  53   2.0000      -0.463919       -12.6239
  54   2.0000      -0.456315       -12.4170
  55   2.0000      -0.447756       -12.1841
  56   2.0000      -0.441265       -12.0074
  57   2.0000      -0.439560       -11.9610
  58   2.0000      -0.435188       -11.8421
  59   2.0000      -0.425589       -11.5809
  60   2.0000      -0.420730       -11.4486
  61   2.0000      -0.414898       -11.2900
  62   2.0000      -0.407925       -11.1002
  63   2.0000      -0.351258        -9.5582
  64   2.0000      -0.327763        -8.9189
  65   2.0000      -0.324716        -8.8360
  66   2.0000      -0.291789        -7.9400
  67   0.0000       0.030169         0.8209
  68   0.0000       0.065532         1.7832
  69   0.0000       0.106644         2.9019
  70   0.0000       0.112598         3.0640
  71   0.0000       0.125382         3.4118

MULLIKEN ATOMIC CHARGES
-----------------------
   0 S :    0.099546
   1 C :   -0.100599
   2 C :   -0.077176
   3 C :   -0.019906
   4 C :   -0.117757
   5 H :    0.040430
   6 C :    0.032214
   7 H :    0.025263
   8 H :    0.040516
   9 C :   -0.087915
  10 H :    0.025539
  11 H :    0.038685
  12 C :   -0.037707
  13 H :    0.031474
  14 H :    0.045527
  15 H :    0.046880
  16 S :    0.087411
  17 C :   -0.093552
  18 C :    0.004393
  19 C :   -0.061996
  20 C :   -0.135223
  21 H :    0.008562
  22 C :    0.012177
  23 H :    0.005603
  24 H :    0.041144
  25 C :   -0.056308
  26 H :    0.041806
  27 H :    0.044220
  28 C :   -0.067742
  29 H :    0.034633
  30 H :    0.030500
  31 H :    0.031743
  32 H :    0.025490
  33 H :    0.062126
Sum of atomic charges:   -0.0000000

LOEWDIN ATOMIC CHARGES
----------------------
   0 S :    0.373883
   1 C :   -0.174088
   2 C :   -0.064360
   3 C :   -0.071855
   4 C :   -0.194696
   5 H :    0.040637
   6 C :   -0.039837
   7 H :    0.030975
   8 H :    0.041336
   9 C :   -0.038450
  10 H :    0.022765
  11 H :    0.025952
  12 C :   -0.056922
  13 H :    0.019900
  14 H :    0.026108
  15 H :    0.036994
  16 S :    0.387459
  17 C :   -0.178129
  18 C :   -0.061143
  19 C :   -0.058362
  20 C :   -0.190258
  21 H :    0.024415
  22 C :   -0.048457
  23 H :    0.027672
  24 H :    0.036173
  25 C :   -0.032318
  26 H :    0.023741
  27 H :    0.032632
  28 C :   -0.072873
  29 H :    0.023757
  30 H :    0.025398
  31 H :    0.026946
  32 H :    0.023261
  33 H :    0.031743

  Mayer bond orders larger than 0.100000
B(  0-S ,  1-C ) :   1.0938 B(  0-S ,  4-C ) :   1.1203 B(  1-C ,  2-C ) :   1.6515
B(  1-C , 32-H ) :   0.9666 B(  2-C ,  3-C ) :   1.1954 B(  2-C ,  6-C ) :   1.0222
B(  3-C ,  4-C ) :   1.6208 B(  3-C ,  5-H ) :   0.9693 B(  4-C , 20-C ) :   1.0495
B(  6-C ,  7-H ) :   0.9437 B(  6-C ,  8-H ) :   0.9372 B(  6-C ,  9-C ) :   1.0680
B(  9-C , 10-H ) :   0.9580 B(  9-C , 11-H ) :   0.9613 B(  9-C , 12-C ) :   1.0532
B( 12-C , 13-H ) :   0.9819 B( 12-C , 14-H ) :   0.9754 B( 12-C , 15-H ) :   0.9754
B( 16-S , 17-C ) :   1.1416 B( 16-S , 20-C ) :   1.1230 B( 17-C , 18-C ) :   1.6415
B( 17-C , 33-H ) :   0.9637 B( 18-C , 19-C ) :   1.2106 B( 18-C , 21-H ) :   0.9926
B( 19-C , 20-C ) :   1.6061 B( 19-C , 22-C ) :   1.0656 B( 22-C , 23-H ) :   0.9234
B( 22-C , 24-H ) :   0.9378 B( 22-C , 25-C ) :   1.0522 B( 25-C , 26-H ) :   0.9594
B( 25-C , 27-H ) :   0.9539 B( 25-C , 28-C ) :   1.0777 B( 28-C , 29-H ) :   0.9751
B( 28-C , 30-H ) :   0.9749 B( 28-C , 31-H ) :   0.9756

Dispersion correction           -0.014495115
FINAL SINGLE POINT ENERGY     -1339.868087321758

DIPOLE MOMENT
-------------
                                X             Y             Z
Electronic contribution:      8.28545       9.15398     -20.75108
Nuclear contribution   :     -8.44710      -9.58269      21.25860
                        -----------------------------------------
Total Dipole Moment    :     -0.16166      -0.42871       0.50752
                        -----------------------------------------
Magnitude (a.u.)       :      0.68374
Magnitude (Debye)      :      1.73793

Rotational constants in cm-1:     0.017763     0.009015     0.007290
Rotational constants in MHz :   532.530872   270.263155   218.557393

                             ****ORCA TERMINATED NORMALLY****
TOTAL RUN TIME: 0 days 0 hours 0 minutes 30 seconds 569 msec
