                         Program Version 4.2.1 -  RELEASE  -
|  1> ! wB97X-D3 SP def2-SVP
|  2> %pal
|  3> nprocs 16
|  4> end
|  5>
|  6> * xyz 0 1
|  7> S 	 35.1143 	 22.9373 	 46.6638
|  8> C 	 34.5492 	 24.3257 	 47.6163
|  9> C 	 34.2186 	 23.9307 	 48.9347
| 10> C 	 34.3309 	 22.5239 	 49.0704
| 11> C 	 34.8064 	 21.8486 	 47.9868
| 12> H 	 34.2987 	 21.9755 	 49.9908
| 13> C 	 33.5635 	 24.7913 	 49.9553
| 14> H 	 32.4984 	 24.7867 	 49.9914
| 15> H 	 33.6892 	 25.809 	 49.6666
| 16> C 	 34.1852 	 24.5624 	 51.4041
| 17> H 	 33.7987 	 23.6371 	 51.7731
| 18> H 	 35.2672 	 24.346 	 51.4215
| 19> C 	 33.9886 	 25.7039 	 52.4276
| 20> H 	 34.2851 	 25.5773 	 53.4153
| 21> H 	 34.5354 	 26.5404 	 51.9574
| 22> H 	 32.9164 	 25.997 	 52.4602
| 23> S 	 33.9964 	 19.2455 	 48.2614
| 24> C 	 35.2969 	 18.1084 	 48.3879
| 25> C 	 36.5069 	 18.5684 	 47.889
| 26> C 	 36.4901 	 19.918 	 47.6888
| 27> C 	 35.2495 	 20.4792 	 48.0551
| 28> H 	 37.3301 	 17.9253 	 47.7287
| 29> C 	 37.7137 	 20.784 	 47.5138
| 30> H 	 38.4802 	 20.4499 	 48.2305
| 31> H 	 37.5103 	 21.7593 	 47.8064
| 32> C 	 38.354 	 20.7173 	 46.1145
| 33> H 	 37.5309 	 21.0027 	 45.3947
| 34> H 	 38.7852 	 19.7517 	 45.7292
| 35> C 	 39.3695 	 21.8531 	 45.986
| 36> H 	 40.048 	 21.6371 	 45.2177
| 37> H 	 40.0125 	 21.8315 	 46.9277
| 38> H 	 38.9078 	 22.8379 	 45.7615
| 39> H 	 34.4148 	 25.3267 	 47.2874
| 40> H 	 35.1346 	 17.0835 	 48.5596
| 41> *
| 42>
| 43>                          ****END OF INPUT****

CARTESIAN COORDINATES (ANGSTROEM)
---------------------------------
  S     35.114300   22.937300   46.663800
  C     34.549200   24.325700   47.616300
  C     34.218600   23.930700   48.934700
  C     34.330900   22.523900   49.070400
  C     34.806400   21.848600   47.986800
  H     34.298700   21.975500   49.990800
  C     33.563500   24.791300   49.955300
  H     32.498400   24.786700   49.991400
  H     33.689200   25.809000   49.666600
  C     34.185200   24.562400   51.404100
  H     33.798700   23.637100   51.773100
  H     35.267200   24.346000   51.421500
  C     33.988600   25.703900   52.427600
  H     34.285100   25.577300   53.415300
  H     34.535400   26.540400   51.957400
  H     32.916400   25.997000   52.460200
  S     33.996400   19.245500   48.261400
  C     35.296900   18.108400   48.387900
  C     36.506900   18.568400   47.889000
  C     36.490100   19.918000   47.688800
  C     35.249500   20.479200   48.055100
  H     37.330100   17.925300   47.728700
  C     37.713700   20.784000   47.513800
  H     38.480200   20.449900   48.230500
  H     37.510300   21.759300   47.806400
  C     38.354000   20.717300   46.114500
  H     37.530900   21.002700   45.394700
  H     38.785200   19.751700   45.729200
  C     39.369500   21.853100   45.986000
  H     40.048000   21.637100   45.217700
  H     40.012500   21.831500   46.927700
  H     38.907800   22.837900   45.761500
  H     34.414800   25.326700   47.287400
  H     35.134600   17.083500   48.559600

 Total Charge           Charge          ....    0
 Multiplicity           Mult            ....    1
 Number of Electrons    NEL             ....  134
 Basis Dimension        Dim             ....  322

ORBITAL ENERGIES
----------------

  NO   OCC          E(Eh)            E(eV)
   0   2.0000     -88.970292     -2421.0047
   1   2.0000     -88.968301     -2420.9506
   2   2.0000     -10.322084      -280.8782
   3   2.0000     -10.321692      -280.8675
   4   2.0000     -10.318457      -280.7795
   5   2.0000     -10.309306      -280.5305
   6   2.0000     -10.303069      -280.3608
   7   2.0000     -10.295119      -280.1444
   8   2.0000     -10.292114      -280.0627
   9   2.0000     -10.289065      -279.9797
  10   2.0000     -10.289039      -279.9790
  11   2.0000     -10.285777      -279.8902
  12   2.0000     -10.285135      -279.8727
  13   2.0000     -10.283707      -279.8339
  14   2.0000     -10.277958      -279.6775
  15   2.0000     -10.275124      -279.6003
  16   2.0000      -8.084007      -219.9770
  17   2.0000      -8.082933      -219.9478
  18   2.0000      -6.042534      -164.4257
  19   2.0000      -6.041080      -164.3861
  20   2.0000      -6.038614      -164.3190
  21   2.0000      -6.037806      -164.2971
  22   2.0000      -6.034858      -164.2168
  23   2.0000      -6.033739      -164.1864
  24   2.0000      -1.009154       -27.4605
  25   2.0000      -0.985341       -26.8125
  26   2.0000      -0.909604       -24.7516
  27   2.0000      -0.907809       -24.7027
  28   2.0000      -0.869239       -23.6532
  29   2.0000      -0.855839       -23.2886
  30   2.0000      -0.847608       -23.0646
  31   2.0000      -0.813858       -22.1462
  32   2.0000      -0.783533       -21.3210
  33   2.0000      -0.768374       -20.9085
  34   2.0000      -0.711895       -19.3717
  35   2.0000      -0.695852       -18.9351
  36   2.0000      -0.691411       -18.8142
  37   2.0000      -0.668188       -18.1823
  38   2.0000      -0.639238       -17.3945
  39   2.0000      -0.619968       -16.8702
  40   2.0000      -0.602839       -16.4041
  41   2.0000      -0.569835       -15.5060
  42   2.0000      -0.563943       -15.3457
  43   2.0000      -0.556671       -15.1478
  44   2.0000      -0.528405       -14.3786
  45   2.0000      -0.525081       -14.2882
  46   2.0000      -0.515835       -14.0366
  47   2.0000      -0.512904       -13.9568
  48   2.0000      -0.502515       -13.6741
  49   2.0000      -0.496004       -13.4970
  50   2.0000      -0.490827       -13.3561
  51   2.0000      -0.477754       -13.0004
  52   2.0000      -0.473666       -12.8891
  53   2.0000      -0.462598       -12.5879
  54   2.0000      -0.459091       -12.4925
  55   2.0000      -0.453857       -12.3501
  56   2.0000      -0.448864       -12.2142
  57   2.0000      -0.434998       -11.8369
  58   2.0000      -0.431426       -11.7397
  59   2.0000      -0.427836       -11.6420
  60   2.0000      -0.418244       -11.3810
  61   2.0000      -0.413280       -11.2459
  62   2.0000      -0.409491       -11.1428
  63   2.0000      -0.341594        -9.2952
  64   2.0000      -0.336238        -9.1495
  65   2.0000      -0.326944        -8.8966
  66   2.0000      -0.288920        -7.8619
  67   0.0000       0.026186         0.7126
  68   0.0000       0.065008         1.7690
  69   0.0000       0.103073         2.8048
  70   0.0000       0.112619         3.0645
  71   0.0000       0.125286         3.4092

MULLIKEN ATOMIC CHARGES
-----------------------
   0 S :    0.114903
   1 C :   -0.107094
   2 C :   -0.078581
   3 C :    0.027695
   4 C :   -0.152196
   5 H :    0.013117
   6 C :    0.104378
   7 H :    0.039478
   8 H :   -0.008111
   9 C :   -0.117447
  10 H :    0.025843
  11 H :    0.035778
  12 C :   -0.034720
  13 H :    0.030587
  14 H :    0.032972
  15 H :    0.026615
  16 S :    0.122624
  17 C :   -0.063267
  18 C :   -0.032820
  19 C :    0.023314
  20 C :   -0.194111
  21 H :    0.001145
  22 C :    0.072133
  23 H :    0.028456
  24 H :    0.012702
  25 C :   -0.118717
  26 H :    0.029435
  27 H :    0.043555
  28 C :   -0.038105
  29 H :    0.015054
  30 H :    0.028381
  31 H :    0.049474
  32 H :    0.035066
  33 H :    0.032463
Sum of atomic charges:   -0.0000000

LOEWDIN ATOMIC CHARGES
----------------------
   0 S :    0.408487
   1 C :   -0.184132
   2 C :   -0.058032
   3 C :   -0.060113
   4 C :   -0.205844
   5 H :    0.029016
   6 C :   -0.026381
   7 H :    0.033627
   8 H :    0.023083
   9 C :   -0.040315
  10 H :    0.014751
  11 H :    0.027841
  12 C :   -0.063188
  13 H :    0.017308
  14 H :    0.029256
  15 H :    0.026176
  16 S :    0.415212
  17 C :   -0.179279
  18 C :   -0.060608
  19 C :   -0.055329
  20 C :   -0.190032
  21 H :    0.027511
  22 C :   -0.027082
  23 H :    0.032810
  24 H :    0.017910
  25 C :   -0.049371
  26 H :    0.025389
  27 H :    0.028018
  28 C :   -0.067822
  29 H :    0.015439
  30 H :    0.028930
  31 H :    0.031512
  32 H :    0.021532
  33 H :    0.013718

  Mayer bond orders larger than 0.100000
B(  0-S ,  1-C ) :   1.1395 B(  0-S ,  4-C ) :   1.1350 B(  1-C ,  2-C ) :   1.5926
B(  1-C , 32-H ) :   0.9718 B(  2-C ,  3-C ) :   1.2423 B(  2-C ,  6-C ) :   1.0439
B(  3-C ,  4-C ) :   1.5716 B(  3-C ,  5-H ) :   0.9901 B(  4-C , 20-C ) :   1.0500
B(  6-C ,  7-H ) :   0.9379 B(  6-C ,  8-H ) :   0.9351 B(  6-C ,  9-C ) :   1.0270
B(  9-C , 10-H ) :   0.9558 B(  9-C , 11-H ) :   0.9670 B(  9-C , 12-C ) :   1.0811
B( 12-C , 13-H ) :   0.9770 B( 12-C , 14-H ) :   0.9770 B( 12-C , 15-H ) :   0.9745
B( 16-S , 17-C ) :   1.1650 B( 16-S , 20-C ) :   1.1572 B( 17-C , 18-C ) :   1.5769
B( 17-C , 20-C ) :   0.1115 B( 17-C , 33-H ) :   0.9724 B( 18-C , 19-C ) :   1.2749
B( 18-C , 21-H ) :   1.0013 B( 19-C , 20-C ) :   1.5309 B( 19-C , 22-C ) :   1.0457
B( 22-C , 23-H ) :   0.9350 B( 22-C , 24-H ) :   0.9378 B( 22-C , 25-C ) :   1.0442
B( 25-C , 26-H ) :   0.9548 B( 25-C , 27-H ) :   0.9613 B( 25-C , 28-C ) :   1.0829
B( 28-C , 29-H ) :   0.9729 B( 28-C , 30-H ) :   0.9704 B( 28-C , 31-H ) :   0.9757

Dispersion correction           -0.014283870
FINAL SINGLE POINT ENERGY     -1339.855994222268

DIPOLE MOMENT
-------------
                                X             Y             Z
Electronic contribution:    -11.69295     -14.39081      -9.74799
Nuclear contribution   :     11.90565      14.55940      10.00682
                        -----------------------------------------
Total Dipole Moment    :      0.21270       0.16859       0.25883
                        -----------------------------------------
Magnitude (a.u.)       :      0.37504
Magnitude (Debye)      :      0.95328

Rotational constants in cm-1:     0.018132     0.008341     0.006850
Rotational constants in MHz :   543.588021   250.042656   205.344802

                             ****ORCA TERMINATED NORMALLY****
TOTAL RUN TIME: 0 days 0 hours 0 minutes 32 seconds 964 msec
