                         Program Version 4.2.1 -  RELEASE  -
|  1> ! wB97X-D3 SP def2-SVP
|  2> %pal
|  3> nprocs 16
|  4> end
|  5>
|  6> * xyz 0 1
|  7> S 	 -64.8781 	 37.8301 	 134.29
|  8> C 	 -63.4095 	 38.7798 	 134.83
|  9> C 	 -62.5577 	 37.9918 	 135.665
| 10> C 	 -63.0714 	 36.7098 	 135.904
| 11> C 	 -64.267 	 36.5109 	 135.23
| 12> H 	 -62.744 	 35.8285 	 136.485
| 13> C 	 -61.2251 	 38.3958 	 136.309
| 14> H 	 -61.1339 	 37.885 	 137.272
| 15> H 	 -61.2127 	 39.4406 	 136.513
| 16> C 	 -60.0177 	 37.8347 	 135.566
| 17> H 	 -60.0136 	 36.745 	 135.538
| 18> H 	 -60.0682 	 38.1037 	 134.474
| 19> C 	 -58.6548 	 38.3654 	 136.057
| 20> H 	 -58.5632 	 39.3732 	 135.968
| 21> H 	 -58.4792 	 38.2114 	 137.141
| 22> H 	 -57.9474 	 37.8542 	 135.499
| 23> S 	 -66.5376 	 35.5768 	 136.351
| 24> C 	 -66.9735 	 33.8193 	 136.109
| 25> C 	 -65.9595 	 33.1676 	 135.488
| 26> C 	 -64.855 	 34.0184 	 135.061
| 27> C 	 -65.0792 	 35.3352 	 135.376
| 28> H 	 -66.0112 	 32.1066 	 135.361
| 29> C 	 -63.5862 	 33.5096 	 134.345
| 30> H 	 -63.2429 	 32.6545 	 134.905
| 31> H 	 -62.7261 	 34.1786 	 134.469
| 32> C 	 -63.7357 	 33.229 	 132.844
| 33> H 	 -62.8624 	 32.6925 	 132.477
| 34> H 	 -63.9155 	 34.1691 	 132.287
| 35> C 	 -65.0054 	 32.3016 	 132.503
| 36> H 	 -65.9002 	 32.8974 	 132.2
| 37> H 	 -65.1723 	 31.7099 	 133.4
| 38> H 	 -64.7968 	 31.6177 	 131.697
| 39> H 	 -63.2454 	 39.758 	 134.539
| 40> H 	 -67.8001 	 33.3863 	 136.589
| 41> *
| 42>
| 43>                          ****END OF INPUT****

CARTESIAN COORDINATES (ANGSTROEM)
---------------------------------
  S    -64.878100   37.830100  134.290000
  C    -63.409500   38.779800  134.830000
  C    -62.557700   37.991800  135.665000
  C    -63.071400   36.709800  135.904000
  C    -64.267000   36.510900  135.230000
  H    -62.744000   35.828500  136.485000
  C    -61.225100   38.395800  136.309000
  H    -61.133900   37.885000  137.272000
  H    -61.212700   39.440600  136.513000
  C    -60.017700   37.834700  135.566000
  H    -60.013600   36.745000  135.538000
  H    -60.068200   38.103700  134.474000
  C    -58.654800   38.365400  136.057000
  H    -58.563200   39.373200  135.968000
  H    -58.479200   38.211400  137.141000
  H    -57.947400   37.854200  135.499000
  S    -66.537600   35.576800  136.351000
  C    -66.973500   33.819300  136.109000
  C    -65.959500   33.167600  135.488000
  C    -64.855000   34.018400  135.061000
  C    -65.079200   35.335200  135.376000
  H    -66.011200   32.106600  135.361000
  C    -63.586200   33.509600  134.345000
  H    -63.242900   32.654500  134.905000
  H    -62.726100   34.178600  134.469000
  C    -63.735700   33.229000  132.844000
  H    -62.862400   32.692500  132.477000
  H    -63.915500   34.169100  132.287000
  C    -65.005400   32.301600  132.503000
  H    -65.900200   32.897400  132.200000
  H    -65.172300   31.709900  133.400000
  H    -64.796800   31.617700  131.697000
  H    -63.245400   39.758000  134.539000
  H    -67.800100   33.386300  136.589000

 Total Charge           Charge          ....    0
 Multiplicity           Mult            ....    1
 Number of Electrons    NEL             ....  134
 Basis Dimension        Dim             ....  322

ORBITAL ENERGIES
----------------

  NO   OCC          E(Eh)            E(eV)
   0   2.0000     -88.971358     -2421.0337
   1   2.0000     -88.958918     -2420.6952
   2   2.0000     -10.323029      -280.9039
   3   2.0000     -10.321695      -280.8676
   4   2.0000     -10.318586      -280.7830
   5   2.0000     -10.316040      -280.7137
   6   2.0000     -10.309493      -280.5356
   7   2.0000     -10.305290      -280.4212
   8   2.0000     -10.295527      -280.1555
   9   2.0000     -10.293577      -280.1025
  10   2.0000     -10.293068      -280.0886
  11   2.0000     -10.291467      -280.0450
  12   2.0000     -10.289569      -279.9934
  13   2.0000     -10.289566      -279.9933
  14   2.0000     -10.276988      -279.6510
  15   2.0000     -10.268269      -279.4138
  16   2.0000      -8.084949      -220.0026
  17   2.0000      -8.072781      -219.6715
  18   2.0000      -6.043317      -164.4470
  19   2.0000      -6.039742      -164.3497
  20   2.0000      -6.035809      -164.2427
  21   2.0000      -6.031473      -164.1247
  22   2.0000      -6.027566      -164.0184
  23   2.0000      -6.023227      -163.9003
  24   2.0000      -1.002252       -27.2727
  25   2.0000      -0.973167       -26.4812
  26   2.0000      -0.912594       -24.8329
  27   2.0000      -0.898625       -24.4528
  28   2.0000      -0.869363       -23.6566
  29   2.0000      -0.851734       -23.1769
  30   2.0000      -0.833321       -22.6758
  31   2.0000      -0.812909       -22.1204
  32   2.0000      -0.786519       -21.4023
  33   2.0000      -0.773206       -21.0400
  34   2.0000      -0.706516       -19.2253
  35   2.0000      -0.701545       -19.0900
  36   2.0000      -0.689328       -18.7576
  37   2.0000      -0.663712       -18.0605
  38   2.0000      -0.648587       -17.6490
  39   2.0000      -0.614272       -16.7152
  40   2.0000      -0.592721       -16.1288
  41   2.0000      -0.567386       -15.4394
  42   2.0000      -0.557274       -15.1642
  43   2.0000      -0.553584       -15.0638
  44   2.0000      -0.540310       -14.7026
  45   2.0000      -0.533671       -14.5219
  46   2.0000      -0.519823       -14.1451
  47   2.0000      -0.510491       -13.8912
  48   2.0000      -0.501558       -13.6481
  49   2.0000      -0.493448       -13.4274
  50   2.0000      -0.480047       -13.0628
  51   2.0000      -0.478705       -13.0262
  52   2.0000      -0.470176       -12.7941
  53   2.0000      -0.466604       -12.6969
  54   2.0000      -0.459719       -12.5096
  55   2.0000      -0.449142       -12.2218
  56   2.0000      -0.444659       -12.0998
  57   2.0000      -0.440099       -11.9757
  58   2.0000      -0.434522       -11.8239
  59   2.0000      -0.424042       -11.5388
  60   2.0000      -0.415371       -11.3028
  61   2.0000      -0.411074       -11.1859
  62   2.0000      -0.409024       -11.1301
  63   2.0000      -0.341943        -9.3047
  64   2.0000      -0.331826        -9.0294
  65   2.0000      -0.323618        -8.8061
  66   2.0000      -0.297330        -8.0908
  67   0.0000       0.034283         0.9329
  68   0.0000       0.061524         1.6742
  69   0.0000       0.102883         2.7996
  70   0.0000       0.106741         2.9046
  71   0.0000       0.128744         3.5033

MULLIKEN ATOMIC CHARGES
-----------------------
   0 S :    0.119764
   1 C :   -0.104647
   2 C :   -0.061417
   3 C :    0.035327
   4 C :   -0.187334
   5 H :    0.031152
   6 C :    0.101349
   7 H :    0.023102
   8 H :    0.017791
   9 C :   -0.122309
  10 H :    0.027891
  11 H :    0.030946
  12 C :    0.023616
  13 H :    0.009033
  14 H :    0.020609
  15 H :    0.022502
  16 S :    0.080967
  17 C :   -0.075386
  18 C :   -0.021959
  19 C :   -0.023800
  20 C :   -0.179530
  21 H :    0.021532
  22 C :    0.074324
  23 H :    0.020425
  24 H :    0.021337
  25 C :   -0.071096
  26 H :    0.034120
  27 H :    0.044700
  28 C :   -0.071728
  29 H :    0.053046
  30 H :    0.015501
  31 H :    0.030209
  32 H :    0.018379
  33 H :    0.041585
Sum of atomic charges:    0.0000000

LOEWDIN ATOMIC CHARGES
----------------------
   0 S :    0.396454
   1 C :   -0.171922
   2 C :   -0.046392
   3 C :   -0.065734
   4 C :   -0.200594
   5 H :    0.043047
   6 C :   -0.028796
   7 H :    0.034719
   8 H :    0.024784
   9 C :   -0.040453
  10 H :    0.022256
  11 H :    0.026978
  12 C :   -0.050696
  13 H :    0.011415
  14 H :    0.027082
  15 H :    0.020696
  16 S :    0.355555
  17 C :   -0.151039
  18 C :   -0.061397
  19 C :   -0.056338
  20 C :   -0.190381
  21 H :    0.028322
  22 C :   -0.036091
  23 H :    0.027951
  24 H :    0.031882
  25 C :   -0.035393
  26 H :    0.024334
  27 H :    0.030056
  28 C :   -0.071039
  29 H :    0.033624
  30 H :    0.017966
  31 H :    0.021668
  32 H :    0.008076
  33 H :    0.019400

  Mayer bond orders larger than 0.100000
B(  0-S ,  1-C ) :   1.1217 B(  0-S ,  4-C ) :   1.1686 B(  1-C ,  2-C ) :   1.5927
B(  1-C ,  4-C ) :   0.1100 B(  1-C , 32-H ) :   0.9842 B(  2-C ,  3-C ) :   1.2238
B(  2-C ,  6-C ) :   1.0299 B(  3-C ,  4-C ) :   1.5832 B(  3-C ,  5-H ) :   0.9846
B(  4-C , 20-C ) :   1.0172 B(  6-C ,  7-H ) :   0.9359 B(  6-C ,  8-H ) :   0.9444
B(  6-C ,  9-C ) :   1.0551 B(  9-C , 10-H ) :   0.9574 B(  9-C , 11-H ) :   0.9550
B(  9-C , 12-C ) :   1.0842 B( 12-C , 13-H ) :   0.9747 B( 12-C , 14-H ) :   0.9714
B( 12-C , 15-H ) :   0.9728 B( 16-S , 17-C ) :   1.1094 B( 16-S , 20-C ) :   1.1333
B( 17-C , 18-C ) :   1.6698 B( 17-C , 33-H ) :   0.9751 B( 18-C , 19-C ) :   1.1831
B( 18-C , 21-H ) :   0.9847 B( 19-C , 20-C ) :   1.6575 B( 19-C , 22-C ) :   1.0350
B( 22-C , 23-H ) :   0.9314 B( 22-C , 24-H ) :   0.9332 B( 22-C , 25-C ) :   1.0834
B( 25-C , 26-H ) :   0.9577 B( 25-C , 27-H ) :   0.9600 B( 25-C , 28-C ) :   1.0664
B( 28-C , 29-H ) :   0.9764 B( 28-C , 30-H ) :   0.9788 B( 28-C , 31-H ) :   0.9760

Dispersion correction           -0.014425507
FINAL SINGLE POINT ENERGY     -1339.863286034771

DIPOLE MOMENT
-------------
                                X             Y             Z
Electronic contribution:    -23.45855       7.66590       5.26897
Nuclear contribution   :     24.09657      -7.98959      -5.21171
                        -----------------------------------------
Total Dipole Moment    :      0.63802      -0.32369       0.05726
                        -----------------------------------------
Magnitude (a.u.)       :      0.71772
Magnitude (Debye)      :      1.82429

Rotational constants in cm-1:     0.020020     0.007944     0.006776
Rotational constants in MHz :   600.173158   238.141637   203.142921

                             ****ORCA TERMINATED NORMALLY****
TOTAL RUN TIME: 0 days 0 hours 0 minutes 33 seconds 398 msec
