                         Program Version 4.2.1 -  RELEASE  -
|  1> ! wB97X-D3 SP def2-SVP
|  2> %pal
|  3> nprocs 16
|  4> end
|  5>
|  6> * xyz 0 1
|  7> S 	 -10.9191 	 60.6376 	 56.3495
|  8> C 	 -9.41154 	 60.1116 	 57.1655
|  9> C 	 -9.20257 	 60.7664 	 58.3731
| 10> C 	 -10.1306 	 61.8628 	 58.4851
| 11> C 	 -11.1237 	 61.9877 	 57.5148
| 12> H 	 -10.3184 	 62.568 	 59.2575
| 13> C 	 -8.26438 	 60.338 	 59.4924
| 14> H 	 -8.30911 	 61.1167 	 60.2205
| 15> H 	 -7.22936 	 60.356 	 59.1438
| 16> C 	 -8.61569 	 59.0526 	 60.2884
| 17> H 	 -7.83493 	 59.0043 	 60.9911
| 18> H 	 -9.53962 	 59.2243 	 60.7813
| 19> C 	 -8.63893 	 57.8212 	 59.4132
| 20> H 	 -7.73844 	 57.8151 	 58.7463
| 21> H 	 -8.57994 	 56.8113 	 59.9011
| 22> H 	 -9.41433 	 57.8539 	 58.7026
| 23> S 	 -13.7782 	 62.0525 	 58.4466
| 24> C 	 -14.7196 	 63.4956 	 58.1569
| 25> C 	 -13.9864 	 64.5476 	 57.591
| 26> C 	 -12.5958 	 64.1223 	 57.3516
| 27> C 	 -12.3451 	 62.8461 	 57.6611
| 28> H 	 -14.5636 	 65.3822 	 57.2774
| 29> C 	 -11.5024 	 64.9233 	 56.6013
| 30> H 	 -10.8088 	 64.2292 	 56.1751
| 31> H 	 -10.9739 	 65.5865 	 57.2734
| 32> C 	 -11.9151 	 65.7734 	 55.3843
| 33> H 	 -12.9025 	 65.4997 	 54.8958
| 34> H 	 -11.1062 	 65.7387 	 54.5914
| 35> C 	 -11.9892 	 67.2423 	 55.7144
| 36> H 	 -12.2505 	 67.7953 	 54.8203
| 37> H 	 -11.0842 	 67.6047 	 56.1118
| 38> H 	 -12.654 	 67.4627 	 56.4348
| 39> H 	 -8.9027 	 59.1894 	 56.9038
| 40> H 	 -15.7662 	 63.5757 	 58.2981
| 41> *
| 42>
| 43>                          ****END OF INPUT****

CARTESIAN COORDINATES (ANGSTROEM)
---------------------------------
  S    -10.919100   60.637600   56.349500
  C     -9.411540   60.111600   57.165500
  C     -9.202570   60.766400   58.373100
  C    -10.130600   61.862800   58.485100
  C    -11.123700   61.987700   57.514800
  H    -10.318400   62.568000   59.257500
  C     -8.264380   60.338000   59.492400
  H     -8.309110   61.116700   60.220500
  H     -7.229360   60.356000   59.143800
  C     -8.615690   59.052600   60.288400
  H     -7.834930   59.004300   60.991100
  H     -9.539620   59.224300   60.781300
  C     -8.638930   57.821200   59.413200
  H     -7.738440   57.815100   58.746300
  H     -8.579940   56.811300   59.901100
  H     -9.414330   57.853900   58.702600
  S    -13.778200   62.052500   58.446600
  C    -14.719600   63.495600   58.156900
  C    -13.986400   64.547600   57.591000
  C    -12.595800   64.122300   57.351600
  C    -12.345100   62.846100   57.661100
  H    -14.563600   65.382200   57.277400
  C    -11.502400   64.923300   56.601300
  H    -10.808800   64.229200   56.175100
  H    -10.973900   65.586500   57.273400
  C    -11.915100   65.773400   55.384300
  H    -12.902500   65.499700   54.895800
  H    -11.106200   65.738700   54.591400
  C    -11.989200   67.242300   55.714400
  H    -12.250500   67.795300   54.820300
  H    -11.084200   67.604700   56.111800
  H    -12.654000   67.462700   56.434800
  H     -8.902700   59.189400   56.903800
  H    -15.766200   63.575700   58.298100

 Total Charge           Charge          ....    0
 Multiplicity           Mult            ....    1
 Number of Electrons    NEL             ....  134
 Basis Dimension        Dim             ....  322

ORBITAL ENERGIES
----------------

  NO   OCC          E(Eh)            E(eV)
   0   2.0000     -88.967355     -2420.9248
   1   2.0000     -88.963462     -2420.8189
   2   2.0000     -10.334159      -281.2068
   3   2.0000     -10.329327      -281.0753
   4   2.0000     -10.320663      -280.8395
   5   2.0000     -10.319723      -280.8140
   6   2.0000     -10.309995      -280.5492
   7   2.0000     -10.307793      -280.4893
   8   2.0000     -10.300391      -280.2879
   9   2.0000     -10.295453      -280.1535
  10   2.0000     -10.293508      -280.1006
  11   2.0000     -10.289265      -279.9851
  12   2.0000     -10.288122      -279.9540
  13   2.0000     -10.284116      -279.8450
  14   2.0000     -10.278682      -279.6972
  15   2.0000     -10.258546      -279.1492
  16   2.0000      -8.080475      -219.8809
  17   2.0000      -8.077598      -219.8026
  18   2.0000      -6.039073      -164.3315
  19   2.0000      -6.036175      -164.2527
  20   2.0000      -6.035263      -164.2279
  21   2.0000      -6.032349      -164.1486
  22   2.0000      -6.031170      -164.1165
  23   2.0000      -6.028149      -164.0343
  24   2.0000      -0.996527       -27.1169
  25   2.0000      -0.975958       -26.5572
  26   2.0000      -0.913592       -24.8601
  27   2.0000      -0.907898       -24.7052
  28   2.0000      -0.867355       -23.6019
  29   2.0000      -0.848914       -23.1001
  30   2.0000      -0.843867       -22.9628
  31   2.0000      -0.813117       -22.1260
  32   2.0000      -0.787131       -21.4189
  33   2.0000      -0.779853       -21.2209
  34   2.0000      -0.707523       -19.2527
  35   2.0000      -0.697679       -18.9848
  36   2.0000      -0.692930       -18.8556
  37   2.0000      -0.659136       -17.9360
  38   2.0000      -0.645400       -17.5622
  39   2.0000      -0.610636       -16.6163
  40   2.0000      -0.596002       -16.2180
  41   2.0000      -0.577790       -15.7225
  42   2.0000      -0.553588       -15.0639
  43   2.0000      -0.550670       -14.9845
  44   2.0000      -0.541825       -14.7438
  45   2.0000      -0.536748       -14.6057
  46   2.0000      -0.520863       -14.1734
  47   2.0000      -0.515059       -14.0155
  48   2.0000      -0.502989       -13.6870
  49   2.0000      -0.494626       -13.4595
  50   2.0000      -0.488398       -13.2900
  51   2.0000      -0.484104       -13.1731
  52   2.0000      -0.469817       -12.7844
  53   2.0000      -0.466321       -12.6892
  54   2.0000      -0.456677       -12.4268
  55   2.0000      -0.444946       -12.1076
  56   2.0000      -0.440796       -11.9947
  57   2.0000      -0.435567       -11.8524
  58   2.0000      -0.430928       -11.7261
  59   2.0000      -0.425853       -11.5881
  60   2.0000      -0.420562       -11.4441
  61   2.0000      -0.414473       -11.2784
  62   2.0000      -0.412050       -11.2124
  63   2.0000      -0.334886        -9.1127
  64   2.0000      -0.330827        -9.0023
  65   2.0000      -0.322956        -8.7881
  66   2.0000      -0.313102        -8.5199
  67   0.0000       0.035686         0.9711
  68   0.0000       0.053694         1.4611
  69   0.0000       0.109958         2.9921
  70   0.0000       0.117139         3.1875
  71   0.0000       0.124613         3.3909

MULLIKEN ATOMIC CHARGES
-----------------------
   0 S :    0.097512
   1 C :   -0.124862
   2 C :   -0.076543
   3 C :    0.055493
   4 C :   -0.187722
   5 H :    0.002597
   6 C :    0.048123
   7 H :    0.009139
   8 H :    0.038969
   9 C :    0.005356
  10 H :    0.021732
  11 H :    0.028781
  12 C :   -0.072438
  13 H :    0.015234
  14 H :    0.045776
  15 H :    0.031060
  16 S :    0.099161
  17 C :   -0.084346
  18 C :   -0.032878
  19 C :   -0.002978
  20 C :   -0.186371
  21 H :    0.018392
  22 C :    0.094688
  23 H :    0.037723
  24 H :    0.028715
  25 C :   -0.130416
  26 H :    0.044739
  27 H :    0.037792
  28 C :    0.001880
  29 H :    0.028020
  30 H :    0.009765
  31 H :   -0.004761
  32 H :    0.055055
  33 H :    0.047613
Sum of atomic charges:   -0.0000000

LOEWDIN ATOMIC CHARGES
----------------------
   0 S :    0.370613
   1 C :   -0.177329
   2 C :   -0.063975
   3 C :   -0.053276
   4 C :   -0.191970
   5 H :    0.027127
   6 C :   -0.027382
   7 H :    0.027669
   8 H :    0.033416
   9 C :   -0.023543
  10 H :    0.022022
  11 H :    0.023487
  12 C :   -0.071755
  13 H :    0.024879
  14 H :    0.033454
  15 H :    0.016363
  16 S :    0.370360
  17 C :   -0.167759
  18 C :   -0.073084
  19 C :   -0.045014
  20 C :   -0.180268
  21 H :    0.029398
  22 C :   -0.024826
  23 H :    0.033551
  24 H :    0.031200
  25 C :   -0.045815
  26 H :    0.029940
  27 H :    0.031907
  28 C :   -0.057573
  29 H :    0.027441
  30 H :    0.017167
  31 H :    0.004731
  32 H :    0.026583
  33 H :    0.022261

  Mayer bond orders larger than 0.100000
B(  0-S ,  1-C ) :   1.1419 B(  0-S ,  4-C ) :   1.1232 B(  1-C ,  2-C ) :   1.6140
B(  1-C , 32-H ) :   0.9620 B(  2-C ,  3-C ) :   1.2251 B(  2-C ,  6-C ) :   1.0180
B(  3-C ,  4-C ) :   1.6129 B(  3-C ,  5-H ) :   0.9894 B(  4-C , 20-C ) :   1.0160
B(  6-C ,  7-H ) :   0.9370 B(  6-C ,  8-H ) :   0.9390 B(  6-C ,  9-C ) :   1.0765
B(  9-C , 10-H ) :   0.9513 B(  9-C , 11-H ) :   0.9547 B(  9-C , 12-C ) :   1.0805
B( 12-C , 13-H ) :   0.9717 B( 12-C , 14-H ) :   0.9709 B( 12-C , 15-H ) :   0.9708
B( 16-S , 17-C ) :   1.1513 B( 16-S , 20-C ) :   1.0967 B( 17-C , 18-C ) :   1.6652
B( 17-C , 33-H ) :   0.9659 B( 18-C , 19-C ) :   1.1569 B( 18-C , 21-H ) :   0.9961
B( 19-C , 20-C ) :   1.7080 B( 19-C , 22-C ) :   1.0322 B( 22-C , 23-H ) :   0.9369
B( 22-C , 24-H ) :   0.9366 B( 22-C , 25-C ) :   1.0423 B( 25-C , 26-H ) :   0.9617
B( 25-C , 27-H ) :   0.9636 B( 25-C , 28-C ) :   1.0833 B( 28-C , 29-H ) :   0.9704
B( 28-C , 30-H ) :   0.9695 B( 28-C , 31-H ) :   0.9736

Dispersion correction           -0.014149381
FINAL SINGLE POINT ENERGY     -1339.852354549037

DIPOLE MOMENT
-------------
                                X             Y             Z
Electronic contribution:    -13.00121      -6.52504      -1.60877
Nuclear contribution   :     13.22935       6.71051       1.87067
                        -----------------------------------------
Total Dipole Moment    :      0.22815       0.18547       0.26190
                        -----------------------------------------
Magnitude (a.u.)       :      0.39376
Magnitude (Debye)      :      1.00085

Rotational constants in cm-1:     0.023844     0.007030     0.006260
Rotational constants in MHz :   714.816049   210.765642   187.658562

                             ****ORCA TERMINATED NORMALLY****
TOTAL RUN TIME: 0 days 0 hours 0 minutes 31 seconds 929 msec
