                         Program Version 4.2.1 -  RELEASE  -
|  1> ! wB97X-D3 SP def2-SVP
|  2> %pal
|  3> nprocs 16
|  4> end
|  5>
|  6> * xyz 0 1
|  7> S 	 -37.1447 	 49.1237 	 93.7408
|  8> C 	 -35.5401 	 48.3783 	 93.7419
|  9> C 	 -34.8511 	 48.7778 	 94.8484
| 10> C 	 -35.722 	 49.3931 	 95.8192
| 11> C 	 -37.0335 	 49.6121 	 95.3739
| 12> H 	 -35.467 	 49.6247 	 96.8616
| 13> C 	 -33.3719 	 48.5455 	 95.0913
| 14> H 	 -32.942 	 49.3909 	 95.5487
| 15> H 	 -32.8624 	 48.4662 	 94.1629
| 16> C 	 -33.1866 	 47.2355 	 95.9701
| 17> H 	 -34.0012 	 46.5281 	 95.7802
| 18> H 	 -32.3332 	 46.5708 	 95.792
| 19> C 	 -33.321 	 47.5259 	 97.5105
| 20> H 	 -32.624 	 48.3612 	 97.7054
| 21> H 	 -34.3823 	 47.7478 	 97.745
| 22> H 	 -32.9839 	 46.6579 	 98.1083
| 23> S 	 -39.5668 	 49.153 	 96.2358
| 24> C 	 -40.2748 	 50.2961 	 97.3633
| 25> C 	 -39.3685 	 51.2605 	 97.793
| 26> C 	 -38.0773 	 51.1127 	 97.1679
| 27> C 	 -38.11 	 50.1219 	 96.1791
| 28> H 	 -39.7072 	 51.9859 	 98.5225
| 29> C 	 -36.895 	 52.0146 	 97.5244
| 30> H 	 -35.9687 	 51.6302 	 97.1252
| 31> H 	 -36.8114 	 51.9115 	 98.5641
| 32> C 	 -36.998 	 53.4656 	 97.1183
| 33> H 	 -37.8314 	 53.8894 	 97.5894
| 34> H 	 -37.2664 	 53.6423 	 96.1291
| 35> C 	 -35.714 	 54.2596 	 97.33
| 36> H 	 -35.3631 	 54.2814 	 98.3257
| 37> H 	 -35.8229 	 55.3318 	 97.1196
| 38> H 	 -34.8405 	 53.9001 	 96.7255
| 39> H 	 -35.0607 	 48.038 	 92.848
| 40> H 	 -41.3328 	 50.231 	 97.6726
| 41> *
| 42>
| 43>                          ****END OF INPUT****

CARTESIAN COORDINATES (ANGSTROEM)
---------------------------------
  S    -37.144700   49.123700   93.740800
  C    -35.540100   48.378300   93.741900
  C    -34.851100   48.777800   94.848400
  C    -35.722000   49.393100   95.819200
  C    -37.033500   49.612100   95.373900
  H    -35.467000   49.624700   96.861600
  C    -33.371900   48.545500   95.091300
  H    -32.942000   49.390900   95.548700
  H    -32.862400   48.466200   94.162900
  C    -33.186600   47.235500   95.970100
  H    -34.001200   46.528100   95.780200
  H    -32.333200   46.570800   95.792000
  C    -33.321000   47.525900   97.510500
  H    -32.624000   48.361200   97.705400
  H    -34.382300   47.747800   97.745000
  H    -32.983900   46.657900   98.108300
  S    -39.566800   49.153000   96.235800
  C    -40.274800   50.296100   97.363300
  C    -39.368500   51.260500   97.793000
  C    -38.077300   51.112700   97.167900
  C    -38.110000   50.121900   96.179100
  H    -39.707200   51.985900   98.522500
  C    -36.895000   52.014600   97.524400
  H    -35.968700   51.630200   97.125200
  H    -36.811400   51.911500   98.564100
  C    -36.998000   53.465600   97.118300
  H    -37.831400   53.889400   97.589400
  H    -37.266400   53.642300   96.129100
  C    -35.714000   54.259600   97.330000
  H    -35.363100   54.281400   98.325700
  H    -35.822900   55.331800   97.119600
  H    -34.840500   53.900100   96.725500
  H    -35.060700   48.038000   92.848000
  H    -41.332800   50.231000   97.672600

 Total Charge           Charge          ....    0
 Multiplicity           Mult            ....    1
 Number of Electrons    NEL             ....  134
 Basis Dimension        Dim             ....  322

ORBITAL ENERGIES
----------------

  NO   OCC          E(Eh)            E(eV)
   0   2.0000     -88.966576     -2420.9036
   1   2.0000     -88.964187     -2420.8386
   2   2.0000     -10.326305      -280.9931
   3   2.0000     -10.325989      -280.9844
   4   2.0000     -10.320700      -280.8405
   5   2.0000     -10.309653      -280.5399
   6   2.0000     -10.308958      -280.5210
   7   2.0000     -10.301883      -280.3285
   8   2.0000     -10.298533      -280.2373
   9   2.0000     -10.293357      -280.0965
  10   2.0000     -10.292372      -280.0697
  11   2.0000     -10.289905      -280.0026
  12   2.0000     -10.286110      -279.8993
  13   2.0000     -10.283388      -279.8252
  14   2.0000     -10.276851      -279.6473
  15   2.0000     -10.274216      -279.5756
  16   2.0000      -8.081328      -219.9041
  17   2.0000      -8.079329      -219.8497
  18   2.0000      -6.039765      -164.3504
  19   2.0000      -6.037842      -164.2980
  20   2.0000      -6.035926      -164.2459
  21   2.0000      -6.033779      -164.1875
  22   2.0000      -6.032066      -164.1409
  23   2.0000      -6.030049      -164.0860
  24   2.0000      -1.008352       -27.4386
  25   2.0000      -0.983384       -26.7592
  26   2.0000      -0.914055       -24.8727
  27   2.0000      -0.907504       -24.6944
  28   2.0000      -0.868206       -23.6251
  29   2.0000      -0.852817       -23.2063
  30   2.0000      -0.838608       -22.8197
  31   2.0000      -0.811272       -22.0758
  32   2.0000      -0.785819       -21.3832
  33   2.0000      -0.774025       -21.0623
  34   2.0000      -0.715037       -19.4571
  35   2.0000      -0.700096       -19.0506
  36   2.0000      -0.697528       -18.9807
  37   2.0000      -0.662430       -18.0256
  38   2.0000      -0.639396       -17.3989
  39   2.0000      -0.618459       -16.8291
  40   2.0000      -0.597778       -16.2664
  41   2.0000      -0.570908       -15.5352
  42   2.0000      -0.565589       -15.3905
  43   2.0000      -0.544434       -14.8148
  44   2.0000      -0.537102       -14.6153
  45   2.0000      -0.527727       -14.3602
  46   2.0000      -0.514200       -13.9921
  47   2.0000      -0.512785       -13.9536
  48   2.0000      -0.507454       -13.8085
  49   2.0000      -0.498921       -13.5763
  50   2.0000      -0.491774       -13.3818
  51   2.0000      -0.478833       -13.0297
  52   2.0000      -0.471691       -12.8354
  53   2.0000      -0.465100       -12.6560
  54   2.0000      -0.459004       -12.4901
  55   2.0000      -0.448743       -12.2109
  56   2.0000      -0.442988       -12.0543
  57   2.0000      -0.436622       -11.8811
  58   2.0000      -0.432255       -11.7622
  59   2.0000      -0.428840       -11.6693
  60   2.0000      -0.424539       -11.5523
  61   2.0000      -0.416104       -11.3228
  62   2.0000      -0.412807       -11.2331
  63   2.0000      -0.347890        -9.4666
  64   2.0000      -0.332986        -9.0610
  65   2.0000      -0.325994        -8.8707
  66   2.0000      -0.290193        -7.8966
  67   0.0000       0.025678         0.6987
  68   0.0000       0.076037         2.0691
  69   0.0000       0.107081         2.9138
  70   0.0000       0.111068         3.0223
  71   0.0000       0.142154         3.8682

MULLIKEN ATOMIC CHARGES
-----------------------
   0 S :    0.107184
   1 C :   -0.111730
   2 C :   -0.113744
   3 C :    0.003578
   4 C :   -0.153822
   5 H :    0.026796
   6 C :    0.126833
   7 H :    0.018434
   8 H :    0.012042
   9 C :   -0.094418
  10 H :    0.032959
  11 H :    0.031627
  12 C :   -0.085725
  13 H :    0.032596
  14 H :    0.053604
  15 H :    0.041415
  16 S :    0.112872
  17 C :   -0.109994
  18 C :   -0.034854
  19 C :   -0.050455
  20 C :   -0.147582
  21 H :    0.023807
  22 C :    0.111812
  23 H :    0.002234
  24 H :    0.015515
  25 C :    0.003514
  26 H :   -0.000071
  27 H :    0.012189
  28 C :   -0.063146
  29 H :    0.012855
  30 H :    0.031167
  31 H :    0.038979
  32 H :    0.044691
  33 H :    0.068837
Sum of atomic charges:    0.0000000

LOEWDIN ATOMIC CHARGES
----------------------
   0 S :    0.414059
   1 C :   -0.193490
   2 C :   -0.055333
   3 C :   -0.072875
   4 C :   -0.209485
   5 H :    0.028669
   6 C :   -0.019227
   7 H :    0.024583
   8 H :    0.027011
   9 C :   -0.044167
  10 H :    0.026608
  11 H :    0.022629
  12 C :   -0.070915
  13 H :    0.022699
  14 H :    0.028322
  15 H :    0.028960
  16 S :    0.407382
  17 C :   -0.186081
  18 C :   -0.070865
  19 C :   -0.044645
  20 C :   -0.201018
  21 H :    0.033703
  22 C :   -0.023571
  23 H :    0.025665
  24 H :    0.027825
  25 C :   -0.033107
  26 H :    0.017010
  27 H :    0.022173
  28 C :   -0.066559
  29 H :    0.015380
  30 H :    0.029896
  31 H :    0.031147
  32 H :    0.024273
  33 H :    0.033343

  Mayer bond orders larger than 0.100000
B(  0-S ,  1-C ) :   1.1264 B(  0-S ,  4-C ) :   1.1698 B(  1-C ,  2-C ) :   1.6180
B(  1-C , 32-H ) :   0.9671 B(  2-C ,  3-C ) :   1.2413 B(  2-C ,  6-C ) :   1.0339
B(  3-C ,  4-C ) :   1.5550 B(  3-C ,  5-H ) :   0.9752 B(  4-C , 20-C ) :   1.0539
B(  6-C ,  7-H ) :   0.9487 B(  6-C ,  8-H ) :   0.9367 B(  6-C ,  9-C ) :   1.0338
B(  9-C , 10-H ) :   0.9614 B(  9-C , 11-H ) :   0.9643 B(  9-C , 12-C ) :   1.0692
B( 12-C , 13-H ) :   0.9804 B( 12-C , 14-H ) :   0.9734 B( 12-C , 15-H ) :   0.9734
B( 16-S , 17-C ) :   1.1522 B( 16-S , 20-C ) :   1.1471 B( 17-C , 18-C ) :   1.6137
B( 17-C , 20-C ) :   0.1003 B( 17-C , 33-H ) :   0.9642 B( 18-C , 19-C ) :   1.2229
B( 18-C , 21-H ) :   0.9932 B( 19-C , 20-C ) :   1.5892 B( 19-C , 22-C ) :   1.0420
B( 22-C , 23-H ) :   0.9302 B( 22-C , 24-H ) :   0.9216 B( 22-C , 25-C ) :   1.0688
B( 25-C , 26-H ) :   0.9457 B( 25-C , 27-H ) :   0.9498 B( 25-C , 28-C ) :   1.0893
B( 28-C , 29-H ) :   0.9748 B( 28-C , 30-H ) :   0.9723 B( 28-C , 31-H ) :   0.9735

Dispersion correction           -0.014241184
FINAL SINGLE POINT ENERGY     -1339.873690577840

DIPOLE MOMENT
-------------
                                X             Y             Z
Electronic contribution:    -22.48860      -8.98448     -12.58761
Nuclear contribution   :     22.94244       9.27729      12.98802
                        -----------------------------------------
Total Dipole Moment    :      0.45384       0.29281       0.40041
                        -----------------------------------------
Magnitude (a.u.)       :      0.67234
Magnitude (Debye)      :      1.70894

Rotational constants in cm-1:     0.016056     0.009343     0.007449
Rotational constants in MHz :   481.356117   280.091188   223.303614

                             ****ORCA TERMINATED NORMALLY****
TOTAL RUN TIME: 0 days 0 hours 0 minutes 30 seconds 163 msec
