                         Program Version 4.2.1 -  RELEASE  -
|  1> ! wB97X-D3 SP def2-SVP
|  2> %pal
|  3> nprocs 16
|  4> end
|  5>
|  6> * xyz 0 1
|  7> S 	 -34.362 	 44.1774 	 95.8279
|  8> C 	 -34.0547 	 42.8348 	 94.6815
|  9> C 	 -34.1503 	 41.5744 	 95.2888
| 10> C 	 -34.3726 	 41.6771 	 96.6723
| 11> C 	 -34.4265 	 42.9969 	 97.1808
| 12> H 	 -34.6295 	 40.926 	 97.3944
| 13> C 	 -34.2012 	 40.2212 	 94.5813
| 14> H 	 -33.1751 	 40.1307 	 94.2198
| 15> H 	 -34.8276 	 40.2432 	 93.6662
| 16> C 	 -34.4848 	 38.8915 	 95.4237
| 17> H 	 -33.5554 	 38.6177 	 95.9321
| 18> H 	 -35.3507 	 38.9535 	 96.1692
| 19> C 	 -34.8331 	 37.6481 	 94.5917
| 20> H 	 -34.9261 	 36.7391 	 95.1254
| 21> H 	 -35.7131 	 37.8019 	 94.0116
| 22> H 	 -34.0265 	 37.4911 	 93.8385
| 23> S 	 -36.177 	 44.4064 	 98.7714
| 24> C 	 -35.8262 	 44.618 	 100.478
| 25> C 	 -34.7723 	 43.8194 	 100.881
| 26> C 	 -34.1617 	 43.0697 	 99.8104
| 27> C 	 -34.8027 	 43.3204 	 98.5597
| 28> H 	 -34.4047 	 43.8194 	 101.922
| 29> C 	 -32.9694 	 42.0894 	 100.067
| 30> H 	 -32.1103 	 42.6605 	 100.429
| 31> H 	 -32.6118 	 41.7706 	 99.0757
| 32> C 	 -33.3075 	 40.9395 	 101.02
| 33> H 	 -34.2419 	 40.3621 	 100.753
| 34> H 	 -33.4961 	 41.4591 	 101.973
| 35> C 	 -32.2017 	 39.9515 	 101.251
| 36> H 	 -31.4667 	 40.2849 	 101.995
| 37> H 	 -31.796 	 39.53 	 100.357
| 38> H 	 -32.7487 	 39.2338 	 101.74
| 39> H 	 -33.8575 	 42.9684 	 93.6062
| 40> H 	 -36.266 	 45.3406 	 101.152
| 41> *
| 42>
| 43>                          ****END OF INPUT****

CARTESIAN COORDINATES (ANGSTROEM)
---------------------------------
  S    -34.362000   44.177400   95.827900
  C    -34.054700   42.834800   94.681500
  C    -34.150300   41.574400   95.288800
  C    -34.372600   41.677100   96.672300
  C    -34.426500   42.996900   97.180800
  H    -34.629500   40.926000   97.394400
  C    -34.201200   40.221200   94.581300
  H    -33.175100   40.130700   94.219800
  H    -34.827600   40.243200   93.666200
  C    -34.484800   38.891500   95.423700
  H    -33.555400   38.617700   95.932100
  H    -35.350700   38.953500   96.169200
  C    -34.833100   37.648100   94.591700
  H    -34.926100   36.739100   95.125400
  H    -35.713100   37.801900   94.011600
  H    -34.026500   37.491100   93.838500
  S    -36.177000   44.406400   98.771400
  C    -35.826200   44.618000  100.478000
  C    -34.772300   43.819400  100.881000
  C    -34.161700   43.069700   99.810400
  C    -34.802700   43.320400   98.559700
  H    -34.404700   43.819400  101.922000
  C    -32.969400   42.089400  100.067000
  H    -32.110300   42.660500  100.429000
  H    -32.611800   41.770600   99.075700
  C    -33.307500   40.939500  101.020000
  H    -34.241900   40.362100  100.753000
  H    -33.496100   41.459100  101.973000
  C    -32.201700   39.951500  101.251000
  H    -31.466700   40.284900  101.995000
  H    -31.796000   39.530000  100.357000
  H    -32.748700   39.233800  101.740000
  H    -33.857500   42.968400   93.606200
  H    -36.266000   45.340600  101.152000

 Total Charge           Charge          ....    0
 Multiplicity           Mult            ....    1
 Number of Electrons    NEL             ....  134
 Basis Dimension        Dim             ....  322

ORBITAL ENERGIES
----------------

  NO   OCC          E(Eh)            E(eV)
   0   2.0000     -88.971833     -2421.0467
   1   2.0000     -88.964982     -2420.8602
   2   2.0000     -10.333479      -281.1883
   3   2.0000     -10.330398      -281.1044
   4   2.0000     -10.321383      -280.8591
   5   2.0000     -10.316587      -280.7286
   6   2.0000     -10.309446      -280.5343
   7   2.0000     -10.306694      -280.4594
   8   2.0000     -10.303158      -280.3632
   9   2.0000     -10.301483      -280.3176
  10   2.0000     -10.295811      -280.1633
  11   2.0000     -10.292608      -280.0761
  12   2.0000     -10.292412      -280.0708
  13   2.0000     -10.289800      -279.9997
  14   2.0000     -10.277542      -279.6661
  15   2.0000     -10.268072      -279.4084
  16   2.0000      -8.084575      -219.9925
  17   2.0000      -8.079325      -219.8496
  18   2.0000      -6.043183      -164.4434
  19   2.0000      -6.039411      -164.3407
  20   2.0000      -6.037860      -164.2985
  21   2.0000      -6.035298      -164.2288
  22   2.0000      -6.033842      -164.1892
  23   2.0000      -6.030118      -164.0879
  24   2.0000      -0.995213       -27.0811
  25   2.0000      -0.973730       -26.4965
  26   2.0000      -0.909063       -24.7369
  27   2.0000      -0.902583       -24.5605
  28   2.0000      -0.865833       -23.5605
  29   2.0000      -0.851508       -23.1707
  30   2.0000      -0.846096       -23.0234
  31   2.0000      -0.811075       -22.0705
  32   2.0000      -0.782829       -21.3019
  33   2.0000      -0.769678       -20.9440
  34   2.0000      -0.707176       -19.2432
  35   2.0000      -0.692331       -18.8393
  36   2.0000      -0.690457       -18.7883
  37   2.0000      -0.651059       -17.7162
  38   2.0000      -0.637910       -17.3584
  39   2.0000      -0.614815       -16.7300
  40   2.0000      -0.590366       -16.0647
  41   2.0000      -0.567245       -15.4355
  42   2.0000      -0.566910       -15.4264
  43   2.0000      -0.559699       -15.2302
  44   2.0000      -0.533121       -14.5070
  45   2.0000      -0.525213       -14.2918
  46   2.0000      -0.512720       -13.9518
  47   2.0000      -0.507392       -13.8068
  48   2.0000      -0.502540       -13.6748
  49   2.0000      -0.495328       -13.4786
  50   2.0000      -0.492472       -13.4008
  51   2.0000      -0.481188       -13.0938
  52   2.0000      -0.469752       -12.7826
  53   2.0000      -0.465068       -12.6551
  54   2.0000      -0.453004       -12.3269
  55   2.0000      -0.446667       -12.1544
  56   2.0000      -0.445350       -12.1186
  57   2.0000      -0.433348       -11.7920
  58   2.0000      -0.433083       -11.7848
  59   2.0000      -0.426668       -11.6102
  60   2.0000      -0.418896       -11.3987
  61   2.0000      -0.415382       -11.3031
  62   2.0000      -0.414593       -11.2817
  63   2.0000      -0.341346        -9.2885
  64   2.0000      -0.331055        -9.0085
  65   2.0000      -0.329302        -8.9608
  66   2.0000      -0.285754        -7.7758
  67   0.0000       0.022868         0.6223
  68   0.0000       0.063834         1.7370
  69   0.0000       0.109624         2.9830
  70   0.0000       0.125384         3.4119
  71   0.0000       0.129482         3.5234

MULLIKEN ATOMIC CHARGES
-----------------------
   0 S :    0.117017
   1 C :   -0.151450
   2 C :   -0.041358
   3 C :    0.010152
   4 C :   -0.142701
   5 H :    0.016648
   6 C :    0.046012
   7 H :    0.037928
   8 H :    0.042783
   9 C :   -0.115721
  10 H :    0.039326
  11 H :    0.053795
  12 C :   -0.034624
  13 H :    0.033284
  14 H :    0.026057
  15 H :    0.021678
  16 S :    0.103441
  17 C :   -0.092547
  18 C :   -0.048751
  19 C :   -0.039069
  20 C :   -0.187025
  21 H :    0.032538
  22 C :    0.084440
  23 H :    0.027830
  24 H :    0.014949
  25 C :   -0.132337
  26 H :    0.042464
  27 H :    0.025032
  28 C :    0.024779
  29 H :    0.033361
  30 H :    0.030483
  31 H :    0.006792
  32 H :    0.056656
  33 H :    0.058137
Sum of atomic charges:    0.0000000

LOEWDIN ATOMIC CHARGES
----------------------
   0 S :    0.383047
   1 C :   -0.192885
   2 C :   -0.063530
   3 C :   -0.058313
   4 C :   -0.186526
   5 H :    0.030725
   6 C :   -0.035182
   7 H :    0.039241
   8 H :    0.034159
   9 C :   -0.045743
  10 H :    0.026226
  11 H :    0.031281
  12 C :   -0.062948
  13 H :    0.023370
  14 H :    0.019425
  15 H :    0.026028
  16 S :    0.398574
  17 C :   -0.188307
  18 C :   -0.076990
  19 C :   -0.049627
  20 C :   -0.201236
  21 H :    0.035417
  22 C :   -0.035732
  23 H :    0.032307
  24 H :    0.025130
  25 C :   -0.043251
  26 H :    0.030688
  27 H :    0.025802
  28 C :   -0.058947
  29 H :    0.029895
  30 H :    0.023096
  31 H :    0.020888
  32 H :    0.032497
  33 H :    0.031421

  Mayer bond orders larger than 0.100000
B(  0-S ,  1-C ) :   1.1398 B(  0-S ,  4-C ) :   1.1430 B(  1-C ,  2-C ) :   1.5886
B(  1-C ,  4-C ) :   0.1067 B(  1-C , 32-H ) :   0.9688 B(  2-C ,  3-C ) :   1.2724
B(  2-C ,  6-C ) :   0.9923 B(  3-C ,  4-C ) :   1.5374 B(  3-C ,  5-H ) :   0.9890
B(  4-C , 20-C ) :   1.0623 B(  6-C ,  7-H ) :   0.9287 B(  6-C ,  8-H ) :   0.9544
B(  6-C ,  9-C ) :   1.0635 B(  9-C , 10-H ) :   0.9549 B(  9-C , 11-H ) :   0.9564
B(  9-C , 12-C ) :   1.0856 B( 12-C , 13-H ) :   0.9737 B( 12-C , 14-H ) :   0.9760
B( 12-C , 15-H ) :   0.9731 B( 16-S , 17-C ) :   1.1471 B( 16-S , 20-C ) :   1.1411
B( 17-C , 18-C ) :   1.6145 B( 17-C , 33-H ) :   0.9659 B( 18-C , 19-C ) :   1.2495
B( 18-C , 21-H ) :   0.9807 B( 19-C , 20-C ) :   1.5778 B( 19-C , 22-C ) :   1.0348
B( 22-C , 23-H ) :   0.9345 B( 22-C , 24-H ) :   0.9349 B( 22-C , 25-C ) :   1.0539
B( 25-C , 26-H ) :   0.9628 B( 25-C , 27-H ) :   0.9496 B( 25-C , 28-C ) :   1.0897
B( 28-C , 29-H ) :   0.9698 B( 28-C , 30-H ) :   0.9723 B( 28-C , 31-H ) :   0.9692

Dispersion correction           -0.013415771
FINAL SINGLE POINT ENERGY     -1339.864452037336

DIPOLE MOMENT
-------------
                                X             Y             Z
Electronic contribution:     -9.81527      29.90626      -3.56725
Nuclear contribution   :     10.04820     -30.58176       3.72261
                        -----------------------------------------
Total Dipole Moment    :      0.23293      -0.67550       0.15537
                        -----------------------------------------
Magnitude (a.u.)       :      0.73123
Magnitude (Debye)      :      1.85863

Rotational constants in cm-1:     0.015066     0.009058     0.006396
Rotational constants in MHz :   451.669531   271.558010   191.759959

                             ****ORCA TERMINATED NORMALLY****
TOTAL RUN TIME: 0 days 0 hours 0 minutes 28 seconds 727 msec
