                         Program Version 4.2.1 -  RELEASE  -
|  1> ! wB97X-D3 SP def2-SVP
|  2> %pal
|  3> nprocs 16
|  4> end
|  5>
|  6> * xyz 0 1
|  7> S 	 15.7845 	 2.30787 	 84.6591
|  8> C 	 15.4021 	 3.64596 	 83.6721
|  9> C 	 14.8678 	 4.72457 	 84.3332
| 10> C 	 14.6079 	 4.38196 	 85.7155
| 11> C 	 15.1664 	 3.1442 	 86.0943
| 12> H 	 14.2106 	 5.05405 	 86.4049
| 13> C 	 14.4378 	 6.01527 	 83.6312
| 14> H 	 14.8875 	 6.00284 	 82.6631
| 15> H 	 14.8137 	 6.89759 	 84.1761
| 16> C 	 12.9353 	 6.2178 	 83.4389
| 17> H 	 12.3081 	 6.18708 	 84.3804
| 18> H 	 12.8862 	 7.24479 	 83.1885
| 19> C 	 12.3273 	 5.15219 	 82.5232
| 20> H 	 12.5523 	 5.45045 	 81.4611
| 21> H 	 12.5909 	 4.13664 	 82.8451
| 22> H 	 11.2658 	 5.07731 	 82.6786
| 23> S 	 16.7491 	 1.98812 	 87.8858
| 24> C 	 16.3072 	 1.88468 	 89.5508
| 25> C 	 15.0777 	 2.44198 	 89.7765
| 26> C 	 14.5852 	 3.07641 	 88.5847
| 27> C 	 15.2919 	 2.74958 	 87.4617
| 28> H 	 14.6624 	 2.36152 	 90.7906
| 29> C 	 13.2584 	 3.81532 	 88.5779
| 30> H 	 12.903 	 3.78495 	 87.5352
| 31> H 	 13.4349 	 4.79183 	 88.9381
| 32> C 	 12.2553 	 3.07974 	 89.532
| 33> H 	 12.696 	 3.13348 	 90.5906
| 34> H 	 12.1768 	 2.03526 	 89.267
| 35> C 	 10.8301 	 3.67535 	 89.3634
| 36> H 	 10.2383 	 3.74392 	 88.4285
| 37> H 	 10.8397 	 4.61573 	 89.8218
| 38> H 	 10.1289 	 3.12639 	 89.9613
| 39> H 	 15.744 	 3.75298 	 82.6639
| 40> H 	 17.0107 	 1.42648 	 90.3112
| 41> *
| 42>
| 43>                          ****END OF INPUT****

CARTESIAN COORDINATES (ANGSTROEM)
---------------------------------
  S     15.784500    2.307870   84.659100
  C     15.402100    3.645960   83.672100
  C     14.867800    4.724570   84.333200
  C     14.607900    4.381960   85.715500
  C     15.166400    3.144200   86.094300
  H     14.210600    5.054050   86.404900
  C     14.437800    6.015270   83.631200
  H     14.887500    6.002840   82.663100
  H     14.813700    6.897590   84.176100
  C     12.935300    6.217800   83.438900
  H     12.308100    6.187080   84.380400
  H     12.886200    7.244790   83.188500
  C     12.327300    5.152190   82.523200
  H     12.552300    5.450450   81.461100
  H     12.590900    4.136640   82.845100
  H     11.265800    5.077310   82.678600
  S     16.749100    1.988120   87.885800
  C     16.307200    1.884680   89.550800
  C     15.077700    2.441980   89.776500
  C     14.585200    3.076410   88.584700
  C     15.291900    2.749580   87.461700
  H     14.662400    2.361520   90.790600
  C     13.258400    3.815320   88.577900
  H     12.903000    3.784950   87.535200
  H     13.434900    4.791830   88.938100
  C     12.255300    3.079740   89.532000
  H     12.696000    3.133480   90.590600
  H     12.176800    2.035260   89.267000
  C     10.830100    3.675350   89.363400
  H     10.238300    3.743920   88.428500
  H     10.839700    4.615730   89.821800
  H     10.128900    3.126390   89.961300
  H     15.744000    3.752980   82.663900
  H     17.010700    1.426480   90.311200

 Total Charge           Charge          ....    0
 Multiplicity           Mult            ....    1
 Number of Electrons    NEL             ....  134
 Basis Dimension        Dim             ....  322

ORBITAL ENERGIES
----------------

  NO   OCC          E(Eh)            E(eV)
   0   2.0000     -88.970165     -2421.0013
   1   2.0000     -88.958394     -2420.6810
   2   2.0000     -10.331570      -281.1363
   3   2.0000     -10.316841      -280.7355
   4   2.0000     -10.315948      -280.7112
   5   2.0000     -10.306804      -280.4624
   6   2.0000     -10.299065      -280.2518
   7   2.0000     -10.298085      -280.2252
   8   2.0000     -10.295643      -280.1587
   9   2.0000     -10.294191      -280.1192
  10   2.0000     -10.292234      -280.0659
  11   2.0000     -10.291553      -280.0474
  12   2.0000     -10.287727      -279.9433
  13   2.0000     -10.286136      -279.9000
  14   2.0000     -10.278370      -279.6887
  15   2.0000     -10.273040      -279.5436
  16   2.0000      -8.084962      -220.0030
  17   2.0000      -8.075102      -219.7347
  18   2.0000      -6.043528      -164.4528
  19   2.0000      -6.039499      -164.3431
  20   2.0000      -6.035626      -164.2377
  21   2.0000      -6.033464      -164.1789
  22   2.0000      -6.029355      -164.0671
  23   2.0000      -6.025873      -163.9724
  24   2.0000      -1.015024       -27.6202
  25   2.0000      -0.987930       -26.8829
  26   2.0000      -0.912876       -24.8406
  27   2.0000      -0.906555       -24.6686
  28   2.0000      -0.875958       -23.8360
  29   2.0000      -0.851359       -23.1667
  30   2.0000      -0.842770       -22.9329
  31   2.0000      -0.813509       -22.1367
  32   2.0000      -0.783609       -21.3231
  33   2.0000      -0.773858       -21.0577
  34   2.0000      -0.713213       -19.4075
  35   2.0000      -0.700726       -19.0677
  36   2.0000      -0.691912       -18.8279
  37   2.0000      -0.658380       -17.9154
  38   2.0000      -0.637730       -17.3535
  39   2.0000      -0.621326       -16.9071
  40   2.0000      -0.593543       -16.1511
  41   2.0000      -0.569598       -15.4995
  42   2.0000      -0.567876       -15.4527
  43   2.0000      -0.553459       -15.0604
  44   2.0000      -0.542995       -14.7756
  45   2.0000      -0.522734       -14.2243
  46   2.0000      -0.520426       -14.1615
  47   2.0000      -0.508041       -13.8245
  48   2.0000      -0.500109       -13.6087
  49   2.0000      -0.497747       -13.5444
  50   2.0000      -0.490388       -13.3441
  51   2.0000      -0.486839       -13.2476
  52   2.0000      -0.474261       -12.9053
  53   2.0000      -0.464107       -12.6290
  54   2.0000      -0.462058       -12.5732
  55   2.0000      -0.449472       -12.2307
  56   2.0000      -0.446043       -12.1374
  57   2.0000      -0.432813       -11.7774
  58   2.0000      -0.429804       -11.6956
  59   2.0000      -0.426293       -11.6000
  60   2.0000      -0.422758       -11.5038
  61   2.0000      -0.410546       -11.1715
  62   2.0000      -0.407473       -11.0879
  63   2.0000      -0.360934        -9.8215
  64   2.0000      -0.330586        -8.9957
  65   2.0000      -0.326186        -8.8760
  66   2.0000      -0.282766        -7.6945
  67   0.0000       0.028492         0.7753
  68   0.0000       0.084038         2.2868
  69   0.0000       0.115837         3.1521
  70   0.0000       0.119782         3.2594
  71   0.0000       0.137488         3.7412

MULLIKEN ATOMIC CHARGES
-----------------------
   0 S :    0.127799
   1 C :   -0.105194
   2 C :   -0.109201
   3 C :    0.017307
   4 C :   -0.130347
   5 H :   -0.007741
   6 C :    0.085624
   7 H :    0.006680
   8 H :    0.032891
   9 C :   -0.075321
  10 H :    0.026802
  11 H :    0.019650
  12 C :   -0.051642
  13 H :    0.045533
  14 H :    0.046563
  15 H :    0.022341
  16 S :    0.094547
  17 C :   -0.117858
  18 C :   -0.044564
  19 C :   -0.079568
  20 C :   -0.117664
  21 H :    0.031195
  22 C :    0.072571
  23 H :    0.042322
  24 H :    0.029068
  25 C :   -0.122689
  26 H :    0.051200
  27 H :    0.039508
  28 C :   -0.017537
  29 H :    0.043564
  30 H :    0.011993
  31 H :    0.012910
  32 H :    0.041177
  33 H :    0.078081
Sum of atomic charges:   -0.0000000

LOEWDIN ATOMIC CHARGES
----------------------
   0 S :    0.414855
   1 C :   -0.211528
   2 C :   -0.060929
   3 C :   -0.053132
   4 C :   -0.186770
   5 H :    0.018288
   6 C :   -0.026682
   7 H :    0.025470
   8 H :    0.033544
   9 C :   -0.045268
  10 H :    0.027017
  11 H :    0.019504
  12 C :   -0.071653
  13 H :    0.031954
  14 H :    0.033500
  15 H :    0.023595
  16 S :    0.427375
  17 C :   -0.199581
  18 C :   -0.079837
  19 C :   -0.059909
  20 C :   -0.214419
  21 H :    0.038141
  22 C :   -0.029561
  23 H :    0.034431
  24 H :    0.025201
  25 C :   -0.035584
  26 H :    0.033318
  27 H :    0.023531
  28 C :   -0.074611
  29 H :    0.034495
  30 H :    0.017184
  31 H :    0.022912
  32 H :    0.024275
  33 H :    0.040871

  Mayer bond orders larger than 0.100000
B(  0-S ,  1-C ) :   1.1380 B(  0-S ,  4-C ) :   1.1397 B(  1-C ,  2-C ) :   1.6210
B(  1-C , 32-H ) :   0.9568 B(  2-C ,  3-C ) :   1.2453 B(  2-C ,  6-C ) :   1.0379
B(  3-C ,  4-C ) :   1.5429 B(  3-C ,  5-H ) :   0.9947 B(  4-C , 20-C ) :   1.0844
B(  6-C ,  7-H ) :   0.9362 B(  6-C ,  8-H ) :   0.9356 B(  6-C ,  9-C ) :   1.0700
B(  9-C , 10-H ) :   0.9581 B(  9-C , 11-H ) :   0.9577 B(  9-C , 12-C ) :   1.0651
B( 12-C , 13-H ) :   0.9767 B( 12-C , 14-H ) :   0.9698 B( 12-C , 15-H ) :   0.9733
B( 16-S , 17-C ) :   1.1685 B( 16-S , 20-C ) :   1.1374 B( 17-C , 18-C ) :   1.6060
B( 17-C , 33-H ) :   0.9583 B( 18-C , 19-C ) :   1.2204 B( 18-C , 21-H ) :   0.9911
B( 19-C , 20-C ) :   1.6059 B( 19-C , 22-C ) :   1.0356 B( 22-C , 23-H ) :   0.9420
B( 22-C , 24-H ) :   0.9179 B( 22-C , 25-C ) :   1.0700 B( 25-C , 26-H ) :   0.9455
B( 25-C , 27-H ) :   0.9641 B( 25-C , 28-C ) :   1.0750 B( 28-C , 29-H ) :   0.9765
B( 28-C , 30-H ) :   0.9717 B( 28-C , 31-H ) :   0.9700

Dispersion correction           -0.014016936
FINAL SINGLE POINT ENERGY     -1339.865026363844

DIPOLE MOMENT
-------------
                                X             Y             Z
Electronic contribution:     25.05874     -15.12809       0.99096
Nuclear contribution   :    -25.48220      15.63740      -0.79780
                        -----------------------------------------
Total Dipole Moment    :     -0.42347       0.50931       0.19317
                        -----------------------------------------
Magnitude (a.u.)       :      0.68995
Magnitude (Debye)      :      1.75373

Rotational constants in cm-1:     0.017657     0.009297     0.006595
Rotational constants in MHz :   529.345622   278.703435   197.701274

                             ****ORCA TERMINATED NORMALLY****
TOTAL RUN TIME: 0 days 0 hours 0 minutes 35 seconds 705 msec
