                         Program Version 4.2.1 -  RELEASE  -
|  1> ! wB97X-D3 SP def2-SVP
|  2> %pal
|  3> nprocs 16
|  4> end
|  5>
|  6> * xyz 0 1
|  7> S 	 -72.1901 	 39.8484 	 121.702
|  8> C 	 -73.4052 	 39.9748 	 122.911
|  9> C 	 -74.4476 	 39.0857 	 122.719
| 10> C 	 -74.3354 	 38.4066 	 121.448
| 11> C 	 -73.2087 	 38.7506 	 120.709
| 12> H 	 -75.0296 	 37.6221 	 120.991
| 13> C 	 -75.7068 	 38.8957 	 123.448
| 14> H 	 -75.39 	 38.6375 	 124.477
| 15> H 	 -76.2224 	 38.0561 	 123.069
| 16> C 	 -76.4912 	 40.1822 	 123.243
| 17> H 	 -76.0283 	 41.0806 	 123.506
| 18> H 	 -76.7497 	 40.3795 	 122.149
| 19> C 	 -77.8215 	 40.0295 	 123.957
| 20> H 	 -77.7684 	 40.0855 	 125.078
| 21> H 	 -78.4982 	 40.8111 	 123.744
| 22> H 	 -78.3834 	 39.1889 	 123.592
| 23> S 	 -72.7404 	 39.3823 	 117.997
| 24> C 	 -72.6235 	 38.0503 	 116.821
| 25> C 	 -72.6259 	 36.8556 	 117.495
| 26> C 	 -72.9467 	 36.9391 	 118.937
| 27> C 	 -72.9107 	 38.2418 	 119.399
| 28> H 	 -72.5206 	 35.9013 	 116.951
| 29> C 	 -73.2342 	 35.6635 	 119.797
| 30> H 	 -73.2451 	 35.9319 	 120.885
| 31> H 	 -72.47 	 34.9477 	 119.605
| 32> C 	 -74.5495 	 34.9298 	 119.42
| 33> H 	 -74.579 	 34.4182 	 118.463
| 34> H 	 -75.3792 	 35.5897 	 119.325
| 35> C 	 -74.7791 	 33.7733 	 120.402
| 36> H 	 -73.9908 	 33.0445 	 120.376
| 37> H 	 -75.8074 	 33.3609 	 120.217
| 38> H 	 -74.745 	 34.2078 	 121.392
| 39> H 	 -73.4604 	 40.8536 	 123.523
| 40> H 	 -72.4544 	 38.1598 	 115.804
| 41> *
| 42>
| 43>                          ****END OF INPUT****

CARTESIAN COORDINATES (ANGSTROEM)
---------------------------------
  S    -72.190100   39.848400  121.702000
  C    -73.405200   39.974800  122.911000
  C    -74.447600   39.085700  122.719000
  C    -74.335400   38.406600  121.448000
  C    -73.208700   38.750600  120.709000
  H    -75.029600   37.622100  120.991000
  C    -75.706800   38.895700  123.448000
  H    -75.390000   38.637500  124.477000
  H    -76.222400   38.056100  123.069000
  C    -76.491200   40.182200  123.243000
  H    -76.028300   41.080600  123.506000
  H    -76.749700   40.379500  122.149000
  C    -77.821500   40.029500  123.957000
  H    -77.768400   40.085500  125.078000
  H    -78.498200   40.811100  123.744000
  H    -78.383400   39.188900  123.592000
  S    -72.740400   39.382300  117.997000
  C    -72.623500   38.050300  116.821000
  C    -72.625900   36.855600  117.495000
  C    -72.946700   36.939100  118.937000
  C    -72.910700   38.241800  119.399000
  H    -72.520600   35.901300  116.951000
  C    -73.234200   35.663500  119.797000
  H    -73.245100   35.931900  120.885000
  H    -72.470000   34.947700  119.605000
  C    -74.549500   34.929800  119.420000
  H    -74.579000   34.418200  118.463000
  H    -75.379200   35.589700  119.325000
  C    -74.779100   33.773300  120.402000
  H    -73.990800   33.044500  120.376000
  H    -75.807400   33.360900  120.217000
  H    -74.745000   34.207800  121.392000
  H    -73.460400   40.853600  123.523000
  H    -72.454400   38.159800  115.804000

 Total Charge           Charge          ....    0
 Multiplicity           Mult            ....    1
 Number of Electrons    NEL             ....  134
 Basis Dimension        Dim             ....  322

ORBITAL ENERGIES
----------------

  NO   OCC          E(Eh)            E(eV)
   0   2.0000     -88.963182     -2420.8113
   1   2.0000     -88.961062     -2420.7536
   2   2.0000     -10.329956      -281.0924
   3   2.0000     -10.328959      -281.0653
   4   2.0000     -10.319129      -280.7978
   5   2.0000     -10.312478      -280.6168
   6   2.0000     -10.309166      -280.5267
   7   2.0000     -10.300747      -280.2976
   8   2.0000     -10.299732      -280.2700
   9   2.0000     -10.299140      -280.2538
  10   2.0000     -10.298720      -280.2424
  11   2.0000     -10.287849      -279.9466
  12   2.0000     -10.287682      -279.9421
  13   2.0000     -10.285519      -279.8832
  14   2.0000     -10.280581      -279.7488
  15   2.0000     -10.272111      -279.5183
  16   2.0000      -8.077791      -219.8079
  17   2.0000      -8.074689      -219.7235
  18   2.0000      -6.036403      -164.2589
  19   2.0000      -6.033544      -164.1811
  20   2.0000      -6.032263      -164.1462
  21   2.0000      -6.029382      -164.0678
  22   2.0000      -6.028511      -164.0441
  23   2.0000      -6.025100      -163.9513
  24   2.0000      -0.999250       -27.1910
  25   2.0000      -0.976698       -26.5773
  26   2.0000      -0.921213       -25.0675
  27   2.0000      -0.907924       -24.7059
  28   2.0000      -0.873060       -23.7572
  29   2.0000      -0.851424       -23.1684
  30   2.0000      -0.841298       -22.8929
  31   2.0000      -0.811546       -22.0833
  32   2.0000      -0.778418       -21.1818
  33   2.0000      -0.768922       -20.9234
  34   2.0000      -0.713058       -19.4033
  35   2.0000      -0.704745       -19.1771
  36   2.0000      -0.699715       -19.0402
  37   2.0000      -0.660305       -17.9678
  38   2.0000      -0.641374       -17.4527
  39   2.0000      -0.611500       -16.6398
  40   2.0000      -0.593730       -16.1562
  41   2.0000      -0.578257       -15.7352
  42   2.0000      -0.569242       -15.4899
  43   2.0000      -0.557016       -15.1572
  44   2.0000      -0.530490       -14.4354
  45   2.0000      -0.527202       -14.3459
  46   2.0000      -0.520515       -14.1639
  47   2.0000      -0.514118       -13.9899
  48   2.0000      -0.509059       -13.8522
  49   2.0000      -0.504832       -13.7372
  50   2.0000      -0.493661       -13.4332
  51   2.0000      -0.473944       -12.8967
  52   2.0000      -0.469452       -12.7744
  53   2.0000      -0.461711       -12.5638
  54   2.0000      -0.454482       -12.3671
  55   2.0000      -0.451627       -12.2894
  56   2.0000      -0.447380       -12.1738
  57   2.0000      -0.441267       -12.0075
  58   2.0000      -0.431390       -11.7387
  59   2.0000      -0.424171       -11.5423
  60   2.0000      -0.420044       -11.4300
  61   2.0000      -0.413396       -11.2491
  62   2.0000      -0.410082       -11.1589
  63   2.0000      -0.342549        -9.3212
  64   2.0000      -0.325518        -8.8578
  65   2.0000      -0.324282        -8.8242
  66   2.0000      -0.295826        -8.0498
  67   0.0000       0.025815         0.7025
  68   0.0000       0.067939         1.8487
  69   0.0000       0.109072         2.9680
  70   0.0000       0.121513         3.3065
  71   0.0000       0.124812         3.3963

MULLIKEN ATOMIC CHARGES
-----------------------
   0 S :    0.109481
   1 C :   -0.130142
   2 C :   -0.094302
   3 C :   -0.015827
   4 C :   -0.161267
   5 H :    0.042096
   6 C :    0.120588
   7 H :    0.040604
   8 H :    0.006827
   9 C :   -0.085335
  10 H :    0.016268
  11 H :    0.039580
  12 C :   -0.020170
  13 H :    0.035408
  14 H :    0.007813
  15 H :    0.021301
  16 S :    0.080633
  17 C :   -0.065423
  18 C :   -0.025661
  19 C :   -0.037232
  20 C :   -0.146747
  21 H :    0.029582
  22 C :    0.050388
  23 H :    0.047556
  24 H :    0.022469
  25 C :   -0.085837
  26 H :    0.023894
  27 H :    0.021990
  28 C :   -0.036239
  29 H :    0.030604
  30 H :    0.045598
  31 H :    0.016678
  32 H :    0.053852
  33 H :    0.040970
Sum of atomic charges:   -0.0000000

LOEWDIN ATOMIC CHARGES
----------------------
   0 S :    0.396846
   1 C :   -0.212102
   2 C :   -0.058403
   3 C :   -0.067204
   4 C :   -0.187793
   5 H :    0.043751
   6 C :   -0.027134
   7 H :    0.039534
   8 H :    0.025564
   9 C :   -0.032061
  10 H :    0.015780
  11 H :    0.039123
  12 C :   -0.070673
  13 H :    0.029711
  14 H :    0.017260
  15 H :    0.022616
  16 S :    0.357837
  17 C :   -0.158486
  18 C :   -0.071450
  19 C :   -0.044756
  20 C :   -0.184989
  21 H :    0.033576
  22 C :   -0.027006
  23 H :    0.036859
  24 H :    0.028261
  25 C :   -0.043044
  26 H :    0.023797
  27 H :    0.015355
  28 C :   -0.060721
  29 H :    0.022076
  30 H :    0.033943
  31 H :    0.019195
  32 H :    0.025227
  33 H :    0.019513

  Mayer bond orders larger than 0.100000
B(  0-S ,  1-C ) :   1.1419 B(  0-S ,  4-C ) :   1.1366 B(  1-C ,  2-C ) :   1.5958
B(  1-C , 32-H ) :   0.9671 B(  2-C ,  3-C ) :   1.2441 B(  2-C ,  6-C ) :   1.0288
B(  3-C ,  4-C ) :   1.5751 B(  3-C ,  5-H ) :   0.9770 B(  4-C , 20-C ) :   1.0699
B(  6-C ,  7-H ) :   0.9290 B(  6-C ,  8-H ) :   0.9367 B(  6-C ,  9-C ) :   1.0613
B(  9-C , 10-H ) :   0.9604 B(  9-C , 11-H ) :   0.9516 B(  9-C , 12-C ) :   1.0926
B( 12-C , 13-H ) :   0.9725 B( 12-C , 14-H ) :   0.9680 B( 12-C , 15-H ) :   0.9709
B( 16-S , 17-C ) :   1.1309 B( 16-S , 20-C ) :   1.0987 B( 17-C , 18-C ) :   1.6522
B( 17-C , 33-H ) :   0.9761 B( 18-C , 19-C ) :   1.1930 B( 18-C , 21-H ) :   0.9811
B( 19-C , 20-C ) :   1.6376 B( 19-C , 22-C ) :   1.0414 B( 22-C , 23-H ) :   0.9421
B( 22-C , 24-H ) :   0.9323 B( 22-C , 25-C ) :   1.0536 B( 25-C , 26-H ) :   0.9514
B( 25-C , 27-H ) :   0.9578 B( 25-C , 28-C ) :   1.0799 B( 28-C , 29-H ) :   0.9747
B( 28-C , 30-H ) :   0.9733 B( 28-C , 31-H ) :   0.9753

Dispersion correction           -0.014149121
FINAL SINGLE POINT ENERGY     -1339.859267744609

DIPOLE MOMENT
-------------
                                X             Y             Z
Electronic contribution:     21.64425      14.96675     -12.12448
Nuclear contribution   :    -22.24840     -15.46551      12.16334
                        -----------------------------------------
Total Dipole Moment    :     -0.60415      -0.49876       0.03886
                        -----------------------------------------
Magnitude (a.u.)       :      0.78439
Magnitude (Debye)      :      1.99376

Rotational constants in cm-1:     0.016726     0.008738     0.006764
Rotational constants in MHz :   501.438204   261.951771   202.766132

                             ****ORCA TERMINATED NORMALLY****
TOTAL RUN TIME: 0 days 0 hours 0 minutes 33 seconds 953 msec
