                         Program Version 4.2.1 -  RELEASE  -
|  1> ! wB97X-D3 SP def2-SVP
|  2> %pal
|  3> nprocs 16
|  4> end
|  5>
|  6> * xyz 0 1
|  7> S 	 36.1384 	 23.511 	 82.0109
|  8> C 	 34.7997 	 23.6 	 83.0886
|  9> C 	 34.9223 	 22.9195 	 84.2914
| 10> C 	 36.2548 	 22.4025 	 84.2993
| 11> C 	 37.1148 	 22.7058 	 83.2384
| 12> H 	 36.5625 	 21.7337 	 85.0664
| 13> C 	 33.7938 	 22.6889 	 85.2709
| 14> H 	 34.1829 	 22.2437 	 86.1534
| 15> H 	 33.0963 	 21.9485 	 84.8291
| 16> C 	 33.0519 	 23.932 	 85.7493
| 17> H 	 33.7827 	 24.4452 	 86.4081
| 18> H 	 32.7309 	 24.6415 	 84.944
| 19> C 	 31.8471 	 23.6217 	 86.6547
| 20> H 	 31.538 	 24.5466 	 87.1383
| 21> H 	 30.88 	 23.3605 	 86.173
| 22> H 	 32.0273 	 22.8864 	 87.4979
| 23> S 	 39.3881 	 21.206 	 83.958
| 24> C 	 40.9507 	 21.6316 	 83.2724
| 25> C 	 40.7819 	 22.439 	 82.188
| 26> C 	 39.5209 	 23.0389 	 82.1841
| 27> C 	 38.5989 	 22.4967 	 83.0921
| 28> H 	 41.5617 	 22.7572 	 81.4927
| 29> C 	 39.2232 	 24.2396 	 81.3057
| 30> H 	 38.3692 	 24.019 	 80.6297
| 31> H 	 40.0216 	 24.269 	 80.6333
| 32> C 	 39.0236 	 25.624 	 81.9737
| 33> H 	 38.2558 	 25.5857 	 82.8553
| 34> H 	 38.5815 	 26.4119 	 81.3782
| 35> C 	 40.3665 	 26.1943 	 82.4031
| 36> H 	 40.8498 	 26.5387 	 81.5268
| 37> H 	 41.0424 	 25.536 	 82.9524
| 38> H 	 40.1921 	 27.1112 	 83.0155
| 39> H 	 33.883 	 24.1391 	 82.7691
| 40> H 	 41.7676 	 21.0858 	 83.6279
| 41> *
| 42>
| 43>                          ****END OF INPUT****

CARTESIAN COORDINATES (ANGSTROEM)
---------------------------------
  S     36.138400   23.511000   82.010900
  C     34.799700   23.600000   83.088600
  C     34.922300   22.919500   84.291400
  C     36.254800   22.402500   84.299300
  C     37.114800   22.705800   83.238400
  H     36.562500   21.733700   85.066400
  C     33.793800   22.688900   85.270900
  H     34.182900   22.243700   86.153400
  H     33.096300   21.948500   84.829100
  C     33.051900   23.932000   85.749300
  H     33.782700   24.445200   86.408100
  H     32.730900   24.641500   84.944000
  C     31.847100   23.621700   86.654700
  H     31.538000   24.546600   87.138300
  H     30.880000   23.360500   86.173000
  H     32.027300   22.886400   87.497900
  S     39.388100   21.206000   83.958000
  C     40.950700   21.631600   83.272400
  C     40.781900   22.439000   82.188000
  C     39.520900   23.038900   82.184100
  C     38.598900   22.496700   83.092100
  H     41.561700   22.757200   81.492700
  C     39.223200   24.239600   81.305700
  H     38.369200   24.019000   80.629700
  H     40.021600   24.269000   80.633300
  C     39.023600   25.624000   81.973700
  H     38.255800   25.585700   82.855300
  H     38.581500   26.411900   81.378200
  C     40.366500   26.194300   82.403100
  H     40.849800   26.538700   81.526800
  H     41.042400   25.536000   82.952400
  H     40.192100   27.111200   83.015500
  H     33.883000   24.139100   82.769100
  H     41.767600   21.085800   83.627900

 Total Charge           Charge          ....    0
 Multiplicity           Mult            ....    1
 Number of Electrons    NEL             ....  134
 Basis Dimension        Dim             ....  322

ORBITAL ENERGIES
----------------

  NO   OCC          E(Eh)            E(eV)
   0   2.0000     -88.967830     -2420.9377
   1   2.0000     -88.963348     -2420.8158
   2   2.0000     -10.335641      -281.2471
   3   2.0000     -10.331588      -281.1368
   4   2.0000     -10.315629      -280.7025
   5   2.0000     -10.313480      -280.6441
   6   2.0000     -10.302132      -280.3353
   7   2.0000     -10.299523      -280.2643
   8   2.0000     -10.296578      -280.1841
   9   2.0000     -10.295138      -280.1450
  10   2.0000     -10.295042      -280.1423
  11   2.0000     -10.294228      -280.1202
  12   2.0000     -10.288333      -279.9598
  13   2.0000     -10.286808      -279.9183
  14   2.0000     -10.286181      -279.9012
  15   2.0000     -10.269234      -279.4401
  16   2.0000      -8.082152      -219.9265
  17   2.0000      -8.078301      -219.8217
  18   2.0000      -6.040635      -164.3740
  19   2.0000      -6.036741      -164.2681
  20   2.0000      -6.036686      -164.2666
  21   2.0000      -6.033016      -164.1667
  22   2.0000      -6.032821      -164.1614
  23   2.0000      -6.029104      -164.0603
  24   2.0000      -1.006483       -27.3878
  25   2.0000      -0.988561       -26.9001
  26   2.0000      -0.913743       -24.8642
  27   2.0000      -0.905006       -24.6265
  28   2.0000      -0.866327       -23.5740
  29   2.0000      -0.853173       -23.2160
  30   2.0000      -0.845161       -22.9980
  31   2.0000      -0.813557       -22.1380
  32   2.0000      -0.783291       -21.3144
  33   2.0000      -0.772120       -21.0105
  34   2.0000      -0.702110       -19.1054
  35   2.0000      -0.701439       -19.0871
  36   2.0000      -0.686693       -18.6859
  37   2.0000      -0.669180       -18.2093
  38   2.0000      -0.637237       -17.3401
  39   2.0000      -0.614526       -16.7221
  40   2.0000      -0.596551       -16.2330
  41   2.0000      -0.579585       -15.7713
  42   2.0000      -0.560406       -15.2494
  43   2.0000      -0.553850       -15.0710
  44   2.0000      -0.543880       -14.7997
  45   2.0000      -0.516870       -14.0647
  46   2.0000      -0.515124       -14.0172
  47   2.0000      -0.509795       -13.8722
  48   2.0000      -0.508171       -13.8280
  49   2.0000      -0.494038       -13.4434
  50   2.0000      -0.487020       -13.2525
  51   2.0000      -0.477904       -13.0044
  52   2.0000      -0.470637       -12.8067
  53   2.0000      -0.464945       -12.6518
  54   2.0000      -0.459990       -12.5170
  55   2.0000      -0.447807       -12.1855
  56   2.0000      -0.438708       -11.9379
  57   2.0000      -0.435077       -11.8390
  58   2.0000      -0.431417       -11.7395
  59   2.0000      -0.430351       -11.7104
  60   2.0000      -0.421203       -11.4615
  61   2.0000      -0.416191       -11.3251
  62   2.0000      -0.403832       -10.9888
  63   2.0000      -0.356424        -9.6988
  64   2.0000      -0.331202        -9.0125
  65   2.0000      -0.329767        -8.9734
  66   2.0000      -0.280400        -7.6301
  67   0.0000       0.018054         0.4913
  68   0.0000       0.080077         2.1790
  69   0.0000       0.112184         3.0527
  70   0.0000       0.116313         3.1650
  71   0.0000       0.133707         3.6384

MULLIKEN ATOMIC CHARGES
-----------------------
   0 S :    0.104433
   1 C :   -0.147955
   2 C :   -0.074126
   3 C :    0.007555
   4 C :   -0.131324
   5 H :   -0.005509
   6 C :    0.106181
   7 H :    0.006221
   8 H :    0.049745
   9 C :   -0.106646
  10 H :    0.040455
  11 H :    0.044026
  12 C :   -0.073526
  13 H :    0.026432
  14 H :    0.035185
  15 H :    0.040832
  16 S :    0.081712
  17 C :   -0.080167
  18 C :    0.006667
  19 C :   -0.124361
  20 C :   -0.078875
  21 H :    0.027294
  22 C :    0.084244
  23 H :    0.038559
  24 H :   -0.016298
  25 C :   -0.065043
  26 H :    0.047272
  27 H :    0.024254
  28 C :   -0.055522
  29 H :    0.015936
  30 H :    0.040394
  31 H :    0.031605
  32 H :    0.057455
  33 H :    0.042895
Sum of atomic charges:    0.0000000

LOEWDIN ATOMIC CHARGES
----------------------
   0 S :    0.431775
   1 C :   -0.202116
   2 C :   -0.067395
   3 C :   -0.062109
   4 C :   -0.190402
   5 H :    0.019463
   6 C :   -0.030455
   7 H :    0.026169
   8 H :    0.038640
   9 C :   -0.042542
  10 H :    0.032692
  11 H :    0.028768
  12 C :   -0.079625
  13 H :    0.026948
  14 H :    0.026932
  15 H :    0.031270
  16 S :    0.404354
  17 C :   -0.163452
  18 C :   -0.067636
  19 C :   -0.067023
  20 C :   -0.192136
  21 H :    0.037148
  22 C :   -0.038699
  23 H :    0.024812
  24 H :    0.017998
  25 C :   -0.045791
  26 H :    0.030852
  27 H :    0.024849
  28 C :   -0.067071
  29 H :    0.016940
  30 H :    0.023574
  31 H :    0.030180
  32 H :    0.027856
  33 H :    0.015231

  Mayer bond orders larger than 0.100000
B(  0-S ,  1-C ) :   1.1754 B(  0-S ,  4-C ) :   1.1427 B(  1-C ,  2-C ) :   1.5723
B(  1-C , 32-H ) :   0.9589 B(  2-C ,  3-C ) :   1.2950 B(  2-C ,  6-C ) :   1.0168
B(  3-C ,  4-C ) :   1.5397 B(  3-C ,  5-H ) :   0.9907 B(  4-C , 20-C ) :   1.0575
B(  6-C ,  7-H ) :   0.9327 B(  6-C ,  8-H ) :   0.9390 B(  6-C ,  9-C ) :   1.0606
B(  9-C , 10-H ) :   0.9566 B(  9-C , 11-H ) :   0.9569 B(  9-C , 12-C ) :   1.0840
B( 12-C , 13-H ) :   0.9725 B( 12-C , 14-H ) :   0.9736 B( 12-C , 15-H ) :   0.9727
B( 16-S , 17-C ) :   1.1702 B( 16-S , 20-C ) :   1.1475 B( 17-C , 18-C ) :   1.5508
B( 17-C , 20-C ) :   0.1012 B( 17-C , 33-H ) :   0.9809 B( 18-C , 19-C ) :   1.2983
B( 18-C , 21-H ) :   0.9833 B( 19-C , 20-C ) :   1.5446 B( 19-C , 22-C ) :   1.0429
B( 22-C , 23-H ) :   0.9264 B( 22-C , 24-H ) :   0.9248 B( 22-C , 25-C ) :   1.0530
B( 25-C , 26-H ) :   0.9591 B( 25-C , 27-H ) :   0.9548 B( 25-C , 28-C ) :   1.0703
B( 28-C , 29-H ) :   0.9741 B( 28-C , 30-H ) :   0.9812 B( 28-C , 31-H ) :   0.9722

Dispersion correction           -0.014153082
FINAL SINGLE POINT ENERGY     -1339.872053941610

DIPOLE MOMENT
-------------
                                X             Y             Z
Electronic contribution:     10.77184     -14.89146      -7.47051
Nuclear contribution   :    -10.95932      15.09834       7.54390
                        -----------------------------------------
Total Dipole Moment    :     -0.18748       0.20689       0.07339
                        -----------------------------------------
Magnitude (a.u.)       :      0.28868
Magnitude (Debye)      :      0.73377

Rotational constants in cm-1:     0.023533     0.007170     0.006165
Rotational constants in MHz :   705.491772   214.966068   184.835667

                             ****ORCA TERMINATED NORMALLY****
TOTAL RUN TIME: 0 days 0 hours 0 minutes 29 seconds 297 msec
