                         Program Version 4.2.1 -  RELEASE  -
|  1> ! wB97X-D3 SP def2-SVP
|  2> %pal
|  3> nprocs 16
|  4> end
|  5>
|  6> * xyz 0 1
|  7> S 	 18.6747 	 -9.06691 	 84.4964
|  8> C 	 17.6847 	 -9.72947 	 83.2436
|  9> C 	 16.3089 	 -9.67783 	 83.5119
| 10> C 	 16.1169 	 -9.17014 	 84.8553
| 11> C 	 17.2667 	 -8.77775 	 85.4693
| 12> H 	 15.1494 	 -9.24496 	 85.3481
| 13> C 	 15.2148 	 -10.0222 	 82.5891
| 14> H 	 15.1118 	 -9.17417 	 81.9152
| 15> H 	 14.2342 	 -10.1111 	 83.0816
| 16> C 	 15.4403 	 -11.295 	 81.7957
| 17> H 	 16.4297 	 -11.304 	 81.2748
| 18> H 	 15.4587 	 -12.168 	 82.5333
| 19> C 	 14.2509 	 -11.5562 	 80.9284
| 20> H 	 14.3072 	 -10.9172 	 80.0755
| 21> H 	 14.2678 	 -12.6269 	 80.6289
| 22> H 	 13.3799 	 -11.3564 	 81.4463
| 23> S 	 16.1514 	 -7.16189 	 87.4353
| 24> C 	 16.863 	 -7.27734 	 89.0447
| 25> C 	 17.9974 	 -8.11596 	 89.0811
| 26> C 	 18.2336 	 -8.7962 	 87.8494
| 27> C 	 17.3128 	 -8.36841 	 86.8963
| 28> H 	 18.5086 	 -8.03798 	 90.0722
| 29> C 	 19.3965 	 -9.75663 	 87.6662
| 30> H 	 19.9965 	 -9.77624 	 88.6327
| 31> H 	 20.1443 	 -9.44941 	 86.9706
| 32> C 	 18.911 	 -11.1815 	 87.3234
| 33> H 	 18.2729 	 -11.1199 	 86.4386
| 34> H 	 18.3091 	 -11.657 	 88.0742
| 35> C 	 20.0617 	 -12.106 	 87.0588
| 36> H 	 19.7389 	 -13.1047 	 86.7035
| 37> H 	 20.6933 	 -12.343 	 87.9023
| 38> H 	 20.725 	 -11.7691 	 86.2658
| 39> H 	 18.1696 	 -10.1344 	 82.3049
| 40> H 	 16.4304 	 -6.83736 	 89.9033
| 41> *
| 42>
| 43>                          ****END OF INPUT****

CARTESIAN COORDINATES (ANGSTROEM)
---------------------------------
  S     18.674700   -9.066910   84.496400
  C     17.684700   -9.729470   83.243600
  C     16.308900   -9.677830   83.511900
  C     16.116900   -9.170140   84.855300
  C     17.266700   -8.777750   85.469300
  H     15.149400   -9.244960   85.348100
  C     15.214800  -10.022200   82.589100
  H     15.111800   -9.174170   81.915200
  H     14.234200  -10.111100   83.081600
  C     15.440300  -11.295000   81.795700
  H     16.429700  -11.304000   81.274800
  H     15.458700  -12.168000   82.533300
  C     14.250900  -11.556200   80.928400
  H     14.307200  -10.917200   80.075500
  H     14.267800  -12.626900   80.628900
  H     13.379900  -11.356400   81.446300
  S     16.151400   -7.161890   87.435300
  C     16.863000   -7.277340   89.044700
  C     17.997400   -8.115960   89.081100
  C     18.233600   -8.796200   87.849400
  C     17.312800   -8.368410   86.896300
  H     18.508600   -8.037980   90.072200
  C     19.396500   -9.756630   87.666200
  H     19.996500   -9.776240   88.632700
  H     20.144300   -9.449410   86.970600
  C     18.911000  -11.181500   87.323400
  H     18.272900  -11.119900   86.438600
  H     18.309100  -11.657000   88.074200
  C     20.061700  -12.106000   87.058800
  H     19.738900  -13.104700   86.703500
  H     20.693300  -12.343000   87.902300
  H     20.725000  -11.769100   86.265800
  H     18.169600  -10.134400   82.304900
  H     16.430400   -6.837360   89.903300

 Total Charge           Charge          ....    0
 Multiplicity           Mult            ....    1
 Number of Electrons    NEL             ....  134
 Basis Dimension        Dim             ....  322

ORBITAL ENERGIES
----------------

  NO   OCC          E(Eh)            E(eV)
   0   2.0000     -88.968901     -2420.9669
   1   2.0000     -88.968700     -2420.9614
   2   2.0000     -10.326645      -281.0023
   3   2.0000     -10.324150      -280.9344
   4   2.0000     -10.317335      -280.7490
   5   2.0000     -10.313413      -280.6422
   6   2.0000     -10.304245      -280.3928
   7   2.0000     -10.301544      -280.3193
   8   2.0000     -10.298542      -280.2376
   9   2.0000     -10.293433      -280.0986
  10   2.0000     -10.291196      -280.0377
  11   2.0000     -10.290347      -280.0146
  12   2.0000     -10.290167      -280.0097
  13   2.0000     -10.276908      -279.6489
  14   2.0000     -10.270696      -279.4798
  15   2.0000     -10.269327      -279.4426
  16   2.0000      -8.083383      -219.9600
  17   2.0000      -8.082928      -219.9476
  18   2.0000      -6.041866      -164.4075
  19   2.0000      -6.041353      -164.3936
  20   2.0000      -6.037924      -164.3003
  21   2.0000      -6.037634      -164.2924
  22   2.0000      -6.034170      -164.1981
  23   2.0000      -6.033743      -164.1865
  24   2.0000      -1.005362       -27.3573
  25   2.0000      -0.980786       -26.6885
  26   2.0000      -0.922736       -25.1089
  27   2.0000      -0.906923       -24.6786
  28   2.0000      -0.864237       -23.5171
  29   2.0000      -0.856937       -23.3184
  30   2.0000      -0.849250       -23.1093
  31   2.0000      -0.810077       -22.0433
  32   2.0000      -0.781487       -21.2654
  33   2.0000      -0.767175       -20.8759
  34   2.0000      -0.705108       -19.1870
  35   2.0000      -0.700053       -19.0494
  36   2.0000      -0.684112       -18.6156
  37   2.0000      -0.659801       -17.9541
  38   2.0000      -0.637626       -17.3507
  39   2.0000      -0.617213       -16.7952
  40   2.0000      -0.595477       -16.2038
  41   2.0000      -0.579356       -15.7651
  42   2.0000      -0.561103       -15.2684
  43   2.0000      -0.558830       -15.2065
  44   2.0000      -0.529951       -14.4207
  45   2.0000      -0.519963       -14.1489
  46   2.0000      -0.514939       -14.0122
  47   2.0000      -0.508394       -13.8341
  48   2.0000      -0.504650       -13.7322
  49   2.0000      -0.499574       -13.5941
  50   2.0000      -0.491283       -13.3685
  51   2.0000      -0.473529       -12.8854
  52   2.0000      -0.470252       -12.7962
  53   2.0000      -0.464001       -12.6261
  54   2.0000      -0.459624       -12.5070
  55   2.0000      -0.453627       -12.3438
  56   2.0000      -0.442317       -12.0360
  57   2.0000      -0.437157       -11.8957
  58   2.0000      -0.434086       -11.8121
  59   2.0000      -0.427139       -11.6230
  60   2.0000      -0.423907       -11.5351
  61   2.0000      -0.414012       -11.2658
  62   2.0000      -0.407962       -11.1012
  63   2.0000      -0.345263        -9.3951
  64   2.0000      -0.334227        -9.0948
  65   2.0000      -0.325507        -8.8575
  66   2.0000      -0.287350        -7.8192
  67   0.0000       0.028801         0.7837
  68   0.0000       0.077297         2.1034
  69   0.0000       0.107302         2.9198
  70   0.0000       0.116294         3.1645
  71   0.0000       0.126595         3.4448

MULLIKEN ATOMIC CHARGES
-----------------------
   0 S :    0.115248
   1 C :   -0.172132
   2 C :   -0.056139
   3 C :   -0.002812
   4 C :   -0.139235
   5 H :    0.021239
   6 C :    0.066494
   7 H :    0.041097
   8 H :    0.017708
   9 C :   -0.150280
  10 H :    0.039726
  11 H :    0.036680
  12 C :    0.021168
  13 H :    0.022850
  14 H :    0.037527
  15 H :    0.008541
  16 S :    0.118621
  17 C :   -0.107103
  18 C :   -0.062550
  19 C :   -0.005933
  20 C :   -0.147576
  21 H :    0.039145
  22 C :    0.056841
  23 H :    0.024442
  24 H :    0.028550
  25 C :   -0.057014
  26 H :    0.043407
  27 H :    0.024753
  28 C :   -0.042721
  29 H :    0.024122
  30 H :    0.023081
  31 H :    0.018645
  32 H :    0.070382
  33 H :    0.043228
Sum of atomic charges:    0.0000000

LOEWDIN ATOMIC CHARGES
----------------------
   0 S :    0.430874
   1 C :   -0.216657
   2 C :   -0.058789
   3 C :   -0.066869
   4 C :   -0.201749
   5 H :    0.032055
   6 C :   -0.038603
   7 H :    0.037256
   8 H :    0.031566
   9 C :   -0.045530
  10 H :    0.024852
  11 H :    0.030271
  12 C :   -0.055024
  13 H :    0.021947
  14 H :    0.032934
  15 H :    0.014312
  16 S :    0.404217
  17 C :   -0.185502
  18 C :   -0.071592
  19 C :   -0.061209
  20 C :   -0.186906
  21 H :    0.043056
  22 C :   -0.034689
  23 H :    0.037355
  24 H :    0.020500
  25 C :   -0.039538
  26 H :    0.024474
  27 H :    0.024176
  28 C :   -0.069445
  29 H :    0.027945
  30 H :    0.020723
  31 H :    0.021071
  32 H :    0.034435
  33 H :    0.018082

  Mayer bond orders larger than 0.100000
B(  0-S ,  1-C ) :   1.1441 B(  0-S ,  4-C ) :   1.1525 B(  1-C ,  2-C ) :   1.5918
B(  1-C , 32-H ) :   0.9596 B(  2-C ,  3-C ) :   1.2533 B(  2-C ,  6-C ) :   1.0270
B(  3-C ,  4-C ) :   1.5674 B(  3-C ,  5-H ) :   0.9906 B(  4-C , 20-C ) :   1.0185
B(  6-C ,  7-H ) :   0.9258 B(  6-C ,  8-H ) :   0.9397 B(  6-C ,  9-C ) :   1.0662
B(  9-C , 10-H ) :   0.9521 B(  9-C , 11-H ) :   0.9589 B(  9-C , 12-C ) :   1.0876
B( 12-C , 13-H ) :   0.9718 B( 12-C , 14-H ) :   0.9730 B( 12-C , 15-H ) :   0.9676
B( 16-S , 17-C ) :   1.1456 B( 16-S , 20-C ) :   1.1556 B( 17-C , 18-C ) :   1.6226
B( 17-C , 20-C ) :   0.1013 B( 17-C , 33-H ) :   0.9702 B( 18-C , 19-C ) :   1.2322
B( 18-C , 21-H ) :   0.9830 B( 19-C , 20-C ) :   1.5747 B( 19-C , 22-C ) :   1.0330
B( 22-C , 23-H ) :   0.9333 B( 22-C , 24-H ) :   0.9392 B( 22-C , 25-C ) :   1.0523
B( 25-C , 26-H ) :   0.9561 B( 25-C , 27-H ) :   0.9519 B( 25-C , 28-C ) :   1.0958
B( 28-C , 29-H ) :   0.9703 B( 28-C , 30-H ) :   0.9727 B( 28-C , 31-H ) :   0.9704

Dispersion correction           -0.014385504
FINAL SINGLE POINT ENERGY     -1339.884728052128

DIPOLE MOMENT
-------------
                                X             Y             Z
Electronic contribution:      1.22593      20.91457      10.37949
Nuclear contribution   :     -1.37700     -21.28956     -10.49384
                        -----------------------------------------
Total Dipole Moment    :     -0.15106      -0.37499      -0.11435
                        -----------------------------------------
Magnitude (a.u.)       :      0.42013
Magnitude (Debye)      :      1.06789

Rotational constants in cm-1:     0.020365     0.008278     0.006632
Rotational constants in MHz :   610.533315   248.179874   198.835160

                             ****ORCA TERMINATED NORMALLY****
TOTAL RUN TIME: 0 days 0 hours 0 minutes 30 seconds 91 msec
