                         Program Version 4.2.1 -  RELEASE  -
|  1> ! wB97X-D3 SP def2-SVP
|  2> %pal
|  3> nprocs 16
|  4> end
|  5>
|  6> * xyz 0 1
|  7> S 	 -0.957988 	 -18.8428 	 67.4773
|  8> C 	 -0.513358 	 -19.9774 	 66.151
|  9> C 	 -1.36695 	 -19.8356 	 65.0945
| 10> C 	 -2.33547 	 -18.8064 	 65.237
| 11> C 	 -2.14112 	 -18.1557 	 66.4693
| 12> H 	 -3.08474 	 -18.484 	 64.5012
| 13> C 	 -1.29493 	 -20.7077 	 63.8903
| 14> H 	 -0.175917 	 -20.9373 	 63.7552
| 15> H 	 -1.42665 	 -20.1207 	 62.9583
| 16> C 	 -1.99082 	 -22.0634 	 63.9425
| 17> H 	 -1.58002 	 -22.7874 	 63.2891
| 18> H 	 -1.77415 	 -22.5048 	 64.9069
| 19> C 	 -3.49697 	 -21.9196 	 63.7512
| 20> H 	 -4.01228 	 -21.2279 	 64.4127
| 21> H 	 -3.76841 	 -21.8889 	 62.7368
| 22> H 	 -4.02613 	 -22.8222 	 63.9569
| 23> S 	 -4.55831 	 -17.1021 	 67.3168
| 24> C 	 -4.62258 	 -15.4708 	 67.8474
| 25> C 	 -3.39769 	 -14.8396 	 67.938
| 26> C 	 -2.36667 	 -15.7046 	 67.4127
| 27> C 	 -2.86497 	 -16.9422 	 66.8691
| 28> H 	 -3.35798 	 -13.8682 	 68.4369
| 29> C 	 -0.920053 	 -15.2887 	 67.5169
| 30> H 	 -0.851503 	 -14.2832 	 67.0167
| 31> H 	 -0.270224 	 -15.9702 	 66.9117
| 32> C 	 -0.505699 	 -15.015 	 68.9313
| 33> H 	 -0.902737 	 -15.7902 	 69.6042
| 34> H 	 -0.902475 	 -14.0681 	 69.2608
| 35> C 	 1.02575 	 -14.824 	 68.9809
| 36> H 	 1.64716 	 -15.4609 	 68.2965
| 37> H 	 1.47615 	 -14.8746 	 69.9894
| 38> H 	 1.20697 	 -13.7535 	 68.725
| 39> H 	 0.205022 	 -20.7716 	 66.2064
| 40> H 	 -5.56483 	 -14.9228 	 68.0647
| 41> *
| 42>
| 43>                          ****END OF INPUT****

CARTESIAN COORDINATES (ANGSTROEM)
---------------------------------
  S     -0.957988  -18.842800   67.477300
  C     -0.513358  -19.977400   66.151000
  C     -1.366950  -19.835600   65.094500
  C     -2.335470  -18.806400   65.237000
  C     -2.141120  -18.155700   66.469300
  H     -3.084740  -18.484000   64.501200
  C     -1.294930  -20.707700   63.890300
  H     -0.175917  -20.937300   63.755200
  H     -1.426650  -20.120700   62.958300
  C     -1.990820  -22.063400   63.942500
  H     -1.580020  -22.787400   63.289100
  H     -1.774150  -22.504800   64.906900
  C     -3.496970  -21.919600   63.751200
  H     -4.012280  -21.227900   64.412700
  H     -3.768410  -21.888900   62.736800
  H     -4.026130  -22.822200   63.956900
  S     -4.558310  -17.102100   67.316800
  C     -4.622580  -15.470800   67.847400
  C     -3.397690  -14.839600   67.938000
  C     -2.366670  -15.704600   67.412700
  C     -2.864970  -16.942200   66.869100
  H     -3.357980  -13.868200   68.436900
  C     -0.920053  -15.288700   67.516900
  H     -0.851503  -14.283200   67.016700
  H     -0.270224  -15.970200   66.911700
  C     -0.505699  -15.015000   68.931300
  H     -0.902737  -15.790200   69.604200
  H     -0.902475  -14.068100   69.260800
  C      1.025750  -14.824000   68.980900
  H      1.647160  -15.460900   68.296500
  H      1.476150  -14.874600   69.989400
  H      1.206970  -13.753500   68.725000
  H      0.205022  -20.771600   66.206400
  H     -5.564830  -14.922800   68.064700

 Total Charge           Charge          ....    0
 Multiplicity           Mult            ....    1
 Number of Electrons    NEL             ....  134
 Basis Dimension        Dim             ....  322

ORBITAL ENERGIES
----------------

  NO   OCC          E(Eh)            E(eV)
   0   2.0000     -88.970820     -2421.0191
   1   2.0000     -88.964602     -2420.8499
   2   2.0000     -10.327855      -281.0352
   3   2.0000     -10.325954      -280.9835
   4   2.0000     -10.315943      -280.7111
   5   2.0000     -10.312248      -280.6105
   6   2.0000     -10.308813      -280.5170
   7   2.0000     -10.297068      -280.1975
   8   2.0000     -10.294950      -280.1398
   9   2.0000     -10.294474      -280.1269
  10   2.0000     -10.292525      -280.0738
  11   2.0000     -10.289823      -280.0003
  12   2.0000     -10.284544      -279.8567
  13   2.0000     -10.282831      -279.8101
  14   2.0000     -10.282393      -279.7981
  15   2.0000     -10.266047      -279.3533
  16   2.0000      -8.085118      -220.0072
  17   2.0000      -8.079637      -219.8581
  18   2.0000      -6.043488      -164.4517
  19   2.0000      -6.039736      -164.3496
  20   2.0000      -6.038070      -164.3042
  21   2.0000      -6.035992      -164.2477
  22   2.0000      -6.034153      -164.1976
  23   2.0000      -6.030422      -164.0961
  24   2.0000      -1.005118       -27.3506
  25   2.0000      -0.982742       -26.7418
  26   2.0000      -0.914136       -24.8749
  27   2.0000      -0.912490       -24.8301
  28   2.0000      -0.867084       -23.5945
  29   2.0000      -0.849356       -23.1121
  30   2.0000      -0.842402       -22.9229
  31   2.0000      -0.812215       -22.1015
  32   2.0000      -0.783507       -21.3203
  33   2.0000      -0.764998       -20.8167
  34   2.0000      -0.709906       -19.3175
  35   2.0000      -0.702140       -19.1062
  36   2.0000      -0.690457       -18.7883
  37   2.0000      -0.651932       -17.7400
  38   2.0000      -0.634887       -17.2762
  39   2.0000      -0.612486       -16.6666
  40   2.0000      -0.593534       -16.1509
  41   2.0000      -0.573824       -15.6145
  42   2.0000      -0.566083       -15.4039
  43   2.0000      -0.554235       -15.0815
  44   2.0000      -0.536315       -14.5939
  45   2.0000      -0.520660       -14.1679
  46   2.0000      -0.512611       -13.9489
  47   2.0000      -0.507977       -13.8227
  48   2.0000      -0.504339       -13.7238
  49   2.0000      -0.498207       -13.5569
  50   2.0000      -0.483725       -13.1628
  51   2.0000      -0.477140       -12.9837
  52   2.0000      -0.471129       -12.8201
  53   2.0000      -0.463643       -12.6164
  54   2.0000      -0.454355       -12.3636
  55   2.0000      -0.450809       -12.2671
  56   2.0000      -0.445345       -12.1184
  57   2.0000      -0.436871       -11.8879
  58   2.0000      -0.430620       -11.7178
  59   2.0000      -0.420342       -11.4381
  60   2.0000      -0.417508       -11.3610
  61   2.0000      -0.412763       -11.2319
  62   2.0000      -0.409375       -11.1396
  63   2.0000      -0.336331        -9.1520
  64   2.0000      -0.334368        -9.0986
  65   2.0000      -0.323315        -8.7978
  66   2.0000      -0.294732        -8.0201
  67   0.0000       0.031030         0.8444
  68   0.0000       0.067771         1.8442
  69   0.0000       0.103911         2.8276
  70   0.0000       0.117358         3.1935
  71   0.0000       0.123679         3.3655

MULLIKEN ATOMIC CHARGES
-----------------------
   0 S :    0.129450
   1 C :   -0.119215
   2 C :   -0.065277
   3 C :    0.023610
   4 C :   -0.163514
   5 H :    0.029677
   6 C :    0.005562
   7 H :    0.022666
   8 H :    0.031049
   9 C :   -0.000961
  10 H :    0.017156
  11 H :    0.012577
  12 C :   -0.024492
  13 H :    0.039922
  14 H :    0.014957
  15 H :    0.003668
  16 S :    0.114724
  17 C :   -0.107571
  18 C :   -0.044053
  19 C :   -0.046896
  20 C :   -0.144231
  21 H :    0.031427
  22 C :    0.027595
  23 H :    0.031688
  24 H :    0.040491
  25 C :   -0.065321
  26 H :    0.040569
  27 H :    0.026016
  28 C :   -0.069186
  29 H :    0.044067
  30 H :    0.035362
  31 H :    0.025257
  32 H :    0.036176
  33 H :    0.067051
Sum of atomic charges:    0.0000000

LOEWDIN ATOMIC CHARGES
----------------------
   0 S :    0.422017
   1 C :   -0.184901
   2 C :   -0.063644
   3 C :   -0.063186
   4 C :   -0.209887
   5 H :    0.039618
   6 C :   -0.042961
   7 H :    0.037489
   8 H :    0.031893
   9 C :   -0.033026
  10 H :    0.021855
  11 H :    0.024194
  12 C :   -0.070162
  13 H :    0.029427
  14 H :    0.021155
  15 H :    0.024483
  16 S :    0.418762
  17 C :   -0.196832
  18 C :   -0.080406
  19 C :   -0.046687
  20 C :   -0.216054
  21 H :    0.038020
  22 C :   -0.045336
  23 H :    0.038513
  24 H :    0.029058
  25 C :   -0.040948
  26 H :    0.023602
  27 H :    0.023600
  28 C :   -0.072733
  29 H :    0.028754
  30 H :    0.027121
  31 H :    0.028131
  32 H :    0.023924
  33 H :    0.035149

  Mayer bond orders larger than 0.100000
B(  0-S ,  1-C ) :   1.1145 B(  0-S ,  4-C ) :   1.1809 B(  1-C ,  2-C ) :   1.6238
B(  1-C , 32-H ) :   0.9687 B(  2-C ,  3-C ) :   1.2397 B(  2-C ,  6-C ) :   1.0284
B(  3-C ,  4-C ) :   1.5303 B(  3-C ,  5-H ) :   0.9962 B(  4-C , 20-C ) :   1.0233
B(  6-C ,  7-H ) :   0.9369 B(  6-C ,  8-H ) :   0.9438 B(  6-C ,  9-C ) :   1.0655
B(  9-C , 10-H ) :   0.9523 B(  9-C , 11-H ) :   0.9506 B(  9-C , 12-C ) :   1.0877
B( 12-C , 13-H ) :   0.9740 B( 12-C , 14-H ) :   0.9717 B( 12-C , 15-H ) :   0.9631
B( 16-S , 17-C ) :   1.1819 B( 16-S , 20-C ) :   1.1397 B( 17-C , 18-C ) :   1.6013
B( 17-C , 33-H ) :   0.9573 B( 18-C , 19-C ) :   1.2347 B( 18-C , 21-H ) :   0.9912
B( 19-C , 20-C ) :   1.5592 B( 19-C , 22-C ) :   1.0584 B( 22-C , 23-H ) :   0.9276
B( 22-C , 24-H ) :   0.9455 B( 22-C , 25-C ) :   1.0514 B( 25-C , 26-H ) :   0.9641
B( 25-C , 27-H ) :   0.9487 B( 25-C , 28-C ) :   1.0740 B( 28-C , 29-H ) :   0.9785
B( 28-C , 30-H ) :   0.9751 B( 28-C , 31-H ) :   0.9749

Dispersion correction           -0.014465180
FINAL SINGLE POINT ENERGY     -1339.868188467797

DIPOLE MOMENT
-------------
                                X             Y             Z
Electronic contribution:     -9.87573       2.59940       6.48989
Nuclear contribution   :     10.02766      -2.56437      -6.59234
                        -----------------------------------------
Total Dipole Moment    :      0.15193       0.03503      -0.10245
                        -----------------------------------------
Magnitude (a.u.)       :      0.18656
Magnitude (Debye)      :      0.47421

Rotational constants in cm-1:     0.022264     0.008151     0.006386
Rotational constants in MHz :   667.466288   244.367164   191.451228

                             ****ORCA TERMINATED NORMALLY****
TOTAL RUN TIME: 0 days 0 hours 0 minutes 34 seconds 508 msec
