                         Program Version 4.2.1 -  RELEASE  -
|  1> ! wB97X-D3 SP def2-SVP
|  2> %pal
|  3> nprocs 16
|  4> end
|  5>
|  6> * xyz 0 1
|  7> S 	 44.806 	 8.78779 	 101.972
|  8> C 	 46.5567 	 8.89472 	 102.085
|  9> C 	 47.1309 	 9.00405 	 100.873
| 10> C 	 46.1449 	 8.92186 	 99.815
| 11> C 	 44.8201 	 8.78321 	 100.253
| 12> H 	 46.4519 	 8.84913 	 98.8112
| 13> C 	 48.589 	 9.10841 	 100.593
| 14> H 	 48.856 	 8.74706 	 99.6142
| 15> H 	 49.0639 	 8.38022 	 101.254
| 16> C 	 49.0816 	 10.4768 	 100.704
| 17> H 	 48.5381 	 11.1704 	 100.018
| 18> H 	 48.9553 	 10.7632 	 101.769
| 19> C 	 50.5542 	 10.556 	 100.413
| 20> H 	 50.9389 	 10.1616 	 99.4724
| 21> H 	 50.7267 	 11.6782 	 100.559
| 22> H 	 51.2295 	 10.1502 	 101.216
| 23> S 	 42.5274 	 7.11134 	 99.9313
| 24> C 	 41.7368 	 7.12491 	 98.3697
| 25> C 	 42.1702 	 8.16024 	 97.6422
| 26> C 	 43.1588 	 9.06464 	 98.2583
| 27> C 	 43.5724 	 8.54781 	 99.5086
| 28> H 	 41.7776 	 8.29056 	 96.6358
| 29> C 	 43.6686 	 10.2701 	 97.4722
| 30> H 	 43.6998 	 10.0875 	 96.3758
| 31> H 	 44.7138 	 10.3225 	 97.5424
| 32> C 	 43.0635 	 11.6214 	 97.9003
| 33> H 	 41.9892 	 11.5803 	 98.1806
| 34> H 	 43.2966 	 12.4147 	 97.1044
| 35> C 	 43.6398 	 12.1022 	 99.2198
| 36> H 	 43.5313 	 11.3141 	 100.008
| 37> H 	 43.0472 	 12.9181 	 99.4798
| 38> H 	 44.7354 	 12.3933 	 99.0952
| 39> H 	 47.0839 	 9.01129 	 103.074
| 40> H 	 41.0431 	 6.33554 	 98.1381
| 41> *
| 42>
| 43>                          ****END OF INPUT****

CARTESIAN COORDINATES (ANGSTROEM)
---------------------------------
  S     44.806000    8.787790  101.972000
  C     46.556700    8.894720  102.085000
  C     47.130900    9.004050  100.873000
  C     46.144900    8.921860   99.815000
  C     44.820100    8.783210  100.253000
  H     46.451900    8.849130   98.811200
  C     48.589000    9.108410  100.593000
  H     48.856000    8.747060   99.614200
  H     49.063900    8.380220  101.254000
  C     49.081600   10.476800  100.704000
  H     48.538100   11.170400  100.018000
  H     48.955300   10.763200  101.769000
  C     50.554200   10.556000  100.413000
  H     50.938900   10.161600   99.472400
  H     50.726700   11.678200  100.559000
  H     51.229500   10.150200  101.216000
  S     42.527400    7.111340   99.931300
  C     41.736800    7.124910   98.369700
  C     42.170200    8.160240   97.642200
  C     43.158800    9.064640   98.258300
  C     43.572400    8.547810   99.508600
  H     41.777600    8.290560   96.635800
  C     43.668600   10.270100   97.472200
  H     43.699800   10.087500   96.375800
  H     44.713800   10.322500   97.542400
  C     43.063500   11.621400   97.900300
  H     41.989200   11.580300   98.180600
  H     43.296600   12.414700   97.104400
  C     43.639800   12.102200   99.219800
  H     43.531300   11.314100  100.008000
  H     43.047200   12.918100   99.479800
  H     44.735400   12.393300   99.095200
  H     47.083900    9.011290  103.074000
  H     41.043100    6.335540   98.138100

 Total Charge           Charge          ....    0
 Multiplicity           Mult            ....    1
 Number of Electrons    NEL             ....  134
 Basis Dimension        Dim             ....  322

ORBITAL ENERGIES
----------------

  NO   OCC          E(Eh)            E(eV)
   0   2.0000     -88.963034     -2420.8072
   1   2.0000     -88.960608     -2420.7412
   2   2.0000     -10.339286      -281.3463
   3   2.0000     -10.333531      -281.1897
   4   2.0000     -10.316758      -280.7333
   5   2.0000     -10.315606      -280.7019
   6   2.0000     -10.314005      -280.6584
   7   2.0000     -10.295760      -280.1619
   8   2.0000     -10.294177      -280.1188
   9   2.0000     -10.293693      -280.1056
  10   2.0000     -10.292452      -280.0719
  11   2.0000     -10.291701      -280.0514
  12   2.0000     -10.287251      -279.9303
  13   2.0000     -10.284984      -279.8686
  14   2.0000     -10.283140      -279.8185
  15   2.0000     -10.270622      -279.4778
  16   2.0000      -8.078324      -219.8224
  17   2.0000      -8.074878      -219.7286
  18   2.0000      -6.036857      -164.2712
  19   2.0000      -6.033560      -164.1815
  20   2.0000      -6.032680      -164.1576
  21   2.0000      -6.029514      -164.0714
  22   2.0000      -6.029113      -164.0605
  23   2.0000      -6.025388      -163.9591
  24   2.0000      -1.003964       -27.3192
  25   2.0000      -0.980818       -26.6894
  26   2.0000      -0.928567       -25.2676
  27   2.0000      -0.908237       -24.7144
  28   2.0000      -0.871985       -23.7279
  29   2.0000      -0.848849       -23.0984
  30   2.0000      -0.840445       -22.8697
  31   2.0000      -0.813269       -22.1302
  32   2.0000      -0.785252       -21.3678
  33   2.0000      -0.775421       -21.1003
  34   2.0000      -0.702159       -19.1067
  35   2.0000      -0.696376       -18.9494
  36   2.0000      -0.683974       -18.6119
  37   2.0000      -0.656784       -17.8720
  38   2.0000      -0.637717       -17.3532
  39   2.0000      -0.624213       -16.9857
  40   2.0000      -0.604743       -16.4559
  41   2.0000      -0.582150       -15.8411
  42   2.0000      -0.561730       -15.2855
  43   2.0000      -0.555534       -15.1169
  44   2.0000      -0.540563       -14.7095
  45   2.0000      -0.535243       -14.5647
  46   2.0000      -0.519122       -14.1260
  47   2.0000      -0.509699       -13.8696
  48   2.0000      -0.502344       -13.6695
  49   2.0000      -0.498094       -13.5538
  50   2.0000      -0.492794       -13.4096
  51   2.0000      -0.480816       -13.0837
  52   2.0000      -0.467044       -12.7089
  53   2.0000      -0.459998       -12.5172
  54   2.0000      -0.457408       -12.4467
  55   2.0000      -0.448083       -12.1930
  56   2.0000      -0.437457       -11.9038
  57   2.0000      -0.432804       -11.7772
  58   2.0000      -0.429930       -11.6990
  59   2.0000      -0.417953       -11.3731
  60   2.0000      -0.413599       -11.2546
  61   2.0000      -0.411120       -11.1871
  62   2.0000      -0.407103       -11.0778
  63   2.0000      -0.352105        -9.5813
  64   2.0000      -0.329445        -8.9647
  65   2.0000      -0.327662        -8.9161
  66   2.0000      -0.293886        -7.9971
  67   0.0000       0.025022         0.6809
  68   0.0000       0.072119         1.9625
  69   0.0000       0.111469         3.0332
  70   0.0000       0.120787         3.2868
  71   0.0000       0.126931         3.4540

MULLIKEN ATOMIC CHARGES
-----------------------
   0 S :    0.098899
   1 C :   -0.146260
   2 C :   -0.093098
   3 C :    0.053511
   4 C :   -0.150920
   5 H :   -0.008756
   6 C :    0.087357
   7 H :    0.000358
   8 H :    0.026050
   9 C :   -0.075214
  10 H :    0.040487
  11 H :    0.028008
  12 C :   -0.067230
  13 H :    0.039342
  14 H :    0.038038
  15 H :    0.032928
  16 S :    0.074656
  17 C :   -0.083799
  18 C :   -0.026590
  19 C :   -0.054619
  20 C :   -0.120567
  21 H :    0.023109
  22 C :    0.099708
  23 H :    0.022176
  24 H :   -0.008352
  25 C :   -0.095029
  26 H :    0.041550
  27 H :    0.044115
  28 C :   -0.052310
  29 H :    0.046130
  30 H :    0.020175
  31 H :    0.035935
  32 H :    0.066599
  33 H :    0.063611
Sum of atomic charges:   -0.0000000

LOEWDIN ATOMIC CHARGES
----------------------
   0 S :    0.411554
   1 C :   -0.200254
   2 C :   -0.063560
   3 C :   -0.057189
   4 C :   -0.199428
   5 H :    0.019295
   6 C :   -0.037474
   7 H :    0.024346
   8 H :    0.034287
   9 C :   -0.045002
  10 H :    0.032324
  11 H :    0.030511
  12 C :   -0.076372
  13 H :    0.021968
  14 H :    0.037077
  15 H :    0.028790
  16 S :    0.363140
  17 C :   -0.173164
  18 C :   -0.074369
  19 C :   -0.042345
  20 C :   -0.182271
  21 H :    0.032067
  22 C :   -0.042217
  23 H :    0.036789
  24 H :    0.022920
  25 C :   -0.044163
  26 H :    0.030952
  27 H :    0.033042
  28 C :   -0.064548
  29 H :    0.030158
  30 H :    0.014861
  31 H :    0.027362
  32 H :    0.039180
  33 H :    0.031734

  Mayer bond orders larger than 0.100000
B(  0-S ,  1-C ) :   1.1289 B(  0-S ,  4-C ) :   1.1621 B(  1-C ,  2-C ) :   1.6307
B(  1-C , 32-H ) :   0.9598 B(  2-C ,  3-C ) :   1.2526 B(  2-C ,  6-C ) :   1.0177
B(  3-C ,  4-C ) :   1.5496 B(  3-C ,  5-H ) :   1.0021 B(  4-C , 20-C ) :   1.0334
B(  6-C ,  7-H ) :   0.9330 B(  6-C ,  8-H ) :   0.9367 B(  6-C ,  9-C ) :   1.0799
B(  9-C , 10-H ) :   0.9517 B(  9-C , 11-H ) :   0.9488 B(  9-C , 12-C ) :   1.0870
B( 12-C , 13-H ) :   0.9733 B( 12-C , 14-H ) :   0.9739 B( 12-C , 15-H ) :   0.9713
B( 16-S , 17-C ) :   1.1309 B( 16-S , 20-C ) :   1.1158 B( 17-C , 18-C ) :   1.6402
B( 17-C , 33-H ) :   0.9716 B( 18-C , 19-C ) :   1.2115 B( 18-C , 21-H ) :   0.9894
B( 19-C , 20-C ) :   1.6003 B( 19-C , 22-C ) :   1.0382 B( 22-C , 23-H ) :   0.9354
B( 22-C , 24-H ) :   0.9252 B( 22-C , 25-C ) :   1.0519 B( 25-C , 26-H ) :   0.9615
B( 25-C , 27-H ) :   0.9520 B( 25-C , 28-C ) :   1.0791 B( 28-C , 29-H ) :   0.9705
B( 28-C , 30-H ) :   0.9742 B( 28-C , 31-H ) :   0.9730

Dispersion correction           -0.014574023
FINAL SINGLE POINT ENERGY     -1339.865590845946

DIPOLE MOMENT
-------------
                                X             Y             Z
Electronic contribution:    -19.31790     -18.65674       8.21716
Nuclear contribution   :     19.81321      18.87435      -8.73438
                        -----------------------------------------
Total Dipole Moment    :      0.49531       0.21761      -0.51722
                        -----------------------------------------
Magnitude (a.u.)       :      0.74847
Magnitude (Debye)      :      1.90245

Rotational constants in cm-1:     0.020975     0.008113     0.006846
Rotational constants in MHz :   628.827775   243.214965   205.240880

                             ****ORCA TERMINATED NORMALLY****
TOTAL RUN TIME: 0 days 0 hours 0 minutes 30 seconds 844 msec
