                         Program Version 4.2.1 -  RELEASE  -
|  1> ! wB97X-D3 SP def2-SVP
|  2> %pal
|  3> nprocs 16
|  4> end
|  5>
|  6> * xyz 0 1
|  7> S 	 46.051 	 23.9965 	 90.0084
|  8> C 	 45.6125 	 24.1565 	 91.6704
|  9> C 	 46.5952 	 23.5946 	 92.5062
| 10> C 	 47.636 	 23.0173 	 91.7429
| 11> C 	 47.5431 	 23.232 	 90.3549
| 12> H 	 48.4499 	 22.4727 	 92.1813
| 13> C 	 46.4468 	 23.339 	 93.9633
| 14> H 	 46.326 	 22.2563 	 94.0905
| 15> H 	 45.5254 	 23.7363 	 94.3337
| 16> C 	 47.5918 	 23.9745 	 94.8077
| 17> H 	 47.4713 	 23.7813 	 95.8817
| 18> H 	 48.4743 	 23.4046 	 94.5358
| 19> C 	 47.8366 	 25.5179 	 94.4218
| 20> H 	 48.557 	 25.9594 	 95.1017
| 21> H 	 48.2616 	 25.734 	 93.3897
| 22> H 	 46.9276 	 26.0996 	 94.62
| 23> S 	 47.8483 	 21.9957 	 87.9749
| 24> C 	 49.4331 	 22.013 	 87.1894
| 25> C 	 50.4258 	 22.514 	 88.0606
| 26> C 	 49.8679 	 22.9752 	 89.3094
| 27> C 	 48.4887 	 22.8614 	 89.3207
| 28> H 	 51.4188 	 22.6259 	 87.8209
| 29> C 	 50.7468 	 23.6008 	 90.4093
| 30> H 	 51.1764 	 22.7917 	 91.067
| 31> H 	 50.0888 	 24.1828 	 90.9962
| 32> C 	 51.7676 	 24.616 	 89.8452
| 33> H 	 51.2245 	 25.1386 	 88.9867
| 34> H 	 52.5102 	 23.9533 	 89.4581
| 35> C 	 52.3495 	 25.6563 	 90.8163
| 36> H 	 51.6022 	 26.4318 	 90.9945
| 37> H 	 53.2723 	 26.0889 	 90.3018
| 38> H 	 52.6559 	 25.3459 	 91.8118
| 39> H 	 44.6793 	 24.5163 	 91.9679
| 40> H 	 49.6055 	 21.5703 	 86.249
| 41> *
| 42>
| 43>                          ****END OF INPUT****

CARTESIAN COORDINATES (ANGSTROEM)
---------------------------------
  S     46.051000   23.996500   90.008400
  C     45.612500   24.156500   91.670400
  C     46.595200   23.594600   92.506200
  C     47.636000   23.017300   91.742900
  C     47.543100   23.232000   90.354900
  H     48.449900   22.472700   92.181300
  C     46.446800   23.339000   93.963300
  H     46.326000   22.256300   94.090500
  H     45.525400   23.736300   94.333700
  C     47.591800   23.974500   94.807700
  H     47.471300   23.781300   95.881700
  H     48.474300   23.404600   94.535800
  C     47.836600   25.517900   94.421800
  H     48.557000   25.959400   95.101700
  H     48.261600   25.734000   93.389700
  H     46.927600   26.099600   94.620000
  S     47.848300   21.995700   87.974900
  C     49.433100   22.013000   87.189400
  C     50.425800   22.514000   88.060600
  C     49.867900   22.975200   89.309400
  C     48.488700   22.861400   89.320700
  H     51.418800   22.625900   87.820900
  C     50.746800   23.600800   90.409300
  H     51.176400   22.791700   91.067000
  H     50.088800   24.182800   90.996200
  C     51.767600   24.616000   89.845200
  H     51.224500   25.138600   88.986700
  H     52.510200   23.953300   89.458100
  C     52.349500   25.656300   90.816300
  H     51.602200   26.431800   90.994500
  H     53.272300   26.088900   90.301800
  H     52.655900   25.345900   91.811800
  H     44.679300   24.516300   91.967900
  H     49.605500   21.570300   86.249000

 Total Charge           Charge          ....    0
 Multiplicity           Mult            ....    1
 Number of Electrons    NEL             ....  134
 Basis Dimension        Dim             ....  322

ORBITAL ENERGIES
----------------

  NO   OCC          E(Eh)            E(eV)
   0   2.0000     -88.966742     -2420.9081
   1   2.0000     -88.965532     -2420.8752
   2   2.0000     -10.325582      -280.9734
   3   2.0000     -10.322950      -280.9017
   4   2.0000     -10.319400      -280.8052
   5   2.0000     -10.308852      -280.5181
   6   2.0000     -10.303204      -280.3644
   7   2.0000     -10.298357      -280.2325
   8   2.0000     -10.294648      -280.1316
   9   2.0000     -10.294150      -280.1181
  10   2.0000     -10.291349      -280.0418
  11   2.0000     -10.290676      -280.0235
  12   2.0000     -10.290193      -280.0104
  13   2.0000     -10.288944      -279.9764
  14   2.0000     -10.285957      -279.8951
  15   2.0000     -10.285885      -279.8932
  16   2.0000      -8.081677      -219.9136
  17   2.0000      -8.081150      -219.8993
  18   2.0000      -6.040108      -164.3597
  19   2.0000      -6.039451      -164.3418
  20   2.0000      -6.036229      -164.2542
  21   2.0000      -6.035349      -164.2302
  22   2.0000      -6.032433      -164.1509
  23   2.0000      -6.032282      -164.1467
  24   2.0000      -1.009276       -27.4638
  25   2.0000      -0.983889       -26.7730
  26   2.0000      -0.909961       -24.7613
  27   2.0000      -0.905755       -24.6468
  28   2.0000      -0.865067       -23.5397
  29   2.0000      -0.849333       -23.1115
  30   2.0000      -0.839328       -22.8393
  31   2.0000      -0.810126       -22.0446
  32   2.0000      -0.782576       -21.2950
  33   2.0000      -0.772631       -21.0244
  34   2.0000      -0.709693       -19.3117
  35   2.0000      -0.700674       -19.0663
  36   2.0000      -0.694667       -18.9028
  37   2.0000      -0.661249       -17.9935
  38   2.0000      -0.641959       -17.4686
  39   2.0000      -0.624027       -16.9806
  40   2.0000      -0.595490       -16.2041
  41   2.0000      -0.570764       -15.5313
  42   2.0000      -0.564748       -15.3676
  43   2.0000      -0.548984       -14.9386
  44   2.0000      -0.537325       -14.6213
  45   2.0000      -0.520666       -14.1680
  46   2.0000      -0.516509       -14.0549
  47   2.0000      -0.508206       -13.8290
  48   2.0000      -0.502556       -13.6752
  49   2.0000      -0.496887       -13.5210
  50   2.0000      -0.491139       -13.3646
  51   2.0000      -0.479241       -13.0408
  52   2.0000      -0.469709       -12.7814
  53   2.0000      -0.467161       -12.7121
  54   2.0000      -0.459440       -12.5020
  55   2.0000      -0.449862       -12.2414
  56   2.0000      -0.446576       -12.1519
  57   2.0000      -0.436511       -11.8781
  58   2.0000      -0.429313       -11.6822
  59   2.0000      -0.424952       -11.5635
  60   2.0000      -0.424282       -11.5453
  61   2.0000      -0.413904       -11.2629
  62   2.0000      -0.411828       -11.2064
  63   2.0000      -0.345374        -9.3981
  64   2.0000      -0.331637        -9.0243
  65   2.0000      -0.329172        -8.9572
  66   2.0000      -0.288180        -7.8418
  67   0.0000       0.028620         0.7788
  68   0.0000       0.075150         2.0449
  69   0.0000       0.108671         2.9571
  70   0.0000       0.125784         3.4228
  71   0.0000       0.128030         3.4839

MULLIKEN ATOMIC CHARGES
-----------------------
   0 S :    0.121234
   1 C :   -0.102529
   2 C :   -0.092666
   3 C :    0.025670
   4 C :   -0.165593
   5 H :    0.005787
   6 C :    0.080107
   7 H :    0.044441
   8 H :    0.002130
   9 C :   -0.085278
  10 H :    0.038111
  11 H :    0.023710
  12 C :   -0.077784
  13 H :    0.028074
  14 H :    0.064225
  15 H :    0.034053
  16 S :    0.111546
  17 C :   -0.076526
  18 C :    0.000444
  19 C :   -0.070824
  20 C :   -0.147590
  21 H :   -0.011644
  22 C :    0.091632
  23 H :    0.051853
  24 H :    0.007994
  25 C :   -0.128124
  26 H :    0.056865
  27 H :    0.030172
  28 C :   -0.045617
  29 H :    0.038500
  30 H :    0.046752
  31 H :    0.030956
  32 H :    0.024731
  33 H :    0.045188
Sum of atomic charges:   -0.0000000

LOEWDIN ATOMIC CHARGES
----------------------
   0 S :    0.439196
   1 C :   -0.199040
   2 C :   -0.060913
   3 C :   -0.062997
   4 C :   -0.211941
   5 H :    0.026037
   6 C :   -0.032762
   7 H :    0.037632
   8 H :    0.021409
   9 C :   -0.038280
  10 H :    0.026448
  11 H :    0.018511
  12 C :   -0.073521
  13 H :    0.023206
  14 H :    0.038479
  15 H :    0.025184
  16 S :    0.412055
  17 C :   -0.171563
  18 C :   -0.053090
  19 C :   -0.053366
  20 C :   -0.209880
  21 H :    0.015918
  22 C :   -0.033243
  23 H :    0.037370
  24 H :    0.019764
  25 C :   -0.046972
  26 H :    0.039494
  27 H :    0.015667
  28 C :   -0.070235
  29 H :    0.027452
  30 H :    0.038880
  31 H :    0.023052
  32 H :    0.013854
  33 H :    0.018196

  Mayer bond orders larger than 0.100000
B(  0-S ,  1-C ) :   1.1642 B(  0-S ,  4-C ) :   1.1850 B(  1-C ,  2-C ) :   1.5427
B(  1-C ,  4-C ) :   0.1071 B(  1-C , 32-H ) :   0.9786 B(  2-C ,  3-C ) :   1.2858
B(  2-C ,  6-C ) :   1.0319 B(  3-C ,  4-C ) :   1.5118 B(  3-C ,  5-H ) :   0.9993
B(  4-C , 20-C ) :   1.0309 B(  6-C ,  7-H ) :   0.9460 B(  6-C ,  8-H ) :   0.9395
B(  6-C ,  9-C ) :   1.0535 B(  9-C , 10-H ) :   0.9618 B(  9-C , 11-H ) :   0.9599
B(  9-C , 12-C ) :   1.0618 B( 12-C , 13-H ) :   0.9758 B( 12-C , 14-H ) :   0.9704
B( 12-C , 15-H ) :   0.9790 B( 16-S , 17-C ) :   1.1496 B( 16-S , 20-C ) :   1.1574
B( 17-C , 18-C ) :   1.5829 B( 17-C , 20-C ) :   0.1007 B( 17-C , 33-H ) :   0.9770
B( 18-C , 19-C ) :   1.2410 B( 18-C , 21-H ) :   1.0032 B( 19-C , 20-C ) :   1.6030
B( 19-C , 22-C ) :   1.0358 B( 22-C , 23-H ) :   0.9297 B( 22-C , 24-H ) :   0.9322
B( 22-C , 25-C ) :   1.0492 B( 25-C , 26-H ) :   0.9597 B( 25-C , 27-H ) :   0.9545
B( 25-C , 28-C ) :   1.0818 B( 28-C , 29-H ) :   0.9737 B( 28-C , 30-H ) :   0.9738
B( 28-C , 31-H ) :   0.9758

Dispersion correction           -0.014593056
FINAL SINGLE POINT ENERGY     -1339.880917804604

DIPOLE MOMENT
-------------
                                X             Y             Z
Electronic contribution:    -16.91263     -11.90065     -21.67404
Nuclear contribution   :     17.32742      11.92460      22.17578
                        -----------------------------------------
Total Dipole Moment    :      0.41478       0.02395       0.50174
                        -----------------------------------------
Magnitude (a.u.)       :      0.65143
Magnitude (Debye)      :      1.65581

Rotational constants in cm-1:     0.016767     0.010043     0.006970
Rotational constants in MHz :   502.673908   301.076442   208.952770

                             ****ORCA TERMINATED NORMALLY****
TOTAL RUN TIME: 0 days 0 hours 0 minutes 30 seconds 864 msec
