                         Program Version 4.2.1 -  RELEASE  -
|  1> ! wB97X-D3 SP def2-SVP
|  2> %pal
|  3> nprocs 16
|  4> end
|  5>
|  6> * xyz 0 1
|  7> S 	 -55.865 	 33.58 	 93.1465
|  8> C 	 -57.4616 	 33.2668 	 92.5031
|  9> C 	 -58.4536 	 33.661 	 93.4069
| 10> C 	 -57.9757 	 34.1771 	 94.6312
| 11> C 	 -56.5643 	 34.214 	 94.6037
| 12> H 	 -58.5477 	 34.4265 	 95.4989
| 13> C 	 -59.9558 	 33.6341 	 93.1469
| 14> H 	 -59.9767 	 32.7828 	 92.4705
| 15> H 	 -60.3012 	 34.5951 	 92.7236
| 16> C 	 -60.9615 	 33.4598 	 94.3546
| 17> H 	 -60.6194 	 32.5992 	 94.9476
| 18> H 	 -60.914 	 34.2729 	 95.0848
| 19> C 	 -62.4881 	 33.2962 	 93.9349
| 20> H 	 -63.3111 	 33.589 	 94.5818
| 21> H 	 -62.5763 	 33.9712 	 93.11
| 22> H 	 -62.5643 	 32.3369 	 93.4489
| 23> S 	 -55.8514 	 33.6246 	 97.1024
| 24> C 	 -54.8525 	 34.8037 	 97.9925
| 25> C 	 -54.2129 	 35.7078 	 97.1693
| 26> C 	 -54.7865 	 35.7517 	 95.8484
| 27> C 	 -55.7263 	 34.6797 	 95.6977
| 28> H 	 -53.4935 	 36.4618 	 97.4246
| 29> C 	 -54.299 	 36.6417 	 94.7042
| 30> H 	 -54.9966 	 36.5448 	 93.9195
| 31> H 	 -53.3035 	 36.295 	 94.4202
| 32> C 	 -54.2008 	 38.1668 	 94.9463
| 33> H 	 -53.543 	 38.3615 	 95.8062
| 34> H 	 -55.1975 	 38.5114 	 95.1962
| 35> C 	 -53.5602 	 38.8518 	 93.8604
| 36> H 	 -54.2008 	 38.7859 	 92.9521
| 37> H 	 -52.6246 	 38.3849 	 93.5324
| 38> H 	 -53.3331 	 39.9361 	 94.0607
| 39> H 	 -57.7294 	 32.9114 	 91.5682
| 40> H 	 -54.633 	 34.8295 	 99.0739
| 41> *
| 42>
| 43>                          ****END OF INPUT****

CARTESIAN COORDINATES (ANGSTROEM)
---------------------------------
  S    -55.865000   33.580000   93.146500
  C    -57.461600   33.266800   92.503100
  C    -58.453600   33.661000   93.406900
  C    -57.975700   34.177100   94.631200
  C    -56.564300   34.214000   94.603700
  H    -58.547700   34.426500   95.498900
  C    -59.955800   33.634100   93.146900
  H    -59.976700   32.782800   92.470500
  H    -60.301200   34.595100   92.723600
  C    -60.961500   33.459800   94.354600
  H    -60.619400   32.599200   94.947600
  H    -60.914000   34.272900   95.084800
  C    -62.488100   33.296200   93.934900
  H    -63.311100   33.589000   94.581800
  H    -62.576300   33.971200   93.110000
  H    -62.564300   32.336900   93.448900
  S    -55.851400   33.624600   97.102400
  C    -54.852500   34.803700   97.992500
  C    -54.212900   35.707800   97.169300
  C    -54.786500   35.751700   95.848400
  C    -55.726300   34.679700   95.697700
  H    -53.493500   36.461800   97.424600
  C    -54.299000   36.641700   94.704200
  H    -54.996600   36.544800   93.919500
  H    -53.303500   36.295000   94.420200
  C    -54.200800   38.166800   94.946300
  H    -53.543000   38.361500   95.806200
  H    -55.197500   38.511400   95.196200
  C    -53.560200   38.851800   93.860400
  H    -54.200800   38.785900   92.952100
  H    -52.624600   38.384900   93.532400
  H    -53.333100   39.936100   94.060700
  H    -57.729400   32.911400   91.568200
  H    -54.633000   34.829500   99.073900

 Total Charge           Charge          ....    0
 Multiplicity           Mult            ....    1
 Number of Electrons    NEL             ....  134
 Basis Dimension        Dim             ....  322

ORBITAL ENERGIES
----------------

  NO   OCC          E(Eh)            E(eV)
   0   2.0000     -88.972801     -2421.0730
   1   2.0000     -88.968452     -2420.9547
   2   2.0000     -10.328552      -281.0542
   3   2.0000     -10.326370      -280.9948
   4   2.0000     -10.319702      -280.8134
   5   2.0000     -10.310301      -280.5576
   6   2.0000     -10.307323      -280.4765
   7   2.0000     -10.300830      -280.2998
   8   2.0000     -10.297781      -280.2169
   9   2.0000     -10.295444      -280.1533
  10   2.0000     -10.293263      -280.0939
  11   2.0000     -10.292397      -280.0704
  12   2.0000     -10.289528      -279.9923
  13   2.0000     -10.280283      -279.7407
  14   2.0000     -10.279838      -279.7286
  15   2.0000     -10.277870      -279.6751
  16   2.0000      -8.087002      -220.0585
  17   2.0000      -8.082198      -219.9278
  18   2.0000      -6.045378      -164.5031
  19   2.0000      -6.041524      -164.3982
  20   2.0000      -6.040740      -164.3769
  21   2.0000      -6.038003      -164.3024
  22   2.0000      -6.037030      -164.2759
  23   2.0000      -6.032788      -164.1605
  24   2.0000      -1.002962       -27.2920
  25   2.0000      -0.977281       -26.5932
  26   2.0000      -0.918050       -24.9814
  27   2.0000      -0.903448       -24.5841
  28   2.0000      -0.866587       -23.5810
  29   2.0000      -0.854408       -23.2496
  30   2.0000      -0.847660       -23.0660
  31   2.0000      -0.811767       -22.0893
  32   2.0000      -0.781540       -21.2668
  33   2.0000      -0.765895       -20.8411
  34   2.0000      -0.710568       -19.3355
  35   2.0000      -0.697754       -18.9868
  36   2.0000      -0.690296       -18.7839
  37   2.0000      -0.660081       -17.9617
  38   2.0000      -0.638908       -17.3856
  39   2.0000      -0.613031       -16.6814
  40   2.0000      -0.595036       -16.1918
  41   2.0000      -0.578410       -15.7393
  42   2.0000      -0.571607       -15.5542
  43   2.0000      -0.558149       -15.1880
  44   2.0000      -0.528159       -14.3719
  45   2.0000      -0.523831       -14.2542
  46   2.0000      -0.515062       -14.0155
  47   2.0000      -0.509941       -13.8762
  48   2.0000      -0.506005       -13.7691
  49   2.0000      -0.499372       -13.5886
  50   2.0000      -0.484477       -13.1833
  51   2.0000      -0.477903       -13.0044
  52   2.0000      -0.474388       -12.9088
  53   2.0000      -0.463821       -12.6212
  54   2.0000      -0.457015       -12.4360
  55   2.0000      -0.452210       -12.3053
  56   2.0000      -0.448544       -12.2055
  57   2.0000      -0.438154       -11.9228
  58   2.0000      -0.434573       -11.8253
  59   2.0000      -0.422424       -11.4948
  60   2.0000      -0.418884       -11.3984
  61   2.0000      -0.414309       -11.2739
  62   2.0000      -0.410763       -11.1774
  63   2.0000      -0.338430        -9.2092
  64   2.0000      -0.332311        -9.0427
  65   2.0000      -0.322095        -8.7647
  66   2.0000      -0.293434        -7.9848
  67   0.0000       0.029511         0.8030
  68   0.0000       0.063424         1.7259
  69   0.0000       0.099542         2.7087
  70   0.0000       0.118877         3.2348
  71   0.0000       0.123498         3.3606

MULLIKEN ATOMIC CHARGES
-----------------------
   0 S :    0.141414
   1 C :   -0.092042
   2 C :   -0.094233
   3 C :    0.039084
   4 C :   -0.172376
   5 H :    0.015243
   6 C :    0.058705
   7 H :    0.026157
   8 H :    0.053121
   9 C :   -0.130158
  10 H :    0.032634
  11 H :    0.035778
  12 C :   -0.019193
  13 H :    0.049944
  14 H :    0.007038
  15 H :    0.030335
  16 S :    0.120605
  17 C :   -0.095442
  18 C :   -0.014640
  19 C :   -0.027655
  20 C :   -0.190560
  21 H :    0.014076
  22 C :    0.067514
  23 H :    0.013386
  24 H :    0.035116
  25 C :   -0.071209
  26 H :    0.019988
  27 H :    0.031862
  28 C :   -0.047657
  29 H :    0.023115
  30 H :    0.021981
  31 H :    0.045644
  32 H :    0.009564
  33 H :    0.062861
Sum of atomic charges:    0.0000000

LOEWDIN ATOMIC CHARGES
----------------------
   0 S :    0.430298
   1 C :   -0.200758
   2 C :   -0.059595
   3 C :   -0.056984
   4 C :   -0.207145
   5 H :    0.030888
   6 C :   -0.033678
   7 H :    0.030884
   8 H :    0.037240
   9 C :   -0.044370
  10 H :    0.021010
  11 H :    0.020520
  12 C :   -0.066863
  13 H :    0.031934
  14 H :    0.021131
  15 H :    0.026665
  16 S :    0.399726
  17 C :   -0.183072
  18 C :   -0.066068
  19 C :   -0.051364
  20 C :   -0.200242
  21 H :    0.028222
  22 C :   -0.024611
  23 H :    0.021976
  24 H :    0.033775
  25 C :   -0.047248
  26 H :    0.021333
  27 H :    0.025840
  28 C :   -0.070930
  29 H :    0.025739
  30 H :    0.025105
  31 H :    0.033942
  32 H :    0.012844
  33 H :    0.033854

  Mayer bond orders larger than 0.100000
B(  0-S ,  1-C ) :   1.1363 B(  0-S ,  4-C ) :   1.1762 B(  1-C ,  2-C ) :   1.6007
B(  1-C ,  4-C ) :   0.1007 B(  1-C , 32-H ) :   0.9758 B(  2-C ,  3-C ) :   1.2623
B(  2-C ,  6-C ) :   1.0087 B(  3-C ,  4-C ) :   1.5301 B(  3-C ,  5-H ) :   0.9968
B(  4-C , 20-C ) :   1.0201 B(  6-C ,  7-H ) :   0.9436 B(  6-C ,  8-H ) :   0.9344
B(  6-C ,  9-C ) :   1.0653 B(  9-C , 10-H ) :   0.9644 B(  9-C , 11-H ) :   0.9521
B(  9-C , 12-C ) :   1.0626 B( 12-C , 13-H ) :   0.9773 B( 12-C , 14-H ) :   0.9722
B( 12-C , 15-H ) :   0.9764 B( 16-S , 17-C ) :   1.1331 B( 16-S , 20-C ) :   1.1495
B( 17-C , 18-C ) :   1.6219 B( 17-C , 20-C ) :   0.1013 B( 17-C , 33-H ) :   0.9634
B( 18-C , 19-C ) :   1.2397 B( 18-C , 21-H ) :   0.9815 B( 19-C , 20-C ) :   1.5799
B( 19-C , 22-C ) :   1.0452 B( 22-C , 23-H ) :   0.9314 B( 22-C , 24-H ) :   0.9370
B( 22-C , 25-C ) :   1.0646 B( 25-C , 26-H ) :   0.9505 B( 25-C , 27-H ) :   0.9516
B( 25-C , 28-C ) :   1.1032 B( 28-C , 29-H ) :   0.9670 B( 28-C , 30-H ) :   0.9656
B( 28-C , 31-H ) :   0.9691

Dispersion correction           -0.013430855
FINAL SINGLE POINT ENERGY     -1339.854831878527

DIPOLE MOMENT
-------------
                                X             Y             Z
Electronic contribution:     11.94767     -13.82360       6.72293
Nuclear contribution   :    -12.11098      14.20444      -6.82147
                        -----------------------------------------
Total Dipole Moment    :     -0.16331       0.38084      -0.09853
                        -----------------------------------------
Magnitude (a.u.)       :      0.42593
Magnitude (Debye)      :      1.08263

Rotational constants in cm-1:     0.018966     0.007264     0.006386
Rotational constants in MHz :   568.578054   217.780367   191.437377

                             ****ORCA TERMINATED NORMALLY****
TOTAL RUN TIME: 0 days 0 hours 0 minutes 28 seconds 546 msec
