                         Program Version 4.2.1 -  RELEASE  -
|  1> ! wB97X-D3 SP def2-SVP
|  2> %pal
|  3> nprocs 16
|  4> end
|  5>
|  6> * xyz 0 1
|  7> S 	 -27.886 	 57.0702 	 110.401
|  8> C 	 -28.7998 	 56.163 	 111.584
|  9> C 	 -28.7637 	 56.8706 	 112.836
| 10> C 	 -28.1202 	 58.1219 	 112.666
| 11> C 	 -27.6074 	 58.4447 	 111.436
| 12> H 	 -27.9595 	 58.8787 	 113.469
| 13> C 	 -29.5103 	 56.4289 	 114.132
| 14> H 	 -29.4571 	 55.4092 	 114.448
| 15> H 	 -30.5137 	 56.5271 	 113.94
| 16> C 	 -29.1821 	 57.2066 	 115.431
| 17> H 	 -29.503 	 58.269 	 115.339
| 18> H 	 -29.8001 	 56.8333 	 116.199
| 19> C 	 -27.7204 	 57.1737 	 115.816
| 20> H 	 -27.1208 	 57.8264 	 115.209
| 21> H 	 -27.6769 	 57.5009 	 116.875
| 22> H 	 -27.3532 	 56.1872 	 115.696
| 23> S 	 -25.038 	 59.2285 	 111.035
| 24> C 	 -24.5832 	 60.8744 	 110.655
| 25> C 	 -25.7557 	 61.651 	 110.734
| 26> C 	 -26.9866 	 60.9694 	 111.03
| 27> C 	 -26.7262 	 59.5772 	 111.124
| 28> H 	 -25.6039 	 62.7277 	 110.64
| 29> C 	 -28.3695 	 61.6637 	 110.904
| 30> H 	 -29.1718 	 60.9013 	 110.932
| 31> H 	 -28.2663 	 62.0798 	 109.879
| 32> C 	 -28.4542 	 62.7893 	 111.924
| 33> H 	 -29.4697 	 63.3357 	 111.795
| 34> H 	 -27.6824 	 63.4696 	 111.673
| 35> C 	 -28.3436 	 62.4698 	 113.346
| 36> H 	 -28.6871 	 63.3489 	 113.936
| 37> H 	 -27.3367 	 62.2412 	 113.454
| 38> H 	 -28.8349 	 61.4668 	 113.454
| 39> H 	 -29.3391 	 55.2413 	 111.47
| 40> H 	 -23.5036 	 61.27 	 110.633
| 41> *
| 42>
| 43>                          ****END OF INPUT****

CARTESIAN COORDINATES (ANGSTROEM)
---------------------------------
  S    -27.886000   57.070200  110.401000
  C    -28.799800   56.163000  111.584000
  C    -28.763700   56.870600  112.836000
  C    -28.120200   58.121900  112.666000
  C    -27.607400   58.444700  111.436000
  H    -27.959500   58.878700  113.469000
  C    -29.510300   56.428900  114.132000
  H    -29.457100   55.409200  114.448000
  H    -30.513700   56.527100  113.940000
  C    -29.182100   57.206600  115.431000
  H    -29.503000   58.269000  115.339000
  H    -29.800100   56.833300  116.199000
  C    -27.720400   57.173700  115.816000
  H    -27.120800   57.826400  115.209000
  H    -27.676900   57.500900  116.875000
  H    -27.353200   56.187200  115.696000
  S    -25.038000   59.228500  111.035000
  C    -24.583200   60.874400  110.655000
  C    -25.755700   61.651000  110.734000
  C    -26.986600   60.969400  111.030000
  C    -26.726200   59.577200  111.124000
  H    -25.603900   62.727700  110.640000
  C    -28.369500   61.663700  110.904000
  H    -29.171800   60.901300  110.932000
  H    -28.266300   62.079800  109.879000
  C    -28.454200   62.789300  111.924000
  H    -29.469700   63.335700  111.795000
  H    -27.682400   63.469600  111.673000
  C    -28.343600   62.469800  113.346000
  H    -28.687100   63.348900  113.936000
  H    -27.336700   62.241200  113.454000
  H    -28.834900   61.466800  113.454000
  H    -29.339100   55.241300  111.470000
  H    -23.503600   61.270000  110.633000

 Total Charge           Charge          ....    0
 Multiplicity           Mult            ....    1
 Number of Electrons    NEL             ....  134
 Basis Dimension        Dim             ....  322

ORBITAL ENERGIES
----------------

  NO   OCC          E(Eh)            E(eV)
   0   2.0000     -88.969038     -2420.9706
   1   2.0000     -88.966351     -2420.8975
   2   2.0000     -10.331501      -281.1344
   3   2.0000     -10.328194      -281.0445
   4   2.0000     -10.327203      -281.0175
   5   2.0000     -10.321150      -280.8528
   6   2.0000     -10.311743      -280.5968
   7   2.0000     -10.310889      -280.5735
   8   2.0000     -10.299822      -280.2724
   9   2.0000     -10.299468      -280.2628
  10   2.0000     -10.295460      -280.1537
  11   2.0000     -10.288015      -279.9511
  12   2.0000     -10.282715      -279.8069
  13   2.0000     -10.281728      -279.7800
  14   2.0000     -10.270851      -279.4841
  15   2.0000     -10.270358      -279.4707
  16   2.0000      -8.083328      -219.9585
  17   2.0000      -8.081329      -219.9041
  18   2.0000      -6.041791      -164.4055
  19   2.0000      -6.039764      -164.3503
  20   2.0000      -6.037627      -164.2922
  21   2.0000      -6.035584      -164.2366
  22   2.0000      -6.034409      -164.2046
  23   2.0000      -6.032341      -164.1483
  24   2.0000      -1.006324       -27.3835
  25   2.0000      -0.983109       -26.7518
  26   2.0000      -0.919599       -25.0236
  27   2.0000      -0.911354       -24.7992
  28   2.0000      -0.867950       -23.6181
  29   2.0000      -0.851513       -23.1709
  30   2.0000      -0.842292       -22.9199
  31   2.0000      -0.814821       -22.1724
  32   2.0000      -0.787859       -21.4387
  33   2.0000      -0.775981       -21.1155
  34   2.0000      -0.703448       -19.1418
  35   2.0000      -0.693098       -18.8602
  36   2.0000      -0.686826       -18.6895
  37   2.0000      -0.650108       -17.6903
  38   2.0000      -0.643359       -17.5067
  39   2.0000      -0.621230       -16.9045
  40   2.0000      -0.597056       -16.2467
  41   2.0000      -0.571124       -15.5411
  42   2.0000      -0.561653       -15.2834
  43   2.0000      -0.554572       -15.0907
  44   2.0000      -0.548225       -14.9180
  45   2.0000      -0.534525       -14.5452
  46   2.0000      -0.520963       -14.1761
  47   2.0000      -0.512471       -13.9450
  48   2.0000      -0.504189       -13.7197
  49   2.0000      -0.497814       -13.5462
  50   2.0000      -0.491679       -13.3793
  51   2.0000      -0.481248       -13.0954
  52   2.0000      -0.473859       -12.8944
  53   2.0000      -0.466744       -12.7007
  54   2.0000      -0.464075       -12.6281
  55   2.0000      -0.445905       -12.1337
  56   2.0000      -0.439095       -11.9484
  57   2.0000      -0.432516       -11.7694
  58   2.0000      -0.430145       -11.7048
  59   2.0000      -0.419775       -11.4226
  60   2.0000      -0.419359       -11.4113
  61   2.0000      -0.415288       -11.3006
  62   2.0000      -0.403551       -10.9812
  63   2.0000      -0.341099        -9.2818
  64   2.0000      -0.328105        -8.9282
  65   2.0000      -0.326857        -8.8942
  66   2.0000      -0.301933        -8.2160
  67   0.0000       0.036367         0.9896
  68   0.0000       0.052808         1.4370
  69   0.0000       0.113861         3.0983
  70   0.0000       0.125341         3.4107
  71   0.0000       0.132444         3.6040

MULLIKEN ATOMIC CHARGES
-----------------------
   0 S :    0.122165
   1 C :   -0.113991
   2 C :   -0.085518
   3 C :    0.010779
   4 C :   -0.174496
   5 H :    0.030492
   6 C :    0.093715
   7 H :    0.020865
   8 H :    0.017298
   9 C :   -0.098516
  10 H :    0.025204
  11 H :    0.016841
  12 C :   -0.021540
  13 H :    0.029703
  14 H :    0.037767
  15 H :    0.022124
  16 S :    0.121354
  17 C :   -0.131748
  18 C :   -0.067335
  19 C :   -0.044613
  20 C :   -0.184394
  21 H :    0.027920
  22 C :    0.084640
  23 H :    0.040995
  24 H :    0.051132
  25 C :   -0.122298
  26 H :    0.033990
  27 H :    0.013514
  28 C :   -0.002396
  29 H :    0.055587
  30 H :    0.017095
  31 H :    0.029132
  32 H :    0.048756
  33 H :    0.095777
Sum of atomic charges:    0.0000000

LOEWDIN ATOMIC CHARGES
----------------------
   0 S :    0.423989
   1 C :   -0.197238
   2 C :   -0.059234
   3 C :   -0.070851
   4 C :   -0.217853
   5 H :    0.035295
   6 C :   -0.027384
   7 H :    0.028871
   8 H :    0.023981
   9 C :   -0.041366
  10 H :    0.022545
  11 H :    0.019479
  12 C :   -0.058646
  13 H :    0.021671
  14 H :    0.032874
  15 H :    0.020282
  16 S :    0.427589
  17 C :   -0.210225
  18 C :   -0.081129
  19 C :   -0.059048
  20 C :   -0.211622
  21 H :    0.029326
  22 C :   -0.024557
  23 H :    0.032946
  24 H :    0.044634
  25 C :   -0.051451
  26 H :    0.028048
  27 H :    0.014651
  28 C :   -0.065276
  29 H :    0.038998
  30 H :    0.016118
  31 H :    0.031898
  32 H :    0.029562
  33 H :    0.053124

  Mayer bond orders larger than 0.100000
B(  0-S ,  1-C ) :   1.1746 B(  0-S ,  4-C ) :   1.1567 B(  1-C ,  2-C ) :   1.5508
B(  1-C ,  4-C ) :   0.1137 B(  1-C , 32-H ) :   0.9754 B(  2-C ,  3-C ) :   1.2949
B(  2-C ,  6-C ) :   0.9944 B(  3-C ,  4-C ) :   1.5621 B(  3-C ,  5-H ) :   0.9736
B(  4-C , 20-C ) :   1.0087 B(  6-C ,  7-H ) :   0.9432 B(  6-C ,  8-H ) :   0.9351
B(  6-C ,  9-C ) :   1.0982 B(  9-C , 10-H ) :   0.9464 B(  9-C , 11-H ) :   0.9534
B(  9-C , 12-C ) :   1.0802 B( 12-C , 13-H ) :   0.9731 B( 12-C , 14-H ) :   0.9723
B( 12-C , 15-H ) :   0.9745 B( 16-S , 17-C ) :   1.1590 B( 16-S , 20-C ) :   1.1889
B( 17-C , 18-C ) :   1.5933 B( 17-C , 20-C ) :   0.1059 B( 17-C , 33-H ) :   0.9574
B( 18-C , 19-C ) :   1.2543 B( 18-C , 21-H ) :   0.9810 B( 19-C , 20-C ) :   1.5471
B( 19-C , 22-C ) :   1.0135 B( 22-C , 23-H ) :   0.9395 B( 22-C , 24-H ) :   0.9442
B( 22-C , 25-C ) :   1.0670 B( 25-C , 26-H ) :   0.9552 B( 25-C , 27-H ) :   0.9553
B( 25-C , 28-C ) :   1.0791 B( 28-C , 29-H ) :   0.9683 B( 28-C , 30-H ) :   0.9646
B( 28-C , 31-H ) :   0.9691

Dispersion correction           -0.014973445
FINAL SINGLE POINT ENERGY     -1339.854913290783

DIPOLE MOMENT
-------------
                                X             Y             Z
Electronic contribution:     11.77596      -9.90090     -20.65683
Nuclear contribution   :    -12.05522      10.18206      21.11942
                        -----------------------------------------
Total Dipole Moment    :     -0.27927       0.28115       0.46259
                        -----------------------------------------
Magnitude (a.u.)       :      0.60912
Magnitude (Debye)      :      1.54826

Rotational constants in cm-1:     0.017359     0.009490     0.007852
Rotational constants in MHz :   520.405947   284.513884   235.387498

                             ****ORCA TERMINATED NORMALLY****
TOTAL RUN TIME: 0 days 0 hours 0 minutes 29 seconds 383 msec
