                         Program Version 4.2.1 -  RELEASE  -
|  1> ! wB97X-D3 SP def2-SVP
|  2> %pal
|  3> nprocs 16
|  4> end
|  5>
|  6> * xyz 0 1
|  7> S 	 0.257312 	 2.8267 	 82.5319
|  8> C 	 -0.115986 	 1.19932 	 82.5496
|  9> C 	 0.861898 	 0.512656 	 83.2931
| 10> C 	 1.83901 	 1.31544 	 83.9278
| 11> C 	 1.64701 	 2.64436 	 83.6213
| 12> H 	 2.8727 	 0.982324 	 84.247
| 13> C 	 0.95824 	 -0.960255 	 83.4206
| 14> H 	 1.97954 	 -1.30989 	 83.5144
| 15> H 	 0.676365 	 -1.38724 	 82.4987
| 16> C 	 0.0733212 	 -1.70585 	 84.4375
| 17> H 	 0.310719 	 -1.18962 	 85.3043
| 18> H 	 -0.974502 	 -1.52066 	 84.3002
| 19> C 	 0.265235 	 -3.21337 	 84.6587
| 20> H 	 -0.364233 	 -3.62669 	 85.4701
| 21> H 	 -0.0417388 	 -3.73358 	 83.7441
| 22> H 	 1.31558 	 -3.46002 	 84.8636
| 23> S 	 3.35281 	 4.47966 	 82.3646
| 24> C 	 4.17721 	 5.54965 	 83.3511
| 25> C 	 3.84104 	 5.46401 	 84.6516
| 26> C 	 2.87773 	 4.501 	 84.9628
| 27> C 	 2.5282 	 3.80663 	 83.8029
| 28> H 	 4.2309 	 6.20764 	 85.3236
| 29> C 	 2.31841 	 4.1606 	 86.3488
| 30> H 	 2.11752 	 3.03259 	 86.3635
| 31> H 	 1.30581 	 4.58742 	 86.5483
| 32> C 	 3.26484 	 4.57991 	 87.5177
| 33> H 	 4.29809 	 4.19615 	 87.3756
| 34> H 	 3.03522 	 3.91452 	 88.36
| 35> C 	 3.24187 	 6.04244 	 88.0221
| 36> H 	 3.3109 	 6.66616 	 87.1652
| 37> H 	 4.00589 	 6.2296 	 88.7601
| 38> H 	 2.38208 	 6.19863 	 88.6269
| 39> H 	 -0.946273 	 0.70668 	 82.0481
| 40> H 	 5.02409 	 6.11695 	 82.906
| 41> *
| 42>
| 43>                          ****END OF INPUT****

CARTESIAN COORDINATES (ANGSTROEM)
---------------------------------
  S      0.257312    2.826700   82.531900
  C     -0.115986    1.199320   82.549600
  C      0.861898    0.512656   83.293100
  C      1.839010    1.315440   83.927800
  C      1.647010    2.644360   83.621300
  H      2.872700    0.982324   84.247000
  C      0.958240   -0.960255   83.420600
  H      1.979540   -1.309890   83.514400
  H      0.676365   -1.387240   82.498700
  C      0.073321   -1.705850   84.437500
  H      0.310719   -1.189620   85.304300
  H     -0.974502   -1.520660   84.300200
  C      0.265235   -3.213370   84.658700
  H     -0.364233   -3.626690   85.470100
  H     -0.041739   -3.733580   83.744100
  H      1.315580   -3.460020   84.863600
  S      3.352810    4.479660   82.364600
  C      4.177210    5.549650   83.351100
  C      3.841040    5.464010   84.651600
  C      2.877730    4.501000   84.962800
  C      2.528200    3.806630   83.802900
  H      4.230900    6.207640   85.323600
  C      2.318410    4.160600   86.348800
  H      2.117520    3.032590   86.363500
  H      1.305810    4.587420   86.548300
  C      3.264840    4.579910   87.517700
  H      4.298090    4.196150   87.375600
  H      3.035220    3.914520   88.360000
  C      3.241870    6.042440   88.022100
  H      3.310900    6.666160   87.165200
  H      4.005890    6.229600   88.760100
  H      2.382080    6.198630   88.626900
  H     -0.946273    0.706680   82.048100
  H      5.024090    6.116950   82.906000

 Total Charge           Charge          ....    0
 Multiplicity           Mult            ....    1
 Number of Electrons    NEL             ....  134
 Basis Dimension        Dim             ....  322

ORBITAL ENERGIES
----------------

  NO   OCC          E(Eh)            E(eV)
   0   2.0000     -88.965348     -2420.8702
   1   2.0000     -88.963646     -2420.8239
   2   2.0000     -10.328544      -281.0540
   3   2.0000     -10.324472      -280.9432
   4   2.0000     -10.311952      -280.6025
   5   2.0000     -10.310578      -280.5651
   6   2.0000     -10.303941      -280.3845
   7   2.0000     -10.303586      -280.3748
   8   2.0000     -10.297879      -280.2195
   9   2.0000     -10.296496      -280.1819
  10   2.0000     -10.289465      -279.9906
  11   2.0000     -10.284916      -279.8668
  12   2.0000     -10.281215      -279.7661
  13   2.0000     -10.278742      -279.6988
  14   2.0000     -10.275084      -279.5993
  15   2.0000     -10.273851      -279.5657
  16   2.0000      -8.081092      -219.8977
  17   2.0000      -8.079697      -219.8597
  18   2.0000      -6.039368      -164.3396
  19   2.0000      -6.037852      -164.2983
  20   2.0000      -6.035249      -164.2275
  21   2.0000      -6.034038      -164.1945
  22   2.0000      -6.032224      -164.1452
  23   2.0000      -6.030725      -164.1044
  24   2.0000      -1.011770       -27.5316
  25   2.0000      -0.993730       -27.0408
  26   2.0000      -0.910276       -24.7699
  27   2.0000      -0.904063       -24.6008
  28   2.0000      -0.869978       -23.6733
  29   2.0000      -0.853889       -23.2355
  30   2.0000      -0.851541       -23.1716
  31   2.0000      -0.815677       -22.1957
  32   2.0000      -0.788094       -21.4451
  33   2.0000      -0.767670       -20.8894
  34   2.0000      -0.704325       -19.1656
  35   2.0000      -0.700542       -19.0627
  36   2.0000      -0.694417       -18.8960
  37   2.0000      -0.653842       -17.7919
  38   2.0000      -0.644816       -17.5463
  39   2.0000      -0.619518       -16.8579
  40   2.0000      -0.603387       -16.4190
  41   2.0000      -0.569126       -15.4867
  42   2.0000      -0.559100       -15.2139
  43   2.0000      -0.549383       -14.9495
  44   2.0000      -0.535582       -14.5739
  45   2.0000      -0.523032       -14.2324
  46   2.0000      -0.515797       -14.0355
  47   2.0000      -0.511370       -13.9151
  48   2.0000      -0.506269       -13.7763
  49   2.0000      -0.495992       -13.4966
  50   2.0000      -0.492241       -13.3946
  51   2.0000      -0.483259       -13.1502
  52   2.0000      -0.473931       -12.8963
  53   2.0000      -0.467242       -12.7143
  54   2.0000      -0.464071       -12.6280
  55   2.0000      -0.448721       -12.2103
  56   2.0000      -0.443636       -12.0720
  57   2.0000      -0.433869       -11.8062
  58   2.0000      -0.431043       -11.7293
  59   2.0000      -0.428310       -11.6549
  60   2.0000      -0.419733       -11.4215
  61   2.0000      -0.411707       -11.2031
  62   2.0000      -0.408049       -11.1036
  63   2.0000      -0.348245        -9.4762
  64   2.0000      -0.335066        -9.1176
  65   2.0000      -0.322372        -8.7722
  66   2.0000      -0.292515        -7.9598
  67   0.0000       0.037463         1.0194
  68   0.0000       0.058408         1.5894
  69   0.0000       0.113458         3.0873
  70   0.0000       0.127136         3.4596
  71   0.0000       0.134655         3.6642

MULLIKEN ATOMIC CHARGES
-----------------------
   0 S :    0.120413
   1 C :   -0.098366
   2 C :   -0.127124
   3 C :    0.039998
   4 C :   -0.193663
   5 H :    0.053168
   6 C :    0.087675
   7 H :    0.007448
   8 H :   -0.006529
   9 C :   -0.039884
  10 H :   -0.000217
  11 H :    0.014270
  12 C :   -0.053181
  13 H :    0.043173
  14 H :    0.028166
  15 H :    0.030864
  16 S :    0.122643
  17 C :   -0.098382
  18 C :   -0.046537
  19 C :    0.014316
  20 C :   -0.196453
  21 H :    0.012072
  22 C :    0.057948
  23 H :    0.045965
  24 H :    0.048796
  25 C :   -0.123766
  26 H :    0.029090
  27 H :    0.018617
  28 C :    0.003913
  29 H :    0.029150
  30 H :    0.028804
  31 H :    0.022391
  32 H :    0.053844
  33 H :    0.071381
Sum of atomic charges:    0.0000000

LOEWDIN ATOMIC CHARGES
----------------------
   0 S :    0.438570
   1 C :   -0.224334
   2 C :   -0.067696
   3 C :   -0.073830
   4 C :   -0.189280
   5 H :    0.050988
   6 C :   -0.034713
   7 H :    0.028125
   8 H :    0.019509
   9 C :   -0.038672
  10 H :    0.011526
  11 H :    0.019856
  12 C :   -0.064867
  13 H :    0.032738
  14 H :    0.023699
  15 H :    0.024193
  16 S :    0.423546
  17 C :   -0.206801
  18 C :   -0.084458
  19 C :   -0.049446
  20 C :   -0.201536
  21 H :    0.030083
  22 C :   -0.034238
  23 H :    0.045320
  24 H :    0.039671
  25 C :   -0.055538
  26 H :    0.026036
  27 H :    0.025747
  28 C :   -0.058143
  29 H :    0.017901
  30 H :    0.030055
  31 H :    0.024104
  32 H :    0.034717
  33 H :    0.037168

  Mayer bond orders larger than 0.100000
B(  0-S ,  1-C ) :   1.1649 B(  0-S ,  4-C ) :   1.1808 B(  1-C ,  2-C ) :   1.5603
B(  1-C ,  4-C ) :   0.1023 B(  1-C , 32-H ) :   0.9711 B(  2-C ,  3-C ) :   1.2820
B(  2-C ,  6-C ) :   1.0452 B(  3-C ,  4-C ) :   1.5595 B(  3-C ,  5-H ) :   0.9734
B(  4-C , 20-C ) :   1.0131 B(  6-C ,  7-H ) :   0.9389 B(  6-C ,  8-H ) :   0.9281
B(  6-C ,  9-C ) :   1.0532 B(  9-C , 10-H ) :   0.9525 B(  9-C , 11-H ) :   0.9545
B(  9-C , 12-C ) :   1.0849 B( 12-C , 13-H ) :   0.9734 B( 12-C , 14-H ) :   0.9761
B( 12-C , 15-H ) :   0.9748 B( 16-S , 17-C ) :   1.1809 B( 16-S , 20-C ) :   1.1582
B( 17-C , 18-C ) :   1.5957 B( 17-C , 33-H ) :   0.9559 B( 18-C , 19-C ) :   1.2620
B( 18-C , 21-H ) :   0.9885 B( 19-C , 20-C ) :   1.5831 B( 19-C , 22-C ) :   1.0309
B( 22-C , 23-H ) :   0.9342 B( 22-C , 24-H ) :   0.9324 B( 22-C , 25-C ) :   1.0639
B( 25-C , 26-H ) :   0.9589 B( 25-C , 27-H ) :   0.9535 B( 25-C , 28-C ) :   1.0679
B( 28-C , 29-H ) :   0.9803 B( 28-C , 30-H ) :   0.9701 B( 28-C , 31-H ) :   0.9705

Dispersion correction           -0.013564425
FINAL SINGLE POINT ENERGY     -1339.866963787389

DIPOLE MOMENT
-------------
                                X             Y             Z
Electronic contribution:      0.43709      14.70614     -21.61267
Nuclear contribution   :     -0.24152     -14.92914      21.98865
                        -----------------------------------------
Total Dipole Moment    :      0.19557      -0.22300       0.37598
                        -----------------------------------------
Magnitude (a.u.)       :      0.47889
Magnitude (Debye)      :      1.21725

Rotational constants in cm-1:     0.020224     0.007246     0.005924
Rotational constants in MHz :   606.295503   217.225296   177.592236

                             ****ORCA TERMINATED NORMALLY****
TOTAL RUN TIME: 0 days 0 hours 0 minutes 33 seconds 410 msec
