                         Program Version 4.2.1 -  RELEASE  -
|  1> ! wB97X-D3 SP def2-SVP
|  2> %pal
|  3> nprocs 16
|  4> end
|  5>
|  6> * xyz 0 1
|  7> S 	 53.197 	 0.590574 	 80.0959
|  8> C 	 51.8522 	 0.334256 	 81.2167
|  9> C 	 52.0811 	 0.885062 	 82.4477
| 10> C 	 53.3944 	 1.44293 	 82.5867
| 11> C 	 54.0965 	 1.34749 	 81.3922
| 12> H 	 53.8792 	 1.75161 	 83.4627
| 13> C 	 51.1167 	 0.857844 	 83.6146
| 14> H 	 50.9008 	 -0.170239 	 83.9348
| 15> H 	 50.1729 	 1.05016 	 83.1537
| 16> C 	 51.4798 	 1.81298 	 84.8401
| 17> H 	 52.5193 	 1.7031 	 85.0183
| 18> H 	 51.392 	 2.79456 	 84.3204
| 19> C 	 50.6491 	 1.78076 	 86.0759
| 20> H 	 50.9683 	 1.10203 	 86.843
| 21> H 	 50.742 	 2.7217 	 86.5739
| 22> H 	 49.571 	 1.66378 	 85.9075
| 23> S 	 55.8916 	 3.40192 	 81.7541
| 24> C 	 57.5223 	 3.32099 	 81.0206
| 25> C 	 57.7303 	 2.09354 	 80.5651
| 26> C 	 56.6393 	 1.20321 	 80.6186
| 27> C 	 55.4887 	 1.78735 	 81.2186
| 28> H 	 58.6794 	 1.81697 	 80.1515
| 29> C 	 56.7592 	 -0.28809 	 80.2969
| 30> H 	 55.6815 	 -0.714409 	 80.3334
| 31> H 	 57.2429 	 -0.721813 	 81.1336
| 32> C 	 57.4207 	 -0.618314 	 78.9263
| 33> H 	 58.3508 	 -0.0139313 	 78.7501
| 34> H 	 56.7702 	 -0.304846 	 78.0669
| 35> C 	 57.784 	 -2.10683 	 78.9113
| 36> H 	 57.0068 	 -2.78137 	 78.9459
| 37> H 	 58.3983 	 -2.48567 	 79.7313
| 38> H 	 58.3351 	 -2.43811 	 78.0096
| 39> H 	 50.9337 	 -0.24203 	 80.9256
| 40> H 	 58.3468 	 3.98536 	 81.1348
| 41> *
| 42>
| 43>                          ****END OF INPUT****

CARTESIAN COORDINATES (ANGSTROEM)
---------------------------------
  S     53.197000    0.590574   80.095900
  C     51.852200    0.334256   81.216700
  C     52.081100    0.885062   82.447700
  C     53.394400    1.442930   82.586700
  C     54.096500    1.347490   81.392200
  H     53.879200    1.751610   83.462700
  C     51.116700    0.857844   83.614600
  H     50.900800   -0.170239   83.934800
  H     50.172900    1.050160   83.153700
  C     51.479800    1.812980   84.840100
  H     52.519300    1.703100   85.018300
  H     51.392000    2.794560   84.320400
  C     50.649100    1.780760   86.075900
  H     50.968300    1.102030   86.843000
  H     50.742000    2.721700   86.573900
  H     49.571000    1.663780   85.907500
  S     55.891600    3.401920   81.754100
  C     57.522300    3.320990   81.020600
  C     57.730300    2.093540   80.565100
  C     56.639300    1.203210   80.618600
  C     55.488700    1.787350   81.218600
  H     58.679400    1.816970   80.151500
  C     56.759200   -0.288090   80.296900
  H     55.681500   -0.714409   80.333400
  H     57.242900   -0.721813   81.133600
  C     57.420700   -0.618314   78.926300
  H     58.350800   -0.013931   78.750100
  H     56.770200   -0.304846   78.066900
  C     57.784000   -2.106830   78.911300
  H     57.006800   -2.781370   78.945900
  H     58.398300   -2.485670   79.731300
  H     58.335100   -2.438110   78.009600
  H     50.933700   -0.242030   80.925600
  H     58.346800    3.985360   81.134800

 Total Charge           Charge          ....    0
 Multiplicity           Mult            ....    1
 Number of Electrons    NEL             ....  134
 Basis Dimension        Dim             ....  322

ORBITAL ENERGIES
----------------

  NO   OCC          E(Eh)            E(eV)
   0   2.0000     -88.970592     -2421.0129
   1   2.0000     -88.962329     -2420.7880
   2   2.0000     -10.331815      -281.1430
   3   2.0000     -10.328046      -281.0404
   4   2.0000     -10.315900      -280.7099
   5   2.0000     -10.310771      -280.5703
   6   2.0000     -10.302289      -280.3395
   7   2.0000     -10.300833      -280.2999
   8   2.0000     -10.296362      -280.1783
   9   2.0000     -10.293467      -280.0995
  10   2.0000     -10.291352      -280.0419
  11   2.0000     -10.291186      -280.0374
  12   2.0000     -10.290546      -280.0200
  13   2.0000     -10.283997      -279.8418
  14   2.0000     -10.276167      -279.6287
  15   2.0000     -10.271085      -279.4904
  16   2.0000      -8.084518      -219.9909
  17   2.0000      -8.076443      -219.7712
  18   2.0000      -6.043059      -164.4400
  19   2.0000      -6.039192      -164.3348
  20   2.0000      -6.035244      -164.2273
  21   2.0000      -6.035070      -164.2226
  22   2.0000      -6.031010      -164.1121
  23   2.0000      -6.027129      -164.0065
  24   2.0000      -1.004209       -27.3259
  25   2.0000      -0.983358       -26.7585
  26   2.0000      -0.908687       -24.7266
  27   2.0000      -0.900783       -24.5116
  28   2.0000      -0.873804       -23.7774
  29   2.0000      -0.854796       -23.2602
  30   2.0000      -0.842262       -22.9191
  31   2.0000      -0.819856       -22.3094
  32   2.0000      -0.783934       -21.3319
  33   2.0000      -0.767101       -20.8739
  34   2.0000      -0.718350       -19.5473
  35   2.0000      -0.704577       -19.1725
  36   2.0000      -0.690058       -18.7774
  37   2.0000      -0.660164       -17.9640
  38   2.0000      -0.638184       -17.3659
  39   2.0000      -0.618174       -16.8214
  40   2.0000      -0.593639       -16.1537
  41   2.0000      -0.567259       -15.4359
  42   2.0000      -0.561587       -15.2816
  43   2.0000      -0.553884       -15.0720
  44   2.0000      -0.526535       -14.3277
  45   2.0000      -0.523462       -14.2441
  46   2.0000      -0.516600       -14.0574
  47   2.0000      -0.508916       -13.8483
  48   2.0000      -0.504166       -13.7190
  49   2.0000      -0.499115       -13.5816
  50   2.0000      -0.490939       -13.3591
  51   2.0000      -0.479836       -13.0570
  52   2.0000      -0.478950       -13.0329
  53   2.0000      -0.469208       -12.7678
  54   2.0000      -0.458072       -12.4648
  55   2.0000      -0.452904       -12.3241
  56   2.0000      -0.447322       -12.1723
  57   2.0000      -0.436805       -11.8861
  58   2.0000      -0.434842       -11.8326
  59   2.0000      -0.429588       -11.6897
  60   2.0000      -0.414479       -11.2785
  61   2.0000      -0.410672       -11.1750
  62   2.0000      -0.407432       -11.0868
  63   2.0000      -0.350024        -9.5246
  64   2.0000      -0.332948        -9.0600
  65   2.0000      -0.325648        -8.8613
  66   2.0000      -0.288944        -7.8626
  67   0.0000       0.025966         0.7066
  68   0.0000       0.076715         2.0875
  69   0.0000       0.107292         2.9196
  70   0.0000       0.115865         3.1528
  71   0.0000       0.137193         3.7332

MULLIKEN ATOMIC CHARGES
-----------------------
   0 S :    0.124055
   1 C :   -0.168932
   2 C :   -0.056384
   3 C :    0.002857
   4 C :   -0.123105
   5 H :    0.001076
   6 C :    0.078021
   7 H :    0.027805
   8 H :    0.010445
   9 C :   -0.105390
  10 H :    0.032714
  11 H :    0.038218
  12 C :    0.008004
  13 H :    0.029405
  14 H :    0.021586
  15 H :    0.031773
  16 S :    0.089100
  17 C :   -0.063331
  18 C :   -0.027600
  19 C :   -0.035780
  20 C :   -0.165519
  21 H :    0.007797
  22 C :    0.035876
  23 H :    0.038842
  24 H :    0.035478
  25 C :   -0.085260
  26 H :    0.037025
  27 H :    0.044691
  28 C :   -0.025698
  29 H :    0.006251
  30 H :    0.021544
  31 H :    0.026510
  32 H :    0.062974
  33 H :    0.044952
Sum of atomic charges:    0.0000000

LOEWDIN ATOMIC CHARGES
----------------------
   0 S :    0.409501
   1 C :   -0.205319
   2 C :   -0.057257
   3 C :   -0.063532
   4 C :   -0.184459
   5 H :    0.022842
   6 C :   -0.036272
   7 H :    0.030568
   8 H :    0.027234
   9 C :   -0.040144
  10 H :    0.019068
  11 H :    0.033609
  12 C :   -0.065635
  13 H :    0.025890
  14 H :    0.030037
  15 H :    0.030485
  16 S :    0.390784
  17 C :   -0.171385
  18 C :   -0.071413
  19 C :   -0.063848
  20 C :   -0.197802
  21 H :    0.028038
  22 C :   -0.035261
  23 H :    0.033452
  24 H :    0.028087
  25 C :   -0.042748
  26 H :    0.025829
  27 H :    0.034084
  28 C :   -0.071397
  29 H :    0.013789
  30 H :    0.027225
  31 H :    0.028655
  32 H :    0.037730
  33 H :    0.029563

  Mayer bond orders larger than 0.100000
B(  0-S ,  1-C ) :   1.1207 B(  0-S ,  4-C ) :   1.1538 B(  1-C ,  2-C ) :   1.6358
B(  1-C , 32-H ) :   0.9647 B(  2-C ,  3-C ) :   1.2274 B(  2-C ,  6-C ) :   1.0030
B(  3-C ,  4-C ) :   1.5625 B(  3-C ,  5-H ) :   0.9981 B(  4-C , 20-C ) :   1.0369
B(  6-C ,  7-H ) :   0.9349 B(  6-C ,  8-H ) :   0.9317 B(  6-C ,  9-C ) :   1.0569
B(  9-C , 10-H ) :   0.9513 B(  9-C , 11-H ) :   0.9602 B(  9-C , 12-C ) :   1.0902
B( 12-C , 13-H ) :   0.9708 B( 12-C , 14-H ) :   0.9651 B( 12-C , 15-H ) :   0.9718
B( 16-S , 17-C ) :   1.1283 B( 16-S , 20-C ) :   1.1466 B( 17-C , 18-C ) :   1.6343
B( 17-C , 33-H ) :   0.9638 B( 18-C , 19-C ) :   1.2554 B( 18-C , 21-H ) :   0.9861
B( 19-C , 20-C ) :   1.5575 B( 19-C , 22-C ) :   1.0307 B( 22-C , 23-H ) :   0.9302
B( 22-C , 24-H ) :   0.9469 B( 22-C , 25-C ) :   1.0423 B( 25-C , 26-H ) :   0.9616
B( 25-C , 27-H ) :   0.9543 B( 25-C , 28-C ) :   1.0733 B( 28-C , 29-H ) :   0.9724
B( 28-C , 30-H ) :   0.9740 B( 28-C , 31-H ) :   0.9729

Dispersion correction           -0.013518065
FINAL SINGLE POINT ENERGY     -1339.868126825556

DIPOLE MOMENT
-------------
                                X             Y             Z
Electronic contribution:      2.00636      11.94609      -8.13330
Nuclear contribution   :     -1.97751     -12.31253       8.48584
                        -----------------------------------------
Total Dipole Moment    :      0.02885      -0.36644       0.35254
                        -----------------------------------------
Magnitude (a.u.)       :      0.50931
Magnitude (Debye)      :      1.29455

Rotational constants in cm-1:     0.020849     0.007410     0.006092
Rotational constants in MHz :   625.031201   222.133034   182.628903

                             ****ORCA TERMINATED NORMALLY****
TOTAL RUN TIME: 0 days 0 hours 0 minutes 28 seconds 730 msec
