                         Program Version 4.2.1 -  RELEASE  -
|  1> ! wB97X-D3 SP def2-SVP
|  2> %pal
|  3> nprocs 16
|  4> end
|  5>
|  6> * xyz 0 1
|  7> S 	 -43.5459 	 25.9937 	 87.1894
|  8> C 	 -43.5329 	 27.2045 	 88.4101
|  9> C 	 -43.792 	 28.434 	 87.9011
| 10> C 	 -44.2493 	 28.3592 	 86.5414
| 11> C 	 -43.9961 	 27.1342 	 85.9813
| 12> H 	 -44.6706 	 29.1081 	 85.8907
| 13> C 	 -43.8693 	 29.7912 	 88.6844
| 14> H 	 -43.1093 	 30.3851 	 88.2132
| 15> H 	 -43.6151 	 29.6759 	 89.7134
| 16> C 	 -45.3041 	 30.3411 	 88.6657
| 17> H 	 -45.811 	 30.2234 	 87.66
| 18> H 	 -46.0163 	 29.7418 	 89.3147
| 19> C 	 -45.3098 	 31.7265 	 89.2017
| 20> H 	 -44.7441 	 31.7404 	 90.1451
| 21> H 	 -44.7921 	 32.297 	 88.4194
| 22> H 	 -46.2205 	 32.2333 	 89.1986
| 23> S 	 -46.0325 	 26.1286 	 84.5792
| 24> C 	 -45.9661 	 26.0481 	 82.7986
| 25> C 	 -44.7393 	 26.3812 	 82.4094
| 26> C 	 -43.8249 	 26.7344 	 83.4748
| 27> C 	 -44.4191 	 26.7137 	 84.6787
| 28> H 	 -44.5006 	 26.4983 	 81.3158
| 29> C 	 -42.3482 	 27.1129 	 83.2693
| 30> H 	 -41.9138 	 26.521 	 82.416
| 31> H 	 -41.7768 	 26.7186 	 84.1157
| 32> C 	 -42.0579 	 28.6479 	 83.0123
| 33> H 	 -41.0036 	 28.7524 	 83.0367
| 34> H 	 -42.5102 	 29.2599 	 83.8253
| 35> C 	 -42.596 	 29.195 	 81.6931
| 36> H 	 -42.6034 	 28.5289 	 80.835
| 37> H 	 -42.0887 	 30.1841 	 81.327
| 38> H 	 -43.6477 	 29.4345 	 81.8157
| 39> H 	 -43.501 	 27.156 	 89.4575
| 40> H 	 -46.7318 	 25.673 	 82.1385
| 41> *
| 42>
| 43>                          ****END OF INPUT****

CARTESIAN COORDINATES (ANGSTROEM)
---------------------------------
  S    -43.545900   25.993700   87.189400
  C    -43.532900   27.204500   88.410100
  C    -43.792000   28.434000   87.901100
  C    -44.249300   28.359200   86.541400
  C    -43.996100   27.134200   85.981300
  H    -44.670600   29.108100   85.890700
  C    -43.869300   29.791200   88.684400
  H    -43.109300   30.385100   88.213200
  H    -43.615100   29.675900   89.713400
  C    -45.304100   30.341100   88.665700
  H    -45.811000   30.223400   87.660000
  H    -46.016300   29.741800   89.314700
  C    -45.309800   31.726500   89.201700
  H    -44.744100   31.740400   90.145100
  H    -44.792100   32.297000   88.419400
  H    -46.220500   32.233300   89.198600
  S    -46.032500   26.128600   84.579200
  C    -45.966100   26.048100   82.798600
  C    -44.739300   26.381200   82.409400
  C    -43.824900   26.734400   83.474800
  C    -44.419100   26.713700   84.678700
  H    -44.500600   26.498300   81.315800
  C    -42.348200   27.112900   83.269300
  H    -41.913800   26.521000   82.416000
  H    -41.776800   26.718600   84.115700
  C    -42.057900   28.647900   83.012300
  H    -41.003600   28.752400   83.036700
  H    -42.510200   29.259900   83.825300
  C    -42.596000   29.195000   81.693100
  H    -42.603400   28.528900   80.835000
  H    -42.088700   30.184100   81.327000
  H    -43.647700   29.434500   81.815700
  H    -43.501000   27.156000   89.457500
  H    -46.731800   25.673000   82.138500

 Total Charge           Charge          ....    0
 Multiplicity           Mult            ....    1
 Number of Electrons    NEL             ....  134
 Basis Dimension        Dim             ....  322

ORBITAL ENERGIES
----------------

  NO   OCC          E(Eh)            E(eV)
   0   2.0000     -88.965300     -2420.8689
   1   2.0000     -88.958040     -2420.6713
   2   2.0000     -10.320658      -280.8394
   3   2.0000     -10.316051      -280.7140
   4   2.0000     -10.313381      -280.6414
   5   2.0000     -10.304661      -280.4041
   6   2.0000     -10.299321      -280.2588
   7   2.0000     -10.298879      -280.2467
   8   2.0000     -10.297565      -280.2110
   9   2.0000     -10.294112      -280.1170
  10   2.0000     -10.293055      -280.0883
  11   2.0000     -10.292385      -280.0700
  12   2.0000     -10.291372      -280.0425
  13   2.0000     -10.288294      -279.9587
  14   2.0000     -10.281648      -279.7779
  15   2.0000     -10.271980      -279.5148
  16   2.0000      -8.080942      -219.8936
  17   2.0000      -8.073409      -219.6886
  18   2.0000      -6.039492      -164.3429
  19   2.0000      -6.035256      -164.2277
  20   2.0000      -6.032077      -164.1412
  21   2.0000      -6.031669      -164.1300
  22   2.0000      -6.027861      -164.0264
  23   2.0000      -6.023900      -163.9187
  24   2.0000      -1.017041       -27.6751
  25   2.0000      -0.991072       -26.9685
  26   2.0000      -0.916357       -24.9353
  27   2.0000      -0.898533       -24.4503
  28   2.0000      -0.880331       -23.9550
  29   2.0000      -0.850695       -23.1486
  30   2.0000      -0.841875       -22.9086
  31   2.0000      -0.821201       -22.3460
  32   2.0000      -0.782604       -21.2957
  33   2.0000      -0.771880       -21.0039
  34   2.0000      -0.711540       -19.3620
  35   2.0000      -0.695500       -18.9255
  36   2.0000      -0.691091       -18.8055
  37   2.0000      -0.660837       -17.9823
  38   2.0000      -0.647226       -17.6119
  39   2.0000      -0.619532       -16.8583
  40   2.0000      -0.591897       -16.1063
  41   2.0000      -0.572053       -15.5664
  42   2.0000      -0.562382       -15.3032
  43   2.0000      -0.548317       -14.9205
  44   2.0000      -0.537664       -14.6306
  45   2.0000      -0.535643       -14.5756
  46   2.0000      -0.518640       -14.1129
  47   2.0000      -0.509231       -13.8569
  48   2.0000      -0.506629       -13.7861
  49   2.0000      -0.502410       -13.6713
  50   2.0000      -0.488513       -13.2931
  51   2.0000      -0.481192       -13.0939
  52   2.0000      -0.474927       -12.9234
  53   2.0000      -0.468502       -12.7486
  54   2.0000      -0.460617       -12.5340
  55   2.0000      -0.450071       -12.2470
  56   2.0000      -0.436992       -11.8912
  57   2.0000      -0.431959       -11.7542
  58   2.0000      -0.431018       -11.7286
  59   2.0000      -0.423130       -11.5140
  60   2.0000      -0.419423       -11.4131
  61   2.0000      -0.413430       -11.2500
  62   2.0000      -0.407499       -11.0886
  63   2.0000      -0.340220        -9.2579
  64   2.0000      -0.326632        -8.8881
  65   2.0000      -0.320742        -8.7278
  66   2.0000      -0.317592        -8.6421
  67   0.0000       0.050681         1.3791
  68   0.0000       0.060921         1.6577
  69   0.0000       0.122063         3.3215
  70   0.0000       0.125645         3.4190
  71   0.0000       0.131769         3.5856

MULLIKEN ATOMIC CHARGES
-----------------------
   0 S :    0.126177
   1 C :   -0.080927
   2 C :   -0.099281
   3 C :    0.024820
   4 C :   -0.169858
   5 H :    0.018676
   6 C :    0.101136
   7 H :    0.038212
   8 H :    0.009385
   9 C :   -0.140322
  10 H :    0.040362
  11 H :    0.033593
  12 C :    0.007173
  13 H :    0.036590
  14 H :    0.016026
  15 H :    0.020322
  16 S :    0.102115
  17 C :   -0.085406
  18 C :   -0.046136
  19 C :   -0.017956
  20 C :   -0.190305
  21 H :    0.035079
  22 C :    0.038620
  23 H :    0.029789
  24 H :    0.032138
  25 C :   -0.029673
  26 H :    0.026963
  27 H :    0.036182
  28 C :   -0.092017
  29 H :    0.025023
  30 H :    0.047024
  31 H :    0.032098
  32 H :    0.019600
  33 H :    0.054780
Sum of atomic charges:   -0.0000000

LOEWDIN ATOMIC CHARGES
----------------------
   0 S :    0.428824
   1 C :   -0.204104
   2 C :   -0.058719
   3 C :   -0.055014
   4 C :   -0.211013
   5 H :    0.030921
   6 C :   -0.019409
   7 H :    0.031520
   8 H :    0.023982
   9 C :   -0.050786
  10 H :    0.027240
  11 H :    0.028037
  12 C :   -0.065016
  13 H :    0.029897
  14 H :    0.027737
  15 H :    0.018124
  16 S :    0.396395
  17 C :   -0.173805
  18 C :   -0.078173
  19 C :   -0.062759
  20 C :   -0.209129
  21 H :    0.039513
  22 C :   -0.031753
  23 H :    0.034019
  24 H :    0.032288
  25 C :   -0.035346
  26 H :    0.018979
  27 H :    0.029812
  28 C :   -0.079865
  29 H :    0.018315
  30 H :    0.038421
  31 H :    0.024143
  32 H :    0.023705
  33 H :    0.033020

  Mayer bond orders larger than 0.100000
B(  0-S ,  1-C ) :   1.1363 B(  0-S ,  4-C ) :   1.1526 B(  1-C ,  2-C ) :   1.6486
B(  1-C , 32-H ) :   0.9659 B(  2-C ,  3-C ) :   1.2112 B(  2-C ,  6-C ) :   1.0102
B(  3-C ,  4-C ) :   1.6129 B(  3-C ,  5-H ) :   0.9882 B(  4-C , 20-C ) :   1.0003
B(  6-C ,  7-H ) :   0.9449 B(  6-C ,  8-H ) :   0.9395 B(  6-C ,  9-C ) :   1.0479
B(  9-C , 10-H ) :   0.9586 B(  9-C , 11-H ) :   0.9531 B(  9-C , 12-C ) :   1.0831
B( 12-C , 13-H ) :   0.9685 B( 12-C , 14-H ) :   0.9722 B( 12-C , 15-H ) :   0.9689
B( 16-S , 17-C ) :   1.1188 B( 16-S , 20-C ) :   1.1448 B( 17-C , 18-C ) :   1.6668
B( 17-C , 33-H ) :   0.9683 B( 18-C , 19-C ) :   1.2066 B( 18-C , 21-H ) :   0.9775
B( 19-C , 20-C ) :   1.6632 B( 19-C , 22-C ) :   1.0370 B( 22-C , 23-H ) :   0.9412
B( 22-C , 24-H ) :   0.9345 B( 22-C , 25-C ) :   1.0685 B( 25-C , 26-H ) :   0.9592
B( 25-C , 27-H ) :   0.9568 B( 25-C , 28-C ) :   1.0657 B( 28-C , 29-H ) :   0.9770
B( 28-C , 30-H ) :   0.9737 B( 28-C , 31-H ) :   0.9751

Dispersion correction           -0.014581008
FINAL SINGLE POINT ENERGY     -1339.866667480914

DIPOLE MOMENT
-------------
                                X             Y             Z
Electronic contribution:     -5.78444     -23.98000       1.50049
Nuclear contribution   :      5.83847      24.51816      -1.59453
                        -----------------------------------------
Total Dipole Moment    :      0.05403       0.53815      -0.09404
                        -----------------------------------------
Magnitude (a.u.)       :      0.54898
Magnitude (Debye)      :      1.39538

Rotational constants in cm-1:     0.018484     0.008296     0.007396
Rotational constants in MHz :   554.126506   248.702002   221.733958

                             ****ORCA TERMINATED NORMALLY****
TOTAL RUN TIME: 0 days 0 hours 0 minutes 28 seconds 231 msec
