                         Program Version 4.2.1 -  RELEASE  -
|  1> ! wB97X-D3 SP def2-SVP
|  2> %pal
|  3> nprocs 16
|  4> end
|  5>
|  6> * xyz 0 1
|  7> S 	 -40.8203 	 26.2637 	 83.5973
|  8> C 	 -41.6314 	 25.3907 	 84.8947
|  9> C 	 -42.8343 	 24.9758 	 84.4366
| 10> C 	 -43.3343 	 25.7618 	 83.3551
| 11> C 	 -42.3707 	 26.5872 	 82.8111
| 12> H 	 -44.3279 	 25.7844 	 82.9093
| 13> C 	 -43.7585 	 23.8342 	 84.9447
| 14> H 	 -44.4713 	 24.2632 	 85.6
| 15> H 	 -43.1017 	 23.3622 	 85.6455
| 16> C 	 -44.3514 	 22.913 	 83.9324
| 17> H 	 -44.9986 	 22.1487 	 84.5126
| 18> H 	 -44.9848 	 23.4648 	 83.2438
| 19> C 	 -43.2704 	 22.2172 	 83.2101
| 20> H 	 -43.8947 	 21.5691 	 82.5337
| 21> H 	 -42.6494 	 22.8677 	 82.6456
| 22> H 	 -42.6144 	 21.6646 	 83.8773
| 23> S 	 -44.1334 	 28.5878 	 81.9701
| 24> C 	 -43.7383 	 29.5509 	 80.5318
| 25> C 	 -42.6081 	 29.097 	 79.9213
| 26> C 	 -41.9244 	 28.0825 	 80.6818
| 27> C 	 -42.5714 	 27.694 	 81.8572
| 28> H 	 -42.2447 	 29.6761 	 79.0792
| 29> C 	 -40.674 	 27.4201 	 80.0767
| 30> H 	 -39.8115 	 27.4356 	 80.7365
| 31> H 	 -40.3711 	 28.0484 	 79.1938
| 32> C 	 -40.892 	 25.9182 	 79.5775
| 33> H 	 -40.8867 	 25.3499 	 80.537
| 34> H 	 -40.1175 	 25.4682 	 78.9398
| 35> C 	 -42.152 	 25.5524 	 78.7668
| 36> H 	 -42.12 	 24.4281 	 78.551
| 37> H 	 -42.103 	 26.0195 	 77.7955
| 38> H 	 -43.0818 	 25.8239 	 79.1978
| 39> H 	 -41.0234 	 25.0398 	 85.7343
| 40> H 	 -44.4699 	 30.2846 	 80.1059
| 41> *
| 42>
| 43>                          ****END OF INPUT****

CARTESIAN COORDINATES (ANGSTROEM)
---------------------------------
  S    -40.820300   26.263700   83.597300
  C    -41.631400   25.390700   84.894700
  C    -42.834300   24.975800   84.436600
  C    -43.334300   25.761800   83.355100
  C    -42.370700   26.587200   82.811100
  H    -44.327900   25.784400   82.909300
  C    -43.758500   23.834200   84.944700
  H    -44.471300   24.263200   85.600000
  H    -43.101700   23.362200   85.645500
  C    -44.351400   22.913000   83.932400
  H    -44.998600   22.148700   84.512600
  H    -44.984800   23.464800   83.243800
  C    -43.270400   22.217200   83.210100
  H    -43.894700   21.569100   82.533700
  H    -42.649400   22.867700   82.645600
  H    -42.614400   21.664600   83.877300
  S    -44.133400   28.587800   81.970100
  C    -43.738300   29.550900   80.531800
  C    -42.608100   29.097000   79.921300
  C    -41.924400   28.082500   80.681800
  C    -42.571400   27.694000   81.857200
  H    -42.244700   29.676100   79.079200
  C    -40.674000   27.420100   80.076700
  H    -39.811500   27.435600   80.736500
  H    -40.371100   28.048400   79.193800
  C    -40.892000   25.918200   79.577500
  H    -40.886700   25.349900   80.537000
  H    -40.117500   25.468200   78.939800
  C    -42.152000   25.552400   78.766800
  H    -42.120000   24.428100   78.551000
  H    -42.103000   26.019500   77.795500
  H    -43.081800   25.823900   79.197800
  H    -41.023400   25.039800   85.734300
  H    -44.469900   30.284600   80.105900

 Total Charge           Charge          ....    0
 Multiplicity           Mult            ....    1
 Number of Electrons    NEL             ....  134
 Basis Dimension        Dim             ....  322

ORBITAL ENERGIES
----------------

  NO   OCC          E(Eh)            E(eV)
   0   2.0000     -88.966390     -2420.8985
   1   2.0000     -88.962606     -2420.7956
   2   2.0000     -10.335980      -281.2563
   3   2.0000     -10.334284      -281.2102
   4   2.0000     -10.323425      -280.9147
   5   2.0000     -10.316440      -280.7246
   6   2.0000     -10.310288      -280.5572
   7   2.0000     -10.303838      -280.3817
   8   2.0000     -10.299537      -280.2647
   9   2.0000     -10.296468      -280.1811
  10   2.0000     -10.294429      -280.1257
  11   2.0000     -10.289458      -279.9904
  12   2.0000     -10.288865      -279.9742
  13   2.0000     -10.282897      -279.8119
  14   2.0000     -10.273282      -279.5502
  15   2.0000     -10.272030      -279.5161
  16   2.0000      -8.079942      -219.8664
  17   2.0000      -8.077162      -219.7907
  18   2.0000      -6.038561      -164.3176
  19   2.0000      -6.035864      -164.2442
  20   2.0000      -6.034681      -164.2120
  21   2.0000      -6.031983      -164.1386
  22   2.0000      -6.030588      -164.1006
  23   2.0000      -6.027442      -164.0150
  24   2.0000      -1.004933       -27.3456
  25   2.0000      -0.982680       -26.7401
  26   2.0000      -0.921989       -25.0886
  27   2.0000      -0.893624       -24.3167
  28   2.0000      -0.872752       -23.7488
  29   2.0000      -0.847773       -23.0691
  30   2.0000      -0.839992       -22.8574
  31   2.0000      -0.816051       -22.2059
  32   2.0000      -0.784888       -21.3579
  33   2.0000      -0.772543       -21.0220
  34   2.0000      -0.708681       -19.2842
  35   2.0000      -0.693156       -18.8617
  36   2.0000      -0.682327       -18.5671
  37   2.0000      -0.664256       -18.0753
  38   2.0000      -0.638836       -17.3836
  39   2.0000      -0.619034       -16.8448
  40   2.0000      -0.586035       -15.9468
  41   2.0000      -0.566810       -15.4237
  42   2.0000      -0.561159       -15.2699
  43   2.0000      -0.554096       -15.0777
  44   2.0000      -0.545046       -14.8314
  45   2.0000      -0.537371       -14.6226
  46   2.0000      -0.525727       -14.3058
  47   2.0000      -0.513130       -13.9630
  48   2.0000      -0.505121       -13.7451
  49   2.0000      -0.489504       -13.3201
  50   2.0000      -0.487543       -13.2667
  51   2.0000      -0.474316       -12.9068
  52   2.0000      -0.471928       -12.8418
  53   2.0000      -0.465112       -12.6563
  54   2.0000      -0.453897       -12.3512
  55   2.0000      -0.444003       -12.0819
  56   2.0000      -0.440269       -11.9803
  57   2.0000      -0.437864       -11.9149
  58   2.0000      -0.428582       -11.6623
  59   2.0000      -0.422902       -11.5077
  60   2.0000      -0.416042       -11.3211
  61   2.0000      -0.408497       -11.1158
  62   2.0000      -0.403216       -10.9721
  63   2.0000      -0.355099        -9.6627
  64   2.0000      -0.332983        -9.0609
  65   2.0000      -0.327007        -8.8983
  66   2.0000      -0.288540        -7.8516
  67   0.0000       0.019962         0.5432
  68   0.0000       0.065867         1.7923
  69   0.0000       0.087624         2.3844
  70   0.0000       0.119050         3.2395
  71   0.0000       0.128412         3.4943

MULLIKEN ATOMIC CHARGES
-----------------------
   0 S :    0.086695
   1 C :   -0.149521
   2 C :   -0.092236
   3 C :   -0.017945
   4 C :   -0.130531
   5 H :    0.025620
   6 C :    0.116374
   7 H :    0.024808
   8 H :   -0.006041
   9 C :   -0.086250
  10 H :    0.045428
  11 H :    0.032506
  12 C :   -0.030432
  13 H :    0.037004
  14 H :    0.037787
  15 H :    0.027086
  16 S :    0.077723
  17 C :   -0.115092
  18 C :   -0.022009
  19 C :   -0.058993
  20 C :   -0.110040
  21 H :    0.031616
  22 C :    0.059917
  23 H :    0.039624
  24 H :    0.023625
  25 C :   -0.101012
  26 H :    0.035597
  27 H :    0.034939
  28 C :   -0.054910
  29 H :    0.040598
  30 H :    0.022074
  31 H :    0.035233
  32 H :    0.060839
  33 H :    0.079918
Sum of atomic charges:    0.0000000

LOEWDIN ATOMIC CHARGES
----------------------
   0 S :    0.380279
   1 C :   -0.188004
   2 C :   -0.060018
   3 C :   -0.071693
   4 C :   -0.177849
   5 H :    0.031493
   6 C :   -0.032503
   7 H :    0.026508
   8 H :    0.022653
   9 C :   -0.045116
  10 H :    0.038956
  11 H :    0.023113
  12 C :   -0.058499
  13 H :    0.034728
  14 H :    0.022229
  15 H :    0.024793
  16 S :    0.374443
  17 C :   -0.177391
  18 C :   -0.075985
  19 C :   -0.058562
  20 C :   -0.175826
  21 H :    0.036782
  22 C :   -0.034898
  23 H :    0.029364
  24 H :    0.031293
  25 C :   -0.047642
  26 H :    0.021222
  27 H :    0.027861
  28 C :   -0.067545
  29 H :    0.036871
  30 H :    0.020109
  31 H :    0.016652
  32 H :    0.031041
  33 H :    0.041141

  Mayer bond orders larger than 0.100000
B(  0-S ,  1-C ) :   1.1209 B(  0-S ,  4-C ) :   1.1309 B(  1-C ,  2-C ) :   1.6391
B(  1-C , 32-H ) :   0.9709 B(  2-C ,  3-C ) :   1.1830 B(  2-C ,  6-C ) :   0.9911
B(  3-C ,  4-C ) :   1.6042 B(  3-C ,  5-H ) :   0.9905 B(  4-C , 20-C ) :   1.0516
B(  6-C ,  7-H ) :   0.9329 B(  6-C ,  8-H ) :   0.9357 B(  6-C ,  9-C ) :   1.0814
B(  9-C , 10-H ) :   0.9500 B(  9-C , 11-H ) :   0.9483 B(  9-C , 12-C ) :   1.0789
B( 12-C , 13-H ) :   0.9737 B( 12-C , 14-H ) :   0.9717 B( 12-C , 15-H ) :   0.9739
B( 16-S , 17-C ) :   1.1447 B( 16-S , 20-C ) :   1.1209 B( 17-C , 18-C ) :   1.6350
B( 17-C , 33-H ) :   0.9574 B( 18-C , 19-C ) :   1.2369 B( 18-C , 21-H ) :   0.9844
B( 19-C , 20-C ) :   1.5851 B( 19-C , 22-C ) :   1.0359 B( 22-C , 23-H ) :   0.9453
B( 22-C , 24-H ) :   0.9401 B( 22-C , 25-C ) :   1.0443 B( 25-C , 26-H ) :   0.9550
B( 25-C , 27-H ) :   0.9620 B( 25-C , 28-C ) :   1.0787 B( 28-C , 29-H ) :   0.9738
B( 28-C , 30-H ) :   0.9760 B( 28-C , 31-H ) :   0.9741

Dispersion correction           -0.015726804
FINAL SINGLE POINT ENERGY     -1339.857826270795

DIPOLE MOMENT
-------------
                                X             Y             Z
Electronic contribution:      1.01367      20.00182       8.51356
Nuclear contribution   :     -1.18212     -20.34819      -8.72055
                        -----------------------------------------
Total Dipole Moment    :     -0.16845      -0.34638      -0.20699
                        -----------------------------------------
Magnitude (a.u.)       :      0.43726
Magnitude (Debye)      :      1.11142

Rotational constants in cm-1:     0.019734     0.009083     0.008384
Rotational constants in MHz :   591.619820   272.308402   251.346972

                             ****ORCA TERMINATED NORMALLY****
TOTAL RUN TIME: 0 days 0 hours 0 minutes 29 seconds 901 msec
