                         Program Version 4.2.1 -  RELEASE  -
|  1> ! wB97X-D3 SP def2-SVP
|  2> %pal
|  3> nprocs 16
|  4> end
|  5>
|  6> * xyz 0 1
|  7> S 	 -57.8469 	 28.0138 	 96.9871
|  8> C 	 -56.3826 	 27.6602 	 97.9266
|  9> C 	 -56.4737 	 26.5141 	 98.6789
| 10> C 	 -57.7722 	 25.8946 	 98.4789
| 11> C 	 -58.5469 	 26.4846 	 97.4753
| 12> H 	 -58.0662 	 24.9969 	 99.0095
| 13> C 	 -55.356 	 25.9079 	 99.4667
| 14> H 	 -54.5098 	 26.546 	 99.3343
| 15> H 	 -55.1512 	 24.9781 	 99.1024
| 16> C 	 -55.6478 	 25.7323 	 100.953
| 17> H 	 -55.9521 	 26.7092 	 101.335
| 18> H 	 -56.5173 	 25.0917 	 101.145
| 19> C 	 -54.4509 	 25.1853 	 101.646
| 20> H 	 -53.6777 	 25.9538 	 101.719
| 21> H 	 -54.722 	 25.0904 	 102.675
| 22> H 	 -53.9489 	 24.3057 	 101.277
| 23> S 	 -61.1005 	 27.2637 	 97.7838
| 24> C 	 -62.3832 	 26.3694 	 96.9998
| 25> C 	 -61.932 	 25.1392 	 96.4412
| 26> C 	 -60.4572 	 25.0836 	 96.4572
| 27> C 	 -59.8758 	 26.1496 	 97.1003
| 28> H 	 -62.6834 	 24.4929 	 96.0249
| 29> C 	 -59.7253 	 23.7913 	 95.9892
| 30> H 	 -60.4456 	 22.9367 	 95.9855
| 31> H 	 -59.1771 	 23.4965 	 96.8398
| 32> C 	 -58.8124 	 23.8554 	 94.6686
| 33> H 	 -57.8886 	 24.5174 	 94.8165
| 34> H 	 -59.2273 	 24.335 	 93.8277
| 35> C 	 -58.3833 	 22.5024 	 94.2226
| 36> H 	 -58.284 	 21.9276 	 95.1445
| 37> H 	 -57.4667 	 22.5081 	 93.6721
| 38> H 	 -59.1714 	 22.0028 	 93.5653
| 39> H 	 -55.481 	 28.2948 	 98.0648
| 40> H 	 -63.4432 	 26.5986 	 96.9216
| 41> *
| 42>
| 43>                          ****END OF INPUT****

CARTESIAN COORDINATES (ANGSTROEM)
---------------------------------
  S    -57.846900   28.013800   96.987100
  C    -56.382600   27.660200   97.926600
  C    -56.473700   26.514100   98.678900
  C    -57.772200   25.894600   98.478900
  C    -58.546900   26.484600   97.475300
  H    -58.066200   24.996900   99.009500
  C    -55.356000   25.907900   99.466700
  H    -54.509800   26.546000   99.334300
  H    -55.151200   24.978100   99.102400
  C    -55.647800   25.732300  100.953000
  H    -55.952100   26.709200  101.335000
  H    -56.517300   25.091700  101.145000
  C    -54.450900   25.185300  101.646000
  H    -53.677700   25.953800  101.719000
  H    -54.722000   25.090400  102.675000
  H    -53.948900   24.305700  101.277000
  S    -61.100500   27.263700   97.783800
  C    -62.383200   26.369400   96.999800
  C    -61.932000   25.139200   96.441200
  C    -60.457200   25.083600   96.457200
  C    -59.875800   26.149600   97.100300
  H    -62.683400   24.492900   96.024900
  C    -59.725300   23.791300   95.989200
  H    -60.445600   22.936700   95.985500
  H    -59.177100   23.496500   96.839800
  C    -58.812400   23.855400   94.668600
  H    -57.888600   24.517400   94.816500
  H    -59.227300   24.335000   93.827700
  C    -58.383300   22.502400   94.222600
  H    -58.284000   21.927600   95.144500
  H    -57.466700   22.508100   93.672100
  H    -59.171400   22.002800   93.565300
  H    -55.481000   28.294800   98.064800
  H    -63.443200   26.598600   96.921600

 Total Charge           Charge          ....    0
 Multiplicity           Mult            ....    1
 Number of Electrons    NEL             ....  134
 Basis Dimension        Dim             ....  322

ORBITAL ENERGIES
----------------

  NO   OCC          E(Eh)            E(eV)
   0   2.0000     -88.966567     -2420.9034
   1   2.0000     -88.964685     -2420.8522
   2   2.0000     -10.327827      -281.0345
   3   2.0000     -10.323369      -280.9131
   4   2.0000     -10.319931      -280.8196
   5   2.0000     -10.315559      -280.7006
   6   2.0000     -10.311732      -280.5965
   7   2.0000     -10.299111      -280.2531
   8   2.0000     -10.298559      -280.2380
   9   2.0000     -10.298058      -280.2244
  10   2.0000     -10.297602      -280.2120
  11   2.0000     -10.285973      -279.8956
  12   2.0000     -10.285299      -279.8772
  13   2.0000     -10.281855      -279.7835
  14   2.0000     -10.275101      -279.5997
  15   2.0000     -10.273704      -279.5617
  16   2.0000      -8.080785      -219.8893
  17   2.0000      -8.078786      -219.8350
  18   2.0000      -6.039416      -164.3409
  19   2.0000      -6.037469      -164.2879
  20   2.0000      -6.035399      -164.2316
  21   2.0000      -6.033404      -164.1773
  22   2.0000      -6.031394      -164.1226
  23   2.0000      -6.029371      -164.0675
  24   2.0000      -1.001851       -27.2618
  25   2.0000      -0.974189       -26.5090
  26   2.0000      -0.922655       -25.1067
  27   2.0000      -0.899429       -24.4747
  28   2.0000      -0.872486       -23.7416
  29   2.0000      -0.852030       -23.1849
  30   2.0000      -0.844827       -22.9889
  31   2.0000      -0.810490       -22.0545
  32   2.0000      -0.784518       -21.3478
  33   2.0000      -0.769301       -20.9337
  34   2.0000      -0.710954       -19.3460
  35   2.0000      -0.699321       -19.0295
  36   2.0000      -0.692248       -18.8370
  37   2.0000      -0.659575       -17.9479
  38   2.0000      -0.637114       -17.3367
  39   2.0000      -0.619121       -16.8471
  40   2.0000      -0.587862       -15.9965
  41   2.0000      -0.580598       -15.7989
  42   2.0000      -0.561947       -15.2913
  43   2.0000      -0.548670       -14.9301
  44   2.0000      -0.533591       -14.5197
  45   2.0000      -0.530923       -14.4471
  46   2.0000      -0.516128       -14.0446
  47   2.0000      -0.510404       -13.8888
  48   2.0000      -0.507438       -13.8081
  49   2.0000      -0.498048       -13.5526
  50   2.0000      -0.492775       -13.4091
  51   2.0000      -0.479164       -13.0387
  52   2.0000      -0.466293       -12.6885
  53   2.0000      -0.462411       -12.5829
  54   2.0000      -0.456090       -12.4108
  55   2.0000      -0.449075       -12.2200
  56   2.0000      -0.444151       -12.0860
  57   2.0000      -0.439319       -11.9545
  58   2.0000      -0.433303       -11.7908
  59   2.0000      -0.425375       -11.5750
  60   2.0000      -0.421272       -11.4634
  61   2.0000      -0.419349       -11.4111
  62   2.0000      -0.402787       -10.9604
  63   2.0000      -0.334089        -9.0910
  64   2.0000      -0.328765        -8.9461
  65   2.0000      -0.322416        -8.7734
  66   2.0000      -0.301085        -8.1929
  67   0.0000       0.033408         0.9091
  68   0.0000       0.059654         1.6233
  69   0.0000       0.104826         2.8525
  70   0.0000       0.119132         3.2418
  71   0.0000       0.126127         3.4321

MULLIKEN ATOMIC CHARGES
-----------------------
   0 S :    0.115980
   1 C :   -0.128113
   2 C :   -0.105789
   3 C :    0.052384
   4 C :   -0.170148
   5 H :    0.013700
   6 C :    0.143572
   7 H :    0.000631
   8 H :    0.006436
   9 C :   -0.106350
  10 H :    0.025527
  11 H :    0.030827
  12 C :   -0.010594
  13 H :    0.016748
  14 H :    0.022710
  15 H :    0.034584
  16 S :    0.111640
  17 C :   -0.093564
  18 C :   -0.058419
  19 C :   -0.013960
  20 C :   -0.164024
  21 H :    0.023170
  22 C :    0.063171
  23 H :    0.020104
  24 H :    0.014275
  25 C :   -0.059173
  26 H :    0.042700
  27 H :    0.018797
  28 C :   -0.056301
  29 H :    0.025846
  30 H :    0.033120
  31 H :    0.040763
  32 H :    0.051935
  33 H :    0.057812
Sum of atomic charges:   -0.0000000

LOEWDIN ATOMIC CHARGES
----------------------
   0 S :    0.397544
   1 C :   -0.197421
   2 C :   -0.062664
   3 C :   -0.049812
   4 C :   -0.204422
   5 H :    0.027749
   6 C :   -0.018416
   7 H :    0.026961
   8 H :    0.019867
   9 C :   -0.037846
  10 H :    0.026722
  11 H :    0.022803
  12 C :   -0.065264
  13 H :    0.026217
  14 H :    0.026778
  15 H :    0.025240
  16 S :    0.392584
  17 C :   -0.187083
  18 C :   -0.072401
  19 C :   -0.045443
  20 C :   -0.195923
  21 H :    0.030337
  22 C :   -0.030647
  23 H :    0.033458
  24 H :    0.025261
  25 C :   -0.043070
  26 H :    0.035577
  27 H :    0.017108
  28 C :   -0.068475
  29 H :    0.023573
  30 H :    0.023651
  31 H :    0.031569
  32 H :    0.034999
  33 H :    0.030892

  Mayer bond orders larger than 0.100000
B(  0-S ,  1-C ) :   1.1235 B(  0-S ,  4-C ) :   1.1349 B(  1-C ,  2-C ) :   1.6470
B(  1-C , 32-H ) :   0.9531 B(  2-C ,  3-C ) :   1.2207 B(  2-C ,  6-C ) :   1.0323
B(  3-C ,  4-C ) :   1.5865 B(  3-C ,  5-H ) :   0.9886 B(  4-C , 20-C ) :   1.0497
B(  6-C ,  7-H ) :   0.9364 B(  6-C ,  8-H ) :   0.9294 B(  6-C ,  9-C ) :   1.0627
B(  9-C , 10-H ) :   0.9513 B(  9-C , 11-H ) :   0.9556 B(  9-C , 12-C ) :   1.0966
B( 12-C , 13-H ) :   0.9680 B( 12-C , 14-H ) :   0.9675 B( 12-C , 15-H ) :   0.9729
B( 16-S , 17-C ) :   1.1505 B( 16-S , 20-C ) :   1.1183 B( 17-C , 18-C ) :   1.6394
B( 17-C , 33-H ) :   0.9647 B( 18-C , 19-C ) :   1.1976 B( 18-C , 21-H ) :   0.9903
B( 19-C , 20-C ) :   1.6481 B( 19-C , 22-C ) :   1.0259 B( 22-C , 23-H ) :   0.9483
B( 22-C , 24-H ) :   0.9300 B( 22-C , 25-C ) :   1.0385 B( 25-C , 26-H ) :   0.9553
B( 25-C , 27-H ) :   0.9618 B( 25-C , 28-C ) :   1.0839 B( 28-C , 29-H ) :   0.9751
B( 28-C , 30-H ) :   0.9724 B( 28-C , 31-H ) :   0.9747

Dispersion correction           -0.013515414
FINAL SINGLE POINT ENERGY     -1339.856163544750

DIPOLE MOMENT
-------------
                                X             Y             Z
Electronic contribution:    -16.65881      20.55559      -3.78917
Nuclear contribution   :     16.95121     -21.12639       4.03847
                        -----------------------------------------
Total Dipole Moment    :      0.29241      -0.57080       0.24929
                        -----------------------------------------
Magnitude (a.u.)       :      0.68808
Magnitude (Debye)      :      1.74897

Rotational constants in cm-1:     0.016933     0.008100     0.006738
Rotational constants in MHz :   507.640289   242.840235   201.997148

                             ****ORCA TERMINATED NORMALLY****
TOTAL RUN TIME: 0 days 0 hours 0 minutes 29 seconds 107 msec
