                         Program Version 4.2.1 -  RELEASE  -
|  1> ! wB97X-D3 SP def2-SVP
|  2> %pal
|  3> nprocs 16
|  4> end
|  5>
|  6> * xyz 0 1
|  7> S 	 33.3228 	 -0.252217 	 77.2184
|  8> C 	 33.4774 	 -1.63431 	 76.2123
|  9> C 	 33.5607 	 -2.81462 	 76.9915
| 10> C 	 33.304 	 -2.52137 	 78.3627
| 11> C 	 33.148 	 -1.13282 	 78.6394
| 12> H 	 33.3557 	 -3.28412 	 79.1899
| 13> C 	 33.877 	 -4.25147 	 76.5422
| 14> H 	 34.818 	 -4.59549 	 76.9626
| 15> H 	 34.1122 	 -4.01311 	 75.4551
| 16> C 	 32.8234 	 -5.45951 	 76.723
| 17> H 	 31.8312 	 -5.28097 	 76.3206
| 18> H 	 33.2094 	 -6.3507 	 76.0782
| 19> C 	 32.5681 	 -5.99881 	 78.154
| 20> H 	 33.3509 	 -6.54764 	 78.651
| 21> H 	 32.1838 	 -5.21605 	 78.8392
| 22> H 	 31.6742 	 -6.64685 	 78.0588
| 23> S 	 31.9413 	 0.764353 	 80.2836
| 24> C 	 32.3738 	 0.753004 	 81.9976
| 25> C 	 33.4539 	 -0.0861839 	 82.214
| 26> C 	 33.905 	 -0.808689 	 81.072
| 27> C 	 33.1647 	 -0.490473 	 79.9282
| 28> H 	 33.9424 	 -0.17147 	 83.2184
| 29> C 	 34.9779 	 -1.91069 	 81.1355
| 30> H 	 35.3255 	 -2.0968 	 80.1236
| 31> H 	 34.7011 	 -2.95229 	 81.4395
| 32> C 	 36.2002 	 -1.61941 	 81.9592
| 33> H 	 35.8049 	 -1.39785 	 82.9576
| 34> H 	 36.6344 	 -0.722147 	 81.5873
| 35> C 	 37.3411 	 -2.68611 	 81.8361
| 36> H 	 37.5342 	 -2.84022 	 80.7521
| 37> H 	 37.0305 	 -3.70021 	 82.2643
| 38> H 	 38.3207 	 -2.40966 	 82.2831
| 39> H 	 33.7336 	 -1.64921 	 75.166
| 40> H 	 31.8544 	 1.31661 	 82.7925
| 41> *
| 42>
| 43>                          ****END OF INPUT****

CARTESIAN COORDINATES (ANGSTROEM)
---------------------------------
  S     33.322800   -0.252217   77.218400
  C     33.477400   -1.634310   76.212300
  C     33.560700   -2.814620   76.991500
  C     33.304000   -2.521370   78.362700
  C     33.148000   -1.132820   78.639400
  H     33.355700   -3.284120   79.189900
  C     33.877000   -4.251470   76.542200
  H     34.818000   -4.595490   76.962600
  H     34.112200   -4.013110   75.455100
  C     32.823400   -5.459510   76.723000
  H     31.831200   -5.280970   76.320600
  H     33.209400   -6.350700   76.078200
  C     32.568100   -5.998810   78.154000
  H     33.350900   -6.547640   78.651000
  H     32.183800   -5.216050   78.839200
  H     31.674200   -6.646850   78.058800
  S     31.941300    0.764353   80.283600
  C     32.373800    0.753004   81.997600
  C     33.453900   -0.086184   82.214000
  C     33.905000   -0.808689   81.072000
  C     33.164700   -0.490473   79.928200
  H     33.942400   -0.171470   83.218400
  C     34.977900   -1.910690   81.135500
  H     35.325500   -2.096800   80.123600
  H     34.701100   -2.952290   81.439500
  C     36.200200   -1.619410   81.959200
  H     35.804900   -1.397850   82.957600
  H     36.634400   -0.722147   81.587300
  C     37.341100   -2.686110   81.836100
  H     37.534200   -2.840220   80.752100
  H     37.030500   -3.700210   82.264300
  H     38.320700   -2.409660   82.283100
  H     33.733600   -1.649210   75.166000
  H     31.854400    1.316610   82.792500

 Total Charge           Charge          ....    0
 Multiplicity           Mult            ....    1
 Number of Electrons    NEL             ....  134
 Basis Dimension        Dim             ....  322

ORBITAL ENERGIES
----------------

  NO   OCC          E(Eh)            E(eV)
   0   2.0000     -88.970784     -2421.0181
   1   2.0000     -88.968197     -2420.9477
   2   2.0000     -10.331612      -281.1375
   3   2.0000     -10.326056      -280.9863
   4   2.0000     -10.324819      -280.9526
   5   2.0000     -10.315602      -280.7018
   6   2.0000     -10.309529      -280.5366
   7   2.0000     -10.306371      -280.4506
   8   2.0000     -10.306324      -280.4493
   9   2.0000     -10.304750      -280.4065
  10   2.0000     -10.300193      -280.2825
  11   2.0000     -10.297952      -280.2215
  12   2.0000     -10.293339      -280.0960
  13   2.0000     -10.292561      -280.0748
  14   2.0000     -10.284342      -279.8512
  15   2.0000     -10.283767      -279.8355
  16   2.0000      -8.086884      -220.0553
  17   2.0000      -8.082106      -219.9253
  18   2.0000      -6.045176      -164.4976
  19   2.0000      -6.041009      -164.3842
  20   2.0000      -6.040690      -164.3755
  21   2.0000      -6.037974      -164.3016
  22   2.0000      -6.036740      -164.2680
  23   2.0000      -6.032814      -164.1612
  24   2.0000      -1.010712       -27.5029
  25   2.0000      -0.983275       -26.7563
  26   2.0000      -0.910331       -24.7714
  27   2.0000      -0.900101       -24.4930
  28   2.0000      -0.868836       -23.6422
  29   2.0000      -0.850167       -23.1342
  30   2.0000      -0.842865       -22.9355
  31   2.0000      -0.808786       -22.0082
  32   2.0000      -0.783574       -21.3221
  33   2.0000      -0.772076       -21.0092
  34   2.0000      -0.705218       -19.1899
  35   2.0000      -0.699266       -19.0280
  36   2.0000      -0.697075       -18.9684
  37   2.0000      -0.652548       -17.7567
  38   2.0000      -0.636318       -17.3151
  39   2.0000      -0.617295       -16.7974
  40   2.0000      -0.600104       -16.3297
  41   2.0000      -0.569933       -15.5087
  42   2.0000      -0.567542       -15.4436
  43   2.0000      -0.540284       -14.7019
  44   2.0000      -0.529036       -14.3958
  45   2.0000      -0.518648       -14.1131
  46   2.0000      -0.517458       -14.0808
  47   2.0000      -0.510297       -13.8859
  48   2.0000      -0.504303       -13.7228
  49   2.0000      -0.499005       -13.5786
  50   2.0000      -0.488869       -13.3028
  51   2.0000      -0.476667       -12.9708
  52   2.0000      -0.471180       -12.8214
  53   2.0000      -0.466460       -12.6930
  54   2.0000      -0.462840       -12.5945
  55   2.0000      -0.450360       -12.2549
  56   2.0000      -0.441022       -12.0008
  57   2.0000      -0.434228       -11.8159
  58   2.0000      -0.428965       -11.6727
  59   2.0000      -0.424814       -11.5598
  60   2.0000      -0.421230       -11.4622
  61   2.0000      -0.416243       -11.3265
  62   2.0000      -0.414732       -11.2854
  63   2.0000      -0.347410        -9.4535
  64   2.0000      -0.334163        -9.0930
  65   2.0000      -0.330534        -8.9943
  66   2.0000      -0.289658        -7.8820
  67   0.0000       0.025592         0.6964
  68   0.0000       0.066544         1.8108
  69   0.0000       0.108362         2.9487
  70   0.0000       0.116409         3.1676
  71   0.0000       0.130486         3.5507

MULLIKEN ATOMIC CHARGES
-----------------------
   0 S :    0.137331
   1 C :   -0.105467
   2 C :   -0.129428
   3 C :    0.000017
   4 C :   -0.150294
   5 H :    0.034960
   6 C :    0.056836
   7 H :    0.039428
   8 H :    0.024242
   9 C :   -0.085977
  10 H :    0.036393
  11 H :    0.044673
  12 C :   -0.077965
  13 H :    0.039421
  14 H :    0.041280
  15 H :    0.033913
  16 S :    0.102957
  17 C :   -0.103009
  18 C :   -0.057046
  19 C :    0.006803
  20 C :   -0.159699
  21 H :    0.039802
  22 C :    0.031536
  23 H :    0.019291
  24 H :    0.037397
  25 C :   -0.071704
  26 H :    0.027689
  27 H :    0.022157
  28 C :   -0.078536
  29 H :    0.035199
  30 H :    0.038912
  31 H :    0.049219
  32 H :    0.046952
  33 H :    0.072717
Sum of atomic charges:    0.0000000

LOEWDIN ATOMIC CHARGES
----------------------
   0 S :    0.467980
   1 C :   -0.219860
   2 C :   -0.067411
   3 C :   -0.069983
   4 C :   -0.228080
   5 H :    0.036495
   6 C :   -0.038629
   7 H :    0.032122
   8 H :    0.037167
   9 C :   -0.042894
  10 H :    0.025213
  11 H :    0.037033
  12 C :   -0.076586
  13 H :    0.020624
  14 H :    0.028249
  15 H :    0.033917
  16 S :    0.385423
  17 C :   -0.182959
  18 C :   -0.077531
  19 C :   -0.051984
  20 C :   -0.187923
  21 H :    0.038859
  22 C :   -0.039823
  23 H :    0.027015
  24 H :    0.032267
  25 C :   -0.043138
  26 H :    0.019379
  27 H :    0.020840
  28 C :   -0.071292
  29 H :    0.029161
  30 H :    0.028624
  31 H :    0.031371
  32 H :    0.027551
  33 H :    0.038804

  Mayer bond orders larger than 0.100000
B(  0-S ,  1-C ) :   1.1709 B(  0-S ,  4-C ) :   1.2035 B(  1-C ,  2-C ) :   1.5551
B(  1-C ,  4-C ) :   0.1049 B(  1-C , 32-H ) :   0.9639 B(  2-C ,  3-C ) :   1.3041
B(  2-C ,  6-C ) :   1.0177 B(  3-C ,  4-C ) :   1.4949 B(  3-C ,  5-H ) :   0.9822
B(  4-C , 20-C ) :   1.0407 B(  6-C ,  7-H ) :   0.9444 B(  6-C ,  8-H ) :   0.9408
B(  6-C ,  9-C ) :   1.0456 B(  9-C , 10-H ) :   0.9632 B(  9-C , 11-H ) :   0.9564
B(  9-C , 12-C ) :   1.0743 B( 12-C , 13-H ) :   0.9784 B( 12-C , 14-H ) :   0.9688
B( 12-C , 15-H ) :   0.9714 B( 16-S , 17-C ) :   1.1471 B( 16-S , 20-C ) :   1.1322
B( 17-C , 18-C ) :   1.6139 B( 17-C , 20-C ) :   0.1020 B( 17-C , 33-H ) :   0.9636
B( 18-C , 19-C ) :   1.2425 B( 18-C , 21-H ) :   0.9775 B( 19-C , 20-C ) :   1.5957
B( 19-C , 22-C ) :   1.0309 B( 22-C , 23-H ) :   0.9292 B( 22-C , 24-H ) :   0.9391
B( 22-C , 25-C ) :   1.0570 B( 25-C , 26-H ) :   0.9535 B( 25-C , 27-H ) :   0.9563
B( 25-C , 28-C ) :   1.0745 B( 28-C , 29-H ) :   0.9728 B( 28-C , 30-H ) :   0.9745
B( 28-C , 31-H ) :   0.9764

Dispersion correction           -0.013862506
FINAL SINGLE POINT ENERGY     -1339.870854334341

DIPOLE MOMENT
-------------
                                X             Y             Z
Electronic contribution:    -13.51525      26.75472      -5.06594
Nuclear contribution   :     13.90300     -27.33948       5.25776
                        -----------------------------------------
Total Dipole Moment    :      0.38775      -0.58477       0.19183
                        -----------------------------------------
Magnitude (a.u.)       :      0.72739
Magnitude (Debye)      :      1.84888

Rotational constants in cm-1:     0.015448     0.009284     0.007100
Rotational constants in MHz :   463.106229   278.333614   212.847701

                             ****ORCA TERMINATED NORMALLY****
TOTAL RUN TIME: 0 days 0 hours 0 minutes 29 seconds 766 msec
