                         Program Version 4.2.1 -  RELEASE  -
|  1> ! wB97X-D3 SP def2-SVP
|  2> %pal
|  3> nprocs 16
|  4> end
|  5>
|  6> * xyz 0 1
|  7> S 	 -33.0044 	 43.3833 	 93.2977
|  8> C 	 -33.8056 	 41.7681 	 93.4553
|  9> C 	 -32.9072 	 40.7713 	 93.1483
| 10> C 	 -31.5842 	 41.2978 	 92.9349
| 11> C 	 -31.4283 	 42.6573 	 93.0431
| 12> H 	 -30.7058 	 40.7035 	 92.7971
| 13> C 	 -33.3304 	 39.3282 	 93.0664
| 14> H 	 -33.5512 	 38.9876 	 94.0893
| 15> H 	 -32.4875 	 38.8831 	 92.5154
| 16> C 	 -34.5654 	 39.1741 	 92.2446
| 17> H 	 -35.2981 	 39.7855 	 92.6491
| 18> H 	 -34.4409 	 39.6367 	 91.3068
| 19> C 	 -35.0107 	 37.7147 	 92.0641
| 20> H 	 -34.3906 	 37.1207 	 91.4136
| 21> H 	 -34.9989 	 37.1298 	 92.9483
| 22> H 	 -35.9945 	 37.5934 	 91.6489
| 23> S 	 -28.7991 	 42.6069 	 92.3025
| 24> C 	 -27.7511 	 43.8477 	 92.964
| 25> C 	 -28.4606 	 44.9052 	 93.4463
| 26> C 	 -29.8552 	 44.7497 	 93.3378
| 27> C 	 -30.1952 	 43.4138 	 92.9808
| 28> H 	 -27.9864 	 45.8303 	 93.7835
| 29> C 	 -30.807 	 45.7631 	 93.8812
| 30> H 	 -30.2702 	 46.2882 	 94.6029
| 31> H 	 -31.6304 	 45.3899 	 94.3756
| 32> C 	 -31.2833 	 46.6559 	 92.6806
| 33> H 	 -32.1496 	 47.2365 	 92.9953
| 34> H 	 -31.5761 	 46.1063 	 91.7953
| 35> C 	 -30.127 	 47.5926 	 92.2271
| 36> H 	 -29.3268 	 47.0449 	 91.626
| 37> H 	 -29.796 	 48.0793 	 93.1558
| 38> H 	 -30.6364 	 48.2933 	 91.5448
| 39> H 	 -34.8295 	 41.5384 	 93.6664
| 40> H 	 -26.7024 	 44.0921 	 92.7328
| 41> *
| 42>
| 43>                          ****END OF INPUT****

CARTESIAN COORDINATES (ANGSTROEM)
---------------------------------
  S    -33.004400   43.383300   93.297700
  C    -33.805600   41.768100   93.455300
  C    -32.907200   40.771300   93.148300
  C    -31.584200   41.297800   92.934900
  C    -31.428300   42.657300   93.043100
  H    -30.705800   40.703500   92.797100
  C    -33.330400   39.328200   93.066400
  H    -33.551200   38.987600   94.089300
  H    -32.487500   38.883100   92.515400
  C    -34.565400   39.174100   92.244600
  H    -35.298100   39.785500   92.649100
  H    -34.440900   39.636700   91.306800
  C    -35.010700   37.714700   92.064100
  H    -34.390600   37.120700   91.413600
  H    -34.998900   37.129800   92.948300
  H    -35.994500   37.593400   91.648900
  S    -28.799100   42.606900   92.302500
  C    -27.751100   43.847700   92.964000
  C    -28.460600   44.905200   93.446300
  C    -29.855200   44.749700   93.337800
  C    -30.195200   43.413800   92.980800
  H    -27.986400   45.830300   93.783500
  C    -30.807000   45.763100   93.881200
  H    -30.270200   46.288200   94.602900
  H    -31.630400   45.389900   94.375600
  C    -31.283300   46.655900   92.680600
  H    -32.149600   47.236500   92.995300
  H    -31.576100   46.106300   91.795300
  C    -30.127000   47.592600   92.227100
  H    -29.326800   47.044900   91.626000
  H    -29.796000   48.079300   93.155800
  H    -30.636400   48.293300   91.544800
  H    -34.829500   41.538400   93.666400
  H    -26.702400   44.092100   92.732800

 Total Charge           Charge          ....    0
 Multiplicity           Mult            ....    1
 Number of Electrons    NEL             ....  134
 Basis Dimension        Dim             ....  322

ORBITAL ENERGIES
----------------

  NO   OCC          E(Eh)            E(eV)
   0   2.0000     -88.969595     -2420.9858
   1   2.0000     -88.966595     -2420.9041
   2   2.0000     -10.332538      -281.1626
   3   2.0000     -10.332060      -281.1496
   4   2.0000     -10.315441      -280.6974
   5   2.0000     -10.312878      -280.6277
   6   2.0000     -10.303165      -280.3634
   7   2.0000     -10.299625      -280.2670
   8   2.0000     -10.291915      -280.0573
   9   2.0000     -10.291671      -280.0506
  10   2.0000     -10.290358      -280.0149
  11   2.0000     -10.285116      -279.8722
  12   2.0000     -10.283291      -279.8226
  13   2.0000     -10.278678      -279.6971
  14   2.0000     -10.275978      -279.6236
  15   2.0000     -10.272107      -279.5182
  16   2.0000      -8.083896      -219.9740
  17   2.0000      -8.079724      -219.8605
  18   2.0000      -6.042500      -164.4248
  19   2.0000      -6.038600      -164.3187
  20   2.0000      -6.038532      -164.3168
  21   2.0000      -6.034472      -164.2063
  22   2.0000      -6.034457      -164.2059
  23   2.0000      -6.030238      -164.0911
  24   2.0000      -1.008084       -27.4314
  25   2.0000      -0.983738       -26.7689
  26   2.0000      -0.923146       -25.1201
  27   2.0000      -0.911824       -24.8120
  28   2.0000      -0.872336       -23.7375
  29   2.0000      -0.850711       -23.1490
  30   2.0000      -0.839687       -22.8490
  31   2.0000      -0.816671       -22.2227
  32   2.0000      -0.786272       -21.3955
  33   2.0000      -0.772334       -21.0163
  34   2.0000      -0.719165       -19.5695
  35   2.0000      -0.708369       -19.2757
  36   2.0000      -0.690260       -18.7829
  37   2.0000      -0.665216       -18.1014
  38   2.0000      -0.629952       -17.1419
  39   2.0000      -0.617074       -16.7914
  40   2.0000      -0.600887       -16.3510
  41   2.0000      -0.577590       -15.7170
  42   2.0000      -0.570029       -15.5113
  43   2.0000      -0.551339       -15.0027
  44   2.0000      -0.542728       -14.7684
  45   2.0000      -0.524780       -14.2800
  46   2.0000      -0.520385       -14.1604
  47   2.0000      -0.518557       -14.1107
  48   2.0000      -0.509227       -13.8568
  49   2.0000      -0.494678       -13.4609
  50   2.0000      -0.488485       -13.2923
  51   2.0000      -0.481809       -13.1107
  52   2.0000      -0.470806       -12.8113
  53   2.0000      -0.469187       -12.7672
  54   2.0000      -0.461212       -12.5502
  55   2.0000      -0.449455       -12.2303
  56   2.0000      -0.441651       -12.0179
  57   2.0000      -0.440810       -11.9951
  58   2.0000      -0.434069       -11.8116
  59   2.0000      -0.429607       -11.6902
  60   2.0000      -0.421838       -11.4788
  61   2.0000      -0.414147       -11.2695
  62   2.0000      -0.404560       -11.0086
  63   2.0000      -0.361838        -9.8461
  64   2.0000      -0.333452        -9.0737
  65   2.0000      -0.329339        -8.9618
  66   2.0000      -0.279123        -7.5953
  67   0.0000       0.012865         0.3501
  68   0.0000       0.085057         2.3145
  69   0.0000       0.110844         3.0162
  70   0.0000       0.112891         3.0719
  71   0.0000       0.129388         3.5208

MULLIKEN ATOMIC CHARGES
-----------------------
   0 S :    0.088495
   1 C :   -0.127016
   2 C :   -0.100085
   3 C :   -0.019447
   4 C :   -0.088964
   5 H :    0.003419
   6 C :    0.105582
   7 H :    0.047896
   8 H :    0.027216
   9 C :   -0.062519
  10 H :   -0.001146
  11 H :    0.016655
  12 C :   -0.001721
  13 H :    0.018247
  14 H :    0.010264
  15 H :    0.024554
  16 S :    0.101155
  17 C :   -0.067820
  18 C :   -0.058917
  19 C :   -0.071388
  20 C :   -0.126855
  21 H :    0.023969
  22 C :    0.108686
  23 H :    0.004158
  24 H :    0.007375
  25 C :   -0.084407
  26 H :    0.031308
  27 H :    0.035109
  28 C :   -0.086434
  29 H :    0.063270
  30 H :    0.034372
  31 H :    0.039670
  32 H :    0.041857
  33 H :    0.063459
Sum of atomic charges:   -0.0000000

LOEWDIN ATOMIC CHARGES
----------------------
   0 S :    0.388716
   1 C :   -0.183849
   2 C :   -0.056964
   3 C :   -0.080232
   4 C :   -0.180021
   5 H :    0.019034
   6 C :   -0.026039
   7 H :    0.039851
   8 H :    0.035442
   9 C :   -0.035924
  10 H :    0.011715
  11 H :    0.024000
  12 C :   -0.061418
  13 H :    0.024598
  14 H :    0.019776
  15 H :    0.026155
  16 S :    0.412681
  17 C :   -0.197711
  18 C :   -0.071361
  19 C :   -0.049588
  20 C :   -0.186268
  21 H :    0.034314
  22 C :   -0.026786
  23 H :    0.021927
  24 H :    0.008273
  25 C :   -0.032740
  26 H :    0.021427
  27 H :    0.022996
  28 C :   -0.072418
  29 H :    0.035640
  30 H :    0.022788
  31 H :    0.028094
  32 H :    0.024112
  33 H :    0.039779

  Mayer bond orders larger than 0.100000
B(  0-S ,  1-C ) :   1.1104 B(  0-S ,  4-C ) :   1.1260 B(  1-C ,  2-C ) :   1.6232
B(  1-C , 32-H ) :   0.9709 B(  2-C ,  3-C ) :   1.2437 B(  2-C ,  6-C ) :   1.0093
B(  3-C ,  4-C ) :   1.5629 B(  3-C ,  5-H ) :   0.9869 B(  4-C , 20-C ) :   1.1111
B(  6-C ,  7-H ) :   0.9275 B(  6-C ,  8-H ) :   0.9432 B(  6-C ,  9-C ) :   1.0838
B(  9-C , 10-H ) :   0.9490 B(  9-C , 11-H ) :   0.9513 B(  9-C , 12-C ) :   1.0819
B( 12-C , 13-H ) :   0.9730 B( 12-C , 14-H ) :   0.9717 B( 12-C , 15-H ) :   0.9725
B( 16-S , 17-C ) :   1.1373 B( 16-S , 20-C ) :   1.1472 B( 17-C , 18-C ) :   1.6134
B( 17-C , 33-H ) :   0.9557 B( 18-C , 19-C ) :   1.2823 B( 18-C , 21-H ) :   0.9787
B( 19-C , 20-C ) :   1.5105 B( 19-C , 22-C ) :   1.0370 B( 22-C , 23-H ) :   0.9411
B( 22-C , 24-H ) :   0.9322 B( 22-C , 25-C ) :   1.0503 B( 25-C , 26-H ) :   0.9598
B( 25-C , 27-H ) :   0.9594 B( 25-C , 28-C ) :   1.0707 B( 28-C , 29-H ) :   0.9707
B( 28-C , 30-H ) :   0.9778 B( 28-C , 31-H ) :   0.9753

Dispersion correction           -0.014122892
FINAL SINGLE POINT ENERGY     -1339.858892228582

DIPOLE MOMENT
-------------
                                X             Y             Z
Electronic contribution:     10.88556       1.79537       2.50486
Nuclear contribution   :    -11.02811      -1.78170      -2.49193
                        -----------------------------------------
Total Dipole Moment    :     -0.14255       0.01367       0.01293
                        -----------------------------------------
Magnitude (a.u.)       :      0.14378
Magnitude (Debye)      :      0.36547

Rotational constants in cm-1:     0.027862     0.007027     0.005882
Rotational constants in MHz :   835.285273   210.652637   176.341377

                             ****ORCA TERMINATED NORMALLY****
TOTAL RUN TIME: 0 days 0 hours 0 minutes 31 seconds 571 msec
