                         Program Version 4.2.1 -  RELEASE  -
|  1> ! wB97X-D3 SP def2-SVP
|  2> %pal
|  3> nprocs 16
|  4> end
|  5>
|  6> * xyz 0 1
|  7> S 	 -52.614 	 14.3124 	 90.471
|  8> C 	 -51.7955 	 15.8061 	 90.7383
|  9> C 	 -50.669 	 15.8462 	 89.9237
| 10> C 	 -50.5585 	 14.6857 	 89.0734
| 11> C 	 -51.4491 	 13.6862 	 89.34
| 12> H 	 -49.8371 	 14.5875 	 88.293
| 13> C 	 -49.6516 	 17.0473 	 89.8506
| 14> H 	 -49.9328 	 17.8588 	 90.4744
| 15> H 	 -49.5686 	 17.5613 	 88.847
| 16> C 	 -48.2529 	 16.6771 	 90.36
| 17> H 	 -48.3738 	 16.1644 	 91.3119
| 18> H 	 -47.828 	 15.9417 	 89.6537
| 19> C 	 -47.3371 	 17.8775 	 90.325
| 20> H 	 -47.1943 	 18.3453 	 89.3564
| 21> H 	 -47.6812 	 18.6808 	 91.004
| 22> H 	 -46.3206 	 17.7071 	 90.5812
| 23> S 	 -51.9304 	 11.0238 	 89.8292
| 24> C 	 -51.8253 	 9.90386 	 88.5065
| 25> C 	 -51.6517 	 10.5117 	 87.3097
| 26> C 	 -51.4596 	 11.9576 	 87.4421
| 27> C 	 -51.5589 	 12.3396 	 88.7497
| 28> H 	 -51.6549 	 9.95939 	 86.3741
| 29> C 	 -51.1836 	 12.8581 	 86.1414
| 30> H 	 -51.0762 	 12.1638 	 85.3715
| 31> H 	 -50.2398 	 13.4106 	 86.2356
| 32> C 	 -52.358 	 13.8667 	 85.8835
| 33> H 	 -51.9233 	 14.7277 	 85.2627
| 34> H 	 -52.6093 	 14.3067 	 86.8359
| 35> C 	 -53.6495 	 13.1404 	 85.3562
| 36> H 	 -54.0118 	 12.3564 	 86.0569
| 37> H 	 -53.5021 	 12.6858 	 84.3741
| 38> H 	 -54.5069 	 13.8053 	 85.2196
| 39> H 	 -52.0362 	 16.5915 	 91.5074
| 40> H 	 -51.7199 	 8.80527 	 88.6612
| 41> *
| 42>
| 43>                          ****END OF INPUT****

CARTESIAN COORDINATES (ANGSTROEM)
---------------------------------
  S    -52.614000   14.312400   90.471000
  C    -51.795500   15.806100   90.738300
  C    -50.669000   15.846200   89.923700
  C    -50.558500   14.685700   89.073400
  C    -51.449100   13.686200   89.340000
  H    -49.837100   14.587500   88.293000
  C    -49.651600   17.047300   89.850600
  H    -49.932800   17.858800   90.474400
  H    -49.568600   17.561300   88.847000
  C    -48.252900   16.677100   90.360000
  H    -48.373800   16.164400   91.311900
  H    -47.828000   15.941700   89.653700
  C    -47.337100   17.877500   90.325000
  H    -47.194300   18.345300   89.356400
  H    -47.681200   18.680800   91.004000
  H    -46.320600   17.707100   90.581200
  S    -51.930400   11.023800   89.829200
  C    -51.825300    9.903860   88.506500
  C    -51.651700   10.511700   87.309700
  C    -51.459600   11.957600   87.442100
  C    -51.558900   12.339600   88.749700
  H    -51.654900    9.959390   86.374100
  C    -51.183600   12.858100   86.141400
  H    -51.076200   12.163800   85.371500
  H    -50.239800   13.410600   86.235600
  C    -52.358000   13.866700   85.883500
  H    -51.923300   14.727700   85.262700
  H    -52.609300   14.306700   86.835900
  C    -53.649500   13.140400   85.356200
  H    -54.011800   12.356400   86.056900
  H    -53.502100   12.685800   84.374100
  H    -54.506900   13.805300   85.219600
  H    -52.036200   16.591500   91.507400
  H    -51.719900    8.805270   88.661200

 Total Charge           Charge          ....    0
 Multiplicity           Mult            ....    1
 Number of Electrons    NEL             ....  134
 Basis Dimension        Dim             ....  322

ORBITAL ENERGIES
----------------

  NO   OCC          E(Eh)            E(eV)
   0   2.0000     -88.966398     -2420.8988
   1   2.0000     -88.964236     -2420.8399
   2   2.0000     -10.329278      -281.0739
   3   2.0000     -10.327796      -281.0336
   4   2.0000     -10.318370      -280.7771
   5   2.0000     -10.318100      -280.7698
   6   2.0000     -10.309151      -280.5263
   7   2.0000     -10.306324      -280.4493
   8   2.0000     -10.298705      -280.2420
   9   2.0000     -10.296421      -280.1799
  10   2.0000     -10.294842      -280.1369
  11   2.0000     -10.293823      -280.1092
  12   2.0000     -10.291234      -280.0387
  13   2.0000     -10.285139      -279.8729
  14   2.0000     -10.280307      -279.7414
  15   2.0000     -10.275485      -279.6102
  16   2.0000      -8.081839      -219.9180
  17   2.0000      -8.079537      -219.8554
  18   2.0000      -6.040421      -164.3682
  19   2.0000      -6.038100      -164.3051
  20   2.0000      -6.036308      -164.2563
  21   2.0000      -6.033836      -164.1890
  22   2.0000      -6.032410      -164.1502
  23   2.0000      -6.030313      -164.0932
  24   2.0000      -1.010595       -27.4997
  25   2.0000      -0.988199       -26.8903
  26   2.0000      -0.909678       -24.7536
  27   2.0000      -0.897501       -24.4222
  28   2.0000      -0.871006       -23.7013
  29   2.0000      -0.845765       -23.0144
  30   2.0000      -0.839261       -22.8375
  31   2.0000      -0.815444       -22.1894
  32   2.0000      -0.782755       -21.2998
  33   2.0000      -0.773653       -21.0522
  34   2.0000      -0.707319       -19.2471
  35   2.0000      -0.697609       -18.9829
  36   2.0000      -0.685183       -18.6448
  37   2.0000      -0.663962       -18.0673
  38   2.0000      -0.640021       -17.4159
  39   2.0000      -0.622481       -16.9386
  40   2.0000      -0.592823       -16.1315
  41   2.0000      -0.568731       -15.4760
  42   2.0000      -0.560963       -15.2646
  43   2.0000      -0.543822       -14.7981
  44   2.0000      -0.538411       -14.6509
  45   2.0000      -0.518519       -14.1096
  46   2.0000      -0.517445       -14.0804
  47   2.0000      -0.508540       -13.8381
  48   2.0000      -0.502841       -13.6830
  49   2.0000      -0.495806       -13.4916
  50   2.0000      -0.487996       -13.2790
  51   2.0000      -0.476446       -12.9648
  52   2.0000      -0.474215       -12.9040
  53   2.0000      -0.468302       -12.7431
  54   2.0000      -0.459469       -12.5028
  55   2.0000      -0.450720       -12.2647
  56   2.0000      -0.442833       -12.0501
  57   2.0000      -0.435459       -11.8494
  58   2.0000      -0.432012       -11.7556
  59   2.0000      -0.429067       -11.6755
  60   2.0000      -0.415801       -11.3145
  61   2.0000      -0.413861       -11.2617
  62   2.0000      -0.411432       -11.1956
  63   2.0000      -0.354610        -9.6494
  64   2.0000      -0.333422        -9.0729
  65   2.0000      -0.328577        -8.9410
  66   2.0000      -0.295370        -8.0374
  67   0.0000       0.033210         0.9037
  68   0.0000       0.073509         2.0003
  69   0.0000       0.114282         3.1098
  70   0.0000       0.119176         3.2430
  71   0.0000       0.135283         3.6812

MULLIKEN ATOMIC CHARGES
-----------------------
   0 S :    0.103498
   1 C :   -0.131028
   2 C :   -0.086785
   3 C :    0.031589
   4 C :   -0.132614
   5 H :   -0.006556
   6 C :    0.042324
   7 H :   -0.002136
   8 H :    0.038062
   9 C :   -0.072477
  10 H :    0.038408
  11 H :    0.028884
  12 C :   -0.034506
  13 H :    0.021345
  14 H :    0.026962
  15 H :    0.022124
  16 S :    0.114420
  17 C :   -0.102818
  18 C :   -0.031113
  19 C :   -0.068739
  20 C :   -0.160829
  21 H :    0.022805
  22 C :    0.104660
  23 H :   -0.001862
  24 H :    0.039243
  25 C :   -0.081661
  26 H :    0.042009
  27 H :    0.045749
  28 C :   -0.070953
  29 H :    0.049903
  30 H :    0.028015
  31 H :    0.035513
  32 H :    0.073226
  33 H :    0.075341
Sum of atomic charges:    0.0000000

LOEWDIN ATOMIC CHARGES
----------------------
   0 S :    0.414837
   1 C :   -0.217026
   2 C :   -0.062904
   3 C :   -0.066804
   4 C :   -0.193467
   5 H :    0.023800
   6 C :   -0.033040
   7 H :    0.018536
   8 H :    0.035183
   9 C :   -0.042831
  10 H :    0.027579
  11 H :    0.024134
  12 C :   -0.069884
  13 H :    0.026501
  14 H :    0.026068
  15 H :    0.022534
  16 S :    0.410453
  17 C :   -0.192404
  18 C :   -0.073423
  19 C :   -0.050778
  20 C :   -0.202380
  21 H :    0.033189
  22 C :   -0.016291
  23 H :    0.016093
  24 H :    0.030782
  25 C :   -0.041055
  26 H :    0.031936
  27 H :    0.024550
  28 C :   -0.072166
  29 H :    0.033940
  30 H :    0.021495
  31 H :    0.026798
  32 H :    0.045970
  33 H :    0.040075

  Mayer bond orders larger than 0.100000
B(  0-S ,  1-C ) :   1.1398 B(  0-S ,  4-C ) :   1.1540 B(  1-C ,  2-C ) :   1.6073
B(  1-C , 32-H ) :   0.9615 B(  2-C ,  3-C ) :   1.2439 B(  2-C ,  6-C ) :   1.0171
B(  3-C ,  4-C ) :   1.5766 B(  3-C ,  5-H ) :   1.0042 B(  4-C , 20-C ) :   1.0210
B(  6-C ,  7-H ) :   0.9475 B(  6-C ,  8-H ) :   0.9474 B(  6-C ,  9-C ) :   1.0525
B(  9-C , 10-H ) :   0.9563 B(  9-C , 11-H ) :   0.9550 B(  9-C , 12-C ) :   1.0854
B( 12-C , 13-H ) :   0.9695 B( 12-C , 14-H ) :   0.9731 B( 12-C , 15-H ) :   0.9714
B( 16-S , 17-C ) :   1.1435 B( 16-S , 20-C ) :   1.1394 B( 17-C , 18-C ) :   1.6426
B( 17-C , 33-H ) :   0.9588 B( 18-C , 19-C ) :   1.2183 B( 18-C , 21-H ) :   0.9866
B( 19-C , 20-C ) :   1.6401 B( 19-C , 22-C ) :   1.0154 B( 22-C , 23-H ) :   0.9369
B( 22-C , 24-H ) :   0.9447 B( 22-C , 25-C ) :   1.0557 B( 25-C , 26-H ) :   0.9589
B( 25-C , 27-H ) :   0.9613 B( 25-C , 28-C ) :   1.0591 B( 28-C , 29-H ) :   0.9755
B( 28-C , 30-H ) :   0.9782 B( 28-C , 31-H ) :   0.9763

Dispersion correction           -0.014603460
FINAL SINGLE POINT ENERGY     -1339.884112293391

DIPOLE MOMENT
-------------
                                X             Y             Z
Electronic contribution:    -11.62199     -17.34184      13.35243
Nuclear contribution   :     12.02056      17.54135     -13.80354
                        -----------------------------------------
Total Dipole Moment    :      0.39857       0.19951      -0.45111
                        -----------------------------------------
Magnitude (a.u.)       :      0.63416
Magnitude (Debye)      :      1.61191

Rotational constants in cm-1:     0.020080     0.007825     0.007044
Rotational constants in MHz :   601.971199   234.586171   211.162194

                             ****ORCA TERMINATED NORMALLY****
TOTAL RUN TIME: 0 days 0 hours 0 minutes 30 seconds 247 msec
