                         Program Version 4.2.1 -  RELEASE  -
|  1> ! wB97X-D3 SP def2-SVP
|  2> %pal
|  3> nprocs 16
|  4> end
|  5>
|  6> * xyz 0 1
|  7> S 	 22.8795 	 8.99524 	 64.8818
|  8> C 	 24.2458 	 9.75575 	 64.1281
|  9> C 	 24.7704 	 10.6943 	 64.9684
| 10> C 	 24.1429 	 10.6882 	 66.2971
| 11> C 	 23.1505 	 9.77561 	 66.4622
| 12> H 	 24.3949 	 11.3834 	 67.0586
| 13> C 	 25.8946 	 11.5584 	 64.6119
| 14> H 	 26.4283 	 11.2375 	 63.6785
| 15> H 	 26.6072 	 11.3538 	 65.382
| 16> C 	 25.8036 	 13.0406 	 64.8465
| 17> H 	 25.1263 	 13.1424 	 65.7887
| 18> H 	 26.7725 	 13.4673 	 65.2412
| 19> C 	 25.2067 	 13.7887 	 63.7076
| 20> H 	 25.2698 	 14.9272 	 63.8109
| 21> H 	 25.5939 	 13.5424 	 62.7446
| 22> H 	 24.1849 	 13.5215 	 63.5686
| 23> S 	 20.525 	 9.78262 	 67.0212
| 24> C 	 19.9363 	 9.34966 	 68.5793
| 25> C 	 20.9837 	 9.29993 	 69.4893
| 26> C 	 22.3197 	 9.36477 	 68.8945
| 27> C 	 22.1645 	 9.64353 	 67.559
| 28> H 	 20.6831 	 9.12385 	 70.5371
| 29> C 	 23.589 	 9.16454 	 69.7
| 30> H 	 23.5934 	 9.72292 	 70.6238
| 31> H 	 24.3921 	 9.47818 	 68.9848
| 32> C 	 23.983 	 7.6728 	 69.9104
| 33> H 	 23.9009 	 7.26909 	 68.8568
| 34> H 	 23.1966 	 7.14028 	 70.4244
| 35> C 	 25.2865 	 7.45431 	 70.5729
| 36> H 	 25.948 	 8.08719 	 69.9459
| 37> H 	 25.4332 	 6.34922 	 70.4871
| 38> H 	 25.2999 	 7.78449 	 71.5709
| 39> H 	 24.7346 	 9.55008 	 63.1822
| 40> H 	 18.8681 	 9.22913 	 68.8842
| 41> *
| 42>
| 43>                          ****END OF INPUT****

CARTESIAN COORDINATES (ANGSTROEM)
---------------------------------
  S     22.879500    8.995240   64.881800
  C     24.245800    9.755750   64.128100
  C     24.770400   10.694300   64.968400
  C     24.142900   10.688200   66.297100
  C     23.150500    9.775610   66.462200
  H     24.394900   11.383400   67.058600
  C     25.894600   11.558400   64.611900
  H     26.428300   11.237500   63.678500
  H     26.607200   11.353800   65.382000
  C     25.803600   13.040600   64.846500
  H     25.126300   13.142400   65.788700
  H     26.772500   13.467300   65.241200
  C     25.206700   13.788700   63.707600
  H     25.269800   14.927200   63.810900
  H     25.593900   13.542400   62.744600
  H     24.184900   13.521500   63.568600
  S     20.525000    9.782620   67.021200
  C     19.936300    9.349660   68.579300
  C     20.983700    9.299930   69.489300
  C     22.319700    9.364770   68.894500
  C     22.164500    9.643530   67.559000
  H     20.683100    9.123850   70.537100
  C     23.589000    9.164540   69.700000
  H     23.593400    9.722920   70.623800
  H     24.392100    9.478180   68.984800
  C     23.983000    7.672800   69.910400
  H     23.900900    7.269090   68.856800
  H     23.196600    7.140280   70.424400
  C     25.286500    7.454310   70.572900
  H     25.948000    8.087190   69.945900
  H     25.433200    6.349220   70.487100
  H     25.299900    7.784490   71.570900
  H     24.734600    9.550080   63.182200
  H     18.868100    9.229130   68.884200

 Total Charge           Charge          ....    0
 Multiplicity           Mult            ....    1
 Number of Electrons    NEL             ....  134
 Basis Dimension        Dim             ....  322

ORBITAL ENERGIES
----------------

  NO   OCC          E(Eh)            E(eV)
   0   2.0000     -88.965826     -2420.8832
   1   2.0000     -88.961014     -2420.7523
   2   2.0000     -10.332785      -281.1694
   3   2.0000     -10.328206      -281.0448
   4   2.0000     -10.317370      -280.7499
   5   2.0000     -10.311043      -280.5777
   6   2.0000     -10.308594      -280.5111
   7   2.0000     -10.299171      -280.2547
   8   2.0000     -10.297118      -280.1988
   9   2.0000     -10.296178      -280.1733
  10   2.0000     -10.295566      -280.1566
  11   2.0000     -10.294495      -280.1275
  12   2.0000     -10.286609      -279.9129
  13   2.0000     -10.282008      -279.7877
  14   2.0000     -10.277289      -279.6593
  15   2.0000     -10.272897      -279.5397
  16   2.0000      -8.081424      -219.9067
  17   2.0000      -8.075639      -219.7493
  18   2.0000      -6.039974      -164.3561
  19   2.0000      -6.035777      -164.2418
  20   2.0000      -6.034428      -164.2051
  21   2.0000      -6.032102      -164.1418
  22   2.0000      -6.030113      -164.0877
  23   2.0000      -6.026114      -163.9789
  24   2.0000      -1.009771       -27.4773
  25   2.0000      -0.986870       -26.8541
  26   2.0000      -0.921692       -25.0805
  27   2.0000      -0.914101       -24.8739
  28   2.0000      -0.871954       -23.7271
  29   2.0000      -0.857493       -23.3336
  30   2.0000      -0.843956       -22.9652
  31   2.0000      -0.819520       -22.3003
  32   2.0000      -0.783896       -21.3309
  33   2.0000      -0.776268       -21.1233
  34   2.0000      -0.707859       -19.2618
  35   2.0000      -0.690297       -18.7839
  36   2.0000      -0.687717       -18.7137
  37   2.0000      -0.658256       -17.9121
  38   2.0000      -0.639291       -17.3960
  39   2.0000      -0.625546       -17.0220
  40   2.0000      -0.595733       -16.2107
  41   2.0000      -0.572339       -15.5741
  42   2.0000      -0.567762       -15.4496
  43   2.0000      -0.555706       -15.1215
  44   2.0000      -0.536644       -14.6028
  45   2.0000      -0.529221       -14.4008
  46   2.0000      -0.521073       -14.1791
  47   2.0000      -0.519588       -14.1387
  48   2.0000      -0.505745       -13.7620
  49   2.0000      -0.502181       -13.6650
  50   2.0000      -0.494348       -13.4519
  51   2.0000      -0.486665       -13.2428
  52   2.0000      -0.471083       -12.8188
  53   2.0000      -0.463138       -12.6026
  54   2.0000      -0.457200       -12.4410
  55   2.0000      -0.448747       -12.2110
  56   2.0000      -0.441200       -12.0057
  57   2.0000      -0.434254       -11.8167
  58   2.0000      -0.427985       -11.6461
  59   2.0000      -0.425312       -11.5733
  60   2.0000      -0.420901       -11.4533
  61   2.0000      -0.409516       -11.1435
  62   2.0000      -0.404322       -11.0021
  63   2.0000      -0.351868        -9.5748
  64   2.0000      -0.329772        -8.9736
  65   2.0000      -0.318905        -8.6778
  66   2.0000      -0.297803        -8.1036
  67   0.0000       0.036314         0.9881
  68   0.0000       0.070121         1.9081
  69   0.0000       0.108015         2.9392
  70   0.0000       0.124386         3.3847
  71   0.0000       0.129510         3.5242

MULLIKEN ATOMIC CHARGES
-----------------------
   0 S :    0.091148
   1 C :   -0.110964
   2 C :   -0.088543
   3 C :    0.048106
   4 C :   -0.139551
   5 H :    0.008167
   6 C :    0.068066
   7 H :    0.025811
   8 H :    0.019279
   9 C :   -0.116522
  10 H :    0.033002
  11 H :    0.035343
  12 C :   -0.014204
  13 H :    0.043332
  14 H :    0.011061
  15 H :    0.022886
  16 S :    0.121880
  17 C :   -0.115317
  18 C :   -0.052388
  19 C :   -0.032523
  20 C :   -0.167741
  21 H :    0.026450
  22 C :    0.071261
  23 H :    0.032395
  24 H :    0.020839
  25 C :   -0.128584
  26 H :    0.037766
  27 H :    0.016208
  28 C :    0.011407
  29 H :    0.025996
  30 H :    0.051503
  31 H :    0.026468
  32 H :    0.045133
  33 H :    0.072831
Sum of atomic charges:   -0.0000000

LOEWDIN ATOMIC CHARGES
----------------------
   0 S :    0.384697
   1 C :   -0.201474
   2 C :   -0.064535
   3 C :   -0.059796
   4 C :   -0.182585
   5 H :    0.023918
   6 C :   -0.046882
   7 H :    0.033901
   8 H :    0.038461
   9 C :   -0.048575
  10 H :    0.034898
  11 H :    0.027833
  12 C :   -0.072121
  13 H :    0.034774
  14 H :    0.018488
  15 H :    0.025776
  16 S :    0.425643
  17 C :   -0.207006
  18 C :   -0.074266
  19 C :   -0.055778
  20 C :   -0.200704
  21 H :    0.033167
  22 C :   -0.032835
  23 H :    0.027723
  24 H :    0.034961
  25 C :   -0.048241
  26 H :    0.032420
  27 H :    0.013095
  28 C :   -0.059723
  29 H :    0.029859
  30 H :    0.040462
  31 H :    0.018642
  32 H :    0.034782
  33 H :    0.041021

  Mayer bond orders larger than 0.100000
B(  0-S ,  1-C ) :   1.1142 B(  0-S ,  4-C ) :   1.1318 B(  1-C ,  2-C ) :   1.6333
B(  1-C , 32-H ) :   0.9691 B(  2-C ,  3-C ) :   1.2011 B(  2-C ,  6-C ) :   1.0524
B(  3-C ,  4-C ) :   1.6105 B(  3-C ,  5-H ) :   0.9901 B(  4-C , 20-C ) :   1.0052
B(  6-C ,  7-H ) :   0.9440 B(  6-C ,  8-H ) :   0.9157 B(  6-C ,  9-C ) :   1.0624
B(  9-C , 10-H ) :   0.9482 B(  9-C , 11-H ) :   0.9576 B(  9-C , 12-C ) :   1.0749
B( 12-C , 13-H ) :   0.9724 B( 12-C , 14-H ) :   0.9731 B( 12-C , 15-H ) :   0.9691
B( 16-S , 17-C ) :   1.1438 B( 16-S , 20-C ) :   1.1580 B( 17-C , 18-C ) :   1.6418
B( 17-C , 33-H ) :   0.9620 B( 18-C , 19-C ) :   1.2002 B( 18-C , 21-H ) :   0.9844
B( 19-C , 20-C ) :   1.6241 B( 19-C , 22-C ) :   1.0515 B( 22-C , 23-H ) :   0.9364
B( 22-C , 24-H ) :   0.9254 B( 22-C , 25-C ) :   1.0594 B( 25-C , 26-H ) :   0.9537
B( 25-C , 27-H ) :   0.9534 B( 25-C , 28-C ) :   1.0806 B( 28-C , 29-H ) :   0.9717
B( 28-C , 30-H ) :   0.9696 B( 28-C , 31-H ) :   0.9708

Dispersion correction           -0.013646960
FINAL SINGLE POINT ENERGY     -1339.861531412791

DIPOLE MOMENT
-------------
                                X             Y             Z
Electronic contribution:    -20.60016      -6.95609      -6.95412
Nuclear contribution   :     21.02097       7.15108       7.33691
                        -----------------------------------------
Total Dipole Moment    :      0.42081       0.19499       0.38279
                        -----------------------------------------
Magnitude (a.u.)       :      0.60136
Magnitude (Debye)      :      1.52854

Rotational constants in cm-1:     0.018288     0.008185     0.006842
Rotational constants in MHz :   548.253597   245.371659   205.130844

                             ****ORCA TERMINATED NORMALLY****
TOTAL RUN TIME: 0 days 0 hours 0 minutes 30 seconds 68 msec
