                         Program Version 4.2.1 -  RELEASE  -
|  1> ! wB97X-D3 SP def2-SVP
|  2> %pal
|  3> nprocs 16
|  4> end
|  5>
|  6> * xyz 0 1
|  7> S 	 -97.4023 	 41.6973 	 124.31
|  8> C 	 -95.9837 	 40.7577 	 124.01
|  9> C 	 -96.0603 	 39.9127 	 122.896
| 10> C 	 -97.2934 	 40.1002 	 122.233
| 11> C 	 -98.0633 	 41.0791 	 122.835
| 12> H 	 -97.5312 	 39.619 	 121.272
| 13> C 	 -95.0275 	 38.8895 	 122.456
| 14> H 	 -95.4803 	 37.9629 	 122.185
| 15> H 	 -94.4454 	 38.5998 	 123.344
| 16> C 	 -94.0947 	 39.3291 	 121.38
| 17> H 	 -94.6979 	 39.7984 	 120.541
| 18> H 	 -93.4286 	 40.1003 	 121.805
| 19> C 	 -93.2882 	 38.1728 	 120.652
| 20> H 	 -93.9002 	 37.3167 	 120.345
| 21> H 	 -92.8873 	 38.5741 	 119.731
| 22> H 	 -92.6091 	 37.7583 	 121.385
| 23> S 	 -100.666 	 41.3437 	 123.725
| 24> C 	 -101.939 	 41.5873 	 122.628
| 25> C 	 -101.432 	 41.9735 	 121.393
| 26> C 	 -99.9808 	 41.903 	 121.282
| 27> C 	 -99.4158 	 41.4478 	 122.447
| 28> H 	 -102.207 	 42.2012 	 120.683
| 29> C 	 -99.1841 	 42.086 	 119.984
| 30> H 	 -98.1169 	 42.3643 	 120.178
| 31> H 	 -99.6692 	 42.9355 	 119.508
| 32> C 	 -99.2399 	 41.0194 	 118.936
| 33> H 	 -100.221 	 40.9423 	 118.537
| 34> H 	 -98.9915 	 40.0706 	 119.389
| 35> C 	 -98.2366 	 41.3007 	 117.772
| 36> H 	 -98.3212 	 40.5176 	 116.994
| 37> H 	 -97.2325 	 41.1562 	 118.137
| 38> H 	 -98.4347 	 42.2514 	 117.255
| 39> H 	 -95.184 	 40.7251 	 124.745
| 40> H 	 -102.946 	 41.6991 	 122.939
| 41> *
| 42>
| 43>                          ****END OF INPUT****

CARTESIAN COORDINATES (ANGSTROEM)
---------------------------------
  S    -97.402300   41.697300  124.310000
  C    -95.983700   40.757700  124.010000
  C    -96.060300   39.912700  122.896000
  C    -97.293400   40.100200  122.233000
  C    -98.063300   41.079100  122.835000
  H    -97.531200   39.619000  121.272000
  C    -95.027500   38.889500  122.456000
  H    -95.480300   37.962900  122.185000
  H    -94.445400   38.599800  123.344000
  C    -94.094700   39.329100  121.380000
  H    -94.697900   39.798400  120.541000
  H    -93.428600   40.100300  121.805000
  C    -93.288200   38.172800  120.652000
  H    -93.900200   37.316700  120.345000
  H    -92.887300   38.574100  119.731000
  H    -92.609100   37.758300  121.385000
  S    -100.666000   41.343700  123.725000
  C    -101.939000   41.587300  122.628000
  C    -101.432000   41.973500  121.393000
  C    -99.980800   41.903000  121.282000
  C    -99.415800   41.447800  122.447000
  H    -102.207000   42.201200  120.683000
  C    -99.184100   42.086000  119.984000
  H    -98.116900   42.364300  120.178000
  H    -99.669200   42.935500  119.508000
  C    -99.239900   41.019400  118.936000
  H    -100.221000   40.942300  118.537000
  H    -98.991500   40.070600  119.389000
  C    -98.236600   41.300700  117.772000
  H    -98.321200   40.517600  116.994000
  H    -97.232500   41.156200  118.137000
  H    -98.434700   42.251400  117.255000
  H    -95.184000   40.725100  124.745000
  H    -102.946000   41.699100  122.939000

 Total Charge           Charge          ....    0
 Multiplicity           Mult            ....    1
 Number of Electrons    NEL             ....  134
 Basis Dimension        Dim             ....  322

ORBITAL ENERGIES
----------------

  NO   OCC          E(Eh)            E(eV)
   0   2.0000     -88.971530     -2421.0384
   1   2.0000     -88.957688     -2420.6617
   2   2.0000     -10.327566      -281.0274
   3   2.0000     -10.324431      -280.9421
   4   2.0000     -10.313907      -280.6557
   5   2.0000     -10.310933      -280.5747
   6   2.0000     -10.306679      -280.4590
   7   2.0000     -10.302121      -280.3350
   8   2.0000     -10.295782      -280.1625
   9   2.0000     -10.294795      -280.1356
  10   2.0000     -10.292594      -280.0757
  11   2.0000     -10.290273      -280.0126
  12   2.0000     -10.289086      -279.9803
  13   2.0000     -10.282771      -279.8084
  14   2.0000     -10.282431      -279.7992
  15   2.0000     -10.281817      -279.7825
  16   2.0000      -8.086928      -220.0565
  17   2.0000      -8.073326      -219.6864
  18   2.0000      -6.045206      -164.4984
  19   2.0000      -6.041453      -164.3963
  20   2.0000      -6.037785      -164.2965
  21   2.0000      -6.031815      -164.1340
  22   2.0000      -6.027648      -164.0206
  23   2.0000      -6.024116      -163.9245
  24   2.0000      -1.010105       -27.4864
  25   2.0000      -0.985678       -26.8217
  26   2.0000      -0.914463       -24.8838
  27   2.0000      -0.911970       -24.8160
  28   2.0000      -0.867942       -23.6179
  29   2.0000      -0.854966       -23.2648
  30   2.0000      -0.844363       -22.9763
  31   2.0000      -0.811455       -22.0808
  32   2.0000      -0.784422       -21.3452
  33   2.0000      -0.774219       -21.0676
  34   2.0000      -0.704430       -19.1685
  35   2.0000      -0.697609       -18.9829
  36   2.0000      -0.694653       -18.9025
  37   2.0000      -0.661261       -17.9938
  38   2.0000      -0.641263       -17.4496
  39   2.0000      -0.625473       -17.0200
  40   2.0000      -0.595096       -16.1934
  41   2.0000      -0.574224       -15.6254
  42   2.0000      -0.568003       -15.4561
  43   2.0000      -0.559331       -15.2202
  44   2.0000      -0.529662       -14.4128
  45   2.0000      -0.523906       -14.2562
  46   2.0000      -0.516019       -14.0416
  47   2.0000      -0.512719       -13.9518
  48   2.0000      -0.502031       -13.6610
  49   2.0000      -0.496753       -13.5173
  50   2.0000      -0.491810       -13.3828
  51   2.0000      -0.483400       -13.1540
  52   2.0000      -0.472189       -12.8489
  53   2.0000      -0.464284       -12.6338
  54   2.0000      -0.461193       -12.5497
  55   2.0000      -0.454743       -12.3742
  56   2.0000      -0.444383       -12.0923
  57   2.0000      -0.439188       -11.9509
  58   2.0000      -0.433331       -11.7915
  59   2.0000      -0.428040       -11.6476
  60   2.0000      -0.426504       -11.6058
  61   2.0000      -0.412082       -11.2133
  62   2.0000      -0.408291       -11.1102
  63   2.0000      -0.346237        -9.4216
  64   2.0000      -0.336648        -9.1607
  65   2.0000      -0.326390        -8.8815
  66   2.0000      -0.291548        -7.9334
  67   0.0000       0.032914         0.8956
  68   0.0000       0.066594         1.8121
  69   0.0000       0.111027         3.0212
  70   0.0000       0.120220         3.2713
  71   0.0000       0.125179         3.4063

MULLIKEN ATOMIC CHARGES
-----------------------
   0 S :    0.133765
   1 C :   -0.124659
   2 C :   -0.081848
   3 C :    0.024552
   4 C :   -0.151840
   5 H :    0.016792
   6 C :    0.097373
   7 H :    0.010592
   8 H :    0.015170
   9 C :   -0.112552
  10 H :    0.031265
  11 H :    0.038742
  12 C :   -0.039710
  13 H :    0.026373
  14 H :    0.042737
  15 H :    0.034442
  16 S :    0.086866
  17 C :   -0.080847
  18 C :   -0.057587
  19 C :    0.008014
  20 C :   -0.162735
  21 H :    0.015253
  22 C :    0.043344
  23 H :    0.038165
  24 H :    0.014785
  25 C :   -0.037085
  26 H :    0.017015
  27 H :    0.016367
  28 C :   -0.060407
  29 H :    0.029955
  30 H :    0.031296
  31 H :    0.042152
  32 H :    0.042698
  33 H :    0.051557
Sum of atomic charges:    0.0000000

LOEWDIN ATOMIC CHARGES
----------------------
   0 S :    0.432844
   1 C :   -0.203513
   2 C :   -0.058529
   3 C :   -0.056950
   4 C :   -0.200492
   5 H :    0.035496
   6 C :   -0.036851
   7 H :    0.025750
   8 H :    0.031472
   9 C :   -0.044005
  10 H :    0.025611
  11 H :    0.027584
  12 C :   -0.064687
  13 H :    0.025124
  14 H :    0.028337
  15 H :    0.023959
  16 S :    0.395336
  17 C :   -0.193751
  18 C :   -0.075978
  19 C :   -0.054920
  20 C :   -0.183242
  21 H :    0.028524
  22 C :   -0.036521
  23 H :    0.035555
  24 H :    0.031025
  25 C :   -0.034808
  26 H :    0.018574
  27 H :    0.016641
  28 C :   -0.063577
  29 H :    0.028399
  30 H :    0.022882
  31 H :    0.027945
  32 H :    0.022354
  33 H :    0.024413

  Mayer bond orders larger than 0.100000
B(  0-S ,  1-C ) :   1.1525 B(  0-S ,  4-C ) :   1.1677 B(  1-C ,  2-C ) :   1.5957
B(  1-C , 32-H ) :   0.9647 B(  2-C ,  3-C ) :   1.2686 B(  2-C ,  6-C ) :   1.0268
B(  3-C ,  4-C ) :   1.5510 B(  3-C ,  5-H ) :   0.9892 B(  4-C , 20-C ) :   1.0391
B(  6-C ,  7-H ) :   0.9386 B(  6-C ,  8-H ) :   0.9314 B(  6-C ,  9-C ) :   1.0627
B(  9-C , 10-H ) :   0.9614 B(  9-C , 11-H ) :   0.9543 B(  9-C , 12-C ) :   1.0694
B( 12-C , 13-H ) :   0.9749 B( 12-C , 14-H ) :   0.9775 B( 12-C , 15-H ) :   0.9772
B( 16-S , 17-C ) :   1.1645 B( 16-S , 20-C ) :   1.1292 B( 17-C , 18-C ) :   1.6207
B( 17-C , 33-H ) :   0.9704 B( 18-C , 19-C ) :   1.1939 B( 18-C , 21-H ) :   0.9966
B( 19-C , 20-C ) :   1.6173 B( 19-C , 22-C ) :   1.0530 B( 22-C , 23-H ) :   0.9378
B( 22-C , 24-H ) :   0.9227 B( 22-C , 25-C ) :   1.0730 B( 25-C , 26-H ) :   0.9497
B( 25-C , 27-H ) :   0.9523 B( 25-C , 28-C ) :   1.0838 B( 28-C , 29-H ) :   0.9739
B( 28-C , 30-H ) :   0.9755 B( 28-C , 31-H ) :   0.9756

Dispersion correction           -0.014024711
FINAL SINGLE POINT ENERGY     -1339.885351074226

DIPOLE MOMENT
-------------
                                X             Y             Z
Electronic contribution:    -17.49239      10.09695      26.07968
Nuclear contribution   :     17.69098     -10.35822     -26.60791
                        -----------------------------------------
Total Dipole Moment    :      0.19859      -0.26127      -0.52823
                        -----------------------------------------
Magnitude (a.u.)       :      0.62188
Magnitude (Debye)      :      1.58068

Rotational constants in cm-1:     0.017444     0.009164     0.006452
Rotational constants in MHz :   522.947295   274.728285   193.434282

                             ****ORCA TERMINATED NORMALLY****
TOTAL RUN TIME: 0 days 0 hours 0 minutes 31 seconds 483 msec
