                         Program Version 4.2.1 -  RELEASE  -
|  1> ! wB97X-D3 SP def2-SVP
|  2> %pal
|  3> nprocs 16
|  4> end
|  5>
|  6> * xyz 0 1
|  7> S 	 -35.8076 	 59.506 	 114.635
|  8> C 	 -37.3416 	 60.166 	 115.027
|  9> C 	 -37.8255 	 59.6728 	 116.231
| 10> C 	 -36.9308 	 58.7861 	 116.856
| 11> C 	 -35.7651 	 58.5592 	 116.133
| 12> H 	 -37.171 	 58.1981 	 117.736
| 13> C 	 -39.1468 	 60.021 	 116.893
| 14> H 	 -39.3104 	 59.4467 	 117.795
| 15> H 	 -39.8664 	 59.554 	 116.228
| 16> C 	 -39.3988 	 61.4902 	 117.161
| 17> H 	 -38.9678 	 61.8197 	 118.069
| 18> H 	 -38.7916 	 61.9466 	 116.375
| 19> C 	 -40.9065 	 61.8516 	 117.138
| 20> H 	 -41.4244 	 61.6795 	 118.069
| 21> H 	 -40.8782 	 62.956 	 117.062
| 22> H 	 -41.5749 	 61.4354 	 116.36
| 23> S 	 -34.3476 	 56.3776 	 115.086
| 24> C 	 -33.2163 	 55.5292 	 116.06
| 25> C 	 -33.1435 	 56.1032 	 117.34
| 26> C 	 -34.0241 	 57.2414 	 117.58
| 27> C 	 -34.7103 	 57.5256 	 116.434
| 28> H 	 -32.5215 	 55.654 	 118.059
| 29> C 	 -34.2538 	 57.9168 	 118.921
| 30> H 	 -34.86 	 57.2938 	 119.629
| 31> H 	 -34.7979 	 58.8083 	 118.681
| 32> C 	 -32.9509 	 58.2516 	 119.729
| 33> H 	 -32.2401 	 58.9874 	 119.183
| 34> H 	 -32.3118 	 57.369 	 119.771
| 35> C 	 -33.2187 	 58.8559 	 121.154
| 36> H 	 -33.6956 	 58.0698 	 121.702
| 37> H 	 -33.902 	 59.6883 	 121.07
| 38> H 	 -32.266 	 59.1021 	 121.681
| 39> H 	 -37.8755 	 60.7996 	 114.273
| 40> H 	 -32.6049 	 54.7534 	 115.612
| 41> *
| 42>
| 43>                          ****END OF INPUT****

CARTESIAN COORDINATES (ANGSTROEM)
---------------------------------
  S    -35.807600   59.506000  114.635000
  C    -37.341600   60.166000  115.027000
  C    -37.825500   59.672800  116.231000
  C    -36.930800   58.786100  116.856000
  C    -35.765100   58.559200  116.133000
  H    -37.171000   58.198100  117.736000
  C    -39.146800   60.021000  116.893000
  H    -39.310400   59.446700  117.795000
  H    -39.866400   59.554000  116.228000
  C    -39.398800   61.490200  117.161000
  H    -38.967800   61.819700  118.069000
  H    -38.791600   61.946600  116.375000
  C    -40.906500   61.851600  117.138000
  H    -41.424400   61.679500  118.069000
  H    -40.878200   62.956000  117.062000
  H    -41.574900   61.435400  116.360000
  S    -34.347600   56.377600  115.086000
  C    -33.216300   55.529200  116.060000
  C    -33.143500   56.103200  117.340000
  C    -34.024100   57.241400  117.580000
  C    -34.710300   57.525600  116.434000
  H    -32.521500   55.654000  118.059000
  C    -34.253800   57.916800  118.921000
  H    -34.860000   57.293800  119.629000
  H    -34.797900   58.808300  118.681000
  C    -32.950900   58.251600  119.729000
  H    -32.240100   58.987400  119.183000
  H    -32.311800   57.369000  119.771000
  C    -33.218700   58.855900  121.154000
  H    -33.695600   58.069800  121.702000
  H    -33.902000   59.688300  121.070000
  H    -32.266000   59.102100  121.681000
  H    -37.875500   60.799600  114.273000
  H    -32.604900   54.753400  115.612000

 Total Charge           Charge          ....    0
 Multiplicity           Mult            ....    1
 Number of Electrons    NEL             ....  134
 Basis Dimension        Dim             ....  322

ORBITAL ENERGIES
----------------

  NO   OCC          E(Eh)            E(eV)
   0   2.0000     -88.967868     -2420.9388
   1   2.0000     -88.962282     -2420.7868
   2   2.0000     -10.332627      -281.1651
   3   2.0000     -10.331471      -281.1336
   4   2.0000     -10.319113      -280.7973
   5   2.0000     -10.316645      -280.7302
   6   2.0000     -10.307209      -280.4734
   7   2.0000     -10.299517      -280.2641
   8   2.0000     -10.298917      -280.2478
   9   2.0000     -10.295718      -280.1607
  10   2.0000     -10.295208      -280.1469
  11   2.0000     -10.292363      -280.0694
  12   2.0000     -10.284861      -279.8653
  13   2.0000     -10.284762      -279.8626
  14   2.0000     -10.282358      -279.7972
  15   2.0000     -10.281954      -279.7862
  16   2.0000      -8.082683      -219.9410
  17   2.0000      -8.077086      -219.7887
  18   2.0000      -6.041113      -164.3870
  19   2.0000      -6.037028      -164.2759
  20   2.0000      -6.035550      -164.2357
  21   2.0000      -6.033675      -164.1846
  22   2.0000      -6.031584      -164.1277
  23   2.0000      -6.027886      -164.0271
  24   2.0000      -1.003037       -27.2940
  25   2.0000      -0.982999       -26.7488
  26   2.0000      -0.911767       -24.8104
  27   2.0000      -0.902842       -24.5676
  28   2.0000      -0.863055       -23.4849
  29   2.0000      -0.852970       -23.2105
  30   2.0000      -0.844884       -22.9905
  31   2.0000      -0.808741       -22.0070
  32   2.0000      -0.782923       -21.3044
  33   2.0000      -0.771325       -20.9888
  34   2.0000      -0.709295       -19.3009
  35   2.0000      -0.700172       -19.0527
  36   2.0000      -0.690475       -18.7888
  37   2.0000      -0.658168       -17.9097
  38   2.0000      -0.641965       -17.4688
  39   2.0000      -0.616617       -16.7790
  40   2.0000      -0.597390       -16.2558
  41   2.0000      -0.572868       -15.5885
  42   2.0000      -0.561359       -15.2753
  43   2.0000      -0.549184       -14.9441
  44   2.0000      -0.529409       -14.4060
  45   2.0000      -0.526218       -14.3191
  46   2.0000      -0.514418       -13.9980
  47   2.0000      -0.508927       -13.8486
  48   2.0000      -0.504972       -13.7410
  49   2.0000      -0.494811       -13.4645
  50   2.0000      -0.487803       -13.2738
  51   2.0000      -0.481792       -13.1102
  52   2.0000      -0.473228       -12.8772
  53   2.0000      -0.467285       -12.7155
  54   2.0000      -0.463106       -12.6018
  55   2.0000      -0.447623       -12.1804
  56   2.0000      -0.446327       -12.1452
  57   2.0000      -0.444051       -12.0832
  58   2.0000      -0.434051       -11.8111
  59   2.0000      -0.423307       -11.5188
  60   2.0000      -0.421661       -11.4740
  61   2.0000      -0.413488       -11.2516
  62   2.0000      -0.403163       -10.9706
  63   2.0000      -0.347048        -9.4437
  64   2.0000      -0.333222        -9.0674
  65   2.0000      -0.326398        -8.8817
  66   2.0000      -0.292993        -7.9728
  67   0.0000       0.030559         0.8315
  68   0.0000       0.070268         1.9121
  69   0.0000       0.111208         3.0261
  70   0.0000       0.122911         3.3446
  71   0.0000       0.133462         3.6317

MULLIKEN ATOMIC CHARGES
-----------------------
   0 S :    0.119645
   1 C :   -0.158673
   2 C :   -0.100625
   3 C :    0.027378
   4 C :   -0.163992
   5 H :    0.019226
   6 C :    0.086406
   7 H :    0.005865
   8 H :    0.029658
   9 C :   -0.038930
  10 H :    0.023347
  11 H :    0.023679
  12 C :   -0.070360
  13 H :    0.031748
  14 H :    0.033813
  15 H :    0.042945
  16 S :    0.093884
  17 C :   -0.097834
  18 C :   -0.025225
  19 C :   -0.011876
  20 C :   -0.164869
  21 H :    0.002920
  22 C :    0.078595
  23 H :    0.045272
  24 H :    0.028244
  25 C :   -0.147457
  26 H :    0.040214
  27 H :    0.028617
  28 C :   -0.032061
  29 H :    0.022555
  30 H :    0.036880
  31 H :    0.048784
  32 H :    0.074556
  33 H :    0.067670
Sum of atomic charges:   -0.0000000

LOEWDIN ATOMIC CHARGES
----------------------
   0 S :    0.418623
   1 C :   -0.219368
   2 C :   -0.067633
   3 C :   -0.064302
   4 C :   -0.192890
   5 H :    0.034069
   6 C :   -0.034618
   7 H :    0.024356
   8 H :    0.033858
   9 C :   -0.034672
  10 H :    0.023706
  11 H :    0.024582
  12 C :   -0.070568
  13 H :    0.023585
  14 H :    0.031918
  15 H :    0.028342
  16 S :    0.389706
  17 C :   -0.190915
  18 C :   -0.067239
  19 C :   -0.054970
  20 C :   -0.175694
  21 H :    0.019062
  22 C :   -0.029214
  23 H :    0.038134
  24 H :    0.029021
  25 C :   -0.048448
  26 H :    0.030047
  27 H :    0.017440
  28 C :   -0.063789
  29 H :    0.019239
  30 H :    0.024754
  31 H :    0.034642
  32 H :    0.038297
  33 H :    0.030938

  Mayer bond orders larger than 0.100000
B(  0-S ,  1-C ) :   1.1574 B(  0-S ,  4-C ) :   1.1699 B(  1-C ,  2-C ) :   1.5688
B(  1-C , 32-H ) :   0.9612 B(  2-C ,  3-C ) :   1.2945 B(  2-C ,  6-C ) :   1.0133
B(  3-C ,  4-C ) :   1.5356 B(  3-C ,  5-H ) :   0.9913 B(  4-C , 20-C ) :   1.0157
B(  6-C ,  7-H ) :   0.9383 B(  6-C ,  8-H ) :   0.9380 B(  6-C ,  9-C ) :   1.0522
B(  9-C , 10-H ) :   0.9512 B(  9-C , 11-H ) :   0.9681 B(  9-C , 12-C ) :   1.0669
B( 12-C , 13-H ) :   0.9764 B( 12-C , 14-H ) :   0.9748 B( 12-C , 15-H ) :   0.9800
B( 16-S , 17-C ) :   1.1582 B( 16-S , 20-C ) :   1.1362 B( 17-C , 18-C ) :   1.6062
B( 17-C , 33-H ) :   0.9697 B( 18-C , 19-C ) :   1.2034 B( 18-C , 21-H ) :   0.9969
B( 19-C , 20-C ) :   1.6360 B( 19-C , 22-C ) :   1.0474 B( 22-C , 23-H ) :   0.9381
B( 22-C , 24-H ) :   0.9256 B( 22-C , 25-C ) :   1.0439 B( 25-C , 26-H ) :   0.9586
B( 25-C , 27-H ) :   0.9601 B( 25-C , 28-C ) :   1.0744 B( 28-C , 29-H ) :   0.9752
B( 28-C , 30-H ) :   0.9768 B( 28-C , 31-H ) :   0.9747

Dispersion correction           -0.013194958
FINAL SINGLE POINT ENERGY     -1339.881671627307

DIPOLE MOMENT
-------------
                                X             Y             Z
Electronic contribution:     10.81853     -12.68869     -23.61682
Nuclear contribution   :    -11.11569      12.71484      24.17235
                        -----------------------------------------
Total Dipole Moment    :     -0.29716       0.02615       0.55553
                        -----------------------------------------
Magnitude (a.u.)       :      0.63055
Magnitude (Debye)      :      1.60274

Rotational constants in cm-1:     0.017873     0.007703     0.005825
Rotational constants in MHz :   535.804312   230.930985   174.623770

                             ****ORCA TERMINATED NORMALLY****
TOTAL RUN TIME: 0 days 0 hours 0 minutes 28 seconds 757 msec
