                         Program Version 4.2.1 -  RELEASE  -
|  1> ! wB97X-D3 SP def2-SVP
|  2> %pal
|  3> nprocs 16
|  4> end
|  5>
|  6> * xyz 0 1
|  7> S 	 39.9074 	 27.6253 	 97.4936
|  8> C 	 39.3036 	 28.8064 	 96.4849
|  9> C 	 39.6964 	 28.4528 	 95.1546
| 10> C 	 40.4253 	 27.2031 	 95.0363
| 11> C 	 40.6063 	 26.6249 	 96.2685
| 12> H 	 40.7522 	 26.7315 	 94.09
| 13> C 	 39.4515 	 29.2291 	 93.9546
| 14> H 	 39.941 	 28.7856 	 93.0939
| 15> H 	 39.8792 	 30.2775 	 94.1566
| 16> C 	 37.9751 	 29.5456 	 93.6876
| 17> H 	 37.5208 	 30.0341 	 94.5832
| 18> H 	 38.0254 	 30.2165 	 92.8621
| 19> C 	 37.0825 	 28.2743 	 93.3669
| 20> H 	 37.454 	 27.84 	 92.417
| 21> H 	 37.0998 	 27.451 	 94.1459
| 22> H 	 36.1514 	 28.6802 	 93.3135
| 23> S 	 39.7052 	 24.3602 	 97.2729
| 24> C 	 40.5607 	 22.877 	 97.0687
| 25> C 	 41.8187 	 23.0132 	 96.4712
| 26> C 	 42.0086 	 24.3995 	 96.1393
| 27> C 	 40.9243 	 25.2086 	 96.4688
| 28> H 	 42.3913 	 22.1177 	 96.3671
| 29> C 	 43.3141 	 24.8586 	 95.5292
| 30> H 	 44.1899 	 24.4894 	 96.1041
| 31> H 	 43.3876 	 25.9426 	 95.603
| 32> C 	 43.3878 	 24.5381 	 94.0625
| 33> H 	 44.2086 	 25.1224 	 93.5997
| 34> H 	 42.4268 	 24.6599 	 93.4542
| 35> C 	 43.6438 	 23.1073 	 93.7511
| 36> H 	 42.7881 	 22.4227 	 93.9657
| 37> H 	 44.437 	 22.669 	 94.289
| 38> H 	 43.8859 	 22.9828 	 92.6575
| 39> H 	 38.9679 	 29.8011 	 96.6992
| 40> H 	 40.3192 	 21.9654 	 97.5659
| 41> *
| 42>
| 43>                          ****END OF INPUT****

CARTESIAN COORDINATES (ANGSTROEM)
---------------------------------
  S     39.907400   27.625300   97.493600
  C     39.303600   28.806400   96.484900
  C     39.696400   28.452800   95.154600
  C     40.425300   27.203100   95.036300
  C     40.606300   26.624900   96.268500
  H     40.752200   26.731500   94.090000
  C     39.451500   29.229100   93.954600
  H     39.941000   28.785600   93.093900
  H     39.879200   30.277500   94.156600
  C     37.975100   29.545600   93.687600
  H     37.520800   30.034100   94.583200
  H     38.025400   30.216500   92.862100
  C     37.082500   28.274300   93.366900
  H     37.454000   27.840000   92.417000
  H     37.099800   27.451000   94.145900
  H     36.151400   28.680200   93.313500
  S     39.705200   24.360200   97.272900
  C     40.560700   22.877000   97.068700
  C     41.818700   23.013200   96.471200
  C     42.008600   24.399500   96.139300
  C     40.924300   25.208600   96.468800
  H     42.391300   22.117700   96.367100
  C     43.314100   24.858600   95.529200
  H     44.189900   24.489400   96.104100
  H     43.387600   25.942600   95.603000
  C     43.387800   24.538100   94.062500
  H     44.208600   25.122400   93.599700
  H     42.426800   24.659900   93.454200
  C     43.643800   23.107300   93.751100
  H     42.788100   22.422700   93.965700
  H     44.437000   22.669000   94.289000
  H     43.885900   22.982800   92.657500
  H     38.967900   29.801100   96.699200
  H     40.319200   21.965400   97.565900

 Total Charge           Charge          ....    0
 Multiplicity           Mult            ....    1
 Number of Electrons    NEL             ....  134
 Basis Dimension        Dim             ....  322

ORBITAL ENERGIES
----------------

  NO   OCC          E(Eh)            E(eV)
   0   2.0000     -88.968047     -2420.9436
   1   2.0000     -88.965027     -2420.8614
   2   2.0000     -10.326256      -280.9917
   3   2.0000     -10.321862      -280.8721
   4   2.0000     -10.311686      -280.5952
   5   2.0000     -10.308981      -280.5216
   6   2.0000     -10.303450      -280.3711
   7   2.0000     -10.299437      -280.2619
   8   2.0000     -10.295233      -280.1475
   9   2.0000     -10.293947      -280.1125
  10   2.0000     -10.288525      -279.9650
  11   2.0000     -10.287682      -279.9421
  12   2.0000     -10.287089      -279.9259
  13   2.0000     -10.286907      -279.9210
  14   2.0000     -10.275073      -279.5990
  15   2.0000     -10.271918      -279.5131
  16   2.0000      -8.084019      -219.9773
  17   2.0000      -8.081255      -219.9021
  18   2.0000      -6.042430      -164.4229
  19   2.0000      -6.039563      -164.3449
  20   2.0000      -6.037985      -164.3019
  21   2.0000      -6.035492      -164.2341
  22   2.0000      -6.035148      -164.2247
  23   2.0000      -6.032175      -164.1438
  24   2.0000      -1.016925       -27.6719
  25   2.0000      -0.992079       -26.9959
  26   2.0000      -0.917386       -24.9633
  27   2.0000      -0.912818       -24.8390
  28   2.0000      -0.872765       -23.7491
  29   2.0000      -0.852390       -23.1947
  30   2.0000      -0.844488       -22.9797
  31   2.0000      -0.817412       -22.2429
  32   2.0000      -0.781747       -21.2724
  33   2.0000      -0.769752       -20.9460
  34   2.0000      -0.705415       -19.1953
  35   2.0000      -0.697948       -18.9921
  36   2.0000      -0.684310       -18.6210
  37   2.0000      -0.665505       -18.1093
  38   2.0000      -0.641330       -17.4515
  39   2.0000      -0.611774       -16.6472
  40   2.0000      -0.596787       -16.2394
  41   2.0000      -0.579839       -15.7782
  42   2.0000      -0.551384       -15.0039
  43   2.0000      -0.547236       -14.8911
  44   2.0000      -0.543162       -14.7802
  45   2.0000      -0.540255       -14.7011
  46   2.0000      -0.523932       -14.2569
  47   2.0000      -0.515934       -14.0393
  48   2.0000      -0.511715       -13.9245
  49   2.0000      -0.500665       -13.6238
  50   2.0000      -0.487597       -13.2682
  51   2.0000      -0.477763       -13.0006
  52   2.0000      -0.471895       -12.8409
  53   2.0000      -0.469167       -12.7667
  54   2.0000      -0.465923       -12.6784
  55   2.0000      -0.444240       -12.0884
  56   2.0000      -0.441129       -12.0037
  57   2.0000      -0.432528       -11.7697
  58   2.0000      -0.427208       -11.6249
  59   2.0000      -0.418234       -11.3807
  60   2.0000      -0.415295       -11.3007
  61   2.0000      -0.412040       -11.2122
  62   2.0000      -0.408195       -11.1076
  63   2.0000      -0.353542        -9.6204
  64   2.0000      -0.331047        -9.0082
  65   2.0000      -0.317854        -8.6493
  66   2.0000      -0.290549        -7.9062
  67   0.0000       0.035368         0.9624
  68   0.0000       0.067543         1.8379
  69   0.0000       0.116549         3.1715
  70   0.0000       0.124341         3.3835
  71   0.0000       0.129592         3.5264

MULLIKEN ATOMIC CHARGES
-----------------------
   0 S :    0.128352
   1 C :   -0.089272
   2 C :   -0.137894
   3 C :    0.031082
   4 C :   -0.144013
   5 H :    0.028096
   6 C :    0.037171
   7 H :    0.019015
   8 H :    0.040536
   9 C :   -0.088439
  10 H :    0.029893
  11 H :    0.026252
  12 C :   -0.044149
  13 H :    0.030780
  14 H :    0.055394
  15 H :    0.022110
  16 S :    0.129407
  17 C :   -0.092198
  18 C :   -0.043629
  19 C :   -0.051608
  20 C :   -0.151503
  21 H :    0.020079
  22 C :    0.089684
  23 H :    0.039133
  24 H :    0.019131
  25 C :   -0.092136
  26 H :    0.035627
  27 H :    0.046334
  28 C :   -0.066897
  29 H :    0.037791
  30 H :    0.005459
  31 H :    0.035999
  32 H :    0.051812
  33 H :    0.042600
Sum of atomic charges:    0.0000000

LOEWDIN ATOMIC CHARGES
----------------------
   0 S :    0.458044
   1 C :   -0.237413
   2 C :   -0.062441
   3 C :   -0.063551
   4 C :   -0.212792
   5 H :    0.038219
   6 C :   -0.046559
   7 H :    0.026717
   8 H :    0.043026
   9 C :   -0.033223
  10 H :    0.023904
  11 H :    0.019042
  12 C :   -0.061722
  13 H :    0.025664
  14 H :    0.035522
  15 H :    0.011293
  16 S :    0.449947
  17 C :   -0.196501
  18 C :   -0.066411
  19 C :   -0.056908
  20 C :   -0.216731
  21 H :    0.032404
  22 C :   -0.035342
  23 H :    0.037158
  24 H :    0.030054
  25 C :   -0.051257
  26 H :    0.027397
  27 H :    0.037516
  28 C :   -0.074054
  29 H :    0.026382
  30 H :    0.009134
  31 H :    0.031904
  32 H :    0.031197
  33 H :    0.020382

  Mayer bond orders larger than 0.100000
B(  0-S ,  1-C ) :   1.1605 B(  0-S ,  4-C ) :   1.1885 B(  1-C ,  2-C ) :   1.5235
B(  1-C , 32-H ) :   0.9715 B(  2-C ,  3-C ) :   1.2881 B(  2-C ,  6-C ) :   1.0579
B(  3-C ,  4-C ) :   1.5165 B(  3-C ,  5-H ) :   0.9885 B(  4-C , 20-C ) :   1.0045
B(  6-C ,  7-H ) :   0.9454 B(  6-C ,  8-H ) :   0.9276 B(  6-C ,  9-C ) :   1.0724
B(  9-C , 10-H ) :   0.9570 B(  9-C , 11-H ) :   0.9580 B(  9-C , 12-C ) :   1.0617
B( 12-C , 13-H ) :   0.9773 B( 12-C , 14-H ) :   0.9762 B( 12-C , 15-H ) :   0.9773
B( 16-S , 17-C ) :   1.1747 B( 16-S , 20-C ) :   1.1693 B( 17-C , 18-C ) :   1.6041
B( 17-C , 33-H ) :   0.9647 B( 18-C , 19-C ) :   1.2325 B( 18-C , 21-H ) :   0.9968
B( 19-C , 20-C ) :   1.5995 B( 19-C , 22-C ) :   1.0439 B( 22-C , 23-H ) :   0.9411
B( 22-C , 24-H ) :   0.9263 B( 22-C , 25-C ) :   1.0689 B( 25-C , 26-H ) :   0.9543
B( 25-C , 27-H ) :   0.9493 B( 25-C , 28-C ) :   1.0885 B( 28-C , 29-H ) :   0.9671
B( 28-C , 30-H ) :   0.9706 B( 28-C , 31-H ) :   0.9700

Dispersion correction           -0.014702128
FINAL SINGLE POINT ENERGY     -1339.859350406089

DIPOLE MOMENT
-------------
                                X             Y             Z
Electronic contribution:     -4.44493      -1.85159      22.34655
Nuclear contribution   :      4.64826       1.95207     -22.79093
                        -----------------------------------------
Total Dipole Moment    :      0.20332       0.10048      -0.44439
                        -----------------------------------------
Magnitude (a.u.)       :      0.49892
Magnitude (Debye)      :      1.26814

Rotational constants in cm-1:     0.020737     0.008407     0.007185
Rotational constants in MHz :   621.689530   252.034570   215.401991

                             ****ORCA TERMINATED NORMALLY****
TOTAL RUN TIME: 0 days 0 hours 0 minutes 30 seconds 333 msec
