                         Program Version 4.2.1 -  RELEASE  -
|  1> ! wB97X-D3 SP def2-SVP
|  2> %pal
|  3> nprocs 16
|  4> end
|  5>
|  6> * xyz 0 1
|  7> S 	 43.5716 	 12.1454 	 81.3789
|  8> C 	 44.6257 	 12.555 	 82.6555
|  9> C 	 45.839 	 13.0721 	 82.3012
| 10> C 	 45.9115 	 13.1209 	 80.8552
| 11> C 	 44.7979 	 12.5971 	 80.194
| 12> H 	 46.6515 	 13.427 	 80.1722
| 13> C 	 46.843 	 13.5517 	 83.3114
| 14> H 	 46.4316 	 13.3951 	 84.3032
| 15> H 	 46.9828 	 14.6432 	 83.2463
| 16> C 	 48.2707 	 12.9346 	 83.1183
| 17> H 	 48.5788 	 13.0673 	 82.0706
| 18> H 	 49.0963 	 13.3274 	 83.729
| 19> C 	 48.2992 	 11.4585 	 83.4326
| 20> H 	 47.5079 	 10.9963 	 82.8145
| 21> H 	 49.2202 	 11.088 	 83.0352
| 22> H 	 48.1542 	 11.2353 	 84.5141
| 23> S 	 43.8077 	 11.0321 	 78.1401
| 24> C 	 43.9196 	 11.5566 	 76.516
| 25> C 	 44.5661 	 12.7504 	 76.3771
| 26> C 	 45.0713 	 13.2526 	 77.6132
| 27> C 	 44.5537 	 12.5259 	 78.7569
| 28> H 	 44.6893 	 13.1583 	 75.397
| 29> C 	 45.7767 	 14.5534 	 77.6228
| 30> H 	 45.3356 	 15.1294 	 78.4427
| 31> H 	 45.281 	 15.0328 	 76.7916
| 32> C 	 47.3077 	 14.6276 	 77.4507
| 33> H 	 47.784 	 13.982 	 78.1407
| 34> H 	 47.6892 	 15.6297 	 77.8044
| 35> C 	 47.8464 	 14.0385 	 76.1234
| 36> H 	 47.2827 	 13.1598 	 75.9814
| 37> H 	 48.9522 	 13.7935 	 76.0834
| 38> H 	 47.5839 	 14.767 	 75.3055
| 39> H 	 44.3617 	 12.3463 	 83.6979
| 40> H 	 43.4501 	 11.0727 	 75.6225
| 41> *
| 42>
| 43>                          ****END OF INPUT****

CARTESIAN COORDINATES (ANGSTROEM)
---------------------------------
  S     43.571600   12.145400   81.378900
  C     44.625700   12.555000   82.655500
  C     45.839000   13.072100   82.301200
  C     45.911500   13.120900   80.855200
  C     44.797900   12.597100   80.194000
  H     46.651500   13.427000   80.172200
  C     46.843000   13.551700   83.311400
  H     46.431600   13.395100   84.303200
  H     46.982800   14.643200   83.246300
  C     48.270700   12.934600   83.118300
  H     48.578800   13.067300   82.070600
  H     49.096300   13.327400   83.729000
  C     48.299200   11.458500   83.432600
  H     47.507900   10.996300   82.814500
  H     49.220200   11.088000   83.035200
  H     48.154200   11.235300   84.514100
  S     43.807700   11.032100   78.140100
  C     43.919600   11.556600   76.516000
  C     44.566100   12.750400   76.377100
  C     45.071300   13.252600   77.613200
  C     44.553700   12.525900   78.756900
  H     44.689300   13.158300   75.397000
  C     45.776700   14.553400   77.622800
  H     45.335600   15.129400   78.442700
  H     45.281000   15.032800   76.791600
  C     47.307700   14.627600   77.450700
  H     47.784000   13.982000   78.140700
  H     47.689200   15.629700   77.804400
  C     47.846400   14.038500   76.123400
  H     47.282700   13.159800   75.981400
  H     48.952200   13.793500   76.083400
  H     47.583900   14.767000   75.305500
  H     44.361700   12.346300   83.697900
  H     43.450100   11.072700   75.622500

 Total Charge           Charge          ....    0
 Multiplicity           Mult            ....    1
 Number of Electrons    NEL             ....  134
 Basis Dimension        Dim             ....  322

ORBITAL ENERGIES
----------------

  NO   OCC          E(Eh)            E(eV)
   0   2.0000     -88.967679     -2420.9336
   1   2.0000     -88.966318     -2420.8966
   2   2.0000     -10.335566      -281.2451
   3   2.0000     -10.332007      -281.1482
   4   2.0000     -10.316661      -280.7306
   5   2.0000     -10.311383      -280.5870
   6   2.0000     -10.310044      -280.5506
   7   2.0000     -10.304749      -280.4065
   8   2.0000     -10.296647      -280.1860
   9   2.0000     -10.296194      -280.1737
  10   2.0000     -10.292119      -280.0628
  11   2.0000     -10.290535      -280.0197
  12   2.0000     -10.289484      -279.9911
  13   2.0000     -10.286876      -279.9201
  14   2.0000     -10.285228      -279.8753
  15   2.0000     -10.271229      -279.4944
  16   2.0000      -8.082517      -219.9365
  17   2.0000      -8.081842      -219.9181
  18   2.0000      -6.040996      -164.3839
  19   2.0000      -6.040318      -164.3654
  20   2.0000      -6.036942      -164.2735
  21   2.0000      -6.036277      -164.2554
  22   2.0000      -6.033368      -164.1763
  23   2.0000      -6.032545      -164.1539
  24   2.0000      -1.007280       -27.4095
  25   2.0000      -0.987939       -26.8832
  26   2.0000      -0.913922       -24.8691
  27   2.0000      -0.911503       -24.8033
  28   2.0000      -0.872332       -23.7374
  29   2.0000      -0.853471       -23.2241
  30   2.0000      -0.848116       -23.0784
  31   2.0000      -0.818446       -22.2711
  32   2.0000      -0.785006       -21.3611
  33   2.0000      -0.769734       -20.9455
  34   2.0000      -0.714250       -19.4357
  35   2.0000      -0.697212       -18.9721
  36   2.0000      -0.683620       -18.6022
  37   2.0000      -0.662989       -18.0408
  38   2.0000      -0.643744       -17.5172
  39   2.0000      -0.619363       -16.8537
  40   2.0000      -0.591783       -16.1032
  41   2.0000      -0.571102       -15.5405
  42   2.0000      -0.553136       -15.0516
  43   2.0000      -0.550751       -14.9867
  44   2.0000      -0.545825       -14.8526
  45   2.0000      -0.541724       -14.7411
  46   2.0000      -0.522914       -14.2292
  47   2.0000      -0.507937       -13.8217
  48   2.0000      -0.500106       -13.6086
  49   2.0000      -0.497709       -13.5433
  50   2.0000      -0.485204       -13.2031
  51   2.0000      -0.481643       -13.1062
  52   2.0000      -0.474407       -12.9093
  53   2.0000      -0.470349       -12.7988
  54   2.0000      -0.459139       -12.4938
  55   2.0000      -0.453116       -12.3299
  56   2.0000      -0.444165       -12.0864
  57   2.0000      -0.432607       -11.7718
  58   2.0000      -0.431605       -11.7446
  59   2.0000      -0.426233       -11.5984
  60   2.0000      -0.425387       -11.5754
  61   2.0000      -0.416618       -11.3367
  62   2.0000      -0.405558       -11.0358
  63   2.0000      -0.356485        -9.7005
  64   2.0000      -0.332012        -9.0345
  65   2.0000      -0.330866        -9.0033
  66   2.0000      -0.285980        -7.7819
  67   0.0000       0.020977         0.5708
  68   0.0000       0.078218         2.1284
  69   0.0000       0.113331         3.0839
  70   0.0000       0.116399         3.1674
  71   0.0000       0.127451         3.4681

MULLIKEN ATOMIC CHARGES
-----------------------
   0 S :    0.115777
   1 C :   -0.122707
   2 C :   -0.068502
   3 C :    0.037332
   4 C :   -0.155433
   5 H :   -0.030648
   6 C :    0.096424
   7 H :    0.011950
   8 H :    0.042878
   9 C :   -0.105210
  10 H :    0.031426
  11 H :    0.031470
  12 C :   -0.052105
  13 H :    0.037447
  14 H :    0.024494
  15 H :    0.040308
  16 S :    0.104707
  17 C :   -0.093988
  18 C :   -0.036500
  19 C :   -0.063967
  20 C :   -0.128876
  21 H :    0.016219
  22 C :    0.023447
  23 H :    0.036199
  24 H :    0.015961
  25 C :   -0.033033
  26 H :    0.020437
  27 H :    0.037119
  28 C :   -0.077748
  29 H :    0.032040
  30 H :    0.055643
  31 H :    0.035173
  32 H :    0.051734
  33 H :    0.070535
Sum of atomic charges:    0.0000000

LOEWDIN ATOMIC CHARGES
----------------------
   0 S :    0.413498
   1 C :   -0.203564
   2 C :   -0.065079
   3 C :   -0.055960
   4 C :   -0.193188
   5 H :    0.021274
   6 C :   -0.028559
   7 H :    0.027597
   8 H :    0.037343
   9 C :   -0.045891
  10 H :    0.024586
  11 H :    0.024905
  12 C :   -0.067715
  13 H :    0.027185
  14 H :    0.021640
  15 H :    0.027341
  16 S :    0.415265
  17 C :   -0.203345
  18 C :   -0.079886
  19 C :   -0.052306
  20 C :   -0.194741
  21 H :    0.030525
  22 C :   -0.046238
  23 H :    0.039445
  24 H :    0.032679
  25 C :   -0.043189
  26 H :    0.015920
  27 H :    0.031115
  28 C :   -0.066253
  29 H :    0.020438
  30 H :    0.036692
  31 H :    0.027116
  32 H :    0.029367
  33 H :    0.041981

  Mayer bond orders larger than 0.100000
B(  0-S ,  1-C ) :   1.1521 B(  0-S ,  4-C ) :   1.1384 B(  1-C ,  2-C ) :   1.6206
B(  1-C , 32-H ) :   0.9581 B(  2-C ,  3-C ) :   1.1936 B(  2-C ,  6-C ) :   1.0299
B(  3-C ,  4-C ) :   1.5987 B(  3-C ,  5-H ) :   1.0034 B(  4-C , 20-C ) :   1.0571
B(  6-C ,  7-H ) :   0.9431 B(  6-C ,  8-H ) :   0.9360 B(  6-C ,  9-C ) :   1.0523
B(  9-C , 10-H ) :   0.9590 B(  9-C , 11-H ) :   0.9595 B(  9-C , 12-C ) :   1.0794
B( 12-C , 13-H ) :   0.9754 B( 12-C , 14-H ) :   0.9718 B( 12-C , 15-H ) :   0.9756
B( 16-S , 17-C ) :   1.1716 B( 16-S , 20-C ) :   1.1414 B( 17-C , 18-C ) :   1.6025
B( 17-C , 20-C ) :   0.1026 B( 17-C , 33-H ) :   0.9545 B( 18-C , 19-C ) :   1.2574
B( 18-C , 21-H ) :   0.9890 B( 19-C , 20-C ) :   1.5419 B( 19-C , 22-C ) :   1.0289
B( 22-C , 23-H ) :   0.9401 B( 22-C , 24-H ) :   0.9426 B( 22-C , 25-C ) :   1.0491
B( 25-C , 26-H ) :   0.9530 B( 25-C , 27-H ) :   0.9563 B( 25-C , 28-C ) :   1.0551
B( 28-C , 29-H ) :   0.9733 B( 28-C , 30-H ) :   0.9760 B( 28-C , 31-H ) :   0.9778

Dispersion correction           -0.014549452
FINAL SINGLE POINT ENERGY     -1339.873058146370

DIPOLE MOMENT
-------------
                                X             Y             Z
Electronic contribution:    -24.75331      -9.90869      -1.64384
Nuclear contribution   :     25.21543      10.25356       1.53524
                        -----------------------------------------
Total Dipole Moment    :      0.46212       0.34487      -0.10860
                        -----------------------------------------
Magnitude (a.u.)       :      0.58676
Magnitude (Debye)      :      1.49142

Rotational constants in cm-1:     0.018329     0.009032     0.006856
Rotational constants in MHz :   549.486937   270.781494   205.528118

                             ****ORCA TERMINATED NORMALLY****
TOTAL RUN TIME: 0 days 0 hours 0 minutes 30 seconds 384 msec
