                         Program Version 4.2.1 -  RELEASE  -
|  1> ! wB97X-D3 SP def2-SVP
|  2> %pal
|  3> nprocs 16
|  4> end
|  5>
|  6> * xyz 0 1
|  7> S 	 2.49026 	 76.8747 	 46.7813
|  8> C 	 1.80364 	 77.9962 	 48.0548
|  9> C 	 0.608984 	 77.4856 	 48.5548
| 10> C 	 0.193147 	 76.2859 	 47.7984
| 11> C 	 1.20604 	 75.7125 	 47.062
| 12> H 	 -0.731924 	 75.8021 	 47.8078
| 13> C 	 -0.284732 	 78.1477 	 49.6189
| 14> H 	 -0.687018 	 79.1423 	 49.3124
| 15> H 	 0.413301 	 78.2749 	 50.4286
| 16> C 	 -1.43688 	 77.3455 	 50.2937
| 17> H 	 -2.0058 	 77.9817 	 51.0625
| 18> H 	 -2.23214 	 77.0888 	 49.5596
| 19> C 	 -0.915284 	 76.083 	 51.0804
| 20> H 	 -0.677766 	 75.2959 	 50.3234
| 21> H 	 0.0940576 	 76.1872 	 51.4229
| 22> H 	 -1.587 	 75.7957 	 51.868
| 23> S 	 1.97933 	 74.2721 	 44.7921
| 24> C 	 1.21277 	 72.6397 	 44.6482
| 25> C 	 0.60507 	 72.1952 	 45.8279
| 26> C 	 0.67032 	 73.1775 	 46.8541
| 27> C 	 1.16257 	 74.41 	 46.3653
| 28> H 	 0.316089 	 71.1879 	 45.8852
| 29> C 	 0.247994 	 72.7915 	 48.2471
| 30> H 	 0.0546 	 71.7566 	 48.3976
| 31> H 	 -0.655859 	 73.3794 	 48.4663
| 32> C 	 1.26978 	 73.0316 	 49.369
| 33> H 	 0.758156 	 72.8231 	 50.3175
| 34> H 	 1.60891 	 74.0829 	 49.413
| 35> C 	 2.52346 	 72.2462 	 49.0749
| 36> H 	 3.22362 	 72.0612 	 49.9494
| 37> H 	 3.07625 	 72.7546 	 48.2793
| 38> H 	 2.36293 	 71.1991 	 48.7256
| 39> H 	 2.23995 	 78.914 	 48.3069
| 40> H 	 1.34845 	 72.0072 	 43.8247
| 41> *
| 42>
| 43>                          ****END OF INPUT****

CARTESIAN COORDINATES (ANGSTROEM)
---------------------------------
  S      2.490260   76.874700   46.781300
  C      1.803640   77.996200   48.054800
  C      0.608984   77.485600   48.554800
  C      0.193147   76.285900   47.798400
  C      1.206040   75.712500   47.062000
  H     -0.731924   75.802100   47.807800
  C     -0.284732   78.147700   49.618900
  H     -0.687018   79.142300   49.312400
  H      0.413301   78.274900   50.428600
  C     -1.436880   77.345500   50.293700
  H     -2.005800   77.981700   51.062500
  H     -2.232140   77.088800   49.559600
  C     -0.915284   76.083000   51.080400
  H     -0.677766   75.295900   50.323400
  H      0.094058   76.187200   51.422900
  H     -1.587000   75.795700   51.868000
  S      1.979330   74.272100   44.792100
  C      1.212770   72.639700   44.648200
  C      0.605070   72.195200   45.827900
  C      0.670320   73.177500   46.854100
  C      1.162570   74.410000   46.365300
  H      0.316089   71.187900   45.885200
  C      0.247994   72.791500   48.247100
  H      0.054600   71.756600   48.397600
  H     -0.655859   73.379400   48.466300
  C      1.269780   73.031600   49.369000
  H      0.758156   72.823100   50.317500
  H      1.608910   74.082900   49.413000
  C      2.523460   72.246200   49.074900
  H      3.223620   72.061200   49.949400
  H      3.076250   72.754600   48.279300
  H      2.362930   71.199100   48.725600
  H      2.239950   78.914000   48.306900
  H      1.348450   72.007200   43.824700

 Total Charge           Charge          ....    0
 Multiplicity           Mult            ....    1
 Number of Electrons    NEL             ....  134
 Basis Dimension        Dim             ....  322

ORBITAL ENERGIES
----------------

  NO   OCC          E(Eh)            E(eV)
   0   2.0000     -88.972693     -2421.0701
   1   2.0000     -88.964094     -2420.8361
   2   2.0000     -10.334911      -281.2272
   3   2.0000     -10.332002      -281.1481
   4   2.0000     -10.321658      -280.8666
   5   2.0000     -10.319257      -280.8013
   6   2.0000     -10.314522      -280.6724
   7   2.0000     -10.310446      -280.5615
   8   2.0000     -10.302062      -280.3334
   9   2.0000     -10.300265      -280.2845
  10   2.0000     -10.295425      -280.1528
  11   2.0000     -10.293097      -280.0894
  12   2.0000     -10.290834      -280.0278
  13   2.0000     -10.283821      -279.8370
  14   2.0000     -10.280024      -279.7337
  15   2.0000     -10.277099      -279.6541
  16   2.0000      -8.085970      -220.0304
  17   2.0000      -8.077811      -219.8084
  18   2.0000      -6.044505      -164.4793
  19   2.0000      -6.041009      -164.3842
  20   2.0000      -6.036577      -164.2636
  21   2.0000      -6.036467      -164.2606
  22   2.0000      -6.032655      -164.1569
  23   2.0000      -6.028189      -164.0354
  24   2.0000      -0.998328       -27.1659
  25   2.0000      -0.973809       -26.4987
  26   2.0000      -0.912792       -24.8383
  27   2.0000      -0.904419       -24.6105
  28   2.0000      -0.865459       -23.5503
  29   2.0000      -0.848688       -23.0940
  30   2.0000      -0.835106       -22.7244
  31   2.0000      -0.814107       -22.1530
  32   2.0000      -0.783542       -21.3213
  33   2.0000      -0.772943       -21.0328
  34   2.0000      -0.711214       -19.3531
  35   2.0000      -0.699485       -19.0339
  36   2.0000      -0.684564       -18.6279
  37   2.0000      -0.665052       -18.0970
  38   2.0000      -0.643351       -17.5065
  39   2.0000      -0.617898       -16.8139
  40   2.0000      -0.598113       -16.2755
  41   2.0000      -0.562268       -15.3001
  42   2.0000      -0.556194       -15.1348
  43   2.0000      -0.553947       -15.0737
  44   2.0000      -0.547116       -14.8878
  45   2.0000      -0.538984       -14.6665
  46   2.0000      -0.516953       -14.0670
  47   2.0000      -0.510226       -13.8840
  48   2.0000      -0.496415       -13.5081
  49   2.0000      -0.492881       -13.4120
  50   2.0000      -0.488882       -13.3032
  51   2.0000      -0.477687       -12.9985
  52   2.0000      -0.470692       -12.8082
  53   2.0000      -0.461106       -12.5473
  54   2.0000      -0.457112       -12.4387
  55   2.0000      -0.449375       -12.2281
  56   2.0000      -0.446635       -12.1536
  57   2.0000      -0.436110       -11.8672
  58   2.0000      -0.430854       -11.7241
  59   2.0000      -0.423762       -11.5312
  60   2.0000      -0.420788       -11.4502
  61   2.0000      -0.413683       -11.2569
  62   2.0000      -0.404957       -11.0194
  63   2.0000      -0.349519        -9.5109
  64   2.0000      -0.334606        -9.1051
  65   2.0000      -0.324930        -8.8418
  66   2.0000      -0.283039        -7.7019
  67   0.0000       0.013631         0.3709
  68   0.0000       0.068877         1.8742
  69   0.0000       0.080006         2.1771
  70   0.0000       0.113936         3.1004
  71   0.0000       0.130035         3.5384

MULLIKEN ATOMIC CHARGES
-----------------------
   0 S :    0.072991
   1 C :   -0.100362
   2 C :   -0.079565
   3 C :    0.019526
   4 C :   -0.121646
   5 H :   -0.000907
   6 C :    0.051966
   7 H :    0.056951
   8 H :    0.032891
   9 C :   -0.124587
  10 H :    0.042135
  11 H :    0.041390
  12 C :   -0.050281
  13 H :    0.026729
  14 H :    0.022289
  15 H :    0.047625
  16 S :    0.102230
  17 C :   -0.071881
  18 C :   -0.012061
  19 C :   -0.047903
  20 C :   -0.146350
  21 H :    0.007294
  22 C :    0.071237
  23 H :    0.016714
  24 H :    0.035829
  25 C :   -0.070358
  26 H :    0.032936
  27 H :    0.046957
  28 C :   -0.081813
  29 H :    0.041392
  30 H :    0.050965
  31 H :    0.018730
  32 H :    0.031299
  33 H :    0.037637
Sum of atomic charges:    0.0000000

LOEWDIN ATOMIC CHARGES
----------------------
   0 S :    0.354764
   1 C :   -0.163490
   2 C :   -0.051344
   3 C :   -0.063564
   4 C :   -0.181892
   5 H :    0.020356
   6 C :   -0.038877
   7 H :    0.039512
   8 H :    0.033074
   9 C :   -0.048615
  10 H :    0.033886
  11 H :    0.022977
  12 C :   -0.072151
  13 H :    0.031148
  14 H :    0.023686
  15 H :    0.026086
  16 S :    0.373049
  17 C :   -0.151067
  18 C :   -0.056996
  19 C :   -0.047860
  20 C :   -0.189866
  21 H :    0.027483
  22 C :   -0.029376
  23 H :    0.027634
  24 H :    0.032891
  25 C :   -0.044145
  26 H :    0.024029
  27 H :    0.028704
  28 C :   -0.076500
  29 H :    0.031740
  30 H :    0.031526
  31 H :    0.020466
  32 H :    0.017411
  33 H :    0.015321

  Mayer bond orders larger than 0.100000
B(  0-S ,  1-C ) :   1.1020 B(  0-S ,  4-C ) :   1.1253 B(  1-C ,  2-C ) :   1.6540
B(  1-C , 32-H ) :   0.9831 B(  2-C ,  3-C ) :   1.1863 B(  2-C ,  6-C ) :   0.9959
B(  3-C ,  4-C ) :   1.6073 B(  3-C ,  5-H ) :   0.9943 B(  4-C , 20-C ) :   1.0702
B(  6-C ,  7-H ) :   0.9433 B(  6-C ,  8-H ) :   0.9435 B(  6-C ,  9-C ) :   1.0799
B(  9-C , 10-H ) :   0.9596 B(  9-C , 11-H ) :   0.9535 B(  9-C , 12-C ) :   1.0603
B( 12-C , 13-H ) :   0.9688 B( 12-C , 14-H ) :   0.9744 B( 12-C , 15-H ) :   0.9773
B( 16-S , 17-C ) :   1.1362 B( 16-S , 20-C ) :   1.1263 B( 17-C , 18-C ) :   1.6220
B( 17-C , 20-C ) :   0.1061 B( 17-C , 33-H ) :   0.9729 B( 18-C , 19-C ) :   1.2340
B( 18-C , 21-H ) :   0.9958 B( 19-C , 20-C ) :   1.5677 B( 19-C , 22-C ) :   1.0349
B( 22-C , 23-H ) :   0.9445 B( 22-C , 24-H ) :   0.9261 B( 22-C , 25-C ) :   1.0739
B( 25-C , 26-H ) :   0.9570 B( 25-C , 27-H ) :   0.9501 B( 25-C , 28-C ) :   1.0625
B( 28-C , 29-H ) :   0.9734 B( 28-C , 30-H ) :   0.9715 B( 28-C , 31-H ) :   0.9763

Dispersion correction           -0.016640350
FINAL SINGLE POINT ENERGY     -1339.852060279696

DIPOLE MOMENT
-------------
                                X             Y             Z
Electronic contribution:     10.48016       5.60836     -25.29345
Nuclear contribution   :    -10.89444      -5.85205      25.82342
                        -----------------------------------------
Total Dipole Moment    :     -0.41428      -0.24369       0.52997
                        -----------------------------------------
Magnitude (a.u.)       :      0.71546
Magnitude (Debye)      :      1.81856

Rotational constants in cm-1:     0.019001     0.010286     0.007914
Rotational constants in MHz :   569.621107   308.362535   237.263174

                             ****ORCA TERMINATED NORMALLY****
TOTAL RUN TIME: 0 days 0 hours 0 minutes 34 seconds 717 msec
