                         Program Version 4.2.1 -  RELEASE  -
|  1> ! wB97X-D3 SP def2-SVP
|  2> %pal
|  3> nprocs 16
|  4> end
|  5>
|  6> * xyz 0 1
|  7> S 	 35.2204 	 9.19935 	 85.1981
|  8> C 	 36.097 	 8.23556 	 83.9966
|  9> C 	 37.4155 	 8.54395 	 83.9011
| 10> C 	 37.7974 	 9.38675 	 84.9906
| 11> C 	 36.759 	 9.76109 	 85.8113
| 12> H 	 38.8186 	 9.73867 	 85.1595
| 13> C 	 38.3611 	 7.84408 	 82.9428
| 14> H 	 39.1653 	 7.27102 	 83.538
| 15> H 	 38.7947 	 8.6811 	 82.4392
| 16> C 	 37.8417 	 6.73373 	 81.99
| 17> H 	 37.5602 	 5.88845 	 82.6506
| 18> H 	 36.9618 	 7.1057 	 81.4493
| 19> C 	 38.9784 	 6.25662 	 81.0585
| 20> H 	 38.7057 	 5.3609 	 80.5153
| 21> H 	 39.3121 	 7.1013 	 80.3771
| 22> H 	 39.8428 	 5.97257 	 81.6192
| 23> S 	 36.0272 	 10.0423 	 88.5225
| 24> C 	 36.6187 	 11.3867 	 89.3982
| 25> C 	 37.4783 	 12.1666 	 88.7245
| 26> C 	 37.6459 	 11.6937 	 87.3777
| 27> C 	 36.9062 	 10.4808 	 87.107
| 28> H 	 37.7664 	 13.1304 	 89.1741
| 29> C 	 38.5834 	 12.3501 	 86.3809
| 30> H 	 39.3296 	 11.6099 	 86.1243
| 31> H 	 39.129 	 13.0802 	 86.9057
| 32> C 	 37.9014 	 13.0782 	 85.3061
| 33> H 	 37.1254 	 13.6828 	 85.5412
| 34> H 	 37.4035 	 12.311 	 84.7211
| 35> C 	 38.9381 	 13.8755 	 84.4817
| 36> H 	 39.0653 	 14.8454 	 84.9851
| 37> H 	 38.4652 	 14.2314 	 83.5481
| 38> H 	 39.9192 	 13.386 	 84.2566
| 39> H 	 35.6728 	 7.40148 	 83.4981
| 40> H 	 36.1483 	 11.743 	 90.3181
| 41> *
| 42>
| 43>                          ****END OF INPUT****

CARTESIAN COORDINATES (ANGSTROEM)
---------------------------------
  S     35.220400    9.199350   85.198100
  C     36.097000    8.235560   83.996600
  C     37.415500    8.543950   83.901100
  C     37.797400    9.386750   84.990600
  C     36.759000    9.761090   85.811300
  H     38.818600    9.738670   85.159500
  C     38.361100    7.844080   82.942800
  H     39.165300    7.271020   83.538000
  H     38.794700    8.681100   82.439200
  C     37.841700    6.733730   81.990000
  H     37.560200    5.888450   82.650600
  H     36.961800    7.105700   81.449300
  C     38.978400    6.256620   81.058500
  H     38.705700    5.360900   80.515300
  H     39.312100    7.101300   80.377100
  H     39.842800    5.972570   81.619200
  S     36.027200   10.042300   88.522500
  C     36.618700   11.386700   89.398200
  C     37.478300   12.166600   88.724500
  C     37.645900   11.693700   87.377700
  C     36.906200   10.480800   87.107000
  H     37.766400   13.130400   89.174100
  C     38.583400   12.350100   86.380900
  H     39.329600   11.609900   86.124300
  H     39.129000   13.080200   86.905700
  C     37.901400   13.078200   85.306100
  H     37.125400   13.682800   85.541200
  H     37.403500   12.311000   84.721100
  C     38.938100   13.875500   84.481700
  H     39.065300   14.845400   84.985100
  H     38.465200   14.231400   83.548100
  H     39.919200   13.386000   84.256600
  H     35.672800    7.401480   83.498100
  H     36.148300   11.743000   90.318100

 Total Charge           Charge          ....    0
 Multiplicity           Mult            ....    1
 Number of Electrons    NEL             ....  134
 Basis Dimension        Dim             ....  322

ORBITAL ENERGIES
----------------

  NO   OCC          E(Eh)            E(eV)
   0   2.0000     -88.966008     -2420.8882
   1   2.0000     -88.964551     -2420.8485
   2   2.0000     -10.331411      -281.1320
   3   2.0000     -10.328029      -281.0399
   4   2.0000     -10.308596      -280.5112
   5   2.0000     -10.306329      -280.4495
   6   2.0000     -10.305416      -280.4246
   7   2.0000     -10.298789      -280.2443
   8   2.0000     -10.298697      -280.2418
   9   2.0000     -10.296286      -280.1762
  10   2.0000     -10.294120      -280.1173
  11   2.0000     -10.291522      -280.0466
  12   2.0000     -10.284835      -279.8646
  13   2.0000     -10.280195      -279.7383
  14   2.0000     -10.278542      -279.6933
  15   2.0000     -10.268829      -279.4290
  16   2.0000      -8.081698      -219.9142
  17   2.0000      -8.079160      -219.8451
  18   2.0000      -6.040094      -164.3593
  19   2.0000      -6.037708      -164.2944
  20   2.0000      -6.035906      -164.2454
  21   2.0000      -6.033884      -164.1903
  22   2.0000      -6.032696      -164.1580
  23   2.0000      -6.029700      -164.0765
  24   2.0000      -1.006767       -27.3955
  25   2.0000      -0.987612       -26.8743
  26   2.0000      -0.918710       -24.9994
  27   2.0000      -0.911257       -24.7966
  28   2.0000      -0.868181       -23.6244
  29   2.0000      -0.849020       -23.1030
  30   2.0000      -0.847266       -23.0553
  31   2.0000      -0.815427       -22.1889
  32   2.0000      -0.781671       -21.2703
  33   2.0000      -0.767357       -20.8809
  34   2.0000      -0.713205       -19.4073
  35   2.0000      -0.707350       -19.2480
  36   2.0000      -0.688436       -18.7333
  37   2.0000      -0.655943       -17.8491
  38   2.0000      -0.633483       -17.2379
  39   2.0000      -0.616556       -16.7773
  40   2.0000      -0.596646       -16.2356
  41   2.0000      -0.577945       -15.7267
  42   2.0000      -0.570842       -15.5334
  43   2.0000      -0.563935       -15.3455
  44   2.0000      -0.532506       -14.4902
  45   2.0000      -0.522857       -14.2277
  46   2.0000      -0.512945       -13.9579
  47   2.0000      -0.506298       -13.7771
  48   2.0000      -0.503822       -13.7097
  49   2.0000      -0.496913       -13.5217
  50   2.0000      -0.488374       -13.2893
  51   2.0000      -0.481148       -13.0927
  52   2.0000      -0.473751       -12.8914
  53   2.0000      -0.464559       -12.6413
  54   2.0000      -0.457372       -12.4457
  55   2.0000      -0.455342       -12.3905
  56   2.0000      -0.450911       -12.2699
  57   2.0000      -0.442950       -12.0533
  58   2.0000      -0.436182       -11.8691
  59   2.0000      -0.425895       -11.5892
  60   2.0000      -0.421160       -11.4603
  61   2.0000      -0.414631       -11.2827
  62   2.0000      -0.400166       -10.8891
  63   2.0000      -0.345870        -9.4116
  64   2.0000      -0.330872        -9.0035
  65   2.0000      -0.330159        -8.9841
  66   2.0000      -0.288970        -7.8633
  67   0.0000       0.026030         0.7083
  68   0.0000       0.082612         2.2480
  69   0.0000       0.112355         3.0573
  70   0.0000       0.126721         3.4483
  71   0.0000       0.131824         3.5871

MULLIKEN ATOMIC CHARGES
-----------------------
   0 S :    0.109375
   1 C :   -0.142182
   2 C :   -0.045379
   3 C :    0.002895
   4 C :   -0.132392
   5 H :    0.008545
   6 C :    0.019263
   7 H :    0.047052
   8 H :    0.032660
   9 C :   -0.106199
  10 H :    0.041990
  11 H :    0.043811
  12 C :   -0.032036
  13 H :    0.037708
  14 H :    0.043119
  15 H :    0.019701
  16 S :    0.122363
  17 C :   -0.097200
  18 C :   -0.029482
  19 C :   -0.085789
  20 C :   -0.150818
  21 H :    0.031452
  22 C :    0.102262
  23 H :    0.029695
  24 H :   -0.016849
  25 C :   -0.014766
  26 H :   -0.000210
  27 H :    0.025281
  28 C :   -0.064485
  29 H :    0.029505
  30 H :    0.027005
  31 H :    0.045072
  32 H :    0.039632
  33 H :    0.059399
Sum of atomic charges:    0.0000000

LOEWDIN ATOMIC CHARGES
----------------------
   0 S :    0.384459
   1 C :   -0.186171
   2 C :   -0.064451
   3 C :   -0.061538
   4 C :   -0.187489
   5 H :    0.030983
   6 C :   -0.035309
   7 H :    0.042020
   8 H :    0.028659
   9 C :   -0.044804
  10 H :    0.029210
  11 H :    0.023486
  12 C :   -0.063505
  13 H :    0.026892
  14 H :    0.034254
  15 H :    0.020741
  16 S :    0.436968
  17 C :   -0.201598
  18 C :   -0.081011
  19 C :   -0.043431
  20 C :   -0.220058
  21 H :    0.040498
  22 C :   -0.031396
  23 H :    0.030173
  24 H :    0.020352
  25 C :   -0.033705
  26 H :    0.014669
  27 H :    0.024540
  28 C :   -0.069144
  29 H :    0.026332
  30 H :    0.027580
  31 H :    0.029747
  32 H :    0.019204
  33 H :    0.032842

  Mayer bond orders larger than 0.100000
B(  0-S ,  1-C ) :   1.1156 B(  0-S ,  4-C ) :   1.1348 B(  1-C ,  2-C ) :   1.6526
B(  1-C , 32-H ) :   0.9573 B(  2-C ,  3-C ) :   1.2262 B(  2-C ,  6-C ) :   1.0013
B(  3-C ,  4-C ) :   1.5899 B(  3-C ,  5-H ) :   0.9944 B(  4-C , 20-C ) :   1.0528
B(  6-C ,  7-H ) :   0.9465 B(  6-C ,  8-H ) :   0.9329 B(  6-C ,  9-C ) :   1.0755
B(  9-C , 10-H ) :   0.9507 B(  9-C , 11-H ) :   0.9516 B(  9-C , 12-C ) :   1.0848
B( 12-C , 13-H ) :   0.9731 B( 12-C , 14-H ) :   0.9754 B( 12-C , 15-H ) :   0.9718
B( 16-S , 17-C ) :   1.1771 B( 16-S , 20-C ) :   1.1543 B( 17-C , 18-C ) :   1.6057
B( 17-C , 33-H ) :   0.9555 B( 18-C , 19-C ) :   1.2801 B( 18-C , 21-H ) :   0.9841
B( 19-C , 20-C ) :   1.5386 B( 19-C , 22-C ) :   1.0314 B( 22-C , 23-H ) :   0.9331
B( 22-C , 24-H ) :   0.9243 B( 22-C , 25-C ) :   1.0620 B( 25-C , 26-H ) :   0.9482
B( 25-C , 27-H ) :   0.9497 B( 25-C , 28-C ) :   1.0831 B( 28-C , 29-H ) :   0.9738
B( 28-C , 30-H ) :   0.9715 B( 28-C , 31-H ) :   0.9746

Dispersion correction           -0.014008803
FINAL SINGLE POINT ENERGY     -1339.864889605232

DIPOLE MOMENT
-------------
                                X             Y             Z
Electronic contribution:    -18.21204      -2.27742      22.10362
Nuclear contribution   :     18.66699       2.42030     -22.39440
                        -----------------------------------------
Total Dipole Moment    :      0.45495       0.14288      -0.29078
                        -----------------------------------------
Magnitude (a.u.)       :      0.55852
Magnitude (Debye)      :      1.41965

Rotational constants in cm-1:     0.020203     0.007771     0.006239
Rotational constants in MHz :   605.669655   232.967310   187.052788

                             ****ORCA TERMINATED NORMALLY****
TOTAL RUN TIME: 0 days 0 hours 0 minutes 30 seconds 66 msec
