                         Program Version 4.2.1 -  RELEASE  -
|  1> ! wB97X-D3 SP def2-SVP
|  2> %pal
|  3> nprocs 16
|  4> end
|  5>
|  6> * xyz 0 1
|  7> S 	 -65.1834 	 51.0607 	 122.021
|  8> C 	 -64.7004 	 50.6959 	 123.668
|  9> C 	 -65.5526 	 49.6831 	 124.208
| 10> C 	 -66.4424 	 49.1431 	 123.22
| 11> C 	 -66.2335 	 49.7309 	 121.932
| 12> H 	 -67.0639 	 48.2607 	 123.291
| 13> C 	 -65.5215 	 49.1554 	 125.638
| 14> H 	 -66.3425 	 49.4962 	 126.269
| 15> H 	 -64.541 	 49.5654 	 126.025
| 16> C 	 -65.4796 	 47.5832 	 125.785
| 17> H 	 -65.5306 	 47.2615 	 126.872
| 18> H 	 -66.3605 	 47.1875 	 125.419
| 19> C 	 -64.2575 	 46.9182 	 125.112
| 20> H 	 -64.2328 	 45.8491 	 125.331
| 21> H 	 -64.1862 	 46.9701 	 123.974
| 22> H 	 -63.2989 	 47.2588 	 125.501
| 23> S 	 -66.3715 	 49.2141 	 119.257
| 24> C 	 -67.9265 	 49.044 	 118.453
| 25> C 	 -68.916 	 49.3996 	 119.322
| 26> C 	 -68.5339 	 49.5347 	 120.699
| 27> C 	 -67.1251 	 49.4901 	 120.816
| 28> H 	 -69.9632 	 49.3366 	 119.022
| 29> C 	 -69.5538 	 49.8344 	 121.742
| 30> H 	 -70.4405 	 50.1549 	 121.186
| 31> H 	 -69.2258 	 50.7101 	 122.326
| 32> C 	 -70.1128 	 48.7857 	 122.724
| 33> H 	 -69.3487 	 48.3315 	 123.263
| 34> H 	 -70.6661 	 48.0596 	 122.178
| 35> C 	 -71.1374 	 49.5438 	 123.549
| 36> H 	 -70.555 	 50.2305 	 124.195
| 37> H 	 -71.7549 	 48.8681 	 124.179
| 38> H 	 -71.8478 	 50.0368 	 122.88
| 39> H 	 -63.9373 	 51.3422 	 124.048
| 40> H 	 -68.1501 	 49.1075 	 117.383
| 41> *
| 42>
| 43>                          ****END OF INPUT****

CARTESIAN COORDINATES (ANGSTROEM)
---------------------------------
  S    -65.183400   51.060700  122.021000
  C    -64.700400   50.695900  123.668000
  C    -65.552600   49.683100  124.208000
  C    -66.442400   49.143100  123.220000
  C    -66.233500   49.730900  121.932000
  H    -67.063900   48.260700  123.291000
  C    -65.521500   49.155400  125.638000
  H    -66.342500   49.496200  126.269000
  H    -64.541000   49.565400  126.025000
  C    -65.479600   47.583200  125.785000
  H    -65.530600   47.261500  126.872000
  H    -66.360500   47.187500  125.419000
  C    -64.257500   46.918200  125.112000
  H    -64.232800   45.849100  125.331000
  H    -64.186200   46.970100  123.974000
  H    -63.298900   47.258800  125.501000
  S    -66.371500   49.214100  119.257000
  C    -67.926500   49.044000  118.453000
  C    -68.916000   49.399600  119.322000
  C    -68.533900   49.534700  120.699000
  C    -67.125100   49.490100  120.816000
  H    -69.963200   49.336600  119.022000
  C    -69.553800   49.834400  121.742000
  H    -70.440500   50.154900  121.186000
  H    -69.225800   50.710100  122.326000
  C    -70.112800   48.785700  122.724000
  H    -69.348700   48.331500  123.263000
  H    -70.666100   48.059600  122.178000
  C    -71.137400   49.543800  123.549000
  H    -70.555000   50.230500  124.195000
  H    -71.754900   48.868100  124.179000
  H    -71.847800   50.036800  122.880000
  H    -63.937300   51.342200  124.048000
  H    -68.150100   49.107500  117.383000

 Total Charge           Charge          ....    0
 Multiplicity           Mult            ....    1
 Number of Electrons    NEL             ....  134
 Basis Dimension        Dim             ....  322

ORBITAL ENERGIES
----------------

  NO   OCC          E(Eh)            E(eV)
   0   2.0000     -88.969156     -2420.9738
   1   2.0000     -88.964420     -2420.8449
   2   2.0000     -10.328517      -281.0532
   3   2.0000     -10.328166      -281.0437
   4   2.0000     -10.321396      -280.8595
   5   2.0000     -10.314593      -280.6744
   6   2.0000     -10.313976      -280.6575
   7   2.0000     -10.303905      -280.3835
   8   2.0000     -10.300572      -280.2928
   9   2.0000     -10.298295      -280.2309
  10   2.0000     -10.291516      -280.0464
  11   2.0000     -10.290962      -280.0313
  12   2.0000     -10.289033      -279.9788
  13   2.0000     -10.282072      -279.7894
  14   2.0000     -10.280062      -279.7347
  15   2.0000     -10.278779      -279.6998
  16   2.0000      -8.084685      -219.9955
  17   2.0000      -8.078975      -219.8401
  18   2.0000      -6.042909      -164.4359
  19   2.0000      -6.038897      -164.3267
  20   2.0000      -6.037540      -164.2898
  21   2.0000      -6.035883      -164.2447
  22   2.0000      -6.033427      -164.1779
  23   2.0000      -6.029763      -164.0782
  24   2.0000      -1.006412       -27.3859
  25   2.0000      -0.982108       -26.7245
  26   2.0000      -0.916420       -24.9371
  27   2.0000      -0.905507       -24.6401
  28   2.0000      -0.867728       -23.6121
  29   2.0000      -0.853605       -23.2278
  30   2.0000      -0.844339       -22.9756
  31   2.0000      -0.810745       -22.0615
  32   2.0000      -0.779031       -21.1985
  33   2.0000      -0.765522       -20.8309
  34   2.0000      -0.710753       -19.3406
  35   2.0000      -0.704629       -19.1739
  36   2.0000      -0.691422       -18.8145
  37   2.0000      -0.659221       -17.9383
  38   2.0000      -0.645428       -17.5630
  39   2.0000      -0.617035       -16.7904
  40   2.0000      -0.594307       -16.1719
  41   2.0000      -0.579826       -15.7779
  42   2.0000      -0.560685       -15.2570
  43   2.0000      -0.549623       -14.9560
  44   2.0000      -0.531269       -14.4566
  45   2.0000      -0.521802       -14.1989
  46   2.0000      -0.517467       -14.0810
  47   2.0000      -0.511215       -13.9109
  48   2.0000      -0.505717       -13.7613
  49   2.0000      -0.497919       -13.5491
  50   2.0000      -0.489033       -13.3073
  51   2.0000      -0.474187       -12.9033
  52   2.0000      -0.466932       -12.7059
  53   2.0000      -0.460472       -12.5301
  54   2.0000      -0.454706       -12.3732
  55   2.0000      -0.452101       -12.3023
  56   2.0000      -0.448247       -12.1974
  57   2.0000      -0.435886       -11.8611
  58   2.0000      -0.433665       -11.8006
  59   2.0000      -0.425003       -11.5649
  60   2.0000      -0.423394       -11.5211
  61   2.0000      -0.418921       -11.3994
  62   2.0000      -0.415373       -11.3029
  63   2.0000      -0.341524        -9.2934
  64   2.0000      -0.333689        -9.0801
  65   2.0000      -0.326405        -8.8819
  66   2.0000      -0.293662        -7.9909
  67   0.0000       0.024711         0.6724
  68   0.0000       0.066301         1.8041
  69   0.0000       0.107383         2.9220
  70   0.0000       0.113756         3.0955
  71   0.0000       0.131376         3.5749

MULLIKEN ATOMIC CHARGES
-----------------------
   0 S :    0.124237
   1 C :   -0.136963
   2 C :   -0.062888
   3 C :   -0.002594
   4 C :   -0.130014
   5 H :    0.029313
   6 C :    0.056481
   7 H :    0.049023
   8 H :    0.028332
   9 C :   -0.068937
  10 H :    0.035609
  11 H :    0.010544
  12 C :   -0.075154
  13 H :    0.027862
  14 H :    0.055177
  15 H :    0.025422
  16 S :    0.099636
  17 C :   -0.077264
  18 C :   -0.058582
  19 C :    0.003462
  20 C :   -0.188947
  21 H :    0.024363
  22 C :   -0.006966
  23 H :    0.007263
  24 H :    0.036208
  25 C :    0.011606
  26 H :    0.006222
  27 H :    0.013929
  28 C :   -0.059892
  29 H :    0.038128
  30 H :    0.033093
  31 H :    0.030720
  32 H :    0.053090
  33 H :    0.068481
Sum of atomic charges:    0.0000000

LOEWDIN ATOMIC CHARGES
----------------------
   0 S :    0.442699
   1 C :   -0.199236
   2 C :   -0.056501
   3 C :   -0.065649
   4 C :   -0.219271
   5 H :    0.029866
   6 C :   -0.033289
   7 H :    0.034331
   8 H :    0.034561
   9 C :   -0.039970
  10 H :    0.034395
  11 H :    0.008724
  12 C :   -0.075934
  13 H :    0.025838
  14 H :    0.036384
  15 H :    0.022432
  16 S :    0.403170
  17 C :   -0.196789
  18 C :   -0.071906
  19 C :   -0.056642
  20 C :   -0.199674
  21 H :    0.030800
  22 C :   -0.037911
  23 H :    0.030853
  24 H :    0.035428
  25 C :   -0.026201
  26 H :    0.009091
  27 H :    0.019696
  28 C :   -0.060063
  29 H :    0.028442
  30 H :    0.025576
  31 H :    0.025347
  32 H :    0.022555
  33 H :    0.038850

  Mayer bond orders larger than 0.100000
B(  0-S ,  1-C ) :   1.1644 B(  0-S ,  4-C ) :   1.2040 B(  1-C ,  2-C ) :   1.5287
B(  1-C ,  4-C ) :   0.1090 B(  1-C , 32-H ) :   0.9811 B(  2-C ,  3-C ) :   1.2761
B(  2-C ,  6-C ) :   1.0180 B(  3-C ,  4-C ) :   1.5029 B(  3-C ,  5-H ) :   0.9934
B(  4-C , 20-C ) :   1.0461 B(  6-C ,  7-H ) :   0.9414 B(  6-C ,  8-H ) :   0.9487
B(  6-C ,  9-C ) :   1.0673 B(  9-C , 10-H ) :   0.9560 B(  9-C , 11-H ) :   0.9534
B(  9-C , 12-C ) :   1.0732 B( 12-C , 13-H ) :   0.9738 B( 12-C , 14-H ) :   0.9735
B( 12-C , 15-H ) :   0.9767 B( 16-S , 17-C ) :   1.1428 B( 16-S , 20-C ) :   1.1490
B( 17-C , 18-C ) :   1.6321 B( 17-C , 33-H ) :   0.9560 B( 18-C , 19-C ) :   1.2700
B( 18-C , 21-H ) :   0.9729 B( 19-C , 20-C ) :   1.5508 B( 19-C , 22-C ) :   1.0431
B( 22-C , 23-H ) :   0.9322 B( 22-C , 24-H ) :   0.9337 B( 22-C , 25-C ) :   1.0663
B( 25-C , 26-H ) :   0.9519 B( 25-C , 27-H ) :   0.9478 B( 25-C , 28-C ) :   1.0815
B( 28-C , 29-H ) :   0.9765 B( 28-C , 30-H ) :   0.9726 B( 28-C , 31-H ) :   0.9727

Dispersion correction           -0.014457040
FINAL SINGLE POINT ENERGY     -1339.871205664482

DIPOLE MOMENT
-------------
                                X             Y             Z
Electronic contribution:     12.01744      10.40364     -22.13350
Nuclear contribution   :    -12.48223     -10.47722      22.58477
                        -----------------------------------------
Total Dipole Moment    :     -0.46479      -0.07358       0.45127
                        -----------------------------------------
Magnitude (a.u.)       :      0.65199
Magnitude (Debye)      :      1.65724

Rotational constants in cm-1:     0.016568     0.009609     0.007404
Rotational constants in MHz :   496.682126   288.085042   221.955389

                             ****ORCA TERMINATED NORMALLY****
TOTAL RUN TIME: 0 days 0 hours 0 minutes 35 seconds 73 msec
