                         Program Version 4.2.1 -  RELEASE  -
|  1> ! wB97X-D3 SP def2-SVP
|  2> %pal
|  3> nprocs 16
|  4> end
|  5>
|  6> * xyz 0 1
|  7> S 	 -1.33374 	 48.7843 	 44.1054
|  8> C 	 -1.14031 	 50.3884 	 44.7652
|  9> C 	 -2.24463 	 50.8186 	 45.4371
| 10> C 	 -3.18968 	 49.7388 	 45.5969
| 11> C 	 -2.75809 	 48.5565 	 45.0034
| 12> H 	 -4.13348 	 49.7532 	 46.1214
| 13> C 	 -2.5073 	 52.173 	 45.9589
| 14> H 	 -3.50357 	 52.4482 	 45.8488
| 15> H 	 -1.98553 	 52.8365 	 45.335
| 16> C 	 -2.08218 	 52.4433 	 47.4248
| 17> H 	 -1.02482 	 52.5256 	 47.3549
| 18> H 	 -2.54018 	 53.3181 	 47.7396
| 19> C 	 -2.40596 	 51.3931 	 48.4634
| 20> H 	 -3.47683 	 51.1494 	 48.6059
| 21> H 	 -1.87836 	 50.461 	 48.4553
| 22> H 	 -2.19864 	 51.7746 	 49.4787
| 23> S 	 -4.58475 	 46.9734 	 43.7535
| 24> C 	 -5.0294 	 45.3938 	 44.4072
| 25> C 	 -4.34663 	 45.1928 	 45.5906
| 26> C 	 -3.51382 	 46.2702 	 46.0572
| 27> C 	 -3.43832 	 47.2882 	 45.0622
| 28> H 	 -4.52619 	 44.3176 	 46.1946
| 29> C 	 -2.82058 	 46.3009 	 47.4078
| 30> H 	 -2.07062 	 47.0591 	 47.3322
| 31> H 	 -2.23238 	 45.3519 	 47.4614
| 32> C 	 -3.78819 	 46.3379 	 48.5881
| 33> H 	 -3.38652 	 45.7578 	 49.4863
| 34> H 	 -4.6807 	 45.8282 	 48.2829
| 35> C 	 -4.25527 	 47.7497 	 48.9558
| 36> H 	 -3.46086 	 48.4696 	 49.0902
| 37> H 	 -4.97703 	 47.8401 	 49.7931
| 38> H 	 -4.72735 	 48.1217 	 48.0337
| 39> H 	 -0.349694 	 51.1283 	 44.5967
| 40> H 	 -5.88585 	 44.8443 	 44.0974
| 41> *
| 42>
| 43>                          ****END OF INPUT****

CARTESIAN COORDINATES (ANGSTROEM)
---------------------------------
  S     -1.333740   48.784300   44.105400
  C     -1.140310   50.388400   44.765200
  C     -2.244630   50.818600   45.437100
  C     -3.189680   49.738800   45.596900
  C     -2.758090   48.556500   45.003400
  H     -4.133480   49.753200   46.121400
  C     -2.507300   52.173000   45.958900
  H     -3.503570   52.448200   45.848800
  H     -1.985530   52.836500   45.335000
  C     -2.082180   52.443300   47.424800
  H     -1.024820   52.525600   47.354900
  H     -2.540180   53.318100   47.739600
  C     -2.405960   51.393100   48.463400
  H     -3.476830   51.149400   48.605900
  H     -1.878360   50.461000   48.455300
  H     -2.198640   51.774600   49.478700
  S     -4.584750   46.973400   43.753500
  C     -5.029400   45.393800   44.407200
  C     -4.346630   45.192800   45.590600
  C     -3.513820   46.270200   46.057200
  C     -3.438320   47.288200   45.062200
  H     -4.526190   44.317600   46.194600
  C     -2.820580   46.300900   47.407800
  H     -2.070620   47.059100   47.332200
  H     -2.232380   45.351900   47.461400
  C     -3.788190   46.337900   48.588100
  H     -3.386520   45.757800   49.486300
  H     -4.680700   45.828200   48.282900
  C     -4.255270   47.749700   48.955800
  H     -3.460860   48.469600   49.090200
  H     -4.977030   47.840100   49.793100
  H     -4.727350   48.121700   48.033700
  H     -0.349694   51.128300   44.596700
  H     -5.885850   44.844300   44.097400

 Total Charge           Charge          ....    0
 Multiplicity           Mult            ....    1
 Number of Electrons    NEL             ....  134
 Basis Dimension        Dim             ....  322

ORBITAL ENERGIES
----------------

  NO   OCC          E(Eh)            E(eV)
   0   2.0000     -88.967520     -2420.9293
   1   2.0000     -88.962424     -2420.7906
   2   2.0000     -10.327820      -281.0343
   3   2.0000     -10.321899      -280.8732
   4   2.0000     -10.316993      -280.7397
   5   2.0000     -10.310600      -280.5657
   6   2.0000     -10.308552      -280.5100
   7   2.0000     -10.295638      -280.1586
   8   2.0000     -10.294185      -280.1190
   9   2.0000     -10.292812      -280.0817
  10   2.0000     -10.292034      -280.0605
  11   2.0000     -10.291091      -280.0348
  12   2.0000     -10.281037      -279.7612
  13   2.0000     -10.279627      -279.7229
  14   2.0000     -10.277025      -279.6521
  15   2.0000     -10.275745      -279.6172
  16   2.0000      -8.083061      -219.9513
  17   2.0000      -8.076722      -219.7788
  18   2.0000      -6.041528      -164.3983
  19   2.0000      -6.037498      -164.2887
  20   2.0000      -6.035212      -164.2265
  21   2.0000      -6.033762      -164.1870
  22   2.0000      -6.031199      -164.1173
  23   2.0000      -6.027615      -164.0198
  24   2.0000      -1.008801       -27.4509
  25   2.0000      -0.981288       -26.7022
  26   2.0000      -0.919740       -25.0274
  27   2.0000      -0.909775       -24.7562
  28   2.0000      -0.871091       -23.7036
  29   2.0000      -0.848633       -23.0925
  30   2.0000      -0.843819       -22.9615
  31   2.0000      -0.813687       -22.1415
  32   2.0000      -0.789970       -21.4962
  33   2.0000      -0.774113       -21.0647
  34   2.0000      -0.709336       -19.3020
  35   2.0000      -0.705551       -19.1990
  36   2.0000      -0.698493       -19.0070
  37   2.0000      -0.654150       -17.8003
  38   2.0000      -0.640826       -17.4378
  39   2.0000      -0.613342       -16.6899
  40   2.0000      -0.598335       -16.2815
  41   2.0000      -0.584800       -15.9132
  42   2.0000      -0.557259       -15.1638
  43   2.0000      -0.551467       -15.0062
  44   2.0000      -0.540837       -14.7169
  45   2.0000      -0.529589       -14.4109
  46   2.0000      -0.526324       -14.3220
  47   2.0000      -0.509374       -13.8608
  48   2.0000      -0.503003       -13.6874
  49   2.0000      -0.499184       -13.5835
  50   2.0000      -0.485466       -13.2102
  51   2.0000      -0.477846       -13.0029
  52   2.0000      -0.472284       -12.8515
  53   2.0000      -0.469178       -12.7670
  54   2.0000      -0.457649       -12.4533
  55   2.0000      -0.448986       -12.2175
  56   2.0000      -0.443142       -12.0585
  57   2.0000      -0.437773       -11.9124
  58   2.0000      -0.432498       -11.7689
  59   2.0000      -0.430012       -11.7012
  60   2.0000      -0.426947       -11.6178
  61   2.0000      -0.416312       -11.3284
  62   2.0000      -0.409494       -11.1429
  63   2.0000      -0.333736        -9.0814
  64   2.0000      -0.327822        -8.9205
  65   2.0000      -0.319055        -8.6819
  66   2.0000      -0.307977        -8.3805
  67   0.0000       0.046217         1.2576
  68   0.0000       0.050761         1.3813
  69   0.0000       0.108774         2.9599
  70   0.0000       0.119699         3.2572
  71   0.0000       0.126295         3.4367

MULLIKEN ATOMIC CHARGES
-----------------------
   0 S :    0.140114
   1 C :   -0.114827
   2 C :   -0.115421
   3 C :    0.052156
   4 C :   -0.192956
   5 H :    0.009271
   6 C :    0.132214
   7 H :    0.005231
   8 H :   -0.000491
   9 C :    0.001436
  10 H :    0.017653
  11 H :    0.015539
  12 C :   -0.084370
  13 H :    0.026100
  14 H :    0.043514
  15 H :    0.021254
  16 S :    0.098396
  17 C :   -0.080027
  18 C :   -0.033852
  19 C :   -0.049302
  20 C :   -0.192196
  21 H :    0.016025
  22 C :    0.089826
  23 H :    0.025187
  24 H :    0.034616
  25 C :   -0.064986
  26 H :    0.040593
  27 H :    0.024990
  28 C :   -0.047588
  29 H :    0.020069
  30 H :    0.043895
  31 H :    0.020150
  32 H :    0.040071
  33 H :    0.057718
Sum of atomic charges:   -0.0000000

LOEWDIN ATOMIC CHARGES
----------------------
   0 S :    0.435551
   1 C :   -0.204764
   2 C :   -0.062087
   3 C :   -0.051251
   4 C :   -0.227026
   5 H :    0.028668
   6 C :   -0.024024
   7 H :    0.023529
   8 H :    0.025316
   9 C :   -0.022045
  10 H :    0.022808
  11 H :    0.018906
  12 C :   -0.075081
  13 H :    0.025137
  14 H :    0.021895
  15 H :    0.030633
  16 S :    0.394626
  17 C :   -0.180636
  18 C :   -0.071564
  19 C :   -0.050291
  20 C :   -0.201233
  21 H :    0.027324
  22 C :   -0.030125
  23 H :    0.028067
  24 H :    0.041446
  25 C :   -0.041456
  26 H :    0.029354
  27 H :    0.023143
  28 C :   -0.069481
  29 H :    0.019620
  30 H :    0.029374
  31 H :    0.026614
  32 H :    0.031704
  33 H :    0.027352

  Mayer bond orders larger than 0.100000
B(  0-S ,  1-C ) :   1.1334 B(  0-S ,  4-C ) :   1.1650 B(  1-C ,  2-C ) :   1.6356
B(  1-C , 32-H ) :   0.9587 B(  2-C ,  3-C ) :   1.2149 B(  2-C ,  6-C ) :   1.0358
B(  3-C ,  4-C ) :   1.5810 B(  3-C ,  5-H ) :   0.9988 B(  4-C , 20-C ) :   1.0136
B(  6-C ,  7-H ) :   0.9309 B(  6-C ,  8-H ) :   0.9294 B(  6-C ,  9-C ) :   1.0744
B(  9-C , 10-H ) :   0.9518 B(  9-C , 11-H ) :   0.9529 B(  9-C , 12-C ) :   1.0985
B( 12-C , 13-H ) :   0.9712 B( 12-C , 14-H ) :   0.9685 B( 12-C , 15-H ) :   0.9669
B( 16-S , 17-C ) :   1.1468 B( 16-S , 20-C ) :   1.1629 B( 17-C , 18-C ) :   1.6010
B( 17-C , 20-C ) :   0.1072 B( 17-C , 33-H ) :   0.9716 B( 18-C , 19-C ) :   1.2530
B( 18-C , 21-H ) :   0.9811 B( 19-C , 20-C ) :   1.5706 B( 19-C , 22-C ) :   1.0480
B( 22-C , 23-H ) :   0.9377 B( 22-C , 24-H ) :   0.9304 B( 22-C , 25-C ) :   1.0487
B( 25-C , 26-H ) :   0.9558 B( 25-C , 27-H ) :   0.9596 B( 25-C , 28-C ) :   1.0691
B( 28-C , 29-H ) :   0.9758 B( 28-C , 30-H ) :   0.9720 B( 28-C , 31-H ) :   0.9715

Dispersion correction           -0.016322838
FINAL SINGLE POINT ENERGY     -1339.875569299645

DIPOLE MOMENT
-------------
                                X             Y             Z
Electronic contribution:      1.42642     -10.27299     -26.63417
Nuclear contribution   :     -1.59566      10.56038      27.26243
                        -----------------------------------------
Total Dipole Moment    :     -0.16923       0.28739       0.62826
                        -----------------------------------------
Magnitude (a.u.)       :      0.71129
Magnitude (Debye)      :      1.80796

Rotational constants in cm-1:     0.018838     0.010200     0.007654
Rotational constants in MHz :   564.756434   305.774215   229.448668

                             ****ORCA TERMINATED NORMALLY****
TOTAL RUN TIME: 0 days 0 hours 0 minutes 36 seconds 450 msec
