                         Program Version 4.2.1 -  RELEASE  -
|  1> ! wB97X-D3 SP def2-SVP
|  2> %pal
|  3> nprocs 16
|  4> end
|  5>
|  6> * xyz 0 1
|  7> S 	 9.90039 	 25.1943 	 65.0347
|  8> C 	 11.2105 	 24.0955 	 65.5044
|  9> C 	 10.6703 	 22.8601 	 65.9118
| 10> C 	 9.21185 	 22.7635 	 65.6901
| 11> C 	 8.65222 	 23.9032 	 65.1555
| 12> H 	 8.53027 	 21.9861 	 65.9435
| 13> C 	 11.5636 	 21.7697 	 66.4094
| 14> H 	 10.8939 	 21.1773 	 66.9883
| 15> H 	 12.3749 	 22.0649 	 67.0376
| 16> C 	 11.9778 	 20.766 	 65.2893
| 17> H 	 12.2327 	 19.8272 	 65.6976
| 18> H 	 11.2116 	 20.5219 	 64.543
| 19> C 	 13.0763 	 21.3747 	 64.4491
| 20> H 	 12.7599 	 22.0908 	 63.7424
| 21> H 	 13.8548 	 21.731 	 65.0521
| 22> H 	 13.6202 	 20.5699 	 63.7736
| 23> S 	 6.40043 	 25.1547 	 66.1149
| 24> C 	 5.10817 	 25.3773 	 64.9416
| 25> C 	 5.13188 	 24.4538 	 63.933
| 26> C 	 6.43005 	 23.8359 	 63.8675
| 27> C 	 7.26027 	 24.2157 	 64.8907
| 28> H 	 4.24534 	 24.3419 	 63.3181
| 29> C 	 6.84697 	 22.881 	 62.7125
| 30> H 	 7.84497 	 23.0641 	 62.4524
| 31> H 	 6.22639 	 23.0888 	 61.8412
| 32> C 	 6.77522 	 21.3511 	 63.0284
| 33> H 	 5.68926 	 21.1644 	 63.0121
| 34> H 	 7.2166 	 20.9698 	 63.9573
| 35> C 	 7.49801 	 20.5835 	 61.9663
| 36> H 	 8.56664 	 20.7435 	 62.0073
| 37> H 	 7.20787 	 20.7983 	 60.9205
| 38> H 	 7.32172 	 19.5995 	 62.1554
| 39> H 	 12.2759 	 24.4921 	 65.4454
| 40> H 	 4.16844 	 25.8893 	 65.2439
| 41> *
| 42>
| 43>                          ****END OF INPUT****

CARTESIAN COORDINATES (ANGSTROEM)
---------------------------------
  S      9.900390   25.194300   65.034700
  C     11.210500   24.095500   65.504400
  C     10.670300   22.860100   65.911800
  C      9.211850   22.763500   65.690100
  C      8.652220   23.903200   65.155500
  H      8.530270   21.986100   65.943500
  C     11.563600   21.769700   66.409400
  H     10.893900   21.177300   66.988300
  H     12.374900   22.064900   67.037600
  C     11.977800   20.766000   65.289300
  H     12.232700   19.827200   65.697600
  H     11.211600   20.521900   64.543000
  C     13.076300   21.374700   64.449100
  H     12.759900   22.090800   63.742400
  H     13.854800   21.731000   65.052100
  H     13.620200   20.569900   63.773600
  S      6.400430   25.154700   66.114900
  C      5.108170   25.377300   64.941600
  C      5.131880   24.453800   63.933000
  C      6.430050   23.835900   63.867500
  C      7.260270   24.215700   64.890700
  H      4.245340   24.341900   63.318100
  C      6.846970   22.881000   62.712500
  H      7.844970   23.064100   62.452400
  H      6.226390   23.088800   61.841200
  C      6.775220   21.351100   63.028400
  H      5.689260   21.164400   63.012100
  H      7.216600   20.969800   63.957300
  C      7.498010   20.583500   61.966300
  H      8.566640   20.743500   62.007300
  H      7.207870   20.798300   60.920500
  H      7.321720   19.599500   62.155400
  H     12.275900   24.492100   65.445400
  H      4.168440   25.889300   65.243900

 Total Charge           Charge          ....    0
 Multiplicity           Mult            ....    1
 Number of Electrons    NEL             ....  134
 Basis Dimension        Dim             ....  322

ORBITAL ENERGIES
----------------

  NO   OCC          E(Eh)            E(eV)
   0   2.0000     -88.962443     -2420.7912
   1   2.0000     -88.958391     -2420.6809
   2   2.0000     -10.330968      -281.1199
   3   2.0000     -10.324370      -280.9404
   4   2.0000     -10.322614      -280.8926
   5   2.0000     -10.317417      -280.7512
   6   2.0000     -10.311101      -280.5793
   7   2.0000     -10.306382      -280.4509
   8   2.0000     -10.301572      -280.3200
   9   2.0000     -10.295849      -280.1643
  10   2.0000     -10.288776      -279.9718
  11   2.0000     -10.288367      -279.9607
  12   2.0000     -10.286443      -279.9083
  13   2.0000     -10.283555      -279.8298
  14   2.0000     -10.273226      -279.5487
  15   2.0000     -10.267609      -279.3958
  16   2.0000      -8.077297      -219.7944
  17   2.0000      -8.072446      -219.6624
  18   2.0000      -6.035722      -164.2403
  19   2.0000      -6.032191      -164.1443
  20   2.0000      -6.031080      -164.1140
  21   2.0000      -6.027720      -164.0226
  22   2.0000      -6.026971      -164.0022
  23   2.0000      -6.023175      -163.8989
  24   2.0000      -1.001731       -27.2585
  25   2.0000      -0.975537       -26.5457
  26   2.0000      -0.913389       -24.8546
  27   2.0000      -0.908781       -24.7292
  28   2.0000      -0.867770       -23.6132
  29   2.0000      -0.851854       -23.1801
  30   2.0000      -0.842091       -22.9145
  31   2.0000      -0.816372       -22.2146
  32   2.0000      -0.782779       -21.3005
  33   2.0000      -0.769085       -20.9279
  34   2.0000      -0.707511       -19.2524
  35   2.0000      -0.696801       -18.9609
  36   2.0000      -0.688113       -18.7245
  37   2.0000      -0.658059       -17.9067
  38   2.0000      -0.647779       -17.6270
  39   2.0000      -0.615544       -16.7498
  40   2.0000      -0.594707       -16.1828
  41   2.0000      -0.573111       -15.5952
  42   2.0000      -0.567065       -15.4306
  43   2.0000      -0.546943       -14.8831
  44   2.0000      -0.542872       -14.7723
  45   2.0000      -0.527860       -14.3638
  46   2.0000      -0.523743       -14.2518
  47   2.0000      -0.510329       -13.8868
  48   2.0000      -0.502660       -13.6781
  49   2.0000      -0.495365       -13.4796
  50   2.0000      -0.490174       -13.3383
  51   2.0000      -0.476444       -12.9647
  52   2.0000      -0.475482       -12.9385
  53   2.0000      -0.464737       -12.6461
  54   2.0000      -0.454555       -12.3691
  55   2.0000      -0.448101       -12.1934
  56   2.0000      -0.442922       -12.0525
  57   2.0000      -0.437586       -11.9073
  58   2.0000      -0.433633       -11.7998
  59   2.0000      -0.427925       -11.6444
  60   2.0000      -0.415316       -11.3013
  61   2.0000      -0.411398       -11.1947
  62   2.0000      -0.409795       -11.1511
  63   2.0000      -0.335561        -9.1311
  64   2.0000      -0.327986        -8.9249
  65   2.0000      -0.319733        -8.7004
  66   2.0000      -0.304742        -8.2925
  67   0.0000       0.036235         0.9860
  68   0.0000       0.053582         1.4580
  69   0.0000       0.104428         2.8416
  70   0.0000       0.114067         3.1039
  71   0.0000       0.124409         3.3854

MULLIKEN ATOMIC CHARGES
-----------------------
   0 S :    0.088967
   1 C :   -0.151879
   2 C :   -0.095625
   3 C :    0.067871
   4 C :   -0.176176
   5 H :    0.009311
   6 C :    0.091074
   7 H :    0.007170
   8 H :    0.034615
   9 C :   -0.043491
  10 H :    0.019215
  11 H :    0.026985
  12 C :   -0.065827
  13 H :    0.038738
  14 H :    0.011786
  15 H :    0.030518
  16 S :    0.109056
  17 C :   -0.101175
  18 C :   -0.044735
  19 C :    0.000841
  20 C :   -0.188698
  21 H :    0.026308
  22 C :    0.094659
  23 H :    0.011610
  24 H :    0.021087
  25 C :   -0.083672
  26 H :    0.027237
  27 H :    0.029499
  28 C :   -0.014106
  29 H :    0.030216
  30 H :    0.024293
  31 H :    0.010690
  32 H :    0.087808
  33 H :    0.065830
Sum of atomic charges:    0.0000000

LOEWDIN ATOMIC CHARGES
----------------------
   0 S :    0.368427
   1 C :   -0.197340
   2 C :   -0.060030
   3 C :   -0.054895
   4 C :   -0.180297
   5 H :    0.028969
   6 C :   -0.027665
   7 H :    0.028648
   8 H :    0.030075
   9 C :   -0.033881
  10 H :    0.016400
  11 H :    0.029472
  12 C :   -0.066829
  13 H :    0.019641
  14 H :    0.010757
  15 H :    0.034984
  16 S :    0.389614
  17 C :   -0.179360
  18 C :   -0.071851
  19 C :   -0.044713
  20 C :   -0.202709
  21 H :    0.035959
  22 C :   -0.020845
  23 H :    0.021398
  24 H :    0.030354
  25 C :   -0.035943
  26 H :    0.023724
  27 H :    0.025257
  28 C :   -0.058808
  29 H :    0.025532
  30 H :    0.025444
  31 H :    0.013792
  32 H :    0.045314
  33 H :    0.031407

  Mayer bond orders larger than 0.100000
B(  0-S ,  1-C ) :   1.1363 B(  0-S ,  4-C ) :   1.1303 B(  1-C ,  2-C ) :   1.6052
B(  1-C , 32-H ) :   0.9639 B(  2-C ,  3-C ) :   1.1941 B(  2-C ,  6-C ) :   1.0387
B(  3-C ,  4-C ) :   1.6285 B(  3-C ,  5-H ) :   0.9900 B(  4-C , 20-C ) :   1.0287
B(  6-C ,  7-H ) :   0.9253 B(  6-C ,  8-H ) :   0.9514 B(  6-C ,  9-C ) :   1.0635
B(  9-C , 10-H ) :   0.9581 B(  9-C , 11-H ) :   0.9558 B(  9-C , 12-C ) :   1.0782
B( 12-C , 13-H ) :   0.9758 B( 12-C , 14-H ) :   0.9765 B( 12-C , 15-H ) :   0.9707
B( 16-S , 17-C ) :   1.1461 B( 16-S , 20-C ) :   1.1337 B( 17-C , 18-C ) :   1.6455
B( 17-C , 33-H ) :   0.9575 B( 18-C , 19-C ) :   1.2031 B( 18-C , 21-H ) :   0.9928
B( 19-C , 20-C ) :   1.6365 B( 19-C , 22-C ) :   1.0371 B( 22-C , 23-H ) :   0.9339
B( 22-C , 24-H ) :   0.9383 B( 22-C , 25-C ) :   1.0608 B( 25-C , 26-H ) :   0.9551
B( 25-C , 27-H ) :   0.9563 B( 25-C , 28-C ) :   1.0906 B( 28-C , 29-H ) :   0.9720
B( 28-C , 30-H ) :   0.9706 B( 28-C , 31-H ) :   0.9699

Dispersion correction           -0.014784387
FINAL SINGLE POINT ENERGY     -1339.854394427643

DIPOLE MOMENT
-------------
                                X             Y             Z
Electronic contribution:    -11.13419      24.67710      11.99990
Nuclear contribution   :     11.10457     -25.37179     -12.14763
                        -----------------------------------------
Total Dipole Moment    :     -0.02961      -0.69469      -0.14774
                        -----------------------------------------
Magnitude (a.u.)       :      0.71085
Magnitude (Debye)      :      1.80683

Rotational constants in cm-1:     0.019039     0.009239     0.006971
Rotational constants in MHz :   570.772044   276.970381   208.971487

                             ****ORCA TERMINATED NORMALLY****
TOTAL RUN TIME: 0 days 0 hours 0 minutes 37 seconds 534 msec
