                         Program Version 4.2.1 -  RELEASE  -
|  1> ! wB97X-D3 SP def2-SVP
|  2> %pal
|  3> nprocs 16
|  4> end
|  5>
|  6> * xyz 0 1
|  7> S 	 -46.2916 	 38.4964 	 82.4162
|  8> C 	 -47.4711 	 38.3352 	 83.7796
|  9> C 	 -46.8725 	 38.6436 	 84.9721
| 10> C 	 -45.4855 	 38.9485 	 84.736
| 11> C 	 -44.989 	 38.93 	 83.458
| 12> H 	 -44.7499 	 39.2288 	 85.4603
| 13> C 	 -47.5626 	 38.8036 	 86.2748
| 14> H 	 -48.6433 	 38.4909 	 86.1998
| 15> H 	 -47.4346 	 39.8426 	 86.4169
| 16> C 	 -46.9556 	 38.0673 	 87.5865
| 17> H 	 -47.1787 	 37.0224 	 87.3458
| 18> H 	 -45.8886 	 38.1276 	 87.6432
| 19> C 	 -47.7138 	 38.4775 	 88.8589
| 20> H 	 -47.4043 	 38.0327 	 89.8049
| 21> H 	 -47.7087 	 39.5481 	 88.9024
| 22> H 	 -48.8197 	 38.3073 	 88.7126
| 23> S 	 -43.1407 	 41.0212 	 83.1802
| 24> C 	 -41.6212 	 40.67 	 82.4341
| 25> C 	 -41.5858 	 39.3963 	 81.826
| 26> C 	 -42.762 	 38.6691 	 82.1382
| 27> C 	 -43.6876 	 39.3752 	 82.9229
| 28> H 	 -40.7327 	 39.1567 	 81.1523
| 29> C 	 -42.9554 	 37.1982 	 81.5855
| 30> H 	 -43.4662 	 36.6632 	 82.3133
| 31> H 	 -42.0649 	 36.6579 	 81.409
| 32> C 	 -43.7549 	 37.0239 	 80.258
| 33> H 	 -44.7902 	 37.4942 	 80.3317
| 34> H 	 -43.9906 	 35.9571 	 80.1791
| 35> C 	 -43.0903 	 37.6443 	 79.0688
| 36> H 	 -43.481 	 37.2868 	 78.1774
| 37> H 	 -42.0647 	 37.4004 	 79.0663
| 38> H 	 -43.1869 	 38.7689 	 78.9659
| 39> H 	 -48.5203 	 38.0891 	 83.7648
| 40> H 	 -40.8797 	 41.4456 	 82.3827
| 41> *
| 42>
| 43>                          ****END OF INPUT****

CARTESIAN COORDINATES (ANGSTROEM)
---------------------------------
  S    -46.291600   38.496400   82.416200
  C    -47.471100   38.335200   83.779600
  C    -46.872500   38.643600   84.972100
  C    -45.485500   38.948500   84.736000
  C    -44.989000   38.930000   83.458000
  H    -44.749900   39.228800   85.460300
  C    -47.562600   38.803600   86.274800
  H    -48.643300   38.490900   86.199800
  H    -47.434600   39.842600   86.416900
  C    -46.955600   38.067300   87.586500
  H    -47.178700   37.022400   87.345800
  H    -45.888600   38.127600   87.643200
  C    -47.713800   38.477500   88.858900
  H    -47.404300   38.032700   89.804900
  H    -47.708700   39.548100   88.902400
  H    -48.819700   38.307300   88.712600
  S    -43.140700   41.021200   83.180200
  C    -41.621200   40.670000   82.434100
  C    -41.585800   39.396300   81.826000
  C    -42.762000   38.669100   82.138200
  C    -43.687600   39.375200   82.922900
  H    -40.732700   39.156700   81.152300
  C    -42.955400   37.198200   81.585500
  H    -43.466200   36.663200   82.313300
  H    -42.064900   36.657900   81.409000
  C    -43.754900   37.023900   80.258000
  H    -44.790200   37.494200   80.331700
  H    -43.990600   35.957100   80.179100
  C    -43.090300   37.644300   79.068800
  H    -43.481000   37.286800   78.177400
  H    -42.064700   37.400400   79.066300
  H    -43.186900   38.768900   78.965900
  H    -48.520300   38.089100   83.764800
  H    -40.879700   41.445600   82.382700

 Total Charge           Charge          ....    0
 Multiplicity           Mult            ....    1
 Number of Electrons    NEL             ....  134
 Basis Dimension        Dim             ....  322

ORBITAL ENERGIES
----------------

  NO   OCC          E(Eh)            E(eV)
   0   2.0000     -88.970770     -2421.0177
   1   2.0000     -88.962195     -2420.7844
   2   2.0000     -10.331093      -281.1233
   3   2.0000     -10.327958      -281.0380
   4   2.0000     -10.320138      -280.8252
   5   2.0000     -10.314742      -280.6784
   6   2.0000     -10.310772      -280.5704
   7   2.0000     -10.301757      -280.3251
   8   2.0000     -10.301194      -280.3097
   9   2.0000     -10.299419      -280.2614
  10   2.0000     -10.293017      -280.0872
  11   2.0000     -10.289532      -279.9924
  12   2.0000     -10.284640      -279.8593
  13   2.0000     -10.283986      -279.8415
  14   2.0000     -10.283751      -279.8351
  15   2.0000     -10.265217      -279.3308
  16   2.0000      -8.085565      -220.0194
  17   2.0000      -8.076143      -219.7630
  18   2.0000      -6.043907      -164.4631
  19   2.0000      -6.040004      -164.3569
  20   2.0000      -6.036574      -164.2635
  21   2.0000      -6.034900      -164.2180
  22   2.0000      -6.030668      -164.1028
  23   2.0000      -6.026741      -163.9959
  24   2.0000      -1.005021       -27.3480
  25   2.0000      -0.983768       -26.7697
  26   2.0000      -0.909541       -24.7499
  27   2.0000      -0.903209       -24.5776
  28   2.0000      -0.868526       -23.6338
  29   2.0000      -0.849626       -23.1195
  30   2.0000      -0.841172       -22.8895
  31   2.0000      -0.812837       -22.1184
  32   2.0000      -0.787366       -21.4253
  33   2.0000      -0.774806       -21.0836
  34   2.0000      -0.710797       -19.3418
  35   2.0000      -0.698691       -19.0123
  36   2.0000      -0.687398       -18.7051
  37   2.0000      -0.664477       -18.0813
  38   2.0000      -0.636223       -17.3125
  39   2.0000      -0.615092       -16.7375
  40   2.0000      -0.595771       -16.2118
  41   2.0000      -0.568453       -15.4684
  42   2.0000      -0.564236       -15.3536
  43   2.0000      -0.554863       -15.0986
  44   2.0000      -0.538385       -14.6502
  45   2.0000      -0.526856       -14.3365
  46   2.0000      -0.517940       -14.0939
  47   2.0000      -0.508739       -13.8435
  48   2.0000      -0.499461       -13.5910
  49   2.0000      -0.498888       -13.5754
  50   2.0000      -0.485383       -13.2079
  51   2.0000      -0.479472       -13.0471
  52   2.0000      -0.476178       -12.9575
  53   2.0000      -0.468889       -12.7591
  54   2.0000      -0.457841       -12.4585
  55   2.0000      -0.453423       -12.3383
  56   2.0000      -0.441809       -12.0222
  57   2.0000      -0.435851       -11.8601
  58   2.0000      -0.431580       -11.7439
  59   2.0000      -0.425987       -11.5917
  60   2.0000      -0.420583       -11.4446
  61   2.0000      -0.415690       -11.3115
  62   2.0000      -0.400592       -10.9007
  63   2.0000      -0.336775        -9.1641
  64   2.0000      -0.335408        -9.1269
  65   2.0000      -0.324279        -8.8241
  66   2.0000      -0.300488        -8.1767
  67   0.0000       0.032580         0.8865
  68   0.0000       0.066575         1.8116
  69   0.0000       0.112446         3.0598
  70   0.0000       0.116555         3.1716
  71   0.0000       0.121303         3.3008

MULLIKEN ATOMIC CHARGES
-----------------------
   0 S :    0.091325
   1 C :   -0.115929
   2 C :   -0.055517
   3 C :    0.012693
   4 C :   -0.150659
   5 H :   -0.007400
   6 C :    0.027338
   7 H :    0.034986
   8 H :    0.039726
   9 C :   -0.079726
  10 H :    0.032873
  11 H :    0.035855
  12 C :   -0.037273
  13 H :    0.049996
  14 H :    0.018775
  15 H :    0.026224
  16 S :    0.132973
  17 C :   -0.113270
  18 C :   -0.042385
  19 C :   -0.021842
  20 C :   -0.160786
  21 H :    0.042991
  22 C :    0.106854
  23 H :    0.011448
  24 H :    0.012405
  25 C :   -0.105323
  26 H :    0.034537
  27 H :    0.032217
  28 C :   -0.006527
  29 H :    0.010945
  30 H :    0.004309
  31 H :    0.045798
  32 H :    0.036706
  33 H :    0.055665
Sum of atomic charges:    0.0000000

LOEWDIN ATOMIC CHARGES
----------------------
   0 S :    0.401897
   1 C :   -0.181234
   2 C :   -0.064296
   3 C :   -0.068793
   4 C :   -0.200876
   5 H :    0.022794
   6 C :   -0.028303
   7 H :    0.037090
   8 H :    0.030959
   9 C :   -0.035639
  10 H :    0.025104
  11 H :    0.019232
  12 C :   -0.069463
  13 H :    0.029338
  14 H :    0.021003
  15 H :    0.032084
  16 S :    0.428563
  17 C :   -0.186884
  18 C :   -0.076461
  19 C :   -0.045198
  20 C :   -0.211538
  21 H :    0.043094
  22 C :   -0.020760
  23 H :    0.021741
  24 H :    0.023708
  25 C :   -0.045346
  26 H :    0.018388
  27 H :    0.026398
  28 C :   -0.065438
  29 H :    0.017704
  30 H :    0.013625
  31 H :    0.037302
  32 H :    0.028082
  33 H :    0.022122

  Mayer bond orders larger than 0.100000
B(  0-S ,  1-C ) :   1.1196 B(  0-S ,  4-C ) :   1.1397 B(  1-C ,  2-C ) :   1.6329
B(  1-C , 32-H ) :   0.9656 B(  2-C ,  3-C ) :   1.1999 B(  2-C ,  6-C ) :   1.0263
B(  3-C ,  4-C ) :   1.6222 B(  3-C ,  5-H ) :   1.0007 B(  4-C , 20-C ) :   1.0181
B(  6-C ,  7-H ) :   0.9448 B(  6-C ,  8-H ) :   0.9351 B(  6-C ,  9-C ) :   1.0425
B(  9-C , 10-H ) :   0.9594 B(  9-C , 11-H ) :   0.9628 B(  9-C , 12-C ) :   1.0733
B( 12-C , 13-H ) :   0.9748 B( 12-C , 14-H ) :   0.9759 B( 12-C , 15-H ) :   0.9710
B( 16-S , 17-C ) :   1.1906 B( 16-S , 20-C ) :   1.1520 B( 17-C , 18-C ) :   1.5572
B( 17-C , 20-C ) :   0.1081 B( 17-C , 33-H ) :   0.9700 B( 18-C , 19-C ) :   1.2727
B( 18-C , 21-H ) :   0.9889 B( 19-C , 20-C ) :   1.5652 B( 19-C , 22-C ) :   1.0306
B( 22-C , 23-H ) :   0.9254 B( 22-C , 24-H ) :   0.9440 B( 22-C , 25-C ) :   1.0811
B( 25-C , 26-H ) :   0.9462 B( 25-C , 27-H ) :   0.9547 B( 25-C , 28-C ) :   1.0773
B( 28-C , 29-H ) :   0.9678 B( 28-C , 30-H ) :   0.9729 B( 28-C , 31-H ) :   0.9711

Dispersion correction           -0.014372579
FINAL SINGLE POINT ENERGY     -1339.866558664482

DIPOLE MOMENT
-------------
                                X             Y             Z
Electronic contribution:      4.97720      11.12589      -6.67471
Nuclear contribution   :     -4.93367     -11.22165       6.88979
                        -----------------------------------------
Total Dipole Moment    :      0.04353      -0.09576       0.21508
                        -----------------------------------------
Magnitude (a.u.)       :      0.23943
Magnitude (Debye)      :      0.60858

Rotational constants in cm-1:     0.023243     0.007310     0.006194
Rotational constants in MHz :   696.802255   219.141704   185.702629

                             ****ORCA TERMINATED NORMALLY****
TOTAL RUN TIME: 0 days 0 hours 0 minutes 28 seconds 834 msec
