                         Program Version 4.2.1 -  RELEASE  -
|  1> ! wB97X-D3 SP def2-SVP
|  2> %pal
|  3> nprocs 16
|  4> end
|  5>
|  6> * xyz 0 1
|  7> S 	 44.1309 	 11.1528 	 48.6086
|  8> C 	 42.7306 	 11.8636 	 47.8758
|  9> C 	 42.5353 	 13.1678 	 48.1728
| 10> C 	 43.4136 	 13.5865 	 49.2449
| 11> C 	 44.3098 	 12.618 	 49.587
| 12> H 	 43.3749 	 14.4873 	 49.8053
| 13> C 	 41.3533 	 13.9909 	 47.6594
| 14> H 	 40.5265 	 13.2245 	 47.3824
| 15> H 	 41.6275 	 14.4736 	 46.7507
| 16> C 	 40.8233 	 15.0564 	 48.5747
| 17> H 	 40.874 	 14.6862 	 49.6032
| 18> H 	 41.5966 	 15.8576 	 48.6878
| 19> C 	 39.4962 	 15.7213 	 48.197
| 20> H 	 39.2031 	 16.3774 	 49.0407
| 21> H 	 39.4533 	 16.3468 	 47.3321
| 22> H 	 38.7148 	 14.9895 	 48.1022
| 23> S 	 46.3353 	 14.2207 	 50.4983
| 24> C 	 47.2393 	 13.809 	 51.9081
| 25> C 	 46.8498 	 12.5898 	 52.4604
| 26> C 	 45.7325 	 12.0234 	 51.7179
| 27> C 	 45.3801 	 12.7866 	 50.6132
| 28> H 	 47.2572 	 12.2117 	 53.3492
| 29> C 	 45.0922 	 10.7178 	 52.1029
| 30> H 	 45.8275 	 9.9419 	 52.2607
| 31> H 	 44.5145 	 10.3341 	 51.2803
| 32> C 	 44.0831 	 10.7669 	 53.2821
| 33> H 	 44.549 	 10.9077 	 54.2609
| 34> H 	 43.6878 	 9.81126 	 53.5145
| 35> C 	 42.8621 	 11.7718 	 53.1912
| 36> H 	 43.2459 	 12.7965 	 52.9412
| 37> H 	 42.275 	 11.8493 	 54.0819
| 38> H 	 42.2311 	 11.4291 	 52.3607
| 39> H 	 42.0913 	 11.2665 	 47.2523
| 40> H 	 48.0286 	 14.374 	 52.3777
| 41> *
| 42>
| 43>                          ****END OF INPUT****

CARTESIAN COORDINATES (ANGSTROEM)
---------------------------------
  S     44.130900   11.152800   48.608600
  C     42.730600   11.863600   47.875800
  C     42.535300   13.167800   48.172800
  C     43.413600   13.586500   49.244900
  C     44.309800   12.618000   49.587000
  H     43.374900   14.487300   49.805300
  C     41.353300   13.990900   47.659400
  H     40.526500   13.224500   47.382400
  H     41.627500   14.473600   46.750700
  C     40.823300   15.056400   48.574700
  H     40.874000   14.686200   49.603200
  H     41.596600   15.857600   48.687800
  C     39.496200   15.721300   48.197000
  H     39.203100   16.377400   49.040700
  H     39.453300   16.346800   47.332100
  H     38.714800   14.989500   48.102200
  S     46.335300   14.220700   50.498300
  C     47.239300   13.809000   51.908100
  C     46.849800   12.589800   52.460400
  C     45.732500   12.023400   51.717900
  C     45.380100   12.786600   50.613200
  H     47.257200   12.211700   53.349200
  C     45.092200   10.717800   52.102900
  H     45.827500    9.941900   52.260700
  H     44.514500   10.334100   51.280300
  C     44.083100   10.766900   53.282100
  H     44.549000   10.907700   54.260900
  H     43.687800    9.811260   53.514500
  C     42.862100   11.771800   53.191200
  H     43.245900   12.796500   52.941200
  H     42.275000   11.849300   54.081900
  H     42.231100   11.429100   52.360700
  H     42.091300   11.266500   47.252300
  H     48.028600   14.374000   52.377700

 Total Charge           Charge          ....    0
 Multiplicity           Mult            ....    1
 Number of Electrons    NEL             ....  134
 Basis Dimension        Dim             ....  322

ORBITAL ENERGIES
----------------

  NO   OCC          E(Eh)            E(eV)
   0   2.0000     -88.967537     -2420.9298
   1   2.0000     -88.966031     -2420.8888
   2   2.0000     -10.330063      -281.0953
   3   2.0000     -10.324731      -280.9502
   4   2.0000     -10.315749      -280.7058
   5   2.0000     -10.308922      -280.5200
   6   2.0000     -10.303383      -280.3693
   7   2.0000     -10.301010      -280.3047
   8   2.0000     -10.295163      -280.1456
   9   2.0000     -10.292669      -280.0778
  10   2.0000     -10.292373      -280.0697
  11   2.0000     -10.289061      -279.9796
  12   2.0000     -10.287315      -279.9321
  13   2.0000     -10.281977      -279.7868
  14   2.0000     -10.279816      -279.7280
  15   2.0000     -10.275427      -279.6086
  16   2.0000      -8.082751      -219.9428
  17   2.0000      -8.080721      -219.8876
  18   2.0000      -6.041173      -164.3887
  19   2.0000      -6.039201      -164.3350
  20   2.0000      -6.037109      -164.2781
  21   2.0000      -6.035387      -164.2312
  22   2.0000      -6.033656      -164.1841
  23   2.0000      -6.031355      -164.1215
  24   2.0000      -1.007618       -27.4187
  25   2.0000      -0.986865       -26.8540
  26   2.0000      -0.912097       -24.8194
  27   2.0000      -0.900862       -24.5137
  28   2.0000      -0.869855       -23.6699
  29   2.0000      -0.850362       -23.1395
  30   2.0000      -0.841003       -22.8849
  31   2.0000      -0.816972       -22.2310
  32   2.0000      -0.784161       -21.3381
  33   2.0000      -0.773845       -21.0574
  34   2.0000      -0.710453       -19.3324
  35   2.0000      -0.699532       -19.0352
  36   2.0000      -0.684430       -18.6243
  37   2.0000      -0.666372       -18.1329
  38   2.0000      -0.642839       -17.4925
  39   2.0000      -0.620014       -16.8714
  40   2.0000      -0.593947       -16.1621
  41   2.0000      -0.572222       -15.5710
  42   2.0000      -0.561295       -15.2736
  43   2.0000      -0.549472       -14.9519
  44   2.0000      -0.536775       -14.6064
  45   2.0000      -0.522383       -14.2148
  46   2.0000      -0.512556       -13.9474
  47   2.0000      -0.509477       -13.8636
  48   2.0000      -0.504206       -13.7201
  49   2.0000      -0.492726       -13.4078
  50   2.0000      -0.489193       -13.3116
  51   2.0000      -0.479055       -13.0357
  52   2.0000      -0.477257       -12.9868
  53   2.0000      -0.464526       -12.6404
  54   2.0000      -0.457546       -12.4505
  55   2.0000      -0.454774       -12.3750
  56   2.0000      -0.446030       -12.1371
  57   2.0000      -0.441012       -12.0006
  58   2.0000      -0.432610       -11.7719
  59   2.0000      -0.428953       -11.6724
  60   2.0000      -0.417586       -11.3631
  61   2.0000      -0.411302       -11.1921
  62   2.0000      -0.404470       -11.0062
  63   2.0000      -0.344603        -9.3771
  64   2.0000      -0.333431        -9.0731
  65   2.0000      -0.329109        -8.9555
  66   2.0000      -0.296859        -8.0779
  67   0.0000       0.034925         0.9503
  68   0.0000       0.077528         2.1096
  69   0.0000       0.110980         3.0199
  70   0.0000       0.118658         3.2289
  71   0.0000       0.129683         3.5289

MULLIKEN ATOMIC CHARGES
-----------------------
   0 S :    0.112088
   1 C :   -0.137649
   2 C :   -0.047690
   3 C :    0.000279
   4 C :   -0.122251
   5 H :    0.006312
   6 C :    0.077445
   7 H :    0.034593
   8 H :    0.030393
   9 C :   -0.125355
  10 H :    0.029588
  11 H :    0.028423
  12 C :   -0.012944
  13 H :    0.034110
  14 H :    0.032124
  15 H :    0.024696
  16 S :    0.125816
  17 C :   -0.088094
  18 C :   -0.009503
  19 C :   -0.051964
  20 C :   -0.168575
  21 H :    0.001008
  22 C :    0.105410
  23 H :    0.027201
  24 H :    0.004638
  25 C :   -0.068279
  26 H :    0.009062
  27 H :    0.008631
  28 C :   -0.067310
  29 H :    0.044131
  30 H :    0.033812
  31 H :    0.036822
  32 H :    0.039582
  33 H :    0.053448
Sum of atomic charges:    0.0000000

LOEWDIN ATOMIC CHARGES
----------------------
   0 S :    0.401471
   1 C :   -0.191052
   2 C :   -0.060068
   3 C :   -0.063476
   4 C :   -0.180214
   5 H :    0.025838
   6 C :   -0.034053
   7 H :    0.038381
   8 H :    0.028515
   9 C :   -0.054632
  10 H :    0.025094
  11 H :    0.027157
  12 C :   -0.060340
  13 H :    0.035285
  14 H :    0.023120
  15 H :    0.021935
  16 S :    0.434325
  17 C :   -0.193693
  18 C :   -0.059445
  19 C :   -0.054785
  20 C :   -0.209974
  21 H :    0.022934
  22 C :   -0.032436
  23 H :    0.033991
  24 H :    0.019283
  25 C :   -0.041849
  26 H :    0.017652
  27 H :    0.017638
  28 C :   -0.065873
  29 H :    0.029648
  30 H :    0.022096
  31 H :    0.026062
  32 H :    0.022181
  33 H :    0.029286

  Mayer bond orders larger than 0.100000
B(  0-S ,  1-C ) :   1.1312 B(  0-S ,  4-C ) :   1.1349 B(  1-C ,  2-C ) :   1.6577
B(  1-C , 32-H ) :   0.9691 B(  2-C ,  3-C ) :   1.1952 B(  2-C ,  6-C ) :   1.0104
B(  3-C ,  4-C ) :   1.6126 B(  3-C ,  5-H ) :   0.9981 B(  4-C , 20-C ) :   1.0094
B(  6-C ,  7-H ) :   0.9499 B(  6-C ,  8-H ) :   0.9217 B(  6-C ,  9-C ) :   1.0834
B(  9-C , 10-H ) :   0.9571 B(  9-C , 11-H ) :   0.9383 B(  9-C , 12-C ) :   1.0818
B( 12-C , 13-H ) :   0.9709 B( 12-C , 14-H ) :   0.9756 B( 12-C , 15-H ) :   0.9747
B( 16-S , 17-C ) :   1.1638 B( 16-S , 20-C ) :   1.1506 B( 17-C , 18-C ) :   1.5998
B( 17-C , 33-H ) :   0.9676 B( 18-C , 19-C ) :   1.2377 B( 18-C , 21-H ) :   0.9992
B( 19-C , 20-C ) :   1.5848 B( 19-C , 22-C ) :   1.0538 B( 22-C , 23-H ) :   0.9327
B( 22-C , 24-H ) :   0.9273 B( 22-C , 25-C ) :   1.0644 B( 25-C , 26-H ) :   0.9566
B( 25-C , 27-H ) :   0.9540 B( 25-C , 28-C ) :   1.0676 B( 28-C , 29-H ) :   0.9772
B( 28-C , 30-H ) :   0.9761 B( 28-C , 31-H ) :   0.9781

Dispersion correction           -0.014845722
FINAL SINGLE POINT ENERGY     -1339.889827203340

DIPOLE MOMENT
-------------
                                X             Y             Z
Electronic contribution:     21.65468      -3.70820      -7.04984
Nuclear contribution   :    -22.02806       3.79126       7.28559
                        -----------------------------------------
Total Dipole Moment    :     -0.37338       0.08306       0.23575
                        -----------------------------------------
Magnitude (a.u.)       :      0.44933
Magnitude (Debye)      :      1.14210

Rotational constants in cm-1:     0.019297     0.008045     0.007639
Rotational constants in MHz :   578.496917   241.196529   229.017379

                             ****ORCA TERMINATED NORMALLY****
TOTAL RUN TIME: 0 days 0 hours 0 minutes 34 seconds 483 msec
