                         Program Version 4.2.1 -  RELEASE  -
|  1> ! wB97X-D3 SP def2-SVP
|  2> %pal
|  3> nprocs 16
|  4> end
|  5>
|  6> * xyz 0 1
|  7> S 	 -56.4012 	 36.2945 	 114.522
|  8> C 	 -56.0887 	 36.2594 	 112.811
|  9> C 	 -55.9837 	 37.5613 	 112.312
| 10> C 	 -56.3664 	 38.5388 	 113.265
| 11> C 	 -56.5619 	 38.0172 	 114.527
| 12> H 	 -56.3046 	 39.6044 	 113.165
| 13> C 	 -55.5207 	 37.8897 	 110.9
| 14> H 	 -56.0799 	 38.7027 	 110.479
| 15> H 	 -55.8224 	 37.0505 	 110.272
| 16> C 	 -53.9453 	 38.0435 	 110.8
| 17> H 	 -53.7972 	 38.6055 	 109.832
| 18> H 	 -53.6359 	 38.6967 	 111.631
| 19> C 	 -53.1286 	 36.7306 	 110.937
| 20> H 	 -53.6337 	 35.9403 	 110.368
| 21> H 	 -52.1079 	 36.8166 	 110.657
| 22> H 	 -53.2425 	 36.2724 	 111.959
| 23> S 	 -58.0103 	 38.2118 	 116.822
| 24> C 	 -57.5859 	 39.4066 	 118.007
| 25> C 	 -56.4626 	 40.1469 	 117.679
| 26> C 	 -56.0547 	 39.8357 	 116.309
| 27> C 	 -56.7846 	 38.7709 	 115.743
| 28> H 	 -56.1025 	 40.8135 	 118.424
| 29> C 	 -54.8502 	 40.4823 	 115.667
| 30> H 	 -54.8984 	 41.5919 	 115.876
| 31> H 	 -54.935 	 40.6435 	 114.537
| 32> C 	 -53.4561 	 40.0162 	 116.027
| 33> H 	 -53.4872 	 39.8488 	 117.148
| 34> H 	 -52.699 	 40.6871 	 115.895
| 35> C 	 -52.9827 	 38.7113 	 115.428
| 36> H 	 -53.7328 	 37.9759 	 115.596
| 37> H 	 -52.0854 	 38.2512 	 115.845
| 38> H 	 -52.8223 	 38.8812 	 114.333
| 39> H 	 -55.8887 	 35.4377 	 112.17
| 40> H 	 -58.0309 	 39.5025 	 118.979
| 41> *
| 42>
| 43>                          ****END OF INPUT****

CARTESIAN COORDINATES (ANGSTROEM)
---------------------------------
  S    -56.401200   36.294500  114.522000
  C    -56.088700   36.259400  112.811000
  C    -55.983700   37.561300  112.312000
  C    -56.366400   38.538800  113.265000
  C    -56.561900   38.017200  114.527000
  H    -56.304600   39.604400  113.165000
  C    -55.520700   37.889700  110.900000
  H    -56.079900   38.702700  110.479000
  H    -55.822400   37.050500  110.272000
  C    -53.945300   38.043500  110.800000
  H    -53.797200   38.605500  109.832000
  H    -53.635900   38.696700  111.631000
  C    -53.128600   36.730600  110.937000
  H    -53.633700   35.940300  110.368000
  H    -52.107900   36.816600  110.657000
  H    -53.242500   36.272400  111.959000
  S    -58.010300   38.211800  116.822000
  C    -57.585900   39.406600  118.007000
  C    -56.462600   40.146900  117.679000
  C    -56.054700   39.835700  116.309000
  C    -56.784600   38.770900  115.743000
  H    -56.102500   40.813500  118.424000
  C    -54.850200   40.482300  115.667000
  H    -54.898400   41.591900  115.876000
  H    -54.935000   40.643500  114.537000
  C    -53.456100   40.016200  116.027000
  H    -53.487200   39.848800  117.148000
  H    -52.699000   40.687100  115.895000
  C    -52.982700   38.711300  115.428000
  H    -53.732800   37.975900  115.596000
  H    -52.085400   38.251200  115.845000
  H    -52.822300   38.881200  114.333000
  H    -55.888700   35.437700  112.170000
  H    -58.030900   39.502500  118.979000

 Total Charge           Charge          ....    0
 Multiplicity           Mult            ....    1
 Number of Electrons    NEL             ....  134
 Basis Dimension        Dim             ....  322

ORBITAL ENERGIES
----------------

  NO   OCC          E(Eh)            E(eV)
   0   2.0000     -88.970177     -2421.0016
   1   2.0000     -88.968183     -2420.9473
   2   2.0000     -10.328252      -281.0460
   3   2.0000     -10.326652      -281.0025
   4   2.0000     -10.316582      -280.7285
   5   2.0000     -10.313812      -280.6531
   6   2.0000     -10.310987      -280.5762
   7   2.0000     -10.300042      -280.2784
   8   2.0000     -10.299136      -280.2537
   9   2.0000     -10.298774      -280.2439
  10   2.0000     -10.297451      -280.2079
  11   2.0000     -10.293152      -280.0909
  12   2.0000     -10.288679      -279.9692
  13   2.0000     -10.281324      -279.7691
  14   2.0000     -10.278621      -279.6955
  15   2.0000     -10.267972      -279.4057
  16   2.0000      -8.084744      -219.9971
  17   2.0000      -8.083619      -219.9665
  18   2.0000      -6.043240      -164.4449
  19   2.0000      -6.042014      -164.4115
  20   2.0000      -6.039218      -164.3355
  21   2.0000      -6.038006      -164.3025
  22   2.0000      -6.035583      -164.2366
  23   2.0000      -6.034477      -164.2065
  24   2.0000      -1.010976       -27.5100
  25   2.0000      -0.986279       -26.8380
  26   2.0000      -0.909678       -24.7536
  27   2.0000      -0.905561       -24.6416
  28   2.0000      -0.869469       -23.6595
  29   2.0000      -0.852248       -23.1909
  30   2.0000      -0.844764       -22.9872
  31   2.0000      -0.816438       -22.2164
  32   2.0000      -0.784423       -21.3452
  33   2.0000      -0.772820       -21.0295
  34   2.0000      -0.710348       -19.3296
  35   2.0000      -0.695659       -18.9299
  36   2.0000      -0.692135       -18.8340
  37   2.0000      -0.660735       -17.9795
  38   2.0000      -0.641841       -17.4654
  39   2.0000      -0.621851       -16.9214
  40   2.0000      -0.597417       -16.2565
  41   2.0000      -0.574385       -15.6298
  42   2.0000      -0.558293       -15.1919
  43   2.0000      -0.550663       -14.9843
  44   2.0000      -0.537942       -14.6381
  45   2.0000      -0.531754       -14.4698
  46   2.0000      -0.517550       -14.0833
  47   2.0000      -0.510081       -13.8800
  48   2.0000      -0.505220       -13.7477
  49   2.0000      -0.495978       -13.4962
  50   2.0000      -0.485482       -13.2106
  51   2.0000      -0.481394       -13.0994
  52   2.0000      -0.473440       -12.8830
  53   2.0000      -0.467052       -12.7091
  54   2.0000      -0.458941       -12.4884
  55   2.0000      -0.449527       -12.2323
  56   2.0000      -0.443395       -12.0654
  57   2.0000      -0.438079       -11.9207
  58   2.0000      -0.435662       -11.8550
  59   2.0000      -0.420953       -11.4547
  60   2.0000      -0.417748       -11.3675
  61   2.0000      -0.414485       -11.2787
  62   2.0000      -0.398971       -10.8566
  63   2.0000      -0.348609        -9.4861
  64   2.0000      -0.333106        -9.0643
  65   2.0000      -0.331725        -9.0267
  66   2.0000      -0.291199        -7.9239
  67   0.0000       0.028878         0.7858
  68   0.0000       0.071604         1.9485
  69   0.0000       0.111137         3.0242
  70   0.0000       0.119138         3.2419
  71   0.0000       0.126039         3.4297

MULLIKEN ATOMIC CHARGES
-----------------------
   0 S :    0.126670
   1 C :   -0.094674
   2 C :   -0.124682
   3 C :    0.051740
   4 C :   -0.145310
   5 H :    0.003904
   6 C :    0.061892
   7 H :    0.024761
   8 H :    0.017614
   9 C :   -0.082223
  10 H :    0.043371
  11 H :    0.035415
  12 C :   -0.051160
  13 H :    0.015079
  14 H :    0.045383
  15 H :    0.044025
  16 S :    0.118368
  17 C :   -0.091923
  18 C :   -0.023775
  19 C :   -0.016906
  20 C :   -0.156092
  21 H :    0.017396
  22 C :    0.013773
  23 H :    0.026161
  24 H :    0.019687
  25 C :   -0.027279
  26 H :    0.018745
  27 H :    0.006891
  28 C :   -0.041744
  29 H :    0.020792
  30 H :    0.029711
  31 H :    0.032131
  32 H :    0.030377
  33 H :    0.051884
Sum of atomic charges:    0.0000000

LOEWDIN ATOMIC CHARGES
----------------------
   0 S :    0.424485
   1 C :   -0.205606
   2 C :   -0.058473
   3 C :   -0.062680
   4 C :   -0.199681
   5 H :    0.026797
   6 C :   -0.031816
   7 H :    0.028106
   8 H :    0.028000
   9 C :   -0.039478
  10 H :    0.029816
  11 H :    0.023540
  12 C :   -0.070956
  13 H :    0.021589
  14 H :    0.024530
  15 H :    0.034820
  16 S :    0.425309
  17 C :   -0.186814
  18 C :   -0.062085
  19 C :   -0.051899
  20 C :   -0.208080
  21 H :    0.031949
  22 C :   -0.049447
  23 H :    0.040386
  24 H :    0.032486
  25 C :   -0.039660
  26 H :    0.029237
  27 H :    0.010761
  28 C :   -0.064619
  29 H :    0.018092
  30 H :    0.026276
  31 H :    0.026099
  32 H :    0.022519
  33 H :    0.026498

  Mayer bond orders larger than 0.100000
B(  0-S ,  1-C ) :   1.1348 B(  0-S ,  4-C ) :   1.1614 B(  1-C ,  2-C ) :   1.5953
B(  1-C , 32-H ) :   0.9692 B(  2-C ,  3-C ) :   1.2573 B(  2-C ,  6-C ) :   1.0277
B(  3-C ,  4-C ) :   1.5557 B(  3-C ,  5-H ) :   0.9972 B(  4-C , 20-C ) :   1.0481
B(  6-C ,  7-H ) :   0.9459 B(  6-C ,  8-H ) :   0.9421 B(  6-C ,  9-C ) :   1.0500
B(  9-C , 10-H ) :   0.9584 B(  9-C , 11-H ) :   0.9589 B(  9-C , 12-C ) :   1.0692
B( 12-C , 13-H ) :   0.9748 B( 12-C , 14-H ) :   0.9752 B( 12-C , 15-H ) :   0.9686
B( 16-S , 17-C ) :   1.1591 B( 16-S , 20-C ) :   1.1499 B( 17-C , 18-C ) :   1.6250
B( 17-C , 33-H ) :   0.9659 B( 18-C , 19-C ) :   1.2210 B( 18-C , 21-H ) :   0.9975
B( 19-C , 20-C ) :   1.5745 B( 19-C , 22-C ) :   1.0504 B( 22-C , 23-H ) :   0.9228
B( 22-C , 24-H ) :   0.9344 B( 22-C , 25-C ) :   1.0729 B( 25-C , 26-H ) :   0.9489
B( 25-C , 27-H ) :   0.9534 B( 25-C , 28-C ) :   1.0862 B( 28-C , 29-H ) :   0.9735
B( 28-C , 30-H ) :   0.9709 B( 28-C , 31-H ) :   0.9719

Dispersion correction           -0.016506167
FINAL SINGLE POINT ENERGY     -1339.877387970041

DIPOLE MOMENT
-------------
                                X             Y             Z
Electronic contribution:    -23.13956      -5.96200      14.93608
Nuclear contribution   :     23.60003       6.32810     -15.07076
                        -----------------------------------------
Total Dipole Moment    :      0.46048       0.36610      -0.13469
                        -----------------------------------------
Magnitude (a.u.)       :      0.60350
Magnitude (Debye)      :      1.53398

Rotational constants in cm-1:     0.022416     0.009434     0.007652
Rotational constants in MHz :   672.013508   282.829131   229.410293

                             ****ORCA TERMINATED NORMALLY****
TOTAL RUN TIME: 0 days 0 hours 0 minutes 33 seconds 577 msec
