                         Program Version 4.2.1 -  RELEASE  -
|  1> ! wB97X-D3 SP def2-SVP
|  2> %pal
|  3> nprocs 16
|  4> end
|  5>
|  6> * xyz 0 1
|  7> S 	 -62.4622 	 48.752 	 126.587
|  8> C 	 -62.1197 	 47.4184 	 125.498
|  9> C 	 -61.7345 	 47.9143 	 124.267
| 10> C 	 -61.6652 	 49.2979 	 124.193
| 11> C 	 -62.1608 	 49.8854 	 125.372
| 12> H 	 -61.4626 	 49.9239 	 123.295
| 13> C 	 -61.4875 	 47.015 	 123.026
| 14> H 	 -61.0324 	 46.046 	 123.211
| 15> H 	 -60.6416 	 47.5394 	 122.464
| 16> C 	 -62.5894 	 47.008 	 121.926
| 17> H 	 -63.5353 	 46.6961 	 122.376
| 18> H 	 -62.7191 	 48.0574 	 121.646
| 19> C 	 -62.2281 	 46.2987 	 120.591
| 20> H 	 -62.1753 	 45.1933 	 120.718
| 21> H 	 -62.9088 	 46.5314 	 119.793
| 22> H 	 -61.2955 	 46.7301 	 120.3
| 23> S 	 -64.1964 	 51.4744 	 125.95
| 24> C 	 -64.1348 	 53.214 	 125.643
| 25> C 	 -62.8201 	 53.5644 	 125.312
| 26> C 	 -61.8637 	 52.4792 	 125.231
| 27> C 	 -62.4882 	 51.2626 	 125.499
| 28> H 	 -62.6055 	 54.6019 	 125.118
| 29> C 	 -60.3801 	 52.6812 	 124.861
| 30> H 	 -60.3349 	 52.8349 	 123.81
| 31> H 	 -59.9187 	 51.6696 	 124.893
| 32> C 	 -59.5882 	 53.8031 	 125.468
| 33> H 	 -59.8187 	 53.7691 	 126.546
| 34> H 	 -60.0587 	 54.6469 	 124.92
| 35> C 	 -58.075 	 53.9559 	 125.291
| 36> H 	 -57.5675 	 53.3767 	 126.096
| 37> H 	 -57.8311 	 54.9637 	 125.522
| 38> H 	 -57.6071 	 53.6178 	 124.367
| 39> H 	 -62.2862 	 46.352 	 125.766
| 40> H 	 -64.8827 	 53.9869 	 125.941
| 41> *
| 42>
| 43>                          ****END OF INPUT****

CARTESIAN COORDINATES (ANGSTROEM)
---------------------------------
  S    -62.462200   48.752000  126.587000
  C    -62.119700   47.418400  125.498000
  C    -61.734500   47.914300  124.267000
  C    -61.665200   49.297900  124.193000
  C    -62.160800   49.885400  125.372000
  H    -61.462600   49.923900  123.295000
  C    -61.487500   47.015000  123.026000
  H    -61.032400   46.046000  123.211000
  H    -60.641600   47.539400  122.464000
  C    -62.589400   47.008000  121.926000
  H    -63.535300   46.696100  122.376000
  H    -62.719100   48.057400  121.646000
  C    -62.228100   46.298700  120.591000
  H    -62.175300   45.193300  120.718000
  H    -62.908800   46.531400  119.793000
  H    -61.295500   46.730100  120.300000
  S    -64.196400   51.474400  125.950000
  C    -64.134800   53.214000  125.643000
  C    -62.820100   53.564400  125.312000
  C    -61.863700   52.479200  125.231000
  C    -62.488200   51.262600  125.499000
  H    -62.605500   54.601900  125.118000
  C    -60.380100   52.681200  124.861000
  H    -60.334900   52.834900  123.810000
  H    -59.918700   51.669600  124.893000
  C    -59.588200   53.803100  125.468000
  H    -59.818700   53.769100  126.546000
  H    -60.058700   54.646900  124.920000
  C    -58.075000   53.955900  125.291000
  H    -57.567500   53.376700  126.096000
  H    -57.831100   54.963700  125.522000
  H    -57.607100   53.617800  124.367000
  H    -62.286200   46.352000  125.766000
  H    -64.882700   53.986900  125.941000

 Total Charge           Charge          ....    0
 Multiplicity           Mult            ....    1
 Number of Electrons    NEL             ....  134
 Basis Dimension        Dim             ....  322

ORBITAL ENERGIES
----------------

  NO   OCC          E(Eh)            E(eV)
   0   2.0000     -88.970159     -2421.0011
   1   2.0000     -88.963290     -2420.8142
   2   2.0000     -10.328195      -281.0445
   3   2.0000     -10.325763      -280.9783
   4   2.0000     -10.321812      -280.8708
   5   2.0000     -10.315666      -280.7036
   6   2.0000     -10.311234      -280.5829
   7   2.0000     -10.302902      -280.3562
   8   2.0000     -10.297937      -280.2211
   9   2.0000     -10.296695      -280.1873
  10   2.0000     -10.295540      -280.1559
  11   2.0000     -10.289967      -280.0042
  12   2.0000     -10.289832      -280.0006
  13   2.0000     -10.288050      -279.9521
  14   2.0000     -10.281215      -279.7661
  15   2.0000     -10.280365      -279.7430
  16   2.0000      -8.085813      -220.0262
  17   2.0000      -8.077428      -219.7980
  18   2.0000      -6.044130      -164.4691
  19   2.0000      -6.040072      -164.3587
  20   2.0000      -6.036821      -164.2703
  21   2.0000      -6.036063      -164.2496
  22   2.0000      -6.031984      -164.1386
  23   2.0000      -6.028081      -164.0324
  24   2.0000      -1.014136       -27.5961
  25   2.0000      -0.980389       -26.6777
  26   2.0000      -0.910809       -24.7844
  27   2.0000      -0.905396       -24.6371
  28   2.0000      -0.870758       -23.6945
  29   2.0000      -0.854553       -23.2536
  30   2.0000      -0.846023       -23.0214
  31   2.0000      -0.809313       -22.0225
  32   2.0000      -0.786597       -21.4044
  33   2.0000      -0.775201       -21.0943
  34   2.0000      -0.706767       -19.2321
  35   2.0000      -0.694754       -18.9052
  36   2.0000      -0.694590       -18.9008
  37   2.0000      -0.656271       -17.8581
  38   2.0000      -0.639444       -17.4001
  39   2.0000      -0.619725       -16.8636
  40   2.0000      -0.592650       -16.1268
  41   2.0000      -0.570049       -15.5118
  42   2.0000      -0.564464       -15.3598
  43   2.0000      -0.555934       -15.1277
  44   2.0000      -0.531065       -14.4510
  45   2.0000      -0.522596       -14.2205
  46   2.0000      -0.516476       -14.0540
  47   2.0000      -0.507486       -13.8094
  48   2.0000      -0.506499       -13.7825
  49   2.0000      -0.503235       -13.6937
  50   2.0000      -0.496440       -13.5088
  51   2.0000      -0.475360       -12.9352
  52   2.0000      -0.474013       -12.8986
  53   2.0000      -0.468708       -12.7542
  54   2.0000      -0.458162       -12.4672
  55   2.0000      -0.452356       -12.3092
  56   2.0000      -0.448480       -12.2038
  57   2.0000      -0.432552       -11.7703
  58   2.0000      -0.428416       -11.6578
  59   2.0000      -0.422481       -11.4963
  60   2.0000      -0.420900       -11.4533
  61   2.0000      -0.410975       -11.1832
  62   2.0000      -0.405356       -11.0303
  63   2.0000      -0.343228        -9.3397
  64   2.0000      -0.337265        -9.1774
  65   2.0000      -0.328065        -8.9271
  66   2.0000      -0.290186        -7.8964
  67   0.0000       0.026088         0.7099
  68   0.0000       0.068217         1.8563
  69   0.0000       0.114801         3.1239
  70   0.0000       0.120598         3.2817
  71   0.0000       0.128118         3.4863

MULLIKEN ATOMIC CHARGES
-----------------------
   0 S :    0.131642
   1 C :   -0.149263
   2 C :   -0.044081
   3 C :    0.021088
   4 C :   -0.166052
   5 H :    0.034055
   6 C :    0.022084
   7 H :    0.026618
   8 H :    0.017698
   9 C :   -0.075759
  10 H :    0.030604
  11 H :    0.021890
  12 C :   -0.032843
  13 H :    0.043574
  14 H :    0.036502
  15 H :    0.017913
  16 S :    0.093139
  17 C :   -0.104896
  18 C :   -0.060895
  19 C :   -0.020837
  20 C :   -0.171052
  21 H :    0.018834
  22 C :    0.095639
  23 H :    0.014116
  24 H :    0.015915
  25 C :   -0.115465
  26 H :    0.043961
  27 H :    0.035308
  28 C :   -0.018417
  29 H :    0.030739
  30 H :    0.029999
  31 H :    0.034356
  32 H :    0.064721
  33 H :    0.079164
Sum of atomic charges:    0.0000000

LOEWDIN ATOMIC CHARGES
----------------------
   0 S :    0.441487
   1 C :   -0.208531
   2 C :   -0.063685
   3 C :   -0.066742
   4 C :   -0.219603
   5 H :    0.041191
   6 C :   -0.037595
   7 H :    0.024231
   8 H :    0.033255
   9 C :   -0.041519
  10 H :    0.019295
  11 H :    0.023713
  12 C :   -0.060826
  13 H :    0.029118
  14 H :    0.026971
  15 H :    0.020972
  16 S :    0.388630
  17 C :   -0.197284
  18 C :   -0.070582
  19 C :   -0.053631
  20 C :   -0.183437
  21 H :    0.026582
  22 C :   -0.040854
  23 H :    0.025978
  24 H :    0.028951
  25 C :   -0.048090
  26 H :    0.031514
  27 H :    0.028476
  28 C :   -0.062788
  29 H :    0.031780
  30 H :    0.026392
  31 H :    0.025822
  32 H :    0.037722
  33 H :    0.043086

  Mayer bond orders larger than 0.100000
B(  0-S ,  1-C ) :   1.1358 B(  0-S ,  4-C ) :   1.1970 B(  1-C ,  2-C ) :   1.5767
B(  1-C ,  4-C ) :   0.1017 B(  1-C , 32-H ) :   0.9712 B(  2-C ,  3-C ) :   1.2899
B(  2-C ,  6-C ) :   1.0144 B(  3-C ,  4-C ) :   1.5021 B(  3-C ,  5-H ) :   0.9877
B(  4-C , 20-C ) :   1.0484 B(  6-C ,  7-H ) :   0.9526 B(  6-C ,  8-H ) :   0.9399
B(  6-C ,  9-C ) :   1.0504 B(  9-C , 10-H ) :   0.9591 B(  9-C , 11-H ) :   0.9560
B(  9-C , 12-C ) :   1.0748 B( 12-C , 13-H ) :   0.9776 B( 12-C , 14-H ) :   0.9754
B( 12-C , 15-H ) :   0.9730 B( 16-S , 17-C ) :   1.1373 B( 16-S , 20-C ) :   1.1368
B( 17-C , 18-C ) :   1.6269 B( 17-C , 20-C ) :   0.1043 B( 17-C , 33-H ) :   0.9594
B( 18-C , 19-C ) :   1.2182 B( 18-C , 21-H ) :   0.9869 B( 19-C , 20-C ) :   1.5970
B( 19-C , 22-C ) :   1.0444 B( 22-C , 23-H ) :   0.9254 B( 22-C , 24-H ) :   0.9292
B( 22-C , 25-C ) :   1.0477 B( 25-C , 26-H ) :   0.9631 B( 25-C , 27-H ) :   0.9536
B( 25-C , 28-C ) :   1.0872 B( 28-C , 29-H ) :   0.9727 B( 28-C , 30-H ) :   0.9726
B( 28-C , 31-H ) :   0.9756

Dispersion correction           -0.013307455
FINAL SINGLE POINT ENERGY     -1339.866034794483

DIPOLE MOMENT
-------------
                                X             Y             Z
Electronic contribution:    -16.76509      -0.34604      18.97354
Nuclear contribution   :     17.11425       0.51556     -19.43547
                        -----------------------------------------
Total Dipole Moment    :      0.34916       0.16951      -0.46194
                        -----------------------------------------
Magnitude (a.u.)       :      0.60335
Magnitude (Debye)      :      1.53359

Rotational constants in cm-1:     0.017137     0.007543     0.006496
Rotational constants in MHz :   513.739866   226.125592   194.754341

                             ****ORCA TERMINATED NORMALLY****
TOTAL RUN TIME: 0 days 0 hours 0 minutes 30 seconds 78 msec
