                         Program Version 4.2.1 -  RELEASE  -
|  1> ! wB97X-D3 SP def2-SVP
|  2> %pal
|  3> nprocs 16
|  4> end
|  5>
|  6> * xyz 0 1
|  7> S 	 10.2731 	 -6.64077 	 66.9031
|  8> C 	 10.0507 	 -5.44854 	 68.2368
|  9> C 	 10.9467 	 -5.64728 	 69.2233
| 10> C 	 11.8061 	 -6.77726 	 69.1049
| 11> C 	 11.4153 	 -7.52197 	 68.0132
| 12> H 	 12.5961 	 -7.11962 	 69.7033
| 13> C 	 10.9974 	 -4.77664 	 70.5435
| 14> H 	 10.9297 	 -5.41148 	 71.4451
| 15> H 	 9.98191 	 -4.38673 	 70.5822
| 16> C 	 12.0249 	 -3.53229 	 70.5611
| 17> H 	 13.0525 	 -4.02063 	 70.7106
| 18> H 	 11.8716 	 -3.10696 	 69.5529
| 19> C 	 11.7138 	 -2.52574 	 71.551
| 20> H 	 11.8494 	 -3.0055 	 72.5281
| 21> H 	 12.2915 	 -1.5933 	 71.3732
| 22> H 	 10.59 	 -2.33725 	 71.4245
| 23> S 	 11.735 	 -10.2038 	 68.525
| 24> C 	 12.3018 	 -11.2635 	 67.2906
| 25> C 	 12.8093 	 -10.534 	 66.2694
| 26> C 	 12.6051 	 -9.09307 	 66.2928
| 27> C 	 12.0409 	 -8.7836 	 67.5643
| 28> H 	 13.3076 	 -11.113 	 65.4943
| 29> C 	 12.9883 	 -8.13002 	 65.2095
| 30> H 	 12.3071 	 -7.31401 	 65.0669
| 31> H 	 12.9423 	 -8.71601 	 64.2955
| 32> C 	 14.4043 	 -7.56151 	 65.4252
| 33> H 	 15.0532 	 -8.28804 	 65.8241
| 34> H 	 14.3042 	 -6.81486 	 66.2304
| 35> C 	 15.0293 	 -6.96092 	 64.1379
| 36> H 	 16.0221 	 -6.62003 	 64.2139
| 37> H 	 14.4765 	 -6.05594 	 63.7794
| 38> H 	 15.0904 	 -7.72927 	 63.3009
| 39> H 	 9.33603 	 -4.65919 	 68.34
| 40> H 	 12.389 	 -12.3658 	 67.3563
| 41> *
| 42>
| 43>                          ****END OF INPUT****

CARTESIAN COORDINATES (ANGSTROEM)
---------------------------------
  S     10.273100   -6.640770   66.903100
  C     10.050700   -5.448540   68.236800
  C     10.946700   -5.647280   69.223300
  C     11.806100   -6.777260   69.104900
  C     11.415300   -7.521970   68.013200
  H     12.596100   -7.119620   69.703300
  C     10.997400   -4.776640   70.543500
  H     10.929700   -5.411480   71.445100
  H      9.981910   -4.386730   70.582200
  C     12.024900   -3.532290   70.561100
  H     13.052500   -4.020630   70.710600
  H     11.871600   -3.106960   69.552900
  C     11.713800   -2.525740   71.551000
  H     11.849400   -3.005500   72.528100
  H     12.291500   -1.593300   71.373200
  H     10.590000   -2.337250   71.424500
  S     11.735000  -10.203800   68.525000
  C     12.301800  -11.263500   67.290600
  C     12.809300  -10.534000   66.269400
  C     12.605100   -9.093070   66.292800
  C     12.040900   -8.783600   67.564300
  H     13.307600  -11.113000   65.494300
  C     12.988300   -8.130020   65.209500
  H     12.307100   -7.314010   65.066900
  H     12.942300   -8.716010   64.295500
  C     14.404300   -7.561510   65.425200
  H     15.053200   -8.288040   65.824100
  H     14.304200   -6.814860   66.230400
  C     15.029300   -6.960920   64.137900
  H     16.022100   -6.620030   64.213900
  H     14.476500   -6.055940   63.779400
  H     15.090400   -7.729270   63.300900
  H      9.336030   -4.659190   68.340000
  H     12.389000  -12.365800   67.356300

 Total Charge           Charge          ....    0
 Multiplicity           Mult            ....    1
 Number of Electrons    NEL             ....  134
 Basis Dimension        Dim             ....  322

ORBITAL ENERGIES
----------------

  NO   OCC          E(Eh)            E(eV)
   0   2.0000     -88.968849     -2420.9655
   1   2.0000     -88.964531     -2420.8480
   2   2.0000     -10.334490      -281.2158
   3   2.0000     -10.326274      -280.9922
   4   2.0000     -10.313861      -280.6544
   5   2.0000     -10.312989      -280.6307
   6   2.0000     -10.309236      -280.5286
   7   2.0000     -10.301388      -280.3150
   8   2.0000     -10.296601      -280.1847
   9   2.0000     -10.294017      -280.1145
  10   2.0000     -10.292485      -280.0728
  11   2.0000     -10.292159      -280.0639
  12   2.0000     -10.288608      -279.9672
  13   2.0000     -10.283619      -279.8315
  14   2.0000     -10.283390      -279.8253
  15   2.0000     -10.281254      -279.7672
  16   2.0000      -8.081384      -219.9056
  17   2.0000      -8.079830      -219.8634
  18   2.0000      -6.040106      -164.3597
  19   2.0000      -6.038368      -164.3124
  20   2.0000      -6.036578      -164.2636
  21   2.0000      -6.034159      -164.1978
  22   2.0000      -6.031654      -164.1297
  23   2.0000      -6.030620      -164.1015
  24   2.0000      -1.002742       -27.2860
  25   2.0000      -0.980291       -26.6751
  26   2.0000      -0.909206       -24.7407
  27   2.0000      -0.906168       -24.6581
  28   2.0000      -0.870488       -23.6872
  29   2.0000      -0.849576       -23.1181
  30   2.0000      -0.843432       -22.9510
  31   2.0000      -0.816929       -22.2298
  32   2.0000      -0.780637       -21.2422
  33   2.0000      -0.766217       -20.8498
  34   2.0000      -0.708704       -19.2848
  35   2.0000      -0.695295       -18.9199
  36   2.0000      -0.685632       -18.6570
  37   2.0000      -0.656555       -17.8658
  38   2.0000      -0.638592       -17.3770
  39   2.0000      -0.617112       -16.7925
  40   2.0000      -0.596428       -16.2296
  41   2.0000      -0.572871       -15.5886
  42   2.0000      -0.559579       -15.2269
  43   2.0000      -0.555368       -15.1123
  44   2.0000      -0.532363       -14.4863
  45   2.0000      -0.522589       -14.2204
  46   2.0000      -0.516503       -14.0548
  47   2.0000      -0.510446       -13.8899
  48   2.0000      -0.503208       -13.6930
  49   2.0000      -0.499205       -13.5841
  50   2.0000      -0.491606       -13.3773
  51   2.0000      -0.475790       -12.9469
  52   2.0000      -0.464954       -12.6520
  53   2.0000      -0.462879       -12.5956
  54   2.0000      -0.458528       -12.4772
  55   2.0000      -0.450023       -12.2457
  56   2.0000      -0.440674       -11.9913
  57   2.0000      -0.432886       -11.7794
  58   2.0000      -0.424733       -11.5576
  59   2.0000      -0.422502       -11.4969
  60   2.0000      -0.420707       -11.4480
  61   2.0000      -0.418882       -11.3984
  62   2.0000      -0.410287       -11.1645
  63   2.0000      -0.344660        -9.3787
  64   2.0000      -0.333102        -9.0642
  65   2.0000      -0.326003        -8.8710
  66   2.0000      -0.295587        -8.0433
  67   0.0000       0.032161         0.8752
  68   0.0000       0.062587         1.7031
  69   0.0000       0.098252         2.6736
  70   0.0000       0.121969         3.3189
  71   0.0000       0.128786         3.5044

MULLIKEN ATOMIC CHARGES
-----------------------
   0 S :    0.095876
   1 C :   -0.097601
   2 C :   -0.066260
   3 C :    0.044855
   4 C :   -0.125519
   5 H :    0.004996
   6 C :    0.010985
   7 H :    0.033640
   8 H :   -0.004112
   9 C :   -0.073991
  10 H :    0.045598
  11 H :    0.032432
  12 C :   -0.044217
  13 H :    0.035107
  14 H :    0.055953
  15 H :    0.031677
  16 S :    0.113513
  17 C :   -0.104301
  18 C :   -0.043915
  19 C :   -0.052222
  20 C :   -0.181011
  21 H :    0.015487
  22 C :    0.099815
  23 H :    0.021043
  24 H :    0.014424
  25 C :   -0.052527
  26 H :    0.019812
  27 H :    0.033844
  28 C :   -0.058247
  29 H :    0.023053
  30 H :    0.036268
  31 H :    0.034528
  32 H :    0.031659
  33 H :    0.069359
Sum of atomic charges:    0.0000000

LOEWDIN ATOMIC CHARGES
----------------------
   0 S :    0.357623
   1 C :   -0.180174
   2 C :   -0.059073
   3 C :   -0.052256
   4 C :   -0.156323
   5 H :    0.028924
   6 C :   -0.040010
   7 H :    0.028757
   8 H :    0.020741
   9 C :   -0.047302
  10 H :    0.030172
  11 H :    0.027098
  12 C :   -0.073821
  13 H :    0.027966
  14 H :    0.034952
  15 H :    0.033075
  16 S :    0.422419
  17 C :   -0.204851
  18 C :   -0.075459
  19 C :   -0.050700
  20 C :   -0.210234
  21 H :    0.029511
  22 C :   -0.031115
  23 H :    0.021117
  24 H :    0.029897
  25 C :   -0.032638
  26 H :    0.017401
  27 H :    0.029630
  28 C :   -0.071220
  29 H :    0.018101
  30 H :    0.029922
  31 H :    0.030337
  32 H :    0.026574
  33 H :    0.040958

  Mayer bond orders larger than 0.100000
B(  0-S ,  1-C ) :   1.0926 B(  0-S ,  4-C ) :   1.1145 B(  1-C ,  2-C ) :   1.6941
B(  1-C , 32-H ) :   0.9620 B(  2-C ,  3-C ) :   1.1767 B(  2-C ,  6-C ) :   1.0069
B(  3-C ,  4-C ) :   1.6187 B(  3-C ,  5-H ) :   1.0059 B(  4-C , 20-C ) :   1.0260
B(  6-C ,  7-H ) :   0.9497 B(  6-C ,  8-H ) :   0.9412 B(  6-C ,  9-C ) :   1.0350
B(  9-C , 10-H ) :   0.9525 B(  9-C , 11-H ) :   0.9546 B(  9-C , 12-C ) :   1.0923
B( 12-C , 13-H ) :   0.9715 B( 12-C , 14-H ) :   0.9696 B( 12-C , 15-H ) :   0.9694
B( 16-S , 17-C ) :   1.1467 B( 16-S , 20-C ) :   1.1667 B( 17-C , 18-C ) :   1.6324
B( 17-C , 33-H ) :   0.9610 B( 18-C , 19-C ) :   1.2324 B( 18-C , 21-H ) :   0.9842
B( 19-C , 20-C ) :   1.5497 B( 19-C , 22-C ) :   1.0585 B( 22-C , 23-H ) :   0.9271
B( 22-C , 24-H ) :   0.9295 B( 22-C , 25-C ) :   1.0539 B( 25-C , 26-H ) :   0.9597
B( 25-C , 27-H ) :   0.9534 B( 25-C , 28-C ) :   1.0784 B( 28-C , 29-H ) :   0.9751
B( 28-C , 30-H ) :   0.9742 B( 28-C , 31-H ) :   0.9755

Dispersion correction           -0.013909049
FINAL SINGLE POINT ENERGY     -1339.857792671814

DIPOLE MOMENT
-------------
                                X             Y             Z
Electronic contribution:    -12.24853     -19.79903      -0.85981
Nuclear contribution   :     12.60538      20.01482       0.91009
                        -----------------------------------------
Total Dipole Moment    :      0.35685       0.21579       0.05028
                        -----------------------------------------
Magnitude (a.u.)       :      0.42004
Magnitude (Debye)      :      1.06766

Rotational constants in cm-1:     0.018931     0.007589     0.006446
Rotational constants in MHz :   567.535283   227.510587   193.247534

                             ****ORCA TERMINATED NORMALLY****
TOTAL RUN TIME: 0 days 0 hours 0 minutes 31 seconds 985 msec
