                         Program Version 4.2.1 -  RELEASE  -
|  1> ! wB97X-D3 SP def2-SVP
|  2> %pal
|  3> nprocs 16
|  4> end
|  5>
|  6> * xyz 0 1
|  7> S 	 -40.9737 	 15.3394 	 79.0442
|  8> C 	 -40.812 	 17.0836 	 78.8071
|  9> C 	 -41.4856 	 17.4893 	 77.6665
| 10> C 	 -42.1226 	 16.392 	 76.9734
| 11> C 	 -42.0352 	 15.2078 	 77.6551
| 12> H 	 -42.8223 	 16.3756 	 76.134
| 13> C 	 -41.5927 	 18.9782 	 77.2366
| 14> H 	 -41.603 	 19.5878 	 78.0921
| 15> H 	 -42.531 	 19.2545 	 76.7797
| 16> C 	 -40.4782 	 19.4276 	 76.2682
| 17> H 	 -39.4918 	 19.291 	 76.8057
| 18> H 	 -40.5719 	 18.919 	 75.2916
| 19> C 	 -40.5488 	 20.8842 	 75.9813
| 20> H 	 -40.269 	 21.4353 	 76.8829
| 21> H 	 -39.882 	 21.1979 	 75.1421
| 22> H 	 -41.6133 	 21.1157 	 75.6997
| 23> S 	 -42.8219 	 12.8259 	 78.5643
| 24> C 	 -43.7927 	 11.7559 	 77.5695
| 25> C 	 -43.6965 	 12.0959 	 76.2214
| 26> C 	 -43.0625 	 13.4122 	 76.0504
| 27> C 	 -42.6438 	 13.9558 	 77.288
| 28> H 	 -44.0697 	 11.4668 	 75.4712
| 29> C 	 -42.9436 	 13.9774 	 74.6993
| 30> H 	 -42.2426 	 14.7891 	 74.6907
| 31> H 	 -43.8458 	 14.4228 	 74.4789
| 32> C 	 -42.6138 	 12.9963 	 73.4756
| 33> H 	 -43.3912 	 12.1694 	 73.3643
| 34> H 	 -41.5914 	 12.5834 	 73.6903
| 35> C 	 -42.6545 	 13.736 	 72.0492
| 36> H 	 -42.1325 	 14.6591 	 72.0179
| 37> H 	 -43.6623 	 14.07 	 71.8114
| 38> H 	 -42.3795 	 13.0992 	 71.1978
| 39> H 	 -40.2264 	 17.7996 	 79.4095
| 40> H 	 -44.1474 	 10.7843 	 77.9348
| 41> *
| 42>
| 43>                          ****END OF INPUT****

CARTESIAN COORDINATES (ANGSTROEM)
---------------------------------
  S    -40.973700   15.339400   79.044200
  C    -40.812000   17.083600   78.807100
  C    -41.485600   17.489300   77.666500
  C    -42.122600   16.392000   76.973400
  C    -42.035200   15.207800   77.655100
  H    -42.822300   16.375600   76.134000
  C    -41.592700   18.978200   77.236600
  H    -41.603000   19.587800   78.092100
  H    -42.531000   19.254500   76.779700
  C    -40.478200   19.427600   76.268200
  H    -39.491800   19.291000   76.805700
  H    -40.571900   18.919000   75.291600
  C    -40.548800   20.884200   75.981300
  H    -40.269000   21.435300   76.882900
  H    -39.882000   21.197900   75.142100
  H    -41.613300   21.115700   75.699700
  S    -42.821900   12.825900   78.564300
  C    -43.792700   11.755900   77.569500
  C    -43.696500   12.095900   76.221400
  C    -43.062500   13.412200   76.050400
  C    -42.643800   13.955800   77.288000
  H    -44.069700   11.466800   75.471200
  C    -42.943600   13.977400   74.699300
  H    -42.242600   14.789100   74.690700
  H    -43.845800   14.422800   74.478900
  C    -42.613800   12.996300   73.475600
  H    -43.391200   12.169400   73.364300
  H    -41.591400   12.583400   73.690300
  C    -42.654500   13.736000   72.049200
  H    -42.132500   14.659100   72.017900
  H    -43.662300   14.070000   71.811400
  H    -42.379500   13.099200   71.197800
  H    -40.226400   17.799600   79.409500
  H    -44.147400   10.784300   77.934800

 Total Charge           Charge          ....    0
 Multiplicity           Mult            ....    1
 Number of Electrons    NEL             ....  134
 Basis Dimension        Dim             ....  322

ORBITAL ENERGIES
----------------

  NO   OCC          E(Eh)            E(eV)
   0   2.0000     -88.967364     -2420.9251
   1   2.0000     -88.964035     -2420.8345
   2   2.0000     -10.328645      -281.0567
   3   2.0000     -10.327317      -281.0206
   4   2.0000     -10.320228      -280.8277
   5   2.0000     -10.317591      -280.7559
   6   2.0000     -10.309870      -280.5458
   7   2.0000     -10.309666      -280.5403
   8   2.0000     -10.307623      -280.4847
   9   2.0000     -10.296939      -280.1939
  10   2.0000     -10.294041      -280.1151
  11   2.0000     -10.290107      -280.0081
  12   2.0000     -10.288220      -279.9567
  13   2.0000     -10.287523      -279.9377
  14   2.0000     -10.283658      -279.8326
  15   2.0000     -10.280694      -279.7519
  16   2.0000      -8.081685      -219.9138
  17   2.0000      -8.079654      -219.8586
  18   2.0000      -6.040369      -164.3668
  19   2.0000      -6.038180      -164.3072
  20   2.0000      -6.036331      -164.2569
  21   2.0000      -6.034109      -164.1964
  22   2.0000      -6.032205      -164.1447
  23   2.0000      -6.030285      -164.0924
  24   2.0000      -1.009436       -27.4681
  25   2.0000      -0.981227       -26.7005
  26   2.0000      -0.914391       -24.8818
  27   2.0000      -0.905306       -24.6346
  28   2.0000      -0.873538       -23.7702
  29   2.0000      -0.850788       -23.1511
  30   2.0000      -0.842130       -22.9155
  31   2.0000      -0.817799       -22.2534
  32   2.0000      -0.782351       -21.2888
  33   2.0000      -0.770474       -20.9657
  34   2.0000      -0.711590       -19.3633
  35   2.0000      -0.696967       -18.9654
  36   2.0000      -0.687840       -18.7171
  37   2.0000      -0.664777       -18.0895
  38   2.0000      -0.639407       -17.3992
  39   2.0000      -0.617453       -16.8018
  40   2.0000      -0.597562       -16.2605
  41   2.0000      -0.577838       -15.7238
  42   2.0000      -0.566429       -15.4133
  43   2.0000      -0.561451       -15.2779
  44   2.0000      -0.527644       -14.3579
  45   2.0000      -0.522194       -14.2096
  46   2.0000      -0.520005       -14.1501
  47   2.0000      -0.509356       -13.8603
  48   2.0000      -0.504964       -13.7408
  49   2.0000      -0.500337       -13.6149
  50   2.0000      -0.485160       -13.2019
  51   2.0000      -0.483215       -13.1490
  52   2.0000      -0.470942       -12.8150
  53   2.0000      -0.464520       -12.6402
  54   2.0000      -0.460135       -12.5209
  55   2.0000      -0.457663       -12.4537
  56   2.0000      -0.448296       -12.1987
  57   2.0000      -0.432787       -11.7767
  58   2.0000      -0.428920       -11.6715
  59   2.0000      -0.426150       -11.5961
  60   2.0000      -0.424252       -11.5445
  61   2.0000      -0.418996       -11.4015
  62   2.0000      -0.415466       -11.3054
  63   2.0000      -0.361583        -9.8392
  64   2.0000      -0.334207        -9.0942
  65   2.0000      -0.323416        -8.8006
  66   2.0000      -0.282273        -7.6810
  67   0.0000       0.021026         0.5721
  68   0.0000       0.074661         2.0316
  69   0.0000       0.103372         2.8129
  70   0.0000       0.118104         3.2138
  71   0.0000       0.134781         3.6676

MULLIKEN ATOMIC CHARGES
-----------------------
   0 S :    0.101206
   1 C :   -0.118634
   2 C :   -0.064019
   3 C :   -0.014712
   4 C :   -0.110716
   5 H :    0.017111
   6 C :    0.077053
   7 H :    0.002781
   8 H :    0.011329
   9 C :   -0.089572
  10 H :    0.035368
  11 H :    0.038475
  12 C :   -0.058200
  13 H :    0.030649
  14 H :    0.045836
  15 H :    0.025572
  16 S :    0.094181
  17 C :   -0.089802
  18 C :   -0.019591
  19 C :   -0.048733
  20 C :   -0.129912
  21 H :    0.003462
  22 C :    0.078723
  23 H :    0.018782
  24 H :    0.016861
  25 C :   -0.121478
  26 H :    0.050161
  27 H :    0.056212
  28 C :   -0.048334
  29 H :    0.024143
  30 H :    0.019179
  31 H :    0.045983
  32 H :    0.056150
  33 H :    0.064487
Sum of atomic charges:    0.0000000

LOEWDIN ATOMIC CHARGES
----------------------
   0 S :    0.387569
   1 C :   -0.198703
   2 C :   -0.052597
   3 C :   -0.075232
   4 C :   -0.182450
   5 H :    0.033761
   6 C :   -0.027548
   7 H :    0.021794
   8 H :    0.026081
   9 C :   -0.046665
  10 H :    0.029680
  11 H :    0.027345
  12 C :   -0.071740
  13 H :    0.022842
  14 H :    0.031086
  15 H :    0.024600
  16 S :    0.414517
  17 C :   -0.184504
  18 C :   -0.057539
  19 C :   -0.049824
  20 C :   -0.207043
  21 H :    0.022427
  22 C :   -0.036741
  23 H :    0.027410
  24 H :    0.023833
  25 C :   -0.033981
  26 H :    0.029170
  27 H :    0.031203
  28 C :   -0.070394
  29 H :    0.018879
  30 H :    0.023923
  31 H :    0.031654
  32 H :    0.036327
  33 H :    0.030860

  Mayer bond orders larger than 0.100000
B(  0-S ,  1-C ) :   1.1136 B(  0-S ,  4-C ) :   1.1278 B(  1-C ,  2-C ) :   1.6465
B(  1-C , 32-H ) :   0.9638 B(  2-C ,  3-C ) :   1.2066 B(  2-C ,  6-C ) :   1.0174
B(  3-C ,  4-C ) :   1.6076 B(  3-C ,  5-H ) :   0.9887 B(  4-C , 20-C ) :   1.0895
B(  6-C ,  7-H ) :   0.9420 B(  6-C ,  8-H ) :   0.9416 B(  6-C ,  9-C ) :   1.0648
B(  9-C , 10-H ) :   0.9558 B(  9-C , 11-H ) :   0.9554 B(  9-C , 12-C ) :   1.0880
B( 12-C , 13-H ) :   0.9745 B( 12-C , 14-H ) :   0.9727 B( 12-C , 15-H ) :   0.9693
B( 16-S , 17-C ) :   1.1568 B( 16-S , 20-C ) :   1.1380 B( 17-C , 18-C ) :   1.6038
B( 17-C , 33-H ) :   0.9653 B( 18-C , 19-C ) :   1.2307 B( 18-C , 21-H ) :   0.9975
B( 19-C , 20-C ) :   1.5507 B( 19-C , 22-C ) :   1.0642 B( 22-C , 23-H ) :   0.9268
B( 22-C , 24-H ) :   0.9178 B( 22-C , 25-C ) :   1.0500 B( 25-C , 26-H ) :   0.9527
B( 25-C , 27-H ) :   0.9624 B( 25-C , 28-C ) :   1.0673 B( 28-C , 29-H ) :   0.9780
B( 28-C , 30-H ) :   0.9745 B( 28-C , 31-H ) :   0.9772

Dispersion correction           -0.013086895
FINAL SINGLE POINT ENERGY     -1339.869299137391

DIPOLE MOMENT
-------------
                                X             Y             Z
Electronic contribution:     -1.30188     -17.80779      26.16113
Nuclear contribution   :      1.14575      18.07700     -26.83538
                        -----------------------------------------
Total Dipole Moment    :     -0.15613       0.26921      -0.67425
                        -----------------------------------------
Magnitude (a.u.)       :      0.74260
Magnitude (Debye)      :      1.88755

Rotational constants in cm-1:     0.016897     0.008305     0.005810
Rotational constants in MHz :   506.553808   248.988504   174.186334

                             ****ORCA TERMINATED NORMALLY****
TOTAL RUN TIME: 0 days 0 hours 0 minutes 27 seconds 490 msec
