                         Program Version 4.2.1 -  RELEASE  -
|  1> ! wB97X-D3 SP def2-SVP
|  2> %pal
|  3> nprocs 16
|  4> end
|  5>
|  6> * xyz 0 1
|  7> S 	 -42.5842 	 28.0419 	 88.9772
|  8> C 	 -44.3131 	 27.8771 	 88.5467
|  9> C 	 -44.6771 	 28.8573 	 87.6017
| 10> C 	 -43.524 	 29.5664 	 87.1665
| 11> C 	 -42.3358 	 29.2814 	 87.7969
| 12> H 	 -43.4972 	 30.407 	 86.4289
| 13> C 	 -46.0315 	 29.0215 	 86.9091
| 14> H 	 -45.9508 	 30.0138 	 86.5318
| 15> H 	 -46.7713 	 28.8656 	 87.6474
| 16> C 	 -46.3503 	 28.0662 	 85.787
| 17> H 	 -47.2014 	 28.4795 	 85.197
| 18> H 	 -45.4649 	 27.9705 	 85.1429
| 19> C 	 -46.6741 	 26.6471 	 86.1825
| 20> H 	 -47.0074 	 26.152 	 85.2906
| 21> H 	 -45.8682 	 26.1209 	 86.6462
| 22> H 	 -47.4133 	 26.7011 	 87.0329
| 23> S 	 -40.0489 	 30.3918 	 88.9097
| 24> C 	 -38.8714 	 31.1174 	 87.9019
| 25> C 	 -39.056 	 30.6378 	 86.6202
| 26> C 	 -40.2826 	 29.964 	 86.321
| 27> C 	 -41.0138 	 29.7972 	 87.4874
| 28> H 	 -38.2966 	 30.7752 	 85.8838
| 29> C 	 -40.7007 	 29.4629 	 84.944
| 30> H 	 -39.909 	 29.6691 	 84.2303
| 31> H 	 -41.5265 	 30.0839 	 84.5802
| 32> C 	 -41.0584 	 27.9166 	 84.6642
| 33> H 	 -41.6347 	 27.7178 	 83.7976
| 34> H 	 -41.868 	 27.6004 	 85.3322
| 35> C 	 -39.6689 	 27.1613 	 84.7473
| 36> H 	 -38.9497 	 27.3768 	 85.6633
| 37> H 	 -39.1224 	 27.3169 	 83.8292
| 38> H 	 -39.811 	 26.0688 	 84.8107
| 39> H 	 -44.9796 	 27.2166 	 89.0097
| 40> H 	 -37.9119 	 31.6137 	 88.1115
| 41> *
| 42>
| 43>                          ****END OF INPUT****

CARTESIAN COORDINATES (ANGSTROEM)
---------------------------------
  S    -42.584200   28.041900   88.977200
  C    -44.313100   27.877100   88.546700
  C    -44.677100   28.857300   87.601700
  C    -43.524000   29.566400   87.166500
  C    -42.335800   29.281400   87.796900
  H    -43.497200   30.407000   86.428900
  C    -46.031500   29.021500   86.909100
  H    -45.950800   30.013800   86.531800
  H    -46.771300   28.865600   87.647400
  C    -46.350300   28.066200   85.787000
  H    -47.201400   28.479500   85.197000
  H    -45.464900   27.970500   85.142900
  C    -46.674100   26.647100   86.182500
  H    -47.007400   26.152000   85.290600
  H    -45.868200   26.120900   86.646200
  H    -47.413300   26.701100   87.032900
  S    -40.048900   30.391800   88.909700
  C    -38.871400   31.117400   87.901900
  C    -39.056000   30.637800   86.620200
  C    -40.282600   29.964000   86.321000
  C    -41.013800   29.797200   87.487400
  H    -38.296600   30.775200   85.883800
  C    -40.700700   29.462900   84.944000
  H    -39.909000   29.669100   84.230300
  H    -41.526500   30.083900   84.580200
  C    -41.058400   27.916600   84.664200
  H    -41.634700   27.717800   83.797600
  H    -41.868000   27.600400   85.332200
  C    -39.668900   27.161300   84.747300
  H    -38.949700   27.376800   85.663300
  H    -39.122400   27.316900   83.829200
  H    -39.811000   26.068800   84.810700
  H    -44.979600   27.216600   89.009700
  H    -37.911900   31.613700   88.111500

 Total Charge           Charge          ....    0
 Multiplicity           Mult            ....    1
 Number of Electrons    NEL             ....  134
 Basis Dimension        Dim             ....  322

ORBITAL ENERGIES
----------------

  NO   OCC          E(Eh)            E(eV)
   0   2.0000     -88.967191     -2420.9203
   1   2.0000     -88.964840     -2420.8564
   2   2.0000     -10.331982      -281.1475
   3   2.0000     -10.328131      -281.0427
   4   2.0000     -10.317762      -280.7606
   5   2.0000     -10.317701      -280.7589
   6   2.0000     -10.309513      -280.5361
   7   2.0000     -10.305840      -280.4362
   8   2.0000     -10.298637      -280.2401
   9   2.0000     -10.295135      -280.1449
  10   2.0000     -10.293610      -280.1034
  11   2.0000     -10.290996      -280.0323
  12   2.0000     -10.288532      -279.9652
  13   2.0000     -10.287965      -279.9498
  14   2.0000     -10.287051      -279.9249
  15   2.0000     -10.277097      -279.6540
  16   2.0000      -8.081594      -219.9114
  17   2.0000      -8.079303      -219.8490
  18   2.0000      -6.040104      -164.3596
  19   2.0000      -6.037888      -164.2993
  20   2.0000      -6.036095      -164.2505
  21   2.0000      -6.033876      -164.1901
  22   2.0000      -6.032417      -164.1504
  23   2.0000      -6.029947      -164.0832
  24   2.0000      -1.005567       -27.3629
  25   2.0000      -0.983276       -26.7563
  26   2.0000      -0.920064       -25.0362
  27   2.0000      -0.897921       -24.4337
  28   2.0000      -0.868742       -23.6397
  29   2.0000      -0.849400       -23.1133
  30   2.0000      -0.841948       -22.9106
  31   2.0000      -0.811255       -22.0754
  32   2.0000      -0.786870       -21.4118
  33   2.0000      -0.772791       -21.0287
  34   2.0000      -0.716739       -19.5035
  35   2.0000      -0.699154       -19.0249
  36   2.0000      -0.695943       -18.9376
  37   2.0000      -0.658911       -17.9299
  38   2.0000      -0.644117       -17.5273
  39   2.0000      -0.619481       -16.8569
  40   2.0000      -0.589515       -16.0415
  41   2.0000      -0.570159       -15.5148
  42   2.0000      -0.558001       -15.1840
  43   2.0000      -0.548388       -14.9224
  44   2.0000      -0.544571       -14.8185
  45   2.0000      -0.535090       -14.5605
  46   2.0000      -0.524546       -14.2736
  47   2.0000      -0.510431       -13.8895
  48   2.0000      -0.507380       -13.8065
  49   2.0000      -0.487740       -13.2721
  50   2.0000      -0.482256       -13.1229
  51   2.0000      -0.477944       -13.0055
  52   2.0000      -0.472338       -12.8530
  53   2.0000      -0.467496       -12.7212
  54   2.0000      -0.461307       -12.5528
  55   2.0000      -0.447568       -12.1789
  56   2.0000      -0.443837       -12.0774
  57   2.0000      -0.439286       -11.9536
  58   2.0000      -0.430951       -11.7268
  59   2.0000      -0.422493       -11.4966
  60   2.0000      -0.418370       -11.3844
  61   2.0000      -0.413236       -11.2447
  62   2.0000      -0.408590       -11.1183
  63   2.0000      -0.346212        -9.4209
  64   2.0000      -0.333365        -9.0713
  65   2.0000      -0.328656        -8.9432
  66   2.0000      -0.290481        -7.9044
  67   0.0000       0.025936         0.7057
  68   0.0000       0.060925         1.6579
  69   0.0000       0.107139         2.9154
  70   0.0000       0.119636         3.2554
  71   0.0000       0.127971         3.4823

MULLIKEN ATOMIC CHARGES
-----------------------
   0 S :    0.109377
   1 C :   -0.115386
   2 C :   -0.105642
   3 C :   -0.014609
   4 C :   -0.129555
   5 H :    0.025536
   6 C :    0.129529
   7 H :    0.018829
   8 H :    0.011347
   9 C :   -0.076884
  10 H :    0.039725
  11 H :    0.022126
  12 C :   -0.045744
  13 H :    0.042082
  14 H :    0.029837
  15 H :    0.018321
  16 S :    0.099029
  17 C :   -0.069954
  18 C :   -0.061124
  19 C :   -0.004138
  20 C :   -0.174109
  21 H :    0.004673
  22 C :    0.047462
  23 H :    0.010510
  24 H :    0.034784
  25 C :   -0.025027
  26 H :    0.015090
  27 H :    0.033147
  28 C :   -0.102521
  29 H :    0.065196
  30 H :    0.034938
  31 H :    0.034742
  32 H :    0.030037
  33 H :    0.068378
Sum of atomic charges:   -0.0000000

LOEWDIN ATOMIC CHARGES
----------------------
   0 S :    0.403293
   1 C :   -0.181418
   2 C :   -0.056909
   3 C :   -0.076160
   4 C :   -0.203455
   5 H :    0.036666
   6 C :   -0.022847
   7 H :    0.031112
   8 H :    0.024435
   9 C :   -0.042600
  10 H :    0.030201
  11 H :    0.024283
  12 C :   -0.064203
  13 H :    0.028769
  14 H :    0.020277
  15 H :    0.024755
  16 S :    0.393919
  17 C :   -0.203780
  18 C :   -0.072853
  19 C :   -0.053726
  20 C :   -0.171584
  21 H :    0.022378
  22 C :   -0.031744
  23 H :    0.027403
  24 H :    0.032066
  25 C :   -0.038229
  26 H :    0.023165
  27 H :    0.027481
  28 C :   -0.079215
  29 H :    0.044534
  30 H :    0.021724
  31 H :    0.024668
  32 H :    0.014573
  33 H :    0.043021

  Mayer bond orders larger than 0.100000
B(  0-S ,  1-C ) :   1.1409 B(  0-S ,  4-C ) :   1.1508 B(  1-C ,  2-C ) :   1.5816
B(  1-C ,  4-C ) :   0.1059 B(  1-C , 32-H ) :   0.9773 B(  2-C ,  3-C ) :   1.2470
B(  2-C ,  6-C ) :   1.0252 B(  3-C ,  4-C ) :   1.5870 B(  3-C ,  5-H ) :   0.9861
B(  4-C , 20-C ) :   1.0371 B(  6-C ,  7-H ) :   0.9313 B(  6-C ,  8-H ) :   0.9325
B(  6-C ,  9-C ) :   1.0813 B(  9-C , 10-H ) :   0.9540 B(  9-C , 11-H ) :   0.9488
B(  9-C , 12-C ) :   1.0840 B( 12-C , 13-H ) :   0.9711 B( 12-C , 14-H ) :   0.9712
B( 12-C , 15-H ) :   0.9734 B( 16-S , 17-C ) :   1.1525 B( 16-S , 20-C ) :   1.1292
B( 17-C , 18-C ) :   1.6114 B( 17-C , 20-C ) :   0.1039 B( 17-C , 33-H ) :   0.9606
B( 18-C , 19-C ) :   1.2464 B( 18-C , 21-H ) :   0.9832 B( 19-C , 20-C ) :   1.5812
B( 19-C , 22-C ) :   1.0414 B( 22-C , 23-H ) :   0.9366 B( 22-C , 24-H ) :   0.9310
B( 22-C , 25-C ) :   1.0589 B( 25-C , 26-H ) :   0.9548 B( 25-C , 27-H ) :   0.9581
B( 25-C , 28-C ) :   1.0477 B( 28-C , 29-H ) :   0.9785 B( 28-C , 30-H ) :   0.9764
B( 28-C , 31-H ) :   0.9765

Dispersion correction           -0.015173962
FINAL SINGLE POINT ENERGY     -1339.857414572190

DIPOLE MOMENT
-------------
                                X             Y             Z
Electronic contribution:     12.43947      10.67100      21.59923
Nuclear contribution   :    -12.64877     -10.75685     -22.32443
                        -----------------------------------------
Total Dipole Moment    :     -0.20930      -0.08585      -0.72520
                        -----------------------------------------
Magnitude (a.u.)       :      0.75967
Magnitude (Debye)      :      1.93092

Rotational constants in cm-1:     0.020986     0.008714     0.007202
Rotational constants in MHz :   629.149184   261.232258   215.907963

                             ****ORCA TERMINATED NORMALLY****
TOTAL RUN TIME: 0 days 0 hours 0 minutes 30 seconds 877 msec
