                         Program Version 4.2.1 -  RELEASE  -
|  1> ! wB97X-D3 SP def2-SVP
|  2> %pal
|  3> nprocs 16
|  4> end
|  5>
|  6> * xyz 0 1
|  7> S 	 -47.0207 	 49.0993 	 104.814
|  8> C 	 -46.6126 	 49.0897 	 106.54
|  9> C 	 -47.1252 	 47.9664 	 107.21
| 10> C 	 -47.6212 	 47.0042 	 106.254
| 11> C 	 -47.6572 	 47.4861 	 104.977
| 12> H 	 -47.9968 	 46.0176 	 106.526
| 13> C 	 -46.8882 	 47.8668 	 108.73
| 14> H 	 -46.7349 	 46.7861 	 108.986
| 15> H 	 -47.8698 	 48.2095 	 109.147
| 16> C 	 -45.8072 	 48.6223 	 109.431
| 17> H 	 -44.8144 	 48.5234 	 109.041
| 18> H 	 -46.0155 	 49.6594 	 109.397
| 19> C 	 -45.7425 	 48.4077 	 110.885
| 20> H 	 -46.6546 	 48.6686 	 111.429
| 21> H 	 -45.4513 	 47.3728 	 111.202
| 22> H 	 -44.8249 	 48.8961 	 111.232
| 23> S 	 -49.4845 	 47.7477 	 102.941
| 24> C 	 -49.8298 	 46.3522 	 101.866
| 25> C 	 -48.904 	 45.3778 	 102.066
| 26> C 	 -48.1485 	 45.6552 	 103.23
| 27> C 	 -48.2589 	 46.8807 	 103.811
| 28> H 	 -48.9247 	 44.4538 	 101.522
| 29> C 	 -47.1397 	 44.5991 	 103.81
| 30> H 	 -46.3882 	 45.1369 	 104.426
| 31> H 	 -46.6276 	 44.0899 	 102.929
| 32> C 	 -47.862 	 43.6242 	 104.707
| 33> H 	 -48.7087 	 44.0346 	 105.19
| 34> H 	 -47.2395 	 43.247 	 105.501
| 35> C 	 -48.4748 	 42.4486 	 103.997
| 36> H 	 -48.9836 	 41.9184 	 104.758
| 37> H 	 -47.6792 	 41.7677 	 103.601
| 38> H 	 -49.2419 	 42.7581 	 103.282
| 39> H 	 -46.127 	 49.8591 	 107.096
| 40> H 	 -50.6009 	 46.2491 	 101.152
| 41> *
| 42>
| 43>                          ****END OF INPUT****

CARTESIAN COORDINATES (ANGSTROEM)
---------------------------------
  S    -47.020700   49.099300  104.814000
  C    -46.612600   49.089700  106.540000
  C    -47.125200   47.966400  107.210000
  C    -47.621200   47.004200  106.254000
  C    -47.657200   47.486100  104.977000
  H    -47.996800   46.017600  106.526000
  C    -46.888200   47.866800  108.730000
  H    -46.734900   46.786100  108.986000
  H    -47.869800   48.209500  109.147000
  C    -45.807200   48.622300  109.431000
  H    -44.814400   48.523400  109.041000
  H    -46.015500   49.659400  109.397000
  C    -45.742500   48.407700  110.885000
  H    -46.654600   48.668600  111.429000
  H    -45.451300   47.372800  111.202000
  H    -44.824900   48.896100  111.232000
  S    -49.484500   47.747700  102.941000
  C    -49.829800   46.352200  101.866000
  C    -48.904000   45.377800  102.066000
  C    -48.148500   45.655200  103.230000
  C    -48.258900   46.880700  103.811000
  H    -48.924700   44.453800  101.522000
  C    -47.139700   44.599100  103.810000
  H    -46.388200   45.136900  104.426000
  H    -46.627600   44.089900  102.929000
  C    -47.862000   43.624200  104.707000
  H    -48.708700   44.034600  105.190000
  H    -47.239500   43.247000  105.501000
  C    -48.474800   42.448600  103.997000
  H    -48.983600   41.918400  104.758000
  H    -47.679200   41.767700  103.601000
  H    -49.241900   42.758100  103.282000
  H    -46.127000   49.859100  107.096000
  H    -50.600900   46.249100  101.152000

 Total Charge           Charge          ....    0
 Multiplicity           Mult            ....    1
 Number of Electrons    NEL             ....  134
 Basis Dimension        Dim             ....  322

ORBITAL ENERGIES
----------------

  NO   OCC          E(Eh)            E(eV)
   0   2.0000     -88.968510     -2420.9562
   1   2.0000     -88.961885     -2420.7760
   2   2.0000     -10.329465      -281.0790
   3   2.0000     -10.320129      -280.8250
   4   2.0000     -10.317180      -280.7447
   5   2.0000     -10.312306      -280.6121
   6   2.0000     -10.307570      -280.4832
   7   2.0000     -10.301410      -280.3156
   8   2.0000     -10.299604      -280.2665
   9   2.0000     -10.297405      -280.2066
  10   2.0000     -10.291764      -280.0531
  11   2.0000     -10.291268      -280.0396
  12   2.0000     -10.281699      -279.7793
  13   2.0000     -10.281033      -279.7611
  14   2.0000     -10.273722      -279.5622
  15   2.0000     -10.272520      -279.5295
  16   2.0000      -8.082907      -219.9471
  17   2.0000      -8.076399      -219.7700
  18   2.0000      -6.041421      -164.3954
  19   2.0000      -6.037588      -164.2911
  20   2.0000      -6.035052      -164.2221
  21   2.0000      -6.033560      -164.1815
  22   2.0000      -6.030904      -164.1092
  23   2.0000      -6.027016      -164.0035
  24   2.0000      -1.009828       -27.4788
  25   2.0000      -0.983691       -26.7676
  26   2.0000      -0.925090       -25.1730
  27   2.0000      -0.910278       -24.7699
  28   2.0000      -0.877641       -23.8818
  29   2.0000      -0.852627       -23.2012
  30   2.0000      -0.843621       -22.9561
  31   2.0000      -0.821813       -22.3627
  32   2.0000      -0.782526       -21.2936
  33   2.0000      -0.768772       -20.9194
  34   2.0000      -0.710308       -19.3285
  35   2.0000      -0.702090       -19.1048
  36   2.0000      -0.686476       -18.6800
  37   2.0000      -0.666987       -18.1496
  38   2.0000      -0.638977       -17.3875
  39   2.0000      -0.617810       -16.8115
  40   2.0000      -0.593995       -16.1634
  41   2.0000      -0.583449       -15.8765
  42   2.0000      -0.575954       -15.6725
  43   2.0000      -0.552670       -15.0389
  44   2.0000      -0.545213       -14.8360
  45   2.0000      -0.535356       -14.5678
  46   2.0000      -0.520696       -14.1689
  47   2.0000      -0.510842       -13.9007
  48   2.0000      -0.508110       -13.8264
  49   2.0000      -0.497733       -13.5440
  50   2.0000      -0.493803       -13.4371
  51   2.0000      -0.478236       -13.0135
  52   2.0000      -0.470054       -12.7908
  53   2.0000      -0.467065       -12.7095
  54   2.0000      -0.462527       -12.5860
  55   2.0000      -0.452569       -12.3150
  56   2.0000      -0.444258       -12.0889
  57   2.0000      -0.435273       -11.8444
  58   2.0000      -0.431078       -11.7302
  59   2.0000      -0.421882       -11.4800
  60   2.0000      -0.420986       -11.4556
  61   2.0000      -0.412793       -11.2327
  62   2.0000      -0.400149       -10.8886
  63   2.0000      -0.351547        -9.5661
  64   2.0000      -0.332812        -9.0563
  65   2.0000      -0.327754        -8.9186
  66   2.0000      -0.292048        -7.9470
  67   0.0000       0.035550         0.9674
  68   0.0000       0.064004         1.7416
  69   0.0000       0.109822         2.9884
  70   0.0000       0.127316         3.4644
  71   0.0000       0.132015         3.5923

MULLIKEN ATOMIC CHARGES
-----------------------
   0 S :    0.119828
   1 C :   -0.112758
   2 C :   -0.091132
   3 C :    0.025471
   4 C :   -0.142067
   5 H :    0.011207
   6 C :    0.043150
   7 H :    0.031058
   8 H :    0.045092
   9 C :   -0.050300
  10 H :    0.027678
  11 H :    0.018860
  12 C :   -0.057764
  13 H :    0.040377
  14 H :    0.019109
  15 H :    0.029075
  16 S :    0.091021
  17 C :   -0.076324
  18 C :   -0.008587
  19 C :   -0.083833
  20 C :   -0.120190
  21 H :    0.022034
  22 C :    0.048640
  23 H :    0.037458
  24 H :    0.037133
  25 C :   -0.067239
  26 H :    0.023144
  27 H :    0.021433
  28 C :   -0.041469
  29 H :    0.015923
  30 H :    0.035238
  31 H :    0.032083
  32 H :    0.037013
  33 H :    0.039640
Sum of atomic charges:    0.0000000

LOEWDIN ATOMIC CHARGES
----------------------
   0 S :    0.403424
   1 C :   -0.192318
   2 C :   -0.056274
   3 C :   -0.061214
   4 C :   -0.188711
   5 H :    0.033501
   6 C :   -0.035745
   7 H :    0.033203
   8 H :    0.042600
   9 C :   -0.051243
  10 H :    0.025929
  11 H :    0.022525
  12 C :   -0.063244
  13 H :    0.026273
  14 H :    0.023628
  15 H :    0.032750
  16 S :    0.387766
  17 C :   -0.156931
  18 C :   -0.070797
  19 C :   -0.058419
  20 C :   -0.208984
  21 H :    0.032414
  22 C :   -0.031931
  23 H :    0.031823
  24 H :    0.034187
  25 C :   -0.047866
  26 H :    0.019740
  27 H :    0.021389
  28 C :   -0.061478
  29 H :    0.020694
  30 H :    0.026829
  31 H :    0.023577
  32 H :    0.019773
  33 H :    0.023131

  Mayer bond orders larger than 0.100000
B(  0-S ,  1-C ) :   1.1216 B(  0-S ,  4-C ) :   1.1456 B(  1-C ,  2-C ) :   1.6392
B(  1-C , 32-H ) :   0.9629 B(  2-C ,  3-C ) :   1.2303 B(  2-C ,  6-C ) :   1.0036
B(  3-C ,  4-C ) :   1.5860 B(  3-C ,  5-H ) :   0.9941 B(  4-C , 20-C ) :   1.0219
B(  6-C ,  7-H ) :   0.9518 B(  6-C ,  8-H ) :   0.9233 B(  6-C ,  9-C ) :   1.0911
B(  9-C , 10-H ) :   0.9502 B(  9-C , 11-H ) :   0.9315 B(  9-C , 12-C ) :   1.1030
B( 12-C , 13-H ) :   0.9738 B( 12-C , 14-H ) :   0.9686 B( 12-C , 15-H ) :   0.9669
B( 16-S , 17-C ) :   1.1476 B( 16-S , 20-C ) :   1.1161 B( 17-C , 18-C ) :   1.6121
B( 17-C , 33-H ) :   0.9715 B( 18-C , 19-C ) :   1.2380 B( 18-C , 21-H ) :   0.9882
B( 19-C , 20-C ) :   1.6416 B( 19-C , 22-C ) :   1.0368 B( 22-C , 23-H ) :   0.9355
B( 22-C , 24-H ) :   0.9474 B( 22-C , 25-C ) :   1.0521 B( 25-C , 26-H ) :   0.9503
B( 25-C , 27-H ) :   0.9553 B( 25-C , 28-C ) :   1.0951 B( 28-C , 29-H ) :   0.9697
B( 28-C , 30-H ) :   0.9732 B( 28-C , 31-H ) :   0.9699

Dispersion correction           -0.014141341
FINAL SINGLE POINT ENERGY     -1339.864742130413

DIPOLE MOMENT
-------------
                                X             Y             Z
Electronic contribution:     -7.63162      16.37988     -21.27472
Nuclear contribution   :      7.73495     -16.84781      21.83102
                        -----------------------------------------
Total Dipole Moment    :      0.10333      -0.46793       0.55629
                        -----------------------------------------
Magnitude (a.u.)       :      0.73423
Magnitude (Debye)      :      1.86627

Rotational constants in cm-1:     0.022211     0.007540     0.005985
Rotational constants in MHz :   665.870568   226.048745   179.416111

                             ****ORCA TERMINATED NORMALLY****
TOTAL RUN TIME: 0 days 0 hours 0 minutes 30 seconds 528 msec
