                         Program Version 4.2.1 -  RELEASE  -
|  1> ! wB97X-D3 SP def2-SVP
|  2> %pal
|  3> nprocs 16
|  4> end
|  5>
|  6> * xyz 0 1
|  7> S 	 0.984802 	 -8.02342 	 90.7805
|  8> C 	 -0.569724 	 -8.35456 	 91.5328
|  9> C 	 -1.08378 	 -9.56099 	 91.0966
| 10> C 	 -0.286874 	 -10.214 	 90.142
| 11> C 	 0.825627 	 -9.54528 	 89.8445
| 12> H 	 -0.584912 	 -11.0913 	 89.5222
| 13> C 	 -2.46809 	 -10.1088 	 91.4765
| 14> H 	 -2.48549 	 -10.2121 	 92.5331
| 15> H 	 -2.60656 	 -11.0914 	 91.1274
| 16> C 	 -3.61606 	 -9.26056 	 91.0855
| 17> H 	 -3.25968 	 -8.20288 	 91.3382
| 18> H 	 -3.83039 	 -9.36172 	 89.9918
| 19> C 	 -4.89281 	 -9.60671 	 91.8627
| 20> H 	 -5.60079 	 -8.84927 	 91.6708
| 21> H 	 -5.22113 	 -10.6427 	 91.728
| 22> H 	 -4.78569 	 -9.60323 	 92.9072
| 23> S 	 2.68225 	 -8.53072 	 88.1584
| 24> C 	 3.66373 	 -9.59516 	 87.05
| 25> C 	 3.46055 	 -10.9172 	 87.4071
| 26> C 	 2.42795 	 -11.0573 	 88.4418
| 27> C 	 1.85705 	 -9.88195 	 88.9255
| 28> H 	 4.01523 	 -11.7262 	 86.9211
| 29> C 	 2.08851 	 -12.3374 	 89.0173
| 30> H 	 1.39613 	 -12.7522 	 88.347
| 31> H 	 1.54061 	 -12.1661 	 89.9565
| 32> C 	 3.31419 	 -13.3197 	 89.3235
| 33> H 	 4.24597 	 -12.7037 	 89.5096
| 34> H 	 3.60713 	 -13.8192 	 88.4071
| 35> C 	 3.06167 	 -14.4056 	 90.4313
| 36> H 	 2.76593 	 -15.3801 	 90.1579
| 37> H 	 2.39715 	 -14.1068 	 91.172
| 38> H 	 4.02286 	 -14.4867 	 90.9559
| 39> H 	 -0.981807 	 -7.82979 	 92.4197
| 40> H 	 4.45278 	 -9.34941 	 86.4
| 41> *
| 42>
| 43>                          ****END OF INPUT****

CARTESIAN COORDINATES (ANGSTROEM)
---------------------------------
  S      0.984802   -8.023420   90.780500
  C     -0.569724   -8.354560   91.532800
  C     -1.083780   -9.560990   91.096600
  C     -0.286874  -10.214000   90.142000
  C      0.825627   -9.545280   89.844500
  H     -0.584912  -11.091300   89.522200
  C     -2.468090  -10.108800   91.476500
  H     -2.485490  -10.212100   92.533100
  H     -2.606560  -11.091400   91.127400
  C     -3.616060   -9.260560   91.085500
  H     -3.259680   -8.202880   91.338200
  H     -3.830390   -9.361720   89.991800
  C     -4.892810   -9.606710   91.862700
  H     -5.600790   -8.849270   91.670800
  H     -5.221130  -10.642700   91.728000
  H     -4.785690   -9.603230   92.907200
  S      2.682250   -8.530720   88.158400
  C      3.663730   -9.595160   87.050000
  C      3.460550  -10.917200   87.407100
  C      2.427950  -11.057300   88.441800
  C      1.857050   -9.881950   88.925500
  H      4.015230  -11.726200   86.921100
  C      2.088510  -12.337400   89.017300
  H      1.396130  -12.752200   88.347000
  H      1.540610  -12.166100   89.956500
  C      3.314190  -13.319700   89.323500
  H      4.245970  -12.703700   89.509600
  H      3.607130  -13.819200   88.407100
  C      3.061670  -14.405600   90.431300
  H      2.765930  -15.380100   90.157900
  H      2.397150  -14.106800   91.172000
  H      4.022860  -14.486700   90.955900
  H     -0.981807   -7.829790   92.419700
  H      4.452780   -9.349410   86.400000

 Total Charge           Charge          ....    0
 Multiplicity           Mult            ....    1
 Number of Electrons    NEL             ....  134
 Basis Dimension        Dim             ....  322

ORBITAL ENERGIES
----------------

  NO   OCC          E(Eh)            E(eV)
   0   2.0000     -88.968513     -2420.9563
   1   2.0000     -88.960472     -2420.7375
   2   2.0000     -10.329334      -281.0755
   3   2.0000     -10.325147      -280.9615
   4   2.0000     -10.321061      -280.8503
   5   2.0000     -10.317480      -280.7529
   6   2.0000     -10.302458      -280.3441
   7   2.0000     -10.300834      -280.2999
   8   2.0000     -10.300156      -280.2815
   9   2.0000     -10.296574      -280.1840
  10   2.0000     -10.292600      -280.0759
  11   2.0000     -10.289587      -279.9939
  12   2.0000     -10.283164      -279.8191
  13   2.0000     -10.280475      -279.7460
  14   2.0000     -10.273236      -279.5490
  15   2.0000     -10.271327      -279.4970
  16   2.0000      -8.082518      -219.9365
  17   2.0000      -8.074176      -219.7095
  18   2.0000      -6.041133      -164.3876
  19   2.0000      -6.037273      -164.2826
  20   2.0000      -6.033066      -164.1681
  21   2.0000      -6.033046      -164.1675
  22   2.0000      -6.028820      -164.0525
  23   2.0000      -6.024569      -163.9369
  24   2.0000      -1.009485       -27.4695
  25   2.0000      -0.979403       -26.6509
  26   2.0000      -0.918788       -25.0015
  27   2.0000      -0.901707       -24.5367
  28   2.0000      -0.875303       -23.8182
  29   2.0000      -0.855101       -23.2685
  30   2.0000      -0.843442       -22.9512
  31   2.0000      -0.822645       -22.3853
  32   2.0000      -0.783540       -21.3212
  33   2.0000      -0.768035       -20.8993
  34   2.0000      -0.713577       -19.4174
  35   2.0000      -0.707722       -19.2581
  36   2.0000      -0.699240       -19.0273
  37   2.0000      -0.660097       -17.9622
  38   2.0000      -0.641984       -17.4693
  39   2.0000      -0.621594       -16.9144
  40   2.0000      -0.589755       -16.0481
  41   2.0000      -0.577134       -15.7046
  42   2.0000      -0.562813       -15.3149
  43   2.0000      -0.557704       -15.1759
  44   2.0000      -0.534041       -14.5320
  45   2.0000      -0.525477       -14.2990
  46   2.0000      -0.519592       -14.1388
  47   2.0000      -0.517227       -14.0745
  48   2.0000      -0.507229       -13.8024
  49   2.0000      -0.502986       -13.6870
  50   2.0000      -0.493396       -13.4260
  51   2.0000      -0.479624       -13.0512
  52   2.0000      -0.475634       -12.9427
  53   2.0000      -0.466994       -12.7075
  54   2.0000      -0.453440       -12.3387
  55   2.0000      -0.451842       -12.2952
  56   2.0000      -0.444827       -12.1044
  57   2.0000      -0.438817       -11.9408
  58   2.0000      -0.428190       -11.6516
  59   2.0000      -0.419279       -11.4092
  60   2.0000      -0.418742       -11.3945
  61   2.0000      -0.418414       -11.3856
  62   2.0000      -0.406575       -11.0635
  63   2.0000      -0.362336        -9.8597
  64   2.0000      -0.338140        -9.2013
  65   2.0000      -0.321249        -8.7416
  66   2.0000      -0.283524        -7.7151
  67   0.0000       0.019916         0.5419
  68   0.0000       0.070095         1.9074
  69   0.0000       0.097137         2.6432
  70   0.0000       0.123936         3.3725
  71   0.0000       0.135317         3.6822

MULLIKEN ATOMIC CHARGES
-----------------------
   0 S :    0.106481
   1 C :   -0.134741
   2 C :   -0.091557
   3 C :   -0.032593
   4 C :   -0.095242
   5 H :    0.039195
   6 C :    0.117530
   7 H :    0.008650
   8 H :   -0.004122
   9 C :   -0.106496
  10 H :    0.033539
  11 H :    0.042044
  12 C :   -0.005990
  13 H :    0.030818
  14 H :    0.027340
  15 H :    0.004297
  16 S :    0.064489
  17 C :   -0.058998
  18 C :   -0.036031
  19 C :   -0.084092
  20 C :   -0.117226
  21 H :    0.032113
  22 C :    0.065385
  23 H :    0.028883
  24 H :    0.029871
  25 C :   -0.113669
  26 H :    0.046988
  27 H :    0.026069
  28 C :   -0.007786
  29 H :    0.028940
  30 H :    0.015382
  31 H :    0.029158
  32 H :    0.066957
  33 H :    0.044414
Sum of atomic charges:   -0.0000000

LOEWDIN ATOMIC CHARGES
----------------------
   0 S :    0.383896
   1 C :   -0.201647
   2 C :   -0.058057
   3 C :   -0.072791
   4 C :   -0.168204
   5 H :    0.045579
   6 C :   -0.031133
   7 H :    0.026260
   8 H :    0.019637
   9 C :   -0.041262
  10 H :    0.030057
  11 H :    0.030361
  12 C :   -0.063118
  13 H :    0.024709
  14 H :    0.028242
  15 H :    0.016834
  16 S :    0.362596
  17 C :   -0.156879
  18 C :   -0.067511
  19 C :   -0.059571
  20 C :   -0.191549
  21 H :    0.036442
  22 C :   -0.039101
  23 H :    0.027121
  24 H :    0.032026
  25 C :   -0.039375
  26 H :    0.032157
  27 H :    0.020236
  28 C :   -0.060909
  29 H :    0.020379
  30 H :    0.016952
  31 H :    0.035280
  32 H :    0.038067
  33 H :    0.024274

  Mayer bond orders larger than 0.100000
B(  0-S ,  1-C ) :   1.1199 B(  0-S ,  4-C ) :   1.1209 B(  1-C ,  2-C ) :   1.6327
B(  1-C , 32-H ) :   0.9582 B(  2-C ,  3-C ) :   1.2350 B(  2-C ,  6-C ) :   1.0183
B(  3-C ,  4-C ) :   1.6069 B(  3-C ,  5-H ) :   0.9857 B(  4-C , 20-C ) :   1.0807
B(  6-C ,  7-H ) :   0.9303 B(  6-C ,  8-H ) :   0.9347 B(  6-C ,  9-C ) :   1.0704
B(  9-C , 10-H ) :   0.9552 B(  9-C , 11-H ) :   0.9536 B(  9-C , 12-C ) :   1.0811
B( 12-C , 13-H ) :   0.9724 B( 12-C , 14-H ) :   0.9713 B( 12-C , 15-H ) :   0.9703
B( 16-S , 17-C ) :   1.1284 B( 16-S , 20-C ) :   1.0950 B( 17-C , 18-C ) :   1.6379
B( 17-C , 33-H ) :   0.9692 B( 18-C , 19-C ) :   1.2065 B( 18-C , 21-H ) :   0.9846
B( 19-C , 20-C ) :   1.6037 B( 19-C , 22-C ) :   1.0661 B( 22-C , 23-H ) :   0.9156
B( 22-C , 24-H ) :   0.9395 B( 22-C , 25-C ) :   1.0431 B( 25-C , 26-H ) :   0.9706
B( 25-C , 27-H ) :   0.9501 B( 25-C , 28-C ) :   1.0670 B( 28-C , 29-H ) :   0.9795
B( 28-C , 30-H ) :   0.9785 B( 28-C , 31-H ) :   0.9753

Dispersion correction           -0.013360474
FINAL SINGLE POINT ENERGY     -1339.852989619996

DIPOLE MOMENT
-------------
                                X             Y             Z
Electronic contribution:     14.83942      20.52011      -8.47331
Nuclear contribution   :    -15.08309     -21.27945       8.63345
                        -----------------------------------------
Total Dipole Moment    :     -0.24367      -0.75933       0.16014
                        -----------------------------------------
Magnitude (a.u.)       :      0.81339
Magnitude (Debye)      :      2.06748

Rotational constants in cm-1:     0.019294     0.007635     0.006063
Rotational constants in MHz :   578.411842   228.885305   181.750987

                             ****ORCA TERMINATED NORMALLY****
TOTAL RUN TIME: 0 days 0 hours 0 minutes 31 seconds 649 msec
