                         Program Version 4.2.1 -  RELEASE  -
|  1> ! wB97X-D3 SP def2-SVP
|  2> %pal
|  3> nprocs 16
|  4> end
|  5>
|  6> * xyz 0 1
|  7> S 	 -2.4599 	 49.6409 	 48.0774
|  8> C 	 -2.27954 	 51.3726 	 48.058
|  9> C 	 -3.42935 	 51.9517 	 47.4825
| 10> C 	 -4.46889 	 50.9999 	 47.0836
| 11> C 	 -4.06631 	 49.6997 	 47.3211
| 12> H 	 -5.48904 	 51.1705 	 46.6515
| 13> C 	 -3.60055 	 53.3969 	 47.2717
| 14> H 	 -4.69455 	 53.5282 	 47.037
| 15> H 	 -3.02192 	 53.7226 	 46.451
| 16> C 	 -3.27227 	 54.2473 	 48.4843
| 17> H 	 -2.15935 	 54.1996 	 48.6712
| 18> H 	 -3.27622 	 55.3287 	 48.0707
| 19> C 	 -4.24772 	 54.0204 	 49.6528
| 20> H 	 -5.2499 	 53.9904 	 49.2677
| 21> H 	 -4.05257 	 53.0446 	 50.0288
| 22> H 	 -4.1005 	 54.7636 	 50.4452
| 23> S 	 -4.73833 	 47.6972 	 45.6887
| 24> C 	 -5.45286 	 46.2518 	 46.2575
| 25> C 	 -5.75734 	 46.3742 	 47.5808
| 26> C 	 -5.52283 	 47.7199 	 48.0642
| 27> C 	 -4.84482 	 48.5169 	 47.1641
| 28> H 	 -6.1868 	 45.6523 	 48.2018
| 29> C 	 -5.8165 	 48.0432 	 49.5091
| 30> H 	 -5.41344 	 49.0121 	 49.6092
| 31> H 	 -5.25953 	 47.3599 	 50.1868
| 32> C 	 -7.28591 	 48.0648 	 49.9466
| 33> H 	 -7.21336 	 48.0427 	 51.0664
| 34> H 	 -7.65813 	 47.0615 	 49.5858
| 35> C 	 -8.11332 	 49.2424 	 49.3833
| 36> H 	 -9.06632 	 49.2929 	 49.9254
| 37> H 	 -8.193 	 49.3694 	 48.3203
| 38> H 	 -7.63235 	 50.1294 	 49.7249
| 39> H 	 -1.35519 	 51.8296 	 48.3174
| 40> H 	 -5.75156 	 45.5067 	 45.5375
| 41> *
| 42>
| 43>                          ****END OF INPUT****

CARTESIAN COORDINATES (ANGSTROEM)
---------------------------------
  S     -2.459900   49.640900   48.077400
  C     -2.279540   51.372600   48.058000
  C     -3.429350   51.951700   47.482500
  C     -4.468890   50.999900   47.083600
  C     -4.066310   49.699700   47.321100
  H     -5.489040   51.170500   46.651500
  C     -3.600550   53.396900   47.271700
  H     -4.694550   53.528200   47.037000
  H     -3.021920   53.722600   46.451000
  C     -3.272270   54.247300   48.484300
  H     -2.159350   54.199600   48.671200
  H     -3.276220   55.328700   48.070700
  C     -4.247720   54.020400   49.652800
  H     -5.249900   53.990400   49.267700
  H     -4.052570   53.044600   50.028800
  H     -4.100500   54.763600   50.445200
  S     -4.738330   47.697200   45.688700
  C     -5.452860   46.251800   46.257500
  C     -5.757340   46.374200   47.580800
  C     -5.522830   47.719900   48.064200
  C     -4.844820   48.516900   47.164100
  H     -6.186800   45.652300   48.201800
  C     -5.816500   48.043200   49.509100
  H     -5.413440   49.012100   49.609200
  H     -5.259530   47.359900   50.186800
  C     -7.285910   48.064800   49.946600
  H     -7.213360   48.042700   51.066400
  H     -7.658130   47.061500   49.585800
  C     -8.113320   49.242400   49.383300
  H     -9.066320   49.292900   49.925400
  H     -8.193000   49.369400   48.320300
  H     -7.632350   50.129400   49.724900
  H     -1.355190   51.829600   48.317400
  H     -5.751560   45.506700   45.537500

 Total Charge           Charge          ....    0
 Multiplicity           Mult            ....    1
 Number of Electrons    NEL             ....  134
 Basis Dimension        Dim             ....  322

ORBITAL ENERGIES
----------------

  NO   OCC          E(Eh)            E(eV)
   0   2.0000     -88.964725     -2420.8532
   1   2.0000     -88.957288     -2420.6509
   2   2.0000     -10.328148      -281.0432
   3   2.0000     -10.315823      -280.7078
   4   2.0000     -10.315455      -280.6978
   5   2.0000     -10.313675      -280.6494
   6   2.0000     -10.304522      -280.4003
   7   2.0000     -10.303264      -280.3661
   8   2.0000     -10.298452      -280.2351
   9   2.0000     -10.294042      -280.1151
  10   2.0000     -10.293638      -280.1041
  11   2.0000     -10.288391      -279.9613
  12   2.0000     -10.284294      -279.8499
  13   2.0000     -10.281221      -279.7662
  14   2.0000     -10.275462      -279.6095
  15   2.0000     -10.274184      -279.5748
  16   2.0000      -8.079101      -219.8435
  17   2.0000      -8.074537      -219.7193
  18   2.0000      -6.037623      -164.2921
  19   2.0000      -6.033530      -164.1807
  20   2.0000      -6.032878      -164.1630
  21   2.0000      -6.029991      -164.0844
  22   2.0000      -6.028477      -164.0432
  23   2.0000      -6.025517      -163.9626
  24   2.0000      -1.014255       -27.5993
  25   2.0000      -0.984487       -26.7893
  26   2.0000      -0.916507       -24.9394
  27   2.0000      -0.907971       -24.7071
  28   2.0000      -0.874134       -23.7864
  29   2.0000      -0.845987       -23.0205
  30   2.0000      -0.844519       -22.9805
  31   2.0000      -0.816634       -22.2217
  32   2.0000      -0.783835       -21.3292
  33   2.0000      -0.772183       -21.0122
  34   2.0000      -0.707310       -19.2469
  35   2.0000      -0.701729       -19.0950
  36   2.0000      -0.693844       -18.8805
  37   2.0000      -0.661663       -18.0048
  38   2.0000      -0.645887       -17.5755
  39   2.0000      -0.606297       -16.4982
  40   2.0000      -0.596577       -16.2337
  41   2.0000      -0.572233       -15.5712
  42   2.0000      -0.562905       -15.3174
  43   2.0000      -0.551161       -14.9978
  44   2.0000      -0.544189       -14.8081
  45   2.0000      -0.535861       -14.5815
  46   2.0000      -0.517939       -14.0938
  47   2.0000      -0.514871       -14.0104
  48   2.0000      -0.505045       -13.7430
  49   2.0000      -0.502827       -13.6826
  50   2.0000      -0.495889       -13.4938
  51   2.0000      -0.479419       -13.0456
  52   2.0000      -0.470298       -12.7975
  53   2.0000      -0.464411       -12.6373
  54   2.0000      -0.458311       -12.4713
  55   2.0000      -0.448013       -12.1910
  56   2.0000      -0.439945       -11.9715
  57   2.0000      -0.434054       -11.8112
  58   2.0000      -0.433352       -11.7921
  59   2.0000      -0.427291       -11.6272
  60   2.0000      -0.416806       -11.3419
  61   2.0000      -0.408843       -11.1252
  62   2.0000      -0.402547       -10.9539
  63   2.0000      -0.335900        -9.1403
  64   2.0000      -0.331133        -9.0106
  65   2.0000      -0.315650        -8.5893
  66   2.0000      -0.310434        -8.4473
  67   0.0000       0.044767         1.2182
  68   0.0000       0.054939         1.4950
  69   0.0000       0.108719         2.9584
  70   0.0000       0.121907         3.3173
  71   0.0000       0.129762         3.5310

MULLIKEN ATOMIC CHARGES
-----------------------
   0 S :    0.117949
   1 C :   -0.119509
   2 C :   -0.098800
   3 C :    0.029263
   4 C :   -0.165758
   5 H :    0.040392
   6 C :    0.075005
   7 H :    0.020987
   8 H :    0.032967
   9 C :   -0.135324
  10 H :    0.028058
  11 H :    0.026572
  12 C :    0.003450
  13 H :    0.023668
  14 H :    0.033615
  15 H :    0.044293
  16 S :    0.108128
  17 C :   -0.085161
  18 C :    0.000712
  19 C :   -0.064472
  20 C :   -0.184957
  21 H :    0.000270
  22 C :    0.070350
  23 H :    0.000873
  24 H :    0.038150
  25 C :   -0.090920
  26 H :    0.040262
  27 H :    0.025478
  28 C :   -0.017136
  29 H :    0.035333
  30 H :    0.044173
  31 H :    0.008524
  32 H :    0.048720
  33 H :    0.064844
Sum of atomic charges:    0.0000000

LOEWDIN ATOMIC CHARGES
----------------------
   0 S :    0.404611
   1 C :   -0.197569
   2 C :   -0.062103
   3 C :   -0.063107
   4 C :   -0.193345
   5 H :    0.045704
   6 C :   -0.039634
   7 H :    0.032354
   8 H :    0.029907
   9 C :   -0.051359
  10 H :    0.023325
  11 H :    0.027003
  12 C :   -0.056931
  13 H :    0.025078
  14 H :    0.024874
  15 H :    0.030566
  16 S :    0.447026
  17 C :   -0.189689
  18 C :   -0.065528
  19 C :   -0.053159
  20 C :   -0.236242
  21 H :    0.020362
  22 C :   -0.037155
  23 H :    0.017932
  24 H :    0.036643
  25 C :   -0.040896
  26 H :    0.032215
  27 H :    0.021827
  28 C :   -0.065971
  29 H :    0.031999
  30 H :    0.027015
  31 H :    0.021818
  32 H :    0.023231
  33 H :    0.029197

  Mayer bond orders larger than 0.100000
B(  0-S ,  1-C ) :   1.1418 B(  0-S ,  4-C ) :   1.1451 B(  1-C ,  2-C ) :   1.5835
B(  1-C , 32-H ) :   0.9794 B(  2-C ,  3-C ) :   1.2218 B(  2-C ,  6-C ) :   1.0249
B(  3-C ,  4-C ) :   1.6010 B(  3-C ,  5-H ) :   0.9816 B(  4-C , 20-C ) :   1.0140
B(  6-C ,  7-H ) :   0.9439 B(  6-C ,  8-H ) :   0.9271 B(  6-C ,  9-C ) :   1.0939
B(  9-C , 10-H ) :   0.9496 B(  9-C , 11-H ) :   0.9547 B(  9-C , 12-C ) :   1.0540
B( 12-C , 13-H ) :   0.9731 B( 12-C , 14-H ) :   0.9726 B( 12-C , 15-H ) :   0.9755
B( 16-S , 17-C ) :   1.1824 B( 16-S , 20-C ) :   1.1683 B( 17-C , 18-C ) :   1.5492
B( 17-C , 33-H ) :   0.9733 B( 18-C , 19-C ) :   1.2670 B( 18-C , 21-H ) :   1.0018
B( 19-C , 20-C ) :   1.5727 B( 19-C , 22-C ) :   1.0492 B( 22-C , 23-H ) :   0.9274
B( 22-C , 24-H ) :   0.9373 B( 22-C , 25-C ) :   1.0670 B( 25-C , 26-H ) :   0.9548
B( 25-C , 27-H ) :   0.9580 B( 25-C , 28-C ) :   1.0685 B( 28-C , 29-H ) :   0.9722
B( 28-C , 30-H ) :   0.9773 B( 28-C , 31-H ) :   0.9691

Dispersion correction           -0.014976717
FINAL SINGLE POINT ENERGY     -1339.874514048359

DIPOLE MOMENT
-------------
                                X             Y             Z
Electronic contribution:     12.38375     -16.92936     -15.00720
Nuclear contribution   :    -12.63009      17.21143      15.26252
                        -----------------------------------------
Total Dipole Moment    :     -0.24634       0.28207       0.25532
                        -----------------------------------------
Magnitude (a.u.)       :      0.45325
Magnitude (Debye)      :      1.15207

Rotational constants in cm-1:     0.020573     0.008793     0.007175
Rotational constants in MHz :   616.759061   263.616970   215.107397

                             ****ORCA TERMINATED NORMALLY****
TOTAL RUN TIME: 0 days 0 hours 0 minutes 33 seconds 562 msec
