                         Program Version 4.2.1 -  RELEASE  -
|  1> ! wB97X-D3 SP def2-SVP
|  2> %pal
|  3> nprocs 16
|  4> end
|  5>
|  6> * xyz 0 1
|  7> S 	 -57.4384 	 37.5154 	 92.0105
|  8> C 	 -58.7421 	 36.2959 	 92.3853
|  9> C 	 -59.3302 	 35.9496 	 91.147
| 10> C 	 -58.8911 	 36.7198 	 90.0185
| 11> C 	 -57.7731 	 37.58 	 90.2288
| 12> H 	 -59.3887 	 36.6872 	 89.0546
| 13> C 	 -60.5437 	 35.0037 	 90.9327
| 14> H 	 -61.1471 	 35.5002 	 90.1177
| 15> H 	 -61.1787 	 35.0455 	 91.8359
| 16> C 	 -60.1592 	 33.5823 	 90.4624
| 17> H 	 -59.8444 	 33.0403 	 91.3845
| 18> H 	 -61.0116 	 33.0186 	 90.0219
| 19> C 	 -58.9704 	 33.4036 	 89.4957
| 20> H 	 -58.8274 	 32.2612 	 89.4886
| 21> H 	 -59.1531 	 33.6908 	 88.4667
| 22> H 	 -58.0024 	 33.8855 	 89.8325
| 23> S 	 -56.9101 	 40.1948 	 89.8752
| 24> C 	 -55.8284 	 40.5179 	 88.4858
| 25> C 	 -55.8623 	 39.433 	 87.5972
| 26> C 	 -56.5773 	 38.2984 	 88.0704
| 27> C 	 -57.0169 	 38.4716 	 89.3759
| 28> H 	 -55.3967 	 39.482 	 86.6948
| 29> C 	 -56.634 	 36.9566 	 87.414
| 30> H 	 -56.2897 	 37.2812 	 86.4625
| 31> H 	 -57.6985 	 36.7679 	 87.3054
| 32> C 	 -56.0692 	 35.6754 	 87.9799
| 33> H 	 -56.3954 	 34.9184 	 87.2565
| 34> H 	 -56.4197 	 35.2637 	 88.8425
| 35> C 	 -54.5988 	 35.8273 	 88.1521
| 36> H 	 -54.2283 	 36.6429 	 88.7487
| 37> H 	 -54.0721 	 35.9316 	 87.2663
| 38> H 	 -54.1963 	 34.9572 	 88.7066
| 39> H 	 -58.8375 	 35.6785 	 93.2338
| 40> H 	 -55.2335 	 41.3727 	 88.2351
| 41> *
| 42>
| 43>                          ****END OF INPUT****

CARTESIAN COORDINATES (ANGSTROEM)
---------------------------------
  S    -57.438400   37.515400   92.010500
  C    -58.742100   36.295900   92.385300
  C    -59.330200   35.949600   91.147000
  C    -58.891100   36.719800   90.018500
  C    -57.773100   37.580000   90.228800
  H    -59.388700   36.687200   89.054600
  C    -60.543700   35.003700   90.932700
  H    -61.147100   35.500200   90.117700
  H    -61.178700   35.045500   91.835900
  C    -60.159200   33.582300   90.462400
  H    -59.844400   33.040300   91.384500
  H    -61.011600   33.018600   90.021900
  C    -58.970400   33.403600   89.495700
  H    -58.827400   32.261200   89.488600
  H    -59.153100   33.690800   88.466700
  H    -58.002400   33.885500   89.832500
  S    -56.910100   40.194800   89.875200
  C    -55.828400   40.517900   88.485800
  C    -55.862300   39.433000   87.597200
  C    -56.577300   38.298400   88.070400
  C    -57.016900   38.471600   89.375900
  H    -55.396700   39.482000   86.694800
  C    -56.634000   36.956600   87.414000
  H    -56.289700   37.281200   86.462500
  H    -57.698500   36.767900   87.305400
  C    -56.069200   35.675400   87.979900
  H    -56.395400   34.918400   87.256500
  H    -56.419700   35.263700   88.842500
  C    -54.598800   35.827300   88.152100
  H    -54.228300   36.642900   88.748700
  H    -54.072100   35.931600   87.266300
  H    -54.196300   34.957200   88.706600
  H    -58.837500   35.678500   93.233800
  H    -55.233500   41.372700   88.235100

 Total Charge           Charge          ....    0
 Multiplicity           Mult            ....    1
 Number of Electrons    NEL             ....  134
 Basis Dimension        Dim             ....  322

ORBITAL ENERGIES
----------------

  NO   OCC          E(Eh)            E(eV)
   0   2.0000     -88.969371     -2420.9797
   1   2.0000     -88.966307     -2420.8963
   2   2.0000     -10.342954      -281.4461
   3   2.0000     -10.329025      -281.0671
   4   2.0000     -10.323567      -280.9185
   5   2.0000     -10.322844      -280.8989
   6   2.0000     -10.309953      -280.5481
   7   2.0000     -10.303104      -280.3617
   8   2.0000     -10.301921      -280.3295
   9   2.0000     -10.301904      -280.3291
  10   2.0000     -10.296451      -280.1807
  11   2.0000     -10.292503      -280.0732
  12   2.0000     -10.289594      -279.9941
  13   2.0000     -10.285927      -279.8943
  14   2.0000     -10.277777      -279.6725
  15   2.0000     -10.262316      -279.2518
  16   2.0000      -8.082425      -219.9340
  17   2.0000      -8.078687      -219.8323
  18   2.0000      -6.041096      -164.3866
  19   2.0000      -6.037435      -164.2870
  20   2.0000      -6.037282      -164.2828
  21   2.0000      -6.033341      -164.1756
  22   2.0000      -6.032974      -164.1656
  23   2.0000      -6.029455      -164.0698
  24   2.0000      -0.996930       -27.1278
  25   2.0000      -0.970202       -26.4006
  26   2.0000      -0.918246       -24.9868
  27   2.0000      -0.903752       -24.5923
  28   2.0000      -0.866373       -23.5752
  29   2.0000      -0.855641       -23.2832
  30   2.0000      -0.835565       -22.7369
  31   2.0000      -0.812929       -22.1209
  32   2.0000      -0.785668       -21.3791
  33   2.0000      -0.773043       -21.0356
  34   2.0000      -0.722619       -19.6635
  35   2.0000      -0.700973       -19.0744
  36   2.0000      -0.692226       -18.8364
  37   2.0000      -0.669982       -18.2311
  38   2.0000      -0.636567       -17.3219
  39   2.0000      -0.612288       -16.6612
  40   2.0000      -0.591111       -16.0850
  41   2.0000      -0.568207       -15.4617
  42   2.0000      -0.562297       -15.3009
  43   2.0000      -0.550156       -14.9705
  44   2.0000      -0.545715       -14.8497
  45   2.0000      -0.541577       -14.7371
  46   2.0000      -0.523370       -14.2416
  47   2.0000      -0.510343       -13.8871
  48   2.0000      -0.504963       -13.7407
  49   2.0000      -0.496305       -13.5052
  50   2.0000      -0.491049       -13.3621
  51   2.0000      -0.475981       -12.9521
  52   2.0000      -0.472893       -12.8681
  53   2.0000      -0.460092       -12.5198
  54   2.0000      -0.454481       -12.3671
  55   2.0000      -0.451187       -12.2774
  56   2.0000      -0.442927       -12.0527
  57   2.0000      -0.438032       -11.9195
  58   2.0000      -0.433389       -11.7931
  59   2.0000      -0.419061       -11.4032
  60   2.0000      -0.415356       -11.3024
  61   2.0000      -0.405940       -11.0462
  62   2.0000      -0.404641       -11.0108
  63   2.0000      -0.344827        -9.3832
  64   2.0000      -0.332013        -9.0345
  65   2.0000      -0.327252        -8.9050
  66   2.0000      -0.287951        -7.8355
  67   0.0000       0.010272         0.2795
  68   0.0000       0.060464         1.6453
  69   0.0000       0.099888         2.7181
  70   0.0000       0.113764         3.0957
  71   0.0000       0.120487         3.2786

MULLIKEN ATOMIC CHARGES
-----------------------
   0 S :    0.080179
   1 C :   -0.084960
   2 C :   -0.133437
   3 C :    0.025632
   4 C :   -0.156364
   5 H :    0.021062
   6 C :    0.040241
   7 H :    0.035859
   8 H :    0.039989
   9 C :   -0.083156
  10 H :    0.032351
  11 H :    0.042728
  12 C :   -0.103754
  13 H :    0.042906
  14 H :    0.033752
  15 H :    0.069200
  16 S :    0.108513
  17 C :   -0.069213
  18 C :   -0.015025
  19 C :   -0.055585
  20 C :   -0.144312
  21 H :   -0.021143
  22 C :    0.088173
  23 H :   -0.002940
  24 H :    0.017832
  25 C :    0.039862
  26 H :    0.023566
  27 H :    0.002061
  28 C :   -0.035373
  29 H :    0.033744
  30 H :    0.005769
  31 H :    0.021856
  32 H :    0.048669
  33 H :    0.051319
Sum of atomic charges:   -0.0000000

LOEWDIN ATOMIC CHARGES
----------------------
   0 S :    0.360035
   1 C :   -0.180911
   2 C :   -0.060811
   3 C :   -0.066587
   4 C :   -0.169647
   5 H :    0.028648
   6 C :   -0.038379
   7 H :    0.034944
   8 H :    0.033493
   9 C :   -0.050417
  10 H :    0.027827
  11 H :    0.030101
  12 C :   -0.077484
  13 H :    0.038426
  14 H :    0.017489
  15 H :    0.032060
  16 S :    0.380110
  17 C :   -0.167797
  18 C :   -0.058963
  19 C :   -0.050918
  20 C :   -0.189232
  21 H :    0.013758
  22 C :   -0.031042
  23 H :    0.027160
  24 H :    0.033112
  25 C :   -0.028392
  26 H :    0.034988
  27 H :    0.013644
  28 C :   -0.060915
  29 H :    0.028989
  30 H :    0.012715
  31 H :    0.028573
  32 H :    0.025315
  33 H :    0.030108

  Mayer bond orders larger than 0.100000
B(  0-S ,  1-C ) :   1.1219 B(  0-S ,  4-C ) :   1.1420 B(  1-C ,  2-C ) :   1.6007
B(  1-C ,  4-C ) :   0.1141 B(  1-C , 32-H ) :   0.9703 B(  2-C ,  3-C ) :   1.2521
B(  2-C ,  6-C ) :   1.0077 B(  3-C ,  4-C ) :   1.5385 B(  3-C ,  5-H ) :   0.9859
B(  4-C , 20-C ) :   1.0803 B(  6-C ,  7-H ) :   0.9469 B(  6-C ,  8-H ) :   0.9547
B(  6-C ,  9-C ) :   1.0515 B(  9-C , 10-H ) :   0.9570 B(  9-C , 11-H ) :   0.9577
B(  9-C , 12-C ) :   1.0887 B( 12-C , 13-H ) :   0.9701 B( 12-C , 14-H ) :   0.9752
B( 12-C , 15-H ) :   0.9603 B( 16-S , 17-C ) :   1.1391 B( 16-S , 20-C ) :   1.1253
B( 17-C , 18-C ) :   1.6081 B( 17-C , 20-C ) :   0.1051 B( 17-C , 33-H ) :   0.9680
B( 18-C , 19-C ) :   1.2411 B( 18-C , 21-H ) :   0.9977 B( 19-C , 20-C ) :   1.5666
B( 19-C , 22-C ) :   1.0393 B( 22-C , 23-H ) :   0.9274 B( 22-C , 24-H ) :   0.9122
B( 22-C , 25-C ) :   1.0751 B( 25-C , 26-H ) :   0.9408 B( 25-C , 27-H ) :   0.9439
B( 25-C , 28-C ) :   1.0847 B( 28-C , 29-H ) :   0.9724 B( 28-C , 30-H ) :   0.9750
B( 28-C , 31-H ) :   0.9721

Dispersion correction           -0.016450786
FINAL SINGLE POINT ENERGY     -1339.836247223720

DIPOLE MOMENT
-------------
                                X             Y             Z
Electronic contribution:      1.69061      25.46218      11.73099
Nuclear contribution   :     -1.83121     -26.03316     -12.29155
                        -----------------------------------------
Total Dipole Moment    :     -0.14060      -0.57098      -0.56055
                        -----------------------------------------
Magnitude (a.u.)       :      0.81240
Magnitude (Debye)      :      2.06497

Rotational constants in cm-1:     0.020224     0.009911     0.007699
Rotational constants in MHz :   606.294638   297.122747   230.814645

                             ****ORCA TERMINATED NORMALLY****
TOTAL RUN TIME: 0 days 0 hours 0 minutes 31 seconds 617 msec
