                         Program Version 4.2.1 -  RELEASE  -
|  1> ! wB97X-D3 SP def2-SVP
|  2> %pal
|  3> nprocs 16
|  4> end
|  5>
|  6> * xyz 0 1
|  7> S 	 -3.64302 	 -14.1957 	 79.2263
|  8> C 	 -5.26715 	 -13.7129 	 78.9894
|  9> C 	 -5.87737 	 -13.7788 	 80.2328
| 10> C 	 -5.01889 	 -14.0769 	 81.3322
| 11> C 	 -3.7105 	 -14.1709 	 80.9408
| 12> H 	 -5.22205 	 -14.1754 	 82.3177
| 13> C 	 -7.35018 	 -13.473 	 80.5425
| 14> H 	 -7.54292 	 -13.9997 	 81.4156
| 15> H 	 -8.02567 	 -13.9019 	 79.799
| 16> C 	 -7.74905 	 -12.0427 	 80.6165
| 17> H 	 -7.12721 	 -11.4734 	 81.2673
| 18> H 	 -7.74375 	 -11.6977 	 79.6275
| 19> C 	 -9.17375 	 -11.8304 	 81.0634
| 20> H 	 -9.80976 	 -12.4839 	 80.6446
| 21> H 	 -9.29784 	 -11.8174 	 82.1343
| 22> H 	 -9.48951 	 -10.778 	 80.8902
| 23> S 	 -2.0483 	 -16.0841 	 81.9213
| 24> C 	 -0.676517 	 -15.6854 	 82.8488
| 25> C 	 -0.703169 	 -14.3991 	 83.2397
| 26> C 	 -1.80971 	 -13.6834 	 82.665
| 27> C 	 -2.52722 	 -14.413 	 81.752
| 28> H 	 -0.00369034 	 -13.8503 	 83.8698
| 29> C 	 -2.06517 	 -12.2438 	 82.8889
| 30> H 	 -2.60578 	 -12.0111 	 81.9867
| 31> H 	 -1.11599 	 -11.7028 	 82.8375
| 32> C 	 -2.89635 	 -11.8153 	 84.0482
| 33> H 	 -3.83681 	 -12.3328 	 84.0935
| 34> H 	 -3.27835 	 -10.7929 	 83.9326
| 35> C 	 -2.23622 	 -12.033 	 85.408
| 36> H 	 -2.45472 	 -13.0733 	 85.7465
| 37> H 	 -2.7353 	 -11.4955 	 86.1589
| 38> H 	 -1.17035 	 -11.9371 	 85.5526
| 39> H 	 -5.76412 	 -13.4752 	 78.0765
| 40> H 	 0.107768 	 -16.3812 	 83.1804
| 41> *
| 42>
| 43>                          ****END OF INPUT****

CARTESIAN COORDINATES (ANGSTROEM)
---------------------------------
  S     -3.643020  -14.195700   79.226300
  C     -5.267150  -13.712900   78.989400
  C     -5.877370  -13.778800   80.232800
  C     -5.018890  -14.076900   81.332200
  C     -3.710500  -14.170900   80.940800
  H     -5.222050  -14.175400   82.317700
  C     -7.350180  -13.473000   80.542500
  H     -7.542920  -13.999700   81.415600
  H     -8.025670  -13.901900   79.799000
  C     -7.749050  -12.042700   80.616500
  H     -7.127210  -11.473400   81.267300
  H     -7.743750  -11.697700   79.627500
  C     -9.173750  -11.830400   81.063400
  H     -9.809760  -12.483900   80.644600
  H     -9.297840  -11.817400   82.134300
  H     -9.489510  -10.778000   80.890200
  S     -2.048300  -16.084100   81.921300
  C     -0.676517  -15.685400   82.848800
  C     -0.703169  -14.399100   83.239700
  C     -1.809710  -13.683400   82.665000
  C     -2.527220  -14.413000   81.752000
  H     -0.003690  -13.850300   83.869800
  C     -2.065170  -12.243800   82.888900
  H     -2.605780  -12.011100   81.986700
  H     -1.115990  -11.702800   82.837500
  C     -2.896350  -11.815300   84.048200
  H     -3.836810  -12.332800   84.093500
  H     -3.278350  -10.792900   83.932600
  C     -2.236220  -12.033000   85.408000
  H     -2.454720  -13.073300   85.746500
  H     -2.735300  -11.495500   86.158900
  H     -1.170350  -11.937100   85.552600
  H     -5.764120  -13.475200   78.076500
  H      0.107768  -16.381200   83.180400

 Total Charge           Charge          ....    0
 Multiplicity           Mult            ....    1
 Number of Electrons    NEL             ....  134
 Basis Dimension        Dim             ....  322

ORBITAL ENERGIES
----------------

  NO   OCC          E(Eh)            E(eV)
   0   2.0000     -88.963562     -2420.8216
   1   2.0000     -88.958902     -2420.6948
   2   2.0000     -10.325033      -280.9584
   3   2.0000     -10.320360      -280.8313
   4   2.0000     -10.313020      -280.6315
   5   2.0000     -10.312605      -280.6202
   6   2.0000     -10.300824      -280.2997
   7   2.0000     -10.296483      -280.1815
   8   2.0000     -10.288090      -279.9532
   9   2.0000     -10.286597      -279.9125
  10   2.0000     -10.282644      -279.8050
  11   2.0000     -10.280466      -279.7457
  12   2.0000     -10.279607      -279.7223
  13   2.0000     -10.272853      -279.5385
  14   2.0000     -10.271715      -279.5076
  15   2.0000     -10.267040      -279.3804
  16   2.0000      -8.079590      -219.8568
  17   2.0000      -8.075060      -219.7336
  18   2.0000      -6.037920      -164.3002
  19   2.0000      -6.033764      -164.1871
  20   2.0000      -6.033523      -164.1805
  21   2.0000      -6.030576      -164.1003
  22   2.0000      -6.029424      -164.0690
  23   2.0000      -6.025708      -163.9679
  24   2.0000      -1.017474       -27.6869
  25   2.0000      -0.995941       -27.1009
  26   2.0000      -0.921473       -25.0746
  27   2.0000      -0.916586       -24.9416
  28   2.0000      -0.877242       -23.8710
  29   2.0000      -0.854670       -23.2568
  30   2.0000      -0.850170       -23.1343
  31   2.0000      -0.821397       -22.3513
  32   2.0000      -0.787029       -21.4161
  33   2.0000      -0.776403       -21.1270
  34   2.0000      -0.710893       -19.3444
  35   2.0000      -0.706055       -19.2127
  36   2.0000      -0.694711       -18.9041
  37   2.0000      -0.664535       -18.0829
  38   2.0000      -0.657978       -17.9045
  39   2.0000      -0.621700       -16.9173
  40   2.0000      -0.594821       -16.1859
  41   2.0000      -0.577697       -15.7199
  42   2.0000      -0.573317       -15.6008
  43   2.0000      -0.555477       -15.1153
  44   2.0000      -0.546454       -14.8698
  45   2.0000      -0.530217       -14.4279
  46   2.0000      -0.524784       -14.2801
  47   2.0000      -0.521993       -14.2041
  48   2.0000      -0.509435       -13.8624
  49   2.0000      -0.505627       -13.7588
  50   2.0000      -0.496665       -13.5149
  51   2.0000      -0.479724       -13.0540
  52   2.0000      -0.473753       -12.8915
  53   2.0000      -0.470824       -12.8118
  54   2.0000      -0.467656       -12.7256
  55   2.0000      -0.451670       -12.2906
  56   2.0000      -0.446814       -12.1584
  57   2.0000      -0.435830       -11.8595
  58   2.0000      -0.431824       -11.7505
  59   2.0000      -0.419403       -11.4125
  60   2.0000      -0.418994       -11.4014
  61   2.0000      -0.410236       -11.1631
  62   2.0000      -0.404924       -11.0186
  63   2.0000      -0.338771        -9.2184
  64   2.0000      -0.326255        -8.8779
  65   2.0000      -0.323802        -8.8111
  66   2.0000      -0.312433        -8.5017
  67   0.0000       0.041850         1.1388
  68   0.0000       0.060133         1.6363
  69   0.0000       0.119202         3.2437
  70   0.0000       0.126985         3.4554
  71   0.0000       0.133995         3.6462

MULLIKEN ATOMIC CHARGES
-----------------------
   0 S :    0.125291
   1 C :   -0.096878
   2 C :   -0.096416
   3 C :    0.096160
   4 C :   -0.190123
   5 H :   -0.034338
   6 C :    0.084321
   7 H :   -0.003550
   8 H :    0.011929
   9 C :   -0.012941
  10 H :    0.015867
  11 H :    0.010001
  12 C :   -0.015726
  13 H :    0.004456
  14 H :    0.017326
  15 H :    0.025277
  16 S :    0.108872
  17 C :   -0.073509
  18 C :   -0.018919
  19 C :   -0.052065
  20 C :   -0.173805
  21 H :    0.012686
  22 C :    0.072570
  23 H :    0.020060
  24 H :    0.026686
  25 C :   -0.024008
  26 H :    0.007311
  27 H :    0.027151
  28 C :   -0.049038
  29 H :    0.026732
  30 H :    0.014990
  31 H :    0.029735
  32 H :    0.040648
  33 H :    0.063244
Sum of atomic charges:   -0.0000000

LOEWDIN ATOMIC CHARGES
----------------------
   0 S :    0.444746
   1 C :   -0.204711
   2 C :   -0.058859
   3 C :   -0.048093
   4 C :   -0.210829
   5 H :    0.014398
   6 C :   -0.029095
   7 H :    0.017280
   8 H :    0.028648
   9 C :   -0.031357
  10 H :    0.020209
  11 H :    0.018966
  12 C :   -0.053841
  13 H :    0.005294
  14 H :    0.023055
  15 H :    0.032713
  16 S :    0.420661
  17 C :   -0.194591
  18 C :   -0.078347
  19 C :   -0.051615
  20 C :   -0.207953
  21 H :    0.031740
  22 C :   -0.036185
  23 H :    0.034981
  24 H :    0.032049
  25 C :   -0.038683
  26 H :    0.023794
  27 H :    0.027070
  28 C :   -0.070599
  29 H :    0.031621
  30 H :    0.020179
  31 H :    0.020725
  32 H :    0.029367
  33 H :    0.037262

  Mayer bond orders larger than 0.100000
B(  0-S ,  1-C ) :   1.1557 B(  0-S ,  4-C ) :   1.1805 B(  1-C ,  2-C ) :   1.5708
B(  1-C ,  4-C ) :   0.1034 B(  1-C , 32-H ) :   0.9830 B(  2-C ,  3-C ) :   1.2412
B(  2-C ,  6-C ) :   1.0269 B(  3-C ,  4-C ) :   1.5536 B(  3-C ,  5-H ) :   1.0212
B(  4-C , 20-C ) :   0.9902 B(  6-C ,  7-H ) :   0.9391 B(  6-C ,  8-H ) :   0.9316
B(  6-C ,  9-C ) :   1.0836 B(  9-C , 10-H ) :   0.9533 B(  9-C , 11-H ) :   0.9501
B(  9-C , 12-C ) :   1.0948 B( 12-C , 13-H ) :   0.9726 B( 12-C , 14-H ) :   0.9724
B( 12-C , 15-H ) :   0.9708 B( 16-S , 17-C ) :   1.1633 B( 16-S , 20-C ) :   1.1447
B( 17-C , 18-C ) :   1.5933 B( 17-C , 33-H ) :   0.9634 B( 18-C , 19-C ) :   1.2384
B( 18-C , 21-H ) :   0.9922 B( 19-C , 20-C ) :   1.6265 B( 19-C , 22-C ) :   1.0452
B( 22-C , 23-H ) :   0.9197 B( 22-C , 24-H ) :   0.9390 B( 22-C , 25-C ) :   1.0905
B( 25-C , 26-H ) :   0.9435 B( 25-C , 27-H ) :   0.9549 B( 25-C , 28-C ) :   1.0715
B( 28-C , 29-H ) :   0.9721 B( 28-C , 30-H ) :   0.9696 B( 28-C , 31-H ) :   0.9799

Dispersion correction           -0.014343308
FINAL SINGLE POINT ENERGY     -1339.856285113206

DIPOLE MOMENT
-------------
                                X             Y             Z
Electronic contribution:     16.97811     -19.03315     -13.55884
Nuclear contribution   :    -17.34197      19.43315      13.93947
                        -----------------------------------------
Total Dipole Moment    :     -0.36387       0.40000       0.38062
                        -----------------------------------------
Magnitude (a.u.)       :      0.66127
Magnitude (Debye)      :      1.68081

Rotational constants in cm-1:     0.019409     0.008508     0.006585
Rotational constants in MHz :   581.877651   255.069000   197.414260

                             ****ORCA TERMINATED NORMALLY****
TOTAL RUN TIME: 0 days 0 hours 0 minutes 33 seconds 697 msec
