                         Program Version 4.2.1 -  RELEASE  -
|  1> ! wB97X-D3 SP def2-SVP
|  2> %pal
|  3> nprocs 16
|  4> end
|  5>
|  6> * xyz 0 1
|  7> S 	 -11.9204 	 66.679 	 51.8718
|  8> C 	 -12.404 	 65.1634 	 51.1905
|  9> C 	 -11.3302 	 64.4546 	 50.7263
| 10> C 	 -10.0701 	 65.032 	 51.0293
| 11> C 	 -10.1615 	 66.2751 	 51.5918
| 12> H 	 -9.14014 	 64.5589 	 50.9372
| 13> C 	 -11.5177 	 63.0899 	 50.1465
| 14> H 	 -12.108 	 63.0951 	 49.2168
| 15> H 	 -12.1894 	 62.567 	 50.8089
| 16> C 	 -10.2104 	 62.2414 	 50.0511
| 17> H 	 -9.60724 	 62.6978 	 49.274
| 18> H 	 -9.45573 	 62.3536 	 50.9044
| 19> C 	 -10.6108 	 60.7667 	 50.0088
| 20> H 	 -9.67484 	 60.3399 	 50.2327
| 21> H 	 -11.4205 	 60.5213 	 50.8268
| 22> H 	 -10.8529 	 60.529 	 48.9798
| 23> S 	 -9.52848 	 67.9658 	 53.7614
| 24> C 	 -7.88595 	 68.5445 	 53.8447
| 25> C 	 -7.19654 	 68.3685 	 52.641
| 26> C 	 -7.87736 	 67.5324 	 51.6834
| 27> C 	 -9.16735 	 67.1912 	 52.1944
| 28> H 	 -6.22102 	 68.713 	 52.5013
| 29> C 	 -7.25047 	 67.025 	 50.4401
| 30> H 	 -7.50637 	 65.9863 	 50.2232
| 31> H 	 -6.17256 	 66.9834 	 50.5977
| 32> C 	 -7.6213 	 67.8868 	 49.3013
| 33> H 	 -6.9511 	 68.7672 	 49.3177
| 34> H 	 -8.64506 	 68.2225 	 49.4801
| 35> C 	 -7.6275 	 67.188 	 47.8774
| 36> H 	 -8.24926 	 66.3238 	 47.9279
| 37> H 	 -6.65584 	 66.7743 	 47.544
| 38> H 	 -7.96282 	 67.9077 	 47.12
| 39> H 	 -13.4204 	 64.757 	 51.2463
| 40> H 	 -7.46385 	 68.9744 	 54.724
| 41> *
| 42>
| 43>                          ****END OF INPUT****

CARTESIAN COORDINATES (ANGSTROEM)
---------------------------------
  S    -11.920400   66.679000   51.871800
  C    -12.404000   65.163400   51.190500
  C    -11.330200   64.454600   50.726300
  C    -10.070100   65.032000   51.029300
  C    -10.161500   66.275100   51.591800
  H     -9.140140   64.558900   50.937200
  C    -11.517700   63.089900   50.146500
  H    -12.108000   63.095100   49.216800
  H    -12.189400   62.567000   50.808900
  C    -10.210400   62.241400   50.051100
  H     -9.607240   62.697800   49.274000
  H     -9.455730   62.353600   50.904400
  C    -10.610800   60.766700   50.008800
  H     -9.674840   60.339900   50.232700
  H    -11.420500   60.521300   50.826800
  H    -10.852900   60.529000   48.979800
  S     -9.528480   67.965800   53.761400
  C     -7.885950   68.544500   53.844700
  C     -7.196540   68.368500   52.641000
  C     -7.877360   67.532400   51.683400
  C     -9.167350   67.191200   52.194400
  H     -6.221020   68.713000   52.501300
  C     -7.250470   67.025000   50.440100
  H     -7.506370   65.986300   50.223200
  H     -6.172560   66.983400   50.597700
  C     -7.621300   67.886800   49.301300
  H     -6.951100   68.767200   49.317700
  H     -8.645060   68.222500   49.480100
  C     -7.627500   67.188000   47.877400
  H     -8.249260   66.323800   47.927900
  H     -6.655840   66.774300   47.544000
  H     -7.962820   67.907700   47.120000
  H    -13.420400   64.757000   51.246300
  H     -7.463850   68.974400   54.724000

 Total Charge           Charge          ....    0
 Multiplicity           Mult            ....    1
 Number of Electrons    NEL             ....  134
 Basis Dimension        Dim             ....  322

ORBITAL ENERGIES
----------------

  NO   OCC          E(Eh)            E(eV)
   0   2.0000     -88.970577     -2421.0125
   1   2.0000     -88.959843     -2420.7204
   2   2.0000     -10.333554      -281.1903
   3   2.0000     -10.333129      -281.1787
   4   2.0000     -10.318573      -280.7826
   5   2.0000     -10.308146      -280.4989
   6   2.0000     -10.307083      -280.4700
   7   2.0000     -10.294453      -280.1263
   8   2.0000     -10.293732      -280.1067
   9   2.0000     -10.292450      -280.0718
  10   2.0000     -10.290111      -280.0082
  11   2.0000     -10.288074      -279.9527
  12   2.0000     -10.287671      -279.9418
  13   2.0000     -10.284780      -279.8631
  14   2.0000     -10.284344      -279.8512
  15   2.0000     -10.279294      -279.7138
  16   2.0000      -8.084517      -219.9909
  17   2.0000      -8.074087      -219.7071
  18   2.0000      -6.043016      -164.4388
  19   2.0000      -6.039217      -164.3355
  20   2.0000      -6.035258      -164.2277
  21   2.0000      -6.032648      -164.1567
  22   2.0000      -6.028736      -164.0503
  23   2.0000      -6.024775      -163.9425
  24   2.0000      -0.999676       -27.2026
  25   2.0000      -0.980097       -26.6698
  26   2.0000      -0.918146       -24.9840
  27   2.0000      -0.910064       -24.7641
  28   2.0000      -0.866252       -23.5719
  29   2.0000      -0.849906       -23.1271
  30   2.0000      -0.844045       -22.9676
  31   2.0000      -0.816771       -22.2255
  32   2.0000      -0.784447       -21.3459
  33   2.0000      -0.763532       -20.7768
  34   2.0000      -0.712953       -19.4004
  35   2.0000      -0.697415       -18.9776
  36   2.0000      -0.686063       -18.6687
  37   2.0000      -0.661854       -18.0100
  38   2.0000      -0.643018       -17.4974
  39   2.0000      -0.624668       -16.9981
  40   2.0000      -0.602612       -16.3979
  41   2.0000      -0.570078       -15.5126
  42   2.0000      -0.564658       -15.3651
  43   2.0000      -0.560574       -15.2540
  44   2.0000      -0.529808       -14.4168
  45   2.0000      -0.523633       -14.2488
  46   2.0000      -0.511392       -13.9157
  47   2.0000      -0.509375       -13.8608
  48   2.0000      -0.505422       -13.7532
  49   2.0000      -0.499649       -13.5962
  50   2.0000      -0.492932       -13.4134
  51   2.0000      -0.480954       -13.0874
  52   2.0000      -0.474090       -12.9007
  53   2.0000      -0.466485       -12.6937
  54   2.0000      -0.455201       -12.3867
  55   2.0000      -0.450925       -12.2703
  56   2.0000      -0.449817       -12.2401
  57   2.0000      -0.440118       -11.9762
  58   2.0000      -0.430474       -11.7138
  59   2.0000      -0.424955       -11.5636
  60   2.0000      -0.421839       -11.4788
  61   2.0000      -0.413727       -11.2581
  62   2.0000      -0.399348       -10.8668
  63   2.0000      -0.351331        -9.5602
  64   2.0000      -0.333441        -9.0734
  65   2.0000      -0.325110        -8.8467
  66   2.0000      -0.280139        -7.6230
  67   0.0000       0.021342         0.5808
  68   0.0000       0.068552         1.8654
  69   0.0000       0.103393         2.8135
  70   0.0000       0.119350         3.2477
  71   0.0000       0.134143         3.6502

MULLIKEN ATOMIC CHARGES
-----------------------
   0 S :    0.076279
   1 C :   -0.132272
   2 C :   -0.067516
   3 C :    0.020078
   4 C :   -0.124675
   5 H :   -0.003325
   6 C :    0.062037
   7 H :    0.041324
   8 H :    0.011787
   9 C :   -0.162009
  10 H :    0.031866
  11 H :    0.040609
  12 C :   -0.008245
  13 H :    0.020476
  14 H :    0.063075
  15 H :    0.038159
  16 S :    0.121184
  17 C :   -0.089799
  18 C :    0.002624
  19 C :   -0.067435
  20 C :   -0.149778
  21 H :   -0.004928
  22 C :    0.104414
  23 H :    0.007320
  24 H :    0.021251
  25 C :   -0.086118
  26 H :    0.030784
  27 H :    0.046149
  28 C :   -0.048864
  29 H :    0.027588
  30 H :    0.025271
  31 H :    0.045336
  32 H :    0.054570
  33 H :    0.052783
Sum of atomic charges:   -0.0000000

LOEWDIN ATOMIC CHARGES
----------------------
   0 S :    0.368194
   1 C :   -0.203801
   2 C :   -0.067235
   3 C :   -0.065545
   4 C :   -0.156755
   5 H :    0.022157
   6 C :   -0.036557
   7 H :    0.036929
   8 H :    0.025812
   9 C :   -0.052164
  10 H :    0.021946
  11 H :    0.027678
  12 C :   -0.062987
  13 H :    0.020575
  14 H :    0.044895
  15 H :    0.026587
  16 S :    0.402190
  17 C :   -0.181217
  18 C :   -0.060370
  19 C :   -0.041947
  20 C :   -0.195666
  21 H :    0.019881
  22 C :   -0.038018
  23 H :    0.028365
  24 H :    0.031883
  25 C :   -0.037518
  26 H :    0.026006
  27 H :    0.030525
  28 C :   -0.065094
  29 H :    0.019494
  30 H :    0.023332
  31 H :    0.030521
  32 H :    0.033223
  33 H :    0.024683

  Mayer bond orders larger than 0.100000
B(  0-S ,  1-C ) :   1.1310 B(  0-S ,  4-C ) :   1.1285 B(  1-C ,  2-C ) :   1.6283
B(  1-C , 32-H ) :   0.9694 B(  2-C ,  3-C ) :   1.2406 B(  2-C ,  6-C ) :   1.0065
B(  3-C ,  4-C ) :   1.5831 B(  3-C ,  5-H ) :   0.9946 B(  4-C , 20-C ) :   1.0538
B(  6-C ,  7-H ) :   0.9309 B(  6-C ,  8-H ) :   0.9471 B(  6-C ,  9-C ) :   1.0648
B(  9-C , 10-H ) :   0.9504 B(  9-C , 11-H ) :   0.9630 B(  9-C , 12-C ) :   1.0552
B( 12-C , 13-H ) :   0.9753 B( 12-C , 14-H ) :   0.9723 B( 12-C , 15-H ) :   0.9736
B( 16-S , 17-C ) :   1.1573 B( 16-S , 20-C ) :   1.1401 B( 17-C , 18-C ) :   1.5883
B( 17-C , 20-C ) :   0.1013 B( 17-C , 33-H ) :   0.9731 B( 18-C , 19-C ) :   1.2559
B( 18-C , 21-H ) :   0.9930 B( 19-C , 20-C ) :   1.5563 B( 19-C , 22-C ) :   1.0535
B( 22-C , 23-H ) :   0.9341 B( 22-C , 24-H ) :   0.9218 B( 22-C , 25-C ) :   1.0504
B( 25-C , 26-H ) :   0.9516 B( 25-C , 27-H ) :   0.9633 B( 25-C , 28-C ) :   1.0760
B( 28-C , 29-H ) :   0.9760 B( 28-C , 30-H ) :   0.9751 B( 28-C , 31-H ) :   0.9764

Dispersion correction           -0.014042947
FINAL SINGLE POINT ENERGY     -1339.859954436695

DIPOLE MOMENT
-------------
                                X             Y             Z
Electronic contribution:     -9.55256      18.26323      20.69709
Nuclear contribution   :     10.03401     -18.76426     -20.95170
                        -----------------------------------------
Total Dipole Moment    :      0.48145      -0.50103      -0.25461
                        -----------------------------------------
Magnitude (a.u.)       :      0.74003
Magnitude (Debye)      :      1.88101

Rotational constants in cm-1:     0.017443     0.008846     0.007023
Rotational constants in MHz :   522.926282   265.193501   210.554976

                             ****ORCA TERMINATED NORMALLY****
TOTAL RUN TIME: 0 days 0 hours 0 minutes 32 seconds 639 msec
