                         Program Version 4.2.1 -  RELEASE  -
|  1> ! wB97X-D3 SP def2-SVP
|  2> %pal
|  3> nprocs 16
|  4> end
|  5>
|  6> * xyz 0 1
|  7> S 	 2.8415 	 20.6577 	 49.2835
|  8> C 	 2.35192 	 19.1074 	 48.7394
|  9> C 	 2.88109 	 18.0667 	 49.5615
| 10> C 	 3.50255 	 18.6658 	 50.7284
| 11> C 	 3.61368 	 20.031 	 50.6862
| 12> H 	 3.94033 	 18.1946 	 51.5275
| 13> C 	 2.52548 	 16.578 	 49.4031
| 14> H 	 3.37888 	 15.9701 	 49.0787
| 15> H 	 1.87148 	 16.4419 	 48.5074
| 16> C 	 1.9172 	 15.8859 	 50.7202
| 17> H 	 2.62957 	 15.9407 	 51.515
| 18> H 	 1.04209 	 16.4794 	 51.0884
| 19> C 	 1.65482 	 14.3268 	 50.5253
| 20> H 	 1.15842 	 14.0069 	 51.4425
| 21> H 	 0.867147 	 14.2341 	 49.7735
| 22> H 	 2.52662 	 13.7613 	 50.3589
| 23> S 	 3.98886 	 20.6461 	 53.3435
| 24> C 	 5.14993 	 21.873 	 53.7903
| 25> C 	 5.73088 	 22.4304 	 52.673
| 26> C 	 5.23232 	 21.9236 	 51.4509
| 27> C 	 4.26401 	 20.9472 	 51.6669
| 28> H 	 6.51118 	 23.3017 	 52.8577
| 29> C 	 5.85473 	 22.3964 	 50.1857
| 30> H 	 6.0666 	 23.499 	 50.2173
| 31> H 	 5.07175 	 22.2468 	 49.4465
| 32> C 	 7.20567 	 21.8024 	 49.8705
| 33> H 	 7.98819 	 21.9599 	 50.6084
| 34> H 	 7.60817 	 22.4382 	 49.0845
| 35> C 	 7.27049 	 20.4738 	 49.1985
| 36> H 	 8.20883 	 19.9661 	 48.9559
| 37> H 	 6.68053 	 20.4983 	 48.279
| 38> H 	 6.7892 	 19.8229 	 49.8696
| 39> H 	 1.83992 	 19.0261 	 47.7672
| 40> H 	 5.50641 	 22.0173 	 54.772
| 41> *
| 42>
| 43>                          ****END OF INPUT****

CARTESIAN COORDINATES (ANGSTROEM)
---------------------------------
  S      2.841500   20.657700   49.283500
  C      2.351920   19.107400   48.739400
  C      2.881090   18.066700   49.561500
  C      3.502550   18.665800   50.728400
  C      3.613680   20.031000   50.686200
  H      3.940330   18.194600   51.527500
  C      2.525480   16.578000   49.403100
  H      3.378880   15.970100   49.078700
  H      1.871480   16.441900   48.507400
  C      1.917200   15.885900   50.720200
  H      2.629570   15.940700   51.515000
  H      1.042090   16.479400   51.088400
  C      1.654820   14.326800   50.525300
  H      1.158420   14.006900   51.442500
  H      0.867147   14.234100   49.773500
  H      2.526620   13.761300   50.358900
  S      3.988860   20.646100   53.343500
  C      5.149930   21.873000   53.790300
  C      5.730880   22.430400   52.673000
  C      5.232320   21.923600   51.450900
  C      4.264010   20.947200   51.666900
  H      6.511180   23.301700   52.857700
  C      5.854730   22.396400   50.185700
  H      6.066600   23.499000   50.217300
  H      5.071750   22.246800   49.446500
  C      7.205670   21.802400   49.870500
  H      7.988190   21.959900   50.608400
  H      7.608170   22.438200   49.084500
  C      7.270490   20.473800   49.198500
  H      8.208830   19.966100   48.955900
  H      6.680530   20.498300   48.279000
  H      6.789200   19.822900   49.869600
  H      1.839920   19.026100   47.767200
  H      5.506410   22.017300   54.772000

 Total Charge           Charge          ....    0
 Multiplicity           Mult            ....    1
 Number of Electrons    NEL             ....  134
 Basis Dimension        Dim             ....  322

ORBITAL ENERGIES
----------------

  NO   OCC          E(Eh)            E(eV)
   0   2.0000     -88.967375     -2420.9254
   1   2.0000     -88.965500     -2420.8743
   2   2.0000     -10.328787      -281.0606
   3   2.0000     -10.327186      -281.0170
   4   2.0000     -10.318211      -280.7728
   5   2.0000     -10.312302      -280.6120
   6   2.0000     -10.311936      -280.6020
   7   2.0000     -10.301784      -280.3258
   8   2.0000     -10.299631      -280.2672
   9   2.0000     -10.299160      -280.2544
  10   2.0000     -10.295591      -280.1573
  11   2.0000     -10.291070      -280.0343
  12   2.0000     -10.289352      -279.9875
  13   2.0000     -10.280784      -279.7543
  14   2.0000     -10.277957      -279.6774
  15   2.0000     -10.262743      -279.2634
  16   2.0000      -8.082459      -219.9349
  17   2.0000      -8.081162      -219.8996
  18   2.0000      -6.040937      -164.3823
  19   2.0000      -6.039466      -164.3422
  20   2.0000      -6.036880      -164.2719
  21   2.0000      -6.035361      -164.2305
  22   2.0000      -6.033286      -164.1741
  23   2.0000      -6.032288      -164.1469
  24   2.0000      -1.010451       -27.4958
  25   2.0000      -0.988040       -26.8859
  26   2.0000      -0.916246       -24.9323
  27   2.0000      -0.896350       -24.3909
  28   2.0000      -0.866327       -23.5740
  29   2.0000      -0.854880       -23.2625
  30   2.0000      -0.845738       -23.0137
  31   2.0000      -0.814593       -22.1662
  32   2.0000      -0.784556       -21.3489
  33   2.0000      -0.769795       -20.9472
  34   2.0000      -0.707753       -19.2589
  35   2.0000      -0.701070       -19.0771
  36   2.0000      -0.685360       -18.6496
  37   2.0000      -0.664488       -18.0816
  38   2.0000      -0.643604       -17.5134
  39   2.0000      -0.616833       -16.7849
  40   2.0000      -0.596747       -16.2383
  41   2.0000      -0.564599       -15.3635
  42   2.0000      -0.556071       -15.1315
  43   2.0000      -0.552416       -15.0320
  44   2.0000      -0.538450       -14.6520
  45   2.0000      -0.525844       -14.3089
  46   2.0000      -0.516442       -14.0531
  47   2.0000      -0.511100       -13.9077
  48   2.0000      -0.504619       -13.7314
  49   2.0000      -0.496386       -13.5073
  50   2.0000      -0.491960       -13.3869
  51   2.0000      -0.478412       -13.0183
  52   2.0000      -0.475043       -12.9266
  53   2.0000      -0.464511       -12.6400
  54   2.0000      -0.459946       -12.5158
  55   2.0000      -0.449084       -12.2202
  56   2.0000      -0.438018       -11.9191
  57   2.0000      -0.437402       -11.9023
  58   2.0000      -0.433095       -11.7851
  59   2.0000      -0.427327       -11.6281
  60   2.0000      -0.422218       -11.4891
  61   2.0000      -0.416276       -11.3274
  62   2.0000      -0.395171       -10.7531
  63   2.0000      -0.347676        -9.4608
  64   2.0000      -0.334027        -9.0893
  65   2.0000      -0.328051        -8.9267
  66   2.0000      -0.291775        -7.9396
  67   0.0000       0.033247         0.9047
  68   0.0000       0.075555         2.0560
  69   0.0000       0.111219         3.0264
  70   0.0000       0.120757         3.2860
  71   0.0000       0.131839         3.5875

MULLIKEN ATOMIC CHARGES
-----------------------
   0 S :    0.112772
   1 C :   -0.143394
   2 C :   -0.054676
   3 C :    0.039309
   4 C :   -0.149936
   5 H :   -0.024823
   6 C :    0.047568
   7 H :    0.029629
   8 H :    0.021326
   9 C :   -0.114742
  10 H :    0.029709
  11 H :    0.048376
  12 C :   -0.038573
  13 H :    0.032570
  14 H :    0.034031
  15 H :    0.040034
  16 S :    0.110540
  17 C :   -0.088229
  18 C :   -0.074299
  19 C :   -0.040218
  20 C :   -0.142014
  21 H :    0.059031
  22 C :    0.086091
  23 H :    0.034283
  24 H :    0.008810
  25 C :   -0.061154
  26 H :    0.021914
  27 H :    0.012925
  28 C :   -0.014552
  29 H :    0.033040
  30 H :    0.022911
  31 H :    0.011534
  32 H :    0.067253
  33 H :    0.042955
Sum of atomic charges:    0.0000000

LOEWDIN ATOMIC CHARGES
----------------------
   0 S :    0.440583
   1 C :   -0.213126
   2 C :   -0.057262
   3 C :   -0.060972
   4 C :   -0.200698
   5 H :    0.013376
   6 C :   -0.040034
   7 H :    0.030602
   8 H :    0.031381
   9 C :   -0.036593
  10 H :    0.016378
  11 H :    0.030847
  12 C :   -0.059237
  13 H :    0.029954
  14 H :    0.025947
  15 H :    0.020335
  16 S :    0.422074
  17 C :   -0.187472
  18 C :   -0.077875
  19 C :   -0.066791
  20 C :   -0.207439
  21 H :    0.052109
  22 C :   -0.032118
  23 H :    0.043745
  24 H :    0.019867
  25 C :   -0.046579
  26 H :    0.024980
  27 H :    0.024567
  28 C :   -0.065919
  29 H :    0.028762
  30 H :    0.026904
  31 H :    0.017130
  32 H :    0.031744
  33 H :    0.020829

  Mayer bond orders larger than 0.100000
B(  0-S ,  1-C ) :   1.1729 B(  0-S ,  4-C ) :   1.1702 B(  1-C ,  2-C ) :   1.5701
B(  1-C , 32-H ) :   0.9651 B(  2-C ,  3-C ) :   1.2365 B(  2-C ,  6-C ) :   1.0335
B(  3-C ,  4-C ) :   1.5862 B(  3-C ,  5-H ) :   1.0042 B(  4-C , 20-C ) :   0.9994
B(  6-C ,  7-H ) :   0.9347 B(  6-C ,  8-H ) :   0.9493 B(  6-C ,  9-C ) :   1.0455
B(  9-C , 10-H ) :   0.9558 B(  9-C , 11-H ) :   0.9628 B(  9-C , 12-C ) :   1.0739
B( 12-C , 13-H ) :   0.9748 B( 12-C , 14-H ) :   0.9796 B( 12-C , 15-H ) :   0.9774
B( 16-S , 17-C ) :   1.1542 B( 16-S , 20-C ) :   1.1555 B( 17-C , 18-C ) :   1.6156
B( 17-C , 33-H ) :   0.9710 B( 18-C , 19-C ) :   1.2561 B( 18-C , 21-H ) :   0.9690
B( 19-C , 20-C ) :   1.5658 B( 19-C , 22-C ) :   1.0528 B( 22-C , 23-H ) :   0.9290
B( 22-C , 24-H ) :   0.9214 B( 22-C , 25-C ) :   1.0777 B( 25-C , 26-H ) :   0.9508
B( 25-C , 27-H ) :   0.9494 B( 25-C , 28-C ) :   1.0762 B( 28-C , 29-H ) :   0.9721
B( 28-C , 30-H ) :   0.9701 B( 28-C , 31-H ) :   0.9754

Dispersion correction           -0.014672949
FINAL SINGLE POINT ENERGY     -1339.867729544424

DIPOLE MOMENT
-------------
                                X             Y             Z
Electronic contribution:     -6.39607      15.72522       8.59897
Nuclear contribution   :      6.69699     -15.99225      -8.67953
                        -----------------------------------------
Total Dipole Moment    :      0.30092      -0.26703      -0.08057
                        -----------------------------------------
Magnitude (a.u.)       :      0.41030
Magnitude (Debye)      :      1.04290

Rotational constants in cm-1:     0.020683     0.008007     0.006909
Rotational constants in MHz :   620.046711   240.038646   207.123221

                             ****ORCA TERMINATED NORMALLY****
TOTAL RUN TIME: 0 days 0 hours 0 minutes 33 seconds 340 msec
