                         Program Version 4.2.1 -  RELEASE  -
|  1> ! wB97X-D3 SP def2-SVP
|  2> %pal
|  3> nprocs 16
|  4> end
|  5>
|  6> * xyz 0 1
|  7> S 	 47.2795 	 20.4809 	 93.4619
|  8> C 	 48.5223 	 21.1963 	 94.5181
|  9> C 	 49.4793 	 21.8632 	 93.7767
| 10> C 	 49.2002 	 21.8241 	 92.3774
| 11> C 	 47.993 	 21.1844 	 92.0684
| 12> H 	 49.7783 	 22.2903 	 91.5531
| 13> C 	 50.7784 	 22.5569 	 94.2388
| 14> H 	 51.6129 	 22.0083 	 93.8217
| 15> H 	 51.0452 	 22.2141 	 95.2534
| 16> C 	 50.9206 	 24.0489 	 93.9676
| 17> H 	 51.9746 	 24.2999 	 94.2031
| 18> H 	 50.7532 	 24.1732 	 92.8825
| 19> C 	 50.0352 	 24.9253 	 94.8248
| 20> H 	 48.9599 	 24.5762 	 94.7523
| 21> H 	 50.405 	 24.9541 	 95.8389
| 22> H 	 50.0687 	 25.9715 	 94.4844
| 23> S 	 46.3571 	 19.864 	 90.3327
| 24> C 	 46.3152 	 20.3291 	 88.6419
| 25> C 	 46.974 	 21.5831 	 88.4288
| 26> C 	 47.581 	 22.0829 	 89.6339
| 27> C 	 47.4203 	 21.1675 	 90.6834
| 28> H 	 46.8398 	 22.0594 	 87.4623
| 29> C 	 48.2759 	 23.4851 	 89.6973
| 30> H 	 48.4013 	 23.8474 	 90.7082
| 31> H 	 47.6085 	 24.2097 	 89.2541
| 32> C 	 49.6684 	 23.5438 	 89
| 33> H 	 49.8327 	 22.7767 	 88.279
| 34> H 	 50.43 	 23.2853 	 89.7174
| 35> C 	 49.9928 	 24.9481 	 88.3803
| 36> H 	 49.4212 	 25.3508 	 87.5369
| 37> H 	 51.0354 	 24.936 	 87.8979
| 38> H 	 49.9647 	 25.7799 	 89.112
| 39> H 	 48.5652 	 21.0241 	 95.5682
| 40> H 	 45.6653 	 19.726 	 87.9993
| 41> *
| 42>
| 43>                          ****END OF INPUT****

CARTESIAN COORDINATES (ANGSTROEM)
---------------------------------
  S     47.279500   20.480900   93.461900
  C     48.522300   21.196300   94.518100
  C     49.479300   21.863200   93.776700
  C     49.200200   21.824100   92.377400
  C     47.993000   21.184400   92.068400
  H     49.778300   22.290300   91.553100
  C     50.778400   22.556900   94.238800
  H     51.612900   22.008300   93.821700
  H     51.045200   22.214100   95.253400
  C     50.920600   24.048900   93.967600
  H     51.974600   24.299900   94.203100
  H     50.753200   24.173200   92.882500
  C     50.035200   24.925300   94.824800
  H     48.959900   24.576200   94.752300
  H     50.405000   24.954100   95.838900
  H     50.068700   25.971500   94.484400
  S     46.357100   19.864000   90.332700
  C     46.315200   20.329100   88.641900
  C     46.974000   21.583100   88.428800
  C     47.581000   22.082900   89.633900
  C     47.420300   21.167500   90.683400
  H     46.839800   22.059400   87.462300
  C     48.275900   23.485100   89.697300
  H     48.401300   23.847400   90.708200
  H     47.608500   24.209700   89.254100
  C     49.668400   23.543800   89.000000
  H     49.832700   22.776700   88.279000
  H     50.430000   23.285300   89.717400
  C     49.992800   24.948100   88.380300
  H     49.421200   25.350800   87.536900
  H     51.035400   24.936000   87.897900
  H     49.964700   25.779900   89.112000
  H     48.565200   21.024100   95.568200
  H     45.665300   19.726000   87.999300

 Total Charge           Charge          ....    0
 Multiplicity           Mult            ....    1
 Number of Electrons    NEL             ....  134
 Basis Dimension        Dim             ....  322

ORBITAL ENERGIES
----------------

  NO   OCC          E(Eh)            E(eV)
   0   2.0000     -88.968489     -2420.9557
   1   2.0000     -88.967499     -2420.9287
   2   2.0000     -10.330758      -281.1142
   3   2.0000     -10.330703      -281.1127
   4   2.0000     -10.325162      -280.9620
   5   2.0000     -10.315392      -280.6961
   6   2.0000     -10.313255      -280.6379
   7   2.0000     -10.305843      -280.4362
   8   2.0000     -10.304513      -280.4000
   9   2.0000     -10.298102      -280.2256
  10   2.0000     -10.292604      -280.0760
  11   2.0000     -10.292468      -280.0723
  12   2.0000     -10.292050      -280.0609
  13   2.0000     -10.291196      -280.0377
  14   2.0000     -10.290936      -280.0306
  15   2.0000     -10.278757      -279.6992
  16   2.0000      -8.083202      -219.9551
  17   2.0000      -8.083001      -219.9496
  18   2.0000      -6.041792      -164.4055
  19   2.0000      -6.041261      -164.3911
  20   2.0000      -6.037752      -164.2956
  21   2.0000      -6.037484      -164.2883
  22   2.0000      -6.033924      -164.1914
  23   2.0000      -6.033861      -164.1897
  24   2.0000      -1.005493       -27.3609
  25   2.0000      -0.981976       -26.7209
  26   2.0000      -0.911638       -24.8069
  27   2.0000      -0.903234       -24.5782
  28   2.0000      -0.863423       -23.4949
  29   2.0000      -0.850384       -23.1401
  30   2.0000      -0.843224       -22.9453
  31   2.0000      -0.806621       -21.9493
  32   2.0000      -0.784916       -21.3587
  33   2.0000      -0.776131       -21.1196
  34   2.0000      -0.710942       -19.3457
  35   2.0000      -0.697424       -18.9779
  36   2.0000      -0.691066       -18.8049
  37   2.0000      -0.665219       -18.1015
  38   2.0000      -0.636132       -17.3100
  39   2.0000      -0.622112       -16.9285
  40   2.0000      -0.599241       -16.3062
  41   2.0000      -0.567454       -15.4412
  42   2.0000      -0.553204       -15.0535
  43   2.0000      -0.544835       -14.8257
  44   2.0000      -0.539399       -14.6778
  45   2.0000      -0.522863       -14.2278
  46   2.0000      -0.519520       -14.1369
  47   2.0000      -0.508738       -13.8435
  48   2.0000      -0.500228       -13.6119
  49   2.0000      -0.494066       -13.4442
  50   2.0000      -0.491357       -13.3705
  51   2.0000      -0.479748       -13.0546
  52   2.0000      -0.469470       -12.7749
  53   2.0000      -0.462604       -12.5881
  54   2.0000      -0.460771       -12.5382
  55   2.0000      -0.452508       -12.3134
  56   2.0000      -0.446148       -12.1403
  57   2.0000      -0.439033       -11.9467
  58   2.0000      -0.435071       -11.8389
  59   2.0000      -0.425000       -11.5649
  60   2.0000      -0.420395       -11.4395
  61   2.0000      -0.418225       -11.3805
  62   2.0000      -0.412489       -11.2244
  63   2.0000      -0.352845        -9.6014
  64   2.0000      -0.335620        -9.1327
  65   2.0000      -0.330411        -8.9909
  66   2.0000      -0.283809        -7.7228
  67   0.0000       0.023059         0.6275
  68   0.0000       0.078005         2.1226
  69   0.0000       0.096607         2.6288
  70   0.0000       0.115956         3.1553
  71   0.0000       0.123794         3.3686

MULLIKEN ATOMIC CHARGES
-----------------------
   0 S :    0.101256
   1 C :   -0.122134
   2 C :   -0.062931
   3 C :   -0.016361
   4 C :   -0.098253
   5 H :    0.001727
   6 C :    0.059918
   7 H :    0.025923
   8 H :    0.000794
   9 C :   -0.062498
  10 H :    0.030292
  11 H :    0.030737
  12 C :   -0.051251
  13 H :    0.052016
  14 H :    0.028927
  15 H :    0.033102
  16 S :    0.102557
  17 C :   -0.117337
  18 C :   -0.030133
  19 C :   -0.050506
  20 C :   -0.143359
  21 H :    0.030848
  22 C :    0.061516
  23 H :    0.031350
  24 H :    0.030291
  25 C :   -0.040116
  26 H :    0.028376
  27 H :    0.030867
  28 C :   -0.104572
  29 H :    0.036494
  30 H :    0.038685
  31 H :    0.036944
  32 H :    0.038077
  33 H :    0.068752
Sum of atomic charges:    0.0000000

LOEWDIN ATOMIC CHARGES
----------------------
   0 S :    0.401323
   1 C :   -0.187859
   2 C :   -0.059736
   3 C :   -0.075522
   4 C :   -0.198204
   5 H :    0.033214
   6 C :   -0.041834
   7 H :    0.035318
   8 H :    0.027893
   9 C :   -0.042738
  10 H :    0.029669
  11 H :    0.024216
  12 C :   -0.069473
  13 H :    0.034987
  14 H :    0.023944
  15 H :    0.027303
  16 S :    0.417214
  17 C :   -0.187855
  18 C :   -0.065079
  19 C :   -0.056586
  20 C :   -0.201158
  21 H :    0.035353
  22 C :   -0.026217
  23 H :    0.028946
  24 H :    0.031311
  25 C :   -0.037613
  26 H :    0.022819
  27 H :    0.021556
  28 C :   -0.080855
  29 H :    0.024554
  30 H :    0.035238
  31 H :    0.025218
  32 H :    0.023304
  33 H :    0.027349

  Mayer bond orders larger than 0.100000
B(  0-S ,  1-C ) :   1.1217 B(  0-S ,  4-C ) :   1.1600 B(  1-C ,  2-C ) :   1.6089
B(  1-C , 32-H ) :   0.9740 B(  2-C ,  3-C ) :   1.2390 B(  2-C ,  6-C ) :   1.0141
B(  3-C ,  4-C ) :   1.5614 B(  3-C ,  5-H ) :   0.9864 B(  4-C , 20-C ) :   1.0377
B(  6-C ,  7-H ) :   0.9355 B(  6-C ,  8-H ) :   0.9353 B(  6-C ,  9-C ) :   1.0685
B(  9-C , 10-H ) :   0.9498 B(  9-C , 11-H ) :   0.9556 B(  9-C , 12-C ) :   1.0820
B( 12-C , 13-H ) :   0.9749 B( 12-C , 14-H ) :   0.9729 B( 12-C , 15-H ) :   0.9728
B( 16-S , 17-C ) :   1.1707 B( 16-S , 20-C ) :   1.1616 B( 17-C , 18-C ) :   1.5661
B( 17-C , 20-C ) :   0.1048 B( 17-C , 33-H ) :   0.9711 B( 18-C , 19-C ) :   1.2524
B( 18-C , 21-H ) :   0.9928 B( 19-C , 20-C ) :   1.5723 B( 19-C , 22-C ) :   1.0325
B( 22-C , 23-H ) :   0.9375 B( 22-C , 24-H ) :   0.9472 B( 22-C , 25-C ) :   1.0384
B( 25-C , 26-H ) :   0.9616 B( 25-C , 27-H ) :   0.9474 B( 25-C , 28-C ) :   1.0703
B( 28-C , 29-H ) :   0.9784 B( 28-C , 30-H ) :   0.9738 B( 28-C , 31-H ) :   0.9778

Dispersion correction           -0.014542307
FINAL SINGLE POINT ENERGY     -1339.878649555845

DIPOLE MOMENT
-------------
                                X             Y             Z
Electronic contribution:    -20.42626     -25.95817       1.51419
Nuclear contribution   :     20.84216      26.46363      -1.70727
                        -----------------------------------------
Total Dipole Moment    :      0.41590       0.50546      -0.19308
                        -----------------------------------------
Magnitude (a.u.)       :      0.68245
Magnitude (Debye)      :      1.73466

Rotational constants in cm-1:     0.016058     0.010486     0.006694
Rotational constants in MHz :   481.403455   314.364496   200.667173

                             ****ORCA TERMINATED NORMALLY****
TOTAL RUN TIME: 0 days 0 hours 0 minutes 30 seconds 981 msec
