                         Program Version 4.2.1 -  RELEASE  -
|  1> ! wB97X-D3 SP def2-SVP
|  2> %pal
|  3> nprocs 16
|  4> end
|  5>
|  6> * xyz 0 1
|  7> S 	 -48.3986 	 60.8921 	 131.87
|  8> C 	 -48.3033 	 59.2788 	 131.218
|  9> C 	 -47.2451 	 58.578 	 131.781
| 10> C 	 -46.5776 	 59.3435 	 132.761
| 11> C 	 -47.062 	 60.6773 	 132.882
| 12> H 	 -45.7945 	 59.0405 	 133.456
| 13> C 	 -46.8231 	 57.1221 	 131.472
| 14> H 	 -45.9816 	 57.1636 	 130.915
| 15> H 	 -47.6503 	 56.752 	 130.815
| 16> C 	 -46.4144 	 56.3764 	 132.709
| 17> H 	 -45.9797 	 55.4335 	 132.452
| 18> H 	 -45.5463 	 56.7574 	 133.219
| 19> C 	 -47.5726 	 56.0763 	 133.675
| 20> H 	 -47.8083 	 57.0829 	 134.196
| 21> H 	 -48.4504 	 55.6461 	 133.191
| 22> H 	 -47.169 	 55.4266 	 134.436
| 23> S 	 -45.5963 	 63.0807 	 132.918
| 24> C 	 -44.939 	 63.6352 	 134.426
| 25> C 	 -45.4699 	 62.8892 	 135.492
| 26> C 	 -46.357 	 61.8353 	 135.058
| 27> C 	 -46.4606 	 61.7185 	 133.657
| 28> H 	 -45.1275 	 63.0482 	 136.461
| 29> C 	 -47.0663 	 60.8871 	 135.991
| 30> H 	 -46.2773 	 60.5418 	 136.708
| 31> H 	 -47.4585 	 59.9713 	 135.447
| 32> C 	 -48.2297 	 61.5452 	 136.75
| 33> H 	 -48.9793 	 62.0381 	 136.105
| 34> H 	 -47.7735 	 62.3906 	 137.315
| 35> C 	 -48.9624 	 60.59 	 137.745
| 36> H 	 -49.8109 	 61.0411 	 138.224
| 37> H 	 -48.211 	 60.4009 	 138.559
| 38> H 	 -49.3629 	 59.662 	 137.278
| 39> H 	 -49.1183 	 58.7113 	 130.701
| 40> H 	 -44.1757 	 64.4159 	 134.464
| 41> *
| 42>
| 43>                          ****END OF INPUT****

CARTESIAN COORDINATES (ANGSTROEM)
---------------------------------
  S    -48.398600   60.892100  131.870000
  C    -48.303300   59.278800  131.218000
  C    -47.245100   58.578000  131.781000
  C    -46.577600   59.343500  132.761000
  C    -47.062000   60.677300  132.882000
  H    -45.794500   59.040500  133.456000
  C    -46.823100   57.122100  131.472000
  H    -45.981600   57.163600  130.915000
  H    -47.650300   56.752000  130.815000
  C    -46.414400   56.376400  132.709000
  H    -45.979700   55.433500  132.452000
  H    -45.546300   56.757400  133.219000
  C    -47.572600   56.076300  133.675000
  H    -47.808300   57.082900  134.196000
  H    -48.450400   55.646100  133.191000
  H    -47.169000   55.426600  134.436000
  S    -45.596300   63.080700  132.918000
  C    -44.939000   63.635200  134.426000
  C    -45.469900   62.889200  135.492000
  C    -46.357000   61.835300  135.058000
  C    -46.460600   61.718500  133.657000
  H    -45.127500   63.048200  136.461000
  C    -47.066300   60.887100  135.991000
  H    -46.277300   60.541800  136.708000
  H    -47.458500   59.971300  135.447000
  C    -48.229700   61.545200  136.750000
  H    -48.979300   62.038100  136.105000
  H    -47.773500   62.390600  137.315000
  C    -48.962400   60.590000  137.745000
  H    -49.810900   61.041100  138.224000
  H    -48.211000   60.400900  138.559000
  H    -49.362900   59.662000  137.278000
  H    -49.118300   58.711300  130.701000
  H    -44.175700   64.415900  134.464000

 Total Charge           Charge          ....    0
 Multiplicity           Mult            ....    1
 Number of Electrons    NEL             ....  134
 Basis Dimension        Dim             ....  322

ORBITAL ENERGIES
----------------

  NO   OCC          E(Eh)            E(eV)
   0   2.0000     -88.968525     -2420.9566
   1   2.0000     -88.963457     -2420.8187
   2   2.0000     -10.326097      -280.9874
   3   2.0000     -10.325529      -280.9719
   4   2.0000     -10.323204      -280.9087
   5   2.0000     -10.314692      -280.6770
   6   2.0000     -10.306440      -280.4525
   7   2.0000     -10.300659      -280.2952
   8   2.0000     -10.296081      -280.1706
   9   2.0000     -10.295547      -280.1561
  10   2.0000     -10.293588      -280.1028
  11   2.0000     -10.289468      -279.9907
  12   2.0000     -10.289439      -279.9899
  13   2.0000     -10.283126      -279.8181
  14   2.0000     -10.281899      -279.7847
  15   2.0000     -10.281270      -279.7676
  16   2.0000      -8.084005      -219.9770
  17   2.0000      -8.078145      -219.8175
  18   2.0000      -6.042266      -164.4184
  19   2.0000      -6.038223      -164.3084
  20   2.0000      -6.036608      -164.2645
  21   2.0000      -6.035155      -164.2249
  22   2.0000      -6.032500      -164.1527
  23   2.0000      -6.029108      -164.0604
  24   2.0000      -1.007991       -27.4288
  25   2.0000      -0.982571       -26.7371
  26   2.0000      -0.919050       -25.0086
  27   2.0000      -0.903070       -24.5738
  28   2.0000      -0.870299       -23.6820
  29   2.0000      -0.846741       -23.0410
  30   2.0000      -0.842319       -22.9207
  31   2.0000      -0.809483       -22.0271
  32   2.0000      -0.787354       -21.4250
  33   2.0000      -0.769385       -20.9360
  34   2.0000      -0.710716       -19.3396
  35   2.0000      -0.694337       -18.8939
  36   2.0000      -0.691840       -18.8259
  37   2.0000      -0.658993       -17.9321
  38   2.0000      -0.636898       -17.3309
  39   2.0000      -0.618632       -16.8338
  40   2.0000      -0.594036       -16.1645
  41   2.0000      -0.571566       -15.5531
  42   2.0000      -0.562668       -15.3110
  43   2.0000      -0.558091       -15.1864
  44   2.0000      -0.534687       -14.5496
  45   2.0000      -0.524999       -14.2859
  46   2.0000      -0.517811       -14.0903
  47   2.0000      -0.515331       -14.0229
  48   2.0000      -0.504471       -13.7273
  49   2.0000      -0.500959       -13.6318
  50   2.0000      -0.485696       -13.2165
  51   2.0000      -0.479416       -13.0456
  52   2.0000      -0.469173       -12.7668
  53   2.0000      -0.460019       -12.5177
  54   2.0000      -0.455956       -12.4072
  55   2.0000      -0.450252       -12.2520
  56   2.0000      -0.448240       -12.1972
  57   2.0000      -0.438074       -11.9206
  58   2.0000      -0.431659       -11.7460
  59   2.0000      -0.428358       -11.6562
  60   2.0000      -0.422173       -11.4879
  61   2.0000      -0.407361       -11.0849
  62   2.0000      -0.405266       -11.0278
  63   2.0000      -0.335327        -9.1247
  64   2.0000      -0.333403        -9.0724
  65   2.0000      -0.326296        -8.8790
  66   2.0000      -0.294493        -8.0136
  67   0.0000       0.037558         1.0220
  68   0.0000       0.054272         1.4768
  69   0.0000       0.117632         3.2009
  70   0.0000       0.125601         3.4178
  71   0.0000       0.130265         3.5447

MULLIKEN ATOMIC CHARGES
-----------------------
   0 S :    0.136617
   1 C :   -0.145188
   2 C :   -0.128561
   3 C :    0.033033
   4 C :   -0.205961
   5 H :    0.015456
   6 C :    0.167910
   7 H :    0.011107
   8 H :    0.022442
   9 C :   -0.096094
  10 H :    0.008434
  11 H :    0.023728
  12 C :   -0.057205
  13 H :    0.048555
  14 H :    0.041534
  15 H :    0.030978
  16 S :    0.109338
  17 C :   -0.105846
  18 C :   -0.005197
  19 C :   -0.027369
  20 C :   -0.153286
  21 H :   -0.002181
  22 C :    0.040777
  23 H :    0.031695
  24 H :    0.044026
  25 C :   -0.098058
  26 H :    0.036571
  27 H :    0.026366
  28 C :   -0.050119
  29 H :    0.031060
  30 H :    0.034649
  31 H :    0.042425
  32 H :    0.068248
  33 H :    0.070115
Sum of atomic charges:   -0.0000000

LOEWDIN ATOMIC CHARGES
----------------------
   0 S :    0.449866
   1 C :   -0.225861
   2 C :   -0.061752
   3 C :   -0.063640
   4 C :   -0.222655
   5 H :    0.030729
   6 C :   -0.017394
   7 H :    0.022100
   8 H :    0.035796
   9 C :   -0.047186
  10 H :    0.021068
  11 H :    0.026138
  12 C :   -0.065156
  13 H :    0.034257
  14 H :    0.025781
  15 H :    0.023218
  16 S :    0.403672
  17 C :   -0.184306
  18 C :   -0.068115
  19 C :   -0.049603
  20 C :   -0.205346
  21 H :    0.019830
  22 C :   -0.040720
  23 H :    0.033942
  24 H :    0.035427
  25 C :   -0.045012
  26 H :    0.025917
  27 H :    0.024457
  28 C :   -0.070948
  29 H :    0.022678
  30 H :    0.030144
  31 H :    0.028881
  32 H :    0.040532
  33 H :    0.033264

  Mayer bond orders larger than 0.100000
B(  0-S ,  1-C ) :   1.1535 B(  0-S ,  4-C ) :   1.1982 B(  1-C ,  2-C ) :   1.5821
B(  1-C ,  4-C ) :   0.1086 B(  1-C , 32-H ) :   0.9550 B(  2-C ,  3-C ) :   1.2859
B(  2-C ,  6-C ) :   1.0008 B(  3-C ,  4-C ) :   1.5116 B(  3-C ,  5-H ) :   0.9924
B(  4-C , 20-C ) :   1.0501 B(  6-C ,  7-H ) :   0.9213 B(  6-C ,  8-H ) :   0.9442
B(  6-C ,  9-C ) :   1.0869 B(  9-C , 10-H ) :   0.9460 B(  9-C , 11-H ) :   0.9406
B(  9-C , 12-C ) :   1.0789 B( 12-C , 13-H ) :   0.9721 B( 12-C , 14-H ) :   0.9767
B( 12-C , 15-H ) :   0.9735 B( 16-S , 17-C ) :   1.1773 B( 16-S , 20-C ) :   1.1329
B( 17-C , 18-C ) :   1.5715 B( 17-C , 20-C ) :   0.1019 B( 17-C , 33-H ) :   0.9684
B( 18-C , 19-C ) :   1.2451 B( 18-C , 21-H ) :   1.0028 B( 19-C , 20-C ) :   1.5762
B( 19-C , 22-C ) :   1.0483 B( 22-C , 23-H ) :   0.9332 B( 22-C , 24-H ) :   0.9323
B( 22-C , 25-C ) :   1.0552 B( 25-C , 26-H ) :   0.9571 B( 25-C , 27-H ) :   0.9571
B( 25-C , 28-C ) :   1.0779 B( 28-C , 29-H ) :   0.9757 B( 28-C , 30-H ) :   0.9755
B( 28-C , 31-H ) :   0.9755

Dispersion correction           -0.014681818
FINAL SINGLE POINT ENERGY     -1339.873851833355

DIPOLE MOMENT
-------------
                                X             Y             Z
Electronic contribution:      4.70273      21.17169     -17.28710
Nuclear contribution   :     -4.49774     -21.72162      17.71739
                        -----------------------------------------
Total Dipole Moment    :      0.20500      -0.54993       0.43029
                        -----------------------------------------
Magnitude (a.u.)       :      0.72773
Magnitude (Debye)      :      1.84975

Rotational constants in cm-1:     0.016679     0.009437     0.007464
Rotational constants in MHz :   500.019784   282.928228   223.758513

                             ****ORCA TERMINATED NORMALLY****
TOTAL RUN TIME: 0 days 0 hours 0 minutes 36 seconds 413 msec
