                         Program Version 4.2.1 -  RELEASE  -
|  1> ! wB97X-D3 SP def2-SVP
|  2> %pal
|  3> nprocs 16
|  4> end
|  5>
|  6> * xyz 0 1
|  7> S 	 60.8885 	 5.71229 	 80.098
|  8> C 	 60.5903 	 7.42192 	 80.6797
|  9> C 	 60.4344 	 8.33166 	 79.6641
| 10> C 	 60.6796 	 7.73889 	 78.3997
| 11> C 	 60.8649 	 6.37539 	 78.4549
| 12> H 	 60.605 	 8.16949 	 77.419
| 13> C 	 60.0536 	 9.78093 	 79.8212
| 14> H 	 60.8516 	 10.486 	 79.4865
| 15> H 	 59.918 	 10.0907 	 80.8678
| 16> C 	 58.791 	 10.1911 	 79.0655
| 17> H 	 59.0225 	 10.177 	 77.9402
| 18> H 	 57.853 	 9.57711 	 79.3276
| 19> C 	 58.3101 	 11.6321 	 79.254
| 20> H 	 57.8608 	 11.8243 	 80.1985
| 21> H 	 59.1415 	 12.3544 	 79.1827
| 22> H 	 57.4897 	 11.8267 	 78.6492
| 23> S 	 60.2329 	 3.95892 	 77.1689
| 24> C 	 60.8592 	 3.65422 	 75.5234
| 25> C 	 61.8816 	 4.54468 	 75.2484
| 26> C 	 62.0466 	 5.6233 	 76.1939
| 27> C 	 61.138 	 5.48867 	 77.2859
| 28> H 	 62.2588 	 4.35266 	 74.2692
| 29> C 	 63.0426 	 6.82274 	 75.9962
| 30> H 	 64.0349 	 6.4609 	 76.0873
| 31> H 	 62.9628 	 7.51659 	 76.8049
| 32> C 	 62.868 	 7.5596 	 74.6592
| 33> H 	 61.8525 	 7.94889 	 74.5381
| 34> H 	 62.9069 	 6.73243 	 73.8741
| 35> C 	 64.0412 	 8.46637 	 74.295
| 36> H 	 63.9135 	 8.84719 	 73.2565
| 37> H 	 64.9997 	 7.90845 	 74.3996
| 38> H 	 64.2313 	 9.26896 	 75.0254
| 39> H 	 60.4645 	 7.79862 	 81.638
| 40> H 	 60.6575 	 2.75303 	 74.9543
| 41> *
| 42>
| 43>                          ****END OF INPUT****

CARTESIAN COORDINATES (ANGSTROEM)
---------------------------------
  S     60.888500    5.712290   80.098000
  C     60.590300    7.421920   80.679700
  C     60.434400    8.331660   79.664100
  C     60.679600    7.738890   78.399700
  C     60.864900    6.375390   78.454900
  H     60.605000    8.169490   77.419000
  C     60.053600    9.780930   79.821200
  H     60.851600   10.486000   79.486500
  H     59.918000   10.090700   80.867800
  C     58.791000   10.191100   79.065500
  H     59.022500   10.177000   77.940200
  H     57.853000    9.577110   79.327600
  C     58.310100   11.632100   79.254000
  H     57.860800   11.824300   80.198500
  H     59.141500   12.354400   79.182700
  H     57.489700   11.826700   78.649200
  S     60.232900    3.958920   77.168900
  C     60.859200    3.654220   75.523400
  C     61.881600    4.544680   75.248400
  C     62.046600    5.623300   76.193900
  C     61.138000    5.488670   77.285900
  H     62.258800    4.352660   74.269200
  C     63.042600    6.822740   75.996200
  H     64.034900    6.460900   76.087300
  H     62.962800    7.516590   76.804900
  C     62.868000    7.559600   74.659200
  H     61.852500    7.948890   74.538100
  H     62.906900    6.732430   73.874100
  C     64.041200    8.466370   74.295000
  H     63.913500    8.847190   73.256500
  H     64.999700    7.908450   74.399600
  H     64.231300    9.268960   75.025400
  H     60.464500    7.798620   81.638000
  H     60.657500    2.753030   74.954300

 Total Charge           Charge          ....    0
 Multiplicity           Mult            ....    1
 Number of Electrons    NEL             ....  134
 Basis Dimension        Dim             ....  322

ORBITAL ENERGIES
----------------

  NO   OCC          E(Eh)            E(eV)
   0   2.0000     -88.972142     -2421.0551
   1   2.0000     -88.964018     -2420.8340
   2   2.0000     -10.336772      -281.2779
   3   2.0000     -10.334679      -281.2209
   4   2.0000     -10.320966      -280.8478
   5   2.0000     -10.316911      -280.7374
   6   2.0000     -10.313947      -280.6568
   7   2.0000     -10.302824      -280.3541
   8   2.0000     -10.299810      -280.2721
   9   2.0000     -10.299027      -280.2508
  10   2.0000     -10.297227      -280.2018
  11   2.0000     -10.292799      -280.0813
  12   2.0000     -10.292544      -280.0744
  13   2.0000     -10.291074      -280.0344
  14   2.0000     -10.286712      -279.9157
  15   2.0000     -10.272364      -279.5252
  16   2.0000      -8.085101      -220.0068
  17   2.0000      -8.077852      -219.8095
  18   2.0000      -6.043850      -164.4615
  19   2.0000      -6.040129      -164.3603
  20   2.0000      -6.036413      -164.2592
  21   2.0000      -6.035425      -164.2323
  22   2.0000      -6.032515      -164.1531
  23   2.0000      -6.028579      -164.0460
  24   2.0000      -0.997234       -27.1361
  25   2.0000      -0.975399       -26.5420
  26   2.0000      -0.912142       -24.8206
  27   2.0000      -0.905515       -24.6403
  28   2.0000      -0.868525       -23.6338
  29   2.0000      -0.848603       -23.0917
  30   2.0000      -0.841461       -22.8973
  31   2.0000      -0.817528       -22.2461
  32   2.0000      -0.787369       -21.4254
  33   2.0000      -0.773738       -21.0545
  34   2.0000      -0.706872       -19.2350
  35   2.0000      -0.698159       -18.9979
  36   2.0000      -0.689871       -18.7723
  37   2.0000      -0.653028       -17.7698
  38   2.0000      -0.642273       -17.4771
  39   2.0000      -0.621529       -16.9127
  40   2.0000      -0.594010       -16.1638
  41   2.0000      -0.574850       -15.6425
  42   2.0000      -0.563253       -15.3269
  43   2.0000      -0.555811       -15.1244
  44   2.0000      -0.531021       -14.4498
  45   2.0000      -0.527826       -14.3629
  46   2.0000      -0.511826       -13.9275
  47   2.0000      -0.508404       -13.8344
  48   2.0000      -0.505304       -13.7500
  49   2.0000      -0.501696       -13.6518
  50   2.0000      -0.489315       -13.3149
  51   2.0000      -0.476364       -12.9625
  52   2.0000      -0.470310       -12.7978
  53   2.0000      -0.462823       -12.5940
  54   2.0000      -0.458167       -12.4674
  55   2.0000      -0.450491       -12.2585
  56   2.0000      -0.446692       -12.1551
  57   2.0000      -0.440242       -11.9796
  58   2.0000      -0.436942       -11.8898
  59   2.0000      -0.423833       -11.5331
  60   2.0000      -0.417550       -11.3621
  61   2.0000      -0.411795       -11.2055
  62   2.0000      -0.408396       -11.1130
  63   2.0000      -0.345796        -9.4096
  64   2.0000      -0.336776        -9.1641
  65   2.0000      -0.329782        -8.9738
  66   2.0000      -0.291755        -7.9391
  67   0.0000       0.026701         0.7266
  68   0.0000       0.064372         1.7516
  69   0.0000       0.097870         2.6632
  70   0.0000       0.122406         3.3308
  71   0.0000       0.124025         3.3749

MULLIKEN ATOMIC CHARGES
-----------------------
   0 S :    0.108738
   1 C :   -0.075783
   2 C :   -0.052029
   3 C :    0.018667
   4 C :   -0.132086
   5 H :    0.013720
   6 C :    0.075555
   7 H :    0.036416
   8 H :    0.013559
   9 C :   -0.154179
  10 H :    0.045803
  11 H :    0.052605
  12 C :   -0.009009
  13 H :    0.010136
  14 H :    0.026912
  15 H :    0.021415
  16 S :    0.083916
  17 C :   -0.110810
  18 C :   -0.039085
  19 C :   -0.016066
  20 C :   -0.168786
  21 H :    0.020249
  22 C :    0.118255
  23 H :    0.016640
  24 H :    0.010847
  25 C :   -0.116377
  26 H :    0.036411
  27 H :    0.029652
  28 C :   -0.047242
  29 H :    0.051765
  30 H :    0.028477
  31 H :    0.029834
  32 H :    0.006206
  33 H :    0.065674
Sum of atomic charges:    0.0000000

LOEWDIN ATOMIC CHARGES
----------------------
   0 S :    0.367554
   1 C :   -0.162666
   2 C :   -0.056079
   3 C :   -0.059527
   4 C :   -0.175137
   5 H :    0.031526
   6 C :   -0.038688
   7 H :    0.037920
   8 H :    0.028644
   9 C :   -0.050178
  10 H :    0.030986
  11 H :    0.036797
  12 C :   -0.065499
  13 H :    0.018412
  14 H :    0.025283
  15 H :    0.021356
  16 S :    0.370853
  17 C :   -0.173664
  18 C :   -0.072468
  19 C :   -0.049136
  20 C :   -0.187517
  21 H :    0.030089
  22 C :   -0.023618
  23 H :    0.027309
  24 H :    0.023048
  25 C :   -0.048607
  26 H :    0.023993
  27 H :    0.028270
  28 C :   -0.072199
  29 H :    0.033918
  30 H :    0.029755
  31 H :    0.023350
  32 H :    0.013945
  33 H :    0.031976

  Mayer bond orders larger than 0.100000
B(  0-S ,  1-C ) :   1.0997 B(  0-S ,  4-C ) :   1.1299 B(  1-C ,  2-C ) :   1.6734
B(  1-C , 32-H ) :   0.9658 B(  2-C ,  3-C ) :   1.1868 B(  2-C ,  6-C ) :   1.0349
B(  3-C ,  4-C ) :   1.6247 B(  3-C ,  5-H ) :   0.9934 B(  4-C , 20-C ) :   1.0286
B(  6-C ,  7-H ) :   0.9301 B(  6-C ,  8-H ) :   0.9405 B(  6-C ,  9-C ) :   1.0601
B(  9-C , 10-H ) :   0.9527 B(  9-C , 11-H ) :   0.9553 B(  9-C , 12-C ) :   1.0905
B( 12-C , 13-H ) :   0.9692 B( 12-C , 14-H ) :   0.9707 B( 12-C , 15-H ) :   0.9712
B( 16-S , 17-C ) :   1.1353 B( 16-S , 20-C ) :   1.1423 B( 17-C , 18-C ) :   1.6439
B( 17-C , 20-C ) :   0.1037 B( 17-C , 33-H ) :   0.9647 B( 18-C , 19-C ) :   1.2054
B( 18-C , 21-H ) :   0.9883 B( 19-C , 20-C ) :   1.5859 B( 19-C , 22-C ) :   1.0327
B( 22-C , 23-H ) :   0.9325 B( 22-C , 24-H ) :   0.9338 B( 22-C , 25-C ) :   1.0541
B( 25-C , 26-H ) :   0.9583 B( 25-C , 27-H ) :   0.9554 B( 25-C , 28-C ) :   1.0738
B( 28-C , 29-H ) :   0.9733 B( 28-C , 30-H ) :   0.9703 B( 28-C , 31-H ) :   0.9749

Dispersion correction           -0.013491814
FINAL SINGLE POINT ENERGY     -1339.863015803509

DIPOLE MOMENT
-------------
                                X             Y             Z
Electronic contribution:     -3.12974     -28.73709      10.38399
Nuclear contribution   :      3.25868      29.35974     -10.74306
                        -----------------------------------------
Total Dipole Moment    :      0.12894       0.62265      -0.35907
                        -----------------------------------------
Magnitude (a.u.)       :      0.73024
Magnitude (Debye)      :      1.85613

Rotational constants in cm-1:     0.015632     0.008604     0.006432
Rotational constants in MHz :   468.621831   257.943660   192.837067

                             ****ORCA TERMINATED NORMALLY****
TOTAL RUN TIME: 0 days 0 hours 0 minutes 29 seconds 197 msec
