                         Program Version 4.2.1 -  RELEASE  -
|  1> ! wB97X-D3 SP def2-SVP
|  2> %pal
|  3> nprocs 16
|  4> end
|  5>
|  6> * xyz 0 1
|  7> S 	 9.55825 	 22.4192 	 59.7309
|  8> C 	 9.33814 	 23.1997 	 58.1457
|  9> C 	 8.06214 	 22.932 	 57.5661
| 10> C 	 7.36966 	 21.9517 	 58.3531
| 11> C 	 8.04124 	 21.5457 	 59.5217
| 12> H 	 6.51209 	 21.4206 	 57.9521
| 13> C 	 7.54494 	 23.55 	 56.3047
| 14> H 	 7.9837 	 24.4897 	 56.269
| 15> H 	 6.49293 	 23.6608 	 56.2469
| 16> C 	 8.05855 	 22.8387 	 55.0253
| 17> H 	 7.96766 	 23.4644 	 54.0993
| 18> H 	 9.16469 	 22.8262 	 55.0679
| 19> C 	 7.44145 	 21.4128 	 54.9473
| 20> H 	 7.67806 	 20.9099 	 55.8722
| 21> H 	 6.42149 	 21.3989 	 54.794
| 22> H 	 7.69469 	 20.8742 	 54.1332
| 23> S 	 8.40923 	 19.3564 	 61.2418
| 24> C 	 7.1299 	 18.9206 	 62.3525
| 25> C 	 6.18598 	 19.9133 	 62.4278
| 26> C 	 6.36401 	 20.9199 	 61.4344
| 27> C 	 7.44013 	 20.7507 	 60.5906
| 28> H 	 5.31425 	 19.736 	 62.9922
| 29> C 	 5.20392 	 21.8442 	 61.2438
| 30> H 	 5.58737 	 22.6437 	 60.6778
| 31> H 	 4.98478 	 22.4093 	 62.1295
| 32> C 	 3.86191 	 21.2693 	 60.8289
| 33> H 	 3.20915 	 22.0508 	 60.5219
| 34> H 	 3.3699 	 20.8614 	 61.7112
| 35> C 	 3.78093 	 20.2329 	 59.7117
| 36> H 	 4.34053 	 20.6119 	 58.8992
| 37> H 	 2.7536 	 19.9563 	 59.4448
| 38> H 	 4.25669 	 19.3754 	 60.1085
| 39> H 	 9.97005 	 23.9391 	 57.6652
| 40> H 	 7.20911 	 18.0568 	 63.0439
| 41> *
| 42>
| 43>                          ****END OF INPUT****

CARTESIAN COORDINATES (ANGSTROEM)
---------------------------------
  S      9.558250   22.419200   59.730900
  C      9.338140   23.199700   58.145700
  C      8.062140   22.932000   57.566100
  C      7.369660   21.951700   58.353100
  C      8.041240   21.545700   59.521700
  H      6.512090   21.420600   57.952100
  C      7.544940   23.550000   56.304700
  H      7.983700   24.489700   56.269000
  H      6.492930   23.660800   56.246900
  C      8.058550   22.838700   55.025300
  H      7.967660   23.464400   54.099300
  H      9.164690   22.826200   55.067900
  C      7.441450   21.412800   54.947300
  H      7.678060   20.909900   55.872200
  H      6.421490   21.398900   54.794000
  H      7.694690   20.874200   54.133200
  S      8.409230   19.356400   61.241800
  C      7.129900   18.920600   62.352500
  C      6.185980   19.913300   62.427800
  C      6.364010   20.919900   61.434400
  C      7.440130   20.750700   60.590600
  H      5.314250   19.736000   62.992200
  C      5.203920   21.844200   61.243800
  H      5.587370   22.643700   60.677800
  H      4.984780   22.409300   62.129500
  C      3.861910   21.269300   60.828900
  H      3.209150   22.050800   60.521900
  H      3.369900   20.861400   61.711200
  C      3.780930   20.232900   59.711700
  H      4.340530   20.611900   58.899200
  H      2.753600   19.956300   59.444800
  H      4.256690   19.375400   60.108500
  H      9.970050   23.939100   57.665200
  H      7.209110   18.056800   63.043900

 Total Charge           Charge          ....    0
 Multiplicity           Mult            ....    1
 Number of Electrons    NEL             ....  134
 Basis Dimension        Dim             ....  322

ORBITAL ENERGIES
----------------

  NO   OCC          E(Eh)            E(eV)
   0   2.0000     -88.974856     -2421.1289
   1   2.0000     -88.959891     -2420.7217
   2   2.0000     -10.335112      -281.2327
   3   2.0000     -10.331781      -281.1421
   4   2.0000     -10.322193      -280.8811
   5   2.0000     -10.321634      -280.8659
   6   2.0000     -10.306585      -280.4564
   7   2.0000     -10.302950      -280.3575
   8   2.0000     -10.298921      -280.2479
   9   2.0000     -10.293423      -280.0983
  10   2.0000     -10.288333      -279.9598
  11   2.0000     -10.286046      -279.8975
  12   2.0000     -10.280028      -279.7338
  13   2.0000     -10.279273      -279.7132
  14   2.0000     -10.267038      -279.3803
  15   2.0000     -10.261844      -279.2390
  16   2.0000      -8.088229      -220.0919
  17   2.0000      -8.074282      -219.7124
  18   2.0000      -6.046750      -164.5404
  19   2.0000      -6.042978      -164.4378
  20   2.0000      -6.038995      -164.3294
  21   2.0000      -6.032807      -164.1610
  22   2.0000      -6.028862      -164.0537
  23   2.0000      -6.025010      -163.9489
  24   2.0000      -1.000329       -27.2203
  25   2.0000      -0.979044       -26.6411
  26   2.0000      -0.915101       -24.9012
  27   2.0000      -0.911566       -24.8050
  28   2.0000      -0.865512       -23.5518
  29   2.0000      -0.849900       -23.1270
  30   2.0000      -0.844290       -22.9743
  31   2.0000      -0.816154       -22.2087
  32   2.0000      -0.791495       -21.5377
  33   2.0000      -0.778126       -21.1739
  34   2.0000      -0.709491       -19.3062
  35   2.0000      -0.708018       -19.2662
  36   2.0000      -0.693455       -18.8699
  37   2.0000      -0.660526       -17.9738
  38   2.0000      -0.637052       -17.3351
  39   2.0000      -0.619018       -16.8443
  40   2.0000      -0.595448       -16.2030
  41   2.0000      -0.575514       -15.6605
  42   2.0000      -0.560398       -15.2492
  43   2.0000      -0.554109       -15.0781
  44   2.0000      -0.550786       -14.9877
  45   2.0000      -0.541071       -14.7233
  46   2.0000      -0.520268       -14.1572
  47   2.0000      -0.507275       -13.8037
  48   2.0000      -0.502815       -13.6823
  49   2.0000      -0.497137       -13.5278
  50   2.0000      -0.491671       -13.3790
  51   2.0000      -0.473688       -12.8897
  52   2.0000      -0.470606       -12.8059
  53   2.0000      -0.464415       -12.6374
  54   2.0000      -0.461529       -12.5588
  55   2.0000      -0.448549       -12.2056
  56   2.0000      -0.443454       -12.0670
  57   2.0000      -0.441721       -12.0198
  58   2.0000      -0.435629       -11.8541
  59   2.0000      -0.431125       -11.7315
  60   2.0000      -0.416161       -11.3243
  61   2.0000      -0.411085       -11.1862
  62   2.0000      -0.406044       -11.0490
  63   2.0000      -0.339181        -9.2296
  64   2.0000      -0.333759        -9.0820
  65   2.0000      -0.328432        -8.9371
  66   2.0000      -0.295909        -8.0521
  67   0.0000       0.027606         0.7512
  68   0.0000       0.054960         1.4955
  69   0.0000       0.105207         2.8628
  70   0.0000       0.119391         3.2488
  71   0.0000       0.124134         3.3779

MULLIKEN ATOMIC CHARGES
-----------------------
   0 S :    0.133058
   1 C :   -0.107822
   2 C :   -0.141992
   3 C :    0.019706
   4 C :   -0.132637
   5 H :    0.025975
   6 C :    0.129346
   7 H :    0.001469
   8 H :    0.023841
   9 C :   -0.102072
  10 H :    0.030402
  11 H :    0.022361
  12 C :    0.017936
  13 H :    0.043270
  14 H :    0.002331
  15 H :    0.001968
  16 S :    0.073132
  17 C :   -0.099143
  18 C :   -0.014253
  19 C :   -0.037719
  20 C :   -0.177002
  21 H :    0.011788
  22 C :    0.115479
  23 H :    0.002869
  24 H :    0.013990
  25 C :   -0.085517
  26 H :    0.018666
  27 H :    0.016828
  28 C :    0.002819
  29 H :    0.015729
  30 H :    0.034457
  31 H :    0.022262
  32 H :    0.044420
  33 H :    0.074056
Sum of atomic charges:   -0.0000000

LOEWDIN ATOMIC CHARGES
----------------------
   0 S :    0.406877
   1 C :   -0.193293
   2 C :   -0.054895
   3 C :   -0.061804
   4 C :   -0.197684
   5 H :    0.030816
   6 C :   -0.024646
   7 H :    0.025146
   8 H :    0.027646
   9 C :   -0.035774
  10 H :    0.024627
  11 H :    0.023086
  12 C :   -0.056585
  13 H :    0.031528
  14 H :    0.017799
  15 H :    0.013806
  16 S :    0.366392
  17 C :   -0.171240
  18 C :   -0.073895
  19 C :   -0.048399
  20 C :   -0.181428
  21 H :    0.026132
  22 C :   -0.035741
  23 H :    0.023833
  24 H :    0.036574
  25 C :   -0.037499
  26 H :    0.022513
  27 H :    0.019532
  28 C :   -0.055070
  29 H :    0.017004
  30 H :    0.029790
  31 H :    0.020819
  32 H :    0.026861
  33 H :    0.037170

  Mayer bond orders larger than 0.100000
B(  0-S ,  1-C ) :   1.1425 B(  0-S ,  4-C ) :   1.1540 B(  1-C ,  2-C ) :   1.5973
B(  1-C ,  4-C ) :   0.1031 B(  1-C , 32-H ) :   0.9609 B(  2-C ,  3-C ) :   1.2565
B(  2-C ,  6-C ) :   1.0369 B(  3-C ,  4-C ) :   1.5528 B(  3-C ,  5-H ) :   0.9889
B(  4-C , 20-C ) :   1.0457 B(  6-C ,  7-H ) :   0.9206 B(  6-C ,  8-H ) :   0.9468
B(  6-C ,  9-C ) :   1.0716 B(  9-C , 10-H ) :   0.9583 B(  9-C , 11-H ) :   0.9568
B(  9-C , 12-C ) :   1.0646 B( 12-C , 13-H ) :   0.9731 B( 12-C , 14-H ) :   0.9692
B( 12-C , 15-H ) :   0.9666 B( 16-S , 17-C ) :   1.1629 B( 16-S , 20-C ) :   1.1045
B( 17-C , 18-C ) :   1.6171 B( 17-C , 33-H ) :   0.9603 B( 18-C , 19-C ) :   1.2121
B( 18-C , 21-H ) :   0.9980 B( 19-C , 20-C ) :   1.6070 B( 19-C , 22-C ) :   1.0614
B( 22-C , 23-H ) :   0.9236 B( 22-C , 24-H ) :   0.9209 B( 22-C , 25-C ) :   1.0680
B( 25-C , 26-H ) :   0.9504 B( 25-C , 27-H ) :   0.9520 B( 25-C , 28-C ) :   1.0854
B( 28-C , 29-H ) :   0.9751 B( 28-C , 30-H ) :   0.9707 B( 28-C , 31-H ) :   0.9695

Dispersion correction           -0.015382195
FINAL SINGLE POINT ENERGY     -1339.851706428281

DIPOLE MOMENT
-------------
                                X             Y             Z
Electronic contribution:     19.42310      -3.65563      17.24389
Nuclear contribution   :    -20.03998       3.91332     -17.49897
                        -----------------------------------------
Total Dipole Moment    :     -0.61688       0.25770      -0.25508
                        -----------------------------------------
Magnitude (a.u.)       :      0.71555
Magnitude (Debye)      :      1.81879

Rotational constants in cm-1:     0.019462     0.008954     0.007286
Rotational constants in MHz :   583.455227   268.432460   218.428820

                             ****ORCA TERMINATED NORMALLY****
TOTAL RUN TIME: 0 days 0 hours 0 minutes 36 seconds 43 msec
