                         Program Version 4.2.1 -  RELEASE  -
|  1> ! wB97X-D3 SP def2-SVP
|  2> %pal
|  3> nprocs 16
|  4> end
|  5>
|  6> * xyz 0 1
|  7> S 	 -108.882 	 40.7227 	 129.773
|  8> C 	 -108.241 	 39.4969 	 130.859
|  9> C 	 -107.902 	 38.4049 	 130.047
| 10> C 	 -108.218 	 38.5578 	 128.667
| 11> C 	 -108.868 	 39.682 	 128.366
| 12> H 	 -108.106 	 37.9305 	 127.823
| 13> C 	 -107.162 	 37.2526 	 130.65
| 14> H 	 -107.865 	 36.4454 	 130.768
| 15> H 	 -106.856 	 37.5202 	 131.656
| 16> C 	 -105.954 	 36.671 	 129.838
| 17> H 	 -105.822 	 35.6288 	 130.127
| 18> H 	 -106.174 	 36.448 	 128.798
| 19> C 	 -104.718 	 37.5958 	 130.011
| 20> H 	 -104.821 	 38.4536 	 129.28
| 21> H 	 -104.698 	 38.0407 	 131.044
| 22> H 	 -103.798 	 37.0627 	 129.807
| 23> S 	 -108.449 	 41.4196 	 126.165
| 24> C 	 -109.413 	 41.1717 	 124.788
| 25> C 	 -110.377 	 40.1543 	 124.874
| 26> C 	 -110.223 	 39.4863 	 126.123
| 27> C 	 -109.339 	 40.0571 	 127.013
| 28> H 	 -110.979 	 39.9531 	 124.019
| 29> C 	 -111.113 	 38.2526 	 126.311
| 30> H 	 -110.716 	 37.4416 	 126.936
| 31> H 	 -111.109 	 37.7226 	 125.386
| 32> C 	 -112.657 	 38.4357 	 126.687
| 33> H 	 -113.039 	 39.2079 	 126.047
| 34> H 	 -112.733 	 38.7983 	 127.755
| 35> C 	 -113.414 	 37.122 	 126.39
| 36> H 	 -113.702 	 37.043 	 125.354
| 37> H 	 -114.238 	 37.1589 	 127.106
| 38> H 	 -112.819 	 36.3121 	 126.652
| 39> H 	 -107.782 	 39.6907 	 131.868
| 40> H 	 -109.343 	 41.7828 	 123.906
| 41> *
| 42>
| 43>                          ****END OF INPUT****

CARTESIAN COORDINATES (ANGSTROEM)
---------------------------------
  S    -108.882000   40.722700  129.773000
  C    -108.241000   39.496900  130.859000
  C    -107.902000   38.404900  130.047000
  C    -108.218000   38.557800  128.667000
  C    -108.868000   39.682000  128.366000
  H    -108.106000   37.930500  127.823000
  C    -107.162000   37.252600  130.650000
  H    -107.865000   36.445400  130.768000
  H    -106.856000   37.520200  131.656000
  C    -105.954000   36.671000  129.838000
  H    -105.822000   35.628800  130.127000
  H    -106.174000   36.448000  128.798000
  C    -104.718000   37.595800  130.011000
  H    -104.821000   38.453600  129.280000
  H    -104.698000   38.040700  131.044000
  H    -103.798000   37.062700  129.807000
  S    -108.449000   41.419600  126.165000
  C    -109.413000   41.171700  124.788000
  C    -110.377000   40.154300  124.874000
  C    -110.223000   39.486300  126.123000
  C    -109.339000   40.057100  127.013000
  H    -110.979000   39.953100  124.019000
  C    -111.113000   38.252600  126.311000
  H    -110.716000   37.441600  126.936000
  H    -111.109000   37.722600  125.386000
  C    -112.657000   38.435700  126.687000
  H    -113.039000   39.207900  126.047000
  H    -112.733000   38.798300  127.755000
  C    -113.414000   37.122000  126.390000
  H    -113.702000   37.043000  125.354000
  H    -114.238000   37.158900  127.106000
  H    -112.819000   36.312100  126.652000
  H    -107.782000   39.690700  131.868000
  H    -109.343000   41.782800  123.906000

 Total Charge           Charge          ....    0
 Multiplicity           Mult            ....    1
 Number of Electrons    NEL             ....  134
 Basis Dimension        Dim             ....  322

ORBITAL ENERGIES
----------------

  NO   OCC          E(Eh)            E(eV)
   0   2.0000     -88.967954     -2420.9411
   1   2.0000     -88.959586     -2420.7134
   2   2.0000     -10.333354      -281.1849
   3   2.0000     -10.325790      -280.9790
   4   2.0000     -10.317862      -280.7633
   5   2.0000     -10.317709      -280.7591
   6   2.0000     -10.310851      -280.5725
   7   2.0000     -10.301864      -280.3280
   8   2.0000     -10.294082      -280.1162
   9   2.0000     -10.290816      -280.0273
  10   2.0000     -10.290520      -280.0193
  11   2.0000     -10.288008      -279.9509
  12   2.0000     -10.287969      -279.9499
  13   2.0000     -10.285086      -279.8714
  14   2.0000     -10.283919      -279.8397
  15   2.0000     -10.273906      -279.5672
  16   2.0000      -8.082500      -219.9360
  17   2.0000      -8.074302      -219.7129
  18   2.0000      -6.040879      -164.3807
  19   2.0000      -6.037072      -164.2771
  20   2.0000      -6.033360      -164.1761
  21   2.0000      -6.032909      -164.1638
  22   2.0000      -6.028733      -164.0502
  23   2.0000      -6.025015      -163.9490
  24   2.0000      -1.005407       -27.3585
  25   2.0000      -0.984913       -26.8008
  26   2.0000      -0.906646       -24.6711
  27   2.0000      -0.902454       -24.5570
  28   2.0000      -0.868096       -23.6221
  29   2.0000      -0.854763       -23.2593
  30   2.0000      -0.839975       -22.8569
  31   2.0000      -0.816041       -22.2056
  32   2.0000      -0.781530       -21.2665
  33   2.0000      -0.766957       -20.8700
  34   2.0000      -0.710633       -19.3373
  35   2.0000      -0.699198       -19.0261
  36   2.0000      -0.689609       -18.7652
  37   2.0000      -0.661377       -17.9970
  38   2.0000      -0.645467       -17.5640
  39   2.0000      -0.618647       -16.8342
  40   2.0000      -0.598821       -16.2947
  41   2.0000      -0.568584       -15.4720
  42   2.0000      -0.558815       -15.2061
  43   2.0000      -0.554426       -15.0867
  44   2.0000      -0.524534       -14.2733
  45   2.0000      -0.522268       -14.2116
  46   2.0000      -0.520619       -14.1668
  47   2.0000      -0.510680       -13.8963
  48   2.0000      -0.507907       -13.8208
  49   2.0000      -0.497280       -13.5317
  50   2.0000      -0.485686       -13.2162
  51   2.0000      -0.477294       -12.9878
  52   2.0000      -0.468377       -12.7452
  53   2.0000      -0.463774       -12.6199
  54   2.0000      -0.462497       -12.5852
  55   2.0000      -0.451688       -12.2911
  56   2.0000      -0.444615       -12.0986
  57   2.0000      -0.435794       -11.8586
  58   2.0000      -0.431886       -11.7522
  59   2.0000      -0.423707       -11.5296
  60   2.0000      -0.419896       -11.4260
  61   2.0000      -0.416097       -11.3226
  62   2.0000      -0.403025       -10.9669
  63   2.0000      -0.341194        -9.2844
  64   2.0000      -0.334712        -9.1080
  65   2.0000      -0.321335        -8.7440
  66   2.0000      -0.301126        -8.1941
  67   0.0000       0.034746         0.9455
  68   0.0000       0.060223         1.6388
  69   0.0000       0.109767         2.9869
  70   0.0000       0.123861         3.3704
  71   0.0000       0.127913         3.4807

MULLIKEN ATOMIC CHARGES
-----------------------
   0 S :    0.091314
   1 C :   -0.136045
   2 C :   -0.092719
   3 C :    0.062764
   4 C :   -0.157707
   5 H :   -0.005315
   6 C :    0.068664
   7 H :    0.030750
   8 H :    0.008441
   9 C :   -0.073464
  10 H :    0.016458
  11 H :    0.023031
  12 C :   -0.062329
  13 H :    0.052556
  14 H :    0.036342
  15 H :    0.038896
  16 S :    0.110891
  17 C :   -0.084669
  18 C :   -0.039538
  19 C :    0.009663
  20 C :   -0.168553
  21 H :    0.017380
  22 C :    0.031139
  23 H :    0.018421
  24 H :    0.005600
  25 C :   -0.089029
  26 H :    0.022221
  27 H :    0.052649
  28 C :   -0.014588
  29 H :    0.040350
  30 H :    0.036245
  31 H :    0.015232
  32 H :    0.082330
  33 H :    0.052619
Sum of atomic charges:   -0.0000000

LOEWDIN ATOMIC CHARGES
----------------------
   0 S :    0.393506
   1 C :   -0.213451
   2 C :   -0.061393
   3 C :   -0.065363
   4 C :   -0.190255
   5 H :    0.028776
   6 C :   -0.028731
   7 H :    0.030917
   8 H :    0.025038
   9 C :   -0.047013
  10 H :    0.022671
  11 H :    0.022884
  12 C :   -0.068591
  13 H :    0.036144
  14 H :    0.028710
  15 H :    0.023546
  16 S :    0.398253
  17 C :   -0.184141
  18 C :   -0.074422
  19 C :   -0.045444
  20 C :   -0.180192
  21 H :    0.031413
  22 C :   -0.039516
  23 H :    0.026032
  24 H :    0.024265
  25 C :   -0.032256
  26 H :    0.017786
  27 H :    0.031831
  28 C :   -0.056649
  29 H :    0.027181
  30 H :    0.033370
  31 H :    0.014266
  32 H :    0.046088
  33 H :    0.024737

  Mayer bond orders larger than 0.100000
B(  0-S ,  1-C ) :   1.1315 B(  0-S ,  4-C ) :   1.1480 B(  1-C ,  2-C ) :   1.5969
B(  1-C , 32-H ) :   0.9596 B(  2-C ,  3-C ) :   1.2080 B(  2-C ,  6-C ) :   1.0332
B(  3-C ,  4-C ) :   1.6074 B(  3-C ,  5-H ) :   1.0025 B(  4-C , 20-C ) :   1.0171
B(  6-C ,  7-H ) :   0.9295 B(  6-C ,  8-H ) :   0.9461 B(  6-C ,  9-C ) :   1.0796
B(  9-C , 10-H ) :   0.9558 B(  9-C , 11-H ) :   0.9518 B(  9-C , 12-C ) :   1.0534
B( 12-C , 13-H ) :   0.9768 B( 12-C , 14-H ) :   0.9796 B( 12-C , 15-H ) :   0.9771
B( 16-S , 17-C ) :   1.1885 B( 16-S , 20-C ) :   1.1101 B( 17-C , 18-C ) :   1.6055
B( 17-C , 33-H ) :   0.9623 B( 18-C , 19-C ) :   1.2163 B( 18-C , 21-H ) :   0.9981
B( 19-C , 20-C ) :   1.6340 B( 19-C , 22-C ) :   1.0351 B( 22-C , 23-H ) :   0.9366
B( 22-C , 24-H ) :   0.9364 B( 22-C , 25-C ) :   1.0557 B( 25-C , 26-H ) :   0.9588
B( 25-C , 27-H ) :   0.9629 B( 25-C , 28-C ) :   1.0657 B( 28-C , 29-H ) :   0.9754
B( 28-C , 30-H ) :   0.9736 B( 28-C , 31-H ) :   0.9774

Dispersion correction           -0.013838264
FINAL SINGLE POINT ENERGY     -1339.860336582111

DIPOLE MOMENT
-------------
                                X             Y             Z
Electronic contribution:      2.43211      22.28758      -1.85313
Nuclear contribution   :     -2.43321     -22.94190       1.53507
                        -----------------------------------------
Total Dipole Moment    :     -0.00110      -0.65432      -0.31806
                        -----------------------------------------
Magnitude (a.u.)       :      0.72753
Magnitude (Debye)      :      1.84923

Rotational constants in cm-1:     0.017422     0.008150     0.006923
Rotational constants in MHz :   522.284162   244.336162   207.538204

                             ****ORCA TERMINATED NORMALLY****
TOTAL RUN TIME: 0 days 0 hours 0 minutes 31 seconds 402 msec
