                         Program Version 4.2.1 -  RELEASE  -
|  1> ! wB97X-D3 SP def2-SVP
|  2> %pal
|  3> nprocs 16
|  4> end
|  5>
|  6> * xyz 0 1
|  7> S 	 -19.8504 	 48.6716 	 65.2339
|  8> C 	 -18.9904 	 47.2241 	 65.716
|  9> C 	 -19.7149 	 46.4594 	 66.5627
| 10> C 	 -20.9209 	 47.0891 	 66.9437
| 11> C 	 -21.129 	 48.3761 	 66.3892
| 12> H 	 -21.6852 	 46.6579 	 67.5183
| 13> C 	 -19.3017 	 45.1553 	 67.0656
| 14> H 	 -18.645 	 45.2544 	 67.8919
| 15> H 	 -18.6712 	 44.6231 	 66.3001
| 16> C 	 -20.3733 	 44.1448 	 67.4544
| 17> H 	 -19.9491 	 43.2042 	 67.826
| 18> H 	 -20.9168 	 44.58 	 68.2129
| 19> C 	 -21.3946 	 43.7946 	 66.2084
| 20> H 	 -21.7063 	 44.7003 	 65.6905
| 21> H 	 -20.8809 	 43.3569 	 65.3648
| 22> H 	 -22.2461 	 43.1401 	 66.5924
| 23> S 	 -23.1019 	 49.5398 	 65.0653
| 24> C 	 -24.1451 	 50.7184 	 65.9
| 25> C 	 -24.0284 	 50.6559 	 67.2776
| 26> C 	 -22.9036 	 49.82 	 67.6486
| 27> C 	 -22.2411 	 49.3014 	 66.5615
| 28> H 	 -24.6692 	 51.23 	 67.8765
| 29> C 	 -22.3757 	 49.7181 	 69.0374
| 30> H 	 -22.5365 	 50.6311 	 69.5501
| 31> H 	 -21.2981 	 49.6454 	 68.9377
| 32> C 	 -22.949 	 48.5367 	 69.9239
| 33> H 	 -22.9484 	 47.5978 	 69.3965
| 34> H 	 -23.9256 	 48.8954 	 70.1468
| 35> C 	 -22.2579 	 48.4138 	 71.3025
| 36> H 	 -22.4332 	 47.4697 	 71.7098
| 37> H 	 -22.6576 	 49.1487 	 71.9503
| 38> H 	 -21.1873 	 48.5784 	 71.2299
| 39> H 	 -18.2291 	 46.7444 	 65.1335
| 40> H 	 -24.8683 	 51.4655 	 65.4199
| 41> *
| 42>
| 43>                          ****END OF INPUT****

CARTESIAN COORDINATES (ANGSTROEM)
---------------------------------
  S    -19.850400   48.671600   65.233900
  C    -18.990400   47.224100   65.716000
  C    -19.714900   46.459400   66.562700
  C    -20.920900   47.089100   66.943700
  C    -21.129000   48.376100   66.389200
  H    -21.685200   46.657900   67.518300
  C    -19.301700   45.155300   67.065600
  H    -18.645000   45.254400   67.891900
  H    -18.671200   44.623100   66.300100
  C    -20.373300   44.144800   67.454400
  H    -19.949100   43.204200   67.826000
  H    -20.916800   44.580000   68.212900
  C    -21.394600   43.794600   66.208400
  H    -21.706300   44.700300   65.690500
  H    -20.880900   43.356900   65.364800
  H    -22.246100   43.140100   66.592400
  S    -23.101900   49.539800   65.065300
  C    -24.145100   50.718400   65.900000
  C    -24.028400   50.655900   67.277600
  C    -22.903600   49.820000   67.648600
  C    -22.241100   49.301400   66.561500
  H    -24.669200   51.230000   67.876500
  C    -22.375700   49.718100   69.037400
  H    -22.536500   50.631100   69.550100
  H    -21.298100   49.645400   68.937700
  C    -22.949000   48.536700   69.923900
  H    -22.948400   47.597800   69.396500
  H    -23.925600   48.895400   70.146800
  C    -22.257900   48.413800   71.302500
  H    -22.433200   47.469700   71.709800
  H    -22.657600   49.148700   71.950300
  H    -21.187300   48.578400   71.229900
  H    -18.229100   46.744400   65.133500
  H    -24.868300   51.465500   65.419900

 Total Charge           Charge          ....    0
 Multiplicity           Mult            ....    1
 Number of Electrons    NEL             ....  134
 Basis Dimension        Dim             ....  322

ORBITAL ENERGIES
----------------

  NO   OCC          E(Eh)            E(eV)
   0   2.0000     -88.966033     -2420.8888
   1   2.0000     -88.964408     -2420.8446
   2   2.0000     -10.332452      -281.1603
   3   2.0000     -10.324210      -280.9360
   4   2.0000     -10.323287      -280.9109
   5   2.0000     -10.307071      -280.4697
   6   2.0000     -10.304101      -280.3888
   7   2.0000     -10.294715      -280.1334
   8   2.0000     -10.294646      -280.1315
   9   2.0000     -10.292258      -280.0666
  10   2.0000     -10.289881      -280.0019
  11   2.0000     -10.288705      -279.9699
  12   2.0000     -10.285524      -279.8833
  13   2.0000     -10.284827      -279.8644
  14   2.0000     -10.284716      -279.8613
  15   2.0000     -10.269488      -279.4470
  16   2.0000      -8.080697      -219.8870
  17   2.0000      -8.079047      -219.8421
  18   2.0000      -6.039198      -164.3349
  19   2.0000      -6.037665      -164.2932
  20   2.0000      -6.035118      -164.2239
  21   2.0000      -6.033702      -164.1854
  22   2.0000      -6.031550      -164.1268
  23   2.0000      -6.029538      -164.0721
  24   2.0000      -1.008743       -27.4493
  25   2.0000      -0.985899       -26.8277
  26   2.0000      -0.915821       -24.9207
  27   2.0000      -0.905031       -24.6271
  28   2.0000      -0.869579       -23.6625
  29   2.0000      -0.852350       -23.1936
  30   2.0000      -0.838618       -22.8200
  31   2.0000      -0.817693       -22.2506
  32   2.0000      -0.783733       -21.3264
  33   2.0000      -0.771932       -21.0053
  34   2.0000      -0.716438       -19.4953
  35   2.0000      -0.702979       -19.1290
  36   2.0000      -0.692515       -18.8443
  37   2.0000      -0.664332       -18.0774
  38   2.0000      -0.640509       -17.4291
  39   2.0000      -0.627135       -17.0652
  40   2.0000      -0.590142       -16.0586
  41   2.0000      -0.575789       -15.6680
  42   2.0000      -0.564404       -15.3582
  43   2.0000      -0.555479       -15.1154
  44   2.0000      -0.534785       -14.5522
  45   2.0000      -0.526978       -14.3398
  46   2.0000      -0.517890       -14.0925
  47   2.0000      -0.509881       -13.8746
  48   2.0000      -0.504643       -13.7320
  49   2.0000      -0.497746       -13.5444
  50   2.0000      -0.495794       -13.4912
  51   2.0000      -0.482269       -13.1232
  52   2.0000      -0.471689       -12.8353
  53   2.0000      -0.464869       -12.6497
  54   2.0000      -0.454445       -12.3661
  55   2.0000      -0.451073       -12.2743
  56   2.0000      -0.444471       -12.0947
  57   2.0000      -0.436578       -11.8799
  58   2.0000      -0.430068       -11.7028
  59   2.0000      -0.425309       -11.5732
  60   2.0000      -0.424126       -11.5410
  61   2.0000      -0.419828       -11.4241
  62   2.0000      -0.418436       -11.3862
  63   2.0000      -0.340340        -9.2611
  64   2.0000      -0.331163        -9.0114
  65   2.0000      -0.325977        -8.8703
  66   2.0000      -0.296856        -8.0779
  67   0.0000       0.024742         0.6733
  68   0.0000       0.068182         1.8553
  69   0.0000       0.103824         2.8252
  70   0.0000       0.124079         3.3764
  71   0.0000       0.132539         3.6066

MULLIKEN ATOMIC CHARGES
-----------------------
   0 S :    0.112754
   1 C :   -0.099887
   2 C :   -0.091876
   3 C :    0.062460
   4 C :   -0.175510
   5 H :   -0.011250
   6 C :    0.064778
   7 H :    0.038316
   8 H :    0.019800
   9 C :   -0.060340
  10 H :    0.036155
  11 H :    0.015288
  12 C :   -0.094874
  13 H :    0.039571
  14 H :    0.024586
  15 H :    0.059471
  16 S :    0.102027
  17 C :   -0.112226
  18 C :   -0.015117
  19 C :   -0.010820
  20 C :   -0.156410
  21 H :    0.000772
  22 C :    0.048483
  23 H :    0.007027
  24 H :    0.028503
  25 C :   -0.070717
  26 H :    0.030984
  27 H :    0.019696
  28 C :   -0.002128
  29 H :    0.022251
  30 H :    0.019827
  31 H :    0.027512
  32 H :    0.042795
  33 H :    0.078098
Sum of atomic charges:   -0.0000000

LOEWDIN ATOMIC CHARGES
----------------------
   0 S :    0.412362
   1 C :   -0.195789
   2 C :   -0.069222
   3 C :   -0.054094
   4 C :   -0.199883
   5 H :    0.018856
   6 C :   -0.035494
   7 H :    0.033470
   8 H :    0.033825
   9 C :   -0.027781
  10 H :    0.029110
  11 H :    0.007610
  12 C :   -0.077382
  13 H :    0.026597
  14 H :    0.022480
  15 H :    0.036576
  16 S :    0.393554
  17 C :   -0.181950
  18 C :   -0.062858
  19 C :   -0.050796
  20 C :   -0.200898
  21 H :    0.024558
  22 C :   -0.029909
  23 H :    0.023355
  24 H :    0.030403
  25 C :   -0.026798
  26 H :    0.017615
  27 H :    0.020381
  28 C :   -0.054485
  29 H :    0.019617
  30 H :    0.021156
  31 H :    0.024839
  32 H :    0.026928
  33 H :    0.044046

  Mayer bond orders larger than 0.100000
B(  0-S ,  1-C ) :   1.1397 B(  0-S ,  4-C ) :   1.1683 B(  1-C ,  2-C ) :   1.6130
B(  1-C ,  4-C ) :   0.1040 B(  1-C , 32-H ) :   0.9611 B(  2-C ,  3-C ) :   1.2579
B(  2-C ,  6-C ) :   1.0237 B(  3-C ,  4-C ) :   1.5319 B(  3-C ,  5-H ) :   1.0025
B(  4-C , 20-C ) :   1.0252 B(  6-C ,  7-H ) :   0.9286 B(  6-C ,  8-H ) :   0.9390
B(  6-C ,  9-C ) :   1.0827 B(  9-C , 10-H ) :   0.9562 B(  9-C , 11-H ) :   0.9524
B(  9-C , 12-C ) :   1.0590 B( 12-C , 13-H ) :   0.9750 B( 12-C , 14-H ) :   0.9750
B( 12-C , 15-H ) :   0.9778 B( 16-S , 17-C ) :   1.1331 B( 16-S , 20-C ) :   1.1367
B( 17-C , 18-C ) :   1.6486 B( 17-C , 33-H ) :   0.9562 B( 18-C , 19-C ) :   1.1862
B( 18-C , 21-H ) :   1.0015 B( 19-C , 20-C ) :   1.6340 B( 19-C , 22-C ) :   1.0561
B( 22-C , 23-H ) :   0.9383 B( 22-C , 24-H ) :   0.9364 B( 22-C , 25-C ) :   1.0494
B( 25-C , 26-H ) :   0.9634 B( 25-C , 27-H ) :   0.9583 B( 25-C , 28-C ) :   1.0813
B( 28-C , 29-H ) :   0.9748 B( 28-C , 30-H ) :   0.9760 B( 28-C , 31-H ) :   0.9767

Dispersion correction           -0.014661541
FINAL SINGLE POINT ENERGY     -1339.857130840056

DIPOLE MOMENT
-------------
                                X             Y             Z
Electronic contribution:      0.69681      17.29174     -20.76501
Nuclear contribution   :     -0.84721     -17.60031      21.30418
                        -----------------------------------------
Total Dipole Moment    :     -0.15041      -0.30857       0.53917
                        -----------------------------------------
Magnitude (a.u.)       :      0.63918
Magnitude (Debye)      :      1.62466

Rotational constants in cm-1:     0.016304     0.010045     0.007616
Rotational constants in MHz :   488.783226   301.129732   228.321132

                             ****ORCA TERMINATED NORMALLY****
TOTAL RUN TIME: 0 days 0 hours 0 minutes 34 seconds 619 msec
