                         Program Version 4.2.1 -  RELEASE  -
|  1> ! wB97X-D3 SP def2-SVP
|  2> %pal
|  3> nprocs 16
|  4> end
|  5>
|  6> * xyz 0 1
|  7> S 	 -1.47414 	 -18.2086 	 78.4005
|  8> C 	 -1.2321 	 -18.8743 	 80.0363
|  9> C 	 -2.30049 	 -18.5439 	 80.8297
| 10> C 	 -3.29233 	 -17.6969 	 80.2171
| 11> C 	 -3.02325 	 -17.3963 	 78.8885
| 12> H 	 -4.16965 	 -17.4142 	 80.7497
| 13> C 	 -2.35515 	 -19.0055 	 82.284
| 14> H 	 -1.49453 	 -19.6053 	 82.4996
| 15> H 	 -3.14058 	 -19.7219 	 82.447
| 16> C 	 -2.57366 	 -17.8842 	 83.2936
| 17> H 	 -1.75004 	 -17.1211 	 83.2619
| 18> H 	 -3.4582 	 -17.3074 	 83.1295
| 19> C 	 -2.82324 	 -18.4151 	 84.7435
| 20> H 	 -3.58962 	 -19.18 	 84.6368
| 21> H 	 -1.91872 	 -18.7919 	 85.2488
| 22> H 	 -3.3234 	 -17.6889 	 85.3845
| 23> S 	 -5.43077 	 -17.3496 	 77.3769
| 24> C 	 -5.80496 	 -15.8369 	 76.4804
| 25> C 	 -4.95512 	 -14.8619 	 76.8323
| 26> C 	 -3.87914 	 -15.3095 	 77.6872
| 27> C 	 -3.84488 	 -16.6888 	 77.9112
| 28> H 	 -5.04275 	 -13.9325 	 76.3994
| 29> C 	 -2.96578 	 -14.306 	 78.283
| 30> H 	 -2.33115 	 -14.8684 	 78.9863
| 31> H 	 -3.41118 	 -13.665 	 79.0058
| 32> C 	 -1.88599 	 -13.6507 	 77.3952
| 33> H 	 -1.31944 	 -12.99 	 77.9865
| 34> H 	 -2.29644 	 -13.006 	 76.5559
| 35> C 	 -1.00643 	 -14.8057 	 76.7981
| 36> H 	 -0.162295 	 -14.4268 	 76.1962
| 37> H 	 -1.53186 	 -15.5052 	 76.1294
| 38> H 	 -0.568009 	 -15.4212 	 77.6125
| 39> H 	 -0.343594 	 -19.3705 	 80.3948
| 40> H 	 -6.58353 	 -15.7106 	 75.7711
| 41> *
| 42>
| 43>                          ****END OF INPUT****

CARTESIAN COORDINATES (ANGSTROEM)
---------------------------------
  S     -1.474140  -18.208600   78.400500
  C     -1.232100  -18.874300   80.036300
  C     -2.300490  -18.543900   80.829700
  C     -3.292330  -17.696900   80.217100
  C     -3.023250  -17.396300   78.888500
  H     -4.169650  -17.414200   80.749700
  C     -2.355150  -19.005500   82.284000
  H     -1.494530  -19.605300   82.499600
  H     -3.140580  -19.721900   82.447000
  C     -2.573660  -17.884200   83.293600
  H     -1.750040  -17.121100   83.261900
  H     -3.458200  -17.307400   83.129500
  C     -2.823240  -18.415100   84.743500
  H     -3.589620  -19.180000   84.636800
  H     -1.918720  -18.791900   85.248800
  H     -3.323400  -17.688900   85.384500
  S     -5.430770  -17.349600   77.376900
  C     -5.804960  -15.836900   76.480400
  C     -4.955120  -14.861900   76.832300
  C     -3.879140  -15.309500   77.687200
  C     -3.844880  -16.688800   77.911200
  H     -5.042750  -13.932500   76.399400
  C     -2.965780  -14.306000   78.283000
  H     -2.331150  -14.868400   78.986300
  H     -3.411180  -13.665000   79.005800
  C     -1.885990  -13.650700   77.395200
  H     -1.319440  -12.990000   77.986500
  H     -2.296440  -13.006000   76.555900
  C     -1.006430  -14.805700   76.798100
  H     -0.162295  -14.426800   76.196200
  H     -1.531860  -15.505200   76.129400
  H     -0.568009  -15.421200   77.612500
  H     -0.343594  -19.370500   80.394800
  H     -6.583530  -15.710600   75.771100

 Total Charge           Charge          ....    0
 Multiplicity           Mult            ....    1
 Number of Electrons    NEL             ....  134
 Basis Dimension        Dim             ....  322

ORBITAL ENERGIES
----------------

  NO   OCC          E(Eh)            E(eV)
   0   2.0000     -88.965049     -2420.8621
   1   2.0000     -88.962530     -2420.7935
   2   2.0000     -10.338915      -281.3362
   3   2.0000     -10.331309      -281.1292
   4   2.0000     -10.318900      -280.7915
   5   2.0000     -10.317173      -280.7445
   6   2.0000     -10.306971      -280.4669
   7   2.0000     -10.301990      -280.3314
   8   2.0000     -10.299867      -280.2736
   9   2.0000     -10.290451      -280.0174
  10   2.0000     -10.289727      -279.9977
  11   2.0000     -10.289685      -279.9966
  12   2.0000     -10.286458      -279.9088
  13   2.0000     -10.283091      -279.8171
  14   2.0000     -10.281832      -279.7829
  15   2.0000     -10.274752      -279.5902
  16   2.0000      -8.078048      -219.8149
  17   2.0000      -8.076065      -219.7609
  18   2.0000      -6.036732      -164.2678
  19   2.0000      -6.034850      -164.2166
  20   2.0000      -6.032727      -164.1588
  21   2.0000      -6.030944      -164.1103
  22   2.0000      -6.028757      -164.0508
  23   2.0000      -6.026366      -163.9857
  24   2.0000      -0.998083       -27.1592
  25   2.0000      -0.977822       -26.6079
  26   2.0000      -0.910154       -24.7666
  27   2.0000      -0.905021       -24.6269
  28   2.0000      -0.872618       -23.7452
  29   2.0000      -0.842267       -22.9193
  30   2.0000      -0.836807       -22.7707
  31   2.0000      -0.820399       -22.3242
  32   2.0000      -0.780751       -21.2453
  33   2.0000      -0.766719       -20.8635
  34   2.0000      -0.715806       -19.4781
  35   2.0000      -0.699655       -19.0386
  36   2.0000      -0.694316       -18.8933
  37   2.0000      -0.660456       -17.9719
  38   2.0000      -0.641459       -17.4550
  39   2.0000      -0.623576       -16.9684
  40   2.0000      -0.601037       -16.3551
  41   2.0000      -0.574203       -15.6249
  42   2.0000      -0.563109       -15.3230
  43   2.0000      -0.551970       -15.0199
  44   2.0000      -0.536955       -14.6113
  45   2.0000      -0.525310       -14.2944
  46   2.0000      -0.515859       -14.0372
  47   2.0000      -0.513317       -13.9681
  48   2.0000      -0.503809       -13.7093
  49   2.0000      -0.500711       -13.6250
  50   2.0000      -0.484218       -13.1762
  51   2.0000      -0.476401       -12.9635
  52   2.0000      -0.468942       -12.7606
  53   2.0000      -0.458012       -12.4631
  54   2.0000      -0.453114       -12.3298
  55   2.0000      -0.447180       -12.1684
  56   2.0000      -0.442192       -12.0327
  57   2.0000      -0.434533       -11.8243
  58   2.0000      -0.431898       -11.7525
  59   2.0000      -0.423725       -11.5301
  60   2.0000      -0.419461       -11.4141
  61   2.0000      -0.413033       -11.2392
  62   2.0000      -0.407063       -11.0768
  63   2.0000      -0.335820        -9.1381
  64   2.0000      -0.333272        -9.0688
  65   2.0000      -0.322032        -8.7629
  66   2.0000      -0.310467        -8.4482
  67   0.0000       0.037484         1.0200
  68   0.0000       0.044949         1.2231
  69   0.0000       0.104309         2.8384
  70   0.0000       0.114323         3.1109
  71   0.0000       0.133166         3.6236

MULLIKEN ATOMIC CHARGES
-----------------------
   0 S :    0.093093
   1 C :   -0.124551
   2 C :   -0.089366
   3 C :    0.067190
   4 C :   -0.178280
   5 H :    0.007931
   6 C :    0.108208
   7 H :    0.004406
   8 H :    0.019486
   9 C :   -0.101432
  10 H :    0.037073
  11 H :    0.023007
  12 C :   -0.058414
  13 H :    0.019909
  14 H :    0.045231
  15 H :    0.032344
  16 S :    0.081347
  17 C :   -0.069407
  18 C :    0.028226
  19 C :   -0.045649
  20 C :   -0.121915
  21 H :   -0.007924
  22 C :    0.054485
  23 H :    0.013148
  24 H :    0.028034
  25 C :   -0.036565
  26 H :    0.019939
  27 H :    0.033659
  28 C :   -0.092675
  29 H :    0.032137
  30 H :    0.047264
  31 H :    0.033064
  32 H :    0.050752
  33 H :    0.046242
Sum of atomic charges:    0.0000000

LOEWDIN ATOMIC CHARGES
----------------------
   0 S :    0.373491
   1 C :   -0.183454
   2 C :   -0.062462
   3 C :   -0.049315
   4 C :   -0.170107
   5 H :    0.029156
   6 C :   -0.029383
   7 H :    0.026658
   8 H :    0.029023
   9 C :   -0.043067
  10 H :    0.027096
  11 H :    0.019893
  12 C :   -0.066619
  13 H :    0.023054
  14 H :    0.026034
  15 H :    0.026345
  16 S :    0.358032
  17 C :   -0.145580
  18 C :   -0.060606
  19 C :   -0.036411
  20 C :   -0.196316
  21 H :    0.020999
  22 C :   -0.044133
  23 H :    0.034434
  24 H :    0.029789
  25 C :   -0.031633
  26 H :    0.018029
  27 H :    0.023523
  28 C :   -0.074856
  29 H :    0.024813
  30 H :    0.026473
  31 H :    0.020594
  32 H :    0.030619
  33 H :    0.025888

  Mayer bond orders larger than 0.100000
B(  0-S ,  1-C ) :   1.1231 B(  0-S ,  4-C ) :   1.1292 B(  1-C ,  2-C ) :   1.6351
B(  1-C , 32-H ) :   0.9681 B(  2-C ,  3-C ) :   1.2211 B(  2-C ,  6-C ) :   1.0298
B(  3-C ,  4-C ) :   1.5924 B(  3-C ,  5-H ) :   0.9985 B(  4-C , 20-C ) :   1.0311
B(  6-C ,  7-H ) :   0.9415 B(  6-C ,  8-H ) :   0.9304 B(  6-C ,  9-C ) :   1.0582
B(  9-C , 10-H ) :   0.9584 B(  9-C , 11-H ) :   0.9547 B(  9-C , 12-C ) :   1.0757
B( 12-C , 13-H ) :   0.9725 B( 12-C , 14-H ) :   0.9787 B( 12-C , 15-H ) :   0.9769
B( 16-S , 17-C ) :   1.1330 B( 16-S , 20-C ) :   1.1029 B( 17-C , 18-C ) :   1.6499
B( 17-C , 33-H ) :   0.9689 B( 18-C , 19-C ) :   1.2003 B( 18-C , 21-H ) :   1.0051
B( 19-C , 20-C ) :   1.6073 B( 19-C , 22-C ) :   1.0553 B( 22-C , 23-H ) :   0.9222
B( 22-C , 24-H ) :   0.9349 B( 22-C , 25-C ) :   1.0653 B( 25-C , 26-H ) :   0.9548
B( 25-C , 27-H ) :   0.9590 B( 25-C , 28-C ) :   1.0629 B( 28-C , 29-H ) :   0.9744
B( 28-C , 30-H ) :   0.9755 B( 28-C , 31-H ) :   0.9716

Dispersion correction           -0.015050223
FINAL SINGLE POINT ENERGY     -1339.871017342629

DIPOLE MOMENT
-------------
                                X             Y             Z
Electronic contribution:     -8.58375      -8.12138     -17.48957
Nuclear contribution   :      8.51435       8.53100      18.02128
                        -----------------------------------------
Total Dipole Moment    :     -0.06940       0.40962       0.53170
                        -----------------------------------------
Magnitude (a.u.)       :      0.67477
Magnitude (Debye)      :      1.71513

Rotational constants in cm-1:     0.019719     0.007819     0.007185
Rotational constants in MHz :   591.175303   234.415589   215.415839

                             ****ORCA TERMINATED NORMALLY****
TOTAL RUN TIME: 0 days 0 hours 0 minutes 34 seconds 656 msec
