                         Program Version 4.2.1 -  RELEASE  -
|  1> ! wB97X-D3 SP def2-SVP
|  2> %pal
|  3> nprocs 16
|  4> end
|  5>
|  6> * xyz 0 1
|  7> S 	 -6.08082 	 -6.06184 	 82.7574
|  8> C 	 -7.24682 	 -7.43178 	 82.4919
|  9> C 	 -6.74256 	 -8.59152 	 83.002
| 10> C 	 -5.39386 	 -8.40955 	 83.4931
| 11> C 	 -4.95059 	 -7.09783 	 83.5694
| 12> H 	 -4.69313 	 -9.10326 	 83.8644
| 13> C 	 -7.31862 	 -9.97041 	 83.0493
| 14> H 	 -6.96056 	 -10.5349 	 82.1864
| 15> H 	 -8.41353 	 -9.94862 	 83.1399
| 16> C 	 -6.88705 	 -10.9059 	 84.2032
| 17> H 	 -7.36454 	 -11.7762 	 83.9974
| 18> H 	 -5.796 	 -11.0115 	 84.3342
| 19> C 	 -7.45475 	 -10.442 	 85.5194
| 20> H 	 -8.5143 	 -10.1381 	 85.451
| 21> H 	 -7.41745 	 -11.2002 	 86.3126
| 22> H 	 -6.93207 	 -9.55015 	 85.8552
| 23> S 	 -2.64736 	 -5.58576 	 83.2556
| 24> C 	 -1.42171 	 -5.57943 	 84.4763
| 25> C 	 -1.77934 	 -6.36396 	 85.5584
| 26> C 	 -3.11645 	 -6.89514 	 85.4145
| 27> C 	 -3.67467 	 -6.63218 	 84.2169
| 28> H 	 -1.11999 	 -6.52712 	 86.4038
| 29> C 	 -3.86387 	 -7.79687 	 86.4472
| 30> H 	 -3.1751 	 -7.94778 	 87.2846
| 31> H 	 -4.06418 	 -8.82541 	 86.025
| 32> C 	 -5.18328 	 -7.23697 	 87.0275
| 33> H 	 -5.56029 	 -8.01457 	 87.6731
| 34> H 	 -5.85431 	 -6.99748 	 86.225
| 35> C 	 -5.02724 	 -5.861 	 87.7525
| 36> H 	 -4.57395 	 -5.91956 	 88.7293
| 37> H 	 -5.99898 	 -5.41811 	 87.7403
| 38> H 	 -4.34718 	 -5.18208 	 87.1782
| 39> H 	 -8.19787 	 -7.28936 	 82.0827
| 40> H 	 -0.512953 	 -5.0634 	 84.4917
| 41> *
| 42>
| 43>                          ****END OF INPUT****

CARTESIAN COORDINATES (ANGSTROEM)
---------------------------------
  S     -6.080820   -6.061840   82.757400
  C     -7.246820   -7.431780   82.491900
  C     -6.742560   -8.591520   83.002000
  C     -5.393860   -8.409550   83.493100
  C     -4.950590   -7.097830   83.569400
  H     -4.693130   -9.103260   83.864400
  C     -7.318620   -9.970410   83.049300
  H     -6.960560  -10.534900   82.186400
  H     -8.413530   -9.948620   83.139900
  C     -6.887050  -10.905900   84.203200
  H     -7.364540  -11.776200   83.997400
  H     -5.796000  -11.011500   84.334200
  C     -7.454750  -10.442000   85.519400
  H     -8.514300  -10.138100   85.451000
  H     -7.417450  -11.200200   86.312600
  H     -6.932070   -9.550150   85.855200
  S     -2.647360   -5.585760   83.255600
  C     -1.421710   -5.579430   84.476300
  C     -1.779340   -6.363960   85.558400
  C     -3.116450   -6.895140   85.414500
  C     -3.674670   -6.632180   84.216900
  H     -1.119990   -6.527120   86.403800
  C     -3.863870   -7.796870   86.447200
  H     -3.175100   -7.947780   87.284600
  H     -4.064180   -8.825410   86.025000
  C     -5.183280   -7.236970   87.027500
  H     -5.560290   -8.014570   87.673100
  H     -5.854310   -6.997480   86.225000
  C     -5.027240   -5.861000   87.752500
  H     -4.573950   -5.919560   88.729300
  H     -5.998980   -5.418110   87.740300
  H     -4.347180   -5.182080   87.178200
  H     -8.197870   -7.289360   82.082700
  H     -0.512953   -5.063400   84.491700

 Total Charge           Charge          ....    0
 Multiplicity           Mult            ....    1
 Number of Electrons    NEL             ....  134
 Basis Dimension        Dim             ....  322

ORBITAL ENERGIES
----------------

  NO   OCC          E(Eh)            E(eV)
   0   2.0000     -88.965608     -2420.8773
   1   2.0000     -88.965413     -2420.8720
   2   2.0000     -10.333541      -281.1899
   3   2.0000     -10.327230      -281.0182
   4   2.0000     -10.316777      -280.7338
   5   2.0000     -10.315572      -280.7010
   6   2.0000     -10.305825      -280.4358
   7   2.0000     -10.304523      -280.4003
   8   2.0000     -10.298165      -280.2273
   9   2.0000     -10.297483      -280.2088
  10   2.0000     -10.295499      -280.1548
  11   2.0000     -10.290318      -280.0138
  12   2.0000     -10.281604      -279.7767
  13   2.0000     -10.281481      -279.7733
  14   2.0000     -10.274363      -279.5796
  15   2.0000     -10.271734      -279.5081
  16   2.0000      -8.080784      -219.8893
  17   2.0000      -8.079443      -219.8528
  18   2.0000      -6.039313      -164.3381
  19   2.0000      -6.038109      -164.3053
  20   2.0000      -6.035123      -164.2240
  21   2.0000      -6.034032      -164.1944
  22   2.0000      -6.031609      -164.1284
  23   2.0000      -6.030089      -164.0871
  24   2.0000      -1.007124       -27.4052
  25   2.0000      -0.984697       -26.7950
  26   2.0000      -0.919765       -25.0281
  27   2.0000      -0.901891       -24.5417
  28   2.0000      -0.870427       -23.6855
  29   2.0000      -0.847137       -23.0518
  30   2.0000      -0.841035       -22.8857
  31   2.0000      -0.816900       -22.2290
  32   2.0000      -0.784242       -21.3403
  33   2.0000      -0.776398       -21.1269
  34   2.0000      -0.708920       -19.2907
  35   2.0000      -0.700958       -19.0740
  36   2.0000      -0.687284       -18.7019
  37   2.0000      -0.666108       -18.1257
  38   2.0000      -0.645775       -17.5724
  39   2.0000      -0.624864       -17.0034
  40   2.0000      -0.591643       -16.0994
  41   2.0000      -0.573011       -15.5924
  42   2.0000      -0.559442       -15.2232
  43   2.0000      -0.548852       -14.9350
  44   2.0000      -0.545116       -14.8334
  45   2.0000      -0.540243       -14.7008
  46   2.0000      -0.522689       -14.2231
  47   2.0000      -0.514604       -14.0031
  48   2.0000      -0.505613       -13.7584
  49   2.0000      -0.497043       -13.5252
  50   2.0000      -0.490581       -13.3494
  51   2.0000      -0.476622       -12.9695
  52   2.0000      -0.471067       -12.8184
  53   2.0000      -0.467741       -12.7279
  54   2.0000      -0.456933       -12.4338
  55   2.0000      -0.446532       -12.1507
  56   2.0000      -0.442030       -12.0283
  57   2.0000      -0.436253       -11.8711
  58   2.0000      -0.427532       -11.6337
  59   2.0000      -0.423650       -11.5281
  60   2.0000      -0.420549       -11.4437
  61   2.0000      -0.417958       -11.3732
  62   2.0000      -0.412635       -11.2284
  63   2.0000      -0.346018        -9.4156
  64   2.0000      -0.333046        -9.0626
  65   2.0000      -0.328484        -8.9385
  66   2.0000      -0.300323        -8.1722
  67   0.0000       0.031132         0.8472
  68   0.0000       0.071851         1.9552
  69   0.0000       0.107599         2.9279
  70   0.0000       0.116500         3.1701
  71   0.0000       0.129776         3.5314

MULLIKEN ATOMIC CHARGES
-----------------------
   0 S :    0.092614
   1 C :   -0.118311
   2 C :   -0.034602
   3 C :    0.028952
   4 C :   -0.143732
   5 H :   -0.007993
   6 C :    0.052735
   7 H :    0.049843
   8 H :    0.027610
   9 C :   -0.044937
  10 H :    0.007225
  11 H :    0.038302
  12 C :   -0.064142
  13 H :    0.020111
  14 H :    0.033847
  15 H :    0.026828
  16 S :    0.110868
  17 C :   -0.055967
  18 C :   -0.048210
  19 C :   -0.054312
  20 C :   -0.158105
  21 H :    0.021321
  22 C :    0.043742
  23 H :    0.010335
  24 H :    0.037523
  25 C :   -0.074848
  26 H :    0.039037
  27 H :    0.048261
  28 C :   -0.049722
  29 H :    0.028265
  30 H :    0.033812
  31 H :    0.039762
  32 H :    0.027682
  33 H :    0.036205
Sum of atomic charges:   -0.0000000

LOEWDIN ATOMIC CHARGES
----------------------
   0 S :    0.377630
   1 C :   -0.164903
   2 C :   -0.058742
   3 C :   -0.062780
   4 C :   -0.191916
   5 H :    0.021066
   6 C :   -0.028401
   7 H :    0.040504
   8 H :    0.032341
   9 C :   -0.033066
  10 H :    0.013545
  11 H :    0.026680
  12 C :   -0.068307
  13 H :    0.024376
  14 H :    0.024796
  15 H :    0.023312
  16 S :    0.411267
  17 C :   -0.179417
  18 C :   -0.070778
  19 C :   -0.062067
  20 C :   -0.194697
  21 H :    0.032495
  22 C :   -0.032444
  23 H :    0.024388
  24 H :    0.032200
  25 C :   -0.035738
  26 H :    0.024102
  27 H :    0.023791
  28 C :   -0.064676
  29 H :    0.019288
  30 H :    0.024704
  31 H :    0.031777
  32 H :    0.017797
  33 H :    0.021875

  Mayer bond orders larger than 0.100000
B(  0-S ,  1-C ) :   1.1096 B(  0-S ,  4-C ) :   1.1458 B(  1-C ,  2-C ) :   1.6360
B(  1-C , 32-H ) :   0.9821 B(  2-C ,  3-C ) :   1.1905 B(  2-C ,  6-C ) :   1.0257
B(  3-C ,  4-C ) :   1.6129 B(  3-C ,  5-H ) :   0.9944 B(  4-C , 20-C ) :   1.0023
B(  6-C ,  7-H ) :   0.9319 B(  6-C ,  8-H ) :   0.9443 B(  6-C ,  9-C ) :   1.0901
B(  9-C , 10-H ) :   0.9480 B(  9-C , 11-H ) :   0.9466 B(  9-C , 12-C ) :   1.0847
B( 12-C , 13-H ) :   0.9690 B( 12-C , 14-H ) :   0.9741 B( 12-C , 15-H ) :   0.9727
B( 16-S , 17-C ) :   1.1590 B( 16-S , 20-C ) :   1.1334 B( 17-C , 18-C ) :   1.6176
B( 17-C , 33-H ) :   0.9719 B( 18-C , 19-C ) :   1.2304 B( 18-C , 21-H ) :   0.9894
B( 19-C , 20-C ) :   1.6424 B( 19-C , 22-C ) :   1.0241 B( 22-C , 23-H ) :   0.9351
B( 22-C , 24-H ) :   0.9423 B( 22-C , 25-C ) :   1.0725 B( 25-C , 26-H ) :   0.9522
B( 25-C , 27-H ) :   0.9565 B( 25-C , 28-C ) :   1.0668 B( 28-C , 29-H ) :   0.9760
B( 28-C , 30-H ) :   0.9775 B( 28-C , 31-H ) :   0.9743

Dispersion correction           -0.016465925
FINAL SINGLE POINT ENERGY     -1339.877778314155

DIPOLE MOMENT
-------------
                                X             Y             Z
Electronic contribution:     10.91291      16.76257     -19.15306
Nuclear contribution   :    -10.99395     -17.36441      19.56763
                        -----------------------------------------
Total Dipole Moment    :     -0.08104      -0.60184       0.41457
                        -----------------------------------------
Magnitude (a.u.)       :      0.73529
Magnitude (Debye)      :      1.86895

Rotational constants in cm-1:     0.019217     0.010178     0.008144
Rotational constants in MHz :   576.104854   305.130762   244.141080

                             ****ORCA TERMINATED NORMALLY****
TOTAL RUN TIME: 0 days 0 hours 0 minutes 37 seconds 797 msec
