                         Program Version 4.2.1 -  RELEASE  -
|  1> ! wB97X-D3 SP def2-SVP
|  2> %pal
|  3> nprocs 16
|  4> end
|  5>
|  6> * xyz 0 1
|  7> S 	 -68.7099 	 39.3507 	 136.751
|  8> C 	 -67.0064 	 39.4975 	 137.085
|  9> C 	 -66.4551 	 38.4155 	 137.713
| 10> C 	 -67.4221 	 37.3494 	 137.645
| 11> C 	 -68.635 	 37.6857 	 137.163
| 12> H 	 -67.18 	 36.3836 	 138.135
| 13> C 	 -65.0399 	 38.2766 	 138.222
| 14> H 	 -64.4158 	 39.1772 	 137.889
| 15> H 	 -64.5467 	 37.3156 	 137.984
| 16> C 	 -64.9725 	 38.2897 	 139.803
| 17> H 	 -63.9066 	 37.9988 	 139.982
| 18> H 	 -65.0358 	 39.2339 	 140.292
| 19> C 	 -65.8946 	 37.3485 	 140.641
| 20> H 	 -66.0337 	 36.3365 	 140.219
| 21> H 	 -65.5629 	 37.1402 	 141.694
| 22> H 	 -66.8929 	 37.7508 	 140.775
| 23> S 	 -71.1267 	 37.3863 	 138.35
| 24> C 	 -71.9342 	 35.8897 	 138.077
| 25> C 	 -71.3309 	 35.131 	 137.106
| 26> C 	 -70.0883 	 35.6533 	 136.658
| 27> C 	 -69.8239 	 36.8799 	 137.277
| 28> H 	 -71.7847 	 34.2328 	 136.898
| 29> C 	 -69.142 	 34.8661 	 135.742
| 30> H 	 -68.3568 	 35.4872 	 135.353
| 31> H 	 -69.6783 	 34.7155 	 134.839
| 32> C 	 -68.6545 	 33.4825 	 136.176
| 33> H 	 -68.2398 	 33.6602 	 137.07
| 34> H 	 -67.8665 	 33.2733 	 135.446
| 35> C 	 -69.6006 	 32.3078 	 136.474
| 36> H 	 -70.1405 	 32.5762 	 137.321
| 37> H 	 -69.1042 	 31.3667 	 136.721
| 38> H 	 -70.3321 	 32.0549 	 135.714
| 39> H 	 -66.4797 	 40.3882 	 136.779
| 40> H 	 -72.8372 	 35.5105 	 138.482
| 41> *
| 42>
| 43>                          ****END OF INPUT****

CARTESIAN COORDINATES (ANGSTROEM)
---------------------------------
  S    -68.709900   39.350700  136.751000
  C    -67.006400   39.497500  137.085000
  C    -66.455100   38.415500  137.713000
  C    -67.422100   37.349400  137.645000
  C    -68.635000   37.685700  137.163000
  H    -67.180000   36.383600  138.135000
  C    -65.039900   38.276600  138.222000
  H    -64.415800   39.177200  137.889000
  H    -64.546700   37.315600  137.984000
  C    -64.972500   38.289700  139.803000
  H    -63.906600   37.998800  139.982000
  H    -65.035800   39.233900  140.292000
  C    -65.894600   37.348500  140.641000
  H    -66.033700   36.336500  140.219000
  H    -65.562900   37.140200  141.694000
  H    -66.892900   37.750800  140.775000
  S    -71.126700   37.386300  138.350000
  C    -71.934200   35.889700  138.077000
  C    -71.330900   35.131000  137.106000
  C    -70.088300   35.653300  136.658000
  C    -69.823900   36.879900  137.277000
  H    -71.784700   34.232800  136.898000
  C    -69.142000   34.866100  135.742000
  H    -68.356800   35.487200  135.353000
  H    -69.678300   34.715500  134.839000
  C    -68.654500   33.482500  136.176000
  H    -68.239800   33.660200  137.070000
  H    -67.866500   33.273300  135.446000
  C    -69.600600   32.307800  136.474000
  H    -70.140500   32.576200  137.321000
  H    -69.104200   31.366700  136.721000
  H    -70.332100   32.054900  135.714000
  H    -66.479700   40.388200  136.779000
  H    -72.837200   35.510500  138.482000

 Total Charge           Charge          ....    0
 Multiplicity           Mult            ....    1
 Number of Electrons    NEL             ....  134
 Basis Dimension        Dim             ....  322

ORBITAL ENERGIES
----------------

  NO   OCC          E(Eh)            E(eV)
   0   2.0000     -88.966890     -2420.9121
   1   2.0000     -88.963249     -2420.8131
   2   2.0000     -10.322104      -280.8787
   3   2.0000     -10.318639      -280.7844
   4   2.0000     -10.310536      -280.5639
   5   2.0000     -10.309041      -280.5233
   6   2.0000     -10.307900      -280.4922
   7   2.0000     -10.301380      -280.3148
   8   2.0000     -10.300003      -280.2773
   9   2.0000     -10.292361      -280.0694
  10   2.0000     -10.290970      -280.0315
  11   2.0000     -10.284634      -279.8591
  12   2.0000     -10.282898      -279.8119
  13   2.0000     -10.281620      -279.7771
  14   2.0000     -10.277598      -279.6677
  15   2.0000     -10.273639      -279.5599
  16   2.0000      -8.081657      -219.9131
  17   2.0000      -8.079190      -219.8459
  18   2.0000      -6.040118      -164.3600
  19   2.0000      -6.037580      -164.2909
  20   2.0000      -6.036242      -164.2545
  21   2.0000      -6.033751      -164.1867
  22   2.0000      -6.032398      -164.1499
  23   2.0000      -6.029785      -164.0788
  24   2.0000      -1.011977       -27.5373
  25   2.0000      -0.987113       -26.8607
  26   2.0000      -0.910253       -24.7693
  27   2.0000      -0.906389       -24.6641
  28   2.0000      -0.869589       -23.6627
  29   2.0000      -0.850726       -23.1494
  30   2.0000      -0.843086       -22.9415
  31   2.0000      -0.816765       -22.2253
  32   2.0000      -0.792395       -21.5622
  33   2.0000      -0.777780       -21.1645
  34   2.0000      -0.710341       -19.3294
  35   2.0000      -0.700243       -19.0546
  36   2.0000      -0.695905       -18.9365
  37   2.0000      -0.659111       -17.9353
  38   2.0000      -0.641049       -17.4438
  39   2.0000      -0.620367       -16.8811
  40   2.0000      -0.599850       -16.3228
  41   2.0000      -0.574332       -15.6284
  42   2.0000      -0.551691       -15.0123
  43   2.0000      -0.544879       -14.8269
  44   2.0000      -0.539002       -14.6670
  45   2.0000      -0.529611       -14.4114
  46   2.0000      -0.516701       -14.0602
  47   2.0000      -0.512240       -13.9388
  48   2.0000      -0.502206       -13.6657
  49   2.0000      -0.496395       -13.5076
  50   2.0000      -0.492003       -13.3881
  51   2.0000      -0.478978       -13.0337
  52   2.0000      -0.470951       -12.8152
  53   2.0000      -0.466945       -12.7062
  54   2.0000      -0.462883       -12.5957
  55   2.0000      -0.446380       -12.1466
  56   2.0000      -0.445133       -12.1127
  57   2.0000      -0.436920       -11.8892
  58   2.0000      -0.436462       -11.8767
  59   2.0000      -0.429074       -11.6757
  60   2.0000      -0.420161       -11.4332
  61   2.0000      -0.415524       -11.3070
  62   2.0000      -0.412509       -11.2249
  63   2.0000      -0.343840        -9.3564
  64   2.0000      -0.331032        -9.0078
  65   2.0000      -0.328777        -8.9465
  66   2.0000      -0.292450        -7.9580
  67   0.0000       0.044003         1.1974
  68   0.0000       0.063870         1.7380
  69   0.0000       0.118488         3.2242
  70   0.0000       0.120263         3.2725
  71   0.0000       0.131590         3.5807

MULLIKEN ATOMIC CHARGES
-----------------------
   0 S :    0.110731
   1 C :   -0.138541
   2 C :   -0.053440
   3 C :    0.020311
   4 C :   -0.159262
   5 H :    0.017634
   6 C :    0.048405
   7 H :    0.044739
   8 H :    0.044121
   9 C :   -0.083573
  10 H :    0.028668
  11 H :    0.028829
  12 C :   -0.085756
  13 H :    0.025805
  14 H :    0.039272
  15 H :    0.043942
  16 S :    0.126172
  17 C :   -0.069609
  18 C :   -0.029297
  19 C :   -0.023704
  20 C :   -0.172383
  21 H :   -0.017272
  22 C :    0.103358
  23 H :    0.017808
  24 H :    0.008343
  25 C :   -0.025167
  26 H :   -0.002443
  27 H :    0.031474
  28 C :   -0.032391
  29 H :    0.017835
  30 H :    0.034205
  31 H :    0.025124
  32 H :    0.042159
  33 H :    0.033903
Sum of atomic charges:   -0.0000000

LOEWDIN ATOMIC CHARGES
----------------------
   0 S :    0.414046
   1 C :   -0.188964
   2 C :   -0.068009
   3 C :   -0.058400
   4 C :   -0.211654
   5 H :    0.032977
   6 C :   -0.030688
   7 H :    0.044964
   8 H :    0.036514
   9 C :   -0.042552
  10 H :    0.026595
  11 H :    0.019670
  12 C :   -0.078674
  13 H :    0.020915
  14 H :    0.034272
  15 H :    0.026502
  16 S :    0.411434
  17 C :   -0.189622
  18 C :   -0.064215
  19 C :   -0.049453
  20 C :   -0.198343
  21 H :    0.016419
  22 C :   -0.029678
  23 H :    0.032705
  24 H :    0.027912
  25 C :   -0.029038
  26 H :    0.008980
  27 H :    0.029760
  28 C :   -0.060965
  29 H :    0.017185
  30 H :    0.032445
  31 H :    0.021052
  32 H :    0.021551
  33 H :    0.024355

  Mayer bond orders larger than 0.100000
B(  0-S ,  1-C ) :   1.1428 B(  0-S ,  4-C ) :   1.1429 B(  1-C ,  2-C ) :   1.6220
B(  1-C , 32-H ) :   0.9680 B(  2-C ,  3-C ) :   1.2323 B(  2-C ,  6-C ) :   1.0309
B(  3-C ,  4-C ) :   1.5978 B(  3-C ,  5-H ) :   0.9857 B(  4-C , 20-C ) :   1.0297
B(  6-C ,  7-H ) :   0.9413 B(  6-C ,  8-H ) :   0.9466 B(  6-C ,  9-C ) :   1.0548
B(  9-C , 10-H ) :   0.9618 B(  9-C , 11-H ) :   0.9589 B(  9-C , 12-C ) :   1.0712
B( 12-C , 13-H ) :   0.9748 B( 12-C , 14-H ) :   0.9725 B( 12-C , 15-H ) :   0.9738
B( 16-S , 17-C ) :   1.1451 B( 16-S , 20-C ) :   1.1418 B( 17-C , 18-C ) :   1.6376
B( 17-C , 33-H ) :   0.9651 B( 18-C , 19-C ) :   1.2230 B( 18-C , 21-H ) :   0.9993
B( 19-C , 20-C ) :   1.6020 B( 19-C , 22-C ) :   1.0462 B( 22-C , 23-H ) :   0.9234
B( 22-C , 24-H ) :   0.9214 B( 22-C , 25-C ) :   1.0677 B( 25-C , 26-H ) :   0.9530
B( 25-C , 27-H ) :   0.9539 B( 25-C , 28-C ) :   1.0772 B( 28-C , 29-H ) :   0.9683
B( 28-C , 30-H ) :   0.9694 B( 28-C , 31-H ) :   0.9776

Dispersion correction           -0.014823814
FINAL SINGLE POINT ENERGY     -1339.860488012648

DIPOLE MOMENT
-------------
                                X             Y             Z
Electronic contribution:    -16.03904      18.56047      -4.74748
Nuclear contribution   :     16.48561     -19.01050       4.88701
                        -----------------------------------------
Total Dipole Moment    :      0.44657      -0.45003       0.13953
                        -----------------------------------------
Magnitude (a.u.)       :      0.64917
Magnitude (Debye)      :      1.65005

Rotational constants in cm-1:     0.018180     0.008883     0.007563
Rotational constants in MHz :   545.030763   266.298711   226.740391

                             ****ORCA TERMINATED NORMALLY****
TOTAL RUN TIME: 0 days 0 hours 0 minutes 35 seconds 464 msec
