                         Program Version 4.2.1 -  RELEASE  -
|  1> ! wB97X-D3 SP def2-SVP
|  2> %pal
|  3> nprocs 16
|  4> end
|  5>
|  6> * xyz 0 1
|  7> S 	 -36.5122 	 50.2303 	 101.978
|  8> C 	 -34.8138 	 50.3565 	 102.278
|  9> C 	 -34.2981 	 51.6068 	 102.079
| 10> C 	 -35.4146 	 52.5025 	 101.709
| 11> C 	 -36.6466 	 51.8651 	 101.639
| 12> H 	 -35.2912 	 53.5486 	 101.466
| 13> C 	 -32.9008 	 52.075 	 102.332
| 14> H 	 -32.6499 	 51.8314 	 103.409
| 15> H 	 -32.9468 	 53.2094 	 102.231
| 16> C 	 -31.9109 	 51.457 	 101.379
| 17> H 	 -30.9455 	 51.8384 	 101.569
| 18> H 	 -31.9289 	 50.3907 	 101.301
| 19> C 	 -32.0426 	 52.0026 	 99.9472
| 20> H 	 -31.2078 	 51.5921 	 99.3023
| 21> H 	 -33.0349 	 51.737 	 99.655
| 22> H 	 -32.0316 	 53.1234 	 99.9215
| 23> S 	 -38.9272 	 53.2775 	 102.359
| 24> C 	 -39.8809 	 54.0908 	 101.142
| 25> C 	 -39.4931 	 53.5513 	 99.9006
| 26> C 	 -38.3103 	 52.683 	 99.9419
| 27> C 	 -37.8244 	 52.5419 	 101.218
| 28> H 	 -40.1233 	 53.8157 	 99.0171
| 29> C 	 -37.734 	 52.1469 	 98.6278
| 30> H 	 -38.5256 	 52.2663 	 97.8707
| 31> H 	 -37.5991 	 51.0564 	 98.7085
| 32> C 	 -36.4789 	 52.9891 	 98.1485
| 33> H 	 -35.6051 	 52.7395 	 98.67
| 34> H 	 -36.73 	 54.0729 	 98.2075
| 35> C 	 -36.2958 	 52.6006 	 96.6935
| 36> H 	 -37.054 	 52.8557 	 95.9646
| 37> H 	 -35.9326 	 51.5718 	 96.7036
| 38> H 	 -35.4746 	 53.0988 	 96.1738
| 39> H 	 -34.2376 	 49.5323 	 102.662
| 40> H 	 -40.8512 	 54.6383 	 101.279
| 41> *
| 42>
| 43>                          ****END OF INPUT****

CARTESIAN COORDINATES (ANGSTROEM)
---------------------------------
  S    -36.512200   50.230300  101.978000
  C    -34.813800   50.356500  102.278000
  C    -34.298100   51.606800  102.079000
  C    -35.414600   52.502500  101.709000
  C    -36.646600   51.865100  101.639000
  H    -35.291200   53.548600  101.466000
  C    -32.900800   52.075000  102.332000
  H    -32.649900   51.831400  103.409000
  H    -32.946800   53.209400  102.231000
  C    -31.910900   51.457000  101.379000
  H    -30.945500   51.838400  101.569000
  H    -31.928900   50.390700  101.301000
  C    -32.042600   52.002600   99.947200
  H    -31.207800   51.592100   99.302300
  H    -33.034900   51.737000   99.655000
  H    -32.031600   53.123400   99.921500
  S    -38.927200   53.277500  102.359000
  C    -39.880900   54.090800  101.142000
  C    -39.493100   53.551300   99.900600
  C    -38.310300   52.683000   99.941900
  C    -37.824400   52.541900  101.218000
  H    -40.123300   53.815700   99.017100
  C    -37.734000   52.146900   98.627800
  H    -38.525600   52.266300   97.870700
  H    -37.599100   51.056400   98.708500
  C    -36.478900   52.989100   98.148500
  H    -35.605100   52.739500   98.670000
  H    -36.730000   54.072900   98.207500
  C    -36.295800   52.600600   96.693500
  H    -37.054000   52.855700   95.964600
  H    -35.932600   51.571800   96.703600
  H    -35.474600   53.098800   96.173800
  H    -34.237600   49.532300  102.662000
  H    -40.851200   54.638300  101.279000

 Total Charge           Charge          ....    0
 Multiplicity           Mult            ....    1
 Number of Electrons    NEL             ....  134
 Basis Dimension        Dim             ....  322

ORBITAL ENERGIES
----------------

  NO   OCC          E(Eh)            E(eV)
   0   2.0000     -88.968362     -2420.9522
   1   2.0000     -88.961006     -2420.7520
   2   2.0000     -10.321270      -280.8560
   3   2.0000     -10.320468      -280.8342
   4   2.0000     -10.319896      -280.8186
   5   2.0000     -10.310240      -280.5559
   6   2.0000     -10.302665      -280.3498
   7   2.0000     -10.302594      -280.3478
   8   2.0000     -10.302108      -280.3346
   9   2.0000     -10.298715      -280.2423
  10   2.0000     -10.295690      -280.1600
  11   2.0000     -10.294647      -280.1316
  12   2.0000     -10.286583      -279.9122
  13   2.0000     -10.280432      -279.7448
  14   2.0000     -10.280276      -279.7405
  15   2.0000     -10.271587      -279.5041
  16   2.0000      -8.084698      -219.9958
  17   2.0000      -8.075748      -219.7523
  18   2.0000      -6.043047      -164.4397
  19   2.0000      -6.038928      -164.3276
  20   2.0000      -6.035582      -164.2365
  21   2.0000      -6.034303      -164.2017
  22   2.0000      -6.030207      -164.0903
  23   2.0000      -6.026486      -163.9890
  24   2.0000      -1.013114       -27.5682
  25   2.0000      -0.983774       -26.7698
  26   2.0000      -0.922282       -25.0966
  27   2.0000      -0.903800       -24.5937
  28   2.0000      -0.872718       -23.7479
  29   2.0000      -0.849895       -23.1268
  30   2.0000      -0.844313       -22.9749
  31   2.0000      -0.808694       -22.0057
  32   2.0000      -0.780748       -21.2452
  33   2.0000      -0.767385       -20.8816
  34   2.0000      -0.706804       -19.2331
  35   2.0000      -0.701495       -19.0887
  36   2.0000      -0.692922       -18.8554
  37   2.0000      -0.653787       -17.7904
  38   2.0000      -0.646820       -17.6009
  39   2.0000      -0.608094       -16.5471
  40   2.0000      -0.589568       -16.0430
  41   2.0000      -0.578212       -15.7339
  42   2.0000      -0.568460       -15.4686
  43   2.0000      -0.557296       -15.1648
  44   2.0000      -0.546130       -14.8610
  45   2.0000      -0.521387       -14.1877
  46   2.0000      -0.514629       -14.0038
  47   2.0000      -0.513710       -13.9788
  48   2.0000      -0.509909       -13.8753
  49   2.0000      -0.497015       -13.5245
  50   2.0000      -0.487704       -13.2711
  51   2.0000      -0.473352       -12.8806
  52   2.0000      -0.467497       -12.7212
  53   2.0000      -0.462930       -12.5970
  54   2.0000      -0.459045       -12.4912
  55   2.0000      -0.447798       -12.1852
  56   2.0000      -0.445840       -12.1319
  57   2.0000      -0.441289       -12.0081
  58   2.0000      -0.428890       -11.6707
  59   2.0000      -0.426334       -11.6011
  60   2.0000      -0.417242       -11.3537
  61   2.0000      -0.411073       -11.1859
  62   2.0000      -0.407290       -11.0829
  63   2.0000      -0.331442        -9.0190
  64   2.0000      -0.323355        -8.7989
  65   2.0000      -0.319881        -8.7044
  66   2.0000      -0.316004        -8.5989
  67   0.0000       0.050898         1.3850
  68   0.0000       0.052086         1.4173
  69   0.0000       0.115434         3.1411
  70   0.0000       0.117179         3.1886
  71   0.0000       0.127583         3.4717

MULLIKEN ATOMIC CHARGES
-----------------------
   0 S :    0.142516
   1 C :   -0.133874
   2 C :   -0.097064
   3 C :    0.035120
   4 C :   -0.177322
   5 H :    0.013767
   6 C :    0.042368
   7 H :    0.054960
   8 H :    0.035732
   9 C :   -0.028455
  10 H :    0.017346
  11 H :    0.033846
  12 C :   -0.097111
  13 H :    0.052716
  14 H :    0.033282
  15 H :    0.028172
  16 S :    0.109775
  17 C :   -0.117539
  18 C :   -0.072463
  19 C :   -0.019626
  20 C :   -0.189114
  21 H :    0.035780
  22 C :    0.070084
  23 H :    0.015220
  24 H :    0.035389
  25 C :   -0.041273
  26 H :    0.035322
  27 H :    0.040177
  28 C :   -0.058352
  29 H :    0.034331
  30 H :    0.029811
  31 H :    0.012950
  32 H :    0.040356
  33 H :    0.083173
Sum of atomic charges:    0.0000000

LOEWDIN ATOMIC CHARGES
----------------------
   0 S :    0.452513
   1 C :   -0.203308
   2 C :   -0.066610
   3 C :   -0.053462
   4 C :   -0.230935
   5 H :    0.028390
   6 C :   -0.036199
   7 H :    0.042926
   8 H :    0.039646
   9 C :   -0.039540
  10 H :    0.019859
  11 H :    0.023275
  12 C :   -0.065239
  13 H :    0.034364
  14 H :    0.015120
  15 H :    0.024820
  16 S :    0.406542
  17 C :   -0.206591
  18 C :   -0.081881
  19 C :   -0.055059
  20 C :   -0.210359
  21 H :    0.034640
  22 C :   -0.028449
  23 H :    0.030545
  24 H :    0.032111
  25 C :   -0.025591
  26 H :    0.018788
  27 H :    0.030838
  28 C :   -0.076806
  29 H :    0.024618
  30 H :    0.028731
  31 H :    0.022530
  32 H :    0.023690
  33 H :    0.046085

  Mayer bond orders larger than 0.100000
B(  0-S ,  1-C ) :   1.1534 B(  0-S ,  4-C ) :   1.1721 B(  1-C ,  2-C ) :   1.6068
B(  1-C , 32-H ) :   0.9672 B(  2-C ,  3-C ) :   1.2429 B(  2-C ,  6-C ) :   1.0092
B(  3-C ,  4-C ) :   1.5718 B(  3-C ,  5-H ) :   0.9890 B(  4-C , 20-C ) :   1.0365
B(  6-C ,  7-H ) :   0.9391 B(  6-C ,  8-H ) :   0.9439 B(  6-C ,  9-C ) :   1.0741
B(  9-C , 10-H ) :   0.9552 B(  9-C , 11-H ) :   0.9596 B(  9-C , 12-C ) :   1.0612
B( 12-C , 13-H ) :   0.9735 B( 12-C , 14-H ) :   0.9790 B( 12-C , 15-H ) :   0.9747
B( 16-S , 17-C ) :   1.1566 B( 16-S , 20-C ) :   1.1424 B( 17-C , 18-C ) :   1.6107
B( 17-C , 33-H ) :   0.9592 B( 18-C , 19-C ) :   1.2403 B( 18-C , 21-H ) :   0.9780
B( 19-C , 20-C ) :   1.6020 B( 19-C , 22-C ) :   1.0455 B( 22-C , 23-H ) :   0.9404
B( 22-C , 24-H ) :   0.9282 B( 22-C , 25-C ) :   1.0539 B( 25-C , 26-H ) :   0.9519
B( 25-C , 27-H ) :   0.9571 B( 25-C , 28-C ) :   1.0944 B( 28-C , 29-H ) :   0.9749
B( 28-C , 30-H ) :   0.9703 B( 28-C , 31-H ) :   0.9682

Dispersion correction           -0.015292435
FINAL SINGLE POINT ENERGY     -1339.867698887571

DIPOLE MOMENT
-------------
                                X             Y             Z
Electronic contribution:    -20.89899      -3.42588      19.87234
Nuclear contribution   :     21.32544       3.48957     -20.27448
                        -----------------------------------------
Total Dipole Moment    :      0.42645       0.06369      -0.40213
                        -----------------------------------------
Magnitude (a.u.)       :      0.58960
Magnitude (Debye)      :      1.49865

Rotational constants in cm-1:     0.018547     0.009553     0.007400
Rotational constants in MHz :   556.026592   286.394443   221.837688

                             ****ORCA TERMINATED NORMALLY****
TOTAL RUN TIME: 0 days 0 hours 0 minutes 29 seconds 625 msec
