                         Program Version 4.2.1 -  RELEASE  -
|  1> ! wB97X-D3 SP def2-SVP
|  2> %pal
|  3> nprocs 16
|  4> end
|  5>
|  6> * xyz 0 1
|  7> S 	 48.3101 	 12.1237 	 77.2776
|  8> C 	 47.6075 	 10.7444 	 78.1624
|  9> C 	 47.2217 	 11.1369 	 79.4766
| 10> C 	 47.4797 	 12.545 	 79.7186
| 11> C 	 48.0325 	 13.2103 	 78.64
| 12> H 	 47.3176 	 13.0329 	 80.6481
| 13> C 	 46.6336 	 10.2037 	 80.6013
| 14> H 	 47.1996 	 10.166 	 81.536
| 15> H 	 46.8948 	 9.21843 	 80.1812
| 16> C 	 45.1529 	 10.2371 	 80.8667
| 17> H 	 44.6009 	 10.312 	 79.8812
| 18> H 	 44.8114 	 9.29448 	 81.3887
| 19> C 	 44.7649 	 11.4559 	 81.7537
| 20> H 	 45.2257 	 11.2429 	 82.7629
| 21> H 	 45.1361 	 12.4379 	 81.4123
| 22> H 	 43.69 	 11.5632 	 81.9849
| 23> S 	 49.9334 	 14.9588 	 78.0542
| 24> C 	 49.834 	 16.5964 	 78.5754
| 25> C 	 48.6288 	 16.8545 	 79.2297
| 26> C 	 47.7827 	 15.7146 	 79.2029
| 27> C 	 48.4005 	 14.6229 	 78.6493
| 28> H 	 48.5141 	 17.9023 	 79.5339
| 29> C 	 46.3456 	 15.6753 	 79.8087
| 30> H 	 46.0981 	 14.5677 	 79.6598
| 31> H 	 45.8127 	 16.3249 	 79.1506
| 32> C 	 46.2743 	 16.1525 	 81.2528
| 33> H 	 45.1769 	 16.2452 	 81.3318
| 34> H 	 46.7565 	 17.1031 	 81.5196
| 35> C 	 46.9084 	 15.1245 	 82.2542
| 36> H 	 47.9468 	 14.9045 	 82.0675
| 37> H 	 46.3578 	 14.1793 	 82.1559
| 38> H 	 46.9187 	 15.5965 	 83.2837
| 39> H 	 47.4356 	 9.77806 	 77.7331
| 40> H 	 50.5472 	 17.3939 	 78.5091
| 41> *
| 42>
| 43>                          ****END OF INPUT****

CARTESIAN COORDINATES (ANGSTROEM)
---------------------------------
  S     48.310100   12.123700   77.277600
  C     47.607500   10.744400   78.162400
  C     47.221700   11.136900   79.476600
  C     47.479700   12.545000   79.718600
  C     48.032500   13.210300   78.640000
  H     47.317600   13.032900   80.648100
  C     46.633600   10.203700   80.601300
  H     47.199600   10.166000   81.536000
  H     46.894800    9.218430   80.181200
  C     45.152900   10.237100   80.866700
  H     44.600900   10.312000   79.881200
  H     44.811400    9.294480   81.388700
  C     44.764900   11.455900   81.753700
  H     45.225700   11.242900   82.762900
  H     45.136100   12.437900   81.412300
  H     43.690000   11.563200   81.984900
  S     49.933400   14.958800   78.054200
  C     49.834000   16.596400   78.575400
  C     48.628800   16.854500   79.229700
  C     47.782700   15.714600   79.202900
  C     48.400500   14.622900   78.649300
  H     48.514100   17.902300   79.533900
  C     46.345600   15.675300   79.808700
  H     46.098100   14.567700   79.659800
  H     45.812700   16.324900   79.150600
  C     46.274300   16.152500   81.252800
  H     45.176900   16.245200   81.331800
  H     46.756500   17.103100   81.519600
  C     46.908400   15.124500   82.254200
  H     47.946800   14.904500   82.067500
  H     46.357800   14.179300   82.155900
  H     46.918700   15.596500   83.283700
  H     47.435600    9.778060   77.733100
  H     50.547200   17.393900   78.509100

 Total Charge           Charge          ....    0
 Multiplicity           Mult            ....    1
 Number of Electrons    NEL             ....  134
 Basis Dimension        Dim             ....  322

ORBITAL ENERGIES
----------------

  NO   OCC          E(Eh)            E(eV)
   0   2.0000     -88.971598     -2421.0403
   1   2.0000     -88.965814     -2420.8829
   2   2.0000     -10.332513      -281.1620
   3   2.0000     -10.323602      -280.9195
   4   2.0000     -10.317404      -280.7508
   5   2.0000     -10.314264      -280.6654
   6   2.0000     -10.311796      -280.5982
   7   2.0000     -10.299559      -280.2653
   8   2.0000     -10.297655      -280.2134
   9   2.0000     -10.297448      -280.2078
  10   2.0000     -10.293955      -280.1128
  11   2.0000     -10.293451      -280.0991
  12   2.0000     -10.292471      -280.0724
  13   2.0000     -10.292332      -280.0686
  14   2.0000     -10.286438      -279.9082
  15   2.0000     -10.284718      -279.8614
  16   2.0000      -8.085245      -220.0107
  17   2.0000      -8.082309      -219.9308
  18   2.0000      -6.043866      -164.4620
  19   2.0000      -6.040589      -164.3728
  20   2.0000      -6.039913      -164.3544
  21   2.0000      -6.036503      -164.2616
  22   2.0000      -6.035944      -164.2464
  23   2.0000      -6.033266      -164.1735
  24   2.0000      -1.014914       -27.6172
  25   2.0000      -0.979898       -26.6644
  26   2.0000      -0.908757       -24.7285
  27   2.0000      -0.907093       -24.6833
  28   2.0000      -0.869679       -23.6652
  29   2.0000      -0.849296       -23.1105
  30   2.0000      -0.840082       -22.8598
  31   2.0000      -0.814607       -22.1666
  32   2.0000      -0.781580       -21.2679
  33   2.0000      -0.773889       -21.0586
  34   2.0000      -0.705421       -19.1955
  35   2.0000      -0.696954       -18.9651
  36   2.0000      -0.693291       -18.8654
  37   2.0000      -0.657899       -17.9024
  38   2.0000      -0.641288       -17.4503
  39   2.0000      -0.621699       -16.9173
  40   2.0000      -0.590071       -16.0567
  41   2.0000      -0.573868       -15.6157
  42   2.0000      -0.555693       -15.1212
  43   2.0000      -0.545856       -14.8535
  44   2.0000      -0.540409       -14.7053
  45   2.0000      -0.533253       -14.5106
  46   2.0000      -0.525196       -14.2913
  47   2.0000      -0.507213       -13.8020
  48   2.0000      -0.505000       -13.7417
  49   2.0000      -0.493240       -13.4217
  50   2.0000      -0.491481       -13.3739
  51   2.0000      -0.483249       -13.1499
  52   2.0000      -0.471116       -12.8197
  53   2.0000      -0.468049       -12.7363
  54   2.0000      -0.457307       -12.4440
  55   2.0000      -0.445500       -12.1227
  56   2.0000      -0.444594       -12.0980
  57   2.0000      -0.437445       -11.9035
  58   2.0000      -0.433317       -11.7911
  59   2.0000      -0.422784       -11.5045
  60   2.0000      -0.417351       -11.3567
  61   2.0000      -0.414173       -11.2702
  62   2.0000      -0.404167       -10.9979
  63   2.0000      -0.351513        -9.5652
  64   2.0000      -0.334409        -9.0997
  65   2.0000      -0.330992        -9.0068
  66   2.0000      -0.289165        -7.8686
  67   0.0000       0.030380         0.8267
  68   0.0000       0.072571         1.9747
  69   0.0000       0.107379         2.9219
  70   0.0000       0.119162         3.2426
  71   0.0000       0.131147         3.5687

MULLIKEN ATOMIC CHARGES
-----------------------
   0 S :    0.111964
   1 C :   -0.118814
   2 C :   -0.093274
   3 C :    0.058929
   4 C :   -0.139626
   5 H :   -0.046194
   6 C :    0.055622
   7 H :    0.035290
   8 H :    0.012597
   9 C :   -0.067082
  10 H :    0.040673
  11 H :    0.044919
  12 C :   -0.093458
  13 H :    0.029146
  14 H :    0.041661
  15 H :    0.041428
  16 S :    0.125225
  17 C :   -0.089623
  18 C :   -0.071124
  19 C :   -0.061906
  20 C :   -0.143596
  21 H :    0.027031
  22 C :    0.063962
  23 H :    0.049538
  24 H :    0.031572
  25 C :   -0.070960
  26 H :    0.039018
  27 H :    0.039194
  28 C :   -0.079491
  29 H :    0.050635
  30 H :    0.039918
  31 H :    0.045502
  32 H :    0.048800
  33 H :    0.042522
Sum of atomic charges:    0.0000000

LOEWDIN ATOMIC CHARGES
----------------------
   0 S :    0.390414
   1 C :   -0.189838
   2 C :   -0.050444
   3 C :   -0.067224
   4 C :   -0.186456
   5 H :    0.021372
   6 C :   -0.039283
   7 H :    0.032638
   8 H :    0.032128
   9 C :   -0.047087
  10 H :    0.030608
  11 H :    0.033265
  12 C :   -0.077514
  13 H :    0.028491
  14 H :    0.020411
  15 H :    0.027990
  16 S :    0.451130
  17 C :   -0.197087
  18 C :   -0.076733
  19 C :   -0.062521
  20 C :   -0.227686
  21 H :    0.036908
  22 C :   -0.031970
  23 H :    0.042927
  24 H :    0.028749
  25 C :   -0.042079
  26 H :    0.030214
  27 H :    0.025791
  28 C :   -0.070911
  29 H :    0.024975
  30 H :    0.021296
  31 H :    0.035883
  32 H :    0.025636
  33 H :    0.026006

  Mayer bond orders larger than 0.100000
B(  0-S ,  1-C ) :   1.1295 B(  0-S ,  4-C ) :   1.1476 B(  1-C ,  2-C ) :   1.6125
B(  1-C , 32-H ) :   0.9697 B(  2-C ,  3-C ) :   1.2376 B(  2-C ,  6-C ) :   1.0121
B(  3-C ,  4-C ) :   1.5685 B(  3-C ,  5-H ) :   0.9869 B(  4-C , 20-C ) :   1.0193
B(  6-C ,  7-H ) :   0.9467 B(  6-C ,  8-H ) :   0.9342 B(  6-C ,  9-C ) :   1.0693
B(  9-C , 10-H ) :   0.9514 B(  9-C , 11-H ) :   0.9540 B(  9-C , 12-C ) :   1.0704
B( 12-C , 13-H ) :   0.9759 B( 12-C , 14-H ) :   0.9695 B( 12-C , 15-H ) :   0.9713
B( 16-S , 17-C ) :   1.1716 B( 16-S , 20-C ) :   1.1624 B( 17-C , 18-C ) :   1.6121
B( 17-C , 33-H ) :   0.9685 B( 18-C , 19-C ) :   1.2368 B( 18-C , 21-H ) :   0.9916
B( 19-C , 20-C ) :   1.5898 B( 19-C , 22-C ) :   1.0041 B( 22-C , 23-H ) :   0.9389
B( 22-C , 24-H ) :   0.9291 B( 22-C , 25-C ) :   1.0652 B( 25-C , 26-H ) :   0.9572
B( 25-C , 27-H ) :   0.9588 B( 25-C , 28-C ) :   1.0698 B( 28-C , 29-H ) :   0.9679
B( 28-C , 30-H ) :   0.9622 B( 28-C , 31-H ) :   0.9684

Dispersion correction           -0.016034045
FINAL SINGLE POINT ENERGY     -1339.872404794990

DIPOLE MOMENT
-------------
                                X             Y             Z
Electronic contribution:     19.73156       2.79918     -23.94592
Nuclear contribution   :    -20.06249      -2.72022      24.48280
                        -----------------------------------------
Total Dipole Moment    :     -0.33093       0.07897       0.53687
                        -----------------------------------------
Magnitude (a.u.)       :      0.63560
Magnitude (Debye)      :      1.61556

Rotational constants in cm-1:     0.018355     0.010786     0.007285
Rotational constants in MHz :   550.265798   323.356026   218.410481

                             ****ORCA TERMINATED NORMALLY****
TOTAL RUN TIME: 0 days 0 hours 0 minutes 30 seconds 885 msec
