                         Program Version 4.2.1 -  RELEASE  -
|  1> ! wB97X-D3 SP def2-SVP
|  2> %pal
|  3> nprocs 16
|  4> end
|  5>
|  6> * xyz 0 1
|  7> S 	 -29.8351 	 74.8412 	 160.788
|  8> C 	 -28.9867 	 76.3624 	 160.881
|  9> C 	 -29.13 	 77.1579 	 159.731
| 10> C 	 -30.0193 	 76.5055 	 158.815
| 11> C 	 -30.5777 	 75.2973 	 159.27
| 12> H 	 -30.3654 	 76.9201 	 157.923
| 13> C 	 -28.6031 	 78.522 	 159.388
| 14> H 	 -29.3238 	 79.2823 	 159.816
| 15> H 	 -28.6698 	 78.6421 	 158.333
| 16> C 	 -27.1941 	 78.7731 	 159.939
| 17> H 	 -27.0733 	 79.793 	 160.104
| 18> H 	 -26.9678 	 78.2553 	 160.919
| 19> C 	 -26.1073 	 78.3501 	 158.981
| 20> H 	 -25.0432 	 78.6914 	 159.156
| 21> H 	 -25.9366 	 77.2772 	 159.023
| 22> H 	 -26.4057 	 78.4076 	 157.956
| 23> S 	 -32.512 	 73.3665 	 159.718
| 24> C 	 -33.3321 	 72.5881 	 158.397
| 25> C 	 -32.9086 	 73.1464 	 157.225
| 26> C 	 -31.794 	 74.0361 	 157.319
| 27> C 	 -31.5369 	 74.3577 	 158.662
| 28> H 	 -33.3307 	 72.8535 	 156.232
| 29> C 	 -31.0238 	 74.4549 	 156.066
| 30> H 	 -30.1334 	 74.9814 	 156.395
| 31> H 	 -31.6099 	 75.2774 	 155.63
| 32> C 	 -30.9448 	 73.3261 	 155.041
| 33> H 	 -30.282 	 73.7287 	 154.285
| 34> H 	 -31.91 	 73.1704 	 154.539
| 35> C 	 -30.2423 	 72.0216 	 155.435
| 36> H 	 -30.218 	 71.4053 	 154.494
| 37> H 	 -30.7008 	 71.4832 	 156.239
| 38> H 	 -29.2565 	 72.2658 	 155.726
| 39> H 	 -28.3696 	 76.6227 	 161.746
| 40> H 	 -34.1381 	 71.8813 	 158.485
| 41> *
| 42>
| 43>                          ****END OF INPUT****

CARTESIAN COORDINATES (ANGSTROEM)
---------------------------------
  S    -29.835100   74.841200  160.788000
  C    -28.986700   76.362400  160.881000
  C    -29.130000   77.157900  159.731000
  C    -30.019300   76.505500  158.815000
  C    -30.577700   75.297300  159.270000
  H    -30.365400   76.920100  157.923000
  C    -28.603100   78.522000  159.388000
  H    -29.323800   79.282300  159.816000
  H    -28.669800   78.642100  158.333000
  C    -27.194100   78.773100  159.939000
  H    -27.073300   79.793000  160.104000
  H    -26.967800   78.255300  160.919000
  C    -26.107300   78.350100  158.981000
  H    -25.043200   78.691400  159.156000
  H    -25.936600   77.277200  159.023000
  H    -26.405700   78.407600  157.956000
  S    -32.512000   73.366500  159.718000
  C    -33.332100   72.588100  158.397000
  C    -32.908600   73.146400  157.225000
  C    -31.794000   74.036100  157.319000
  C    -31.536900   74.357700  158.662000
  H    -33.330700   72.853500  156.232000
  C    -31.023800   74.454900  156.066000
  H    -30.133400   74.981400  156.395000
  H    -31.609900   75.277400  155.630000
  C    -30.944800   73.326100  155.041000
  H    -30.282000   73.728700  154.285000
  H    -31.910000   73.170400  154.539000
  C    -30.242300   72.021600  155.435000
  H    -30.218000   71.405300  154.494000
  H    -30.700800   71.483200  156.239000
  H    -29.256500   72.265800  155.726000
  H    -28.369600   76.622700  161.746000
  H    -34.138100   71.881300  158.485000

 Total Charge           Charge          ....    0
 Multiplicity           Mult            ....    1
 Number of Electrons    NEL             ....  134
 Basis Dimension        Dim             ....  322

ORBITAL ENERGIES
----------------

  NO   OCC          E(Eh)            E(eV)
   0   2.0000     -88.966003     -2420.8880
   1   2.0000     -88.963553     -2420.8213
   2   2.0000     -10.332900      -281.1725
   3   2.0000     -10.328845      -281.0622
   4   2.0000     -10.315830      -280.7080
   5   2.0000     -10.315452      -280.6977
   6   2.0000     -10.304158      -280.3904
   7   2.0000     -10.302117      -280.3348
   8   2.0000     -10.298112      -280.2259
   9   2.0000     -10.294397      -280.1248
  10   2.0000     -10.293258      -280.0938
  11   2.0000     -10.291713      -280.0517
  12   2.0000     -10.288753      -279.9712
  13   2.0000     -10.286373      -279.9064
  14   2.0000     -10.274545      -279.5846
  15   2.0000     -10.273573      -279.5581
  16   2.0000      -8.080802      -219.8898
  17   2.0000      -8.078613      -219.8302
  18   2.0000      -6.039289      -164.3374
  19   2.0000      -6.037155      -164.2793
  20   2.0000      -6.035256      -164.2277
  21   2.0000      -6.033035      -164.1672
  22   2.0000      -6.031629      -164.1290
  23   2.0000      -6.029350      -164.0670
  24   2.0000      -1.005369       -27.3575
  25   2.0000      -0.983191       -26.7540
  26   2.0000      -0.917271       -24.9602
  27   2.0000      -0.911375       -24.7998
  28   2.0000      -0.866413       -23.5763
  29   2.0000      -0.853069       -23.2132
  30   2.0000      -0.843371       -22.9493
  31   2.0000      -0.811548       -22.0834
  32   2.0000      -0.786090       -21.3906
  33   2.0000      -0.775019       -21.0893
  34   2.0000      -0.712830       -19.3971
  35   2.0000      -0.703416       -19.1409
  36   2.0000      -0.693380       -18.8678
  37   2.0000      -0.657314       -17.8864
  38   2.0000      -0.637372       -17.3438
  39   2.0000      -0.614893       -16.7321
  40   2.0000      -0.598623       -16.2894
  41   2.0000      -0.576172       -15.6784
  42   2.0000      -0.556126       -15.1329
  43   2.0000      -0.552016       -15.0211
  44   2.0000      -0.542619       -14.7654
  45   2.0000      -0.529435       -14.4066
  46   2.0000      -0.522954       -14.2303
  47   2.0000      -0.519236       -14.1291
  48   2.0000      -0.501216       -13.6388
  49   2.0000      -0.494610       -13.4590
  50   2.0000      -0.485780       -13.2187
  51   2.0000      -0.478924       -13.0322
  52   2.0000      -0.470780       -12.8106
  53   2.0000      -0.467149       -12.7118
  54   2.0000      -0.464102       -12.6289
  55   2.0000      -0.445225       -12.1152
  56   2.0000      -0.442968       -12.0538
  57   2.0000      -0.437141       -11.8952
  58   2.0000      -0.434952       -11.8357
  59   2.0000      -0.431256       -11.7351
  60   2.0000      -0.427237       -11.6257
  61   2.0000      -0.411876       -11.2077
  62   2.0000      -0.408182       -11.1072
  63   2.0000      -0.352652        -9.5962
  64   2.0000      -0.330137        -8.9835
  65   2.0000      -0.326403        -8.8819
  66   2.0000      -0.283030        -7.7016
  67   0.0000       0.023675         0.6442
  68   0.0000       0.082256         2.2383
  69   0.0000       0.105303         2.8654
  70   0.0000       0.119044         3.2394
  71   0.0000       0.137434         3.7398

MULLIKEN ATOMIC CHARGES
-----------------------
   0 S :    0.107006
   1 C :   -0.142295
   2 C :   -0.082030
   3 C :    0.025310
   4 C :   -0.137795
   5 H :   -0.015200
   6 C :    0.062985
   7 H :    0.057959
   8 H :    0.018886
   9 C :   -0.038284
  10 H :    0.013954
  11 H :    0.037006
  12 C :   -0.060453
  13 H :    0.044114
  14 H :    0.017441
  15 H :    0.015836
  16 S :    0.095568
  17 C :   -0.078153
  18 C :   -0.044855
  19 C :   -0.097121
  20 C :   -0.134919
  21 H :    0.028408
  22 C :    0.107793
  23 H :    0.013673
  24 H :    0.034679
  25 C :   -0.104137
  26 H :    0.023967
  27 H :    0.035019
  28 C :   -0.017790
  29 H :    0.040463
  30 H :    0.040087
  31 H :    0.022895
  32 H :    0.053805
  33 H :    0.056179
Sum of atomic charges:   -0.0000000

LOEWDIN ATOMIC CHARGES
----------------------
   0 S :    0.410598
   1 C :   -0.207018
   2 C :   -0.059698
   3 C :   -0.064902
   4 C :   -0.184675
   5 H :    0.016727
   6 C :   -0.025829
   7 H :    0.047391
   8 H :    0.026067
   9 C :   -0.039024
  10 H :    0.015147
  11 H :    0.033605
  12 C :   -0.077103
  13 H :    0.034446
  14 H :    0.025754
  15 H :    0.019027
  16 S :    0.405517
  17 C :   -0.188573
  18 C :   -0.075625
  19 C :   -0.059734
  20 C :   -0.205833
  21 H :    0.035019
  22 C :   -0.034022
  23 H :    0.028425
  24 H :    0.039093
  25 C :   -0.045566
  26 H :    0.028655
  27 H :    0.023957
  28 C :   -0.057100
  29 H :    0.035522
  30 H :    0.021429
  31 H :    0.021386
  32 H :    0.026046
  33 H :    0.030888

  Mayer bond orders larger than 0.100000
B(  0-S ,  1-C ) :   1.1448 B(  0-S ,  4-C ) :   1.1615 B(  1-C ,  2-C ) :   1.5886
B(  1-C ,  4-C ) :   0.1004 B(  1-C , 32-H ) :   0.9650 B(  2-C ,  3-C ) :   1.2553
B(  2-C ,  6-C ) :   1.0189 B(  3-C ,  4-C ) :   1.5573 B(  3-C ,  5-H ) :   0.9991
B(  4-C , 20-C ) :   1.0531 B(  6-C ,  7-H ) :   0.9313 B(  6-C ,  8-H ) :   0.9463
B(  6-C ,  9-C ) :   1.0666 B(  9-C , 10-H ) :   0.9540 B(  9-C , 11-H ) :   0.9586
B(  9-C , 12-C ) :   1.0702 B( 12-C , 13-H ) :   0.9745 B( 12-C , 14-H ) :   0.9712
B( 12-C , 15-H ) :   0.9734 B( 16-S , 17-C ) :   1.1467 B( 16-S , 20-C ) :   1.1452
B( 17-C , 18-C ) :   1.6023 B( 17-C , 33-H ) :   0.9717 B( 18-C , 19-C ) :   1.2603
B( 18-C , 21-H ) :   0.9745 B( 19-C , 20-C ) :   1.5696 B( 19-C , 22-C ) :   1.0314
B( 22-C , 23-H ) :   0.9306 B( 22-C , 24-H ) :   0.9236 B( 22-C , 25-C ) :   1.0804
B( 25-C , 26-H ) :   0.9496 B( 25-C , 27-H ) :   0.9483 B( 25-C , 28-C ) :   1.0748
B( 28-C , 29-H ) :   0.9734 B( 28-C , 30-H ) :   0.9748 B( 28-C , 31-H ) :   0.9730

Dispersion correction           -0.013984114
FINAL SINGLE POINT ENERGY     -1339.878632330357

DIPOLE MOMENT
-------------
                                X             Y             Z
Electronic contribution:    -15.83321      -9.16653      17.85442
Nuclear contribution   :     15.99816       9.48035     -18.47384
                        -----------------------------------------
Total Dipole Moment    :      0.16495       0.31381      -0.61941
                        -----------------------------------------
Magnitude (a.u.)       :      0.71369
Magnitude (Debye)      :      1.81407

Rotational constants in cm-1:     0.021937     0.007746     0.006298
Rotational constants in MHz :   657.643818   232.213512   188.808549

                             ****ORCA TERMINATED NORMALLY****
TOTAL RUN TIME: 0 days 0 hours 0 minutes 33 seconds 898 msec
