                         Program Version 4.2.1 -  RELEASE  -
|  1> ! wB97X-D3 SP def2-SVP
|  2> %pal
|  3> nprocs 16
|  4> end
|  5>
|  6> * xyz 0 1
|  7> S 	 -55.3444 	 36.797 	 118.208
|  8> C 	 -56.7185 	 37.0092 	 119.299
|  9> C 	 -57.8705 	 37.1732 	 118.576
| 10> C 	 -57.6632 	 37.3172 	 117.186
| 11> C 	 -56.3371 	 37.1708 	 116.769
| 12> H 	 -58.3818 	 37.4864 	 116.384
| 13> C 	 -59.2153 	 37.101 	 119.158
| 14> H 	 -59.6666 	 38.0926 	 119.032
| 15> H 	 -59.1162 	 36.9512 	 120.212
| 16> C 	 -60.1082 	 36.0503 	 118.415
| 17> H 	 -61.1813 	 36.2021 	 118.729
| 18> H 	 -60.1169 	 36.3279 	 117.417
| 19> C 	 -59.6769 	 34.5603 	 118.561
| 20> H 	 -59.9297 	 34.3304 	 119.616
| 21> H 	 -60.2937 	 33.8827 	 117.96
| 22> H 	 -58.6317 	 34.5723 	 118.277
| 23> S 	 -54.5251 	 38.4839 	 115.417
| 24> C 	 -54.2919 	 38.3806 	 113.724
| 25> C 	 -55.2138 	 37.4647 	 113.257
| 26> C 	 -56.0182 	 36.8547 	 114.236
| 27> C 	 -55.7853 	 37.3503 	 115.472
| 28> H 	 -55.3386 	 37.311 	 112.172
| 29> C 	 -57.1059 	 35.8163 	 113.988
| 30> H 	 -57.6317 	 35.7624 	 114.892
| 31> H 	 -56.5158 	 34.8941 	 113.696
| 32> C 	 -58.0962 	 36.1888 	 112.889
| 33> H 	 -58.8919 	 35.4237 	 112.76
| 34> H 	 -57.5761 	 36.4046 	 111.925
| 35> C 	 -58.8606 	 37.491 	 113.275
| 36> H 	 -59.5449 	 37.844 	 112.48
| 37> H 	 -58.2125 	 38.354 	 113.517
| 38> H 	 -59.4862 	 37.2534 	 114.148
| 39> H 	 -56.8441 	 36.7681 	 120.367
| 40> H 	 -53.513 	 38.848 	 113.155
| 41> *
| 42>
| 43>                          ****END OF INPUT****

CARTESIAN COORDINATES (ANGSTROEM)
---------------------------------
  S    -55.344400   36.797000  118.208000
  C    -56.718500   37.009200  119.299000
  C    -57.870500   37.173200  118.576000
  C    -57.663200   37.317200  117.186000
  C    -56.337100   37.170800  116.769000
  H    -58.381800   37.486400  116.384000
  C    -59.215300   37.101000  119.158000
  H    -59.666600   38.092600  119.032000
  H    -59.116200   36.951200  120.212000
  C    -60.108200   36.050300  118.415000
  H    -61.181300   36.202100  118.729000
  H    -60.116900   36.327900  117.417000
  C    -59.676900   34.560300  118.561000
  H    -59.929700   34.330400  119.616000
  H    -60.293700   33.882700  117.960000
  H    -58.631700   34.572300  118.277000
  S    -54.525100   38.483900  115.417000
  C    -54.291900   38.380600  113.724000
  C    -55.213800   37.464700  113.257000
  C    -56.018200   36.854700  114.236000
  C    -55.785300   37.350300  115.472000
  H    -55.338600   37.311000  112.172000
  C    -57.105900   35.816300  113.988000
  H    -57.631700   35.762400  114.892000
  H    -56.515800   34.894100  113.696000
  C    -58.096200   36.188800  112.889000
  H    -58.891900   35.423700  112.760000
  H    -57.576100   36.404600  111.925000
  C    -58.860600   37.491000  113.275000
  H    -59.544900   37.844000  112.480000
  H    -58.212500   38.354000  113.517000
  H    -59.486200   37.253400  114.148000
  H    -56.844100   36.768100  120.367000
  H    -53.513000   38.848000  113.155000

 Total Charge           Charge          ....    0
 Multiplicity           Mult            ....    1
 Number of Electrons    NEL             ....  134
 Basis Dimension        Dim             ....  322

ORBITAL ENERGIES
----------------

  NO   OCC          E(Eh)            E(eV)
   0   2.0000     -88.968123     -2420.9457
   1   2.0000     -88.960655     -2420.7425
   2   2.0000     -10.333577      -281.1909
   3   2.0000     -10.317074      -280.7419
   4   2.0000     -10.315335      -280.6945
   5   2.0000     -10.314576      -280.6739
   6   2.0000     -10.297594      -280.2118
   7   2.0000     -10.295743      -280.1614
   8   2.0000     -10.295115      -280.1443
   9   2.0000     -10.294881      -280.1380
  10   2.0000     -10.293439      -280.0987
  11   2.0000     -10.292041      -280.0607
  12   2.0000     -10.289230      -279.9842
  13   2.0000     -10.287630      -279.9406
  14   2.0000     -10.282146      -279.7914
  15   2.0000     -10.280987      -279.7599
  16   2.0000      -8.081638      -219.9126
  17   2.0000      -8.077405      -219.7974
  18   2.0000      -6.040331      -164.3658
  19   2.0000      -6.036298      -164.2560
  20   2.0000      -6.035752      -164.2412
  21   2.0000      -6.032258      -164.1461
  22   2.0000      -6.031330      -164.1208
  23   2.0000      -6.028467      -164.0429
  24   2.0000      -1.021289       -27.7907
  25   2.0000      -0.989709       -26.9313
  26   2.0000      -0.915278       -24.9060
  27   2.0000      -0.913774       -24.8651
  28   2.0000      -0.876002       -23.8372
  29   2.0000      -0.848904       -23.0998
  30   2.0000      -0.841918       -22.9098
  31   2.0000      -0.819944       -22.3118
  32   2.0000      -0.782127       -21.2828
  33   2.0000      -0.774899       -21.0861
  34   2.0000      -0.717584       -19.5264
  35   2.0000      -0.701569       -19.0907
  36   2.0000      -0.693555       -18.8726
  37   2.0000      -0.660264       -17.9667
  38   2.0000      -0.640921       -17.4403
  39   2.0000      -0.621247       -16.9050
  40   2.0000      -0.600974       -16.3533
  41   2.0000      -0.571829       -15.5603
  42   2.0000      -0.557379       -15.1671
  43   2.0000      -0.551260       -15.0006
  44   2.0000      -0.546145       -14.8614
  45   2.0000      -0.539096       -14.6695
  46   2.0000      -0.526724       -14.3329
  47   2.0000      -0.516431       -14.0528
  48   2.0000      -0.509733       -13.8705
  49   2.0000      -0.496547       -13.5117
  50   2.0000      -0.489999       -13.3336
  51   2.0000      -0.476046       -12.9539
  52   2.0000      -0.474263       -12.9054
  53   2.0000      -0.468399       -12.7458
  54   2.0000      -0.464887       -12.6502
  55   2.0000      -0.444668       -12.1000
  56   2.0000      -0.442269       -12.0348
  57   2.0000      -0.436182       -11.8691
  58   2.0000      -0.433070       -11.7844
  59   2.0000      -0.426718       -11.6116
  60   2.0000      -0.423560       -11.5257
  61   2.0000      -0.415391       -11.3034
  62   2.0000      -0.411080       -11.1861
  63   2.0000      -0.348469        -9.4823
  64   2.0000      -0.332126        -9.0376
  65   2.0000      -0.326965        -8.8972
  66   2.0000      -0.297963        -8.1080
  67   0.0000       0.030314         0.8249
  68   0.0000       0.068546         1.8652
  69   0.0000       0.112578         3.0634
  70   0.0000       0.122424         3.3313
  71   0.0000       0.129533         3.5248

MULLIKEN ATOMIC CHARGES
-----------------------
   0 S :    0.113099
   1 C :   -0.110867
   2 C :   -0.122232
   3 C :    0.041559
   4 C :   -0.168820
   5 H :    0.002600
   6 C :    0.104628
   7 H :    0.037986
   8 H :    0.001965
   9 C :   -0.095069
  10 H :    0.029097
  11 H :    0.006141
  12 C :   -0.040022
  13 H :    0.035623
  14 H :    0.038401
  15 H :    0.055633
  16 S :    0.113507
  17 C :   -0.081906
  18 C :   -0.067297
  19 C :   -0.059736
  20 C :   -0.174185
  21 H :    0.024465
  22 C :    0.138413
  23 H :   -0.002343
  24 H :    0.053277
  25 C :   -0.092108
  26 H :    0.043843
  27 H :    0.038427
  28 C :   -0.105835
  29 H :    0.040098
  30 H :    0.055860
  31 H :    0.033553
  32 H :    0.054934
  33 H :    0.057310
Sum of atomic charges:   -0.0000000

LOEWDIN ATOMIC CHARGES
----------------------
   0 S :    0.387080
   1 C :   -0.202788
   2 C :   -0.072859
   3 C :   -0.064284
   4 C :   -0.180641
   5 H :    0.029416
   6 C :   -0.027720
   7 H :    0.038981
   8 H :    0.021869
   9 C :   -0.036385
  10 H :    0.026097
  11 H :    0.006739
  12 C :   -0.062246
  13 H :    0.029948
  14 H :    0.027633
  15 H :    0.029748
  16 S :    0.451953
  17 C :   -0.194483
  18 C :   -0.079884
  19 C :   -0.063692
  20 C :   -0.222399
  21 H :    0.032225
  22 C :   -0.023327
  23 H :    0.019524
  24 H :    0.044843
  25 C :   -0.042596
  26 H :    0.030397
  27 H :    0.024113
  28 C :   -0.075651
  29 H :    0.028543
  30 H :    0.028986
  31 H :    0.020693
  32 H :    0.038631
  33 H :    0.031536

  Mayer bond orders larger than 0.100000
B(  0-S ,  1-C ) :   1.1203 B(  0-S ,  4-C ) :   1.1433 B(  1-C ,  2-C ) :   1.6250
B(  1-C ,  4-C ) :   0.1002 B(  1-C , 32-H ) :   0.9548 B(  2-C ,  3-C ) :   1.2184
B(  2-C ,  6-C ) :   1.0401 B(  3-C ,  4-C ) :   1.5742 B(  3-C ,  5-H ) :   0.9882
B(  4-C , 20-C ) :   1.0409 B(  6-C ,  7-H ) :   0.9273 B(  6-C ,  8-H ) :   0.9385
B(  6-C ,  9-C ) :   1.0650 B(  9-C , 10-H ) :   0.9565 B(  9-C , 11-H ) :   0.9552
B(  9-C , 12-C ) :   1.0620 B( 12-C , 13-H ) :   0.9780 B( 12-C , 14-H ) :   0.9746
B( 12-C , 15-H ) :   0.9763 B( 16-S , 17-C ) :   1.1779 B( 16-S , 20-C ) :   1.1707
B( 17-C , 18-C ) :   1.5630 B( 17-C , 20-C ) :   0.1042 B( 17-C , 33-H ) :   0.9758
B( 18-C , 19-C ) :   1.2659 B( 18-C , 21-H ) :   0.9873 B( 19-C , 20-C ) :   1.5758
B( 19-C , 22-C ) :   1.0260 B( 22-C , 23-H ) :   0.9320 B( 22-C , 24-H ) :   0.9270
B( 22-C , 25-C ) :   1.0742 B( 25-C , 26-H ) :   0.9574 B( 25-C , 27-H ) :   0.9556
B( 25-C , 28-C ) :   1.0668 B( 28-C , 29-H ) :   0.9730 B( 28-C , 30-H ) :   0.9740
B( 28-C , 31-H ) :   0.9709

Dispersion correction           -0.015756409
FINAL SINGLE POINT ENERGY     -1339.880593883589

DIPOLE MOMENT
-------------
                                X             Y             Z
Electronic contribution:     26.04828       9.05727       4.96808
Nuclear contribution   :    -26.66414      -9.21199      -5.29565
                        -----------------------------------------
Total Dipole Moment    :     -0.61587      -0.15472      -0.32757
                        -----------------------------------------
Magnitude (a.u.)       :      0.71451
Magnitude (Debye)      :      1.81615

Rotational constants in cm-1:     0.019355     0.010324     0.007487
Rotational constants in MHz :   580.240832   309.502416   224.467478

                             ****ORCA TERMINATED NORMALLY****
TOTAL RUN TIME: 0 days 0 hours 0 minutes 30 seconds 558 msec
