                         Program Version 4.2.1 -  RELEASE  -
|  1> ! wB97X-D3 SP def2-SVP
|  2> %pal
|  3> nprocs 16
|  4> end
|  5>
|  6> * xyz 0 1
|  7> S 	 -20.0568 	 -1.53761 	 75.1151
|  8> C 	 -18.848 	 -0.371009 	 74.6635
|  9> C 	 -17.9779 	 -0.156988 	 75.765
| 10> C 	 -18.2036 	 -1.03654 	 76.8816
| 11> C 	 -19.369 	 -1.84608 	 76.6782
| 12> H 	 -17.571 	 -1.13908 	 77.7162
| 13> C 	 -16.8983 	 0.937891 	 75.7851
| 14> H 	 -16.4809 	 0.967388 	 76.7517
| 15> H 	 -17.3799 	 1.95752 	 75.7696
| 16> C 	 -15.7949 	 0.692799 	 74.7947
| 17> H 	 -15.4445 	 -0.346479 	 74.9122
| 18> H 	 -16.2564 	 0.742013 	 73.8041
| 19> C 	 -14.6365 	 1.63315 	 74.9383
| 20> H 	 -14.9079 	 2.62065 	 74.4943
| 21> H 	 -14.3265 	 1.75449 	 76.0056
| 22> H 	 -13.7601 	 1.32275 	 74.3459
| 23> S 	 -21.3993 	 -2.23509 	 78.4721
| 24> C 	 -21.3973 	 -3.64579 	 79.4594
| 25> C 	 -20.4484 	 -4.55009 	 79.0647
| 26> C 	 -19.5717 	 -4.08465 	 78.0294
| 27> C 	 -19.9548 	 -2.7839 	 77.6632
| 28> H 	 -20.2756 	 -5.45332 	 79.6754
| 29> C 	 -18.2418 	 -4.75541 	 77.6984
| 30> H 	 -17.9044 	 -4.39359 	 76.7263
| 31> H 	 -18.4707 	 -5.78329 	 77.7109
| 32> C 	 -17.1888 	 -4.61342 	 78.8172
| 33> H 	 -17.6165 	 -4.75242 	 79.814
| 34> H 	 -16.8123 	 -3.56605 	 78.7971
| 35> C 	 -16.0269 	 -5.66391 	 78.6178
| 36> H 	 -16.2793 	 -6.69161 	 78.9423
| 37> H 	 -15.2677 	 -5.48164 	 79.2934
| 38> H 	 -15.7288 	 -5.68231 	 77.5251
| 39> H 	 -18.919 	 0.293185 	 73.8203
| 40> H 	 -22.034 	 -3.7818 	 80.3042
| 41> *
| 42>
| 43>                          ****END OF INPUT****

CARTESIAN COORDINATES (ANGSTROEM)
---------------------------------
  S    -20.056800   -1.537610   75.115100
  C    -18.848000   -0.371009   74.663500
  C    -17.977900   -0.156988   75.765000
  C    -18.203600   -1.036540   76.881600
  C    -19.369000   -1.846080   76.678200
  H    -17.571000   -1.139080   77.716200
  C    -16.898300    0.937891   75.785100
  H    -16.480900    0.967388   76.751700
  H    -17.379900    1.957520   75.769600
  C    -15.794900    0.692799   74.794700
  H    -15.444500   -0.346479   74.912200
  H    -16.256400    0.742013   73.804100
  C    -14.636500    1.633150   74.938300
  H    -14.907900    2.620650   74.494300
  H    -14.326500    1.754490   76.005600
  H    -13.760100    1.322750   74.345900
  S    -21.399300   -2.235090   78.472100
  C    -21.397300   -3.645790   79.459400
  C    -20.448400   -4.550090   79.064700
  C    -19.571700   -4.084650   78.029400
  C    -19.954800   -2.783900   77.663200
  H    -20.275600   -5.453320   79.675400
  C    -18.241800   -4.755410   77.698400
  H    -17.904400   -4.393590   76.726300
  H    -18.470700   -5.783290   77.710900
  C    -17.188800   -4.613420   78.817200
  H    -17.616500   -4.752420   79.814000
  H    -16.812300   -3.566050   78.797100
  C    -16.026900   -5.663910   78.617800
  H    -16.279300   -6.691610   78.942300
  H    -15.267700   -5.481640   79.293400
  H    -15.728800   -5.682310   77.525100
  H    -18.919000    0.293185   73.820300
  H    -22.034000   -3.781800   80.304200

 Total Charge           Charge          ....    0
 Multiplicity           Mult            ....    1
 Number of Electrons    NEL             ....  134
 Basis Dimension        Dim             ....  322

ORBITAL ENERGIES
----------------

  NO   OCC          E(Eh)            E(eV)
   0   2.0000     -88.968843     -2420.9653
   1   2.0000     -88.964635     -2420.8508
   2   2.0000     -10.332734      -281.1680
   3   2.0000     -10.325753      -280.9780
   4   2.0000     -10.314209      -280.6639
   5   2.0000     -10.312371      -280.6139
   6   2.0000     -10.305009      -280.4136
   7   2.0000     -10.304834      -280.4088
   8   2.0000     -10.297066      -280.1974
   9   2.0000     -10.293635      -280.1040
  10   2.0000     -10.293212      -280.0925
  11   2.0000     -10.289839      -280.0008
  12   2.0000     -10.287991      -279.9505
  13   2.0000     -10.282792      -279.8090
  14   2.0000     -10.282401      -279.7983
  15   2.0000     -10.282218      -279.7934
  16   2.0000      -8.083392      -219.9603
  17   2.0000      -8.080135      -219.8716
  18   2.0000      -6.041796      -164.4056
  19   2.0000      -6.038504      -164.3161
  20   2.0000      -6.037640      -164.2925
  21   2.0000      -6.034559      -164.2087
  22   2.0000      -6.034497      -164.2070
  23   2.0000      -6.031032      -164.1127
  24   2.0000      -1.003759       -27.3137
  25   2.0000      -0.981670       -26.7126
  26   2.0000      -0.914793       -24.8928
  27   2.0000      -0.907891       -24.7050
  28   2.0000      -0.863899       -23.5079
  29   2.0000      -0.848244       -23.0819
  30   2.0000      -0.846805       -23.0427
  31   2.0000      -0.809823       -22.0364
  32   2.0000      -0.782504       -21.2930
  33   2.0000      -0.769097       -20.9282
  34   2.0000      -0.704220       -19.1628
  35   2.0000      -0.698708       -19.0128
  36   2.0000      -0.691542       -18.8178
  37   2.0000      -0.658620       -17.9220
  38   2.0000      -0.644005       -17.5243
  39   2.0000      -0.613259       -16.6876
  40   2.0000      -0.596875       -16.2418
  41   2.0000      -0.572011       -15.5652
  42   2.0000      -0.563492       -15.3334
  43   2.0000      -0.557558       -15.1719
  44   2.0000      -0.532258       -14.4835
  45   2.0000      -0.524043       -14.2599
  46   2.0000      -0.518290       -14.1034
  47   2.0000      -0.506777       -13.7901
  48   2.0000      -0.501569       -13.6484
  49   2.0000      -0.498513       -13.5652
  50   2.0000      -0.493981       -13.4419
  51   2.0000      -0.475605       -12.9419
  52   2.0000      -0.470982       -12.8161
  53   2.0000      -0.464903       -12.6506
  54   2.0000      -0.456730       -12.4282
  55   2.0000      -0.448081       -12.1929
  56   2.0000      -0.447188       -12.1686
  57   2.0000      -0.444262       -12.0890
  58   2.0000      -0.431948       -11.7539
  59   2.0000      -0.422844       -11.5062
  60   2.0000      -0.420418       -11.4402
  61   2.0000      -0.418633       -11.3916
  62   2.0000      -0.411526       -11.1982
  63   2.0000      -0.336066        -9.1448
  64   2.0000      -0.327791        -8.9196
  65   2.0000      -0.322111        -8.7651
  66   2.0000      -0.303092        -8.2476
  67   0.0000       0.041687         1.1343
  68   0.0000       0.054487         1.4827
  69   0.0000       0.118346         3.2204
  70   0.0000       0.126182         3.4336
  71   0.0000       0.129023         3.5109

MULLIKEN ATOMIC CHARGES
-----------------------
   0 S :    0.132571
   1 C :   -0.118051
   2 C :   -0.122591
   3 C :    0.064420
   4 C :   -0.175974
   5 H :   -0.000602
   6 C :    0.077201
   7 H :   -0.013956
   8 H :    0.040622
   9 C :   -0.072565
  10 H :    0.031743
  11 H :    0.026025
  12 C :   -0.049548
  13 H :    0.030998
  14 H :    0.036960
  15 H :    0.037763
  16 S :    0.124378
  17 C :   -0.084718
  18 C :   -0.053293
  19 C :   -0.014558
  20 C :   -0.209199
  21 H :    0.027300
  22 C :    0.107635
  23 H :    0.041055
  24 H :    0.008894
  25 C :   -0.090779
  26 H :    0.029560
  27 H :    0.032335
  28 C :   -0.042724
  29 H :    0.028352
  30 H :    0.017831
  31 H :    0.050125
  32 H :    0.054938
  33 H :    0.047853
Sum of atomic charges:   -0.0000000

LOEWDIN ATOMIC CHARGES
----------------------
   0 S :    0.433740
   1 C :   -0.214701
   2 C :   -0.055316
   3 C :   -0.057500
   4 C :   -0.209632
   5 H :    0.022810
   6 C :   -0.035747
   7 H :    0.017034
   8 H :    0.037487
   9 C :   -0.047010
  10 H :    0.028562
  11 H :    0.023522
  12 C :   -0.071016
  13 H :    0.028448
  14 H :    0.028579
  15 H :    0.028794
  16 S :    0.422930
  17 C :   -0.188730
  18 C :   -0.077592
  19 C :   -0.049242
  20 C :   -0.210600
  21 H :    0.034111
  22 C :   -0.024536
  23 H :    0.034133
  24 H :    0.025583
  25 C :   -0.035233
  26 H :    0.023883
  27 H :    0.024192
  28 C :   -0.067294
  29 H :    0.027606
  30 H :    0.015387
  31 H :    0.035127
  32 H :    0.027340
  33 H :    0.024883

  Mayer bond orders larger than 0.100000
B(  0-S ,  1-C ) :   1.1548 B(  0-S ,  4-C ) :   1.1957 B(  1-C ,  2-C ) :   1.5592
B(  1-C ,  4-C ) :   0.1094 B(  1-C , 32-H ) :   0.9704 B(  2-C ,  3-C ) :   1.2913
B(  2-C ,  6-C ) :   1.0234 B(  3-C ,  4-C ) :   1.5162 B(  3-C ,  5-H ) :   0.9973
B(  4-C , 20-C ) :   1.0080 B(  6-C ,  7-H ) :   0.9353 B(  6-C ,  8-H ) :   0.9382
B(  6-C ,  9-C ) :   1.0593 B(  9-C , 10-H ) :   0.9535 B(  9-C , 11-H ) :   0.9542
B(  9-C , 12-C ) :   1.0895 B( 12-C , 13-H ) :   0.9715 B( 12-C , 14-H ) :   0.9727
B( 12-C , 15-H ) :   0.9737 B( 16-S , 17-C ) :   1.1591 B( 16-S , 20-C ) :   1.1630
B( 17-C , 18-C ) :   1.6216 B( 17-C , 33-H ) :   0.9702 B( 18-C , 19-C ) :   1.2320
B( 18-C , 21-H ) :   0.9796 B( 19-C , 20-C ) :   1.5895 B( 19-C , 22-C ) :   1.0590
B( 22-C , 23-H ) :   0.9288 B( 22-C , 24-H ) :   0.9264 B( 22-C , 25-C ) :   1.0623
B( 25-C , 26-H ) :   0.9571 B( 25-C , 27-H ) :   0.9554 B( 25-C , 28-C ) :   1.0725
B( 28-C , 29-H ) :   0.9734 B( 28-C , 30-H ) :   0.9729 B( 28-C , 31-H ) :   0.9757

Dispersion correction           -0.013909095
FINAL SINGLE POINT ENERGY     -1339.881526047176

DIPOLE MOMENT
-------------
                                X             Y             Z
Electronic contribution:    -29.55625      -0.12115      -0.24023
Nuclear contribution   :     30.13748       0.08455       0.56566
                        -----------------------------------------
Total Dipole Moment    :      0.58123      -0.03660       0.32543
                        -----------------------------------------
Magnitude (a.u.)       :      0.66713
Magnitude (Debye)      :      1.69572

Rotational constants in cm-1:     0.017982     0.008066     0.006240
Rotational constants in MHz :   539.097975   241.801384   187.077120

                             ****ORCA TERMINATED NORMALLY****
TOTAL RUN TIME: 0 days 0 hours 0 minutes 31 seconds 779 msec
