                         Program Version 4.2.1 -  RELEASE  -
|  1> ! wB97X-D3 SP def2-SVP
|  2> %pal
|  3> nprocs 16
|  4> end
|  5>
|  6> * xyz 0 1
|  7> S 	 -36.1881 	 51.346 	 102.8
|  8> C 	 -35.1941 	 51.1061 	 104.254
|  9> C 	 -35.9216 	 51.4393 	 105.406
| 10> C 	 -37.2145 	 51.8948 	 105.045
| 11> C 	 -37.6216 	 51.668 	 103.749
| 12> H 	 -37.8427 	 52.4162 	 105.734
| 13> C 	 -35.3678 	 51.4552 	 106.816
| 14> H 	 -34.2984 	 51.165 	 106.838
| 15> H 	 -35.9303 	 50.6864 	 107.33
| 16> C 	 -35.3184 	 52.8313 	 107.524
| 17> H 	 -36.3129 	 53.1993 	 107.729
| 18> H 	 -34.8746 	 52.6485 	 108.583
| 19> C 	 -34.6466 	 53.9178 	 106.705
| 20> H 	 -35.0746 	 54.0322 	 105.669
| 21> H 	 -34.6501 	 54.903 	 107.217
| 22> H 	 -33.5562 	 53.7655 	 106.557
| 23> S 	 -39.0715 	 52.7236 	 101.6
| 24> C 	 -40.7731 	 52.7875 	 101.676
| 25> C 	 -41.2654 	 52.2075 	 102.842
| 26> C 	 -40.1977 	 51.6789 	 103.664
| 27> C 	 -38.9647 	 51.907 	 103.179
| 28> H 	 -42.285 	 52.1849 	 103.219
| 29> C 	 -40.4677 	 51.256 	 105.099
| 30> H 	 -40.1521 	 52.085 	 105.751
| 31> H 	 -39.8038 	 50.4377 	 105.255
| 32> C 	 -41.8878 	 50.7448 	 105.441
| 33> H 	 -41.9573 	 50.0136 	 104.592
| 34> H 	 -42.7123 	 51.399 	 105.338
| 35> C 	 -42.0054 	 49.8779 	 106.672
| 36> H 	 -41.7104 	 50.369 	 107.591
| 37> H 	 -41.3462 	 48.9812 	 106.464
| 38> H 	 -43.0238 	 49.5137 	 106.655
| 39> H 	 -34.1446 	 50.9067 	 104.267
| 40> H 	 -41.4166 	 52.9812 	 100.789
| 41> *
| 42>
| 43>                          ****END OF INPUT****

CARTESIAN COORDINATES (ANGSTROEM)
---------------------------------
  S    -36.188100   51.346000  102.800000
  C    -35.194100   51.106100  104.254000
  C    -35.921600   51.439300  105.406000
  C    -37.214500   51.894800  105.045000
  C    -37.621600   51.668000  103.749000
  H    -37.842700   52.416200  105.734000
  C    -35.367800   51.455200  106.816000
  H    -34.298400   51.165000  106.838000
  H    -35.930300   50.686400  107.330000
  C    -35.318400   52.831300  107.524000
  H    -36.312900   53.199300  107.729000
  H    -34.874600   52.648500  108.583000
  C    -34.646600   53.917800  106.705000
  H    -35.074600   54.032200  105.669000
  H    -34.650100   54.903000  107.217000
  H    -33.556200   53.765500  106.557000
  S    -39.071500   52.723600  101.600000
  C    -40.773100   52.787500  101.676000
  C    -41.265400   52.207500  102.842000
  C    -40.197700   51.678900  103.664000
  C    -38.964700   51.907000  103.179000
  H    -42.285000   52.184900  103.219000
  C    -40.467700   51.256000  105.099000
  H    -40.152100   52.085000  105.751000
  H    -39.803800   50.437700  105.255000
  C    -41.887800   50.744800  105.441000
  H    -41.957300   50.013600  104.592000
  H    -42.712300   51.399000  105.338000
  C    -42.005400   49.877900  106.672000
  H    -41.710400   50.369000  107.591000
  H    -41.346200   48.981200  106.464000
  H    -43.023800   49.513700  106.655000
  H    -34.144600   50.906700  104.267000
  H    -41.416600   52.981200  100.789000

 Total Charge           Charge          ....    0
 Multiplicity           Mult            ....    1
 Number of Electrons    NEL             ....  134
 Basis Dimension        Dim             ....  322

ORBITAL ENERGIES
----------------

  NO   OCC          E(Eh)            E(eV)
   0   2.0000     -88.966622     -2420.9049
   1   2.0000     -88.964230     -2420.8398
   2   2.0000     -10.332360      -281.1578
   3   2.0000     -10.326550      -280.9997
   4   2.0000     -10.320656      -280.8393
   5   2.0000     -10.317404      -280.7508
   6   2.0000     -10.303134      -280.3625
   7   2.0000     -10.299156      -280.2543
   8   2.0000     -10.297322      -280.2044
   9   2.0000     -10.296991      -280.1954
  10   2.0000     -10.295742      -280.1614
  11   2.0000     -10.291290      -280.0402
  12   2.0000     -10.290704      -280.0243
  13   2.0000     -10.286070      -279.8982
  14   2.0000     -10.283922      -279.8397
  15   2.0000     -10.282029      -279.7882
  16   2.0000      -8.080839      -219.8908
  17   2.0000      -8.079636      -219.8581
  18   2.0000      -6.039461      -164.3421
  19   2.0000      -6.038179      -164.3072
  20   2.0000      -6.035524      -164.2350
  21   2.0000      -6.034018      -164.1940
  22   2.0000      -6.031403      -164.1228
  23   2.0000      -6.030355      -164.0943
  24   2.0000      -1.008001       -27.4291
  25   2.0000      -0.986029       -26.8312
  26   2.0000      -0.913757       -24.8646
  27   2.0000      -0.911703       -24.8087
  28   2.0000      -0.869097       -23.6493
  29   2.0000      -0.855283       -23.2734
  30   2.0000      -0.841327       -22.8937
  31   2.0000      -0.813160       -22.1272
  32   2.0000      -0.784518       -21.3478
  33   2.0000      -0.775542       -21.1036
  34   2.0000      -0.705663       -19.2021
  35   2.0000      -0.699675       -19.0391
  36   2.0000      -0.692625       -18.8473
  37   2.0000      -0.654233       -17.8026
  38   2.0000      -0.638758       -17.3815
  39   2.0000      -0.624360       -16.9897
  40   2.0000      -0.598369       -16.2825
  41   2.0000      -0.577534       -15.7155
  42   2.0000      -0.563560       -15.3352
  43   2.0000      -0.559799       -15.2329
  44   2.0000      -0.534453       -14.5432
  45   2.0000      -0.532337       -14.4856
  46   2.0000      -0.515276       -14.0214
  47   2.0000      -0.512996       -13.9593
  48   2.0000      -0.506131       -13.7725
  49   2.0000      -0.496971       -13.5233
  50   2.0000      -0.486099       -13.2274
  51   2.0000      -0.484335       -13.1794
  52   2.0000      -0.469977       -12.7887
  53   2.0000      -0.464504       -12.6398
  54   2.0000      -0.461269       -12.5518
  55   2.0000      -0.454835       -12.3767
  56   2.0000      -0.446279       -12.1439
  57   2.0000      -0.441918       -12.0252
  58   2.0000      -0.431701       -11.7472
  59   2.0000      -0.420626       -11.4458
  60   2.0000      -0.415411       -11.3039
  61   2.0000      -0.413493       -11.2517
  62   2.0000      -0.408079       -11.1044
  63   2.0000      -0.349716        -9.5162
  64   2.0000      -0.331070        -9.0089
  65   2.0000      -0.328253        -8.9322
  66   2.0000      -0.291117        -7.9217
  67   0.0000       0.022802         0.6205
  68   0.0000       0.075444         2.0529
  69   0.0000       0.101528         2.7627
  70   0.0000       0.120996         3.2925
  71   0.0000       0.131776         3.5858

MULLIKEN ATOMIC CHARGES
-----------------------
   0 S :    0.099949
   1 C :   -0.108604
   2 C :   -0.106838
   3 C :    0.004532
   4 C :   -0.126064
   5 H :    0.002478
   6 C :    0.081057
   7 H :    0.021640
   8 H :    0.042302
   9 C :   -0.090736
  10 H :    0.025990
  11 H :    0.046447
  12 C :   -0.085763
  13 H :    0.062674
  14 H :    0.040493
  15 H :    0.026235
  16 S :    0.101174
  17 C :   -0.088766
  18 C :   -0.038389
  19 C :   -0.074726
  20 C :   -0.139754
  21 H :    0.023907
  22 C :    0.065208
  23 H :    0.050543
  24 H :    0.022063
  25 C :   -0.130740
  26 H :    0.029972
  27 H :    0.031326
  28 C :   -0.021034
  29 H :    0.039957
  30 H :    0.035129
  31 H :    0.035458
  32 H :    0.042293
  33 H :    0.080586
Sum of atomic charges:    0.0000000

LOEWDIN ATOMIC CHARGES
----------------------
   0 S :    0.392337
   1 C :   -0.184079
   2 C :   -0.064284
   3 C :   -0.063640
   4 C :   -0.189998
   5 H :    0.023944
   6 C :   -0.032355
   7 H :    0.033132
   8 H :    0.033955
   9 C :   -0.048227
  10 H :    0.017144
  11 H :    0.037155
  12 C :   -0.078652
  13 H :    0.037842
  14 H :    0.031179
  15 H :    0.024112
  16 S :    0.406317
  17 C :   -0.201741
  18 C :   -0.074811
  19 C :   -0.059853
  20 C :   -0.187150
  21 H :    0.032141
  22 C :   -0.029824
  23 H :    0.029783
  24 H :    0.030029
  25 C :   -0.050992
  26 H :    0.033619
  27 H :    0.012605
  28 C :   -0.059472
  29 H :    0.021765
  30 H :    0.033289
  31 H :    0.029284
  32 H :    0.024398
  33 H :    0.041047

  Mayer bond orders larger than 0.100000
B(  0-S ,  1-C ) :   1.1386 B(  0-S ,  4-C ) :   1.1456 B(  1-C ,  2-C ) :   1.5909
B(  1-C ,  4-C ) :   0.1037 B(  1-C , 32-H ) :   0.9695 B(  2-C ,  3-C ) :   1.2538
B(  2-C ,  6-C ) :   1.0224 B(  3-C ,  4-C ) :   1.5568 B(  3-C ,  5-H ) :   0.9946
B(  4-C , 20-C ) :   1.0494 B(  6-C ,  7-H ) :   0.9444 B(  6-C ,  8-H ) :   0.9374
B(  6-C ,  9-C ) :   1.0629 B(  9-C , 10-H ) :   0.9544 B(  9-C , 11-H ) :   0.9550
B(  9-C , 12-C ) :   1.0714 B( 12-C , 13-H ) :   0.9682 B( 12-C , 14-H ) :   0.9730
B( 12-C , 15-H ) :   0.9751 B( 16-S , 17-C ) :   1.1745 B( 16-S , 20-C ) :   1.1179
B( 17-C , 18-C ) :   1.5838 B( 17-C , 33-H ) :   0.9566 B( 18-C , 19-C ) :   1.2515
B( 18-C , 21-H ) :   0.9851 B( 19-C , 20-C ) :   1.6460 B( 19-C , 22-C ) :   1.0360
B( 22-C , 23-H ) :   0.9320 B( 22-C , 24-H ) :   0.9265 B( 22-C , 25-C ) :   1.0538
B( 25-C , 26-H ) :   0.9614 B( 25-C , 27-H ) :   0.9533 B( 25-C , 28-C ) :   1.0870
B( 28-C , 29-H ) :   0.9752 B( 28-C , 30-H ) :   0.9743 B( 28-C , 31-H ) :   0.9711

Dispersion correction           -0.014092507
FINAL SINGLE POINT ENERGY     -1339.871048686816

DIPOLE MOMENT
-------------
                                X             Y             Z
Electronic contribution:      3.66789       1.34938     -26.62245
Nuclear contribution   :     -3.87772      -1.29965      27.34368
                        -----------------------------------------
Total Dipole Moment    :     -0.20983       0.04973       0.72123
                        -----------------------------------------
Magnitude (a.u.)       :      0.75278
Magnitude (Debye)      :      1.91341

Rotational constants in cm-1:     0.016898     0.008958     0.006695
Rotational constants in MHz :   506.581876   268.540563   200.718082

                             ****ORCA TERMINATED NORMALLY****
TOTAL RUN TIME: 0 days 0 hours 0 minutes 30 seconds 211 msec
