                         Program Version 4.2.1 -  RELEASE  -
|  1> ! wB97X-D3 SP def2-SVP
|  2> %pal
|  3> nprocs 16
|  4> end
|  5>
|  6> * xyz 0 1
|  7> S 	 58.6656 	 11.8645 	 75.3388
|  8> C 	 60.1189 	 11.862 	 76.3566
|  9> C 	 59.9843 	 11.0498 	 77.4836
| 10> C 	 58.9012 	 10.1237 	 77.2194
| 11> C 	 58.0766 	 10.3735 	 76.1457
| 12> H 	 58.7201 	 9.27077 	 77.8166
| 13> C 	 60.897 	 10.9186 	 78.6656
| 14> H 	 60.3767 	 10.2322 	 79.2981
| 15> H 	 60.9941 	 11.862 	 79.233
| 16> C 	 62.3396 	 10.4459 	 78.279
| 17> H 	 62.1396 	 9.55188 	 77.6761
| 18> H 	 62.7168 	 11.0964 	 77.4891
| 19> C 	 63.296 	 10.1634 	 79.3751
| 20> H 	 63.0568 	 9.50089 	 80.204
| 21> H 	 64.2378 	 9.74902 	 78.9784
| 22> H 	 63.5411 	 11.1317 	 79.8258
| 23> S 	 55.4359 	 10.4156 	 75.9961
| 24> C 	 54.4983 	 9.03772 	 75.4017
| 25> C 	 55.3359 	 8.02596 	 74.9951
| 26> C 	 56.7141 	 8.42123 	 75.2772
| 27> C 	 56.8942 	 9.68281 	 75.6839
| 28> H 	 54.9489 	 7.18231 	 74.4776
| 29> C 	 57.7001 	 7.40573 	 75.0784
| 30> H 	 57.2957 	 6.39525 	 74.9576
| 31> H 	 58.3009 	 7.28198 	 75.9239
| 32> C 	 58.814 	 7.68073 	 74.0092
| 33> H 	 59.3557 	 8.61707 	 74.1414
| 34> H 	 58.2892 	 7.70095 	 73.054
| 35> C 	 59.784 	 6.54663 	 73.8227
| 36> H 	 60.4339 	 6.5144 	 74.738
| 37> H 	 60.4323 	 6.70552 	 72.9277
| 38> H 	 59.2512 	 5.58147 	 73.7127
| 39> H 	 60.941 	 12.5986 	 76.3633
| 40> H 	 53.4033 	 9.08111 	 75.4331
| 41> *
| 42>
| 43>                          ****END OF INPUT****

CARTESIAN COORDINATES (ANGSTROEM)
---------------------------------
  S     58.665600   11.864500   75.338800
  C     60.118900   11.862000   76.356600
  C     59.984300   11.049800   77.483600
  C     58.901200   10.123700   77.219400
  C     58.076600   10.373500   76.145700
  H     58.720100    9.270770   77.816600
  C     60.897000   10.918600   78.665600
  H     60.376700   10.232200   79.298100
  H     60.994100   11.862000   79.233000
  C     62.339600   10.445900   78.279000
  H     62.139600    9.551880   77.676100
  H     62.716800   11.096400   77.489100
  C     63.296000   10.163400   79.375100
  H     63.056800    9.500890   80.204000
  H     64.237800    9.749020   78.978400
  H     63.541100   11.131700   79.825800
  S     55.435900   10.415600   75.996100
  C     54.498300    9.037720   75.401700
  C     55.335900    8.025960   74.995100
  C     56.714100    8.421230   75.277200
  C     56.894200    9.682810   75.683900
  H     54.948900    7.182310   74.477600
  C     57.700100    7.405730   75.078400
  H     57.295700    6.395250   74.957600
  H     58.300900    7.281980   75.923900
  C     58.814000    7.680730   74.009200
  H     59.355700    8.617070   74.141400
  H     58.289200    7.700950   73.054000
  C     59.784000    6.546630   73.822700
  H     60.433900    6.514400   74.738000
  H     60.432300    6.705520   72.927700
  H     59.251200    5.581470   73.712700
  H     60.941000   12.598600   76.363300
  H     53.403300    9.081110   75.433100

 Total Charge           Charge          ....    0
 Multiplicity           Mult            ....    1
 Number of Electrons    NEL             ....  134
 Basis Dimension        Dim             ....  322

ORBITAL ENERGIES
----------------

  NO   OCC          E(Eh)            E(eV)
   0   2.0000     -88.966977     -2420.9145
   1   2.0000     -88.958624     -2420.6872
   2   2.0000     -10.331236      -281.1272
   3   2.0000     -10.319756      -280.8148
   4   2.0000     -10.319400      -280.8051
   5   2.0000     -10.313492      -280.6444
   6   2.0000     -10.304603      -280.4025
   7   2.0000     -10.295869      -280.1648
   8   2.0000     -10.294971      -280.1404
   9   2.0000     -10.294496      -280.1275
  10   2.0000     -10.294178      -280.1188
  11   2.0000     -10.290145      -280.0091
  12   2.0000     -10.281561      -279.7755
  13   2.0000     -10.279521      -279.7200
  14   2.0000     -10.277550      -279.6663
  15   2.0000     -10.277196      -279.6567
  16   2.0000      -8.080463      -219.8806
  17   2.0000      -8.075442      -219.7439
  18   2.0000      -6.039142      -164.3334
  19   2.0000      -6.035237      -164.2272
  20   2.0000      -6.033942      -164.1919
  21   2.0000      -6.031005      -164.1120
  22   2.0000      -6.029565      -164.0728
  23   2.0000      -6.026148      -163.9798
  24   2.0000      -1.016444       -27.6588
  25   2.0000      -0.982969       -26.7479
  26   2.0000      -0.914770       -24.8921
  27   2.0000      -0.912422       -24.8283
  28   2.0000      -0.875209       -23.8157
  29   2.0000      -0.853372       -23.2214
  30   2.0000      -0.850342       -23.1390
  31   2.0000      -0.818922       -22.2840
  32   2.0000      -0.783108       -21.3094
  33   2.0000      -0.768439       -20.9103
  34   2.0000      -0.710107       -19.3230
  35   2.0000      -0.702328       -19.1113
  36   2.0000      -0.687284       -18.7019
  37   2.0000      -0.673443       -18.3253
  38   2.0000      -0.638790       -17.3824
  39   2.0000      -0.621030       -16.8991
  40   2.0000      -0.603495       -16.4219
  41   2.0000      -0.572615       -15.5817
  42   2.0000      -0.564765       -15.3680
  43   2.0000      -0.561336       -15.2747
  44   2.0000      -0.532557       -14.4916
  45   2.0000      -0.527991       -14.3674
  46   2.0000      -0.522410       -14.2155
  47   2.0000      -0.513233       -13.9658
  48   2.0000      -0.502784       -13.6814
  49   2.0000      -0.499808       -13.6005
  50   2.0000      -0.495973       -13.4961
  51   2.0000      -0.490798       -13.3553
  52   2.0000      -0.469400       -12.7730
  53   2.0000      -0.465587       -12.6693
  54   2.0000      -0.457065       -12.4374
  55   2.0000      -0.449422       -12.2294
  56   2.0000      -0.446839       -12.1591
  57   2.0000      -0.430665       -11.7190
  58   2.0000      -0.428916       -11.6714
  59   2.0000      -0.425519       -11.5790
  60   2.0000      -0.422535       -11.4978
  61   2.0000      -0.411993       -11.2109
  62   2.0000      -0.404977       -11.0200
  63   2.0000      -0.346171        -9.4198
  64   2.0000      -0.328987        -8.9522
  65   2.0000      -0.319073        -8.6824
  66   2.0000      -0.300416        -8.1747
  67   0.0000       0.039311         1.0697
  68   0.0000       0.058396         1.5890
  69   0.0000       0.108266         2.9461
  70   0.0000       0.119625         3.2552
  71   0.0000       0.128023         3.4837

MULLIKEN ATOMIC CHARGES
-----------------------
   0 S :    0.108475
   1 C :   -0.121743
   2 C :   -0.113266
   3 C :    0.053064
   4 C :   -0.177367
   5 H :   -0.004309
   6 C :    0.085789
   7 H :    0.012912
   8 H :    0.036709
   9 C :   -0.086589
  10 H :    0.020413
  11 H :    0.025716
  12 C :   -0.019730
  13 H :    0.035845
  14 H :    0.034839
  15 H :    0.024483
  16 S :    0.100455
  17 C :   -0.108603
  18 C :   -0.011658
  19 C :   -0.030434
  20 C :   -0.105819
  21 H :    0.019763
  22 C :    0.088164
  23 H :    0.006268
  24 H :   -0.009360
  25 C :   -0.086730
  26 H :    0.047029
  27 H :    0.018397
  28 C :   -0.069990
  29 H :    0.030300
  30 H :    0.045654
  31 H :    0.029849
  32 H :    0.055803
  33 H :    0.065672
Sum of atomic charges:   -0.0000000

LOEWDIN ATOMIC CHARGES
----------------------
   0 S :    0.378055
   1 C :   -0.191126
   2 C :   -0.060140
   3 C :   -0.052434
   4 C :   -0.182573
   5 H :    0.022343
   6 C :   -0.030707
   7 H :    0.026599
   8 H :    0.033688
   9 C :   -0.045209
  10 H :    0.024355
  11 H :    0.026701
  12 C :   -0.069907
  13 H :    0.027919
  14 H :    0.033391
  15 H :    0.026867
  16 S :    0.432961
  17 C :   -0.172667
  18 C :   -0.062188
  19 C :   -0.056542
  20 C :   -0.235425
  21 H :    0.031699
  22 C :   -0.037010
  23 H :    0.030819
  24 H :    0.022335
  25 C :   -0.038387
  26 H :    0.026825
  27 H :    0.019814
  28 C :   -0.071054
  29 H :    0.024033
  30 H :    0.032087
  31 H :    0.024201
  32 H :    0.030791
  33 H :    0.029887

  Mayer bond orders larger than 0.100000
B(  0-S ,  1-C ) :   1.1389 B(  0-S ,  4-C ) :   1.1106 B(  1-C ,  2-C ) :   1.6241
B(  1-C ,  4-C ) :   0.1031 B(  1-C , 32-H ) :   0.9596 B(  2-C ,  3-C ) :   1.2138
B(  2-C ,  6-C ) :   1.0370 B(  3-C ,  4-C ) :   1.6330 B(  3-C ,  5-H ) :   0.9929
B(  4-C , 20-C ) :   0.9974 B(  6-C ,  7-H ) :   0.9379 B(  6-C ,  8-H ) :   0.9311
B(  6-C ,  9-C ) :   1.0565 B(  9-C , 10-H ) :   0.9529 B(  9-C , 11-H ) :   0.9530
B(  9-C , 12-C ) :   1.0860 B( 12-C , 13-H ) :   0.9755 B( 12-C , 14-H ) :   0.9687
B( 12-C , 15-H ) :   0.9697 B( 16-S , 17-C ) :   1.1667 B( 16-S , 20-C ) :   1.1443
B( 17-C , 18-C ) :   1.6001 B( 17-C , 33-H ) :   0.9681 B( 18-C , 19-C ) :   1.2037
B( 18-C , 21-H ) :   1.0040 B( 19-C , 20-C ) :   1.6243 B( 19-C , 22-C ) :   1.0919
B( 22-C , 23-H ) :   0.9289 B( 22-C , 24-H ) :   0.9078 B( 22-C , 25-C ) :   1.0537
B( 25-C , 26-H ) :   0.9544 B( 25-C , 27-H ) :   0.9549 B( 25-C , 28-C ) :   1.0916
B( 28-C , 29-H ) :   0.9737 B( 28-C , 30-H ) :   0.9730 B( 28-C , 31-H ) :   0.9717

Dispersion correction           -0.014236445
FINAL SINGLE POINT ENERGY     -1339.860865206921

DIPOLE MOMENT
-------------
                                X             Y             Z
Electronic contribution:    -24.58407      15.18593      -5.24441
Nuclear contribution   :     24.95385     -15.67148       5.57184
                        -----------------------------------------
Total Dipole Moment    :      0.36979      -0.48555       0.32743
                        -----------------------------------------
Magnitude (a.u.)       :      0.69261
Magnitude (Debye)      :      1.76048

Rotational constants in cm-1:     0.019349     0.008221     0.006779
Rotational constants in MHz :   580.064222   246.470804   203.221287

                             ****ORCA TERMINATED NORMALLY****
TOTAL RUN TIME: 0 days 0 hours 0 minutes 30 seconds 370 msec
