                         Program Version 4.2.1 -  RELEASE  -
|  1> ! wB97X-D3 SP def2-SVP
|  2> %pal
|  3> nprocs 16
|  4> end
|  5>
|  6> * xyz 0 1
|  7> S 	 -50.9684 	 50.4237 	 104.372
|  8> C 	 -50.1436 	 51.3713 	 105.644
|  9> C 	 -49.4438 	 50.5586 	 106.486
| 10> C 	 -49.3902 	 49.2099 	 106.025
| 11> C 	 -50.2348 	 48.9081 	 104.989
| 12> H 	 -48.7294 	 48.5096 	 106.548
| 13> C 	 -48.4971 	 51.1037 	 107.541
| 14> H 	 -48.4799 	 52.2167 	 107.773
| 15> H 	 -47.5691 	 50.7911 	 107.048
| 16> C 	 -48.4846 	 50.4208 	 108.849
| 17> H 	 -49.4992 	 50.2 	 109.204
| 18> H 	 -48.1442 	 49.4187 	 108.649
| 19> C 	 -47.5781 	 50.957 	 109.918
| 20> H 	 -47.334 	 50.1117 	 110.568
| 21> H 	 -46.6589 	 51.4703 	 109.545
| 22> H 	 -48.1926 	 51.7407 	 110.388
| 23> S 	 -50.1463 	 47.6171 	 102.647
| 24> C 	 -50.9583 	 46.0967 	 102.435
| 25> C 	 -51.4755 	 45.6116 	 103.673
| 26> C 	 -51.1782 	 46.494 	 104.81
| 27> C 	 -50.5431 	 47.615 	 104.376
| 28> H 	 -52.044 	 44.7439 	 103.608
| 29> C 	 -51.565 	 46.3002 	 106.24
| 30> H 	 -52.4572 	 45.6152 	 106.332
| 31> H 	 -51.9193 	 47.3004 	 106.498
| 32> C 	 -50.3808 	 45.6258 	 107.01
| 33> H 	 -49.4428 	 45.9754 	 106.599
| 34> H 	 -50.3625 	 44.5482 	 106.871
| 35> C 	 -50.4285 	 45.9136 	 108.551
| 36> H 	 -49.6043 	 45.4121 	 108.961
| 37> H 	 -51.2799 	 45.5458 	 109.166
| 38> H 	 -50.2442 	 46.9642 	 108.659
| 39> H 	 -50.2067 	 52.3711 	 105.767
| 40> H 	 -50.9487 	 45.4821 	 101.538
| 41> *
| 42>
| 43>                          ****END OF INPUT****

CARTESIAN COORDINATES (ANGSTROEM)
---------------------------------
  S    -50.968400   50.423700  104.372000
  C    -50.143600   51.371300  105.644000
  C    -49.443800   50.558600  106.486000
  C    -49.390200   49.209900  106.025000
  C    -50.234800   48.908100  104.989000
  H    -48.729400   48.509600  106.548000
  C    -48.497100   51.103700  107.541000
  H    -48.479900   52.216700  107.773000
  H    -47.569100   50.791100  107.048000
  C    -48.484600   50.420800  108.849000
  H    -49.499200   50.200000  109.204000
  H    -48.144200   49.418700  108.649000
  C    -47.578100   50.957000  109.918000
  H    -47.334000   50.111700  110.568000
  H    -46.658900   51.470300  109.545000
  H    -48.192600   51.740700  110.388000
  S    -50.146300   47.617100  102.647000
  C    -50.958300   46.096700  102.435000
  C    -51.475500   45.611600  103.673000
  C    -51.178200   46.494000  104.810000
  C    -50.543100   47.615000  104.376000
  H    -52.044000   44.743900  103.608000
  C    -51.565000   46.300200  106.240000
  H    -52.457200   45.615200  106.332000
  H    -51.919300   47.300400  106.498000
  C    -50.380800   45.625800  107.010000
  H    -49.442800   45.975400  106.599000
  H    -50.362500   44.548200  106.871000
  C    -50.428500   45.913600  108.551000
  H    -49.604300   45.412100  108.961000
  H    -51.279900   45.545800  109.166000
  H    -50.244200   46.964200  108.659000
  H    -50.206700   52.371100  105.767000
  H    -50.948700   45.482100  101.538000

 Total Charge           Charge          ....    0
 Multiplicity           Mult            ....    1
 Number of Electrons    NEL             ....  134
 Basis Dimension        Dim             ....  322

ORBITAL ENERGIES
----------------

  NO   OCC          E(Eh)            E(eV)
   0   2.0000     -88.963969     -2420.8327
   1   2.0000     -88.963679     -2420.8248
   2   2.0000     -10.334149      -281.2065
   3   2.0000     -10.323611      -280.9197
   4   2.0000     -10.319930      -280.8196
   5   2.0000     -10.307248      -280.4745
   6   2.0000     -10.306289      -280.4484
   7   2.0000     -10.299096      -280.2526
   8   2.0000     -10.296705      -280.1876
   9   2.0000     -10.296597      -280.1847
  10   2.0000     -10.295980      -280.1678
  11   2.0000     -10.294696      -280.1329
  12   2.0000     -10.292052      -280.0610
  13   2.0000     -10.283490      -279.8280
  14   2.0000     -10.277657      -279.6693
  15   2.0000     -10.275506      -279.6107
  16   2.0000      -8.078339      -219.8228
  17   2.0000      -8.077522      -219.8006
  18   2.0000      -6.036847      -164.2710
  19   2.0000      -6.036237      -164.2544
  20   2.0000      -6.032819      -164.1614
  21   2.0000      -6.032216      -164.1449
  22   2.0000      -6.029135      -164.0611
  23   2.0000      -6.028081      -164.0324
  24   2.0000      -1.003152       -27.2972
  25   2.0000      -0.979850       -26.6631
  26   2.0000      -0.921619       -25.0785
  27   2.0000      -0.906921       -24.6786
  28   2.0000      -0.870350       -23.6834
  29   2.0000      -0.851519       -23.1710
  30   2.0000      -0.844148       -22.9704
  31   2.0000      -0.815481       -22.1904
  32   2.0000      -0.783556       -21.3216
  33   2.0000      -0.774138       -21.0654
  34   2.0000      -0.710025       -19.3208
  35   2.0000      -0.700180       -19.0529
  36   2.0000      -0.691247       -18.8098
  37   2.0000      -0.664975       -18.0949
  38   2.0000      -0.643073       -17.4989
  39   2.0000      -0.626832       -17.0570
  40   2.0000      -0.586607       -15.9624
  41   2.0000      -0.573877       -15.6160
  42   2.0000      -0.570263       -15.5176
  43   2.0000      -0.559754       -15.2317
  44   2.0000      -0.532167       -14.4810
  45   2.0000      -0.526933       -14.3386
  46   2.0000      -0.518124       -14.0989
  47   2.0000      -0.509828       -13.8731
  48   2.0000      -0.509161       -13.8550
  49   2.0000      -0.501723       -13.6526
  50   2.0000      -0.496433       -13.5086
  51   2.0000      -0.485407       -13.2086
  52   2.0000      -0.469694       -12.7810
  53   2.0000      -0.464540       -12.6408
  54   2.0000      -0.456423       -12.4199
  55   2.0000      -0.448546       -12.2056
  56   2.0000      -0.444484       -12.0950
  57   2.0000      -0.442210       -12.0332
  58   2.0000      -0.435452       -11.8493
  59   2.0000      -0.425014       -11.5652
  60   2.0000      -0.417392       -11.3578
  61   2.0000      -0.411053       -11.1853
  62   2.0000      -0.402023       -10.9396
  63   2.0000      -0.338713        -9.2169
  64   2.0000      -0.333301        -9.0696
  65   2.0000      -0.323234        -8.7957
  66   2.0000      -0.298625        -8.1260
  67   0.0000       0.032862         0.8942
  68   0.0000       0.063693         1.7332
  69   0.0000       0.113361         3.0847
  70   0.0000       0.120952         3.2913
  71   0.0000       0.125144         3.4053

MULLIKEN ATOMIC CHARGES
-----------------------
   0 S :    0.102561
   1 C :   -0.087688
   2 C :   -0.046715
   3 C :    0.023407
   4 C :   -0.134085
   5 H :    0.018788
   6 C :    0.029888
   7 H :    0.035917
   8 H :    0.039071
   9 C :   -0.105349
  10 H :    0.027420
  11 H :    0.001092
  12 C :   -0.037062
  13 H :    0.046015
  14 H :    0.036605
  15 H :    0.038149
  16 S :    0.107045
  17 C :   -0.096860
  18 C :   -0.036851
  19 C :   -0.015534
  20 C :   -0.196829
  21 H :   -0.003047
  22 C :    0.068798
  23 H :    0.029897
  24 H :    0.047957
  25 C :   -0.075975
  26 H :    0.030727
  27 H :    0.030863
  28 C :   -0.029927
  29 H :    0.013873
  30 H :    0.043584
  31 H :    0.029089
  32 H :    0.001860
  33 H :    0.063317
Sum of atomic charges:    0.0000000

LOEWDIN ATOMIC CHARGES
----------------------
   0 S :    0.369515
   1 C :   -0.163814
   2 C :   -0.060207
   3 C :   -0.065191
   4 C :   -0.181671
   5 H :    0.031219
   6 C :   -0.037242
   7 H :    0.034399
   8 H :    0.040396
   9 C :   -0.058923
  10 H :    0.023715
  11 H :    0.013161
  12 C :   -0.064111
  13 H :    0.033575
  14 H :    0.030037
  15 H :    0.029592
  16 S :    0.403098
  17 C :   -0.190256
  18 C :   -0.065064
  19 C :   -0.046147
  20 C :   -0.196506
  21 H :    0.018617
  22 C :   -0.033768
  23 H :    0.036480
  24 H :    0.037832
  25 C :   -0.028581
  26 H :    0.020899
  27 H :    0.025194
  28 C :   -0.064518
  29 H :    0.018073
  30 H :    0.031495
  31 H :    0.021930
  32 H :    0.005585
  33 H :    0.031188

  Mayer bond orders larger than 0.100000
B(  0-S ,  1-C ) :   1.1151 B(  0-S ,  4-C ) :   1.1277 B(  1-C ,  2-C ) :   1.6354
B(  1-C , 32-H ) :   0.9834 B(  2-C ,  3-C ) :   1.2180 B(  2-C ,  6-C ) :   1.0153
B(  3-C ,  4-C ) :   1.6054 B(  3-C ,  5-H ) :   0.9859 B(  4-C , 20-C ) :   1.0215
B(  6-C ,  7-H ) :   0.9553 B(  6-C ,  8-H ) :   0.9354 B(  6-C ,  9-C ) :   1.0613
B(  9-C , 10-H ) :   0.9560 B(  9-C , 11-H ) :   0.9484 B(  9-C , 12-C ) :   1.0803
B( 12-C , 13-H ) :   0.9743 B( 12-C , 14-H ) :   0.9733 B( 12-C , 15-H ) :   0.9745
B( 16-S , 17-C ) :   1.1537 B( 16-S , 20-C ) :   1.1385 B( 17-C , 18-C ) :   1.6211
B( 17-C , 33-H ) :   0.9662 B( 18-C , 19-C ) :   1.1940 B( 18-C , 21-H ) :   1.0019
B( 19-C , 20-C ) :   1.6246 B( 19-C , 22-C ) :   1.0428 B( 22-C , 23-H ) :   0.9338
B( 22-C , 24-H ) :   0.9401 B( 22-C , 25-C ) :   1.0403 B( 25-C , 26-H ) :   0.9620
B( 25-C , 27-H ) :   0.9542 B( 25-C , 28-C ) :   1.0790 B( 28-C , 29-H ) :   0.9718
B( 28-C , 30-H ) :   0.9749 B( 28-C , 31-H ) :   0.9785

Dispersion correction           -0.014671398
FINAL SINGLE POINT ENERGY     -1339.855662991046

DIPOLE MOMENT
-------------
                                X             Y             Z
Electronic contribution:     -8.44864       3.67644     -30.59629
Nuclear contribution   :      8.66872      -3.99044      31.20955
                        -----------------------------------------
Total Dipole Moment    :      0.22008      -0.31400       0.61327
                        -----------------------------------------
Magnitude (a.u.)       :      0.72328
Magnitude (Debye)      :      1.83843

Rotational constants in cm-1:     0.018762     0.009187     0.006718
Rotational constants in MHz :   562.470530   275.420310   201.411489

                             ****ORCA TERMINATED NORMALLY****
TOTAL RUN TIME: 0 days 0 hours 0 minutes 29 seconds 269 msec
