                         Program Version 4.2.1 -  RELEASE  -
|  1> ! wB97X-D3 SP def2-SVP
|  2> %pal
|  3> nprocs 16
|  4> end
|  5>
|  6> * xyz 0 1
|  7> S 	 -2.86769 	 -12.1584 	 80.0248
|  8> C 	 -3.11415 	 -10.5555 	 79.3279
|  9> C 	 -4.4463 	 -10.1649 	 79.2431
| 10> C 	 -5.27355 	 -11.1336 	 79.9198
| 11> C 	 -4.55574 	 -12.1766 	 80.5169
| 12> H 	 -6.26862 	 -11.0798 	 80.0288
| 13> C 	 -4.97938 	 -8.93672 	 78.6032
| 14> H 	 -4.29423 	 -8.16162 	 78.7456
| 15> H 	 -5.88884 	 -8.6155 	 79.1112
| 16> C 	 -5.47184 	 -9.05467 	 77.1578
| 17> H 	 -4.7192 	 -9.55748 	 76.5704
| 18> H 	 -6.22539 	 -9.8595 	 77.2525
| 19> C 	 -6.1133 	 -7.71182 	 76.6874
| 20> H 	 -6.23673 	 -7.67258 	 75.5508
| 21> H 	 -7.06271 	 -7.53269 	 77.1995
| 22> H 	 -5.39563 	 -6.96822 	 77.0044
| 23> S 	 -5.21875 	 -14.928 	 80.4976
| 24> C 	 -5.59978 	 -15.6495 	 82.0277
| 25> C 	 -5.66761 	 -14.7599 	 83.0598
| 26> C 	 -5.43426 	 -13.3974 	 82.6741
| 27> C 	 -5.10408 	 -13.3105 	 81.2989
| 28> H 	 -5.93836 	 -14.9284 	 84.0846
| 29> C 	 -5.44276 	 -12.2542 	 83.6654
| 30> H 	 -4.85911 	 -11.5214 	 83.1991
| 31> H 	 -4.87306 	 -12.6364 	 84.5638
| 32> C 	 -6.73881 	 -11.4117 	 84.0524
| 33> H 	 -7.2964 	 -11.0005 	 83.2411
| 34> H 	 -6.37029 	 -10.5085 	 84.5462
| 35> C 	 -7.64955 	 -12.2331 	 84.9872
| 36> H 	 -8.24659 	 -13.0362 	 84.3817
| 37> H 	 -8.49793 	 -11.6432 	 85.3321
| 38> H 	 -7.23188 	 -12.8099 	 85.7181
| 39> H 	 -2.34236 	 -9.87091 	 79.0721
| 40> H 	 -5.89394 	 -16.7053 	 82.2653
| 41> *
| 42>
| 43>                          ****END OF INPUT****

CARTESIAN COORDINATES (ANGSTROEM)
---------------------------------
  S     -2.867690  -12.158400   80.024800
  C     -3.114150  -10.555500   79.327900
  C     -4.446300  -10.164900   79.243100
  C     -5.273550  -11.133600   79.919800
  C     -4.555740  -12.176600   80.516900
  H     -6.268620  -11.079800   80.028800
  C     -4.979380   -8.936720   78.603200
  H     -4.294230   -8.161620   78.745600
  H     -5.888840   -8.615500   79.111200
  C     -5.471840   -9.054670   77.157800
  H     -4.719200   -9.557480   76.570400
  H     -6.225390   -9.859500   77.252500
  C     -6.113300   -7.711820   76.687400
  H     -6.236730   -7.672580   75.550800
  H     -7.062710   -7.532690   77.199500
  H     -5.395630   -6.968220   77.004400
  S     -5.218750  -14.928000   80.497600
  C     -5.599780  -15.649500   82.027700
  C     -5.667610  -14.759900   83.059800
  C     -5.434260  -13.397400   82.674100
  C     -5.104080  -13.310500   81.298900
  H     -5.938360  -14.928400   84.084600
  C     -5.442760  -12.254200   83.665400
  H     -4.859110  -11.521400   83.199100
  H     -4.873060  -12.636400   84.563800
  C     -6.738810  -11.411700   84.052400
  H     -7.296400  -11.000500   83.241100
  H     -6.370290  -10.508500   84.546200
  C     -7.649550  -12.233100   84.987200
  H     -8.246590  -13.036200   84.381700
  H     -8.497930  -11.643200   85.332100
  H     -7.231880  -12.809900   85.718100
  H     -2.342360   -9.870910   79.072100
  H     -5.893940  -16.705300   82.265300

 Total Charge           Charge          ....    0
 Multiplicity           Mult            ....    1
 Number of Electrons    NEL             ....  134
 Basis Dimension        Dim             ....  322

ORBITAL ENERGIES
----------------

  NO   OCC          E(Eh)            E(eV)
   0   2.0000     -88.968318     -2420.9510
   1   2.0000     -88.967895     -2420.9395
   2   2.0000     -10.330941      -281.1192
   3   2.0000     -10.330280      -281.1012
   4   2.0000     -10.318171      -280.7717
   5   2.0000     -10.313532      -280.6455
   6   2.0000     -10.304625      -280.4031
   7   2.0000     -10.301492      -280.3178
   8   2.0000     -10.293566      -280.1022
   9   2.0000     -10.292595      -280.0758
  10   2.0000     -10.290562      -280.0204
  11   2.0000     -10.289693      -279.9968
  12   2.0000     -10.287986      -279.9503
  13   2.0000     -10.287450      -279.9357
  14   2.0000     -10.285408      -279.8802
  15   2.0000     -10.277459      -279.6639
  16   2.0000      -8.082541      -219.9371
  17   2.0000      -8.081775      -219.9163
  18   2.0000      -6.041041      -164.3851
  19   2.0000      -6.040422      -164.3682
  20   2.0000      -6.037261      -164.2822
  21   2.0000      -6.036447      -164.2601
  22   2.0000      -6.033207      -164.1719
  23   2.0000      -6.032405      -164.1501
  24   2.0000      -0.997898       -27.1542
  25   2.0000      -0.978430       -26.6244
  26   2.0000      -0.916161       -24.9300
  27   2.0000      -0.901085       -24.5198
  28   2.0000      -0.862897       -23.4806
  29   2.0000      -0.849686       -23.1211
  30   2.0000      -0.846920       -23.0459
  31   2.0000      -0.812272       -22.1030
  32   2.0000      -0.783689       -21.3253
  33   2.0000      -0.769494       -20.9390
  34   2.0000      -0.713867       -19.4253
  35   2.0000      -0.704997       -19.1839
  36   2.0000      -0.691459       -18.8156
  37   2.0000      -0.657154       -17.8821
  38   2.0000      -0.648265       -17.6402
  39   2.0000      -0.619413       -16.8551
  40   2.0000      -0.588814       -16.0224
  41   2.0000      -0.574455       -15.6317
  42   2.0000      -0.558526       -15.1983
  43   2.0000      -0.546195       -14.8627
  44   2.0000      -0.533185       -14.5087
  45   2.0000      -0.526742       -14.3334
  46   2.0000      -0.515465       -14.0265
  47   2.0000      -0.512884       -13.9563
  48   2.0000      -0.505526       -13.7561
  49   2.0000      -0.491139       -13.3646
  50   2.0000      -0.485248       -13.2043
  51   2.0000      -0.476949       -12.9784
  52   2.0000      -0.471595       -12.8328
  53   2.0000      -0.467337       -12.7169
  54   2.0000      -0.458148       -12.4669
  55   2.0000      -0.456443       -12.4204
  56   2.0000      -0.446241       -12.1428
  57   2.0000      -0.438218       -11.9245
  58   2.0000      -0.434152       -11.8139
  59   2.0000      -0.430423       -11.7124
  60   2.0000      -0.418932       -11.3997
  61   2.0000      -0.416374       -11.3301
  62   2.0000      -0.410428       -11.1683
  63   2.0000      -0.335626        -9.1329
  64   2.0000      -0.327710        -8.9174
  65   2.0000      -0.325104        -8.8465
  66   2.0000      -0.299460        -8.1487
  67   0.0000       0.038881         1.0580
  68   0.0000       0.049602         1.3497
  69   0.0000       0.114793         3.1237
  70   0.0000       0.117222         3.1898
  71   0.0000       0.124790         3.3957

MULLIKEN ATOMIC CHARGES
-----------------------
   0 S :    0.124507
   1 C :   -0.108457
   2 C :   -0.086222
   3 C :    0.092731
   4 C :   -0.178220
   5 H :   -0.041065
   6 C :    0.071846
   7 H :    0.005598
   8 H :    0.008835
   9 C :   -0.070176
  10 H :    0.025777
  11 H :    0.019049
  12 C :   -0.043889
  13 H :    0.056669
  14 H :    0.042694
  15 H :    0.031466
  16 S :    0.115752
  17 C :   -0.086616
  18 C :   -0.023594
  19 C :   -0.025206
  20 C :   -0.194527
  21 H :    0.004335
  22 C :    0.044643
  23 H :    0.015790
  24 H :    0.042266
  25 C :   -0.023063
  26 H :    0.022207
  27 H :    0.031251
  28 C :   -0.055405
  29 H :    0.030226
  30 H :    0.031435
  31 H :    0.014578
  32 H :    0.033940
  33 H :    0.070846
Sum of atomic charges:   -0.0000000

LOEWDIN ATOMIC CHARGES
----------------------
   0 S :    0.401478
   1 C :   -0.185714
   2 C :   -0.057032
   3 C :   -0.038689
   4 C :   -0.195233
   5 H :    0.008795
   6 C :   -0.033783
   7 H :    0.018082
   8 H :    0.030181
   9 C :   -0.040890
  10 H :    0.020310
  11 H :    0.023990
  12 C :   -0.064732
  13 H :    0.038908
  14 H :    0.029128
  15 H :    0.023978
  16 S :    0.391312
  17 C :   -0.197857
  18 C :   -0.076854
  19 C :   -0.047527
  20 C :   -0.194549
  21 H :    0.027038
  22 C :   -0.033205
  23 H :    0.025529
  24 H :    0.041051
  25 C :   -0.026653
  26 H :    0.023713
  27 H :    0.027288
  28 C :   -0.071664
  29 H :    0.036154
  30 H :    0.026048
  31 H :    0.007115
  32 H :    0.020763
  33 H :    0.043522

  Mayer bond orders larger than 0.100000
B(  0-S ,  1-C ) :   1.1384 B(  0-S ,  4-C ) :   1.1448 B(  1-C ,  2-C ) :   1.6179
B(  1-C , 32-H ) :   0.9669 B(  2-C ,  3-C ) :   1.2237 B(  2-C ,  6-C ) :   1.0401
B(  3-C ,  4-C ) :   1.5828 B(  3-C ,  5-H ) :   1.0115 B(  4-C , 20-C ) :   1.0212
B(  6-C ,  7-H ) :   0.9322 B(  6-C ,  8-H ) :   0.9387 B(  6-C ,  9-C ) :   1.0470
B(  9-C , 10-H ) :   0.9598 B(  9-C , 11-H ) :   0.9568 B(  9-C , 12-C ) :   1.0562
B( 12-C , 13-H ) :   0.9750 B( 12-C , 14-H ) :   0.9736 B( 12-C , 15-H ) :   0.9773
B( 16-S , 17-C ) :   1.1454 B( 16-S , 20-C ) :   1.1320 B( 17-C , 18-C ) :   1.6156
B( 17-C , 33-H ) :   0.9543 B( 18-C , 19-C ) :   1.2534 B( 18-C , 21-H ) :   0.9865
B( 19-C , 20-C ) :   1.5984 B( 19-C , 22-C ) :   1.0388 B( 22-C , 23-H ) :   0.9212
B( 22-C , 24-H ) :   0.9428 B( 22-C , 25-C ) :   1.0678 B( 25-C , 26-H ) :   0.9534
B( 25-C , 27-H ) :   0.9562 B( 25-C , 28-C ) :   1.0735 B( 28-C , 29-H ) :   0.9725
B( 28-C , 30-H ) :   0.9727 B( 28-C , 31-H ) :   0.9809

Dispersion correction           -0.013905103
FINAL SINGLE POINT ENERGY     -1339.852901769809

DIPOLE MOMENT
-------------
                                X             Y             Z
Electronic contribution:     14.65676     -21.00249      -3.51548
Nuclear contribution   :    -15.02076      21.55702       3.73920
                        -----------------------------------------
Total Dipole Moment    :     -0.36400       0.55454       0.22373
                        -----------------------------------------
Magnitude (a.u.)       :      0.70004
Magnitude (Debye)      :      1.77937

Rotational constants in cm-1:     0.019014     0.007474     0.006290
Rotational constants in MHz :   570.025983   224.065840   188.560335

                             ****ORCA TERMINATED NORMALLY****
TOTAL RUN TIME: 0 days 0 hours 0 minutes 32 seconds 617 msec
