                         Program Version 4.2.1 -  RELEASE  -
|  1> ! wB97X-D3 SP def2-SVP
|  2> %pal
|  3> nprocs 16
|  4> end
|  5>
|  6> * xyz 0 1
|  7> S 	 60.7264 	 24.2058 	 75.3158
|  8> C 	 61.2795 	 25.3932 	 74.1915
|  9> C 	 62.6694 	 25.3084 	 73.9892
| 10> C 	 63.2697 	 24.2128 	 74.6926
| 11> C 	 62.3103 	 23.6017 	 75.5041
| 12> H 	 64.3435 	 23.9501 	 74.782
| 13> C 	 63.5143 	 26.1672 	 73.0798
| 14> H 	 64.3437 	 26.4978 	 73.6529
| 15> H 	 62.9706 	 27.1013 	 72.8778
| 16> C 	 63.9558 	 25.4338 	 71.7473
| 17> H 	 64.5313 	 24.5173 	 71.8734
| 18> H 	 63.1247 	 25.0645 	 71.2023
| 19> C 	 64.7472 	 26.3125 	 70.7832
| 20> H 	 65.3313 	 25.7417 	 70.0271
| 21> H 	 64.1451 	 27.0758 	 70.3191
| 22> H 	 65.4909 	 26.8585 	 71.3344
| 23> S 	 63.3205 	 22.9502 	 78.1206
| 24> C 	 63.2685 	 21.2068 	 78.5709
| 25> C 	 62.9576 	 20.401 	 77.4812
| 26> C 	 62.4194 	 21.1024 	 76.368
| 27> C 	 62.6125 	 22.4974 	 76.4769
| 28> H 	 62.9669 	 19.3364 	 77.6095
| 29> C 	 62.0319 	 20.3532 	 75.1774
| 30> H 	 62.8819 	 20.5993 	 74.4281
| 31> H 	 61.0268 	 20.6657 	 74.7791
| 32> C 	 61.852 	 18.7753 	 75.368
| 33> H 	 62.7071 	 18.1892 	 75.6779
| 34> H 	 61.7156 	 18.4675 	 74.3566
| 35> C 	 60.6242 	 18.1887 	 76.1224
| 36> H 	 60.5801 	 18.4709 	 77.1829
| 37> H 	 60.5287 	 17.132 	 75.972
| 38> H 	 59.7109 	 18.3997 	 75.6404
| 39> H 	 60.5781 	 26.1663 	 73.7937
| 40> H 	 63.5862 	 20.8086 	 79.5124
| 41> *
| 42>
| 43>                          ****END OF INPUT****

CARTESIAN COORDINATES (ANGSTROEM)
---------------------------------
  S     60.726400   24.205800   75.315800
  C     61.279500   25.393200   74.191500
  C     62.669400   25.308400   73.989200
  C     63.269700   24.212800   74.692600
  C     62.310300   23.601700   75.504100
  H     64.343500   23.950100   74.782000
  C     63.514300   26.167200   73.079800
  H     64.343700   26.497800   73.652900
  H     62.970600   27.101300   72.877800
  C     63.955800   25.433800   71.747300
  H     64.531300   24.517300   71.873400
  H     63.124700   25.064500   71.202300
  C     64.747200   26.312500   70.783200
  H     65.331300   25.741700   70.027100
  H     64.145100   27.075800   70.319100
  H     65.490900   26.858500   71.334400
  S     63.320500   22.950200   78.120600
  C     63.268500   21.206800   78.570900
  C     62.957600   20.401000   77.481200
  C     62.419400   21.102400   76.368000
  C     62.612500   22.497400   76.476900
  H     62.966900   19.336400   77.609500
  C     62.031900   20.353200   75.177400
  H     62.881900   20.599300   74.428100
  H     61.026800   20.665700   74.779100
  C     61.852000   18.775300   75.368000
  H     62.707100   18.189200   75.677900
  H     61.715600   18.467500   74.356600
  C     60.624200   18.188700   76.122400
  H     60.580100   18.470900   77.182900
  H     60.528700   17.132000   75.972000
  H     59.710900   18.399700   75.640400
  H     60.578100   26.166300   73.793700
  H     63.586200   20.808600   79.512400

 Total Charge           Charge          ....    0
 Multiplicity           Mult            ....    1
 Number of Electrons    NEL             ....  134
 Basis Dimension        Dim             ....  322

ORBITAL ENERGIES
----------------

  NO   OCC          E(Eh)            E(eV)
   0   2.0000     -88.968137     -2420.9461
   1   2.0000     -88.964406     -2420.8446
   2   2.0000     -10.331242      -281.1274
   3   2.0000     -10.326743      -281.0050
   4   2.0000     -10.319293      -280.8022
   5   2.0000     -10.316273      -280.7201
   6   2.0000     -10.304567      -280.4015
   7   2.0000     -10.303517      -280.3729
   8   2.0000     -10.301936      -280.3299
   9   2.0000     -10.296435      -280.1802
  10   2.0000     -10.293219      -280.0927
  11   2.0000     -10.290036      -280.0061
  12   2.0000     -10.289941      -280.0035
  13   2.0000     -10.285069      -279.8710
  14   2.0000     -10.276018      -279.6247
  15   2.0000     -10.274842      -279.5927
  16   2.0000      -8.083789      -219.9711
  17   2.0000      -8.076805      -219.7810
  18   2.0000      -6.041995      -164.4110
  19   2.0000      -6.038134      -164.3060
  20   2.0000      -6.035470      -164.2335
  21   2.0000      -6.034853      -164.2167
  22   2.0000      -6.031766      -164.1327
  23   2.0000      -6.027432      -164.0148
  24   2.0000      -1.001176       -27.2434
  25   2.0000      -0.973258       -26.4837
  26   2.0000      -0.906473       -24.6664
  27   2.0000      -0.900957       -24.5163
  28   2.0000      -0.859781       -23.3958
  29   2.0000      -0.851734       -23.1769
  30   2.0000      -0.847728       -23.0679
  31   2.0000      -0.808957       -22.0128
  32   2.0000      -0.782411       -21.2905
  33   2.0000      -0.766779       -20.8651
  34   2.0000      -0.709118       -19.2961
  35   2.0000      -0.705154       -19.1882
  36   2.0000      -0.688822       -18.7438
  37   2.0000      -0.653124       -17.7724
  38   2.0000      -0.643020       -17.4975
  39   2.0000      -0.610592       -16.6151
  40   2.0000      -0.595349       -16.2003
  41   2.0000      -0.563703       -15.3392
  42   2.0000      -0.554472       -15.0880
  43   2.0000      -0.549505       -14.9528
  44   2.0000      -0.533872       -14.5274
  45   2.0000      -0.524562       -14.2741
  46   2.0000      -0.517746       -14.0886
  47   2.0000      -0.508355       -13.8330
  48   2.0000      -0.506511       -13.7829
  49   2.0000      -0.492611       -13.4046
  50   2.0000      -0.485088       -13.1999
  51   2.0000      -0.472586       -12.8597
  52   2.0000      -0.466714       -12.6999
  53   2.0000      -0.461587       -12.5604
  54   2.0000      -0.456137       -12.4121
  55   2.0000      -0.447521       -12.1777
  56   2.0000      -0.445694       -12.1279
  57   2.0000      -0.436774       -11.8852
  58   2.0000      -0.435632       -11.8542
  59   2.0000      -0.427333       -11.6283
  60   2.0000      -0.419987       -11.4284
  61   2.0000      -0.417591       -11.3632
  62   2.0000      -0.413750       -11.2587
  63   2.0000      -0.334072        -9.0906
  64   2.0000      -0.328718        -8.9449
  65   2.0000      -0.317517        -8.6401
  66   2.0000      -0.300789        -8.1849
  67   0.0000       0.041650         1.1334
  68   0.0000       0.051360         1.3976
  69   0.0000       0.105511         2.8711
  70   0.0000       0.124322         3.3830
  71   0.0000       0.128468         3.4958

MULLIKEN ATOMIC CHARGES
-----------------------
   0 S :    0.140051
   1 C :   -0.150916
   2 C :   -0.095574
   3 C :    0.022061
   4 C :   -0.180483
   5 H :    0.036879
   6 C :    0.098163
   7 H :    0.020084
   8 H :    0.015284
   9 C :   -0.062594
  10 H :    0.024764
  11 H :    0.020133
  12 C :   -0.039191
  13 H :    0.037797
  14 H :    0.027882
  15 H :    0.012268
  16 S :    0.089336
  17 C :   -0.082787
  18 C :   -0.027584
  19 C :   -0.010863
  20 C :   -0.178721
  21 H :    0.019945
  22 C :    0.033194
  23 H :    0.069700
  24 H :    0.043232
  25 C :   -0.096790
  26 H :    0.031795
  27 H :    0.017086
  28 C :   -0.026454
  29 H :    0.046581
  30 H :    0.022708
  31 H :    0.008399
  32 H :    0.066613
  33 H :    0.048005
Sum of atomic charges:    0.0000000

LOEWDIN ATOMIC CHARGES
----------------------
   0 S :    0.445221
   1 C :   -0.221308
   2 C :   -0.061338
   3 C :   -0.064943
   4 C :   -0.214600
   5 H :    0.042645
   6 C :   -0.027266
   7 H :    0.026859
   8 H :    0.030914
   9 C :   -0.037828
  10 H :    0.025399
  11 H :    0.020989
  12 C :   -0.066748
  13 H :    0.031436
  14 H :    0.021212
  15 H :    0.019078
  16 S :    0.346373
  17 C :   -0.160998
  18 C :   -0.069353
  19 C :   -0.061052
  20 C :   -0.181696
  21 H :    0.029199
  22 C :   -0.036678
  23 H :    0.056219
  24 H :    0.040979
  25 C :   -0.046638
  26 H :    0.020948
  27 H :    0.024891
  28 C :   -0.068478
  29 H :    0.026767
  30 H :    0.029862
  31 H :    0.020389
  32 H :    0.035810
  33 H :    0.023731

  Mayer bond orders larger than 0.100000
B(  0-S ,  1-C ) :   1.1510 B(  0-S ,  4-C ) :   1.1927 B(  1-C ,  2-C ) :   1.5845
B(  1-C , 32-H ) :   0.9650 B(  2-C ,  3-C ) :   1.2485 B(  2-C ,  6-C ) :   1.0408
B(  3-C ,  4-C ) :   1.5603 B(  3-C ,  5-H ) :   0.9876 B(  4-C , 20-C ) :   1.0124
B(  6-C ,  7-H ) :   0.9322 B(  6-C ,  8-H ) :   0.9418 B(  6-C ,  9-C ) :   1.0455
B(  9-C , 10-H ) :   0.9582 B(  9-C , 11-H ) :   0.9567 B(  9-C , 12-C ) :   1.0856
B( 12-C , 13-H ) :   0.9747 B( 12-C , 14-H ) :   0.9767 B( 12-C , 15-H ) :   0.9733
B( 16-S , 17-C ) :   1.1431 B( 16-S , 20-C ) :   1.1173 B( 17-C , 18-C ) :   1.6284
B( 17-C , 20-C ) :   0.1061 B( 17-C , 33-H ) :   0.9644 B( 18-C , 19-C ) :   1.2391
B( 18-C , 21-H ) :   0.9737 B( 19-C , 20-C ) :   1.5996 B( 19-C , 22-C ) :   1.0508
B( 22-C , 23-H ) :   0.9302 B( 22-C , 24-H ) :   0.9251 B( 22-C , 25-C ) :   1.0708
B( 25-C , 26-H ) :   0.9527 B( 25-C , 27-H ) :   0.9495 B( 25-C , 28-C ) :   1.0812
B( 28-C , 29-H ) :   0.9766 B( 28-C , 30-H ) :   0.9672 B( 28-C , 31-H ) :   0.9680

Dispersion correction           -0.013850227
FINAL SINGLE POINT ENERGY     -1339.860627109264

DIPOLE MOMENT
-------------
                                X             Y             Z
Electronic contribution:     -4.76869       7.54622      19.70639
Nuclear contribution   :      4.89578      -7.86259     -20.17998
                        -----------------------------------------
Total Dipole Moment    :      0.12709      -0.31638      -0.47359
                        -----------------------------------------
Magnitude (a.u.)       :      0.58355
Magnitude (Debye)      :      1.48328

Rotational constants in cm-1:     0.020652     0.006857     0.006286
Rotational constants in MHz :   619.143441   205.556975   188.437422

                             ****ORCA TERMINATED NORMALLY****
TOTAL RUN TIME: 0 days 0 hours 0 minutes 28 seconds 606 msec
