                         Program Version 4.2.1 -  RELEASE  -
|  1> ! wB97X-D3 SP def2-SVP
|  2> %pal
|  3> nprocs 16
|  4> end
|  5>
|  6> * xyz 0 1
|  7> S 	 8.35435 	 -9.11473 	 97.0216
|  8> C 	 9.54538 	 -8.01579 	 97.7827
|  9> C 	 10.3008 	 -7.32589 	 96.8366
| 10> C 	 9.80713 	 -7.62328 	 95.4765
| 11> C 	 8.67788 	 -8.43569 	 95.4013
| 12> H 	 10.1103 	 -7.39548 	 94.5312
| 13> C 	 11.3845 	 -6.3432 	 97.1567
| 14> H 	 12.1058 	 -6.28333 	 96.2937
| 15> H 	 12.0458 	 -6.67622 	 97.9953
| 16> C 	 10.9121 	 -4.85052 	 97.3355
| 17> H 	 11.8033 	 -4.26677 	 97.3317
| 18> H 	 10.3492 	 -4.60346 	 96.4696
| 19> C 	 10.0064 	 -4.57467 	 98.5537
| 20> H 	 10.5183 	 -4.85174 	 99.4105
| 21> H 	 9.83803 	 -3.49287 	 98.4764
| 22> H 	 9.12722 	 -5.2874 	 98.4445
| 23> S 	 9.06674 	 -9.67264 	 92.95
| 24> C 	 7.69501 	 -10.2437 	 92.0399
| 25> C 	 6.60545 	 -9.5849 	 92.5201
| 26> C 	 6.80651 	 -8.79209 	 93.7193
| 27> C 	 8.03509 	 -9.00191 	 94.2433
| 28> H 	 5.63795 	 -9.80858 	 92.0282
| 29> C 	 5.7873 	 -7.97703 	 94.5808
| 30> H 	 5.51849 	 -7.16548 	 93.9626
| 31> H 	 6.19364 	 -7.63437 	 95.5394
| 32> C 	 4.56292 	 -8.77517 	 94.9332
| 33> H 	 4.1445 	 -9.12205 	 94.014
| 34> H 	 3.80339 	 -8.14042 	 95.3504
| 35> C 	 4.83532 	 -9.91444 	 95.9061
| 36> H 	 5.52173 	 -10.5617 	 95.2927
| 37> H 	 3.9651 	 -10.5115 	 96.1028
| 38> H 	 5.23582 	 -9.57632 	 96.8555
| 39> H 	 9.59541 	 -7.85806 	 98.8374
| 40> H 	 7.64449 	 -10.883 	 91.1811
| 41> *
| 42>
| 43>                          ****END OF INPUT****

CARTESIAN COORDINATES (ANGSTROEM)
---------------------------------
  S      8.354350   -9.114730   97.021600
  C      9.545380   -8.015790   97.782700
  C     10.300800   -7.325890   96.836600
  C      9.807130   -7.623280   95.476500
  C      8.677880   -8.435690   95.401300
  H     10.110300   -7.395480   94.531200
  C     11.384500   -6.343200   97.156700
  H     12.105800   -6.283330   96.293700
  H     12.045800   -6.676220   97.995300
  C     10.912100   -4.850520   97.335500
  H     11.803300   -4.266770   97.331700
  H     10.349200   -4.603460   96.469600
  C     10.006400   -4.574670   98.553700
  H     10.518300   -4.851740   99.410500
  H      9.838030   -3.492870   98.476400
  H      9.127220   -5.287400   98.444500
  S      9.066740   -9.672640   92.950000
  C      7.695010  -10.243700   92.039900
  C      6.605450   -9.584900   92.520100
  C      6.806510   -8.792090   93.719300
  C      8.035090   -9.001910   94.243300
  H      5.637950   -9.808580   92.028200
  C      5.787300   -7.977030   94.580800
  H      5.518490   -7.165480   93.962600
  H      6.193640   -7.634370   95.539400
  C      4.562920   -8.775170   94.933200
  H      4.144500   -9.122050   94.014000
  H      3.803390   -8.140420   95.350400
  C      4.835320   -9.914440   95.906100
  H      5.521730  -10.561700   95.292700
  H      3.965100  -10.511500   96.102800
  H      5.235820   -9.576320   96.855500
  H      9.595410   -7.858060   98.837400
  H      7.644490  -10.883000   91.181100

 Total Charge           Charge          ....    0
 Multiplicity           Mult            ....    1
 Number of Electrons    NEL             ....  134
 Basis Dimension        Dim             ....  322

ORBITAL ENERGIES
----------------

  NO   OCC          E(Eh)            E(eV)
   0   2.0000     -88.964779     -2420.8547
   1   2.0000     -88.959817     -2420.7197
   2   2.0000     -10.331744      -281.1411
   3   2.0000     -10.324360      -280.9401
   4   2.0000     -10.319437      -280.8062
   5   2.0000     -10.319062      -280.7960
   6   2.0000     -10.313176      -280.6358
   7   2.0000     -10.308562      -280.5102
   8   2.0000     -10.300633      -280.2945
   9   2.0000     -10.299604      -280.2665
  10   2.0000     -10.295954      -280.1672
  11   2.0000     -10.288168      -279.9553
  12   2.0000     -10.282313      -279.7960
  13   2.0000     -10.276787      -279.6456
  14   2.0000     -10.273889      -279.5667
  15   2.0000     -10.270409      -279.4721
  16   2.0000      -8.078056      -219.8151
  17   2.0000      -8.074683      -219.7233
  18   2.0000      -6.036747      -164.2682
  19   2.0000      -6.033365      -164.1762
  20   2.0000      -6.032775      -164.1601
  21   2.0000      -6.029392      -164.0681
  22   2.0000      -6.028688      -164.0489
  23   2.0000      -6.024991      -163.9483
  24   2.0000      -1.007634       -27.4191
  25   2.0000      -0.978283       -26.6204
  26   2.0000      -0.914108       -24.8741
  27   2.0000      -0.908208       -24.7136
  28   2.0000      -0.873839       -23.7784
  29   2.0000      -0.843945       -22.9649
  30   2.0000      -0.841186       -22.8898
  31   2.0000      -0.815976       -22.2038
  32   2.0000      -0.784499       -21.3473
  33   2.0000      -0.776210       -21.1217
  34   2.0000      -0.711438       -19.3592
  35   2.0000      -0.696242       -18.9457
  36   2.0000      -0.692745       -18.8505
  37   2.0000      -0.659909       -17.9570
  38   2.0000      -0.642873       -17.4935
  39   2.0000      -0.610570       -16.6145
  40   2.0000      -0.600110       -16.3298
  41   2.0000      -0.575976       -15.6731
  42   2.0000      -0.561956       -15.2916
  43   2.0000      -0.548826       -14.9343
  44   2.0000      -0.542763       -14.7693
  45   2.0000      -0.537928       -14.6378
  46   2.0000      -0.529207       -14.4004
  47   2.0000      -0.521200       -14.1826
  48   2.0000      -0.503650       -13.7050
  49   2.0000      -0.493803       -13.4371
  50   2.0000      -0.482671       -13.1341
  51   2.0000      -0.477110       -12.9828
  52   2.0000      -0.473499       -12.8846
  53   2.0000      -0.469402       -12.7731
  54   2.0000      -0.457008       -12.4358
  55   2.0000      -0.446016       -12.1367
  56   2.0000      -0.441217       -12.0061
  57   2.0000      -0.431832       -11.7507
  58   2.0000      -0.428394       -11.6572
  59   2.0000      -0.424903       -11.5622
  60   2.0000      -0.422742       -11.5034
  61   2.0000      -0.411565       -11.1992
  62   2.0000      -0.399673       -10.8757
  63   2.0000      -0.342629        -9.3234
  64   2.0000      -0.327749        -8.9185
  65   2.0000      -0.325325        -8.8525
  66   2.0000      -0.303364        -8.2549
  67   0.0000       0.029387         0.7997
  68   0.0000       0.055621         1.5135
  69   0.0000       0.096841         2.6352
  70   0.0000       0.109808         2.9880
  71   0.0000       0.136908         3.7255

MULLIKEN ATOMIC CHARGES
-----------------------
   0 S :    0.092966
   1 C :   -0.116481
   2 C :   -0.052308
   3 C :    0.065401
   4 C :   -0.180866
   5 H :   -0.029804
   6 C :    0.005155
   7 H :    0.033310
   8 H :    0.040265
   9 C :   -0.062916
  10 H :    0.025137
  11 H :    0.020423
  12 C :   -0.038145
  13 H :    0.013273
  14 H :    0.049398
  15 H :    0.050241
  16 S :    0.082279
  17 C :   -0.064032
  18 C :   -0.058815
  19 C :   -0.042395
  20 C :   -0.150429
  21 H :    0.031395
  22 C :    0.111423
  23 H :    0.022335
  24 H :    0.036284
  25 C :   -0.066340
  26 H :    0.009308
  27 H :    0.017535
  28 C :   -0.048235
  29 H :    0.039036
  30 H :    0.027800
  31 H :    0.036698
  32 H :    0.047808
  33 H :    0.053295
Sum of atomic charges:   -0.0000000

LOEWDIN ATOMIC CHARGES
----------------------
   0 S :    0.378851
   1 C :   -0.179405
   2 C :   -0.056440
   3 C :   -0.049924
   4 C :   -0.175889
   5 H :    0.010886
   6 C :   -0.043875
   7 H :    0.038525
   8 H :    0.033781
   9 C :   -0.031528
  10 H :    0.018284
  11 H :    0.019253
  12 C :   -0.063161
  13 H :    0.009892
  14 H :    0.034131
  15 H :    0.036645
  16 S :    0.378641
  17 C :   -0.173456
  18 C :   -0.081723
  19 C :   -0.045036
  20 C :   -0.191532
  21 H :    0.033858
  22 C :   -0.016558
  23 H :    0.028286
  24 H :    0.030536
  25 C :   -0.042395
  26 H :    0.014723
  27 H :    0.018335
  28 C :   -0.065539
  29 H :    0.032216
  30 H :    0.022476
  31 H :    0.019990
  32 H :    0.023072
  33 H :    0.034080

  Mayer bond orders larger than 0.100000
B(  0-S ,  1-C ) :   1.1262 B(  0-S ,  4-C ) :   1.1257 B(  1-C ,  2-C ) :   1.6206
B(  1-C , 32-H ) :   0.9722 B(  2-C ,  3-C ) :   1.1749 B(  2-C ,  6-C ) :   1.0411
B(  3-C ,  4-C ) :   1.6285 B(  3-C ,  5-H ) :   1.0064 B(  4-C , 20-C ) :   1.0439
B(  6-C ,  7-H ) :   0.9390 B(  6-C ,  8-H ) :   0.9455 B(  6-C ,  9-C ) :   1.0641
B(  9-C , 10-H ) :   0.9566 B(  9-C , 11-H ) :   0.9569 B(  9-C , 12-C ) :   1.0749
B( 12-C , 13-H ) :   0.9778 B( 12-C , 14-H ) :   0.9735 B( 12-C , 15-H ) :   0.9704
B( 16-S , 17-C ) :   1.1390 B( 16-S , 20-C ) :   1.1055 B( 17-C , 18-C ) :   1.6494
B( 17-C , 33-H ) :   0.9714 B( 18-C , 19-C ) :   1.1897 B( 18-C , 21-H ) :   0.9839
B( 19-C , 20-C ) :   1.6175 B( 19-C , 22-C ) :   1.0301 B( 22-C , 23-H ) :   0.9231
B( 22-C , 24-H ) :   0.9384 B( 22-C , 25-C ) :   1.0820 B( 25-C , 26-H ) :   0.9542
B( 25-C , 27-H ) :   0.9504 B( 25-C , 28-C ) :   1.0748 B( 28-C , 29-H ) :   0.9744
B( 28-C , 30-H ) :   0.9719 B( 28-C , 31-H ) :   0.9716

Dispersion correction           -0.015354258
FINAL SINGLE POINT ENERGY     -1339.852743736635

DIPOLE MOMENT
-------------
                                X             Y             Z
Electronic contribution:      6.07182     -13.82927     -10.69725
Nuclear contribution   :     -6.22624      14.25002      10.59643
                        -----------------------------------------
Total Dipole Moment    :     -0.15442       0.42075      -0.10082
                        -----------------------------------------
Magnitude (a.u.)       :      0.45939
Magnitude (Debye)      :      1.16768

Rotational constants in cm-1:     0.021933     0.008319     0.007074
Rotational constants in MHz :   657.548471   249.385383   212.082746

                             ****ORCA TERMINATED NORMALLY****
TOTAL RUN TIME: 0 days 0 hours 0 minutes 32 seconds 245 msec
