                         Program Version 4.2.1 -  RELEASE  -
|  1> ! wB97X-D3 SP def2-SVP
|  2> %pal
|  3> nprocs 16
|  4> end
|  5>
|  6> * xyz 0 1
|  7> S 	 46.0999 	 14.6926 	 76.4224
|  8> C 	 45.8231 	 13.644 	 77.8135
|  9> C 	 45.8681 	 14.4439 	 78.986
| 10> C 	 46.1517 	 15.7753 	 78.7144
| 11> C 	 46.2757 	 16.1651 	 77.3868
| 12> H 	 46.4183 	 16.5708 	 79.4198
| 13> C 	 45.8844 	 13.9115 	 80.3656
| 14> H 	 46.2335 	 14.6099 	 81.1106
| 15> H 	 46.7161 	 13.1511 	 80.5353
| 16> C 	 44.4723 	 13.3022 	 80.805
| 17> H 	 43.7434 	 14.1149 	 80.5403
| 18> H 	 44.107 	 12.4438 	 80.2081
| 19> C 	 44.4975 	 12.8567 	 82.2371
| 20> H 	 44.8703 	 13.612 	 82.9029
| 21> H 	 43.4718 	 12.6609 	 82.6516
| 22> H 	 45.015 	 11.9246 	 82.3718
| 23> S 	 48.1657 	 17.2311 	 75.893
| 24> C 	 48.3419 	 18.9349 	 75.6325
| 25> C 	 47.6364 	 19.6187 	 76.5733
| 26> C 	 46.7465 	 18.767 	 77.2932
| 27> C 	 46.8691 	 17.4203 	 76.9569
| 28> H 	 47.7889 	 20.6973 	 76.7084
| 29> C 	 45.7659 	 19.242 	 78.336
| 30> H 	 44.9595 	 18.557 	 78.3436
| 31> H 	 45.3022 	 20.1298 	 77.8618
| 32> C 	 46.2622 	 19.4374 	 79.8027
| 33> H 	 46.3837 	 18.4677 	 80.3139
| 34> H 	 45.4159 	 19.9842 	 80.3645
| 35> C 	 47.5389 	 20.2405 	 79.8231
| 36> H 	 47.3264 	 21.2351 	 79.3955
| 37> H 	 48.3173 	 19.786 	 79.2707
| 38> H 	 47.966 	 20.3418 	 80.8268
| 39> H 	 45.702 	 12.5793 	 77.7982
| 40> H 	 49.0336 	 19.3729 	 74.986
| 41> *
| 42>
| 43>                          ****END OF INPUT****

CARTESIAN COORDINATES (ANGSTROEM)
---------------------------------
  S     46.099900   14.692600   76.422400
  C     45.823100   13.644000   77.813500
  C     45.868100   14.443900   78.986000
  C     46.151700   15.775300   78.714400
  C     46.275700   16.165100   77.386800
  H     46.418300   16.570800   79.419800
  C     45.884400   13.911500   80.365600
  H     46.233500   14.609900   81.110600
  H     46.716100   13.151100   80.535300
  C     44.472300   13.302200   80.805000
  H     43.743400   14.114900   80.540300
  H     44.107000   12.443800   80.208100
  C     44.497500   12.856700   82.237100
  H     44.870300   13.612000   82.902900
  H     43.471800   12.660900   82.651600
  H     45.015000   11.924600   82.371800
  S     48.165700   17.231100   75.893000
  C     48.341900   18.934900   75.632500
  C     47.636400   19.618700   76.573300
  C     46.746500   18.767000   77.293200
  C     46.869100   17.420300   76.956900
  H     47.788900   20.697300   76.708400
  C     45.765900   19.242000   78.336000
  H     44.959500   18.557000   78.343600
  H     45.302200   20.129800   77.861800
  C     46.262200   19.437400   79.802700
  H     46.383700   18.467700   80.313900
  H     45.415900   19.984200   80.364500
  C     47.538900   20.240500   79.823100
  H     47.326400   21.235100   79.395500
  H     48.317300   19.786000   79.270700
  H     47.966000   20.341800   80.826800
  H     45.702000   12.579300   77.798200
  H     49.033600   19.372900   74.986000

 Total Charge           Charge          ....    0
 Multiplicity           Mult            ....    1
 Number of Electrons    NEL             ....  134
 Basis Dimension        Dim             ....  322

ORBITAL ENERGIES
----------------

  NO   OCC          E(Eh)            E(eV)
   0   2.0000     -88.971811     -2421.0461
   1   2.0000     -88.960056     -2420.7262
   2   2.0000     -10.331479      -281.1338
   3   2.0000     -10.323319      -280.9118
   4   2.0000     -10.322685      -280.8945
   5   2.0000     -10.308000      -280.4949
   6   2.0000     -10.302292      -280.3396
   7   2.0000     -10.300214      -280.2831
   8   2.0000     -10.296703      -280.1875
   9   2.0000     -10.296679      -280.1869
  10   2.0000     -10.294328      -280.1229
  11   2.0000     -10.293289      -280.0946
  12   2.0000     -10.292240      -280.0661
  13   2.0000     -10.286111      -279.8993
  14   2.0000     -10.277506      -279.6652
  15   2.0000     -10.273501      -279.5562
  16   2.0000      -8.085338      -220.0132
  17   2.0000      -8.076641      -219.7766
  18   2.0000      -6.043884      -164.4624
  19   2.0000      -6.039769      -164.3505
  20   2.0000      -6.036337      -164.2571
  21   2.0000      -6.034956      -164.2195
  22   2.0000      -6.030891      -164.1089
  23   2.0000      -6.027453      -164.0153
  24   2.0000      -1.015446       -27.6317
  25   2.0000      -0.988640       -26.9023
  26   2.0000      -0.910226       -24.7685
  27   2.0000      -0.908287       -24.7158
  28   2.0000      -0.875146       -23.8139
  29   2.0000      -0.853751       -23.2317
  30   2.0000      -0.846874       -23.0446
  31   2.0000      -0.819464       -22.2987
  32   2.0000      -0.780590       -21.2409
  33   2.0000      -0.770549       -20.9677
  34   2.0000      -0.710716       -19.3396
  35   2.0000      -0.701801       -19.0970
  36   2.0000      -0.693159       -18.8618
  37   2.0000      -0.666829       -18.1453
  38   2.0000      -0.645438       -17.5633
  39   2.0000      -0.616526       -16.7765
  40   2.0000      -0.590550       -16.0697
  41   2.0000      -0.575225       -15.6527
  42   2.0000      -0.561505       -15.2793
  43   2.0000      -0.557594       -15.1729
  44   2.0000      -0.543880       -14.7997
  45   2.0000      -0.530462       -14.4346
  46   2.0000      -0.515745       -14.0341
  47   2.0000      -0.514559       -14.0019
  48   2.0000      -0.509633       -13.8678
  49   2.0000      -0.498459       -13.5638
  50   2.0000      -0.490453       -13.3459
  51   2.0000      -0.489078       -13.3085
  52   2.0000      -0.471696       -12.8355
  53   2.0000      -0.465357       -12.6630
  54   2.0000      -0.457270       -12.4429
  55   2.0000      -0.451138       -12.2761
  56   2.0000      -0.439822       -11.9682
  57   2.0000      -0.436761       -11.8849
  58   2.0000      -0.432461       -11.7679
  59   2.0000      -0.424730       -11.5575
  60   2.0000      -0.421195       -11.4613
  61   2.0000      -0.411621       -11.2008
  62   2.0000      -0.407270       -11.0824
  63   2.0000      -0.353330        -9.6146
  64   2.0000      -0.330953        -9.0057
  65   2.0000      -0.326363        -8.8808
  66   2.0000      -0.289023        -7.8647
  67   0.0000       0.020277         0.5518
  68   0.0000       0.074519         2.0278
  69   0.0000       0.110400         3.0041
  70   0.0000       0.130062         3.5392
  71   0.0000       0.133421         3.6306

MULLIKEN ATOMIC CHARGES
-----------------------
   0 S :    0.116309
   1 C :   -0.111199
   2 C :   -0.032082
   3 C :    0.017028
   4 C :   -0.134951
   5 H :   -0.002510
   6 C :    0.019922
   7 H :    0.013035
   8 H :    0.038229
   9 C :   -0.102454
  10 H :    0.040953
  11 H :    0.035400
  12 C :   -0.032510
  13 H :    0.024238
  14 H :    0.032252
  15 H :    0.032564
  16 S :    0.102007
  17 C :   -0.066427
  18 C :   -0.043369
  19 C :   -0.080721
  20 C :   -0.141272
  21 H :    0.027307
  22 C :    0.064590
  23 H :    0.012647
  24 H :    0.028128
  25 C :   -0.080694
  26 H :    0.037458
  27 H :    0.044684
  28 C :   -0.045109
  29 H :    0.031336
  30 H :    0.039072
  31 H :    0.031509
  32 H :    0.051422
  33 H :    0.033211
Sum of atomic charges:   -0.0000000

LOEWDIN ATOMIC CHARGES
----------------------
   0 S :    0.409659
   1 C :   -0.183409
   2 C :   -0.070969
   3 C :   -0.061957
   4 C :   -0.202290
   5 H :    0.031770
   6 C :   -0.040077
   7 H :    0.026759
   8 H :    0.037209
   9 C :   -0.044162
  10 H :    0.029744
  11 H :    0.026040
  12 C :   -0.070642
  13 H :    0.020837
  14 H :    0.032609
  15 H :    0.025094
  16 S :    0.437995
  17 C :   -0.182317
  18 C :   -0.071765
  19 C :   -0.068445
  20 C :   -0.209695
  21 H :    0.036820
  22 C :   -0.038607
  23 H :    0.024953
  24 H :    0.034538
  25 C :   -0.039956
  26 H :    0.019996
  27 H :    0.035416
  28 C :   -0.067092
  29 H :    0.027281
  30 H :    0.021382
  31 H :    0.026958
  32 H :    0.028917
  33 H :    0.017404

  Mayer bond orders larger than 0.100000
B(  0-S ,  1-C ) :   1.1634 B(  0-S ,  4-C ) :   1.1558 B(  1-C ,  2-C ) :   1.5217
B(  1-C ,  4-C ) :   0.1118 B(  1-C , 32-H ) :   0.9758 B(  2-C ,  3-C ) :   1.3056
B(  2-C ,  6-C ) :   1.0350 B(  3-C ,  4-C ) :   1.5171 B(  3-C ,  5-H ) :   0.9859
B(  4-C , 20-C ) :   1.0512 B(  6-C ,  7-H ) :   0.9490 B(  6-C ,  8-H ) :   0.9407
B(  6-C ,  9-C ) :   1.0321 B(  9-C , 10-H ) :   0.9593 B(  9-C , 11-H ) :   0.9589
B(  9-C , 12-C ) :   1.0864 B( 12-C , 13-H ) :   0.9735 B( 12-C , 14-H ) :   0.9705
B( 12-C , 15-H ) :   0.9723 B( 16-S , 17-C ) :   1.1621 B( 16-S , 20-C ) :   1.1686
B( 17-C , 18-C ) :   1.5873 B( 17-C , 33-H ) :   0.9774 B( 18-C , 19-C ) :   1.2521
B( 18-C , 21-H ) :   0.9930 B( 19-C , 20-C ) :   1.5633 B( 19-C , 22-C ) :   1.0433
B( 22-C , 23-H ) :   0.9299 B( 22-C , 24-H ) :   0.9369 B( 22-C , 25-C ) :   1.0594
B( 25-C , 26-H ) :   0.9495 B( 25-C , 27-H ) :   0.9513 B( 25-C , 28-C ) :   1.0861
B( 28-C , 29-H ) :   0.9733 B( 28-C , 30-H ) :   0.9682 B( 28-C , 31-H ) :   0.9706

Dispersion correction           -0.014523589
FINAL SINGLE POINT ENERGY     -1339.871158232394

DIPOLE MOMENT
-------------
                                X             Y             Z
Electronic contribution:      7.68413      -2.84001     -27.84558
Nuclear contribution   :     -7.61270       2.94210      28.51602
                        -----------------------------------------
Total Dipole Moment    :      0.07143       0.10209       0.67044
                        -----------------------------------------
Magnitude (a.u.)       :      0.68192
Magnitude (Debye)      :      1.73329

Rotational constants in cm-1:     0.020420     0.008421     0.006337
Rotational constants in MHz :   612.183233   252.464441   189.975944

                             ****ORCA TERMINATED NORMALLY****
TOTAL RUN TIME: 0 days 0 hours 0 minutes 30 seconds 389 msec
