                         Program Version 4.2.1 -  RELEASE  -
|  1> ! wB97X-D3 SP def2-SVP
|  2> %pal
|  3> nprocs 16
|  4> end
|  5>
|  6> * xyz 0 1
|  7> S 	 -24.4314 	 -1.80197 	 87.7277
|  8> C 	 -25.6271 	 -0.673762 	 88.1664
|  9> C 	 -26.1895 	 -0.171964 	 87.0412
| 10> C 	 -25.6936 	 -0.791014 	 85.8366
| 11> C 	 -24.6444 	 -1.6078 	 86.0163
| 12> H 	 -26.0524 	 -0.568501 	 84.8293
| 13> C 	 -27.2907 	 0.954633 	 87.0248
| 14> H 	 -27.1256 	 1.52492 	 86.141
| 15> H 	 -27.1985 	 1.67747 	 87.8644
| 16> C 	 -28.7213 	 0.396035 	 87.1882
| 17> H 	 -28.7494 	 -0.42169 	 87.9813
| 18> H 	 -29.3494 	 1.19268 	 87.5365
| 19> C 	 -29.436 	 -0.108411 	 85.9181
| 20> H 	 -29.0403 	 -0.940616 	 85.3735
| 21> H 	 -30.4752 	 -0.323215 	 86.1437
| 22> H 	 -29.5451 	 0.678329 	 85.1422
| 23> S 	 -22.1236 	 -1.85624 	 85.0926
| 24> C 	 -21.7616 	 -2.70769 	 83.6074
| 25> C 	 -22.9183 	 -3.29292 	 83.1627
| 26> C 	 -24.1099 	 -3.14432 	 84.0149
| 27> C 	 -23.8052 	 -2.29318 	 85.0681
| 28> H 	 -23.0344 	 -3.85943 	 82.243
| 29> C 	 -25.5198 	 -3.66749 	 83.6578
| 30> H 	 -25.9646 	 -3.82278 	 84.5593
| 31> H 	 -25.4465 	 -4.68725 	 83.2889
| 32> C 	 -26.3817 	 -2.82025 	 82.7442
| 33> H 	 -25.92 	 -2.58542 	 81.7493
| 34> H 	 -26.476 	 -1.84869 	 83.2054
| 35> C 	 -27.6661 	 -3.57547 	 82.4829
| 36> H 	 -28.307 	 -3.70323 	 83.3838
| 37> H 	 -27.4122 	 -4.52687 	 82.0681
| 38> H 	 -28.3293 	 -3.13466 	 81.7536
| 39> H 	 -25.921 	 -0.216879 	 89.1519
| 40> H 	 -20.8555 	 -2.81136 	 83.0542
| 41> *
| 42>
| 43>                          ****END OF INPUT****

CARTESIAN COORDINATES (ANGSTROEM)
---------------------------------
  S    -24.431400   -1.801970   87.727700
  C    -25.627100   -0.673762   88.166400
  C    -26.189500   -0.171964   87.041200
  C    -25.693600   -0.791014   85.836600
  C    -24.644400   -1.607800   86.016300
  H    -26.052400   -0.568501   84.829300
  C    -27.290700    0.954633   87.024800
  H    -27.125600    1.524920   86.141000
  H    -27.198500    1.677470   87.864400
  C    -28.721300    0.396035   87.188200
  H    -28.749400   -0.421690   87.981300
  H    -29.349400    1.192680   87.536500
  C    -29.436000   -0.108411   85.918100
  H    -29.040300   -0.940616   85.373500
  H    -30.475200   -0.323215   86.143700
  H    -29.545100    0.678329   85.142200
  S    -22.123600   -1.856240   85.092600
  C    -21.761600   -2.707690   83.607400
  C    -22.918300   -3.292920   83.162700
  C    -24.109900   -3.144320   84.014900
  C    -23.805200   -2.293180   85.068100
  H    -23.034400   -3.859430   82.243000
  C    -25.519800   -3.667490   83.657800
  H    -25.964600   -3.822780   84.559300
  H    -25.446500   -4.687250   83.288900
  C    -26.381700   -2.820250   82.744200
  H    -25.920000   -2.585420   81.749300
  H    -26.476000   -1.848690   83.205400
  C    -27.666100   -3.575470   82.482900
  H    -28.307000   -3.703230   83.383800
  H    -27.412200   -4.526870   82.068100
  H    -28.329300   -3.134660   81.753600
  H    -25.921000   -0.216879   89.151900
  H    -20.855500   -2.811360   83.054200

 Total Charge           Charge          ....    0
 Multiplicity           Mult            ....    1
 Number of Electrons    NEL             ....  134
 Basis Dimension        Dim             ....  322

ORBITAL ENERGIES
----------------

  NO   OCC          E(Eh)            E(eV)
   0   2.0000     -88.964980     -2420.8602
   1   2.0000     -88.960943     -2420.7503
   2   2.0000     -10.325995      -280.9846
   3   2.0000     -10.323718      -280.9227
   4   2.0000     -10.317108      -280.7428
   5   2.0000     -10.311579      -280.5923
   6   2.0000     -10.306896      -280.4649
   7   2.0000     -10.298668      -280.2410
   8   2.0000     -10.296567      -280.1838
   9   2.0000     -10.295142      -280.1450
  10   2.0000     -10.292785      -280.0809
  11   2.0000     -10.292293      -280.0675
  12   2.0000     -10.289461      -279.9905
  13   2.0000     -10.286239      -279.9028
  14   2.0000     -10.278093      -279.6811
  15   2.0000     -10.276285      -279.6319
  16   2.0000      -8.079915      -219.8657
  17   2.0000      -8.077038      -219.7874
  18   2.0000      -6.038587      -164.3183
  19   2.0000      -6.035645      -164.2382
  20   2.0000      -6.034285      -164.2012
  21   2.0000      -6.031218      -164.1178
  22   2.0000      -6.030565      -164.1000
  23   2.0000      -6.027699      -164.0220
  24   2.0000      -1.015524       -27.6338
  25   2.0000      -0.988349       -26.8943
  26   2.0000      -0.916315       -24.9342
  27   2.0000      -0.905089       -24.6287
  28   2.0000      -0.875364       -23.8199
  29   2.0000      -0.849585       -23.1184
  30   2.0000      -0.841958       -22.9108
  31   2.0000      -0.820321       -22.3221
  32   2.0000      -0.784904       -21.3583
  33   2.0000      -0.775789       -21.1103
  34   2.0000      -0.710037       -19.3211
  35   2.0000      -0.701718       -19.0947
  36   2.0000      -0.698960       -19.0197
  37   2.0000      -0.663241       -18.0477
  38   2.0000      -0.640381       -17.4257
  39   2.0000      -0.617473       -16.8023
  40   2.0000      -0.598284       -16.2801
  41   2.0000      -0.573102       -15.5949
  42   2.0000      -0.569385       -15.4938
  43   2.0000      -0.543980       -14.8024
  44   2.0000      -0.534415       -14.5422
  45   2.0000      -0.527469       -14.3531
  46   2.0000      -0.521270       -14.1845
  47   2.0000      -0.517446       -14.0804
  48   2.0000      -0.512030       -13.9330
  49   2.0000      -0.500552       -13.6207
  50   2.0000      -0.486911       -13.2495
  51   2.0000      -0.481825       -13.1111
  52   2.0000      -0.478957       -13.0331
  53   2.0000      -0.463482       -12.6120
  54   2.0000      -0.459863       -12.5135
  55   2.0000      -0.451860       -12.2957
  56   2.0000      -0.441937       -12.0257
  57   2.0000      -0.435579       -11.8527
  58   2.0000      -0.432241       -11.7619
  59   2.0000      -0.425041       -11.5660
  60   2.0000      -0.420851       -11.4519
  61   2.0000      -0.417512       -11.3611
  62   2.0000      -0.408923       -11.1274
  63   2.0000      -0.348131        -9.4731
  64   2.0000      -0.328899        -8.9498
  65   2.0000      -0.326392        -8.8816
  66   2.0000      -0.304827        -8.2948
  67   0.0000       0.038490         1.0474
  68   0.0000       0.071671         1.9503
  69   0.0000       0.119436         3.2500
  70   0.0000       0.127630         3.4730
  71   0.0000       0.129872         3.5340

MULLIKEN ATOMIC CHARGES
-----------------------
   0 S :    0.112487
   1 C :   -0.110433
   2 C :   -0.126457
   3 C :    0.031521
   4 C :   -0.143822
   5 H :    0.010347
   6 C :    0.074075
   7 H :    0.019828
   8 H :    0.027614
   9 C :   -0.068355
  10 H :    0.041006
  11 H :    0.025598
  12 C :   -0.058118
  13 H :    0.031164
  14 H :    0.027369
  15 H :    0.019686
  16 S :    0.115650
  17 C :   -0.062126
  18 C :   -0.044307
  19 C :   -0.047135
  20 C :   -0.172391
  21 H :    0.015104
  22 C :    0.105408
  23 H :    0.000073
  24 H :    0.009773
  25 C :   -0.037857
  26 H :    0.030349
  27 H :    0.008317
  28 C :   -0.036066
  29 H :    0.037176
  30 H :    0.022153
  31 H :    0.027277
  32 H :    0.063484
  33 H :    0.051607
Sum of atomic charges:    0.0000000

LOEWDIN ATOMIC CHARGES
----------------------
   0 S :    0.425296
   1 C :   -0.220142
   2 C :   -0.069441
   3 C :   -0.066097
   4 C :   -0.203443
   5 H :    0.028627
   6 C :   -0.027475
   7 H :    0.024283
   8 H :    0.034227
   9 C :   -0.041400
  10 H :    0.032681
  11 H :    0.022163
  12 C :   -0.073144
  13 H :    0.018504
  14 H :    0.026682
  15 H :    0.025054
  16 S :    0.416535
  17 C :   -0.188171
  18 C :   -0.069232
  19 C :   -0.049684
  20 C :   -0.204582
  21 H :    0.027383
  22 C :   -0.024661
  23 H :    0.021024
  24 H :    0.030825
  25 C :   -0.037029
  26 H :    0.029930
  27 H :    0.017540
  28 C :   -0.063551
  29 H :    0.029865
  30 H :    0.022756
  31 H :    0.023986
  32 H :    0.048051
  33 H :    0.032637

  Mayer bond orders larger than 0.100000
B(  0-S ,  1-C ) :   1.1390 B(  0-S ,  4-C ) :   1.1496 B(  1-C ,  2-C ) :   1.6405
B(  1-C , 32-H ) :   0.9568 B(  2-C ,  3-C ) :   1.2360 B(  2-C ,  6-C ) :   1.0152
B(  3-C ,  4-C ) :   1.6020 B(  3-C ,  5-H ) :   0.9930 B(  4-C , 20-C ) :   1.0088
B(  6-C ,  7-H ) :   0.9463 B(  6-C ,  8-H ) :   0.9484 B(  6-C ,  9-C ) :   1.0610
B(  9-C , 10-H ) :   0.9563 B(  9-C , 11-H ) :   0.9560 B(  9-C , 12-C ) :   1.0811
B( 12-C , 13-H ) :   0.9782 B( 12-C , 14-H ) :   0.9728 B( 12-C , 15-H ) :   0.9734
B( 16-S , 17-C ) :   1.1303 B( 16-S , 20-C ) :   1.1541 B( 17-C , 18-C ) :   1.6195
B( 17-C , 33-H ) :   0.9743 B( 18-C , 19-C ) :   1.2329 B( 18-C , 21-H ) :   0.9828
B( 19-C , 20-C ) :   1.6021 B( 19-C , 22-C ) :   1.0450 B( 22-C , 23-H ) :   0.9205
B( 22-C , 24-H ) :   0.9295 B( 22-C , 25-C ) :   1.0634 B( 25-C , 26-H ) :   0.9520
B( 25-C , 27-H ) :   0.9492 B( 25-C , 28-C ) :   1.0811 B( 28-C , 29-H ) :   0.9737
B( 28-C , 30-H ) :   0.9718 B( 28-C , 31-H ) :   0.9724

Dispersion correction           -0.014705695
FINAL SINGLE POINT ENERGY     -1339.878001661114

DIPOLE MOMENT
-------------
                                X             Y             Z
Electronic contribution:     29.64791      -2.11694      11.21138
Nuclear contribution   :    -30.28121       2.25937     -11.65937
                        -----------------------------------------
Total Dipole Moment    :     -0.63330       0.14242      -0.44799
                        -----------------------------------------
Magnitude (a.u.)       :      0.78870
Magnitude (Debye)      :      2.00472

Rotational constants in cm-1:     0.017388     0.009965     0.006930
Rotational constants in MHz :   521.289057   298.747476   207.744044

                             ****ORCA TERMINATED NORMALLY****
TOTAL RUN TIME: 0 days 0 hours 0 minutes 34 seconds 29 msec
