                         Program Version 4.2.1 -  RELEASE  -
|  1> ! wB97X-D3 SP def2-SVP
|  2> %pal
|  3> nprocs 16
|  4> end
|  5>
|  6> * xyz 0 1
|  7> S 	 -65.033 	 45.4635 	 121.31
|  8> C 	 -65.7025 	 44.2773 	 122.417
|  9> C 	 -66.0208 	 44.8179 	 123.68
| 10> C 	 -65.9292 	 46.2212 	 123.57
| 11> C 	 -65.5493 	 46.7569 	 122.354
| 12> H 	 -66.2109 	 46.8806 	 124.384
| 13> C 	 -66.5367 	 44.1173 	 124.922
| 14> H 	 -65.7024 	 44.0157 	 125.607
| 15> H 	 -66.9528 	 43.1911 	 124.643
| 16> C 	 -67.6442 	 44.8814 	 125.732
| 17> H 	 -67.1834 	 45.7842 	 126.197
| 18> H 	 -68.449 	 45.2446 	 125.034
| 19> C 	 -68.1746 	 43.9023 	 126.779
| 20> H 	 -69.0685 	 44.256 	 127.193
| 21> H 	 -68.5464 	 42.9677 	 126.414
| 22> H 	 -67.4292 	 43.6148 	 127.404
| 23> S 	 -66.042 	 48.684 	 120.348
| 24> C 	 -65.5563 	 50.3384 	 120.64
| 25> C 	 -65.2039 	 50.5236 	 121.926
| 26> C 	 -65.0361 	 49.3356 	 122.64
| 27> C 	 -65.4812 	 48.1703 	 121.929
| 28> H 	 -65.1031 	 51.5654 	 122.139
| 29> C 	 -64.4657 	 49.3705 	 124.11
| 30> H 	 -63.7779 	 48.5265 	 124.32
| 31> H 	 -65.2743 	 49.0516 	 124.712
| 32> C 	 -64.0656 	 50.7026 	 124.742
| 33> H 	 -64.949 	 51.4201 	 124.652
| 34> H 	 -63.1854 	 51.1188 	 124.172
| 35> C 	 -63.8671 	 50.6173 	 126.277
| 36> H 	 -64.7094 	 50.2766 	 126.869
| 37> H 	 -63.6694 	 51.6695 	 126.738
| 38> H 	 -62.9511 	 50.0518 	 126.564
| 39> H 	 -65.7198 	 43.2051 	 122.311
| 40> H 	 -65.6104 	 51.2591 	 120.005
| 41> *
| 42>
| 43>                          ****END OF INPUT****

CARTESIAN COORDINATES (ANGSTROEM)
---------------------------------
  S    -65.033000   45.463500  121.310000
  C    -65.702500   44.277300  122.417000
  C    -66.020800   44.817900  123.680000
  C    -65.929200   46.221200  123.570000
  C    -65.549300   46.756900  122.354000
  H    -66.210900   46.880600  124.384000
  C    -66.536700   44.117300  124.922000
  H    -65.702400   44.015700  125.607000
  H    -66.952800   43.191100  124.643000
  C    -67.644200   44.881400  125.732000
  H    -67.183400   45.784200  126.197000
  H    -68.449000   45.244600  125.034000
  C    -68.174600   43.902300  126.779000
  H    -69.068500   44.256000  127.193000
  H    -68.546400   42.967700  126.414000
  H    -67.429200   43.614800  127.404000
  S    -66.042000   48.684000  120.348000
  C    -65.556300   50.338400  120.640000
  C    -65.203900   50.523600  121.926000
  C    -65.036100   49.335600  122.640000
  C    -65.481200   48.170300  121.929000
  H    -65.103100   51.565400  122.139000
  C    -64.465700   49.370500  124.110000
  H    -63.777900   48.526500  124.320000
  H    -65.274300   49.051600  124.712000
  C    -64.065600   50.702600  124.742000
  H    -64.949000   51.420100  124.652000
  H    -63.185400   51.118800  124.172000
  C    -63.867100   50.617300  126.277000
  H    -64.709400   50.276600  126.869000
  H    -63.669400   51.669500  126.738000
  H    -62.951100   50.051800  126.564000
  H    -65.719800   43.205100  122.311000
  H    -65.610400   51.259100  120.005000

 Total Charge           Charge          ....    0
 Multiplicity           Mult            ....    1
 Number of Electrons    NEL             ....  134
 Basis Dimension        Dim             ....  322

ORBITAL ENERGIES
----------------

  NO   OCC          E(Eh)            E(eV)
   0   2.0000     -88.967846     -2420.9382
   1   2.0000     -88.967691     -2420.9340
   2   2.0000     -10.332748      -281.1684
   3   2.0000     -10.329541      -281.0811
   4   2.0000     -10.314020      -280.6588
   5   2.0000     -10.313913      -280.6558
   6   2.0000     -10.310912      -280.5742
   7   2.0000     -10.301184      -280.3095
   8   2.0000     -10.300678      -280.2957
   9   2.0000     -10.297087      -280.1980
  10   2.0000     -10.293252      -280.0936
  11   2.0000     -10.292085      -280.0619
  12   2.0000     -10.291649      -280.0500
  13   2.0000     -10.289616      -279.9947
  14   2.0000     -10.283992      -279.8416
  15   2.0000     -10.267253      -279.3862
  16   2.0000      -8.082316      -219.9310
  17   2.0000      -8.081910      -219.9200
  18   2.0000      -6.040858      -164.3801
  19   2.0000      -6.040432      -164.3685
  20   2.0000      -6.036910      -164.2727
  21   2.0000      -6.036417      -164.2592
  22   2.0000      -6.033007      -164.1665
  23   2.0000      -6.032754      -164.1596
  24   2.0000      -1.004679       -27.3387
  25   2.0000      -0.985640       -26.8206
  26   2.0000      -0.914494       -24.8847
  27   2.0000      -0.903558       -24.5871
  28   2.0000      -0.870724       -23.6936
  29   2.0000      -0.849737       -23.1225
  30   2.0000      -0.844655       -22.9842
  31   2.0000      -0.814824       -22.1725
  32   2.0000      -0.786161       -21.3925
  33   2.0000      -0.771025       -20.9806
  34   2.0000      -0.714142       -19.4328
  35   2.0000      -0.697139       -18.9701
  36   2.0000      -0.694758       -18.9053
  37   2.0000      -0.645081       -17.5535
  38   2.0000      -0.637414       -17.3449
  39   2.0000      -0.622856       -16.9488
  40   2.0000      -0.592611       -16.1258
  41   2.0000      -0.581105       -15.8127
  42   2.0000      -0.569495       -15.4967
  43   2.0000      -0.564432       -15.3590
  44   2.0000      -0.536366       -14.5953
  45   2.0000      -0.516975       -14.0676
  46   2.0000      -0.509071       -13.8525
  47   2.0000      -0.504358       -13.7243
  48   2.0000      -0.498736       -13.5713
  49   2.0000      -0.497993       -13.5511
  50   2.0000      -0.493434       -13.4270
  51   2.0000      -0.481242       -13.0953
  52   2.0000      -0.473305       -12.8793
  53   2.0000      -0.466926       -12.7057
  54   2.0000      -0.461772       -12.5655
  55   2.0000      -0.450660       -12.2631
  56   2.0000      -0.444119       -12.0851
  57   2.0000      -0.437080       -11.8935
  58   2.0000      -0.432189       -11.7605
  59   2.0000      -0.425861       -11.5883
  60   2.0000      -0.420533       -11.4433
  61   2.0000      -0.417615       -11.3639
  62   2.0000      -0.415089       -11.2951
  63   2.0000      -0.347192        -9.4476
  64   2.0000      -0.330432        -8.9915
  65   2.0000      -0.329728        -8.9724
  66   2.0000      -0.285240        -7.7618
  67   0.0000       0.023355         0.6355
  68   0.0000       0.077578         2.1110
  69   0.0000       0.112443         3.0597
  70   0.0000       0.121301         3.3008
  71   0.0000       0.137576         3.7436

MULLIKEN ATOMIC CHARGES
-----------------------
   0 S :    0.124763
   1 C :   -0.117672
   2 C :   -0.088204
   3 C :    0.003904
   4 C :   -0.143869
   5 H :   -0.001780
   6 C :    0.086463
   7 H :    0.042167
   8 H :    0.010563
   9 C :   -0.143381
  10 H :    0.044751
  11 H :    0.048171
  12 C :    0.043285
  13 H :    0.019346
  14 H :    0.006807
  15 H :    0.008758
  16 S :    0.117769
  17 C :   -0.101571
  18 C :   -0.066772
  19 C :    0.002834
  20 C :   -0.151460
  21 H :    0.013285
  22 C :    0.059620
  23 H :    0.033997
  24 H :    0.010330
  25 C :   -0.091791
  26 H :    0.042701
  27 H :    0.050937
  28 C :   -0.087280
  29 H :    0.040001
  30 H :    0.040903
  31 H :    0.041414
  32 H :    0.036294
  33 H :    0.064716
Sum of atomic charges:   -0.0000000

LOEWDIN ATOMIC CHARGES
----------------------
   0 S :    0.413976
   1 C :   -0.197704
   2 C :   -0.061902
   3 C :   -0.065147
   4 C :   -0.199502
   5 H :    0.025487
   6 C :   -0.024338
   7 H :    0.036144
   8 H :    0.023189
   9 C :   -0.037854
  10 H :    0.025271
  11 H :    0.030283
  12 C :   -0.054547
  13 H :    0.023738
  14 H :    0.025752
  15 H :    0.014547
  16 S :    0.411632
  17 C :   -0.194465
  18 C :   -0.085111
  19 C :   -0.045320
  20 C :   -0.208221
  21 H :    0.033443
  22 C :   -0.042572
  23 H :    0.035582
  24 H :    0.023839
  25 C :   -0.049378
  26 H :    0.033151
  27 H :    0.030741
  28 C :   -0.076658
  29 H :    0.024033
  30 H :    0.037089
  31 H :    0.026968
  32 H :    0.023482
  33 H :    0.044373

  Mayer bond orders larger than 0.100000
B(  0-S ,  1-C ) :   1.1500 B(  0-S ,  4-C ) :   1.1497 B(  1-C ,  2-C ) :   1.5911
B(  1-C ,  4-C ) :   0.1008 B(  1-C , 32-H ) :   0.9649 B(  2-C ,  3-C ) :   1.2720
B(  2-C ,  6-C ) :   1.0165 B(  3-C ,  4-C ) :   1.5571 B(  3-C ,  5-H ) :   0.9916
B(  4-C , 20-C ) :   1.0636 B(  6-C ,  7-H ) :   0.9263 B(  6-C ,  8-H ) :   0.9482
B(  6-C ,  9-C ) :   1.0706 B(  9-C , 10-H ) :   0.9464 B(  9-C , 11-H ) :   0.9627
B(  9-C , 12-C ) :   1.0848 B( 12-C , 13-H ) :   0.9683 B( 12-C , 14-H ) :   0.9677
B( 12-C , 15-H ) :   0.9700 B( 16-S , 17-C ) :   1.1556 B( 16-S , 20-C ) :   1.1487
B( 17-C , 18-C ) :   1.6228 B( 17-C , 20-C ) :   0.1036 B( 17-C , 33-H ) :   0.9523
B( 18-C , 19-C ) :   1.2571 B( 18-C , 21-H ) :   0.9909 B( 19-C , 20-C ) :   1.5462
B( 19-C , 22-C ) :   1.0131 B( 22-C , 23-H ) :   0.9343 B( 22-C , 24-H ) :   0.9256
B( 22-C , 25-C ) :   1.0785 B( 25-C , 26-H ) :   0.9449 B( 25-C , 27-H ) :   0.9536
B( 25-C , 28-C ) :   1.0748 B( 28-C , 29-H ) :   0.9736 B( 28-C , 30-H ) :   0.9744
B( 28-C , 31-H ) :   0.9755

Dispersion correction           -0.013293734
FINAL SINGLE POINT ENERGY     -1339.850831988872

DIPOLE MOMENT
-------------
                                X             Y             Z
Electronic contribution:      2.67073      -1.74207     -31.57456
Nuclear contribution   :     -2.81438       1.85826      32.41338
                        -----------------------------------------
Total Dipole Moment    :     -0.14365       0.11619       0.83881
                        -----------------------------------------
Magnitude (a.u.)       :      0.85892
Magnitude (Debye)      :      2.18320

Rotational constants in cm-1:     0.015425     0.008674     0.006209
Rotational constants in MHz :   462.417476   260.054625   186.143294

                             ****ORCA TERMINATED NORMALLY****
TOTAL RUN TIME: 0 days 0 hours 0 minutes 32 seconds 450 msec
