                         Program Version 4.2.1 -  RELEASE  -
|  1> ! wB97X-D3 SP def2-SVP
|  2> %pal
|  3> nprocs 16
|  4> end
|  5>
|  6> * xyz 0 1
|  7> S 	 69.3186 	 23.5765 	 77.6385
|  8> C 	 69.3569 	 22.0317 	 78.5315
|  9> C 	 69.8825 	 21.0192 	 77.7518
| 10> C 	 69.9303 	 21.4218 	 76.3612
| 11> C 	 69.6218 	 22.7488 	 76.0942
| 12> H 	 70.1574 	 20.8438 	 75.5057
| 13> C 	 70.2256 	 19.6524 	 78.233
| 14> H 	 69.8888 	 19.4618 	 79.2809
| 15> H 	 71.2598 	 19.6559 	 78.189
| 16> C 	 69.7342 	 18.5667 	 77.306
| 17> H 	 68.6168 	 18.5875 	 77.1052
| 18> H 	 70.3012 	 18.6117 	 76.349
| 19> C 	 70.0987 	 17.1523 	 77.7857
| 20> H 	 69.8278 	 16.5639 	 76.9479
| 21> H 	 71.2019 	 17.0481 	 77.9052
| 22> H 	 69.515 	 16.9004 	 78.6765
| 23> S 	 68.2606 	 23.0614 	 73.8241
| 24> C 	 68.9287 	 23.8492 	 72.4952
| 25> C 	 70.2376 	 24.2926 	 72.7031
| 26> C 	 70.646 	 24.0354 	 74.0189
| 27> C 	 69.6495 	 23.4192 	 74.7561
| 28> H 	 70.7301 	 24.7675 	 71.9357
| 29> C 	 72.03 	 24.3958 	 74.481
| 30> H 	 71.8116 	 24.7058 	 75.5318
| 31> H 	 72.3466 	 25.3806 	 74.0483
| 32> C 	 73.1415 	 23.3186 	 74.3822
| 33> H 	 73.314 	 23.2097 	 73.3526
| 34> H 	 72.8473 	 22.3366 	 74.8201
| 35> C 	 74.4646 	 23.7124 	 75.1257
| 36> H 	 74.4909 	 23.9025 	 76.2021
| 37> H 	 74.8148 	 24.7109 	 74.7253
| 38> H 	 75.2876 	 23.0361 	 74.8991
| 39> H 	 69.1336 	 21.8466 	 79.6219
| 40> H 	 68.4842 	 23.8454 	 71.5276
| 41> *
| 42>
| 43>                          ****END OF INPUT****

CARTESIAN COORDINATES (ANGSTROEM)
---------------------------------
  S     69.318600   23.576500   77.638500
  C     69.356900   22.031700   78.531500
  C     69.882500   21.019200   77.751800
  C     69.930300   21.421800   76.361200
  C     69.621800   22.748800   76.094200
  H     70.157400   20.843800   75.505700
  C     70.225600   19.652400   78.233000
  H     69.888800   19.461800   79.280900
  H     71.259800   19.655900   78.189000
  C     69.734200   18.566700   77.306000
  H     68.616800   18.587500   77.105200
  H     70.301200   18.611700   76.349000
  C     70.098700   17.152300   77.785700
  H     69.827800   16.563900   76.947900
  H     71.201900   17.048100   77.905200
  H     69.515000   16.900400   78.676500
  S     68.260600   23.061400   73.824100
  C     68.928700   23.849200   72.495200
  C     70.237600   24.292600   72.703100
  C     70.646000   24.035400   74.018900
  C     69.649500   23.419200   74.756100
  H     70.730100   24.767500   71.935700
  C     72.030000   24.395800   74.481000
  H     71.811600   24.705800   75.531800
  H     72.346600   25.380600   74.048300
  C     73.141500   23.318600   74.382200
  H     73.314000   23.209700   73.352600
  H     72.847300   22.336600   74.820100
  C     74.464600   23.712400   75.125700
  H     74.490900   23.902500   76.202100
  H     74.814800   24.710900   74.725300
  H     75.287600   23.036100   74.899100
  H     69.133600   21.846600   79.621900
  H     68.484200   23.845400   71.527600

 Total Charge           Charge          ....    0
 Multiplicity           Mult            ....    1
 Number of Electrons    NEL             ....  134
 Basis Dimension        Dim             ....  322

ORBITAL ENERGIES
----------------

  NO   OCC          E(Eh)            E(eV)
   0   2.0000     -88.967347     -2420.9246
   1   2.0000     -88.962108     -2420.7820
   2   2.0000     -10.330941      -281.1192
   3   2.0000     -10.321731      -280.8686
   4   2.0000     -10.317604      -280.7563
   5   2.0000     -10.308636      -280.5122
   6   2.0000     -10.300719      -280.2968
   7   2.0000     -10.300400      -280.2881
   8   2.0000     -10.293723      -280.1065
   9   2.0000     -10.292010      -280.0598
  10   2.0000     -10.291074      -280.0344
  11   2.0000     -10.290672      -280.0234
  12   2.0000     -10.288387      -279.9612
  13   2.0000     -10.284203      -279.8474
  14   2.0000     -10.282298      -279.7956
  15   2.0000     -10.278001      -279.6786
  16   2.0000      -8.083890      -219.9738
  17   2.0000      -8.075632      -219.7491
  18   2.0000      -6.041969      -164.4103
  19   2.0000      -6.038074      -164.3043
  20   2.0000      -6.035063      -164.2224
  21   2.0000      -6.034327      -164.2024
  22   2.0000      -6.030381      -164.0950
  23   2.0000      -6.026191      -163.9810
  24   2.0000      -1.011825       -27.5332
  25   2.0000      -0.981660       -26.7123
  26   2.0000      -0.917317       -24.9615
  27   2.0000      -0.905111       -24.6293
  28   2.0000      -0.867441       -23.6043
  29   2.0000      -0.853671       -23.2296
  30   2.0000      -0.843392       -22.9499
  31   2.0000      -0.812958       -22.1217
  32   2.0000      -0.782138       -21.2831
  33   2.0000      -0.770741       -20.9729
  34   2.0000      -0.707853       -19.2616
  35   2.0000      -0.697164       -18.9708
  36   2.0000      -0.681528       -18.5453
  37   2.0000      -0.668710       -18.1965
  38   2.0000      -0.638106       -17.3637
  39   2.0000      -0.616447       -16.7744
  40   2.0000      -0.594354       -16.1732
  41   2.0000      -0.578595       -15.7444
  42   2.0000      -0.569194       -15.4886
  43   2.0000      -0.555555       -15.1174
  44   2.0000      -0.528623       -14.3846
  45   2.0000      -0.522415       -14.2156
  46   2.0000      -0.515410       -14.0250
  47   2.0000      -0.511367       -13.9150
  48   2.0000      -0.504658       -13.7324
  49   2.0000      -0.499881       -13.6025
  50   2.0000      -0.489725       -13.3261
  51   2.0000      -0.476685       -12.9713
  52   2.0000      -0.471124       -12.8199
  53   2.0000      -0.469021       -12.7627
  54   2.0000      -0.458614       -12.4795
  55   2.0000      -0.445597       -12.1253
  56   2.0000      -0.440553       -11.9880
  57   2.0000      -0.435993       -11.8640
  58   2.0000      -0.433517       -11.7966
  59   2.0000      -0.423259       -11.5175
  60   2.0000      -0.420303       -11.4370
  61   2.0000      -0.415186       -11.2978
  62   2.0000      -0.413390       -11.2489
  63   2.0000      -0.337510        -9.1841
  64   2.0000      -0.325185        -8.8487
  65   2.0000      -0.321408        -8.7459
  66   2.0000      -0.307022        -8.3545
  67   0.0000       0.049490         1.3467
  68   0.0000       0.053097         1.4448
  69   0.0000       0.111540         3.0352
  70   0.0000       0.126710         3.4480
  71   0.0000       0.129069         3.5121

MULLIKEN ATOMIC CHARGES
-----------------------
   0 S :    0.098484
   1 C :   -0.149245
   2 C :   -0.080768
   3 C :    0.055832
   4 C :   -0.165411
   5 H :   -0.005980
   6 C :    0.142065
   7 H :    0.024030
   8 H :    0.016623
   9 C :   -0.172241
  10 H :    0.050994
  11 H :    0.035664
  12 C :   -0.024942
  13 H :    0.026950
  14 H :    0.032919
  15 H :    0.039066
  16 S :    0.144664
  17 C :   -0.082875
  18 C :   -0.025765
  19 C :    0.000491
  20 C :   -0.209924
  21 H :   -0.015693
  22 C :    0.045463
  23 H :    0.022220
  24 H :    0.025749
  25 C :   -0.015313
  26 H :    0.019683
  27 H :    0.039514
  28 C :   -0.077437
  29 H :    0.042107
  30 H :    0.018270
  31 H :    0.035167
  32 H :    0.065092
  33 H :    0.044550
Sum of atomic charges:    0.0000000

LOEWDIN ATOMIC CHARGES
----------------------
   0 S :    0.371509
   1 C :   -0.198943
   2 C :   -0.061208
   3 C :   -0.059604
   4 C :   -0.192734
   5 H :    0.022113
   6 C :   -0.030982
   7 H :    0.034152
   8 H :    0.029005
   9 C :   -0.047349
  10 H :    0.032310
  11 H :    0.026783
  12 C :   -0.062731
  13 H :    0.022747
  14 H :    0.028001
  15 H :    0.023905
  16 S :    0.471854
  17 C :   -0.200935
  18 C :   -0.063707
  19 C :   -0.054913
  20 C :   -0.221697
  21 H :    0.018473
  22 C :   -0.039506
  23 H :    0.033743
  24 H :    0.033820
  25 C :   -0.029722
  26 H :    0.018940
  27 H :    0.030635
  28 C :   -0.075045
  29 H :    0.027381
  30 H :    0.025798
  31 H :    0.025468
  32 H :    0.041408
  33 H :    0.021030

  Mayer bond orders larger than 0.100000
B(  0-S ,  1-C ) :   1.1241 B(  0-S ,  4-C ) :   1.1289 B(  1-C ,  2-C ) :   1.6411
B(  1-C , 32-H ) :   0.9600 B(  2-C ,  3-C ) :   1.1910 B(  2-C ,  6-C ) :   1.0286
B(  3-C ,  4-C ) :   1.6221 B(  3-C ,  5-H ) :   0.9957 B(  4-C , 20-C ) :   0.9864
B(  6-C ,  7-H ) :   0.9436 B(  6-C ,  8-H ) :   0.9105 B(  6-C ,  9-C ) :   1.0793
B(  9-C , 10-H ) :   0.9605 B(  9-C , 11-H ) :   0.9439 B(  9-C , 12-C ) :   1.0869
B( 12-C , 13-H ) :   0.9754 B( 12-C , 14-H ) :   0.9727 B( 12-C , 15-H ) :   0.9746
B( 16-S , 17-C ) :   1.2013 B( 16-S , 20-C ) :   1.1863 B( 17-C , 18-C ) :   1.5573
B( 17-C , 33-H ) :   0.9690 B( 18-C , 19-C ) :   1.2721 B( 18-C , 21-H ) :   1.0126
B( 19-C , 20-C ) :   1.5720 B( 19-C , 22-C ) :   1.0348 B( 22-C , 23-H ) :   0.9316
B( 22-C , 24-H ) :   0.9360 B( 22-C , 25-C ) :   1.0542 B( 25-C , 26-H ) :   0.9537
B( 25-C , 27-H ) :   0.9572 B( 25-C , 28-C ) :   1.0729 B( 28-C , 29-H ) :   0.9793
B( 28-C , 30-H ) :   0.9733 B( 28-C , 31-H ) :   0.9763

Dispersion correction           -0.014057743
FINAL SINGLE POINT ENERGY     -1339.867638918702

DIPOLE MOMENT
-------------
                                X             Y             Z
Electronic contribution:    -19.33038      15.77107      -3.39432
Nuclear contribution   :     19.78639     -16.27817       3.18375
                        -----------------------------------------
Total Dipole Moment    :      0.45601      -0.50710      -0.21057
                        -----------------------------------------
Magnitude (a.u.)       :      0.71375
Magnitude (Debye)      :      1.81422

Rotational constants in cm-1:     0.016481     0.008292     0.007383
Rotational constants in MHz :   494.100220   248.576630   221.338976

                             ****ORCA TERMINATED NORMALLY****
TOTAL RUN TIME: 0 days 0 hours 0 minutes 29 seconds 791 msec
