                         Program Version 4.2.1 -  RELEASE  -
|  1> ! wB97X-D3 SP def2-SVP
|  2> %pal
|  3> nprocs 16
|  4> end
|  5>
|  6> * xyz 0 1
|  7> S 	 -1.61857 	 -15.593 	 84.2955
|  8> C 	 -2.38255 	 -16.3459 	 82.9547
|  9> C 	 -2.22444 	 -15.5819 	 81.7641
| 10> C 	 -1.26276 	 -14.5373 	 81.9869
| 11> C 	 -1.0078 	 -14.3211 	 83.307
| 12> H 	 -0.954016 	 -13.7524 	 81.2764
| 13> C 	 -2.65953 	 -15.9632 	 80.3514
| 14> H 	 -3.47548 	 -15.2673 	 80.1751
| 15> H 	 -2.98176 	 -16.9768 	 80.487
| 16> C 	 -1.52082 	 -15.919 	 79.2616
| 17> H 	 -1.93667 	 -15.9762 	 78.2391
| 18> H 	 -1.11339 	 -14.8597 	 79.3011
| 19> C 	 -0.403252 	 -16.9707 	 79.4157
| 20> H 	 -0.86322 	 -17.9537 	 79.5645
| 21> H 	 0.265948 	 -16.9184 	 78.5614
| 22> H 	 0.132823 	 -16.6045 	 80.2694
| 23> S 	 1.45802 	 -13.6961 	 84.3913
| 24> C 	 1.81204 	 -12.0808 	 84.8869
| 25> C 	 0.890268 	 -11.1976 	 84.3491
| 26> C 	 -0.192374 	 -11.8752 	 83.6584
| 27> C 	 -0.178698 	 -13.2634 	 83.8706
| 28> H 	 0.95229 	 -10.1101 	 84.4905
| 29> C 	 -1.2715 	 -11.0804 	 82.8742
| 30> H 	 -2.14652 	 -11.5508 	 83.2691
| 31> H 	 -1.22953 	 -11.3698 	 81.8953
| 32> C 	 -1.38555 	 -9.56313 	 83.1961
| 33> H 	 -1.03705 	 -9.19887 	 84.1934
| 34> H 	 -2.44629 	 -9.1848 	 82.9898
| 35> C 	 -0.410755 	 -8.79193 	 82.2808
| 36> H 	 0.670596 	 -9.00455 	 82.4971
| 37> H 	 -0.509787 	 -7.73662 	 82.4648
| 38> H 	 -0.587268 	 -8.92489 	 81.2385
| 39> H 	 -2.85514 	 -17.3423 	 82.8884
| 40> H 	 2.5502 	 -11.8879 	 85.5798
| 41> *
| 42>
| 43>                          ****END OF INPUT****

CARTESIAN COORDINATES (ANGSTROEM)
---------------------------------
  S     -1.618570  -15.593000   84.295500
  C     -2.382550  -16.345900   82.954700
  C     -2.224440  -15.581900   81.764100
  C     -1.262760  -14.537300   81.986900
  C     -1.007800  -14.321100   83.307000
  H     -0.954016  -13.752400   81.276400
  C     -2.659530  -15.963200   80.351400
  H     -3.475480  -15.267300   80.175100
  H     -2.981760  -16.976800   80.487000
  C     -1.520820  -15.919000   79.261600
  H     -1.936670  -15.976200   78.239100
  H     -1.113390  -14.859700   79.301100
  C     -0.403252  -16.970700   79.415700
  H     -0.863220  -17.953700   79.564500
  H      0.265948  -16.918400   78.561400
  H      0.132823  -16.604500   80.269400
  S      1.458020  -13.696100   84.391300
  C      1.812040  -12.080800   84.886900
  C      0.890268  -11.197600   84.349100
  C     -0.192374  -11.875200   83.658400
  C     -0.178698  -13.263400   83.870600
  H      0.952290  -10.110100   84.490500
  C     -1.271500  -11.080400   82.874200
  H     -2.146520  -11.550800   83.269100
  H     -1.229530  -11.369800   81.895300
  C     -1.385550   -9.563130   83.196100
  H     -1.037050   -9.198870   84.193400
  H     -2.446290   -9.184800   82.989800
  C     -0.410755   -8.791930   82.280800
  H      0.670596   -9.004550   82.497100
  H     -0.509787   -7.736620   82.464800
  H     -0.587268   -8.924890   81.238500
  H     -2.855140  -17.342300   82.888400
  H      2.550200  -11.887900   85.579800

 Total Charge           Charge          ....    0
 Multiplicity           Mult            ....    1
 Number of Electrons    NEL             ....  134
 Basis Dimension        Dim             ....  322

ORBITAL ENERGIES
----------------

  NO   OCC          E(Eh)            E(eV)
   0   2.0000     -88.968627     -2420.9594
   1   2.0000     -88.958085     -2420.6726
   2   2.0000     -10.323986      -280.9299
   3   2.0000     -10.322541      -280.8906
   4   2.0000     -10.317888      -280.7640
   5   2.0000     -10.311473      -280.5894
   6   2.0000     -10.310286      -280.5571
   7   2.0000     -10.304237      -280.3925
   8   2.0000     -10.301771      -280.3254
   9   2.0000     -10.296433      -280.1802
  10   2.0000     -10.295980      -280.1679
  11   2.0000     -10.294944      -280.1397
  12   2.0000     -10.293026      -280.0875
  13   2.0000     -10.288684      -279.9693
  14   2.0000     -10.277382      -279.6618
  15   2.0000     -10.275680      -279.6155
  16   2.0000      -8.084105      -219.9797
  17   2.0000      -8.073351      -219.6870
  18   2.0000      -6.042487      -164.4244
  19   2.0000      -6.038402      -164.3133
  20   2.0000      -6.035048      -164.2220
  21   2.0000      -6.031869      -164.1355
  22   2.0000      -6.027907      -164.0277
  23   2.0000      -6.023946      -163.9199
  24   2.0000      -1.008682       -27.4476
  25   2.0000      -0.984087       -26.7784
  26   2.0000      -0.908381       -24.7183
  27   2.0000      -0.907155       -24.6849
  28   2.0000      -0.868973       -23.6460
  29   2.0000      -0.849215       -23.1083
  30   2.0000      -0.841935       -22.9102
  31   2.0000      -0.814414       -22.1613
  32   2.0000      -0.786325       -21.3970
  33   2.0000      -0.772310       -21.0156
  34   2.0000      -0.706467       -19.2239
  35   2.0000      -0.700635       -19.0652
  36   2.0000      -0.689086       -18.7510
  37   2.0000      -0.653020       -17.7696
  38   2.0000      -0.638449       -17.3731
  39   2.0000      -0.619097       -16.8465
  40   2.0000      -0.603816       -16.4307
  41   2.0000      -0.562811       -15.3149
  42   2.0000      -0.558596       -15.2002
  43   2.0000      -0.549494       -14.9525
  44   2.0000      -0.539677       -14.6854
  45   2.0000      -0.535189       -14.5632
  46   2.0000      -0.527265       -14.3476
  47   2.0000      -0.514806       -14.0086
  48   2.0000      -0.509433       -13.8624
  49   2.0000      -0.498578       -13.5670
  50   2.0000      -0.487959       -13.2780
  51   2.0000      -0.474947       -12.9240
  52   2.0000      -0.470203       -12.7949
  53   2.0000      -0.466757       -12.7011
  54   2.0000      -0.458234       -12.4692
  55   2.0000      -0.448414       -12.2020
  56   2.0000      -0.443556       -12.0698
  57   2.0000      -0.438744       -11.9388
  58   2.0000      -0.434064       -11.8115
  59   2.0000      -0.423861       -11.5339
  60   2.0000      -0.419674       -11.4199
  61   2.0000      -0.413401       -11.2492
  62   2.0000      -0.409773       -11.1505
  63   2.0000      -0.340014        -9.2522
  64   2.0000      -0.325394        -8.8544
  65   2.0000      -0.319840        -8.7033
  66   2.0000      -0.301298        -8.1987
  67   0.0000       0.027355         0.7444
  68   0.0000       0.067966         1.8494
  69   0.0000       0.109144         2.9700
  70   0.0000       0.122726         3.3395
  71   0.0000       0.128599         3.4994

MULLIKEN ATOMIC CHARGES
-----------------------
   0 S :    0.141854
   1 C :   -0.121949
   2 C :   -0.153272
   3 C :    0.018880
   4 C :   -0.191520
   5 H :    0.027130
   6 C :    0.105446
   7 H :    0.047490
   8 H :    0.006858
   9 C :   -0.128029
  10 H :    0.032059
  11 H :    0.027976
  12 C :   -0.020683
  13 H :    0.039789
  14 H :    0.039751
  15 H :    0.039926
  16 S :    0.091674
  17 C :   -0.054735
  18 C :   -0.042113
  19 C :   -0.080677
  20 C :   -0.144126
  21 H :    0.024588
  22 C :    0.144266
  23 H :    0.032265
  24 H :    0.013651
  25 C :   -0.103723
  26 H :    0.046077
  27 H :    0.049200
  28 C :   -0.071821
  29 H :    0.038965
  30 H :    0.024946
  31 H :    0.025357
  32 H :    0.059971
  33 H :    0.034529
Sum of atomic charges:   -0.0000000

LOEWDIN ATOMIC CHARGES
----------------------
   0 S :    0.442589
   1 C :   -0.222027
   2 C :   -0.064412
   3 C :   -0.068338
   4 C :   -0.215113
   5 H :    0.034303
   6 C :   -0.029038
   7 H :    0.037863
   8 H :    0.023108
   9 C :   -0.045455
  10 H :    0.022484
  11 H :    0.023986
  12 C :   -0.059323
  13 H :    0.027844
  14 H :    0.029037
  15 H :    0.027950
  16 S :    0.400189
  17 C :   -0.172350
  18 C :   -0.078827
  19 C :   -0.038372
  20 C :   -0.208246
  21 H :    0.031815
  22 C :   -0.024418
  23 H :    0.037900
  24 H :    0.018558
  25 C :   -0.042192
  26 H :    0.031910
  27 H :    0.035956
  28 C :   -0.071709
  29 H :    0.027836
  30 H :    0.021133
  31 H :    0.016458
  32 H :    0.035735
  33 H :    0.013165

  Mayer bond orders larger than 0.100000
B(  0-S ,  1-C ) :   1.1603 B(  0-S ,  4-C ) :   1.1645 B(  1-C ,  2-C ) :   1.5883
B(  1-C , 32-H ) :   0.9597 B(  2-C ,  3-C ) :   1.2485 B(  2-C ,  6-C ) :   1.0063
B(  3-C ,  4-C ) :   1.5880 B(  3-C ,  5-H ) :   0.9775 B(  4-C , 20-C ) :   1.0173
B(  6-C ,  7-H ) :   0.9318 B(  6-C ,  8-H ) :   0.9443 B(  6-C ,  9-C ) :   1.0710
B(  9-C , 10-H ) :   0.9586 B(  9-C , 11-H ) :   0.9515 B(  9-C , 12-C ) :   1.0646
B( 12-C , 13-H ) :   0.9765 B( 12-C , 14-H ) :   0.9737 B( 12-C , 15-H ) :   0.9755
B( 16-S , 17-C ) :   1.1701 B( 16-S , 20-C ) :   1.1389 B( 17-C , 18-C ) :   1.5817
B( 17-C , 20-C ) :   0.1064 B( 17-C , 33-H ) :   0.9781 B( 18-C , 19-C ) :   1.2487
B( 18-C , 21-H ) :   0.9811 B( 19-C , 20-C ) :   1.5948 B( 19-C , 22-C ) :   1.0054
B( 22-C , 23-H ) :   0.9300 B( 22-C , 24-H ) :   0.9302 B( 22-C , 25-C ) :   1.0604
B( 25-C , 26-H ) :   0.9609 B( 25-C , 27-H ) :   0.9571 B( 25-C , 28-C ) :   1.0671
B( 28-C , 29-H ) :   0.9753 B( 28-C , 30-H ) :   0.9740 B( 28-C , 31-H ) :   0.9764

Dispersion correction           -0.014472917
FINAL SINGLE POINT ENERGY     -1339.852274971169

DIPOLE MOMENT
-------------
                                X             Y             Z
Electronic contribution:      4.89173     -10.72744      20.44137
Nuclear contribution   :     -5.09201      11.07528     -20.96576
                        -----------------------------------------
Total Dipole Moment    :     -0.20028       0.34783      -0.52439
                        -----------------------------------------
Magnitude (a.u.)       :      0.66037
Magnitude (Debye)      :      1.67852

Rotational constants in cm-1:     0.018716     0.008286     0.007088
Rotational constants in MHz :   561.097009   248.419660   212.500674

                             ****ORCA TERMINATED NORMALLY****
TOTAL RUN TIME: 0 days 0 hours 0 minutes 33 seconds 770 msec
