                         Program Version 4.2.1 -  RELEASE  -
|  1> ! wB97X-D3 SP def2-SVP
|  2> %pal
|  3> nprocs 16
|  4> end
|  5>
|  6> * xyz 0 1
|  7> S 	 -22.101 	 -1.66121 	 79.2505
|  8> C 	 -20.9438 	 -2.42505 	 78.1325
|  9> C 	 -19.7438 	 -2.55557 	 78.7658
| 10> C 	 -19.72 	 -2.12327 	 80.1516
| 11> C 	 -20.9631 	 -1.69343 	 80.59
| 12> H 	 -18.8777 	 -2.19006 	 80.8686
| 13> C 	 -18.4096 	 -2.89945 	 78.0392
| 14> H 	 -17.7645 	 -2.08803 	 77.9701
| 15> H 	 -18.7651 	 -3.11539 	 77.0399
| 16> C 	 -17.6848 	 -4.07256 	 78.6316
| 17> H 	 -17.5259 	 -3.80426 	 79.7003
| 18> H 	 -18.283 	 -4.96948 	 78.6386
| 19> C 	 -16.4138 	 -4.33255 	 77.9435
| 20> H 	 -16.6569 	 -4.8408 	 77.0099
| 21> H 	 -15.7932 	 -3.47272 	 77.6966
| 22> H 	 -15.8795 	 -5.08495 	 78.4963
| 23> S 	 -22.2695 	 0.213718 	 81.9802
| 24> C 	 -22.0607 	 0.308599 	 83.6354
| 25> C 	 -21.6377 	 -0.897201 	 84.125
| 26> C 	 -21.0082 	 -1.77518 	 83.1441
| 27> C 	 -21.3807 	 -1.3189 	 81.903
| 28> H 	 -21.6202 	 -1.04633 	 85.2038
| 29> C 	 -20.2573 	 -3.05912 	 83.6257
| 30> H 	 -19.5756 	 -2.71104 	 84.3306
| 31> H 	 -19.7105 	 -3.5245 	 82.7937
| 32> C 	 -21.0672 	 -4.09119 	 84.4505
| 33> H 	 -21.7468 	 -4.70242 	 83.7736
| 34> H 	 -21.8027 	 -3.55704 	 85.1006
| 35> C 	 -20.2885 	 -5.24402 	 85.2116
| 36> H 	 -20.9082 	 -5.79364 	 85.9119
| 37> H 	 -19.3227 	 -4.96439 	 85.7518
| 38> H 	 -19.9046 	 -5.86808 	 84.502
| 39> H 	 -21.0141 	 -2.59708 	 77.0912
| 40> H 	 -22.4757 	 1.04703 	 84.235
| 41> *
| 42>
| 43>                          ****END OF INPUT****

CARTESIAN COORDINATES (ANGSTROEM)
---------------------------------
  S    -22.101000   -1.661210   79.250500
  C    -20.943800   -2.425050   78.132500
  C    -19.743800   -2.555570   78.765800
  C    -19.720000   -2.123270   80.151600
  C    -20.963100   -1.693430   80.590000
  H    -18.877700   -2.190060   80.868600
  C    -18.409600   -2.899450   78.039200
  H    -17.764500   -2.088030   77.970100
  H    -18.765100   -3.115390   77.039900
  C    -17.684800   -4.072560   78.631600
  H    -17.525900   -3.804260   79.700300
  H    -18.283000   -4.969480   78.638600
  C    -16.413800   -4.332550   77.943500
  H    -16.656900   -4.840800   77.009900
  H    -15.793200   -3.472720   77.696600
  H    -15.879500   -5.084950   78.496300
  S    -22.269500    0.213718   81.980200
  C    -22.060700    0.308599   83.635400
  C    -21.637700   -0.897201   84.125000
  C    -21.008200   -1.775180   83.144100
  C    -21.380700   -1.318900   81.903000
  H    -21.620200   -1.046330   85.203800
  C    -20.257300   -3.059120   83.625700
  H    -19.575600   -2.711040   84.330600
  H    -19.710500   -3.524500   82.793700
  C    -21.067200   -4.091190   84.450500
  H    -21.746800   -4.702420   83.773600
  H    -21.802700   -3.557040   85.100600
  C    -20.288500   -5.244020   85.211600
  H    -20.908200   -5.793640   85.911900
  H    -19.322700   -4.964390   85.751800
  H    -19.904600   -5.868080   84.502000
  H    -21.014100   -2.597080   77.091200
  H    -22.475700    1.047030   84.235000

 Total Charge           Charge          ....    0
 Multiplicity           Mult            ....    1
 Number of Electrons    NEL             ....  134
 Basis Dimension        Dim             ....  322

ORBITAL ENERGIES
----------------

  NO   OCC          E(Eh)            E(eV)
   0   2.0000     -88.962865     -2420.8026
   1   2.0000     -88.962647     -2420.7967
   2   2.0000     -10.328560      -281.0544
   3   2.0000     -10.326816      -281.0070
   4   2.0000     -10.313709      -280.6503
   5   2.0000     -10.310389      -280.5600
   6   2.0000     -10.308938      -280.5205
   7   2.0000     -10.301643      -280.3220
   8   2.0000     -10.300451      -280.2895
   9   2.0000     -10.299465      -280.2627
  10   2.0000     -10.294992      -280.1410
  11   2.0000     -10.294364      -280.1239
  12   2.0000     -10.283171      -279.8193
  13   2.0000     -10.283118      -279.8179
  14   2.0000     -10.278963      -279.7048
  15   2.0000     -10.271977      -279.5147
  16   2.0000      -8.079418      -219.8521
  17   2.0000      -8.076852      -219.7823
  18   2.0000      -6.037858      -164.2985
  19   2.0000      -6.035654      -164.2385
  20   2.0000      -6.033793      -164.1879
  21   2.0000      -6.031438      -164.1238
  22   2.0000      -6.029971      -164.0839
  23   2.0000      -6.027339      -164.0122
  24   2.0000      -1.012780       -27.5591
  25   2.0000      -0.983788       -26.7702
  26   2.0000      -0.920490       -25.0478
  27   2.0000      -0.905576       -24.6420
  28   2.0000      -0.877935       -23.8898
  29   2.0000      -0.852740       -23.2042
  30   2.0000      -0.839814       -22.8525
  31   2.0000      -0.814660       -22.1680
  32   2.0000      -0.791674       -21.5426
  33   2.0000      -0.777052       -21.1447
  34   2.0000      -0.712297       -19.3826
  35   2.0000      -0.700464       -19.0606
  36   2.0000      -0.693310       -18.8659
  37   2.0000      -0.663428       -18.0528
  38   2.0000      -0.638859       -17.3842
  39   2.0000      -0.616144       -16.7661
  40   2.0000      -0.601799       -16.3758
  41   2.0000      -0.579812       -15.7775
  42   2.0000      -0.561799       -15.2873
  43   2.0000      -0.556006       -15.1297
  44   2.0000      -0.530936       -14.4475
  45   2.0000      -0.530086       -14.4244
  46   2.0000      -0.516471       -14.0539
  47   2.0000      -0.515466       -14.0266
  48   2.0000      -0.509227       -13.8568
  49   2.0000      -0.502888       -13.6843
  50   2.0000      -0.493504       -13.4289
  51   2.0000      -0.484176       -13.1751
  52   2.0000      -0.472696       -12.8627
  53   2.0000      -0.466601       -12.6969
  54   2.0000      -0.462327       -12.5805
  55   2.0000      -0.453358       -12.3365
  56   2.0000      -0.448755       -12.2113
  57   2.0000      -0.442384       -12.0379
  58   2.0000      -0.433785       -11.8039
  59   2.0000      -0.421296       -11.4640
  60   2.0000      -0.414041       -11.2666
  61   2.0000      -0.413326       -11.2472
  62   2.0000      -0.408737       -11.1223
  63   2.0000      -0.356613        -9.7039
  64   2.0000      -0.330113        -8.9828
  65   2.0000      -0.326918        -8.8959
  66   2.0000      -0.289774        -7.8851
  67   0.0000       0.030133         0.8200
  68   0.0000       0.071029         1.9328
  69   0.0000       0.110746         3.0136
  70   0.0000       0.115611         3.1459
  71   0.0000       0.130365         3.5474

MULLIKEN ATOMIC CHARGES
-----------------------
   0 S :    0.088050
   1 C :   -0.093926
   2 C :   -0.105153
   3 C :    0.007745
   4 C :   -0.128370
   5 H :    0.028234
   6 C :    0.102370
   7 H :    0.020067
   8 H :   -0.003612
   9 C :   -0.096544
  10 H :    0.021032
  11 H :    0.025363
  12 C :   -0.007921
  13 H :    0.019781
  14 H :    0.032877
  15 H :    0.025743
  16 S :    0.108353
  17 C :   -0.056938
  18 C :   -0.053108
  19 C :   -0.067031
  20 C :   -0.136684
  21 H :    0.021777
  22 C :    0.134526
  23 H :    0.011961
  24 H :    0.029086
  25 C :   -0.124929
  26 H :    0.040768
  27 H :    0.036787
  28 C :   -0.041946
  29 H :    0.044960
  30 H :    0.028807
  31 H :    0.016107
  32 H :    0.032444
  33 H :    0.039323
Sum of atomic charges:    0.0000000

LOEWDIN ATOMIC CHARGES
----------------------
   0 S :    0.379918
   1 C :   -0.190104
   2 C :   -0.056520
   3 C :   -0.077021
   4 C :   -0.181451
   5 H :    0.033877
   6 C :   -0.018797
   7 H :    0.021892
   8 H :    0.022715
   9 C :   -0.045532
  10 H :    0.021187
  11 H :    0.025936
  12 C :   -0.062722
  13 H :    0.026948
  14 H :    0.025278
  15 H :    0.026028
  16 S :    0.424581
  17 C :   -0.193763
  18 C :   -0.071104
  19 C :   -0.043363
  20 C :   -0.192956
  21 H :    0.027064
  22 C :   -0.023475
  23 H :    0.025767
  24 H :    0.031537
  25 C :   -0.043748
  26 H :    0.032186
  27 H :    0.025113
  28 C :   -0.065738
  29 H :    0.030815
  30 H :    0.029494
  31 H :    0.012479
  32 H :    0.024801
  33 H :    0.018679

  Mayer bond orders larger than 0.100000
B(  0-S ,  1-C ) :   1.1012 B(  0-S ,  4-C ) :   1.1360 B(  1-C ,  2-C ) :   1.6683
B(  1-C , 32-H ) :   0.9684 B(  2-C ,  3-C ) :   1.1999 B(  2-C ,  6-C ) :   1.0133
B(  3-C ,  4-C ) :   1.6061 B(  3-C ,  5-H ) :   0.9829 B(  4-C , 20-C ) :   1.0368
B(  6-C ,  7-H ) :   0.9455 B(  6-C ,  8-H ) :   0.9373 B(  6-C ,  9-C ) :   1.0667
B(  9-C , 10-H ) :   0.9540 B(  9-C , 11-H ) :   0.9505 B(  9-C , 12-C ) :   1.0990
B( 12-C , 13-H ) :   0.9683 B( 12-C , 14-H ) :   0.9716 B( 12-C , 15-H ) :   0.9681
B( 16-S , 17-C ) :   1.1693 B( 16-S , 20-C ) :   1.1275 B( 17-C , 18-C ) :   1.6291
B( 17-C , 33-H ) :   0.9715 B( 18-C , 19-C ) :   1.2036 B( 18-C , 21-H ) :   0.9812
B( 19-C , 20-C ) :   1.6352 B( 19-C , 22-C ) :   1.0389 B( 22-C , 23-H ) :   0.9212
B( 22-C , 24-H ) :   0.9392 B( 22-C , 25-C ) :   1.0572 B( 25-C , 26-H ) :   0.9570
B( 25-C , 27-H ) :   0.9605 B( 25-C , 28-C ) :   1.0608 B( 28-C , 29-H ) :   0.9766
B( 28-C , 30-H ) :   0.9762 B( 28-C , 31-H ) :   0.9773

Dispersion correction           -0.013120575
FINAL SINGLE POINT ENERGY     -1339.855829659099

DIPOLE MOMENT
-------------
                                X             Y             Z
Electronic contribution:    -21.04917      22.35369      -4.88774
Nuclear contribution   :     21.58782     -22.71972       5.23203
                        -----------------------------------------
Total Dipole Moment    :      0.53865      -0.36603       0.34428
                        -----------------------------------------
Magnitude (a.u.)       :      0.73665
Magnitude (Debye)      :      1.87242

Rotational constants in cm-1:     0.015862     0.008668     0.006222
Rotational constants in MHz :   475.525935   259.860533   186.538141

                             ****ORCA TERMINATED NORMALLY****
TOTAL RUN TIME: 0 days 0 hours 0 minutes 32 seconds 33 msec
