                         Program Version 4.2.1 -  RELEASE  -
|  1> ! wB97X-D3 SP def2-SVP
|  2> %pal
|  3> nprocs 16
|  4> end
|  5>
|  6> * xyz 0 1
|  7> S 	 -60.9283 	 49.8308 	 134.139
|  8> C 	 -60.366 	 48.3351 	 135.01
|  9> C 	 -60.4334 	 48.6482 	 136.349
| 10> C 	 -60.9898 	 49.9333 	 136.644
| 11> C 	 -61.3439 	 50.7156 	 135.598
| 12> H 	 -61.1114 	 50.1847 	 137.664
| 13> C 	 -60.1377 	 47.7321 	 137.444
| 14> H 	 -60.1102 	 46.7415 	 136.988
| 15> H 	 -60.9075 	 47.6001 	 138.238
| 16> C 	 -58.772 	 47.8851 	 138.123
| 17> H 	 -58.6085 	 48.8898 	 138.616
| 18> H 	 -58.6671 	 47.2932 	 139.013
| 19> C 	 -57.5491 	 47.5906 	 137.217
| 20> H 	 -57.4357 	 48.2263 	 136.315
| 21> H 	 -56.6206 	 47.5109 	 137.783
| 22> H 	 -57.5799 	 46.559 	 136.852
| 23> S 	 -63.4225 	 52.2025 	 134.456
| 24> C 	 -63.4149 	 53.9412 	 134.675
| 25> C 	 -62.6571 	 54.2071 	 135.807
| 26> C 	 -61.9482 	 53.057 	 136.415
| 27> C 	 -62.0546 	 51.9599 	 135.575
| 28> H 	 -62.7148 	 55.1997 	 136.275
| 29> C 	 -60.9202 	 53.1615 	 137.556
| 30> H 	 -60.6948 	 52.1755 	 137.869
| 31> H 	 -61.5238 	 53.6126 	 138.358
| 32> C 	 -59.5287 	 53.7444 	 137.306
| 33> H 	 -59.1122 	 53.9416 	 138.293
| 34> H 	 -59.6504 	 54.7059 	 136.74
| 35> C 	 -58.7378 	 52.759 	 136.351
| 36> H 	 -58.7489 	 51.7067 	 136.726
| 37> H 	 -57.6219 	 52.9474 	 136.386
| 38> H 	 -59.2012 	 52.7749 	 135.332
| 39> H 	 -59.8947 	 47.4887 	 134.576
| 40> H 	 -64.1528 	 54.5868 	 134.242
| 41> *
| 42>
| 43>                          ****END OF INPUT****

CARTESIAN COORDINATES (ANGSTROEM)
---------------------------------
  S    -60.928300   49.830800  134.139000
  C    -60.366000   48.335100  135.010000
  C    -60.433400   48.648200  136.349000
  C    -60.989800   49.933300  136.644000
  C    -61.343900   50.715600  135.598000
  H    -61.111400   50.184700  137.664000
  C    -60.137700   47.732100  137.444000
  H    -60.110200   46.741500  136.988000
  H    -60.907500   47.600100  138.238000
  C    -58.772000   47.885100  138.123000
  H    -58.608500   48.889800  138.616000
  H    -58.667100   47.293200  139.013000
  C    -57.549100   47.590600  137.217000
  H    -57.435700   48.226300  136.315000
  H    -56.620600   47.510900  137.783000
  H    -57.579900   46.559000  136.852000
  S    -63.422500   52.202500  134.456000
  C    -63.414900   53.941200  134.675000
  C    -62.657100   54.207100  135.807000
  C    -61.948200   53.057000  136.415000
  C    -62.054600   51.959900  135.575000
  H    -62.714800   55.199700  136.275000
  C    -60.920200   53.161500  137.556000
  H    -60.694800   52.175500  137.869000
  H    -61.523800   53.612600  138.358000
  C    -59.528700   53.744400  137.306000
  H    -59.112200   53.941600  138.293000
  H    -59.650400   54.705900  136.740000
  C    -58.737800   52.759000  136.351000
  H    -58.748900   51.706700  136.726000
  H    -57.621900   52.947400  136.386000
  H    -59.201200   52.774900  135.332000
  H    -59.894700   47.488700  134.576000
  H    -64.152800   54.586800  134.242000

 Total Charge           Charge          ....    0
 Multiplicity           Mult            ....    1
 Number of Electrons    NEL             ....  134
 Basis Dimension        Dim             ....  322

ORBITAL ENERGIES
----------------

  NO   OCC          E(Eh)            E(eV)
   0   2.0000     -88.963884     -2420.8304
   1   2.0000     -88.962541     -2420.7938
   2   2.0000     -10.331800      -281.1426
   3   2.0000     -10.331541      -281.1355
   4   2.0000     -10.321440      -280.8607
   5   2.0000     -10.320649      -280.8391
   6   2.0000     -10.310875      -280.5732
   7   2.0000     -10.303502      -280.3725
   8   2.0000     -10.300144      -280.2812
   9   2.0000     -10.293905      -280.1114
  10   2.0000     -10.292833      -280.0822
  11   2.0000     -10.292567      -280.0750
  12   2.0000     -10.290392      -280.0158
  13   2.0000     -10.288348      -279.9602
  14   2.0000     -10.285186      -279.8741
  15   2.0000     -10.280638      -279.7504
  16   2.0000      -8.077547      -219.8012
  17   2.0000      -8.076990      -219.7861
  18   2.0000      -6.036331      -164.2569
  19   2.0000      -6.035656      -164.2386
  20   2.0000      -6.032088      -164.1415
  21   2.0000      -6.031674      -164.1302
  22   2.0000      -6.028132      -164.0338
  23   2.0000      -6.027425      -164.0146
  24   2.0000      -1.006773       -27.3957
  25   2.0000      -0.981960       -26.7205
  26   2.0000      -0.916505       -24.9394
  27   2.0000      -0.906652       -24.6713
  28   2.0000      -0.870939       -23.6995
  29   2.0000      -0.844850       -22.9895
  30   2.0000      -0.834555       -22.7094
  31   2.0000      -0.817726       -22.2515
  32   2.0000      -0.781828       -21.2746
  33   2.0000      -0.773353       -21.0440
  34   2.0000      -0.715237       -19.4626
  35   2.0000      -0.702985       -19.1292
  36   2.0000      -0.697612       -18.9830
  37   2.0000      -0.654560       -17.8115
  38   2.0000      -0.643101       -17.4997
  39   2.0000      -0.629705       -17.1351
  40   2.0000      -0.596805       -16.2399
  41   2.0000      -0.573774       -15.6132
  42   2.0000      -0.554833       -15.0978
  43   2.0000      -0.553316       -15.0565
  44   2.0000      -0.537716       -14.6320
  45   2.0000      -0.535628       -14.5752
  46   2.0000      -0.521593       -14.1933
  47   2.0000      -0.515665       -14.0320
  48   2.0000      -0.501411       -13.6441
  49   2.0000      -0.494192       -13.4476
  50   2.0000      -0.488909       -13.3039
  51   2.0000      -0.479110       -13.0372
  52   2.0000      -0.469357       -12.7718
  53   2.0000      -0.461269       -12.5518
  54   2.0000      -0.458760       -12.4835
  55   2.0000      -0.444427       -12.0935
  56   2.0000      -0.441664       -12.0183
  57   2.0000      -0.432469       -11.7681
  58   2.0000      -0.430344       -11.7103
  59   2.0000      -0.419411       -11.4127
  60   2.0000      -0.415308       -11.3011
  61   2.0000      -0.411304       -11.1921
  62   2.0000      -0.407647       -11.0926
  63   2.0000      -0.357476        -9.7274
  64   2.0000      -0.329554        -8.9676
  65   2.0000      -0.323206        -8.7949
  66   2.0000      -0.294197        -8.0055
  67   0.0000       0.016334         0.4445
  68   0.0000       0.072557         1.9744
  69   0.0000       0.099712         2.7133
  70   0.0000       0.116638         3.1739
  71   0.0000       0.122965         3.3461

MULLIKEN ATOMIC CHARGES
-----------------------
   0 S :    0.086928
   1 C :   -0.107118
   2 C :   -0.073696
   3 C :    0.032988
   4 C :   -0.124638
   5 H :    0.002264
   6 C :    0.048817
   7 H :    0.010067
   8 H :    0.042755
   9 C :   -0.067464
  10 H :    0.025005
  11 H :    0.018899
  12 C :   -0.071685
  13 H :    0.053466
  14 H :    0.030378
  15 H :    0.013648
  16 S :    0.098522
  17 C :   -0.077697
  18 C :   -0.054568
  19 C :   -0.053470
  20 C :   -0.143762
  21 H :    0.029915
  22 C :    0.071946
  23 H :   -0.015915
  24 H :    0.033143
  25 C :   -0.036472
  26 H :    0.037436
  27 H :    0.037154
  28 C :   -0.105035
  29 H :    0.037321
  30 H :    0.044177
  31 H :    0.067553
  32 H :    0.045310
  33 H :    0.063830
Sum of atomic charges:    0.0000000

LOEWDIN ATOMIC CHARGES
----------------------
   0 S :    0.377538
   1 C :   -0.165848
   2 C :   -0.064361
   3 C :   -0.061049
   4 C :   -0.182470
   5 H :    0.021801
   6 C :   -0.040501
   7 H :    0.031623
   8 H :    0.039255
   9 C :   -0.045161
  10 H :    0.025037
  11 H :    0.022478
  12 C :   -0.075854
  13 H :    0.029300
  14 H :    0.028476
  15 H :    0.021901
  16 S :    0.384310
  17 C :   -0.182545
  18 C :   -0.070871
  19 C :   -0.052693
  20 C :   -0.183362
  21 H :    0.031577
  22 C :   -0.036800
  23 H :    0.019978
  24 H :    0.034526
  25 C :   -0.035310
  26 H :    0.026272
  27 H :    0.027720
  28 C :   -0.078171
  29 H :    0.026022
  30 H :    0.031944
  31 H :    0.037444
  32 H :    0.027357
  33 H :    0.030437

  Mayer bond orders larger than 0.100000
B(  0-S ,  1-C ) :   1.1113 B(  0-S ,  4-C ) :   1.1343 B(  1-C ,  2-C ) :   1.6001
B(  1-C , 32-H ) :   0.9753 B(  2-C ,  3-C ) :   1.2464 B(  2-C ,  6-C ) :   1.0396
B(  3-C ,  4-C ) :   1.5536 B(  3-C ,  5-H ) :   0.9964 B(  4-C , 20-C ) :   1.0831
B(  6-C ,  7-H ) :   0.9364 B(  6-C ,  8-H ) :   0.9433 B(  6-C ,  9-C ) :   1.0672
B(  9-C , 10-H ) :   0.9539 B(  9-C , 11-H ) :   0.9524 B(  9-C , 12-C ) :   1.0757
B( 12-C , 13-H ) :   0.9769 B( 12-C , 14-H ) :   0.9724 B( 12-C , 15-H ) :   0.9706
B( 16-S , 17-C ) :   1.1263 B( 16-S , 20-C ) :   1.1384 B( 17-C , 18-C ) :   1.6256
B( 17-C , 33-H ) :   0.9720 B( 18-C , 19-C ) :   1.2096 B( 18-C , 21-H ) :   0.9821
B( 19-C , 20-C ) :   1.5736 B( 19-C , 22-C ) :   1.0575 B( 22-C , 23-H ) :   0.9313
B( 22-C , 24-H ) :   0.9245 B( 22-C , 25-C ) :   1.0582 B( 25-C , 26-H ) :   0.9541
B( 25-C , 27-H ) :   0.9595 B( 25-C , 28-C ) :   1.0590 B( 28-C , 29-H ) :   0.9741
B( 28-C , 30-H ) :   0.9739 B( 28-C , 31-H ) :   0.9704

Dispersion correction           -0.016118498
FINAL SINGLE POINT ENERGY     -1339.861696855316

DIPOLE MOMENT
-------------
                                X             Y             Z
Electronic contribution:    -21.28224       4.83867     -17.67127
Nuclear contribution   :     21.55893      -4.90255      18.43460
                        -----------------------------------------
Total Dipole Moment    :      0.27669      -0.06388       0.76332
                        -----------------------------------------
Magnitude (a.u.)       :      0.81443
Magnitude (Debye)      :      2.07013

Rotational constants in cm-1:     0.022424     0.009162     0.007401
Rotational constants in MHz :   672.246167   274.675405   221.883085

                             ****ORCA TERMINATED NORMALLY****
TOTAL RUN TIME: 0 days 0 hours 0 minutes 37 seconds 827 msec
