                         Program Version 4.2.1 -  RELEASE  -
|  1> ! wB97X-D3 SP def2-SVP
|  2> %pal
|  3> nprocs 16
|  4> end
|  5>
|  6> * xyz 0 1
|  7> S 	 48.8544 	 7.25342 	 84.6163
|  8> C 	 50.2486 	 8.03608 	 83.9056
|  9> C 	 50.8694 	 7.11904 	 83.0407
| 10> C 	 50.3332 	 5.80654 	 83.1621
| 11> C 	 49.203 	 5.74109 	 83.958
| 12> H 	 50.7334 	 4.90329 	 82.6909
| 13> C 	 52.1666 	 7.37372 	 82.2797
| 14> H 	 52.6805 	 8.23215 	 82.8157
| 15> H 	 51.9726 	 7.77594 	 81.2657
| 16> C 	 53.111 	 6.14953 	 82.0898
| 17> H 	 53.241 	 5.56475 	 83.0402
| 18> H 	 52.5024 	 5.42253 	 81.5416
| 19> C 	 54.4201 	 6.50663 	 81.4643
| 20> H 	 54.7876 	 7.40734 	 82.0225
| 21> H 	 55.2636 	 5.86316 	 81.483
| 22> H 	 54.1925 	 6.74722 	 80.3991
| 23> S 	 46.5903 	 4.9093 	 84.252
| 24> C 	 46.2785 	 3.35723 	 84.8096
| 25> C 	 47.4179 	 2.67024 	 85.1112
| 26> C 	 48.5454 	 3.42925 	 84.8355
| 27> C 	 48.3273 	 4.72375 	 84.397
| 28> H 	 47.4169 	 1.71824 	 85.5735
| 29> C 	 49.9809 	 2.89203 	 85.027
| 30> H 	 49.8132 	 2.31744 	 85.9095
| 31> H 	 50.6766 	 3.741 	 85.3004
| 32> C 	 50.5168 	 2.18752 	 83.8215
| 33> H 	 50.2616 	 2.77308 	 82.9462
| 34> H 	 49.8924 	 1.29535 	 83.8232
| 35> C 	 51.9864 	 1.67559 	 83.8963
| 36> H 	 52.3256 	 1.39767 	 82.8926
| 37> H 	 51.8817 	 0.793737 	 84.5536
| 38> H 	 52.6978 	 2.36048 	 84.3055
| 39> H 	 50.6167 	 9.03144 	 84.1055
| 40> H 	 45.2877 	 2.97985 	 85.0247
| 41> *
| 42>
| 43>                          ****END OF INPUT****

CARTESIAN COORDINATES (ANGSTROEM)
---------------------------------
  S     48.854400    7.253420   84.616300
  C     50.248600    8.036080   83.905600
  C     50.869400    7.119040   83.040700
  C     50.333200    5.806540   83.162100
  C     49.203000    5.741090   83.958000
  H     50.733400    4.903290   82.690900
  C     52.166600    7.373720   82.279700
  H     52.680500    8.232150   82.815700
  H     51.972600    7.775940   81.265700
  C     53.111000    6.149530   82.089800
  H     53.241000    5.564750   83.040200
  H     52.502400    5.422530   81.541600
  C     54.420100    6.506630   81.464300
  H     54.787600    7.407340   82.022500
  H     55.263600    5.863160   81.483000
  H     54.192500    6.747220   80.399100
  S     46.590300    4.909300   84.252000
  C     46.278500    3.357230   84.809600
  C     47.417900    2.670240   85.111200
  C     48.545400    3.429250   84.835500
  C     48.327300    4.723750   84.397000
  H     47.416900    1.718240   85.573500
  C     49.980900    2.892030   85.027000
  H     49.813200    2.317440   85.909500
  H     50.676600    3.741000   85.300400
  C     50.516800    2.187520   83.821500
  H     50.261600    2.773080   82.946200
  H     49.892400    1.295350   83.823200
  C     51.986400    1.675590   83.896300
  H     52.325600    1.397670   82.892600
  H     51.881700    0.793737   84.553600
  H     52.697800    2.360480   84.305500
  H     50.616700    9.031440   84.105500
  H     45.287700    2.979850   85.024700

 Total Charge           Charge          ....    0
 Multiplicity           Mult            ....    1
 Number of Electrons    NEL             ....  134
 Basis Dimension        Dim             ....  322

ORBITAL ENERGIES
----------------

  NO   OCC          E(Eh)            E(eV)
   0   2.0000     -88.964708     -2420.8528
   1   2.0000     -88.964242     -2420.8401
   2   2.0000     -10.323084      -280.9054
   3   2.0000     -10.319458      -280.8067
   4   2.0000     -10.315627      -280.7025
   5   2.0000     -10.311703      -280.5957
   6   2.0000     -10.305160      -280.4177
   7   2.0000     -10.301215      -280.3103
   8   2.0000     -10.295676      -280.1596
   9   2.0000     -10.294807      -280.1359
  10   2.0000     -10.292372      -280.0697
  11   2.0000     -10.286269      -279.9036
  12   2.0000     -10.285857      -279.8924
  13   2.0000     -10.283509      -279.8285
  14   2.0000     -10.282893      -279.8117
  15   2.0000     -10.281351      -279.7698
  16   2.0000      -8.080825      -219.8904
  17   2.0000      -8.080222      -219.8740
  18   2.0000      -6.039088      -164.3319
  19   2.0000      -6.038678      -164.3208
  20   2.0000      -6.035021      -164.2213
  21   2.0000      -6.034244      -164.2001
  22   2.0000      -6.031857      -164.1352
  23   2.0000      -6.031244      -164.1185
  24   2.0000      -1.020783       -27.7769
  25   2.0000      -0.994684       -27.0667
  26   2.0000      -0.914804       -24.8931
  27   2.0000      -0.912745       -24.8371
  28   2.0000      -0.878563       -23.9069
  29   2.0000      -0.853873       -23.2351
  30   2.0000      -0.846462       -23.0334
  31   2.0000      -0.816724       -22.2242
  32   2.0000      -0.785541       -21.3757
  33   2.0000      -0.772392       -21.0178
  34   2.0000      -0.715410       -19.4673
  35   2.0000      -0.697636       -18.9836
  36   2.0000      -0.691599       -18.8194
  37   2.0000      -0.665411       -18.1067
  38   2.0000      -0.644292       -17.5321
  39   2.0000      -0.622306       -16.9338
  40   2.0000      -0.596418       -16.2294
  41   2.0000      -0.575861       -15.6700
  42   2.0000      -0.570480       -15.5236
  43   2.0000      -0.561883       -15.2896
  44   2.0000      -0.532381       -14.4868
  45   2.0000      -0.527135       -14.3441
  46   2.0000      -0.521442       -14.1891
  47   2.0000      -0.514109       -13.9896
  48   2.0000      -0.508617       -13.8402
  49   2.0000      -0.500372       -13.6158
  50   2.0000      -0.493613       -13.4319
  51   2.0000      -0.485570       -13.2130
  52   2.0000      -0.477072       -12.9818
  53   2.0000      -0.469019       -12.7626
  54   2.0000      -0.463902       -12.6234
  55   2.0000      -0.453364       -12.3367
  56   2.0000      -0.447034       -12.1644
  57   2.0000      -0.441010       -12.0005
  58   2.0000      -0.426190       -11.5972
  59   2.0000      -0.423621       -11.5273
  60   2.0000      -0.417286       -11.3549
  61   2.0000      -0.411471       -11.1967
  62   2.0000      -0.403086       -10.9685
  63   2.0000      -0.349704        -9.5159
  64   2.0000      -0.335437        -9.1277
  65   2.0000      -0.331453        -9.0193
  66   2.0000      -0.288788        -7.8583
  67   0.0000       0.031412         0.8548
  68   0.0000       0.070298         1.9129
  69   0.0000       0.121350         3.3021
  70   0.0000       0.124747         3.3945
  71   0.0000       0.129330         3.5193

MULLIKEN ATOMIC CHARGES
-----------------------
   0 S :    0.111958
   1 C :   -0.121596
   2 C :   -0.068012
   3 C :    0.009440
   4 C :   -0.138626
   5 H :    0.003729
   6 C :    0.024994
   7 H :    0.028017
   8 H :    0.041513
   9 C :   -0.118994
  10 H :    0.033392
  11 H :    0.035712
  12 C :   -0.016928
  13 H :    0.031014
  14 H :    0.031734
  15 H :    0.036199
  16 S :    0.122928
  17 C :   -0.075126
  18 C :   -0.029092
  19 C :   -0.056776
  20 C :   -0.145794
  21 H :    0.001985
  22 C :    0.045967
  23 H :    0.014489
  24 H :    0.034026
  25 C :   -0.072671
  26 H :    0.032038
  27 H :    0.016480
  28 C :   -0.018536
  29 H :    0.038107
  30 H :    0.035270
  31 H :    0.030748
  32 H :    0.047847
  33 H :    0.054565
Sum of atomic charges:    0.0000000

LOEWDIN ATOMIC CHARGES
----------------------
   0 S :    0.446452
   1 C :   -0.203721
   2 C :   -0.060312
   3 C :   -0.072629
   4 C :   -0.207789
   5 H :    0.030174
   6 C :   -0.034978
   7 H :    0.032423
   8 H :    0.034843
   9 C :   -0.054351
  10 H :    0.025774
  11 H :    0.020742
  12 C :   -0.066669
  13 H :    0.033259
  14 H :    0.022288
  15 H :    0.032514
  16 S :    0.439343
  17 C :   -0.198384
  18 C :   -0.078158
  19 C :   -0.053284
  20 C :   -0.216018
  21 H :    0.028321
  22 C :   -0.032365
  23 H :    0.022373
  24 H :    0.031187
  25 C :   -0.044663
  26 H :    0.018260
  27 H :    0.026124
  28 C :   -0.060331
  29 H :    0.029208
  30 H :    0.032330
  31 H :    0.018836
  32 H :    0.028770
  33 H :    0.030430

  Mayer bond orders larger than 0.100000
B(  0-S ,  1-C ) :   1.1526 B(  0-S ,  4-C ) :   1.1886 B(  1-C ,  2-C ) :   1.5750
B(  1-C ,  4-C ) :   0.1116 B(  1-C , 32-H ) :   0.9748 B(  2-C ,  3-C ) :   1.2682
B(  2-C ,  6-C ) :   1.0133 B(  3-C ,  4-C ) :   1.5346 B(  3-C ,  5-H ) :   0.9910
B(  4-C , 20-C ) :   1.0297 B(  6-C ,  7-H ) :   0.9488 B(  6-C ,  8-H ) :   0.9300
B(  6-C ,  9-C ) :   1.0641 B(  9-C , 10-H ) :   0.9577 B(  9-C , 11-H ) :   0.9436
B(  9-C , 12-C ) :   1.0741 B( 12-C , 13-H ) :   0.9721 B( 12-C , 14-H ) :   0.9750
B( 12-C , 15-H ) :   0.9721 B( 16-S , 17-C ) :   1.1978 B( 16-S , 20-C ) :   1.1412
B( 17-C , 18-C ) :   1.5473 B( 17-C , 20-C ) :   0.1069 B( 17-C , 33-H ) :   0.9645
B( 18-C , 19-C ) :   1.2941 B( 18-C , 21-H ) :   1.0010 B( 19-C , 20-C ) :   1.5701
B( 19-C , 22-C ) :   1.0268 B( 22-C , 23-H ) :   0.9392 B( 22-C , 24-H ) :   0.9339
B( 22-C , 25-C ) :   1.0568 B( 25-C , 26-H ) :   0.9548 B( 25-C , 27-H ) :   0.9538
B( 25-C , 28-C ) :   1.0669 B( 28-C , 29-H ) :   0.9753 B( 28-C , 30-H ) :   0.9775
B( 28-C , 31-H ) :   0.9783

Dispersion correction           -0.014531935
FINAL SINGLE POINT ENERGY     -1339.876223272300

DIPOLE MOMENT
-------------
                                X             Y             Z
Electronic contribution:    -29.53039      10.89392       9.16103
Nuclear contribution   :     30.04156     -11.26192      -9.21645
                        -----------------------------------------
Total Dipole Moment    :      0.51117      -0.36801      -0.05542
                        -----------------------------------------
Magnitude (a.u.)       :      0.63230
Magnitude (Debye)      :      1.60717

Rotational constants in cm-1:     0.018508     0.009641     0.006719
Rotational constants in MHz :   554.867810   289.019676   201.429199

                             ****ORCA TERMINATED NORMALLY****
TOTAL RUN TIME: 0 days 0 hours 0 minutes 31 seconds 451 msec
