                         Program Version 4.2.1 -  RELEASE  -
|  1> ! wB97X-D3 SP def2-SVP
|  2> %pal
|  3> nprocs 16
|  4> end
|  5>
|  6> * xyz 0 1
|  7> S 	 -53.9956 	 20.6676 	 90.5939
|  8> C 	 -52.2657 	 20.5006 	 90.8053
|  9> C 	 -51.7676 	 21.638 	 91.4066
| 10> C 	 -52.7324 	 22.6001 	 91.7824
| 11> C 	 -53.9717 	 22.2758 	 91.3768
| 12> H 	 -52.458 	 23.5169 	 92.2622
| 13> C 	 -50.1938 	 21.869 	 91.6507
| 14> H 	 -49.9847 	 22.911 	 91.3228
| 15> H 	 -49.5921 	 21.2831 	 90.9598
| 16> C 	 -49.7028 	 21.5971 	 93.171
| 17> H 	 -48.7006 	 21.1513 	 93.2415
| 18> H 	 -49.7334 	 22.4571 	 93.8822
| 19> C 	 -50.4768 	 20.3527 	 93.6695
| 20> H 	 -51.4907 	 20.5362 	 93.8806
| 21> H 	 -50.3247 	 19.4693 	 93.0791
| 22> H 	 -50.1656 	 20.1424 	 94.6672
| 23> S 	 -56.1381 	 23.2732 	 89.9405
| 24> C 	 -57.384 	 24.1918 	 90.8211
| 25> C 	 -56.9347 	 24.5247 	 92.1403
| 26> C 	 -55.6852 	 23.9452 	 92.4572
| 27> C 	 -55.202 	 23.055 	 91.4731
| 28> H 	 -57.5154 	 25.2129 	 92.7731
| 29> C 	 -55.101 	 24.1821 	 93.8646
| 30> H 	 -55.6269 	 24.9622 	 94.3471
| 31> H 	 -54.0585 	 24.4974 	 93.7513
| 32> C 	 -55.1562 	 22.9751 	 94.8092
| 33> H 	 -54.8195 	 21.9904 	 94.3867
| 34> H 	 -56.2012 	 22.6062 	 94.9512
| 35> C 	 -54.4111 	 23.0745 	 96.0837
| 36> H 	 -53.3629 	 23.4537 	 95.9279
| 37> H 	 -54.4184 	 22.1602 	 96.6541
| 38> H 	 -54.8584 	 23.8016 	 96.6716
| 39> H 	 -51.7216 	 19.7513 	 90.3303
| 40> H 	 -58.3194 	 24.4744 	 90.3381
| 41> *
| 42>
| 43>                          ****END OF INPUT****

CARTESIAN COORDINATES (ANGSTROEM)
---------------------------------
  S    -53.995600   20.667600   90.593900
  C    -52.265700   20.500600   90.805300
  C    -51.767600   21.638000   91.406600
  C    -52.732400   22.600100   91.782400
  C    -53.971700   22.275800   91.376800
  H    -52.458000   23.516900   92.262200
  C    -50.193800   21.869000   91.650700
  H    -49.984700   22.911000   91.322800
  H    -49.592100   21.283100   90.959800
  C    -49.702800   21.597100   93.171000
  H    -48.700600   21.151300   93.241500
  H    -49.733400   22.457100   93.882200
  C    -50.476800   20.352700   93.669500
  H    -51.490700   20.536200   93.880600
  H    -50.324700   19.469300   93.079100
  H    -50.165600   20.142400   94.667200
  S    -56.138100   23.273200   89.940500
  C    -57.384000   24.191800   90.821100
  C    -56.934700   24.524700   92.140300
  C    -55.685200   23.945200   92.457200
  C    -55.202000   23.055000   91.473100
  H    -57.515400   25.212900   92.773100
  C    -55.101000   24.182100   93.864600
  H    -55.626900   24.962200   94.347100
  H    -54.058500   24.497400   93.751300
  C    -55.156200   22.975100   94.809200
  H    -54.819500   21.990400   94.386700
  H    -56.201200   22.606200   94.951200
  C    -54.411100   23.074500   96.083700
  H    -53.362900   23.453700   95.927900
  H    -54.418400   22.160200   96.654100
  H    -54.858400   23.801600   96.671600
  H    -51.721600   19.751300   90.330300
  H    -58.319400   24.474400   90.338100

 Total Charge           Charge          ....    0
 Multiplicity           Mult            ....    1
 Number of Electrons    NEL             ....  134
 Basis Dimension        Dim             ....  322

ORBITAL ENERGIES
----------------

  NO   OCC          E(Eh)            E(eV)
   0   2.0000     -88.968841     -2420.9652
   1   2.0000     -88.963797     -2420.8280
   2   2.0000     -10.333647      -281.1928
   3   2.0000     -10.330708      -281.1129
   4   2.0000     -10.326821      -281.0071
   5   2.0000     -10.310264      -280.5565
   6   2.0000     -10.309859      -280.5455
   7   2.0000     -10.304251      -280.3929
   8   2.0000     -10.304089      -280.3885
   9   2.0000     -10.303024      -280.3595
  10   2.0000     -10.296368      -280.1784
  11   2.0000     -10.295416      -280.1525
  12   2.0000     -10.290417      -280.0165
  13   2.0000     -10.283561      -279.8299
  14   2.0000     -10.270811      -279.4830
  15   2.0000     -10.263474      -279.2833
  16   2.0000      -8.081987      -219.9221
  17   2.0000      -8.078181      -219.8185
  18   2.0000      -6.040497      -164.3703
  19   2.0000      -6.036756      -164.2685
  20   2.0000      -6.036739      -164.2680
  21   2.0000      -6.032804      -164.1609
  22   2.0000      -6.032774      -164.1601
  23   2.0000      -6.028857      -164.0535
  24   2.0000      -1.002193       -27.2711
  25   2.0000      -0.976114       -26.5614
  26   2.0000      -0.909962       -24.7613
  27   2.0000      -0.894706       -24.3462
  28   2.0000      -0.865216       -23.5437
  29   2.0000      -0.855379       -23.2760
  30   2.0000      -0.844591       -22.9825
  31   2.0000      -0.809012       -22.0143
  32   2.0000      -0.783531       -21.3210
  33   2.0000      -0.769575       -20.9412
  34   2.0000      -0.705775       -19.2051
  35   2.0000      -0.695852       -18.9351
  36   2.0000      -0.691623       -18.8200
  37   2.0000      -0.663128       -18.0446
  38   2.0000      -0.644971       -17.5506
  39   2.0000      -0.623198       -16.9581
  40   2.0000      -0.595576       -16.2065
  41   2.0000      -0.563491       -15.3334
  42   2.0000      -0.555449       -15.1145
  43   2.0000      -0.552460       -15.0332
  44   2.0000      -0.537680       -14.6310
  45   2.0000      -0.528983       -14.3944
  46   2.0000      -0.516057       -14.0426
  47   2.0000      -0.512201       -13.9377
  48   2.0000      -0.502680       -13.6786
  49   2.0000      -0.494972       -13.4689
  50   2.0000      -0.491471       -13.3736
  51   2.0000      -0.484239       -13.1768
  52   2.0000      -0.473925       -12.8961
  53   2.0000      -0.459457       -12.5025
  54   2.0000      -0.454537       -12.3686
  55   2.0000      -0.447765       -12.1843
  56   2.0000      -0.441048       -12.0015
  57   2.0000      -0.438607       -11.9351
  58   2.0000      -0.428974       -11.6730
  59   2.0000      -0.425193       -11.5701
  60   2.0000      -0.420561       -11.4440
  61   2.0000      -0.407530       -11.0895
  62   2.0000      -0.397391       -10.8136
  63   2.0000      -0.348574        -9.4852
  64   2.0000      -0.334187        -9.0937
  65   2.0000      -0.330333        -8.9888
  66   2.0000      -0.287871        -7.8334
  67   0.0000       0.018296         0.4979
  68   0.0000       0.068782         1.8717
  69   0.0000       0.099419         2.7053
  70   0.0000       0.119839         3.2610
  71   0.0000       0.128803         3.5049

MULLIKEN ATOMIC CHARGES
-----------------------
   0 S :    0.094759
   1 C :   -0.098954
   2 C :   -0.109101
   3 C :    0.043262
   4 C :   -0.128786
   5 H :    0.001273
   6 C :    0.061861
   7 H :    0.033761
   8 H :    0.022823
   9 C :   -0.100408
  10 H :    0.037979
  11 H :    0.044304
  12 C :   -0.024126
  13 H :    0.025616
  14 H :    0.031405
  15 H :    0.006607
  16 S :    0.096789
  17 C :   -0.107719
  18 C :   -0.042575
  19 C :   -0.031815
  20 C :   -0.136713
  21 H :    0.031982
  22 C :    0.115422
  23 H :    0.007929
  24 H :    0.019954
  25 C :   -0.108054
  26 H :    0.029854
  27 H :    0.020743
  28 C :   -0.006364
  29 H :    0.027230
  30 H :    0.036068
  31 H :    0.004744
  32 H :    0.031744
  33 H :    0.068505
Sum of atomic charges:    0.0000000

LOEWDIN ATOMIC CHARGES
----------------------
   0 S :    0.386495
   1 C :   -0.185212
   2 C :   -0.056216
   3 C :   -0.060644
   4 C :   -0.176255
   5 H :    0.031239
   6 C :   -0.029899
   7 H :    0.029853
   8 H :    0.027188
   9 C :   -0.045041
  10 H :    0.030008
  11 H :    0.027028
  12 C :   -0.062864
  13 H :    0.017753
  14 H :    0.023428
  15 H :    0.019620
  16 S :    0.380780
  17 C :   -0.177104
  18 C :   -0.071601
  19 C :   -0.051062
  20 C :   -0.181814
  21 H :    0.036506
  22 C :   -0.020875
  23 H :    0.025097
  24 H :    0.028573
  25 C :   -0.056915
  26 H :    0.029391
  27 H :    0.027963
  28 C :   -0.061857
  29 H :    0.029639
  30 H :    0.030049
  31 H :    0.011457
  32 H :    0.016039
  33 H :    0.029250

  Mayer bond orders larger than 0.100000
B(  0-S ,  1-C ) :   1.1304 B(  0-S ,  4-C ) :   1.1400 B(  1-C ,  2-C ) :   1.6181
B(  1-C , 32-H ) :   0.9769 B(  2-C ,  3-C ) :   1.2414 B(  2-C ,  6-C ) :   1.0142
B(  3-C ,  4-C ) :   1.5789 B(  3-C ,  5-H ) :   1.0031 B(  4-C , 20-C ) :   1.0500
B(  6-C ,  7-H ) :   0.9532 B(  6-C ,  8-H ) :   0.9493 B(  6-C ,  9-C ) :   1.0406
B(  9-C , 10-H ) :   0.9660 B(  9-C , 11-H ) :   0.9619 B(  9-C , 12-C ) :   1.0777
B( 12-C , 13-H ) :   0.9650 B( 12-C , 14-H ) :   0.9787 B( 12-C , 15-H ) :   0.9688
B( 16-S , 17-C ) :   1.1645 B( 16-S , 20-C ) :   1.1405 B( 17-C , 18-C ) :   1.5613
B( 17-C , 20-C ) :   0.1212 B( 17-C , 33-H ) :   0.9694 B( 18-C , 19-C ) :   1.2735
B( 18-C , 21-H ) :   0.9865 B( 19-C , 20-C ) :   1.5594 B( 19-C , 22-C ) :   1.0456
B( 22-C , 23-H ) :   0.9325 B( 22-C , 24-H ) :   0.9300 B( 22-C , 25-C ) :   1.0569
B( 25-C , 26-H ) :   0.9557 B( 25-C , 27-H ) :   0.9457 B( 25-C , 28-C ) :   1.0931
B( 28-C , 29-H ) :   0.9693 B( 28-C , 30-H ) :   0.9691 B( 28-C , 31-H ) :   0.9713

Dispersion correction           -0.015072014
FINAL SINGLE POINT ENERGY     -1339.857047890507

DIPOLE MOMENT
-------------
                                X             Y             Z
Electronic contribution:    -16.54717      -0.04736     -24.88453
Nuclear contribution   :     16.84277       0.33286      25.37722
                        -----------------------------------------
Total Dipole Moment    :      0.29560       0.28550       0.49269
                        -----------------------------------------
Magnitude (a.u.)       :      0.64159
Magnitude (Debye)      :      1.63078

Rotational constants in cm-1:     0.018500     0.009717     0.007140
Rotational constants in MHz :   554.623268   291.303640   214.051819

                             ****ORCA TERMINATED NORMALLY****
TOTAL RUN TIME: 0 days 0 hours 0 minutes 29 seconds 316 msec
