                         Program Version 4.2.1 -  RELEASE  -
|  1> ! wB97X-D3 SP def2-SVP
|  2> %pal
|  3> nprocs 16
|  4> end
|  5>
|  6> * xyz 0 1
|  7> S 	 0.0920315 	 -23.5007 	 58.4044
|  8> C 	 0.449856 	 -21.8457 	 58.2551
|  9> C 	 0.173597 	 -21.1916 	 59.4234
| 10> C 	 -0.194611 	 -22.0939 	 60.4383
| 11> C 	 -0.0535764 	 -23.4373 	 60.0828
| 12> H 	 -0.558226 	 -21.8868 	 61.4568
| 13> C 	 0.314182 	 -19.7135 	 59.7072
| 14> H 	 -0.568157 	 -19.1517 	 59.544
| 15> H 	 0.886352 	 -19.2535 	 58.8723
| 16> C 	 1.06759 	 -19.2323 	 60.986
| 17> H 	 1.06431 	 -18.1575 	 60.9851
| 18> H 	 0.602285 	 -19.589 	 61.9279
| 19> C 	 2.53756 	 -19.7418 	 61.0302
| 20> H 	 3.11289 	 -19.255 	 60.2355
| 21> H 	 2.95461 	 -19.7693 	 62.057
| 22> H 	 2.60929 	 -20.7159 	 60.6653
| 23> S 	 -1.93852 	 -25.5768 	 60.1635
| 24> C 	 -1.79072 	 -26.5928 	 61.4851
| 25> C 	 -0.817028 	 -26.266 	 62.4137
| 26> C 	 -0.0671724 	 -25.1431 	 62.0297
| 27> C 	 -0.572301 	 -24.5775 	 60.8568
| 28> H 	 -0.653815 	 -26.8213 	 63.3054
| 29> C 	 1.05365 	 -24.7684 	 63.0221
| 30> H 	 0.596158 	 -24.5678 	 63.9812
| 31> H 	 1.49553 	 -23.7975 	 62.7607
| 32> C 	 2.17494 	 -25.7699 	 63.2747
| 33> H 	 1.94388 	 -26.7314 	 63.7812
| 34> H 	 2.96955 	 -25.3116 	 63.8779
| 35> C 	 2.9215 	 -26.0631 	 61.9556
| 36> H 	 3.46264 	 -25.1998 	 61.5768
| 37> H 	 2.17714 	 -26.4088 	 61.1738
| 38> H 	 3.70027 	 -26.83 	 62.0521
| 39> H 	 0.89779 	 -21.3974 	 57.4116
| 40> H 	 -2.61436 	 -27.2043 	 61.8282
| 41> *
| 42>
| 43>                          ****END OF INPUT****

CARTESIAN COORDINATES (ANGSTROEM)
---------------------------------
  S      0.092032  -23.500700   58.404400
  C      0.449856  -21.845700   58.255100
  C      0.173597  -21.191600   59.423400
  C     -0.194611  -22.093900   60.438300
  C     -0.053576  -23.437300   60.082800
  H     -0.558226  -21.886800   61.456800
  C      0.314182  -19.713500   59.707200
  H     -0.568157  -19.151700   59.544000
  H      0.886352  -19.253500   58.872300
  C      1.067590  -19.232300   60.986000
  H      1.064310  -18.157500   60.985100
  H      0.602285  -19.589000   61.927900
  C      2.537560  -19.741800   61.030200
  H      3.112890  -19.255000   60.235500
  H      2.954610  -19.769300   62.057000
  H      2.609290  -20.715900   60.665300
  S     -1.938520  -25.576800   60.163500
  C     -1.790720  -26.592800   61.485100
  C     -0.817028  -26.266000   62.413700
  C     -0.067172  -25.143100   62.029700
  C     -0.572301  -24.577500   60.856800
  H     -0.653815  -26.821300   63.305400
  C      1.053650  -24.768400   63.022100
  H      0.596158  -24.567800   63.981200
  H      1.495530  -23.797500   62.760700
  C      2.174940  -25.769900   63.274700
  H      1.943880  -26.731400   63.781200
  H      2.969550  -25.311600   63.877900
  C      2.921500  -26.063100   61.955600
  H      3.462640  -25.199800   61.576800
  H      2.177140  -26.408800   61.173800
  H      3.700270  -26.830000   62.052100
  H      0.897790  -21.397400   57.411600
  H     -2.614360  -27.204300   61.828200

 Total Charge           Charge          ....    0
 Multiplicity           Mult            ....    1
 Number of Electrons    NEL             ....  134
 Basis Dimension        Dim             ....  322

ORBITAL ENERGIES
----------------

  NO   OCC          E(Eh)            E(eV)
   0   2.0000     -88.970209     -2421.0025
   1   2.0000     -88.963230     -2420.8125
   2   2.0000     -10.333732      -281.1951
   3   2.0000     -10.322396      -280.8867
   4   2.0000     -10.309659      -280.5401
   5   2.0000     -10.306588      -280.4565
   6   2.0000     -10.305155      -280.4175
   7   2.0000     -10.298463      -280.2354
   8   2.0000     -10.296557      -280.1836
   9   2.0000     -10.291795      -280.0540
  10   2.0000     -10.291028      -280.0331
  11   2.0000     -10.290703      -280.0243
  12   2.0000     -10.290492      -280.0185
  13   2.0000     -10.285828      -279.8916
  14   2.0000     -10.274078      -279.5719
  15   2.0000     -10.271630      -279.5053
  16   2.0000      -8.085180      -220.0089
  17   2.0000      -8.080194      -219.8732
  18   2.0000      -6.043491      -164.4518
  19   2.0000      -6.039782      -164.3508
  20   2.0000      -6.038445      -164.3145
  21   2.0000      -6.036001      -164.2479
  22   2.0000      -6.034414      -164.2047
  23   2.0000      -6.031053      -164.1133
  24   2.0000      -1.016854       -27.6700
  25   2.0000      -0.992244       -27.0003
  26   2.0000      -0.910948       -24.7882
  27   2.0000      -0.909061       -24.7368
  28   2.0000      -0.868278       -23.6270
  29   2.0000      -0.853937       -23.2368
  30   2.0000      -0.844723       -22.9861
  31   2.0000      -0.808724       -22.0065
  32   2.0000      -0.786125       -21.3915
  33   2.0000      -0.776749       -21.1364
  34   2.0000      -0.708646       -19.2832
  35   2.0000      -0.697892       -18.9906
  36   2.0000      -0.689448       -18.7608
  37   2.0000      -0.657920       -17.9029
  38   2.0000      -0.644965       -17.5504
  39   2.0000      -0.621636       -16.9156
  40   2.0000      -0.599891       -16.3239
  41   2.0000      -0.570650       -15.5282
  42   2.0000      -0.552987       -15.0475
  43   2.0000      -0.551092       -14.9960
  44   2.0000      -0.543023       -14.7764
  45   2.0000      -0.534605       -14.5473
  46   2.0000      -0.514706       -14.0059
  47   2.0000      -0.512648       -13.9499
  48   2.0000      -0.501531       -13.6473
  49   2.0000      -0.498354       -13.5609
  50   2.0000      -0.485316       -13.2061
  51   2.0000      -0.479190       -13.0394
  52   2.0000      -0.471753       -12.8371
  53   2.0000      -0.460378       -12.5275
  54   2.0000      -0.452414       -12.3108
  55   2.0000      -0.449571       -12.2334
  56   2.0000      -0.442823       -12.0498
  57   2.0000      -0.435605       -11.8534
  58   2.0000      -0.433145       -11.7865
  59   2.0000      -0.426706       -11.6113
  60   2.0000      -0.419356       -11.4113
  61   2.0000      -0.414847       -11.2886
  62   2.0000      -0.411943       -11.2095
  63   2.0000      -0.348754        -9.4901
  64   2.0000      -0.336590        -9.1591
  65   2.0000      -0.328171        -8.9300
  66   2.0000      -0.290061        -7.8930
  67   0.0000       0.034381         0.9355
  68   0.0000       0.056741         1.5440
  69   0.0000       0.112955         3.0737
  70   0.0000       0.122992         3.3468
  71   0.0000       0.128082         3.4853

MULLIKEN ATOMIC CHARGES
-----------------------
   0 S :    0.110169
   1 C :   -0.102538
   2 C :   -0.063059
   3 C :    0.000272
   4 C :   -0.138504
   5 H :    0.022816
   6 C :    0.068558
   7 H :    0.029005
   8 H :    0.001955
   9 C :   -0.071487
  10 H :    0.031637
  11 H :    0.032489
  12 C :   -0.039850
  13 H :    0.019412
  14 H :    0.045081
  15 H :    0.015405
  16 S :    0.120786
  17 C :   -0.073368
  18 C :   -0.044848
  19 C :   -0.022772
  20 C :   -0.196226
  21 H :    0.008739
  22 C :    0.092584
  23 H :    0.031376
  24 H :    0.017132
  25 C :   -0.087465
  26 H :    0.040580
  27 H :    0.033359
  28 C :   -0.085227
  29 H :    0.029017
  30 H :    0.053172
  31 H :    0.029265
  32 H :    0.031390
  33 H :    0.061145
Sum of atomic charges:    0.0000000

LOEWDIN ATOMIC CHARGES
----------------------
   0 S :    0.453207
   1 C :   -0.203466
   2 C :   -0.069290
   3 C :   -0.063242
   4 C :   -0.219788
   5 H :    0.033196
   6 C :   -0.036850
   7 H :    0.029665
   8 H :    0.032365
   9 C :   -0.035670
  10 H :    0.023309
  11 H :    0.022354
  12 C :   -0.070094
  13 H :    0.026625
  14 H :    0.032127
  15 H :    0.017434
  16 S :    0.409380
  17 C :   -0.209501
  18 C :   -0.068273
  19 C :   -0.051662
  20 C :   -0.180222
  21 H :    0.026512
  22 C :   -0.027832
  23 H :    0.033184
  24 H :    0.030680
  25 C :   -0.047054
  26 H :    0.025709
  27 H :    0.030613
  28 C :   -0.072319
  29 H :    0.022631
  30 H :    0.032398
  31 H :    0.022517
  32 H :    0.021800
  33 H :    0.029553

  Mayer bond orders larger than 0.100000
B(  0-S ,  1-C ) :   1.1678 B(  0-S ,  4-C ) :   1.1835 B(  1-C ,  2-C ) :   1.5623
B(  1-C , 32-H ) :   0.9750 B(  2-C ,  3-C ) :   1.2764 B(  2-C ,  6-C ) :   1.0219
B(  3-C ,  4-C ) :   1.5278 B(  3-C ,  5-H ) :   0.9943 B(  4-C , 20-C ) :   1.0248
B(  6-C ,  7-H ) :   0.9318 B(  6-C ,  8-H ) :   0.9356 B(  6-C ,  9-C ) :   1.0729
B(  9-C , 10-H ) :   0.9571 B(  9-C , 11-H ) :   0.9576 B(  9-C , 12-C ) :   1.0673
B( 12-C , 13-H ) :   0.9702 B( 12-C , 14-H ) :   0.9761 B( 12-C , 15-H ) :   0.9749
B( 16-S , 17-C ) :   1.1753 B( 16-S , 20-C ) :   1.1341 B( 17-C , 18-C ) :   1.6039
B( 17-C , 33-H ) :   0.9534 B( 18-C , 19-C ) :   1.2446 B( 18-C , 21-H ) :   0.9957
B( 19-C , 20-C ) :   1.6126 B( 19-C , 22-C ) :   1.0282 B( 22-C , 23-H ) :   0.9377
B( 22-C , 24-H ) :   0.9323 B( 22-C , 25-C ) :   1.0777 B( 25-C , 26-H ) :   0.9569
B( 25-C , 27-H ) :   0.9531 B( 25-C , 28-C ) :   1.0698 B( 28-C , 29-H ) :   0.9760
B( 28-C , 30-H ) :   0.9747 B( 28-C , 31-H ) :   0.9755

Dispersion correction           -0.014675752
FINAL SINGLE POINT ENERGY     -1339.862650658583

DIPOLE MOMENT
-------------
                                X             Y             Z
Electronic contribution:    -19.02678     -11.68008     -14.50258
Nuclear contribution   :     19.18053      11.99984      14.98149
                        -----------------------------------------
Total Dipole Moment    :      0.15376       0.31975       0.47891
                        -----------------------------------------
Magnitude (a.u.)       :      0.59602
Magnitude (Debye)      :      1.51496

Rotational constants in cm-1:     0.018600     0.009259     0.007323
Rotational constants in MHz :   557.626898   277.589131   219.547447

                             ****ORCA TERMINATED NORMALLY****
TOTAL RUN TIME: 0 days 0 hours 0 minutes 35 seconds 381 msec
