                         Program Version 4.2.1 -  RELEASE  -
|  1> ! wB97X-D3 SP def2-SVP
|  2> %pal
|  3> nprocs 16
|  4> end
|  5>
|  6> * xyz 0 1
|  7> S 	 13.0525 	 21.8655 	 53.4322
|  8> C 	 14.3771 	 22.238 	 54.4403
|  9> C 	 15.1632 	 23.2407 	 53.8943
| 10> C 	 14.6708 	 23.8243 	 52.6793
| 11> C 	 13.4504 	 23.2742 	 52.3195
| 12> H 	 15.0319 	 24.6163 	 52.139
| 13> C 	 16.3594 	 23.6746 	 54.63
| 14> H 	 16.9269 	 24.4693 	 54.1532
| 15> H 	 17.0496 	 22.8178 	 54.5874
| 16> C 	 16.1004 	 24.1073 	 56.1211
| 17> H 	 15.4293 	 24.9957 	 56.0582
| 18> H 	 15.6172 	 23.3215 	 56.6678
| 19> C 	 17.3866 	 24.5547 	 56.8104
| 20> H 	 17.251 	 24.7955 	 57.9068
| 21> H 	 18.1791 	 23.7848 	 56.5581
| 22> H 	 17.7146 	 25.5004 	 56.4267
| 23> S 	 12.7886 	 22.2833 	 49.7631
| 24> C 	 12.3303 	 23.3931 	 48.5093
| 25> C 	 12.3915 	 24.6916 	 48.968
| 26> C 	 12.5492 	 24.7883 	 50.3908
| 27> C 	 12.7897 	 23.5546 	 51.0239
| 28> H 	 12.2696 	 25.5315 	 48.2632
| 29> C 	 12.5018 	 26.1617 	 50.9431
| 30> H 	 12.1316 	 26.0432 	 51.9904
| 31> H 	 11.7102 	 26.6934 	 50.3051
| 32> C 	 13.7608 	 27.0803 	 50.8791
| 33> H 	 14.2436 	 26.9155 	 49.8177
| 34> H 	 14.5092 	 26.7965 	 51.6289
| 35> C 	 13.4381 	 28.5967 	 51.0221
| 36> H 	 12.9635 	 29.0212 	 50.1126
| 37> H 	 14.4068 	 29.111 	 51.0956
| 38> H 	 12.7419 	 28.9381 	 51.8349
| 39> H 	 14.6458 	 21.8018 	 55.3916
| 40> H 	 12.1212 	 23.0189 	 47.5608
| 41> *
| 42>
| 43>                          ****END OF INPUT****

CARTESIAN COORDINATES (ANGSTROEM)
---------------------------------
  S     13.052500   21.865500   53.432200
  C     14.377100   22.238000   54.440300
  C     15.163200   23.240700   53.894300
  C     14.670800   23.824300   52.679300
  C     13.450400   23.274200   52.319500
  H     15.031900   24.616300   52.139000
  C     16.359400   23.674600   54.630000
  H     16.926900   24.469300   54.153200
  H     17.049600   22.817800   54.587400
  C     16.100400   24.107300   56.121100
  H     15.429300   24.995700   56.058200
  H     15.617200   23.321500   56.667800
  C     17.386600   24.554700   56.810400
  H     17.251000   24.795500   57.906800
  H     18.179100   23.784800   56.558100
  H     17.714600   25.500400   56.426700
  S     12.788600   22.283300   49.763100
  C     12.330300   23.393100   48.509300
  C     12.391500   24.691600   48.968000
  C     12.549200   24.788300   50.390800
  C     12.789700   23.554600   51.023900
  H     12.269600   25.531500   48.263200
  C     12.501800   26.161700   50.943100
  H     12.131600   26.043200   51.990400
  H     11.710200   26.693400   50.305100
  C     13.760800   27.080300   50.879100
  H     14.243600   26.915500   49.817700
  H     14.509200   26.796500   51.628900
  C     13.438100   28.596700   51.022100
  H     12.963500   29.021200   50.112600
  H     14.406800   29.111000   51.095600
  H     12.741900   28.938100   51.834900
  H     14.645800   21.801800   55.391600
  H     12.121200   23.018900   47.560800

 Total Charge           Charge          ....    0
 Multiplicity           Mult            ....    1
 Number of Electrons    NEL             ....  134
 Basis Dimension        Dim             ....  322

ORBITAL ENERGIES
----------------

  NO   OCC          E(Eh)            E(eV)
   0   2.0000     -88.968389     -2420.9529
   1   2.0000     -88.960524     -2420.7389
   2   2.0000     -10.337385      -281.2946
   3   2.0000     -10.332577      -281.1637
   4   2.0000     -10.314659      -280.6761
   5   2.0000     -10.311828      -280.5991
   6   2.0000     -10.305050      -280.4147
   7   2.0000     -10.304725      -280.4058
   8   2.0000     -10.298043      -280.2240
   9   2.0000     -10.297609      -280.2122
  10   2.0000     -10.295300      -280.1494
  11   2.0000     -10.295018      -280.1417
  12   2.0000     -10.290934      -280.0305
  13   2.0000     -10.289650      -279.9956
  14   2.0000     -10.289095      -279.9805
  15   2.0000     -10.285493      -279.8825
  16   2.0000      -8.082289      -219.9303
  17   2.0000      -8.075349      -219.7414
  18   2.0000      -6.040790      -164.3783
  19   2.0000      -6.036941      -164.2735
  20   2.0000      -6.033937      -164.1918
  21   2.0000      -6.033069      -164.1681
  22   2.0000      -6.029772      -164.0784
  23   2.0000      -6.026079      -163.9779
  24   2.0000      -1.000729       -27.2312
  25   2.0000      -0.982885       -26.7457
  26   2.0000      -0.910475       -24.7753
  27   2.0000      -0.904422       -24.6106
  28   2.0000      -0.870608       -23.6905
  29   2.0000      -0.852415       -23.1954
  30   2.0000      -0.848366       -23.0852
  31   2.0000      -0.816499       -22.2181
  32   2.0000      -0.776716       -21.1355
  33   2.0000      -0.761676       -20.7263
  34   2.0000      -0.708596       -19.2819
  35   2.0000      -0.700691       -19.0668
  36   2.0000      -0.692017       -18.8307
  37   2.0000      -0.665015       -18.0960
  38   2.0000      -0.646503       -17.5922
  39   2.0000      -0.613180       -16.6855
  40   2.0000      -0.595324       -16.1996
  41   2.0000      -0.575115       -15.6497
  42   2.0000      -0.562672       -15.3111
  43   2.0000      -0.558648       -15.2016
  44   2.0000      -0.525460       -14.2985
  45   2.0000      -0.522645       -14.2219
  46   2.0000      -0.519293       -14.1307
  47   2.0000      -0.514280       -13.9943
  48   2.0000      -0.511322       -13.9138
  49   2.0000      -0.497616       -13.5408
  50   2.0000      -0.490688       -13.3523
  51   2.0000      -0.482890       -13.1401
  52   2.0000      -0.466835       -12.7032
  53   2.0000      -0.460463       -12.5298
  54   2.0000      -0.454209       -12.3597
  55   2.0000      -0.449266       -12.2251
  56   2.0000      -0.447624       -12.1805
  57   2.0000      -0.435907       -11.8616
  58   2.0000      -0.431028       -11.7289
  59   2.0000      -0.424754       -11.5581
  60   2.0000      -0.419858       -11.4249
  61   2.0000      -0.416640       -11.3373
  62   2.0000      -0.415374       -11.3029
  63   2.0000      -0.350642        -9.5415
  64   2.0000      -0.325739        -8.8638
  65   2.0000      -0.322878        -8.7860
  66   2.0000      -0.292996        -7.9728
  67   0.0000       0.026394         0.7182
  68   0.0000       0.062078         1.6892
  69   0.0000       0.110811         3.0153
  70   0.0000       0.122843         3.3427
  71   0.0000       0.127944         3.4815

MULLIKEN ATOMIC CHARGES
-----------------------
   0 S :    0.112339
   1 C :   -0.105929
   2 C :   -0.078568
   3 C :    0.093607
   4 C :   -0.169078
   5 H :   -0.030437
   6 C :    0.036225
   7 H :    0.011410
   8 H :    0.035244
   9 C :   -0.083833
  10 H :    0.039268
  11 H :    0.027802
  12 C :   -0.058269
  13 H :    0.047320
  14 H :    0.039784
  15 H :    0.020991
  16 S :    0.085212
  17 C :   -0.074104
  18 C :   -0.035606
  19 C :   -0.056848
  20 C :   -0.107309
  21 H :    0.031634
  22 C :    0.014724
  23 H :    0.043695
  24 H :    0.035871
  25 C :   -0.100551
  26 H :    0.043757
  27 H :    0.044914
  28 C :   -0.073289
  29 H :    0.032820
  30 H :    0.039402
  31 H :    0.048465
  32 H :    0.049029
  33 H :    0.040307
Sum of atomic charges:    0.0000000

LOEWDIN ATOMIC CHARGES
----------------------
   0 S :    0.392880
   1 C :   -0.203864
   2 C :   -0.068343
   3 C :   -0.034147
   4 C :   -0.171362
   5 H :    0.017941
   6 C :   -0.040080
   7 H :    0.025787
   8 H :    0.033324
   9 C :   -0.037111
  10 H :    0.030258
  11 H :    0.015567
  12 C :   -0.074071
  13 H :    0.035069
  14 H :    0.031580
  15 H :    0.019211
  16 S :    0.393449
  17 C :   -0.170009
  18 C :   -0.076042
  19 C :   -0.062686
  20 C :   -0.192324
  21 H :    0.035612
  22 C :   -0.046506
  23 H :    0.037546
  24 H :    0.040660
  25 C :   -0.046473
  26 H :    0.036521
  27 H :    0.020941
  28 C :   -0.078070
  29 H :    0.026433
  30 H :    0.030123
  31 H :    0.031873
  32 H :    0.030507
  33 H :    0.015809

  Mayer bond orders larger than 0.100000
B(  0-S ,  1-C ) :   1.1448 B(  0-S ,  4-C ) :   1.1345 B(  1-C ,  2-C ) :   1.5949
B(  1-C , 32-H ) :   0.9686 B(  2-C ,  3-C ) :   1.2360 B(  2-C ,  6-C ) :   1.0339
B(  3-C ,  4-C ) :   1.5608 B(  3-C ,  5-H ) :   1.0096 B(  4-C , 20-C ) :   1.0350
B(  6-C ,  7-H ) :   0.9490 B(  6-C ,  8-H ) :   0.9280 B(  6-C ,  9-C ) :   1.0570
B(  9-C , 10-H ) :   0.9575 B(  9-C , 11-H ) :   0.9565 B(  9-C , 12-C ) :   1.0813
B( 12-C , 13-H ) :   0.9719 B( 12-C , 14-H ) :   0.9734 B( 12-C , 15-H ) :   0.9739
B( 16-S , 17-C ) :   1.1716 B( 16-S , 20-C ) :   1.1264 B( 17-C , 18-C ) :   1.5793
B( 17-C , 33-H ) :   0.9801 B( 18-C , 19-C ) :   1.2477 B( 18-C , 21-H ) :   0.9881
B( 19-C , 20-C ) :   1.5775 B( 19-C , 22-C ) :   1.0538 B( 22-C , 23-H ) :   0.9303
B( 22-C , 24-H ) :   0.9417 B( 22-C , 25-C ) :   1.0505 B( 25-C , 26-H ) :   0.9550
B( 25-C , 27-H ) :   0.9515 B( 25-C , 28-C ) :   1.0709 B( 28-C , 29-H ) :   0.9743
B( 28-C , 30-H ) :   0.9739 B( 28-C , 31-H ) :   0.9760

Dispersion correction           -0.013840144
FINAL SINGLE POINT ENERGY     -1339.867394052784

DIPOLE MOMENT
-------------
                                X             Y             Z
Electronic contribution:    -14.48564     -24.71677     -12.34823
Nuclear contribution   :     14.95548      25.39482      12.37922
                        -----------------------------------------
Total Dipole Moment    :      0.46984       0.67806       0.03100
                        -----------------------------------------
Magnitude (a.u.)       :      0.82551
Magnitude (Debye)      :      2.09829

Rotational constants in cm-1:     0.017513     0.008409     0.006109
Rotational constants in MHz :   525.035826   252.086337   183.144197

                             ****ORCA TERMINATED NORMALLY****
TOTAL RUN TIME: 0 days 0 hours 0 minutes 34 seconds 360 msec
