                         Program Version 4.2.1 -  RELEASE  -
|  1> ! wB97X-D3 SP def2-SVP
|  2> %pal
|  3> nprocs 16
|  4> end
|  5>
|  6> * xyz 0 1
|  7> S 	 12.2018 	 -11.6188 	 89.3141
|  8> C 	 13.5037 	 -12.5951 	 88.8526
|  9> C 	 13.1144 	 -13.8516 	 88.441
| 10> C 	 11.7033 	 -14.0629 	 88.5495
| 11> C 	 11.0599 	 -12.9807 	 89.1125
| 12> H 	 11.2002 	 -14.9792 	 88.4525
| 13> C 	 14.0291 	 -14.9149 	 87.768
| 14> H 	 14.3684 	 -14.5353 	 86.8388
| 15> H 	 13.4996 	 -15.7777 	 87.5708
| 16> C 	 15.3818 	 -15.1862 	 88.4558
| 17> H 	 16.0778 	 -15.6545 	 87.6432
| 18> H 	 15.8574 	 -14.2765 	 88.6875
| 19> C 	 15.2596 	 -16.0464 	 89.757
| 20> H 	 14.7065 	 -15.5242 	 90.5526
| 21> H 	 14.8753 	 -17.0674 	 89.6135
| 22> H 	 16.3102 	 -16.0544 	 90.0407
| 23> S 	 8.62116 	 -11.6219 	 88.72
| 24> C 	 7.21045 	 -12.062 	 89.7153
| 25> C 	 7.42669 	 -13.2551 	 90.3725
| 26> C 	 8.75162 	 -13.7571 	 90.1824
| 27> C 	 9.62471 	 -12.8939 	 89.4684
| 28> H 	 6.65192 	 -13.6954 	 90.9554
| 29> C 	 9.1239 	 -15.1143 	 90.881
| 30> H 	 10.0627 	 -15.4169 	 90.4419
| 31> H 	 8.33293 	 -15.8114 	 90.5336
| 32> C 	 9.24482 	 -15.2131 	 92.393
| 33> H 	 8.34681 	 -15.1558 	 92.8513
| 34> H 	 9.91168 	 -14.3889 	 92.7979
| 35> C 	 9.85863 	 -16.5619 	 92.8676
| 36> H 	 10.1265 	 -17.2269 	 92.0298
| 37> H 	 9.18602 	 -17.0357 	 93.5687
| 38> H 	 10.7456 	 -16.3302 	 93.4309
| 39> H 	 14.5124 	 -12.3252 	 88.6563
| 40> H 	 6.26589 	 -11.5165 	 89.6671
| 41> *
| 42>
| 43>                          ****END OF INPUT****

CARTESIAN COORDINATES (ANGSTROEM)
---------------------------------
  S     12.201800  -11.618800   89.314100
  C     13.503700  -12.595100   88.852600
  C     13.114400  -13.851600   88.441000
  C     11.703300  -14.062900   88.549500
  C     11.059900  -12.980700   89.112500
  H     11.200200  -14.979200   88.452500
  C     14.029100  -14.914900   87.768000
  H     14.368400  -14.535300   86.838800
  H     13.499600  -15.777700   87.570800
  C     15.381800  -15.186200   88.455800
  H     16.077800  -15.654500   87.643200
  H     15.857400  -14.276500   88.687500
  C     15.259600  -16.046400   89.757000
  H     14.706500  -15.524200   90.552600
  H     14.875300  -17.067400   89.613500
  H     16.310200  -16.054400   90.040700
  S      8.621160  -11.621900   88.720000
  C      7.210450  -12.062000   89.715300
  C      7.426690  -13.255100   90.372500
  C      8.751620  -13.757100   90.182400
  C      9.624710  -12.893900   89.468400
  H      6.651920  -13.695400   90.955400
  C      9.123900  -15.114300   90.881000
  H     10.062700  -15.416900   90.441900
  H      8.332930  -15.811400   90.533600
  C      9.244820  -15.213100   92.393000
  H      8.346810  -15.155800   92.851300
  H      9.911680  -14.388900   92.797900
  C      9.858630  -16.561900   92.867600
  H     10.126500  -17.226900   92.029800
  H      9.186020  -17.035700   93.568700
  H     10.745600  -16.330200   93.430900
  H     14.512400  -12.325200   88.656300
  H      6.265890  -11.516500   89.667100

 Total Charge           Charge          ....    0
 Multiplicity           Mult            ....    1
 Number of Electrons    NEL             ....  134
 Basis Dimension        Dim             ....  322

ORBITAL ENERGIES
----------------

  NO   OCC          E(Eh)            E(eV)
   0   2.0000     -88.970023     -2420.9974
   1   2.0000     -88.963169     -2420.8109
   2   2.0000     -10.334932      -281.2278
   3   2.0000     -10.334034      -281.2034
   4   2.0000     -10.320963      -280.8477
   5   2.0000     -10.310339      -280.5586
   6   2.0000     -10.307725      -280.4875
   7   2.0000     -10.299769      -280.2710
   8   2.0000     -10.294058      -280.1156
   9   2.0000     -10.294025      -280.1147
  10   2.0000     -10.293447      -280.0989
  11   2.0000     -10.291988      -280.0592
  12   2.0000     -10.283313      -279.8232
  13   2.0000     -10.280141      -279.7369
  14   2.0000     -10.279805      -279.7277
  15   2.0000     -10.275736      -279.6170
  16   2.0000      -8.084848      -219.9999
  17   2.0000      -8.076985      -219.7859
  18   2.0000      -6.043391      -164.4490
  19   2.0000      -6.039312      -164.3380
  20   2.0000      -6.035612      -164.2374
  21   2.0000      -6.035576      -164.2364
  22   2.0000      -6.031621      -164.1288
  23   2.0000      -6.027676      -164.0214
  24   2.0000      -1.002874       -27.2896
  25   2.0000      -0.979647       -26.6576
  26   2.0000      -0.906920       -24.6785
  27   2.0000      -0.903752       -24.5923
  28   2.0000      -0.868055       -23.6210
  29   2.0000      -0.850420       -23.1411
  30   2.0000      -0.842980       -22.9387
  31   2.0000      -0.813591       -22.1389
  32   2.0000      -0.783435       -21.3184
  33   2.0000      -0.770458       -20.9652
  34   2.0000      -0.707425       -19.2500
  35   2.0000      -0.700785       -19.0693
  36   2.0000      -0.690874       -18.7996
  37   2.0000      -0.660187       -17.9646
  38   2.0000      -0.643450       -17.5092
  39   2.0000      -0.614211       -16.7135
  40   2.0000      -0.592484       -16.1223
  41   2.0000      -0.575634       -15.6638
  42   2.0000      -0.567527       -15.4432
  43   2.0000      -0.545353       -14.8398
  44   2.0000      -0.537555       -14.6276
  45   2.0000      -0.523659       -14.2495
  46   2.0000      -0.520531       -14.1644
  47   2.0000      -0.511114       -13.9081
  48   2.0000      -0.504406       -13.7256
  49   2.0000      -0.497124       -13.5274
  50   2.0000      -0.486906       -13.2494
  51   2.0000      -0.483921       -13.1682
  52   2.0000      -0.474864       -12.9217
  53   2.0000      -0.464920       -12.6511
  54   2.0000      -0.462253       -12.5785
  55   2.0000      -0.446958       -12.1624
  56   2.0000      -0.446122       -12.1396
  57   2.0000      -0.438904       -11.9432
  58   2.0000      -0.432807       -11.7773
  59   2.0000      -0.419970       -11.4280
  60   2.0000      -0.417103       -11.3500
  61   2.0000      -0.414829       -11.2881
  62   2.0000      -0.407430       -11.0867
  63   2.0000      -0.348652        -9.4873
  64   2.0000      -0.330135        -8.9834
  65   2.0000      -0.327173        -8.9028
  66   2.0000      -0.292665        -7.9638
  67   0.0000       0.026746         0.7278
  68   0.0000       0.067081         1.8254
  69   0.0000       0.107312         2.9201
  70   0.0000       0.124824         3.3966
  71   0.0000       0.128608         3.4996

MULLIKEN ATOMIC CHARGES
-----------------------
   0 S :    0.133736
   1 C :   -0.090529
   2 C :   -0.127688
   3 C :    0.065852
   4 C :   -0.177151
   5 H :    0.004360
   6 C :    0.144817
   7 H :    0.021529
   8 H :   -0.005840
   9 C :   -0.125617
  10 H :    0.039018
  11 H :    0.014233
  12 C :   -0.052220
  13 H :    0.047392
  14 H :    0.041868
  15 H :    0.032596
  16 S :    0.086335
  17 C :   -0.100973
  18 C :   -0.016736
  19 C :   -0.043224
  20 C :   -0.149548
  21 H :    0.014765
  22 C :    0.053437
  23 H :    0.005016
  24 H :    0.034820
  25 C :   -0.032697
  26 H :   -0.000874
  27 H :    0.044695
  28 C :   -0.059117
  29 H :    0.038308
  30 H :    0.030606
  31 H :    0.031135
  32 H :    0.031499
  33 H :    0.066197
Sum of atomic charges:    0.0000000

LOEWDIN ATOMIC CHARGES
----------------------
   0 S :    0.424239
   1 C :   -0.215280
   2 C :   -0.062110
   3 C :   -0.052298
   4 C :   -0.184706
   5 H :    0.024592
   6 C :   -0.023260
   7 H :    0.030046
   8 H :    0.015917
   9 C :   -0.038785
  10 H :    0.033261
  11 H :    0.012789
  12 C :   -0.068933
  13 H :    0.030158
  14 H :    0.025907
  15 H :    0.027985
  16 S :    0.375618
  17 C :   -0.171215
  18 C :   -0.070483
  19 C :   -0.051690
  20 C :   -0.192741
  21 H :    0.029800
  22 C :   -0.031817
  23 H :    0.021036
  24 H :    0.035499
  25 C :   -0.035568
  26 H :    0.005200
  27 H :    0.035205
  28 C :   -0.063143
  29 H :    0.027181
  30 H :    0.024995
  31 H :    0.026792
  32 H :    0.023898
  33 H :    0.031911

  Mayer bond orders larger than 0.100000
B(  0-S ,  1-C ) :   1.1471 B(  0-S ,  4-C ) :   1.1509 B(  1-C ,  2-C ) :   1.6150
B(  1-C , 32-H ) :   0.9645 B(  2-C ,  3-C ) :   1.2477 B(  2-C ,  6-C ) :   1.0153
B(  3-C ,  4-C ) :   1.5722 B(  3-C ,  5-H ) :   0.9940 B(  4-C , 20-C ) :   1.0375
B(  6-C ,  7-H ) :   0.9332 B(  6-C ,  8-H ) :   0.9449 B(  6-C ,  9-C ) :   1.0703
B(  9-C , 10-H ) :   0.9584 B(  9-C , 11-H ) :   0.9558 B(  9-C , 12-C ) :   1.0663
B( 12-C , 13-H ) :   0.9754 B( 12-C , 14-H ) :   0.9780 B( 12-C , 15-H ) :   0.9762
B( 16-S , 17-C ) :   1.1492 B( 16-S , 20-C ) :   1.1358 B( 17-C , 18-C ) :   1.6022
B( 17-C , 20-C ) :   0.1036 B( 17-C , 33-H ) :   0.9668 B( 18-C , 19-C ) :   1.2392
B( 18-C , 21-H ) :   0.9980 B( 19-C , 20-C ) :   1.5865 B( 19-C , 22-C ) :   1.0330
B( 22-C , 23-H ) :   0.9349 B( 22-C , 24-H ) :   0.9337 B( 22-C , 25-C ) :   1.0806
B( 25-C , 26-H ) :   0.9565 B( 25-C , 27-H ) :   0.9625 B( 25-C , 28-C ) :   1.0636
B( 28-C , 29-H ) :   0.9792 B( 28-C , 30-H ) :   0.9803 B( 28-C , 31-H ) :   0.9798

Dispersion correction           -0.013643770
FINAL SINGLE POINT ENERGY     -1339.860166528109

DIPOLE MOMENT
-------------
                                X             Y             Z
Electronic contribution:    -12.77822      25.82682     -10.50837
Nuclear contribution   :     12.87530     -26.45872      10.63339
                        -----------------------------------------
Total Dipole Moment    :      0.09707      -0.63190       0.12502
                        -----------------------------------------
Magnitude (a.u.)       :      0.65142
Magnitude (Debye)      :      1.65578

Rotational constants in cm-1:     0.017380     0.008791     0.006401
Rotational constants in MHz :   521.047632   263.553284   191.907256

                             ****ORCA TERMINATED NORMALLY****
TOTAL RUN TIME: 0 days 0 hours 0 minutes 33 seconds 191 msec
