                         Program Version 4.2.1 -  RELEASE  -
|  1> ! wB97X-D3 SP def2-SVP
|  2> %pal
|  3> nprocs 16
|  4> end
|  5>
|  6> * xyz 0 1
|  7> S 	 -77.6466 	 48.5145 	 138.731
|  8> C 	 -79.177 	 47.8101 	 139.412
|  9> C 	 -80.1129 	 48.8428 	 139.533
| 10> C 	 -79.6136 	 50.2158 	 139.24
| 11> C 	 -78.287 	 50.1844 	 138.896
| 12> H 	 -80.1433 	 51.152 	 139.349
| 13> C 	 -81.4264 	 48.4539 	 140.112
| 14> H 	 -81.6244 	 49.0906 	 140.933
| 15> H 	 -81.4358 	 47.3832 	 140.488
| 16> C 	 -82.6098 	 48.5648 	 139.157
| 17> H 	 -82.8144 	 49.6648 	 139.027
| 18> H 	 -82.2794 	 48.2427 	 138.138
| 19> C 	 -83.9169 	 47.8533 	 139.38
| 20> H 	 -83.6861 	 46.8053 	 139.411
| 21> H 	 -84.3846 	 48.09 	 140.369
| 22> H 	 -84.6092 	 48.123 	 138.617
| 23> S 	 -77.3106 	 51.493 	 136.718
| 24> C 	 -76.4365 	 52.9575 	 136.865
| 25> C 	 -76.4116 	 53.3986 	 138.175
| 26> C 	 -76.9709 	 52.4343 	 139.085
| 27> C 	 -77.4575 	 51.3252 	 138.468
| 28> H 	 -75.994 	 54.3254 	 138.567
| 29> C 	 -76.8782 	 52.673 	 140.586
| 30> H 	 -75.7764 	 52.6317 	 140.812
| 31> H 	 -77.2208 	 51.7961 	 141.18
| 32> C 	 -77.6399 	 53.8153 	 141.206
| 33> H 	 -77.0246 	 54.6562 	 141.052
| 34> H 	 -77.6148 	 53.7361 	 142.34
| 35> C 	 -79.1079 	 53.9845 	 140.705
| 36> H 	 -79.5225 	 54.9321 	 141.119
| 37> H 	 -79.7765 	 53.1521 	 140.954
| 38> H 	 -79.2209 	 54.1503 	 139.6
| 39> H 	 -79.267 	 46.8028 	 139.735
| 40> H 	 -75.9249 	 53.4873 	 136.101
| 41> *
| 42>
| 43>                          ****END OF INPUT****

CARTESIAN COORDINATES (ANGSTROEM)
---------------------------------
  S    -77.646600   48.514500  138.731000
  C    -79.177000   47.810100  139.412000
  C    -80.112900   48.842800  139.533000
  C    -79.613600   50.215800  139.240000
  C    -78.287000   50.184400  138.896000
  H    -80.143300   51.152000  139.349000
  C    -81.426400   48.453900  140.112000
  H    -81.624400   49.090600  140.933000
  H    -81.435800   47.383200  140.488000
  C    -82.609800   48.564800  139.157000
  H    -82.814400   49.664800  139.027000
  H    -82.279400   48.242700  138.138000
  C    -83.916900   47.853300  139.380000
  H    -83.686100   46.805300  139.411000
  H    -84.384600   48.090000  140.369000
  H    -84.609200   48.123000  138.617000
  S    -77.310600   51.493000  136.718000
  C    -76.436500   52.957500  136.865000
  C    -76.411600   53.398600  138.175000
  C    -76.970900   52.434300  139.085000
  C    -77.457500   51.325200  138.468000
  H    -75.994000   54.325400  138.567000
  C    -76.878200   52.673000  140.586000
  H    -75.776400   52.631700  140.812000
  H    -77.220800   51.796100  141.180000
  C    -77.639900   53.815300  141.206000
  H    -77.024600   54.656200  141.052000
  H    -77.614800   53.736100  142.340000
  C    -79.107900   53.984500  140.705000
  H    -79.522500   54.932100  141.119000
  H    -79.776500   53.152100  140.954000
  H    -79.220900   54.150300  139.600000
  H    -79.267000   46.802800  139.735000
  H    -75.924900   53.487300  136.101000

 Total Charge           Charge          ....    0
 Multiplicity           Mult            ....    1
 Number of Electrons    NEL             ....  134
 Basis Dimension        Dim             ....  322

ORBITAL ENERGIES
----------------

  NO   OCC          E(Eh)            E(eV)
   0   2.0000     -88.962572     -2420.7947
   1   2.0000     -88.961228     -2420.7581
   2   2.0000     -10.336147      -281.2609
   3   2.0000     -10.323690      -280.9219
   4   2.0000     -10.320283      -280.8292
   5   2.0000     -10.315330      -280.6944
   6   2.0000     -10.310732      -280.5693
   7   2.0000     -10.305672      -280.4316
   8   2.0000     -10.302014      -280.3321
   9   2.0000     -10.293485      -280.1000
  10   2.0000     -10.292462      -280.0721
  11   2.0000     -10.291189      -280.0375
  12   2.0000     -10.290536      -280.0197
  13   2.0000     -10.288201      -279.9562
  14   2.0000     -10.285476      -279.8820
  15   2.0000     -10.276994      -279.6512
  16   2.0000      -8.078089      -219.8160
  17   2.0000      -8.074596      -219.7209
  18   2.0000      -6.036601      -164.2643
  19   2.0000      -6.033355      -164.1759
  20   2.0000      -6.032489      -164.1524
  21   2.0000      -6.029345      -164.0668
  22   2.0000      -6.028770      -164.0512
  23   2.0000      -6.025108      -163.9515
  24   2.0000      -1.004734       -27.3402
  25   2.0000      -0.975863       -26.5546
  26   2.0000      -0.912634       -24.8340
  27   2.0000      -0.908775       -24.7290
  28   2.0000      -0.868969       -23.6458
  29   2.0000      -0.846099       -23.0235
  30   2.0000      -0.842040       -22.9131
  31   2.0000      -0.818866       -22.2825
  32   2.0000      -0.783460       -21.3190
  33   2.0000      -0.772702       -21.0263
  34   2.0000      -0.708155       -19.2699
  35   2.0000      -0.695137       -18.9156
  36   2.0000      -0.686144       -18.6709
  37   2.0000      -0.662718       -18.0335
  38   2.0000      -0.647125       -17.6092
  39   2.0000      -0.614373       -16.7179
  40   2.0000      -0.596473       -16.2309
  41   2.0000      -0.570636       -15.5278
  42   2.0000      -0.561498       -15.2791
  43   2.0000      -0.553595       -15.0641
  44   2.0000      -0.540558       -14.7093
  45   2.0000      -0.524497       -14.2723
  46   2.0000      -0.518427       -14.1071
  47   2.0000      -0.511591       -13.9211
  48   2.0000      -0.511168       -13.9096
  49   2.0000      -0.498638       -13.5686
  50   2.0000      -0.496520       -13.5110
  51   2.0000      -0.478376       -13.0173
  52   2.0000      -0.470598       -12.8056
  53   2.0000      -0.467616       -12.7245
  54   2.0000      -0.458197       -12.4682
  55   2.0000      -0.449509       -12.2318
  56   2.0000      -0.445400       -12.1200
  57   2.0000      -0.438480       -11.9317
  58   2.0000      -0.422214       -11.4890
  59   2.0000      -0.420458       -11.4412
  60   2.0000      -0.416001       -11.3200
  61   2.0000      -0.404449       -11.0056
  62   2.0000      -0.402371       -10.9491
  63   2.0000      -0.337390        -9.1809
  64   2.0000      -0.329944        -8.9782
  65   2.0000      -0.322580        -8.7778
  66   2.0000      -0.309110        -8.4113
  67   0.0000       0.039473         1.0741
  68   0.0000       0.057595         1.5672
  69   0.0000       0.116132         3.1601
  70   0.0000       0.118265         3.2182
  71   0.0000       0.120957         3.2914

MULLIKEN ATOMIC CHARGES
-----------------------
   0 S :    0.080048
   1 C :   -0.116463
   2 C :   -0.087866
   3 C :    0.078397
   4 C :   -0.157302
   5 H :    0.018566
   6 C :    0.082811
   7 H :    0.019660
   8 H :    0.020673
   9 C :   -0.136908
  10 H :    0.023584
  11 H :    0.028952
  12 C :   -0.016844
  13 H :    0.026723
  14 H :    0.026658
  15 H :    0.040539
  16 S :    0.113967
  17 C :   -0.063486
  18 C :   -0.035430
  19 C :   -0.029310
  20 C :   -0.174061
  21 H :    0.017907
  22 C :    0.020258
  23 H :    0.047302
  24 H :    0.025913
  25 C :   -0.057610
  26 H :    0.012514
  27 H :    0.039774
  28 C :   -0.078871
  29 H :    0.037827
  30 H :    0.042324
  31 H :    0.048960
  32 H :    0.051966
  33 H :    0.048828
Sum of atomic charges:   -0.0000000

LOEWDIN ATOMIC CHARGES
----------------------
   0 S :    0.348820
   1 C :   -0.168432
   2 C :   -0.050563
   3 C :   -0.053486
   4 C :   -0.173072
   5 H :    0.035171
   6 C :   -0.035549
   7 H :    0.024100
   8 H :    0.033853
   9 C :   -0.054134
  10 H :    0.021999
  11 H :    0.025962
  12 C :   -0.062062
  13 H :    0.021980
  14 H :    0.025965
  15 H :    0.028531
  16 S :    0.417952
  17 C :   -0.185731
  18 C :   -0.073770
  19 C :   -0.057069
  20 C :   -0.201909
  21 H :    0.030987
  22 C :   -0.044643
  23 H :    0.041254
  24 H :    0.032651
  25 C :   -0.045321
  26 H :    0.013617
  27 H :    0.035935
  28 C :   -0.073513
  29 H :    0.031863
  30 H :    0.024526
  31 H :    0.032809
  32 H :    0.024947
  33 H :    0.026331

  Mayer bond orders larger than 0.100000
B(  0-S ,  1-C ) :   1.1011 B(  0-S ,  4-C ) :   1.1335 B(  1-C ,  2-C ) :   1.6425
B(  1-C , 32-H ) :   0.9786 B(  2-C ,  3-C ) :   1.1613 B(  2-C ,  6-C ) :   1.0466
B(  3-C ,  4-C ) :   1.6346 B(  3-C ,  5-H ) :   0.9934 B(  4-C , 20-C ) :   0.9828
B(  6-C ,  7-H ) :   0.9314 B(  6-C ,  8-H ) :   0.9461 B(  6-C ,  9-C ) :   1.0466
B(  9-C , 10-H ) :   0.9524 B(  9-C , 11-H ) :   0.9576 B(  9-C , 12-C ) :   1.0967
B( 12-C , 13-H ) :   0.9719 B( 12-C , 14-H ) :   0.9718 B( 12-C , 15-H ) :   0.9714
B( 16-S , 17-C ) :   1.1652 B( 16-S , 20-C ) :   1.1380 B( 17-C , 18-C ) :   1.5943
B( 17-C , 33-H ) :   0.9716 B( 18-C , 19-C ) :   1.2376 B( 18-C , 21-H ) :   0.9896
B( 19-C , 20-C ) :   1.6463 B( 19-C , 22-C ) :   1.0332 B( 22-C , 23-H ) :   0.9432
B( 22-C , 24-H ) :   0.9397 B( 22-C , 25-C ) :   1.0615 B( 25-C , 26-H ) :   0.9547
B( 25-C , 27-H ) :   0.9550 B( 25-C , 28-C ) :   1.0707 B( 28-C , 29-H ) :   0.9724
B( 28-C , 30-H ) :   0.9745 B( 28-C , 31-H ) :   0.9700

Dispersion correction           -0.014568858
FINAL SINGLE POINT ENERGY     -1339.872565501304

DIPOLE MOMENT
-------------
                                X             Y             Z
Electronic contribution:     20.46713      -5.36812     -14.96691
Nuclear contribution   :    -20.81198       5.74356      15.42540
                        -----------------------------------------
Total Dipole Moment    :     -0.34484       0.37544       0.45849
                        -----------------------------------------
Magnitude (a.u.)       :      0.68563
Magnitude (Debye)      :      1.74273

Rotational constants in cm-1:     0.019780     0.007855     0.006766
Rotational constants in MHz :   592.988542   235.486485   202.851442

                             ****ORCA TERMINATED NORMALLY****
TOTAL RUN TIME: 0 days 0 hours 0 minutes 34 seconds 458 msec
