                         Program Version 4.2.1 -  RELEASE  -
|  1> ! wB97X-D3 SP def2-SVP
|  2> %pal
|  3> nprocs 16
|  4> end
|  5>
|  6> * xyz 0 1
|  7> S 	 -50.0557 	 31.5085 	 92.3002
|  8> C 	 -50.1819 	 29.7174 	 92.4497
|  9> C 	 -50.7994 	 29.0706 	 91.3924
| 10> C 	 -51.096 	 30.0554 	 90.4174
| 11> C 	 -50.7078 	 31.3454 	 90.6544
| 12> H 	 -51.5812 	 30.0357 	 89.3906
| 13> C 	 -51.191 	 27.5198 	 91.3871
| 14> H 	 -51.3404 	 27.1901 	 92.4876
| 15> H 	 -50.3412 	 26.9044 	 91.0015
| 16> C 	 -52.4033 	 27.016 	 90.5535
| 17> H 	 -52.2299 	 27.1304 	 89.5617
| 18> H 	 -52.4075 	 25.9069 	 90.5541
| 19> C 	 -53.8002 	 27.6212 	 91.0108
| 20> H 	 -53.9767 	 28.6073 	 90.6715
| 21> H 	 -54.6443 	 27.1565 	 90.4961
| 22> H 	 -54.0409 	 27.7274 	 92.0197
| 23> S 	 -49.3049 	 33.4622 	 89.8025
| 24> C 	 -49.9349 	 34.5908 	 88.6983
| 25> C 	 -51.2016 	 34.3177 	 88.3782
| 26> C 	 -51.6793 	 33.0363 	 88.8757
| 27> C 	 -50.7418 	 32.4826 	 89.7536
| 28> H 	 -51.7308 	 34.9466 	 87.6572
| 29> C 	 -52.9901 	 32.4388 	 88.4696
| 30> H 	 -52.7801 	 31.3316 	 88.4475
| 31> H 	 -53.1574 	 32.7461 	 87.4902
| 32> C 	 -54.2143 	 32.5495 	 89.3936
| 33> H 	 -54.4311 	 33.5285 	 89.7769
| 34> H 	 -54.0247 	 32.0411 	 90.3341
| 35> C 	 -55.4849 	 31.963 	 88.7513
| 36> H 	 -55.1824 	 31.2005 	 88.0474
| 37> H 	 -55.9308 	 32.7383 	 88.1206
| 38> H 	 -56.2509 	 31.6312 	 89.5246
| 39> H 	 -49.9968 	 29.1796 	 93.3234
| 40> H 	 -49.3707 	 35.4588 	 88.4483
| 41> *
| 42>
| 43>                          ****END OF INPUT****

CARTESIAN COORDINATES (ANGSTROEM)
---------------------------------
  S    -50.055700   31.508500   92.300200
  C    -50.181900   29.717400   92.449700
  C    -50.799400   29.070600   91.392400
  C    -51.096000   30.055400   90.417400
  C    -50.707800   31.345400   90.654400
  H    -51.581200   30.035700   89.390600
  C    -51.191000   27.519800   91.387100
  H    -51.340400   27.190100   92.487600
  H    -50.341200   26.904400   91.001500
  C    -52.403300   27.016000   90.553500
  H    -52.229900   27.130400   89.561700
  H    -52.407500   25.906900   90.554100
  C    -53.800200   27.621200   91.010800
  H    -53.976700   28.607300   90.671500
  H    -54.644300   27.156500   90.496100
  H    -54.040900   27.727400   92.019700
  S    -49.304900   33.462200   89.802500
  C    -49.934900   34.590800   88.698300
  C    -51.201600   34.317700   88.378200
  C    -51.679300   33.036300   88.875700
  C    -50.741800   32.482600   89.753600
  H    -51.730800   34.946600   87.657200
  C    -52.990100   32.438800   88.469600
  H    -52.780100   31.331600   88.447500
  H    -53.157400   32.746100   87.490200
  C    -54.214300   32.549500   89.393600
  H    -54.431100   33.528500   89.776900
  H    -54.024700   32.041100   90.334100
  C    -55.484900   31.963000   88.751300
  H    -55.182400   31.200500   88.047400
  H    -55.930800   32.738300   88.120600
  H    -56.250900   31.631200   89.524600
  H    -49.996800   29.179600   93.323400
  H    -49.370700   35.458800   88.448300

 Total Charge           Charge          ....    0
 Multiplicity           Mult            ....    1
 Number of Electrons    NEL             ....  134
 Basis Dimension        Dim             ....  322

ORBITAL ENERGIES
----------------

  NO   OCC          E(Eh)            E(eV)
   0   2.0000     -88.968613     -2420.9590
   1   2.0000     -88.960172     -2420.7294
   2   2.0000     -10.328075      -281.0412
   3   2.0000     -10.325667      -280.9757
   4   2.0000     -10.314955      -280.6842
   5   2.0000     -10.313534      -280.6455
   6   2.0000     -10.311777      -280.5977
   7   2.0000     -10.306942      -280.4661
   8   2.0000     -10.306269      -280.4478
   9   2.0000     -10.296794      -280.1900
  10   2.0000     -10.293814      -280.1089
  11   2.0000     -10.293055      -280.0883
  12   2.0000     -10.291513      -280.0463
  13   2.0000     -10.282753      -279.8079
  14   2.0000     -10.282483      -279.8006
  15   2.0000     -10.272873      -279.5391
  16   2.0000      -8.081998      -219.9223
  17   2.0000      -8.076559      -219.7743
  18   2.0000      -6.040568      -164.3722
  19   2.0000      -6.036947      -164.2737
  20   2.0000      -6.034956      -164.2195
  21   2.0000      -6.032509      -164.1529
  22   2.0000      -6.030757      -164.1052
  23   2.0000      -6.027395      -164.0138
  24   2.0000      -1.010649       -27.5012
  25   2.0000      -0.982939       -26.7471
  26   2.0000      -0.912079       -24.8189
  27   2.0000      -0.901072       -24.5194
  28   2.0000      -0.872100       -23.7311
  29   2.0000      -0.853672       -23.2296
  30   2.0000      -0.839508       -22.8442
  31   2.0000      -0.816650       -22.2222
  32   2.0000      -0.788262       -21.4497
  33   2.0000      -0.775444       -21.1009
  34   2.0000      -0.716412       -19.4946
  35   2.0000      -0.706263       -19.2184
  36   2.0000      -0.695755       -18.9324
  37   2.0000      -0.665018       -18.0961
  38   2.0000      -0.642601       -17.4861
  39   2.0000      -0.613007       -16.6808
  40   2.0000      -0.599654       -16.3174
  41   2.0000      -0.564118       -15.3504
  42   2.0000      -0.557150       -15.1608
  43   2.0000      -0.549223       -14.9451
  44   2.0000      -0.533312       -14.5121
  45   2.0000      -0.525258       -14.2930
  46   2.0000      -0.516429       -14.0527
  47   2.0000      -0.515564       -14.0292
  48   2.0000      -0.498577       -13.5670
  49   2.0000      -0.494297       -13.4505
  50   2.0000      -0.491302       -13.3690
  51   2.0000      -0.481958       -13.1148
  52   2.0000      -0.471829       -12.8391
  53   2.0000      -0.468602       -12.7513
  54   2.0000      -0.455542       -12.3959
  55   2.0000      -0.450040       -12.2462
  56   2.0000      -0.447770       -12.1845
  57   2.0000      -0.442188       -12.0326
  58   2.0000      -0.432690       -11.7741
  59   2.0000      -0.429667       -11.6918
  60   2.0000      -0.420794       -11.4504
  61   2.0000      -0.417785       -11.3685
  62   2.0000      -0.409637       -11.1468
  63   2.0000      -0.352439        -9.5903
  64   2.0000      -0.335297        -9.1239
  65   2.0000      -0.328457        -8.9378
  66   2.0000      -0.288337        -7.8461
  67   0.0000       0.029428         0.8008
  68   0.0000       0.071961         1.9582
  69   0.0000       0.101838         2.7712
  70   0.0000       0.117892         3.2080
  71   0.0000       0.131034         3.5656

MULLIKEN ATOMIC CHARGES
-----------------------
   0 S :    0.111137
   1 C :   -0.101536
   2 C :   -0.031004
   3 C :   -0.013542
   4 C :   -0.147790
   5 H :    0.023776
   6 C :    0.004845
   7 H :    0.047000
   8 H :    0.052782
   9 C :   -0.026453
  10 H :    0.005064
  11 H :    0.029246
  12 C :   -0.023583
  13 H :    0.009355
  14 H :    0.022604
  15 H :    0.022423
  16 S :    0.097468
  17 C :   -0.073697
  18 C :   -0.028253
  19 C :   -0.052082
  20 C :   -0.165318
  21 H :    0.018826
  22 C :    0.070875
  23 H :    0.020670
  24 H :    0.006302
  25 C :   -0.040213
  26 H :    0.017365
  27 H :    0.024257
  28 C :   -0.060452
  29 H :    0.025908
  30 H :    0.030800
  31 H :    0.053602
  32 H :    0.019209
  33 H :    0.050410
Sum of atomic charges:   -0.0000000

LOEWDIN ATOMIC CHARGES
----------------------
   0 S :    0.371850
   1 C :   -0.166813
   2 C :   -0.060819
   3 C :   -0.076809
   4 C :   -0.188629
   5 H :    0.039228
   6 C :   -0.031689
   7 H :    0.039343
   8 H :    0.039017
   9 C :   -0.034964
  10 H :    0.011355
  11 H :    0.034400
  12 C :   -0.068709
  13 H :    0.022908
  14 H :    0.029769
  15 H :    0.019637
  16 S :    0.426168
  17 C :   -0.193440
  18 C :   -0.074526
  19 C :   -0.054797
  20 C :   -0.200057
  21 H :    0.032900
  22 C :   -0.030790
  23 H :    0.037505
  24 H :    0.021047
  25 C :   -0.040384
  26 H :    0.018910
  27 H :    0.024881
  28 C :   -0.068332
  29 H :    0.021212
  30 H :    0.025342
  31 H :    0.037373
  32 H :    0.012421
  33 H :    0.025492

  Mayer bond orders larger than 0.100000
B(  0-S ,  1-C ) :   1.1287 B(  0-S ,  4-C ) :   1.1146 B(  1-C ,  2-C ) :   1.6505
B(  1-C ,  4-C ) :   0.1007 B(  1-C , 32-H ) :   0.9673 B(  2-C ,  3-C ) :   1.2063
B(  2-C ,  6-C ) :   0.9844 B(  3-C ,  4-C ) :   1.6380 B(  3-C ,  5-H ) :   0.9717
B(  4-C , 20-C ) :   1.0503 B(  6-C ,  7-H ) :   0.9521 B(  6-C ,  8-H ) :   0.9428
B(  6-C ,  9-C ) :   1.0863 B(  9-C , 10-H ) :   0.9477 B(  9-C , 11-H ) :   0.9531
B(  9-C , 12-C ) :   1.0600 B( 12-C , 13-H ) :   0.9717 B( 12-C , 14-H ) :   0.9733
B( 12-C , 15-H ) :   0.9815 B( 16-S , 17-C ) :   1.1572 B( 16-S , 20-C ) :   1.1514
B( 17-C , 18-C ) :   1.6156 B( 17-C , 33-H ) :   0.9710 B( 18-C , 19-C ) :   1.2338
B( 18-C , 21-H ) :   0.9901 B( 19-C , 20-C ) :   1.5816 B( 19-C , 22-C ) :   1.0466
B( 22-C , 23-H ) :   0.9282 B( 22-C , 24-H ) :   0.9292 B( 22-C , 25-C ) :   1.0613
B( 25-C , 26-H ) :   0.9574 B( 25-C , 27-H ) :   0.9527 B( 25-C , 28-C ) :   1.0715
B( 28-C , 29-H ) :   0.9743 B( 28-C , 30-H ) :   0.9765 B( 28-C , 31-H ) :   0.9743

Dispersion correction           -0.014391129
FINAL SINGLE POINT ENERGY     -1339.851052085891

DIPOLE MOMENT
-------------
                                X             Y             Z
Electronic contribution:     26.02555      16.90520       6.70820
Nuclear contribution   :    -26.56145     -17.17861      -7.04517
                        -----------------------------------------
Total Dipole Moment    :     -0.53590      -0.27341      -0.33697
                        -----------------------------------------
Magnitude (a.u.)       :      0.68956
Magnitude (Debye)      :      1.75273

Rotational constants in cm-1:     0.016623     0.010088     0.006937
Rotational constants in MHz :   498.339440   302.437808   207.954477

                             ****ORCA TERMINATED NORMALLY****
TOTAL RUN TIME: 0 days 0 hours 0 minutes 30 seconds 479 msec
