                         Program Version 4.2.1 -  RELEASE  -
|  1> ! wB97X-D3 SP def2-SVP
|  2> %pal
|  3> nprocs 16
|  4> end
|  5>
|  6> * xyz 0 1
|  7> S 	 -1.07786 	 -12.6791 	 93.5753
|  8> C 	 -1.87164 	 -12.0423 	 95.0414
|  9> C 	 -3.23284 	 -12.2128 	 94.9333
| 10> C 	 -3.6434 	 -12.7469 	 93.6834
| 11> C 	 -2.60274 	 -13.1104 	 92.8455
| 12> H 	 -4.64049 	 -12.9151 	 93.3625
| 13> C 	 -4.17684 	 -11.6565 	 95.9333
| 14> H 	 -3.56136 	 -11.3626 	 96.8073
| 15> H 	 -4.77778 	 -12.4154 	 96.4215
| 16> C 	 -5.06319 	 -10.5238 	 95.3397
| 17> H 	 -4.57197 	 -10.1594 	 94.4087
| 18> H 	 -5.95966 	 -11.0535 	 95.0833
| 19> C 	 -5.25065 	 -9.41037 	 96.4075
| 20> H 	 -5.73068 	 -9.71468 	 97.2568
| 21> H 	 -4.35312 	 -8.90889 	 96.6143
| 22> H 	 -5.79057 	 -8.70122 	 95.8014
| 23> S 	 -3.71507 	 -12.8371 	 90.3666
| 24> C 	 -3.27771 	 -13.8744 	 89.0638
| 25> C 	 -2.39011 	 -14.8372 	 89.4346
| 26> C 	 -2.09281 	 -14.7725 	 90.8553
| 27> C 	 -2.68686 	 -13.64 	 91.4578
| 28> H 	 -2.12921 	 -15.7289 	 88.8355
| 29> C 	 -1.22411 	 -15.8155 	 91.554
| 30> H 	 -1.59913 	 -16.6967 	 91.1179
| 31> H 	 -1.42226 	 -15.7674 	 92.5683
| 32> C 	 0.310601 	 -15.5946 	 91.3382
| 33> H 	 0.675807 	 -15.0179 	 92.1852
| 34> H 	 0.460147 	 -14.9212 	 90.449
| 35> C 	 1.10474 	 -16.8796 	 91.2156
| 36> H 	 2.21239 	 -16.6561 	 91.1332
| 37> H 	 0.86397 	 -17.5166 	 90.3737
| 38> H 	 0.95374 	 -17.5385 	 92.0889
| 39> H 	 -1.36174 	 -11.6588 	 95.895
| 40> H 	 -3.82508 	 -13.7764 	 88.1301
| 41> *
| 42>
| 43>                          ****END OF INPUT****

CARTESIAN COORDINATES (ANGSTROEM)
---------------------------------
  S     -1.077860  -12.679100   93.575300
  C     -1.871640  -12.042300   95.041400
  C     -3.232840  -12.212800   94.933300
  C     -3.643400  -12.746900   93.683400
  C     -2.602740  -13.110400   92.845500
  H     -4.640490  -12.915100   93.362500
  C     -4.176840  -11.656500   95.933300
  H     -3.561360  -11.362600   96.807300
  H     -4.777780  -12.415400   96.421500
  C     -5.063190  -10.523800   95.339700
  H     -4.571970  -10.159400   94.408700
  H     -5.959660  -11.053500   95.083300
  C     -5.250650   -9.410370   96.407500
  H     -5.730680   -9.714680   97.256800
  H     -4.353120   -8.908890   96.614300
  H     -5.790570   -8.701220   95.801400
  S     -3.715070  -12.837100   90.366600
  C     -3.277710  -13.874400   89.063800
  C     -2.390110  -14.837200   89.434600
  C     -2.092810  -14.772500   90.855300
  C     -2.686860  -13.640000   91.457800
  H     -2.129210  -15.728900   88.835500
  C     -1.224110  -15.815500   91.554000
  H     -1.599130  -16.696700   91.117900
  H     -1.422260  -15.767400   92.568300
  C      0.310601  -15.594600   91.338200
  H      0.675807  -15.017900   92.185200
  H      0.460147  -14.921200   90.449000
  C      1.104740  -16.879600   91.215600
  H      2.212390  -16.656100   91.133200
  H      0.863970  -17.516600   90.373700
  H      0.953740  -17.538500   92.088900
  H     -1.361740  -11.658800   95.895000
  H     -3.825080  -13.776400   88.130100

 Total Charge           Charge          ....    0
 Multiplicity           Mult            ....    1
 Number of Electrons    NEL             ....  134
 Basis Dimension        Dim             ....  322

ORBITAL ENERGIES
----------------

  NO   OCC          E(Eh)            E(eV)
   0   2.0000     -88.964270     -2420.8409
   1   2.0000     -88.963967     -2420.8326
   2   2.0000     -10.331585      -281.1367
   3   2.0000     -10.324678      -280.9488
   4   2.0000     -10.315446      -280.6976
   5   2.0000     -10.312226      -280.6099
   6   2.0000     -10.304448      -280.3983
   7   2.0000     -10.296728      -280.1882
   8   2.0000     -10.296613      -280.1851
   9   2.0000     -10.289336      -279.9871
  10   2.0000     -10.288627      -279.9678
  11   2.0000     -10.285832      -279.8917
  12   2.0000     -10.285134      -279.8727
  13   2.0000     -10.280940      -279.7586
  14   2.0000     -10.279359      -279.7156
  15   2.0000     -10.269003      -279.4338
  16   2.0000      -8.080207      -219.8736
  17   2.0000      -8.078294      -219.8216
  18   2.0000      -6.038624      -164.3193
  19   2.0000      -6.036818      -164.2702
  20   2.0000      -6.034382      -164.2039
  21   2.0000      -6.032838      -164.1619
  22   2.0000      -6.031109      -164.1148
  23   2.0000      -6.029151      -164.0616
  24   2.0000      -1.007964       -27.4281
  25   2.0000      -0.986125       -26.8338
  26   2.0000      -0.911924       -24.8147
  27   2.0000      -0.905595       -24.6425
  28   2.0000      -0.868626       -23.6365
  29   2.0000      -0.850276       -23.1372
  30   2.0000      -0.843887       -22.9633
  31   2.0000      -0.816897       -22.2289
  32   2.0000      -0.783399       -21.3174
  33   2.0000      -0.770495       -20.9662
  34   2.0000      -0.710231       -19.3264
  35   2.0000      -0.697839       -18.9892
  36   2.0000      -0.688841       -18.7443
  37   2.0000      -0.666048       -18.1241
  38   2.0000      -0.639520       -17.4022
  39   2.0000      -0.617792       -16.8110
  40   2.0000      -0.599620       -16.3165
  41   2.0000      -0.576330       -15.6827
  42   2.0000      -0.556769       -15.1505
  43   2.0000      -0.553327       -15.0568
  44   2.0000      -0.534132       -14.5345
  45   2.0000      -0.523048       -14.2329
  46   2.0000      -0.519918       -14.1477
  47   2.0000      -0.515490       -14.0272
  48   2.0000      -0.504996       -13.7416
  49   2.0000      -0.498126       -13.5547
  50   2.0000      -0.493758       -13.4359
  51   2.0000      -0.477703       -12.9990
  52   2.0000      -0.472970       -12.8702
  53   2.0000      -0.465529       -12.6677
  54   2.0000      -0.463417       -12.6102
  55   2.0000      -0.452003       -12.2996
  56   2.0000      -0.447452       -12.1758
  57   2.0000      -0.435468       -11.8497
  58   2.0000      -0.433620       -11.7994
  59   2.0000      -0.420658       -11.4467
  60   2.0000      -0.417773       -11.3682
  61   2.0000      -0.413540       -11.2530
  62   2.0000      -0.408817       -11.1245
  63   2.0000      -0.345807        -9.4099
  64   2.0000      -0.330251        -8.9866
  65   2.0000      -0.324989        -8.8434
  66   2.0000      -0.295245        -8.0340
  67   0.0000       0.035368         0.9624
  68   0.0000       0.076010         2.0683
  69   0.0000       0.108587         2.9548
  70   0.0000       0.124699         3.3932
  71   0.0000       0.133322         3.6279

MULLIKEN ATOMIC CHARGES
-----------------------
   0 S :    0.099886
   1 C :   -0.124799
   2 C :   -0.083278
   3 C :    0.025300
   4 C :   -0.139026
   5 H :   -0.003205
   6 C :    0.064582
   7 H :    0.004563
   8 H :    0.026126
   9 C :   -0.102494
  10 H :    0.052910
  11 H :    0.033030
  12 C :    0.011119
  13 H :    0.026320
  14 H :    0.023113
  15 H :    0.024094
  16 S :    0.115041
  17 C :   -0.101823
  18 C :   -0.016142
  19 C :   -0.118814
  20 C :   -0.153240
  21 H :    0.033608
  22 C :    0.142425
  23 H :    0.011661
  24 H :    0.011946
  25 C :   -0.073618
  26 H :    0.030372
  27 H :    0.043112
  28 C :   -0.071524
  29 H :    0.042485
  30 H :    0.028438
  31 H :    0.032410
  32 H :    0.041244
  33 H :    0.064181
Sum of atomic charges:   -0.0000000

LOEWDIN ATOMIC CHARGES
----------------------
   0 S :    0.395387
   1 C :   -0.186998
   2 C :   -0.062704
   3 C :   -0.068593
   4 C :   -0.188422
   5 H :    0.023904
   6 C :   -0.039535
   7 H :    0.026315
   8 H :    0.028285
   9 C :   -0.030630
  10 H :    0.031683
  11 H :    0.022450
  12 C :   -0.046083
  13 H :    0.014027
  14 H :    0.021614
  15 H :    0.029777
  16 S :    0.439923
  17 C :   -0.191796
  18 C :   -0.078002
  19 C :   -0.049641
  20 C :   -0.225715
  21 H :    0.038481
  22 C :   -0.019689
  23 H :    0.025205
  24 H :    0.020900
  25 C :   -0.042307
  26 H :    0.022945
  27 H :    0.029251
  28 C :   -0.073859
  29 H :    0.033812
  30 H :    0.020234
  31 H :    0.026442
  32 H :    0.024070
  33 H :    0.029271

  Mayer bond orders larger than 0.100000
B(  0-S ,  1-C ) :   1.1214 B(  0-S ,  4-C ) :   1.1625 B(  1-C ,  2-C ) :   1.6127
B(  1-C , 32-H ) :   0.9712 B(  2-C ,  3-C ) :   1.2239 B(  2-C ,  6-C ) :   1.0482
B(  3-C ,  4-C ) :   1.5746 B(  3-C ,  5-H ) :   1.0055 B(  4-C , 20-C ) :   1.0039
B(  6-C ,  7-H ) :   0.9445 B(  6-C ,  8-H ) :   0.9299 B(  6-C ,  9-C ) :   1.0222
B(  9-C , 10-H ) :   0.9672 B(  9-C , 11-H ) :   0.9532 B(  9-C , 12-C ) :   1.0804
B( 12-C , 13-H ) :   0.9780 B( 12-C , 14-H ) :   0.9754 B( 12-C , 15-H ) :   0.9736
B( 16-S , 17-C ) :   1.1752 B( 16-S , 20-C ) :   1.1606 B( 17-C , 18-C ) :   1.5821
B( 17-C , 33-H ) :   0.9686 B( 18-C , 19-C ) :   1.2608 B( 18-C , 21-H ) :   0.9822
B( 19-C , 20-C ) :   1.5691 B( 19-C , 22-C ) :   1.0485 B( 22-C , 23-H ) :   0.9382
B( 22-C , 24-H ) :   0.9247 B( 22-C , 25-C ) :   1.0393 B( 25-C , 26-H ) :   0.9493
B( 25-C , 27-H ) :   0.9669 B( 25-C , 28-C ) :   1.0799 B( 28-C , 29-H ) :   0.9727
B( 28-C , 30-H ) :   0.9773 B( 28-C , 31-H ) :   0.9732

Dispersion correction           -0.014183895
FINAL SINGLE POINT ENERGY     -1339.878442368417

DIPOLE MOMENT
-------------
                                X             Y             Z
Electronic contribution:     -1.11065       2.45235     -10.57836
Nuclear contribution   :      0.81941      -2.59198      10.77738
                        -----------------------------------------
Total Dipole Moment    :     -0.29124      -0.13963       0.19903
                        -----------------------------------------
Magnitude (a.u.)       :      0.37938
Magnitude (Debye)      :      0.96431

Rotational constants in cm-1:     0.023393     0.007524     0.006017
Rotational constants in MHz :   701.305499   225.553939   180.394181

                             ****ORCA TERMINATED NORMALLY****
TOTAL RUN TIME: 0 days 0 hours 0 minutes 32 seconds 524 msec
