                         Program Version 4.2.1 -  RELEASE  -
|  1> ! wB97X-D3 SP def2-SVP
|  2> %pal
|  3> nprocs 16
|  4> end
|  5>
|  6> * xyz 0 1
|  7> S 	 -42.1427 	 55.1071 	 109.162
|  8> C 	 -43.5667 	 55.9023 	 108.407
|  9> C 	 -43.1826 	 56.7483 	 107.353
| 10> C 	 -41.7548 	 56.808 	 107.188
| 11> C 	 -41.0439 	 55.9705 	 108.099
| 12> H 	 -41.3047 	 57.3974 	 106.461
| 13> C 	 -44.084 	 57.5895 	 106.455
| 14> H 	 -43.7101 	 57.6294 	 105.422
| 15> H 	 -43.9297 	 58.5775 	 106.846
| 16> C 	 -45.5854 	 57.3915 	 106.412
| 17> H 	 -45.8848 	 56.3772 	 106.132
| 18> H 	 -46.0529 	 57.576 	 107.403
| 19> C 	 -46.1468 	 58.3832 	 105.383
| 20> H 	 -46.0945 	 59.3933 	 105.79
| 21> H 	 -45.7753 	 58.2486 	 104.344
| 22> H 	 -47.2381 	 58.1467 	 105.344
| 23> S 	 -38.6644 	 56.4168 	 109.483
| 24> C 	 -37.1768 	 55.6877 	 108.964
| 25> C 	 -37.387 	 54.9951 	 107.749
| 26> C 	 -38.7539 	 54.9695 	 107.32
| 27> C 	 -39.5893 	 55.7399 	 108.135
| 28> H 	 -36.5047 	 54.4824 	 107.244
| 29> C 	 -39.2083 	 54.1579 	 106.14
| 30> H 	 -38.7949 	 54.6185 	 105.236
| 31> H 	 -40.2777 	 54.2852 	 106.12
| 32> C 	 -38.8358 	 52.7216 	 106.203
| 33> H 	 -38.9053 	 52.4056 	 107.272
| 34> H 	 -37.7936 	 52.5211 	 105.898
| 35> C 	 -39.7051 	 51.7913 	 105.343
| 36> H 	 -40.7406 	 51.8738 	 105.543
| 37> H 	 -39.3822 	 50.7065 	 105.406
| 38> H 	 -39.5266 	 52.0485 	 104.333
| 39> H 	 -44.6027 	 55.6779 	 108.692
| 40> H 	 -36.2834 	 55.7675 	 109.488
| 41> *
| 42>
| 43>                          ****END OF INPUT****

CARTESIAN COORDINATES (ANGSTROEM)
---------------------------------
  S    -42.142700   55.107100  109.162000
  C    -43.566700   55.902300  108.407000
  C    -43.182600   56.748300  107.353000
  C    -41.754800   56.808000  107.188000
  C    -41.043900   55.970500  108.099000
  H    -41.304700   57.397400  106.461000
  C    -44.084000   57.589500  106.455000
  H    -43.710100   57.629400  105.422000
  H    -43.929700   58.577500  106.846000
  C    -45.585400   57.391500  106.412000
  H    -45.884800   56.377200  106.132000
  H    -46.052900   57.576000  107.403000
  C    -46.146800   58.383200  105.383000
  H    -46.094500   59.393300  105.790000
  H    -45.775300   58.248600  104.344000
  H    -47.238100   58.146700  105.344000
  S    -38.664400   56.416800  109.483000
  C    -37.176800   55.687700  108.964000
  C    -37.387000   54.995100  107.749000
  C    -38.753900   54.969500  107.320000
  C    -39.589300   55.739900  108.135000
  H    -36.504700   54.482400  107.244000
  C    -39.208300   54.157900  106.140000
  H    -38.794900   54.618500  105.236000
  H    -40.277700   54.285200  106.120000
  C    -38.835800   52.721600  106.203000
  H    -38.905300   52.405600  107.272000
  H    -37.793600   52.521100  105.898000
  C    -39.705100   51.791300  105.343000
  H    -40.740600   51.873800  105.543000
  H    -39.382200   50.706500  105.406000
  H    -39.526600   52.048500  104.333000
  H    -44.602700   55.677900  108.692000
  H    -36.283400   55.767500  109.488000

 Total Charge           Charge          ....    0
 Multiplicity           Mult            ....    1
 Number of Electrons    NEL             ....  134
 Basis Dimension        Dim             ....  322

ORBITAL ENERGIES
----------------

  NO   OCC          E(Eh)            E(eV)
   0   2.0000     -88.968574     -2420.9580
   1   2.0000     -88.962962     -2420.8053
   2   2.0000     -10.335865      -281.2532
   3   2.0000     -10.327011      -281.0122
   4   2.0000     -10.320754      -280.8420
   5   2.0000     -10.316790      -280.7341
   6   2.0000     -10.306553      -280.4556
   7   2.0000     -10.303810      -280.3809
   8   2.0000     -10.300300      -280.2854
   9   2.0000     -10.296215      -280.1743
  10   2.0000     -10.292581      -280.0754
  11   2.0000     -10.291589      -280.0484
  12   2.0000     -10.286145      -279.9002
  13   2.0000     -10.283509      -279.8285
  14   2.0000     -10.283249      -279.8214
  15   2.0000     -10.272528      -279.5297
  16   2.0000      -8.082135      -219.9261
  17   2.0000      -8.077661      -219.8043
  18   2.0000      -6.040738      -164.3768
  19   2.0000      -6.036712      -164.2673
  20   2.0000      -6.036137      -164.2516
  21   2.0000      -6.032963      -164.1653
  22   2.0000      -6.031976      -164.1384
  23   2.0000      -6.028654      -164.0480
  24   2.0000      -0.997276       -27.1372
  25   2.0000      -0.974860       -26.5273
  26   2.0000      -0.915258       -24.9054
  27   2.0000      -0.913659       -24.8619
  28   2.0000      -0.864071       -23.5126
  29   2.0000      -0.849895       -23.1268
  30   2.0000      -0.844260       -22.9735
  31   2.0000      -0.805761       -21.9259
  32   2.0000      -0.781445       -21.2642
  33   2.0000      -0.770503       -20.9664
  34   2.0000      -0.708128       -19.2692
  35   2.0000      -0.698506       -19.0073
  36   2.0000      -0.693434       -18.8693
  37   2.0000      -0.652103       -17.7446
  38   2.0000      -0.639946       -17.4138
  39   2.0000      -0.614133       -16.7114
  40   2.0000      -0.595619       -16.2076
  41   2.0000      -0.577719       -15.7205
  42   2.0000      -0.571506       -15.5515
  43   2.0000      -0.563600       -15.3363
  44   2.0000      -0.528026       -14.3683
  45   2.0000      -0.519567       -14.1381
  46   2.0000      -0.514045       -13.9879
  47   2.0000      -0.512189       -13.9374
  48   2.0000      -0.503320       -13.6960
  49   2.0000      -0.496488       -13.5101
  50   2.0000      -0.490277       -13.3411
  51   2.0000      -0.479932       -13.0596
  52   2.0000      -0.474074       -12.9002
  53   2.0000      -0.463718       -12.6184
  54   2.0000      -0.454354       -12.3636
  55   2.0000      -0.451261       -12.2794
  56   2.0000      -0.443647       -12.0722
  57   2.0000      -0.431602       -11.7445
  58   2.0000      -0.429892       -11.6979
  59   2.0000      -0.427566       -11.6347
  60   2.0000      -0.421265       -11.4632
  61   2.0000      -0.418684       -11.3930
  62   2.0000      -0.412195       -11.2164
  63   2.0000      -0.332564        -9.0495
  64   2.0000      -0.325351        -8.8532
  65   2.0000      -0.323155        -8.7935
  66   2.0000      -0.304136        -8.2760
  67   0.0000       0.037562         1.0221
  68   0.0000       0.056033         1.5247
  69   0.0000       0.114669         3.1203
  70   0.0000       0.124562         3.3895
  71   0.0000       0.128659         3.5010

MULLIKEN ATOMIC CHARGES
-----------------------
   0 S :    0.117133
   1 C :   -0.148919
   2 C :   -0.056111
   3 C :    0.065896
   4 C :   -0.167406
   5 H :   -0.012414
   6 C :    0.040325
   7 H :    0.028731
   8 H :    0.032010
   9 C :   -0.081338
  10 H :    0.030944
  11 H :    0.034008
  12 C :   -0.071288
  13 H :    0.039646
  14 H :    0.048505
  15 H :    0.032922
  16 S :    0.108181
  17 C :   -0.081247
  18 C :   -0.057583
  19 C :   -0.043765
  20 C :   -0.188189
  21 H :    0.045410
  22 C :    0.133872
  23 H :    0.030959
  24 H :    0.016241
  25 C :   -0.113759
  26 H :    0.039468
  27 H :    0.027575
  28 C :   -0.031856
  29 H :    0.031537
  30 H :    0.038741
  31 H :    0.013898
  32 H :    0.057393
  33 H :    0.040483
Sum of atomic charges:   -0.0000000

LOEWDIN ATOMIC CHARGES
----------------------
   0 S :    0.394616
   1 C :   -0.197213
   2 C :   -0.057255
   3 C :   -0.046398
   4 C :   -0.197577
   5 H :    0.020386
   6 C :   -0.039141
   7 H :    0.033037
   8 H :    0.036558
   9 C :   -0.044340
  10 H :    0.021462
  11 H :    0.027436
  12 C :   -0.066665
  13 H :    0.026525
  14 H :    0.030151
  15 H :    0.030915
  16 S :    0.409254
  17 C :   -0.178746
  18 C :   -0.080516
  19 C :   -0.050529
  20 C :   -0.210355
  21 H :    0.042141
  22 C :   -0.032461
  23 H :    0.035091
  24 H :    0.029839
  25 C :   -0.045962
  26 H :    0.028393
  27 H :    0.024127
  28 C :   -0.060508
  29 H :    0.018886
  30 H :    0.034530
  31 H :    0.017538
  32 H :    0.030104
  33 H :    0.016679

  Mayer bond orders larger than 0.100000
B(  0-S ,  1-C ) :   1.1273 B(  0-S ,  4-C ) :   1.1642 B(  1-C ,  2-C ) :   1.6064
B(  1-C ,  4-C ) :   0.1002 B(  1-C , 32-H ) :   0.9640 B(  2-C ,  3-C ) :   1.2539
B(  2-C ,  6-C ) :   1.0006 B(  3-C ,  4-C ) :   1.5475 B(  3-C ,  5-H ) :   1.0073
B(  4-C , 20-C ) :   1.0183 B(  6-C ,  7-H ) :   0.9486 B(  6-C ,  8-H ) :   0.9324
B(  6-C ,  9-C ) :   1.0773 B(  9-C , 10-H ) :   0.9575 B(  9-C , 11-H ) :   0.9456
B(  9-C , 12-C ) :   1.0878 B( 12-C , 13-H ) :   0.9753 B( 12-C , 14-H ) :   0.9740
B( 12-C , 15-H ) :   0.9725 B( 16-S , 17-C ) :   1.1772 B( 16-S , 20-C ) :   1.1465
B( 17-C , 18-C ) :   1.5745 B( 17-C , 20-C ) :   0.1057 B( 17-C , 33-H ) :   0.9796
B( 18-C , 19-C ) :   1.2497 B( 18-C , 21-H ) :   0.9797 B( 19-C , 20-C ) :   1.5845
B( 19-C , 22-C ) :   1.0525 B( 22-C , 23-H ) :   0.9181 B( 22-C , 24-H ) :   0.9274
B( 22-C , 25-C ) :   1.0632 B( 25-C , 26-H ) :   0.9618 B( 25-C , 27-H ) :   0.9465
B( 25-C , 28-C ) :   1.0910 B( 28-C , 29-H ) :   0.9770 B( 28-C , 30-H ) :   0.9746
B( 28-C , 31-H ) :   0.9717

Dispersion correction           -0.013530153
FINAL SINGLE POINT ENERGY     -1339.887242551153

DIPOLE MOMENT
-------------
                                X             Y             Z
Electronic contribution:     13.65521       3.77219      21.79564
Nuclear contribution   :    -13.85787      -3.74510     -22.40987
                        -----------------------------------------
Total Dipole Moment    :     -0.20266       0.02708      -0.61423
                        -----------------------------------------
Magnitude (a.u.)       :      0.64736
Magnitude (Debye)      :      1.64546

Rotational constants in cm-1:     0.019832     0.007160     0.006092
Rotational constants in MHz :   594.556709   214.663171   182.627608

                             ****ORCA TERMINATED NORMALLY****
TOTAL RUN TIME: 0 days 0 hours 0 minutes 28 seconds 259 msec
