                         Program Version 4.2.1 -  RELEASE  -
|  1> ! wB97X-D3 SP def2-SVP
|  2> %pal
|  3> nprocs 16
|  4> end
|  5>
|  6> * xyz 0 1
|  7> S 	 -40.1622 	 35.1163 	 77.9751
|  8> C 	 -40.0298 	 35.636 	 76.3739
|  9> C 	 -40.907 	 36.6261 	 76.131
| 10> C 	 -41.8661 	 36.7799 	 77.1865
| 11> C 	 -41.6341 	 36.0035 	 78.2888
| 12> H 	 -42.7335 	 37.4028 	 77.2252
| 13> C 	 -40.8387 	 37.5373 	 74.9124
| 14> H 	 -41.2878 	 37.0256 	 74.0503
| 15> H 	 -39.8192 	 37.6053 	 74.5131
| 16> C 	 -41.5073 	 38.8927 	 75.1595
| 17> H 	 -41.3767 	 39.4789 	 74.3265
| 18> H 	 -42.5776 	 38.7624 	 75.2753
| 19> C 	 -40.8494 	 39.8136 	 76.2165
| 20> H 	 -41.3773 	 40.7492 	 76.3291
| 21> H 	 -40.7633 	 39.4711 	 77.2423
| 22> H 	 -39.8408 	 40.1328 	 75.8799
| 23> S 	 -43.7188 	 37.1667 	 79.558
| 24> C 	 -44.1886 	 36.7233 	 81.1821
| 25> C 	 -43.429 	 35.6563 	 81.579
| 26> C 	 -42.4887 	 35.2493 	 80.6857
| 27> C 	 -42.4712 	 35.9789 	 79.4891
| 28> H 	 -43.6091 	 35.1244 	 82.5014
| 29> C 	 -41.5044 	 34.144 	 80.9567
| 30> H 	 -41.2997 	 34.0501 	 82.0086
| 31> H 	 -40.491 	 34.4387 	 80.4986
| 32> C 	 -42.0006 	 32.749 	 80.6881
| 33> H 	 -42.2399 	 32.7396 	 79.6649
| 34> H 	 -42.8863 	 32.455 	 81.2412
| 35> C 	 -40.9321 	 31.6973 	 80.9456
| 36> H 	 -40.0349 	 31.8274 	 80.2996
| 37> H 	 -41.2866 	 30.6597 	 80.854
| 38> H 	 -40.5107 	 31.7503 	 82.0049
| 39> H 	 -39.1951 	 35.5927 	 75.7914
| 40> H 	 -45.0601 	 37.0872 	 81.7098
| 41> *
| 42>
| 43>                          ****END OF INPUT****

CARTESIAN COORDINATES (ANGSTROEM)
---------------------------------
  S    -40.162200   35.116300   77.975100
  C    -40.029800   35.636000   76.373900
  C    -40.907000   36.626100   76.131000
  C    -41.866100   36.779900   77.186500
  C    -41.634100   36.003500   78.288800
  H    -42.733500   37.402800   77.225200
  C    -40.838700   37.537300   74.912400
  H    -41.287800   37.025600   74.050300
  H    -39.819200   37.605300   74.513100
  C    -41.507300   38.892700   75.159500
  H    -41.376700   39.478900   74.326500
  H    -42.577600   38.762400   75.275300
  C    -40.849400   39.813600   76.216500
  H    -41.377300   40.749200   76.329100
  H    -40.763300   39.471100   77.242300
  H    -39.840800   40.132800   75.879900
  S    -43.718800   37.166700   79.558000
  C    -44.188600   36.723300   81.182100
  C    -43.429000   35.656300   81.579000
  C    -42.488700   35.249300   80.685700
  C    -42.471200   35.978900   79.489100
  H    -43.609100   35.124400   82.501400
  C    -41.504400   34.144000   80.956700
  H    -41.299700   34.050100   82.008600
  H    -40.491000   34.438700   80.498600
  C    -42.000600   32.749000   80.688100
  H    -42.239900   32.739600   79.664900
  H    -42.886300   32.455000   81.241200
  C    -40.932100   31.697300   80.945600
  H    -40.034900   31.827400   80.299600
  H    -41.286600   30.659700   80.854000
  H    -40.510700   31.750300   82.004900
  H    -39.195100   35.592700   75.791400
  H    -45.060100   37.087200   81.709800

 Total Charge           Charge          ....    0
 Multiplicity           Mult            ....    1
 Number of Electrons    NEL             ....  134
 Basis Dimension        Dim             ....  322

ORBITAL ENERGIES
----------------

  NO   OCC          E(Eh)            E(eV)
   0   2.0000     -88.967157     -2420.9194
   1   2.0000     -88.964595     -2420.8497
   2   2.0000     -10.331179      -281.1257
   3   2.0000     -10.329696      -281.0853
   4   2.0000     -10.317493      -280.7533
   5   2.0000     -10.296690      -280.1872
   6   2.0000     -10.296357      -280.1781
   7   2.0000     -10.295929      -280.1665
   8   2.0000     -10.293874      -280.1106
   9   2.0000     -10.289172      -279.9826
  10   2.0000     -10.288310      -279.9591
  11   2.0000     -10.287436      -279.9354
  12   2.0000     -10.282634      -279.8047
  13   2.0000     -10.280834      -279.7557
  14   2.0000     -10.276629      -279.6413
  15   2.0000     -10.275576      -279.6126
  16   2.0000      -8.082178      -219.9272
  17   2.0000      -8.079799      -219.8625
  18   2.0000      -6.040632      -164.3739
  19   2.0000      -6.038394      -164.3131
  20   2.0000      -6.036505      -164.2616
  21   2.0000      -6.034240      -164.2000
  22   2.0000      -6.033156      -164.1705
  23   2.0000      -6.030430      -164.0963
  24   2.0000      -1.018561       -27.7165
  25   2.0000      -0.998378       -27.1673
  26   2.0000      -0.915294       -24.9064
  27   2.0000      -0.911528       -24.8039
  28   2.0000      -0.882704       -24.0196
  29   2.0000      -0.854240       -23.2450
  30   2.0000      -0.841945       -22.9105
  31   2.0000      -0.821546       -22.3554
  32   2.0000      -0.783527       -21.3209
  33   2.0000      -0.771735       -21.0000
  34   2.0000      -0.715011       -19.4564
  35   2.0000      -0.700382       -19.0584
  36   2.0000      -0.692224       -18.8364
  37   2.0000      -0.678387       -18.4598
  38   2.0000      -0.638050       -17.3622
  39   2.0000      -0.622480       -16.9385
  40   2.0000      -0.603515       -16.4225
  41   2.0000      -0.577213       -15.7068
  42   2.0000      -0.568401       -15.4670
  43   2.0000      -0.551795       -15.0151
  44   2.0000      -0.539575       -14.6826
  45   2.0000      -0.527711       -14.3597
  46   2.0000      -0.516741       -14.0612
  47   2.0000      -0.514082       -13.9889
  48   2.0000      -0.510501       -13.8914
  49   2.0000      -0.498103       -13.5541
  50   2.0000      -0.494203       -13.4479
  51   2.0000      -0.480280       -13.0691
  52   2.0000      -0.473563       -12.8863
  53   2.0000      -0.467112       -12.7108
  54   2.0000      -0.456677       -12.4268
  55   2.0000      -0.448052       -12.1921
  56   2.0000      -0.443195       -12.0599
  57   2.0000      -0.440345       -11.9824
  58   2.0000      -0.433105       -11.7854
  59   2.0000      -0.429433       -11.6855
  60   2.0000      -0.418567       -11.3898
  61   2.0000      -0.413705       -11.2575
  62   2.0000      -0.402317       -10.9476
  63   2.0000      -0.370347       -10.0777
  64   2.0000      -0.335992        -9.1428
  65   2.0000      -0.325605        -8.8602
  66   2.0000      -0.283569        -7.7163
  67   0.0000       0.018577         0.5055
  68   0.0000       0.089426         2.4334
  69   0.0000       0.121023         3.2932
  70   0.0000       0.123011         3.3473
  71   0.0000       0.137117         3.7311

MULLIKEN ATOMIC CHARGES
-----------------------
   0 S :    0.089580
   1 C :   -0.046871
   2 C :   -0.099130
   3 C :   -0.036233
   4 C :   -0.072833
   5 H :    0.011067
   6 C :    0.076184
   7 H :    0.036839
   8 H :    0.012143
   9 C :   -0.044005
  10 H :    0.007930
  11 H :    0.035970
  12 C :   -0.059572
  13 H :    0.025327
  14 H :    0.041878
  15 H :    0.025157
  16 S :    0.071972
  17 C :   -0.071403
  18 C :   -0.028253
  19 C :   -0.041230
  20 C :   -0.130662
  21 H :    0.010133
  22 C :    0.010357
  23 H :    0.002012
  24 H :    0.049019
  25 C :   -0.011939
  26 H :    0.013670
  27 H :    0.027158
  28 C :   -0.076536
  29 H :    0.037260
  30 H :    0.038499
  31 H :    0.025718
  32 H :    0.011456
  33 H :    0.059336
Sum of atomic charges:   -0.0000000

LOEWDIN ATOMIC CHARGES
----------------------
   0 S :    0.430483
   1 C :   -0.206475
   2 C :   -0.057369
   3 C :   -0.075892
   4 C :   -0.185793
   5 H :    0.015377
   6 C :   -0.032334
   7 H :    0.037501
   8 H :    0.029331
   9 C :   -0.038007
  10 H :    0.019329
  11 H :    0.025780
  12 C :   -0.066572
  13 H :    0.025963
  14 H :    0.022797
  15 H :    0.027714
  16 S :    0.430858
  17 C :   -0.184364
  18 C :   -0.069861
  19 C :   -0.066769
  20 C :   -0.191758
  21 H :    0.033121
  22 C :   -0.040441
  23 H :    0.025414
  24 H :    0.031534
  25 C :   -0.037708
  26 H :    0.017410
  27 H :    0.026398
  28 C :   -0.072456
  29 H :    0.028187
  30 H :    0.026598
  31 H :    0.026143
  32 H :    0.013172
  33 H :    0.032691

  Mayer bond orders larger than 0.100000
B(  0-S ,  1-C ) :   1.1349 B(  0-S ,  4-C ) :   1.1383 B(  1-C ,  2-C ) :   1.6376
B(  1-C , 32-H ) :   0.9655 B(  2-C ,  3-C ) :   1.2428 B(  2-C ,  6-C ) :   1.0112
B(  3-C ,  4-C ) :   1.5636 B(  3-C ,  5-H ) :   0.9860 B(  4-C , 20-C ) :   1.0821
B(  6-C ,  7-H ) :   0.9307 B(  6-C ,  8-H ) :   0.9392 B(  6-C ,  9-C ) :   1.0930
B(  9-C , 10-H ) :   0.9472 B(  9-C , 11-H ) :   0.9477 B(  9-C , 12-C ) :   1.0703
B( 12-C , 13-H ) :   0.9736 B( 12-C , 14-H ) :   0.9768 B( 12-C , 15-H ) :   0.9742
B( 16-S , 17-C ) :   1.1648 B( 16-S , 20-C ) :   1.1617 B( 17-C , 18-C ) :   1.5503
B( 17-C , 20-C ) :   0.1076 B( 17-C , 33-H ) :   0.9695 B( 18-C , 19-C ) :   1.3283
B( 18-C , 21-H ) :   0.9871 B( 19-C , 20-C ) :   1.5148 B( 19-C , 22-C ) :   1.0367
B( 22-C , 23-H ) :   0.9248 B( 22-C , 24-H ) :   0.9376 B( 22-C , 25-C ) :   1.0563
B( 25-C , 26-H ) :   0.9480 B( 25-C , 27-H ) :   0.9526 B( 25-C , 28-C ) :   1.0880
B( 28-C , 29-H ) :   0.9735 B( 28-C , 30-H ) :   0.9744 B( 28-C , 31-H ) :   0.9712

Dispersion correction           -0.014440583
FINAL SINGLE POINT ENERGY     -1339.871763570643

DIPOLE MOMENT
-------------
                                X             Y             Z
Electronic contribution:     -5.45006       1.77355       3.10476
Nuclear contribution   :      5.39885      -1.63744      -3.18436
                        -----------------------------------------
Total Dipole Moment    :     -0.05121       0.13611      -0.07960
                        -----------------------------------------
Magnitude (a.u.)       :      0.16578
Magnitude (Debye)      :      0.42138

Rotational constants in cm-1:     0.021122     0.009189     0.006728
Rotational constants in MHz :   633.223510   275.483935   201.713754

                             ****ORCA TERMINATED NORMALLY****
TOTAL RUN TIME: 0 days 0 hours 0 minutes 30 seconds 762 msec
