                         Program Version 4.2.1 -  RELEASE  -
|  1> ! wB97X-D3 SP def2-SVP
|  2> %pal
|  3> nprocs 16
|  4> end
|  5>
|  6> * xyz 0 1
|  7> S 	 -69.5199 	 42.5667 	 124.782
|  8> C 	 -70.1556 	 44.1365 	 124.223
|  9> C 	 -69.3942 	 44.6626 	 123.221
| 10> C 	 -68.3273 	 43.8037 	 122.848
| 11> C 	 -68.1369 	 42.665 	 123.601
| 12> H 	 -67.6427 	 44.0936 	 122.052
| 13> C 	 -69.5264 	 46.1059 	 122.748
| 14> H 	 -70.2279 	 46.6101 	 123.395
| 15> H 	 -69.8681 	 46.1112 	 121.727
| 16> C 	 -68.2734 	 46.9017 	 122.766
| 17> H 	 -67.6445 	 46.5689 	 121.937
| 18> H 	 -68.4233 	 47.9428 	 122.521
| 19> C 	 -67.5407 	 46.8395 	 124.149
| 20> H 	 -68.1278 	 47.2737 	 124.924
| 21> H 	 -67.2655 	 45.8608 	 124.511
| 22> H 	 -66.5907 	 47.4453 	 124.019
| 23> S 	 -67.6057 	 40.1193 	 122.921
| 24> C 	 -65.9938 	 39.5728 	 123.03
| 25> C 	 -65.1299 	 40.5179 	 123.529
| 26> C 	 -65.7853 	 41.7326 	 123.914
| 27> C 	 -67.1164 	 41.6321 	 123.556
| 28> H 	 -64.196 	 40.2227 	 123.706
| 29> C 	 -65.0884 	 42.9665 	 124.508
| 30> H 	 -64.5374 	 42.6361 	 125.405
| 31> H 	 -65.942 	 43.6396 	 124.831
| 32> C 	 -64.0908 	 43.7336 	 123.469
| 33> H 	 -63.3172 	 42.9628 	 123.153
| 34> H 	 -63.638 	 44.5881 	 123.934
| 35> C 	 -64.867 	 44.295 	 122.293
| 36> H 	 -64.2042 	 44.7462 	 121.561
| 37> H 	 -65.6426 	 45.0238 	 122.618
| 38> H 	 -65.5132 	 43.5849 	 121.787
| 39> H 	 -71.0431 	 44.6404 	 124.641
| 40> H 	 -65.6747 	 38.6181 	 122.726
| 41> *
| 42>
| 43>                          ****END OF INPUT****

CARTESIAN COORDINATES (ANGSTROEM)
---------------------------------
  S    -69.519900   42.566700  124.782000
  C    -70.155600   44.136500  124.223000
  C    -69.394200   44.662600  123.221000
  C    -68.327300   43.803700  122.848000
  C    -68.136900   42.665000  123.601000
  H    -67.642700   44.093600  122.052000
  C    -69.526400   46.105900  122.748000
  H    -70.227900   46.610100  123.395000
  H    -69.868100   46.111200  121.727000
  C    -68.273400   46.901700  122.766000
  H    -67.644500   46.568900  121.937000
  H    -68.423300   47.942800  122.521000
  C    -67.540700   46.839500  124.149000
  H    -68.127800   47.273700  124.924000
  H    -67.265500   45.860800  124.511000
  H    -66.590700   47.445300  124.019000
  S    -67.605700   40.119300  122.921000
  C    -65.993800   39.572800  123.030000
  C    -65.129900   40.517900  123.529000
  C    -65.785300   41.732600  123.914000
  C    -67.116400   41.632100  123.556000
  H    -64.196000   40.222700  123.706000
  C    -65.088400   42.966500  124.508000
  H    -64.537400   42.636100  125.405000
  H    -65.942000   43.639600  124.831000
  C    -64.090800   43.733600  123.469000
  H    -63.317200   42.962800  123.153000
  H    -63.638000   44.588100  123.934000
  C    -64.867000   44.295000  122.293000
  H    -64.204200   44.746200  121.561000
  H    -65.642600   45.023800  122.618000
  H    -65.513200   43.584900  121.787000
  H    -71.043100   44.640400  124.641000
  H    -65.674700   38.618100  122.726000

 Total Charge           Charge          ....    0
 Multiplicity           Mult            ....    1
 Number of Electrons    NEL             ....  134
 Basis Dimension        Dim             ....  322

ORBITAL ENERGIES
----------------

  NO   OCC          E(Eh)            E(eV)
   0   2.0000     -88.967008     -2420.9154
   1   2.0000     -88.960581     -2420.7405
   2   2.0000     -10.332061      -281.1497
   3   2.0000     -10.321048      -280.8500
   4   2.0000     -10.315926      -280.7106
   5   2.0000     -10.309519      -280.5363
   6   2.0000     -10.305865      -280.4368
   7   2.0000     -10.304345      -280.3955
   8   2.0000     -10.298144      -280.2267
   9   2.0000     -10.296040      -280.1695
  10   2.0000     -10.293994      -280.1138
  11   2.0000     -10.287236      -279.9299
  12   2.0000     -10.285954      -279.8950
  13   2.0000     -10.283527      -279.8290
  14   2.0000     -10.277829      -279.6740
  15   2.0000     -10.276111      -279.6272
  16   2.0000      -8.083384      -219.9601
  17   2.0000      -8.074049      -219.7060
  18   2.0000      -6.041654      -164.4018
  19   2.0000      -6.037685      -164.2938
  20   2.0000      -6.034269      -164.2008
  21   2.0000      -6.032695      -164.1580
  22   2.0000      -6.028736      -164.0502
  23   2.0000      -6.024728      -163.9412
  24   2.0000      -1.011237       -27.5171
  25   2.0000      -0.982066       -26.7234
  26   2.0000      -0.915353       -24.9080
  27   2.0000      -0.901031       -24.5183
  28   2.0000      -0.870258       -23.6809
  29   2.0000      -0.853505       -23.2251
  30   2.0000      -0.835689       -22.7402
  31   2.0000      -0.817126       -22.2351
  32   2.0000      -0.784368       -21.3437
  33   2.0000      -0.772771       -21.0282
  34   2.0000      -0.712776       -19.3956
  35   2.0000      -0.698723       -19.0132
  36   2.0000      -0.691762       -18.8238
  37   2.0000      -0.665761       -18.1163
  38   2.0000      -0.636969       -17.3328
  39   2.0000      -0.624298       -16.9880
  40   2.0000      -0.592503       -16.1228
  41   2.0000      -0.563035       -15.3210
  42   2.0000      -0.559049       -15.2125
  43   2.0000      -0.552603       -15.0371
  44   2.0000      -0.547591       -14.9007
  45   2.0000      -0.540918       -14.7191
  46   2.0000      -0.518709       -14.1148
  47   2.0000      -0.510134       -13.8814
  48   2.0000      -0.501306       -13.6412
  49   2.0000      -0.499445       -13.5906
  50   2.0000      -0.487335       -13.2611
  51   2.0000      -0.478415       -13.0183
  52   2.0000      -0.470164       -12.7938
  53   2.0000      -0.459944       -12.5157
  54   2.0000      -0.456884       -12.4324
  55   2.0000      -0.450264       -12.2523
  56   2.0000      -0.443243       -12.0613
  57   2.0000      -0.436962       -11.8903
  58   2.0000      -0.428938       -11.6720
  59   2.0000      -0.427410       -11.6304
  60   2.0000      -0.424248       -11.5444
  61   2.0000      -0.419924       -11.4267
  62   2.0000      -0.410942       -11.1823
  63   2.0000      -0.339690        -9.2434
  64   2.0000      -0.328889        -8.9495
  65   2.0000      -0.326107        -8.8738
  66   2.0000      -0.305069        -8.3014
  67   0.0000       0.041694         1.1345
  68   0.0000       0.059937         1.6310
  69   0.0000       0.118335         3.2201
  70   0.0000       0.122800         3.3416
  71   0.0000       0.129568         3.5257

MULLIKEN ATOMIC CHARGES
-----------------------
   0 S :    0.082817
   1 C :   -0.139352
   2 C :   -0.106477
   3 C :    0.054923
   4 C :   -0.170362
   5 H :   -0.002019
   6 C :    0.127112
   7 H :    0.010341
   8 H :    0.029209
   9 C :   -0.091714
  10 H :    0.021914
  11 H :    0.026885
  12 C :   -0.056510
  13 H :    0.024616
  14 H :    0.043551
  15 H :    0.038613
  16 S :    0.143114
  17 C :   -0.069606
  18 C :    0.009000
  19 C :   -0.007004
  20 C :   -0.199725
  21 H :   -0.038990
  22 C :    0.033947
  23 H :    0.041382
  24 H :    0.049582
  25 C :   -0.060061
  26 H :    0.046042
  27 H :    0.037916
  28 C :   -0.065938
  29 H :    0.037158
  30 H :    0.020645
  31 H :    0.039484
  32 H :    0.056642
  33 H :    0.032860
Sum of atomic charges:    0.0000000

LOEWDIN ATOMIC CHARGES
----------------------
   0 S :    0.351470
   1 C :   -0.182887
   2 C :   -0.072437
   3 C :   -0.058167
   4 C :   -0.173573
   5 H :    0.029564
   6 C :   -0.026098
   7 H :    0.026552
   8 H :    0.031765
   9 C :   -0.043023
  10 H :    0.019281
  11 H :    0.026912
  12 C :   -0.065339
  13 H :    0.021068
  14 H :    0.021015
  15 H :    0.032983
  16 S :    0.448516
  17 C :   -0.183342
  18 C :   -0.056384
  19 C :   -0.047007
  20 C :   -0.223116
  21 H :    0.007298
  22 C :   -0.032602
  23 H :    0.033704
  24 H :    0.037394
  25 C :   -0.032613
  26 H :    0.030595
  27 H :    0.023976
  28 C :   -0.072698
  29 H :    0.026571
  30 H :    0.027768
  31 H :    0.020861
  32 H :    0.034117
  33 H :    0.017877

  Mayer bond orders larger than 0.100000
B(  0-S ,  1-C ) :   1.1302 B(  0-S ,  4-C ) :   1.1178 B(  1-C ,  2-C ) :   1.6448
B(  1-C , 32-H ) :   0.9584 B(  2-C ,  3-C ) :   1.2258 B(  2-C ,  6-C ) :   1.0183
B(  3-C ,  4-C ) :   1.6165 B(  3-C ,  5-H ) :   0.9875 B(  4-C , 20-C ) :   1.0089
B(  6-C ,  7-H ) :   0.9436 B(  6-C ,  8-H ) :   0.9263 B(  6-C ,  9-C ) :   1.0927
B(  9-C , 10-H ) :   0.9483 B(  9-C , 11-H ) :   0.9493 B(  9-C , 12-C ) :   1.0700
B( 12-C , 13-H ) :   0.9720 B( 12-C , 14-H ) :   0.9719 B( 12-C , 15-H ) :   0.9733
B( 16-S , 17-C ) :   1.1615 B( 16-S , 20-C ) :   1.1750 B( 17-C , 18-C ) :   1.6176
B( 17-C , 33-H ) :   0.9721 B( 18-C , 19-C ) :   1.2180 B( 18-C , 21-H ) :   1.0084
B( 19-C , 20-C ) :   1.5897 B( 19-C , 22-C ) :   1.0375 B( 22-C , 23-H ) :   0.9355
B( 22-C , 24-H ) :   0.9357 B( 22-C , 25-C ) :   1.0530 B( 25-C , 26-H ) :   0.9575
B( 25-C , 27-H ) :   0.9580 B( 25-C , 28-C ) :   1.0760 B( 28-C , 29-H ) :   0.9666
B( 28-C , 30-H ) :   0.9682 B( 28-C , 31-H ) :   0.9688

Dispersion correction           -0.017589054
FINAL SINGLE POINT ENERGY     -1339.882846863399

DIPOLE MOMENT
-------------
                                X             Y             Z
Electronic contribution:    -13.17927     -25.49694       3.52653
Nuclear contribution   :     13.63477      25.99698      -3.70257
                        -----------------------------------------
Total Dipole Moment    :      0.45550       0.50005      -0.17604
                        -----------------------------------------
Magnitude (a.u.)       :      0.69894
Magnitude (Debye)      :      1.77657

Rotational constants in cm-1:     0.019478     0.011023     0.008008
Rotational constants in MHz :   583.926124   330.461804   240.082477

                             ****ORCA TERMINATED NORMALLY****
TOTAL RUN TIME: 0 days 0 hours 0 minutes 38 seconds 581 msec
