                         Program Version 4.2.1 -  RELEASE  -
|  1> ! wB97X-D3 SP def2-SVP
|  2> %pal
|  3> nprocs 16
|  4> end
|  5>
|  6> * xyz 0 1
|  7> S 	 61.3284 	 5.32134 	 77.7396
|  8> C 	 60.4979 	 6.66582 	 78.5109
|  9> C 	 59.7649 	 7.32755 	 77.5696
| 10> C 	 59.85 	 6.7506 	 76.2453
| 11> C 	 60.8113 	 5.79609 	 76.168
| 12> H 	 59.3015 	 7.13621 	 75.4293
| 13> C 	 58.9102 	 8.53479 	 77.997
| 14> H 	 59.3393 	 9.50557 	 77.6354
| 15> H 	 58.9635 	 8.64056 	 79.0462
| 16> C 	 57.4065 	 8.42759 	 77.4473
| 17> H 	 57.4962 	 8.59275 	 76.3831
| 18> H 	 56.8814 	 7.46241 	 77.6325
| 19> C 	 56.4519 	 9.4626 	 78.1859
| 20> H 	 56.4268 	 9.17009 	 79.2338
| 21> H 	 56.8181 	 10.4543 	 77.9763
| 22> H 	 55.4193 	 9.42898 	 77.7644
| 23> S 	 61.0389 	 3.22482 	 75.1434
| 24> C 	 61.7206 	 3.01252 	 73.5393
| 25> C 	 61.7508 	 4.20048 	 72.8847
| 26> C 	 61.397 	 5.30433 	 73.6945
| 27> C 	 61.0474 	 5.00451 	 74.9679
| 28> H 	 62.1282 	 4.44945 	 71.8972
| 29> C 	 61.7061 	 6.72232 	 73.1757
| 30> H 	 62.7967 	 6.87953 	 73.1109
| 31> H 	 61.3719 	 7.38477 	 74.0337
| 32> C 	 60.9314 	 7.10265 	 71.8634
| 33> H 	 59.8802 	 7.05336 	 72.0111
| 34> H 	 61.323 	 6.36299 	 71.184
| 35> C 	 61.2975 	 8.54408 	 71.4972
| 36> H 	 62.3318 	 8.44119 	 71.1554
| 37> H 	 61.3475 	 9.29342 	 72.3402
| 38> H 	 60.7383 	 8.94244 	 70.6465
| 39> H 	 60.3502 	 6.75745 	 79.5847
| 40> H 	 61.9206 	 2.13102 	 72.9442
| 41> *
| 42>
| 43>                          ****END OF INPUT****

CARTESIAN COORDINATES (ANGSTROEM)
---------------------------------
  S     61.328400    5.321340   77.739600
  C     60.497900    6.665820   78.510900
  C     59.764900    7.327550   77.569600
  C     59.850000    6.750600   76.245300
  C     60.811300    5.796090   76.168000
  H     59.301500    7.136210   75.429300
  C     58.910200    8.534790   77.997000
  H     59.339300    9.505570   77.635400
  H     58.963500    8.640560   79.046200
  C     57.406500    8.427590   77.447300
  H     57.496200    8.592750   76.383100
  H     56.881400    7.462410   77.632500
  C     56.451900    9.462600   78.185900
  H     56.426800    9.170090   79.233800
  H     56.818100   10.454300   77.976300
  H     55.419300    9.428980   77.764400
  S     61.038900    3.224820   75.143400
  C     61.720600    3.012520   73.539300
  C     61.750800    4.200480   72.884700
  C     61.397000    5.304330   73.694500
  C     61.047400    5.004510   74.967900
  H     62.128200    4.449450   71.897200
  C     61.706100    6.722320   73.175700
  H     62.796700    6.879530   73.110900
  H     61.371900    7.384770   74.033700
  C     60.931400    7.102650   71.863400
  H     59.880200    7.053360   72.011100
  H     61.323000    6.362990   71.184000
  C     61.297500    8.544080   71.497200
  H     62.331800    8.441190   71.155400
  H     61.347500    9.293420   72.340200
  H     60.738300    8.942440   70.646500
  H     60.350200    6.757450   79.584700
  H     61.920600    2.131020   72.944200

 Total Charge           Charge          ....    0
 Multiplicity           Mult            ....    1
 Number of Electrons    NEL             ....  134
 Basis Dimension        Dim             ....  322

ORBITAL ENERGIES
----------------

  NO   OCC          E(Eh)            E(eV)
   0   2.0000     -88.964587     -2420.8495
   1   2.0000     -88.964163     -2420.8380
   2   2.0000     -10.328663      -281.0572
   3   2.0000     -10.326264      -280.9919
   4   2.0000     -10.316573      -280.7282
   5   2.0000     -10.312392      -280.6145
   6   2.0000     -10.301941      -280.3301
   7   2.0000     -10.298662      -280.2408
   8   2.0000     -10.296049      -280.1697
   9   2.0000     -10.295760      -280.1619
  10   2.0000     -10.294922      -280.1391
  11   2.0000     -10.292052      -280.0610
  12   2.0000     -10.288536      -279.9653
  13   2.0000     -10.287829      -279.9461
  14   2.0000     -10.284280      -279.8495
  15   2.0000     -10.282758      -279.8081
  16   2.0000      -8.079810      -219.8628
  17   2.0000      -8.078302      -219.8218
  18   2.0000      -6.038412      -164.3135
  19   2.0000      -6.037038      -164.2762
  20   2.0000      -6.034242      -164.2001
  21   2.0000      -6.032925      -164.1642
  22   2.0000      -6.030426      -164.0962
  23   2.0000      -6.028796      -164.0519
  24   2.0000      -1.012117       -27.5411
  25   2.0000      -0.988250       -26.8916
  26   2.0000      -0.906293       -24.6615
  27   2.0000      -0.902229       -24.5509
  28   2.0000      -0.871884       -23.7252
  29   2.0000      -0.850892       -23.1540
  30   2.0000      -0.841818       -22.9070
  31   2.0000      -0.820222       -22.3194
  32   2.0000      -0.776178       -21.1209
  33   2.0000      -0.767223       -20.8772
  34   2.0000      -0.711582       -19.3631
  35   2.0000      -0.700477       -19.0609
  36   2.0000      -0.692943       -18.8559
  37   2.0000      -0.663217       -18.0470
  38   2.0000      -0.644506       -17.5379
  39   2.0000      -0.622998       -16.9526
  40   2.0000      -0.591676       -16.1003
  41   2.0000      -0.570939       -15.5360
  42   2.0000      -0.568614       -15.4728
  43   2.0000      -0.559776       -15.2323
  44   2.0000      -0.524780       -14.2800
  45   2.0000      -0.521308       -14.1855
  46   2.0000      -0.512513       -13.9462
  47   2.0000      -0.511543       -13.9198
  48   2.0000      -0.507032       -13.7970
  49   2.0000      -0.502040       -13.6612
  50   2.0000      -0.493972       -13.4417
  51   2.0000      -0.481218       -13.0946
  52   2.0000      -0.472977       -12.8704
  53   2.0000      -0.467455       -12.7201
  54   2.0000      -0.459256       -12.4970
  55   2.0000      -0.453973       -12.3532
  56   2.0000      -0.441975       -12.0268
  57   2.0000      -0.435969       -11.8633
  58   2.0000      -0.433248       -11.7893
  59   2.0000      -0.429318       -11.6823
  60   2.0000      -0.419037       -11.4026
  61   2.0000      -0.411289       -11.1917
  62   2.0000      -0.405033       -11.0215
  63   2.0000      -0.352029        -9.5792
  64   2.0000      -0.331715        -9.0264
  65   2.0000      -0.327157        -8.9024
  66   2.0000      -0.297848        -8.1049
  67   0.0000       0.028437         0.7738
  68   0.0000       0.076195         2.0734
  69   0.0000       0.111178         3.0253
  70   0.0000       0.125346         3.4109
  71   0.0000       0.128611         3.4997

MULLIKEN ATOMIC CHARGES
-----------------------
   0 S :    0.101699
   1 C :   -0.130991
   2 C :   -0.083554
   3 C :    0.043333
   4 C :   -0.126751
   5 H :    0.004936
   6 C :    0.075507
   7 H :    0.042318
   8 H :   -0.002007
   9 C :   -0.129297
  10 H :    0.038741
  11 H :    0.047774
  12 C :   -0.058844
  13 H :    0.045440
  14 H :    0.029840
  15 H :    0.041686
  16 S :    0.094019
  17 C :   -0.064162
  18 C :   -0.028192
  19 C :   -0.036944
  20 C :   -0.151944
  21 H :    0.015559
  22 C :   -0.018768
  23 H :    0.047966
  24 H :    0.024079
  25 C :   -0.053946
  26 H :    0.032590
  27 H :    0.029647
  28 C :   -0.049221
  29 H :    0.019174
  30 H :    0.043637
  31 H :    0.040393
  32 H :    0.060199
  33 H :    0.056087
Sum of atomic charges:    0.0000000

LOEWDIN ATOMIC CHARGES
----------------------
   0 S :    0.409908
   1 C :   -0.199105
   2 C :   -0.059396
   3 C :   -0.055562
   4 C :   -0.197243
   5 H :    0.024882
   6 C :   -0.026513
   7 H :    0.036595
   8 H :    0.017247
   9 C :   -0.040661
  10 H :    0.018177
  11 H :    0.028938
  12 C :   -0.066107
  13 H :    0.026930
  14 H :    0.019722
  15 H :    0.030404
  16 S :    0.381500
  17 C :   -0.179214
  18 C :   -0.074744
  19 C :   -0.066049
  20 C :   -0.178133
  21 H :    0.029189
  22 C :   -0.033596
  23 H :    0.032826
  24 H :    0.029493
  25 C :   -0.032627
  26 H :    0.020570
  27 H :    0.021609
  28 C :   -0.072394
  29 H :    0.026146
  30 H :    0.032433
  31 H :    0.025179
  32 H :    0.033569
  33 H :    0.036027

  Mayer bond orders larger than 0.100000
B(  0-S ,  1-C ) :   1.1220 B(  0-S ,  4-C ) :   1.1555 B(  1-C ,  2-C ) :   1.6288
B(  1-C , 32-H ) :   0.9661 B(  2-C ,  3-C ) :   1.2364 B(  2-C ,  6-C ) :   1.0260
B(  3-C ,  4-C ) :   1.5544 B(  3-C ,  5-H ) :   1.0011 B(  4-C , 20-C ) :   1.0391
B(  6-C ,  7-H ) :   0.9392 B(  6-C ,  8-H ) :   0.9472 B(  6-C ,  9-C ) :   1.0361
B(  9-C , 10-H ) :   0.9582 B(  9-C , 11-H ) :   0.9678 B(  9-C , 12-C ) :   1.0745
B( 12-C , 13-H ) :   0.9789 B( 12-C , 14-H ) :   0.9773 B( 12-C , 15-H ) :   0.9767
B( 16-S , 17-C ) :   1.1369 B( 16-S , 20-C ) :   1.1112 B( 17-C , 18-C ) :   1.6254
B( 17-C , 33-H ) :   0.9616 B( 18-C , 19-C ) :   1.2482 B( 18-C , 21-H ) :   0.9785
B( 19-C , 20-C ) :   1.6523 B( 19-C , 22-C ) :   1.0265 B( 22-C , 23-H ) :   0.9483
B( 22-C , 24-H ) :   0.9362 B( 22-C , 25-C ) :   1.0441 B( 25-C , 26-H ) :   0.9584
B( 25-C , 27-H ) :   0.9606 B( 25-C , 28-C ) :   1.0792 B( 28-C , 29-H ) :   0.9725
B( 28-C , 30-H ) :   0.9744 B( 28-C , 31-H ) :   0.9747

Dispersion correction           -0.013378825
FINAL SINGLE POINT ENERGY     -1339.868698932416

DIPOLE MOMENT
-------------
                                X             Y             Z
Electronic contribution:     12.25721     -26.00863       9.00883
Nuclear contribution   :    -12.52560      26.58141      -9.31170
                        -----------------------------------------
Total Dipole Moment    :     -0.26839       0.57278      -0.30287
                        -----------------------------------------
Magnitude (a.u.)       :      0.70132
Magnitude (Debye)      :      1.78260

Rotational constants in cm-1:     0.016646     0.008508     0.006293
Rotational constants in MHz :   499.033277   255.071862   188.656629

                             ****ORCA TERMINATED NORMALLY****
TOTAL RUN TIME: 0 days 0 hours 0 minutes 27 seconds 769 msec
