                         Program Version 4.2.1 -  RELEASE  -
|  1> ! wB97X-D3 SP def2-SVP
|  2> %pal
|  3> nprocs 16
|  4> end
|  5>
|  6> * xyz 0 1
|  7> S 	 11.0842 	 -8.46251 	 97.6858
|  8> C 	 10.4595 	 -10.1323 	 97.7061
|  9> C 	 9.45096 	 -10.219 	 96.7847
| 10> C 	 9.36211 	 -9.10545 	 95.924
| 11> C 	 10.2433 	 -8.11513 	 96.1778
| 12> H 	 8.62177 	 -9.0035 	 95.1765
| 13> C 	 8.50014 	 -11.414 	 96.8282
| 14> H 	 8.99356 	 -12.1918 	 97.4012
| 15> H 	 8.27264 	 -11.6976 	 95.8631
| 16> C 	 7.16399 	 -11.1798 	 97.5527
| 17> H 	 6.61655 	 -12.0921 	 97.6642
| 18> H 	 7.31466 	 -10.8279 	 98.5871
| 19> C 	 6.19757 	 -10.3024 	 96.6276
| 20> H 	 6.43481 	 -9.31296 	 96.9647
| 21> H 	 6.26034 	 -10.4092 	 95.4877
| 22> H 	 5.1963 	 -10.4267 	 96.9288
| 23> S 	 9.88901 	 -5.28906 	 96.3355
| 24> C 	 10.1183 	 -4.40639 	 94.8572
| 25> C 	 10.6549 	 -5.15805 	 93.8323
| 26> C 	 10.8148 	 -6.49736 	 94.2245
| 27> C 	 10.2821 	 -6.80163 	 95.4954
| 28> H 	 10.9808 	 -4.55489 	 92.923
| 29> C 	 11.3403 	 -7.57632 	 93.2479
| 30> H 	 11.76 	 -8.47123 	 93.7214
| 31> H 	 12.2843 	 -7.3062 	 92.8249
| 32> C 	 10.2384 	 -7.91067 	 92.1921
| 33> H 	 10.0895 	 -7.01851 	 91.6923
| 34> H 	 9.29383 	 -8.11272 	 92.7127
| 35> C 	 10.565 	 -9.05393 	 91.2296
| 36> H 	 11.623 	 -9.24219 	 91.0738
| 37> H 	 10.1316 	 -8.97257 	 90.2388
| 38> H 	 10.2598 	 -9.99275 	 91.787
| 39> H 	 10.6276 	 -10.8546 	 98.4834
| 40> H 	 9.92122 	 -3.37488 	 94.761
| 41> *
| 42>
| 43>                          ****END OF INPUT****

CARTESIAN COORDINATES (ANGSTROEM)
---------------------------------
  S     11.084200   -8.462510   97.685800
  C     10.459500  -10.132300   97.706100
  C      9.450960  -10.219000   96.784700
  C      9.362110   -9.105450   95.924000
  C     10.243300   -8.115130   96.177800
  H      8.621770   -9.003500   95.176500
  C      8.500140  -11.414000   96.828200
  H      8.993560  -12.191800   97.401200
  H      8.272640  -11.697600   95.863100
  C      7.163990  -11.179800   97.552700
  H      6.616550  -12.092100   97.664200
  H      7.314660  -10.827900   98.587100
  C      6.197570  -10.302400   96.627600
  H      6.434810   -9.312960   96.964700
  H      6.260340  -10.409200   95.487700
  H      5.196300  -10.426700   96.928800
  S      9.889010   -5.289060   96.335500
  C     10.118300   -4.406390   94.857200
  C     10.654900   -5.158050   93.832300
  C     10.814800   -6.497360   94.224500
  C     10.282100   -6.801630   95.495400
  H     10.980800   -4.554890   92.923000
  C     11.340300   -7.576320   93.247900
  H     11.760000   -8.471230   93.721400
  H     12.284300   -7.306200   92.824900
  C     10.238400   -7.910670   92.192100
  H     10.089500   -7.018510   91.692300
  H      9.293830   -8.112720   92.712700
  C     10.565000   -9.053930   91.229600
  H     11.623000   -9.242190   91.073800
  H     10.131600   -8.972570   90.238800
  H     10.259800   -9.992750   91.787000
  H     10.627600  -10.854600   98.483400
  H      9.921220   -3.374880   94.761000

 Total Charge           Charge          ....    0
 Multiplicity           Mult            ....    1
 Number of Electrons    NEL             ....  134
 Basis Dimension        Dim             ....  322

ORBITAL ENERGIES
----------------

  NO   OCC          E(Eh)            E(eV)
   0   2.0000     -88.968519     -2420.9565
   1   2.0000     -88.962079     -2420.7812
   2   2.0000     -10.330145      -281.0975
   3   2.0000     -10.328587      -281.0551
   4   2.0000     -10.314324      -280.6670
   5   2.0000     -10.312816      -280.6260
   6   2.0000     -10.308156      -280.4992
   7   2.0000     -10.298223      -280.2289
   8   2.0000     -10.296380      -280.1787
   9   2.0000     -10.289148      -279.9820
  10   2.0000     -10.288403      -279.9617
  11   2.0000     -10.286569      -279.9118
  12   2.0000     -10.285540      -279.8838
  13   2.0000     -10.280293      -279.7410
  14   2.0000     -10.279369      -279.7158
  15   2.0000     -10.278823      -279.7010
  16   2.0000      -8.082964      -219.9486
  17   2.0000      -8.076351      -219.7687
  18   2.0000      -6.041354      -164.3936
  19   2.0000      -6.037605      -164.2916
  20   2.0000      -6.034962      -164.2197
  21   2.0000      -6.033790      -164.1878
  22   2.0000      -6.031097      -164.1145
  23   2.0000      -6.026849      -163.9989
  24   2.0000      -1.005210       -27.3532
  25   2.0000      -0.985947       -26.8290
  26   2.0000      -0.908779       -24.7291
  27   2.0000      -0.902881       -24.5686
  28   2.0000      -0.866181       -23.5700
  29   2.0000      -0.848405       -23.0863
  30   2.0000      -0.839791       -22.8519
  31   2.0000      -0.818443       -22.2710
  32   2.0000      -0.783057       -21.3081
  33   2.0000      -0.770481       -20.9659
  34   2.0000      -0.705926       -19.2092
  35   2.0000      -0.702022       -19.1030
  36   2.0000      -0.701638       -19.0925
  37   2.0000      -0.653052       -17.7705
  38   2.0000      -0.642659       -17.4876
  39   2.0000      -0.620953       -16.8970
  40   2.0000      -0.597200       -16.2506
  41   2.0000      -0.575416       -15.6579
  42   2.0000      -0.557321       -15.1655
  43   2.0000      -0.544775       -14.8241
  44   2.0000      -0.541540       -14.7361
  45   2.0000      -0.523898       -14.2560
  46   2.0000      -0.513835       -13.9822
  47   2.0000      -0.511037       -13.9060
  48   2.0000      -0.504008       -13.7147
  49   2.0000      -0.502189       -13.6652
  50   2.0000      -0.486816       -13.2469
  51   2.0000      -0.479499       -13.0478
  52   2.0000      -0.471681       -12.8351
  53   2.0000      -0.462869       -12.5953
  54   2.0000      -0.457372       -12.4457
  55   2.0000      -0.449149       -12.2220
  56   2.0000      -0.448172       -12.1954
  57   2.0000      -0.440004       -11.9731
  58   2.0000      -0.437475       -11.9043
  59   2.0000      -0.422405       -11.4942
  60   2.0000      -0.416441       -11.3319
  61   2.0000      -0.408313       -11.1108
  62   2.0000      -0.402627       -10.9560
  63   2.0000      -0.340978        -9.2785
  64   2.0000      -0.333786        -9.0828
  65   2.0000      -0.327012        -8.8985
  66   2.0000      -0.298260        -8.1161
  67   0.0000       0.034898         0.9496
  68   0.0000       0.056399         1.5347
  69   0.0000       0.112656         3.0655
  70   0.0000       0.123250         3.3538
  71   0.0000       0.130036         3.5385

MULLIKEN ATOMIC CHARGES
-----------------------
   0 S :    0.090172
   1 C :   -0.115952
   2 C :   -0.099353
   3 C :    0.051110
   4 C :   -0.130176
   5 H :   -0.007743
   6 C :    0.119251
   7 H :    0.014507
   8 H :    0.002288
   9 C :   -0.074240
  10 H :    0.025790
  11 H :    0.033474
  12 C :   -0.078359
  13 H :    0.037855
  14 H :    0.053956
  15 H :    0.022153
  16 S :    0.116658
  17 C :   -0.087550
  18 C :   -0.054334
  19 C :   -0.032035
  20 C :   -0.172121
  21 H :    0.051872
  22 C :    0.071985
  23 H :    0.018667
  24 H :    0.009046
  25 C :   -0.044633
  26 H :    0.005622
  27 H :    0.029979
  28 C :   -0.046090
  29 H :    0.022808
  30 H :    0.041805
  31 H :    0.036764
  32 H :    0.045562
  33 H :    0.041260
Sum of atomic charges:    0.0000000

LOEWDIN ATOMIC CHARGES
----------------------
   0 S :    0.378792
   1 C :   -0.181701
   2 C :   -0.061758
   3 C :   -0.058617
   4 C :   -0.182265
   5 H :    0.024962
   6 C :   -0.018324
   7 H :    0.029942
   8 H :    0.015714
   9 C :   -0.031774
  10 H :    0.018158
  11 H :    0.027043
  12 C :   -0.073289
  13 H :    0.025780
  14 H :    0.035407
  15 H :    0.017606
  16 S :    0.404815
  17 C :   -0.177685
  18 C :   -0.084834
  19 C :   -0.045326
  20 C :   -0.198521
  21 H :    0.051005
  22 C :   -0.032570
  23 H :    0.029471
  24 H :    0.025475
  25 C :   -0.033960
  26 H :    0.010974
  27 H :    0.025933
  28 C :   -0.071784
  29 H :    0.022696
  30 H :    0.027160
  31 H :    0.035392
  32 H :    0.026515
  33 H :    0.019568

  Mayer bond orders larger than 0.100000
B(  0-S ,  1-C ) :   1.1238 B(  0-S ,  4-C ) :   1.1398 B(  1-C ,  2-C ) :   1.6227
B(  1-C , 32-H ) :   0.9694 B(  2-C ,  3-C ) :   1.2382 B(  2-C ,  6-C ) :   1.0313
B(  3-C ,  4-C ) :   1.5861 B(  3-C ,  5-H ) :   1.0016 B(  4-C , 20-C ) :   1.0345
B(  6-C ,  7-H ) :   0.9359 B(  6-C ,  8-H ) :   0.9384 B(  6-C ,  9-C ) :   1.0762
B(  9-C , 10-H ) :   0.9621 B(  9-C , 11-H ) :   0.9573 B(  9-C , 12-C ) :   1.0549
B( 12-C , 13-H ) :   0.9774 B( 12-C , 14-H ) :   0.9760 B( 12-C , 15-H ) :   0.9755
B( 16-S , 17-C ) :   1.1726 B( 16-S , 20-C ) :   1.1376 B( 17-C , 18-C ) :   1.6068
B( 17-C , 20-C ) :   0.1053 B( 17-C , 33-H ) :   0.9685 B( 18-C , 19-C ) :   1.2487
B( 18-C , 21-H ) :   0.9806 B( 19-C , 20-C ) :   1.5840 B( 19-C , 22-C ) :   1.0480
B( 22-C , 23-H ) :   0.9346 B( 22-C , 24-H ) :   0.9319 B( 22-C , 25-C ) :   1.0443
B( 25-C , 26-H ) :   0.9599 B( 25-C , 27-H ) :   0.9597 B( 25-C , 28-C ) :   1.0700
B( 28-C , 29-H ) :   0.9764 B( 28-C , 30-H ) :   0.9757 B( 28-C , 31-H ) :   0.9763

Dispersion correction           -0.014723705
FINAL SINGLE POINT ENERGY     -1339.855175839770

DIPOLE MOMENT
-------------
                                X             Y             Z
Electronic contribution:     11.42901      17.23118      15.54522
Nuclear contribution   :    -11.73803     -17.45814     -15.91279
                        -----------------------------------------
Total Dipole Moment    :     -0.30902      -0.22696      -0.36757
                        -----------------------------------------
Magnitude (a.u.)       :      0.53114
Magnitude (Debye)      :      1.35006

Rotational constants in cm-1:     0.016789     0.009157     0.007515
Rotational constants in MHz :   503.315252   274.506874   225.284310

                             ****ORCA TERMINATED NORMALLY****
TOTAL RUN TIME: 0 days 0 hours 0 minutes 34 seconds 841 msec
