                         Program Version 4.2.1 -  RELEASE  -
|  1> ! wB97X-D3 SP def2-SVP
|  2> %pal
|  3> nprocs 16
|  4> end
|  5>
|  6> * xyz 0 1
|  7> S 	 17.4547 	 32.7035 	 62.8982
|  8> C 	 18.6605 	 33.6084 	 62.1315
|  9> C 	 19.5353 	 34.2214 	 62.9591
| 10> C 	 19.1084 	 34.0505 	 64.3237
| 11> C 	 18.041 	 33.1998 	 64.4988
| 12> H 	 19.5605 	 34.5431 	 65.1598
| 13> C 	 20.745 	 35.1107 	 62.4831
| 14> H 	 20.9538 	 35.9118 	 63.23
| 15> H 	 20.4496 	 35.4342 	 61.5096
| 16> C 	 22.0571 	 34.2855 	 62.3032
| 17> H 	 21.8896 	 33.4053 	 61.6075
| 18> H 	 22.7174 	 35.0421 	 61.9242
| 19> C 	 22.6586 	 33.643 	 63.5553
| 20> H 	 22.009 	 32.8793 	 63.9578
| 21> H 	 23.5844 	 33.0666 	 63.3842
| 22> H 	 22.9205 	 34.3569 	 64.3711
| 23> S 	 15.5847 	 33.4611 	 65.5941
| 24> C 	 15.2755 	 32.8706 	 67.1701
| 25> C 	 16.4119 	 32.4299 	 67.8056
| 26> C 	 17.5794 	 32.4718 	 66.971
| 27> C 	 17.2761 	 33.0078 	 65.7273
| 28> H 	 16.3232 	 31.9656 	 68.8266
| 29> C 	 18.8452 	 31.8735 	 67.3363
| 30> H 	 19.3443 	 31.6994 	 66.4426
| 31> H 	 18.6399 	 30.9552 	 67.8588
| 32> C 	 19.6457 	 32.6774 	 68.3687
| 33> H 	 20.544 	 32.1569 	 68.6138
| 34> H 	 19.1315 	 32.7062 	 69.3775
| 35> C 	 20.0775 	 34.0642 	 67.8455
| 36> H 	 19.1251 	 34.4903 	 67.6749
| 37> H 	 20.7147 	 33.9707 	 67.0044
| 38> H 	 20.4483 	 34.613 	 68.6795
| 39> H 	 18.5442 	 33.906 	 61.0832
| 40> H 	 14.3132 	 32.9257 	 67.7107
| 41> *
| 42>
| 43>                          ****END OF INPUT****

CARTESIAN COORDINATES (ANGSTROEM)
---------------------------------
  S     17.454700   32.703500   62.898200
  C     18.660500   33.608400   62.131500
  C     19.535300   34.221400   62.959100
  C     19.108400   34.050500   64.323700
  C     18.041000   33.199800   64.498800
  H     19.560500   34.543100   65.159800
  C     20.745000   35.110700   62.483100
  H     20.953800   35.911800   63.230000
  H     20.449600   35.434200   61.509600
  C     22.057100   34.285500   62.303200
  H     21.889600   33.405300   61.607500
  H     22.717400   35.042100   61.924200
  C     22.658600   33.643000   63.555300
  H     22.009000   32.879300   63.957800
  H     23.584400   33.066600   63.384200
  H     22.920500   34.356900   64.371100
  S     15.584700   33.461100   65.594100
  C     15.275500   32.870600   67.170100
  C     16.411900   32.429900   67.805600
  C     17.579400   32.471800   66.971000
  C     17.276100   33.007800   65.727300
  H     16.323200   31.965600   68.826600
  C     18.845200   31.873500   67.336300
  H     19.344300   31.699400   66.442600
  H     18.639900   30.955200   67.858800
  C     19.645700   32.677400   68.368700
  H     20.544000   32.156900   68.613800
  H     19.131500   32.706200   69.377500
  C     20.077500   34.064200   67.845500
  H     19.125100   34.490300   67.674900
  H     20.714700   33.970700   67.004400
  H     20.448300   34.613000   68.679500
  H     18.544200   33.906000   61.083200
  H     14.313200   32.925700   67.710700

 Total Charge           Charge          ....    0
 Multiplicity           Mult            ....    1
 Number of Electrons    NEL             ....  134
 Basis Dimension        Dim             ....  322

ORBITAL ENERGIES
----------------

  NO   OCC          E(Eh)            E(eV)
   0   2.0000     -88.963292     -2420.8143
   1   2.0000     -88.963082     -2420.8085
   2   2.0000     -10.326777      -281.0059
   3   2.0000     -10.323382      -280.9135
   4   2.0000     -10.314154      -280.6624
   5   2.0000     -10.307010      -280.4680
   6   2.0000     -10.301324      -280.3133
   7   2.0000     -10.298855      -280.2461
   8   2.0000     -10.298594      -280.2390
   9   2.0000     -10.293992      -280.1138
  10   2.0000     -10.291946      -280.0581
  11   2.0000     -10.291709      -280.0516
  12   2.0000     -10.284990      -279.8688
  13   2.0000     -10.278926      -279.7038
  14   2.0000     -10.277718      -279.6709
  15   2.0000     -10.266472      -279.3649
  16   2.0000      -8.078947      -219.8393
  17   2.0000      -8.078557      -219.8287
  18   2.0000      -6.037390      -164.2857
  19   2.0000      -6.036958      -164.2740
  20   2.0000      -6.033324      -164.1751
  21   2.0000      -6.032970      -164.1654
  22   2.0000      -6.029706      -164.0766
  23   2.0000      -6.029367      -164.0674
  24   2.0000      -1.010162       -27.4879
  25   2.0000      -0.989161       -26.9164
  26   2.0000      -0.919078       -25.0094
  27   2.0000      -0.905340       -24.6355
  28   2.0000      -0.869787       -23.6681
  29   2.0000      -0.853011       -23.2116
  30   2.0000      -0.844808       -22.9884
  31   2.0000      -0.814994       -22.1771
  32   2.0000      -0.787195       -21.4207
  33   2.0000      -0.775288       -21.0967
  34   2.0000      -0.707281       -19.2461
  35   2.0000      -0.692914       -18.8551
  36   2.0000      -0.692031       -18.8311
  37   2.0000      -0.656878       -17.8745
  38   2.0000      -0.641763       -17.4633
  39   2.0000      -0.615828       -16.7575
  40   2.0000      -0.594111       -16.1666
  41   2.0000      -0.576154       -15.6780
  42   2.0000      -0.556790       -15.1510
  43   2.0000      -0.550790       -14.9877
  44   2.0000      -0.542298       -14.7567
  45   2.0000      -0.541209       -14.7270
  46   2.0000      -0.528203       -14.3731
  47   2.0000      -0.513334       -13.9685
  48   2.0000      -0.498179       -13.5561
  49   2.0000      -0.491764       -13.3816
  50   2.0000      -0.489209       -13.3121
  51   2.0000      -0.476768       -12.9735
  52   2.0000      -0.472219       -12.8497
  53   2.0000      -0.466756       -12.7011
  54   2.0000      -0.465364       -12.6632
  55   2.0000      -0.444716       -12.1013
  56   2.0000      -0.443077       -12.0567
  57   2.0000      -0.438940       -11.9442
  58   2.0000      -0.434265       -11.8169
  59   2.0000      -0.426690       -11.6108
  60   2.0000      -0.422856       -11.5065
  61   2.0000      -0.412856       -11.2344
  62   2.0000      -0.411357       -11.1936
  63   2.0000      -0.344645        -9.3783
  64   2.0000      -0.329860        -8.9759
  65   2.0000      -0.325406        -8.8547
  66   2.0000      -0.296015        -8.0550
  67   0.0000       0.032843         0.8937
  68   0.0000       0.073281         1.9941
  69   0.0000       0.119840         3.2610
  70   0.0000       0.124916         3.3991
  71   0.0000       0.126417         3.4400

MULLIKEN ATOMIC CHARGES
-----------------------
   0 S :    0.113942
   1 C :   -0.138903
   2 C :   -0.101163
   3 C :    0.045206
   4 C :   -0.164040
   5 H :   -0.009441
   6 C :    0.093967
   7 H :    0.037864
   8 H :    0.016918
   9 C :   -0.075166
  10 H :    0.043514
  11 H :    0.033926
  12 C :   -0.076595
  13 H :    0.035049
  14 H :    0.034577
  15 H :    0.030176
  16 S :    0.115840
  17 C :   -0.094838
  18 C :   -0.065063
  19 C :   -0.044560
  20 C :   -0.176627
  21 H :    0.035501
  22 C :    0.136606
  23 H :    0.008087
  24 H :    0.019595
  25 C :   -0.117704
  26 H :    0.015702
  27 H :    0.030661
  28 C :   -0.010047
  29 H :    0.033620
  30 H :    0.045045
  31 H :    0.024581
  32 H :    0.059799
  33 H :    0.063972
Sum of atomic charges:   -0.0000000

LOEWDIN ATOMIC CHARGES
----------------------
   0 S :    0.412522
   1 C :   -0.216189
   2 C :   -0.070664
   3 C :   -0.053222
   4 C :   -0.199709
   5 H :    0.026175
   6 C :   -0.018694
   7 H :    0.034651
   8 H :    0.026690
   9 C :   -0.041509
  10 H :    0.034320
  11 H :    0.021953
  12 C :   -0.077873
  13 H :    0.023595
  14 H :    0.030340
  15 H :    0.023956
  16 S :    0.418536
  17 C :   -0.200658
  18 C :   -0.082595
  19 C :   -0.053679
  20 C :   -0.199089
  21 H :    0.039677
  22 C :   -0.026439
  23 H :    0.023695
  24 H :    0.036279
  25 C :   -0.035544
  26 H :    0.014654
  27 H :    0.027787
  28 C :   -0.057592
  29 H :    0.023140
  30 H :    0.021131
  31 H :    0.025496
  32 H :    0.032483
  33 H :    0.036374

  Mayer bond orders larger than 0.100000
B(  0-S ,  1-C ) :   1.1594 B(  0-S ,  4-C ) :   1.1338 B(  1-C ,  2-C ) :   1.6300
B(  1-C , 32-H ) :   0.9512 B(  2-C ,  3-C ) :   1.2436 B(  2-C ,  6-C ) :   1.0097
B(  3-C ,  4-C ) :   1.5832 B(  3-C ,  5-H ) :   0.9930 B(  4-C , 20-C ) :   1.0390
B(  6-C ,  7-H ) :   0.9454 B(  6-C ,  8-H ) :   0.9373 B(  6-C ,  9-C ) :   1.0692
B(  9-C , 10-H ) :   0.9546 B(  9-C , 11-H ) :   0.9576 B(  9-C , 12-C ) :   1.0805
B( 12-C , 13-H ) :   0.9725 B( 12-C , 14-H ) :   0.9718 B( 12-C , 15-H ) :   0.9746
B( 16-S , 17-C ) :   1.1589 B( 16-S , 20-C ) :   1.1449 B( 17-C , 18-C ) :   1.6281
B( 17-C , 33-H ) :   0.9603 B( 18-C , 19-C ) :   1.2217 B( 18-C , 21-H ) :   0.9802
B( 19-C , 20-C ) :   1.5830 B( 19-C , 22-C ) :   1.0697 B( 22-C , 23-H ) :   0.9259
B( 22-C , 24-H ) :   0.9205 B( 22-C , 25-C ) :   1.0730 B( 25-C , 26-H ) :   0.9551
B( 25-C , 27-H ) :   0.9565 B( 25-C , 28-C ) :   1.0697 B( 28-C , 29-H ) :   0.9725
B( 28-C , 30-H ) :   0.9687 B( 28-C , 31-H ) :   0.9649

Dispersion correction           -0.015536930
FINAL SINGLE POINT ENERGY     -1339.877023505523

DIPOLE MOMENT
-------------
                                X             Y             Z
Electronic contribution:    -27.17394      -3.77676      -7.52162
Nuclear contribution   :     27.62229       3.91828       7.80946
                        -----------------------------------------
Total Dipole Moment    :      0.44835       0.14152       0.28785
                        -----------------------------------------
Magnitude (a.u.)       :      0.55127
Magnitude (Debye)      :      1.40123

Rotational constants in cm-1:     0.019757     0.009860     0.007177
Rotational constants in MHz :   592.313394   295.587152   215.169239

                             ****ORCA TERMINATED NORMALLY****
TOTAL RUN TIME: 0 days 0 hours 0 minutes 37 seconds 937 msec
