                         Program Version 4.2.1 -  RELEASE  -
|  1> ! wB97X-D3 SP def2-SVP
|  2> %pal
|  3> nprocs 16
|  4> end
|  5>
|  6> * xyz 0 1
|  7> S 	 21.1764 	 1.53134 	 75.5948
|  8> C 	 22.5665 	 2.50807 	 76.1389
|  9> C 	 22.1863 	 3.3737 	 77.1635
| 10> C 	 20.8678 	 3.09965 	 77.6536
| 11> C 	 20.1796 	 2.14815 	 76.8976
| 12> H 	 20.4844 	 3.44801 	 78.5773
| 13> C 	 23.1136 	 4.29862 	 78.001
| 14> H 	 24.1194 	 4.24315 	 77.5696
| 15> H 	 23.0899 	 4.01816 	 79.0539
| 16> C 	 22.8272 	 5.85684 	 77.9161
| 17> H 	 23.0051 	 6.16457 	 76.9266
| 18> H 	 21.7685 	 6.15918 	 78.1226
| 19> C 	 23.617 	 6.70575 	 78.9199
| 20> H 	 23.2687 	 6.72382 	 79.9505
| 21> H 	 24.6843 	 6.38386 	 78.8911
| 22> H 	 23.5489 	 7.74621 	 78.6153
| 23> S 	 18.7306 	 0.00736764 	 77.3905
| 24> C 	 16.9763 	 -0.00761763 	 77.4509
| 25> C 	 16.5482 	 1.26798 	 77.2779
| 26> C 	 17.5616 	 2.2703 	 77.1207
| 27> C 	 18.8168 	 1.64322 	 77.0861
| 28> H 	 15.5098 	 1.36436 	 77.241
| 29> C 	 17.2691 	 3.74048 	 77.1666
| 30> H 	 17.553 	 4.13396 	 78.1759
| 31> H 	 16.1702 	 3.78355 	 77.2938
| 32> C 	 18.0046 	 4.56232 	 76.093
| 33> H 	 17.9452 	 4.0514 	 75.1062
| 34> H 	 19.0432 	 4.52157 	 76.1483
| 35> C 	 17.3652 	 5.91536 	 75.7966
| 36> H 	 16.2541 	 5.97636 	 75.5985
| 37> H 	 17.6513 	 6.38169 	 74.8552
| 38> H 	 17.5508 	 6.70269 	 76.595
| 39> H 	 23.5394 	 2.43029 	 75.7283
| 40> H 	 16.3311 	 -0.883422 	 77.4502
| 41> *
| 42>
| 43>                          ****END OF INPUT****

CARTESIAN COORDINATES (ANGSTROEM)
---------------------------------
  S     21.176400    1.531340   75.594800
  C     22.566500    2.508070   76.138900
  C     22.186300    3.373700   77.163500
  C     20.867800    3.099650   77.653600
  C     20.179600    2.148150   76.897600
  H     20.484400    3.448010   78.577300
  C     23.113600    4.298620   78.001000
  H     24.119400    4.243150   77.569600
  H     23.089900    4.018160   79.053900
  C     22.827200    5.856840   77.916100
  H     23.005100    6.164570   76.926600
  H     21.768500    6.159180   78.122600
  C     23.617000    6.705750   78.919900
  H     23.268700    6.723820   79.950500
  H     24.684300    6.383860   78.891100
  H     23.548900    7.746210   78.615300
  S     18.730600    0.007368   77.390500
  C     16.976300   -0.007618   77.450900
  C     16.548200    1.267980   77.277900
  C     17.561600    2.270300   77.120700
  C     18.816800    1.643220   77.086100
  H     15.509800    1.364360   77.241000
  C     17.269100    3.740480   77.166600
  H     17.553000    4.133960   78.175900
  H     16.170200    3.783550   77.293800
  C     18.004600    4.562320   76.093000
  H     17.945200    4.051400   75.106200
  H     19.043200    4.521570   76.148300
  C     17.365200    5.915360   75.796600
  H     16.254100    5.976360   75.598500
  H     17.651300    6.381690   74.855200
  H     17.550800    6.702690   76.595000
  H     23.539400    2.430290   75.728300
  H     16.331100   -0.883422   77.450200

 Total Charge           Charge          ....    0
 Multiplicity           Mult            ....    1
 Number of Electrons    NEL             ....  134
 Basis Dimension        Dim             ....  322

ORBITAL ENERGIES
----------------

  NO   OCC          E(Eh)            E(eV)
   0   2.0000     -88.969313     -2420.9781
   1   2.0000     -88.961657     -2420.7698
   2   2.0000     -10.332265      -281.1552
   3   2.0000     -10.320692      -280.8403
   4   2.0000     -10.319295      -280.8023
   5   2.0000     -10.311775      -280.5977
   6   2.0000     -10.308027      -280.4957
   7   2.0000     -10.302866      -280.3552
   8   2.0000     -10.300962      -280.3034
   9   2.0000     -10.296339      -280.1776
  10   2.0000     -10.294252      -280.1208
  11   2.0000     -10.288595      -279.9669
  12   2.0000     -10.286475      -279.9092
  13   2.0000     -10.282488      -279.8007
  14   2.0000     -10.282118      -279.7906
  15   2.0000     -10.281282      -279.7679
  16   2.0000      -8.083297      -219.9577
  17   2.0000      -8.078045      -219.8148
  18   2.0000      -6.041867      -164.4076
  19   2.0000      -6.037835      -164.2978
  20   2.0000      -6.036417      -164.2592
  21   2.0000      -6.034103      -164.1963
  22   2.0000      -6.032128      -164.1425
  23   2.0000      -6.029016      -164.0579
  24   2.0000      -1.012703       -27.5571
  25   2.0000      -0.983221       -26.7548
  26   2.0000      -0.906354       -24.6631
  27   2.0000      -0.904001       -24.5991
  28   2.0000      -0.873408       -23.7666
  29   2.0000      -0.847666       -23.0662
  30   2.0000      -0.846879       -23.0448
  31   2.0000      -0.817437       -22.2436
  32   2.0000      -0.780029       -21.2257
  33   2.0000      -0.768996       -20.9254
  34   2.0000      -0.714390       -19.4396
  35   2.0000      -0.699391       -19.0314
  36   2.0000      -0.694443       -18.8968
  37   2.0000      -0.662954       -18.0399
  38   2.0000      -0.645051       -17.5527
  39   2.0000      -0.622317       -16.9341
  40   2.0000      -0.594296       -16.1716
  41   2.0000      -0.568546       -15.4709
  42   2.0000      -0.562608       -15.3093
  43   2.0000      -0.547663       -14.9027
  44   2.0000      -0.525931       -14.3113
  45   2.0000      -0.522385       -14.2148
  46   2.0000      -0.522374       -14.2145
  47   2.0000      -0.511718       -13.9246
  48   2.0000      -0.507532       -13.8107
  49   2.0000      -0.500476       -13.6186
  50   2.0000      -0.491539       -13.3755
  51   2.0000      -0.487982       -13.2787
  52   2.0000      -0.466290       -12.6884
  53   2.0000      -0.464117       -12.6293
  54   2.0000      -0.459307       -12.4984
  55   2.0000      -0.455182       -12.3861
  56   2.0000      -0.447535       -12.1781
  57   2.0000      -0.435116       -11.8401
  58   2.0000      -0.429464       -11.6863
  59   2.0000      -0.423749       -11.5308
  60   2.0000      -0.419620       -11.4185
  61   2.0000      -0.413275       -11.2458
  62   2.0000      -0.398958       -10.8562
  63   2.0000      -0.344598        -9.3770
  64   2.0000      -0.332257        -9.0412
  65   2.0000      -0.321949        -8.7607
  66   2.0000      -0.298573        -8.1246
  67   0.0000       0.029839         0.8119
  68   0.0000       0.071124         1.9354
  69   0.0000       0.116254         3.1634
  70   0.0000       0.119202         3.2437
  71   0.0000       0.125863         3.4249

MULLIKEN ATOMIC CHARGES
-----------------------
   0 S :    0.115053
   1 C :   -0.118749
   2 C :   -0.057907
   3 C :    0.052302
   4 C :   -0.167038
   5 H :    0.004670
   6 C :    0.047005
   7 H :    0.021342
   8 H :    0.042354
   9 C :   -0.081682
  10 H :    0.020454
  11 H :    0.029053
  12 C :   -0.061278
  13 H :    0.037278
  14 H :    0.031438
  15 H :    0.033476
  16 S :    0.116027
  17 C :   -0.097679
  18 C :   -0.036323
  19 C :   -0.012907
  20 C :   -0.179494
  21 H :   -0.004384
  22 C :    0.087239
  23 H :    0.036886
  24 H :    0.013793
  25 C :   -0.038844
  26 H :    0.025189
  27 H :    0.032766
  28 C :   -0.077230
  29 H :    0.031550
  30 H :    0.024838
  31 H :    0.032986
  32 H :    0.038775
  33 H :    0.059041
Sum of atomic charges:   -0.0000000

LOEWDIN ATOMIC CHARGES
----------------------
   0 S :    0.397543
   1 C :   -0.181843
   2 C :   -0.060756
   3 C :   -0.055331
   4 C :   -0.195725
   5 H :    0.026582
   6 C :   -0.026757
   7 H :    0.029923
   8 H :    0.031995
   9 C :   -0.041045
  10 H :    0.016303
  11 H :    0.024961
  12 C :   -0.069847
  13 H :    0.024635
  14 H :    0.025588
  15 H :    0.028924
  16 S :    0.445894
  17 C :   -0.192639
  18 C :   -0.067853
  19 C :   -0.058045
  20 C :   -0.230394
  21 H :    0.021909
  22 C :   -0.034047
  23 H :    0.037451
  24 H :    0.034990
  25 C :   -0.045468
  26 H :    0.034650
  27 H :    0.022505
  28 C :   -0.080902
  29 H :    0.031397
  30 H :    0.024813
  31 H :    0.024928
  32 H :    0.021469
  33 H :    0.034186

  Mayer bond orders larger than 0.100000
B(  0-S ,  1-C ) :   1.1330 B(  0-S ,  4-C ) :   1.1555 B(  1-C ,  2-C ) :   1.6096
B(  1-C , 32-H ) :   0.9750 B(  2-C ,  3-C ) :   1.2229 B(  2-C ,  6-C ) :   1.0303
B(  3-C ,  4-C ) :   1.5782 B(  3-C ,  5-H ) :   1.0019 B(  4-C , 20-C ) :   1.0092
B(  6-C ,  7-H ) :   0.9412 B(  6-C ,  8-H ) :   0.9534 B(  6-C ,  9-C ) :   1.0484
B(  9-C , 10-H ) :   0.9593 B(  9-C , 11-H ) :   0.9599 B(  9-C , 12-C ) :   1.0808
B( 12-C , 13-H ) :   0.9765 B( 12-C , 14-H ) :   0.9740 B( 12-C , 15-H ) :   0.9731
B( 16-S , 17-C ) :   1.1463 B( 16-S , 20-C ) :   1.2002 B( 17-C , 18-C ) :   1.6120
B( 17-C , 33-H ) :   0.9671 B( 18-C , 19-C ) :   1.2461 B( 18-C , 21-H ) :   0.9954
B( 19-C , 20-C ) :   1.5386 B( 19-C , 22-C ) :   1.0520 B( 22-C , 23-H ) :   0.9277
B( 22-C , 24-H ) :   0.9353 B( 22-C , 25-C ) :   1.0319 B( 25-C , 26-H ) :   0.9575
B( 25-C , 27-H ) :   0.9503 B( 25-C , 28-C ) :   1.0767 B( 28-C , 29-H ) :   0.9746
B( 28-C , 30-H ) :   0.9747 B( 28-C , 31-H ) :   0.9745

Dispersion correction           -0.014303104
FINAL SINGLE POINT ENERGY     -1339.864484967422

DIPOLE MOMENT
-------------
                                X             Y             Z
Electronic contribution:     -3.24819     -30.45615      -4.97684
Nuclear contribution   :      3.21905      30.94311       5.18536
                        -----------------------------------------
Total Dipole Moment    :     -0.02913       0.48697       0.20852
                        -----------------------------------------
Magnitude (a.u.)       :      0.53053
Magnitude (Debye)      :      1.34850

Rotational constants in cm-1:     0.018330     0.008710     0.006865
Rotational constants in MHz :   549.518596   261.105479   205.802307

                             ****ORCA TERMINATED NORMALLY****
TOTAL RUN TIME: 0 days 0 hours 0 minutes 34 seconds 514 msec
