                         Program Version 4.2.1 -  RELEASE  -
|  1> ! wB97X-D3 SP def2-SVP
|  2> %pal
|  3> nprocs 16
|  4> end
|  5>
|  6> * xyz 0 1
|  7> S 	 7.42777 	 -16.8141 	 55.2375
|  8> C 	 8.68258 	 -16.4256 	 56.4416
|  9> C 	 9.87786 	 -16.8046 	 56.0194
| 10> C 	 9.8122 	 -17.5324 	 54.7561
| 11> C 	 8.5643 	 -17.4686 	 54.1872
| 12> H 	 10.5734 	 -17.957 	 54.2153
| 13> C 	 11.1035 	 -16.5985 	 56.8612
| 14> H 	 11.9321 	 -17.0145 	 56.3657
| 15> H 	 11.0791 	 -17.273 	 57.6997
| 16> C 	 11.2862 	 -15.1732 	 57.2648
| 17> H 	 11.7621 	 -14.5233 	 56.5401
| 18> H 	 10.2904 	 -14.7339 	 57.6386
| 19> C 	 12.2703 	 -15.008 	 58.3929
| 20> H 	 12.5112 	 -13.9707 	 58.7708
| 21> H 	 11.8835 	 -15.4615 	 59.288
| 22> H 	 13.2095 	 -15.4072 	 58.1601
| 23> S 	 7.20616 	 -19.6591 	 53.131
| 24> C 	 7.55007 	 -20.0908 	 51.4481
| 25> C 	 8.27586 	 -19.1289 	 50.8545
| 26> C 	 8.73972 	 -18.1088 	 51.7424
| 27> C 	 8.24337 	 -18.2379 	 53.0365
| 28> H 	 8.62435 	 -19.1764 	 49.8255
| 29> C 	 9.64987 	 -16.9871 	 51.239
| 30> H 	 9.83177 	 -17.1588 	 50.184
| 31> H 	 10.6273 	 -17.144 	 51.6589
| 32> C 	 9.14618 	 -15.5852 	 51.4446
| 33> H 	 9.81387 	 -14.7544 	 51.1543
| 34> H 	 9.01748 	 -15.6763 	 52.5397
| 35> C 	 7.71205 	 -15.4093 	 50.8944
| 36> H 	 7.34525 	 -14.3955 	 50.7448
| 37> H 	 6.95926 	 -15.8752 	 51.5673
| 38> H 	 7.5123 	 -15.9103 	 49.9281
| 39> H 	 8.51143 	 -15.9382 	 57.3498
| 40> H 	 7.24835 	 -20.9323 	 50.8027
| 41> *
| 42>
| 43>                          ****END OF INPUT****

CARTESIAN COORDINATES (ANGSTROEM)
---------------------------------
  S      7.427770  -16.814100   55.237500
  C      8.682580  -16.425600   56.441600
  C      9.877860  -16.804600   56.019400
  C      9.812200  -17.532400   54.756100
  C      8.564300  -17.468600   54.187200
  H     10.573400  -17.957000   54.215300
  C     11.103500  -16.598500   56.861200
  H     11.932100  -17.014500   56.365700
  H     11.079100  -17.273000   57.699700
  C     11.286200  -15.173200   57.264800
  H     11.762100  -14.523300   56.540100
  H     10.290400  -14.733900   57.638600
  C     12.270300  -15.008000   58.392900
  H     12.511200  -13.970700   58.770800
  H     11.883500  -15.461500   59.288000
  H     13.209500  -15.407200   58.160100
  S      7.206160  -19.659100   53.131000
  C      7.550070  -20.090800   51.448100
  C      8.275860  -19.128900   50.854500
  C      8.739720  -18.108800   51.742400
  C      8.243370  -18.237900   53.036500
  H      8.624350  -19.176400   49.825500
  C      9.649870  -16.987100   51.239000
  H      9.831770  -17.158800   50.184000
  H     10.627300  -17.144000   51.658900
  C      9.146180  -15.585200   51.444600
  H      9.813870  -14.754400   51.154300
  H      9.017480  -15.676300   52.539700
  C      7.712050  -15.409300   50.894400
  H      7.345250  -14.395500   50.744800
  H      6.959260  -15.875200   51.567300
  H      7.512300  -15.910300   49.928100
  H      8.511430  -15.938200   57.349800
  H      7.248350  -20.932300   50.802700

 Total Charge           Charge          ....    0
 Multiplicity           Mult            ....    1
 Number of Electrons    NEL             ....  134
 Basis Dimension        Dim             ....  322

ORBITAL ENERGIES
----------------

  NO   OCC          E(Eh)            E(eV)
   0   2.0000     -88.966653     -2420.9057
   1   2.0000     -88.965156     -2420.8650
   2   2.0000     -10.323732      -280.9230
   3   2.0000     -10.321305      -280.8570
   4   2.0000     -10.316507      -280.7264
   5   2.0000     -10.306152      -280.4447
   6   2.0000     -10.299938      -280.2756
   7   2.0000     -10.297113      -280.1987
   8   2.0000     -10.290580      -280.0209
   9   2.0000     -10.289271      -279.9853
  10   2.0000     -10.287671      -279.9418
  11   2.0000     -10.286526      -279.9106
  12   2.0000     -10.285250      -279.8759
  13   2.0000     -10.282632      -279.8046
  14   2.0000     -10.273199      -279.5479
  15   2.0000     -10.271473      -279.5010
  16   2.0000      -8.080906      -219.8926
  17   2.0000      -8.080658      -219.8859
  18   2.0000      -6.039427      -164.3412
  19   2.0000      -6.039400      -164.3404
  20   2.0000      -6.035276      -164.2282
  21   2.0000      -6.035238      -164.2272
  22   2.0000      -6.031583      -164.1277
  23   2.0000      -6.031203      -164.1174
  24   2.0000      -1.016101       -27.6495
  25   2.0000      -0.987767       -26.8785
  26   2.0000      -0.927290       -25.2328
  27   2.0000      -0.909012       -24.7355
  28   2.0000      -0.880167       -23.9506
  29   2.0000      -0.852375       -23.1943
  30   2.0000      -0.839463       -22.8429
  31   2.0000      -0.817448       -22.2439
  32   2.0000      -0.789235       -21.4762
  33   2.0000      -0.774670       -21.0799
  34   2.0000      -0.717534       -19.5251
  35   2.0000      -0.704228       -19.1630
  36   2.0000      -0.685054       -18.6413
  37   2.0000      -0.661776       -18.0079
  38   2.0000      -0.649875       -17.6840
  39   2.0000      -0.615374       -16.7452
  40   2.0000      -0.592171       -16.1138
  41   2.0000      -0.584850       -15.9146
  42   2.0000      -0.566946       -15.4274
  43   2.0000      -0.550665       -14.9844
  44   2.0000      -0.548088       -14.9142
  45   2.0000      -0.532077       -14.4786
  46   2.0000      -0.523543       -14.2463
  47   2.0000      -0.514607       -14.0032
  48   2.0000      -0.508138       -13.8271
  49   2.0000      -0.501656       -13.6507
  50   2.0000      -0.484552       -13.1853
  51   2.0000      -0.477072       -12.9818
  52   2.0000      -0.472941       -12.8694
  53   2.0000      -0.469823       -12.7845
  54   2.0000      -0.457739       -12.4557
  55   2.0000      -0.448747       -12.2110
  56   2.0000      -0.442247       -12.0341
  57   2.0000      -0.432126       -11.7587
  58   2.0000      -0.428633       -11.6637
  59   2.0000      -0.424916       -11.5626
  60   2.0000      -0.419710       -11.4209
  61   2.0000      -0.419191       -11.4068
  62   2.0000      -0.398351       -10.8397
  63   2.0000      -0.345440        -9.3999
  64   2.0000      -0.334253        -9.0955
  65   2.0000      -0.328436        -8.9372
  66   2.0000      -0.299388        -8.1468
  67   0.0000       0.035917         0.9773
  68   0.0000       0.066958         1.8220
  69   0.0000       0.112181         3.0526
  70   0.0000       0.125374         3.4116
  71   0.0000       0.129413         3.5215

MULLIKEN ATOMIC CHARGES
-----------------------
   0 S :    0.111686
   1 C :   -0.121574
   2 C :   -0.063077
   3 C :    0.065103
   4 C :   -0.185579
   5 H :   -0.021893
   6 C :    0.144104
   7 H :   -0.008813
   8 H :    0.026442
   9 C :   -0.089437
  10 H :    0.037844
  11 H :    0.041571
  12 C :   -0.050375
  13 H :    0.032732
  14 H :    0.016271
  15 H :    0.015646
  16 S :    0.116683
  17 C :   -0.084283
  18 C :   -0.032382
  19 C :   -0.086816
  20 C :   -0.150086
  21 H :    0.019463
  22 C :    0.111802
  23 H :   -0.001131
  24 H :    0.023502
  25 C :   -0.067902
  26 H :    0.045135
  27 H :    0.048791
  28 C :   -0.065684
  29 H :    0.030708
  30 H :    0.034157
  31 H :    0.020452
  32 H :    0.026006
  33 H :    0.060934
Sum of atomic charges:    0.0000000

LOEWDIN ATOMIC CHARGES
----------------------
   0 S :    0.418729
   1 C :   -0.171500
   2 C :   -0.055472
   3 C :   -0.043746
   4 C :   -0.221346
   5 H :    0.015914
   6 C :   -0.029069
   7 H :    0.024559
   8 H :    0.035030
   9 C :   -0.040863
  10 H :    0.030139
  11 H :    0.032370
  12 C :   -0.067183
  13 H :    0.031663
  14 H :    0.017477
  15 H :    0.014207
  16 S :    0.394202
  17 C :   -0.185608
  18 C :   -0.075405
  19 C :   -0.052629
  20 C :   -0.198900
  21 H :    0.032411
  22 C :   -0.030577
  23 H :    0.020467
  24 H :    0.028751
  25 C :   -0.046968
  26 H :    0.029475
  27 H :    0.034149
  28 C :   -0.075780
  29 H :    0.023575
  30 H :    0.029900
  31 H :    0.021993
  32 H :    0.016647
  33 H :    0.043387

  Mayer bond orders larger than 0.100000
B(  0-S ,  1-C ) :   1.1132 B(  0-S ,  4-C ) :   1.1525 B(  1-C ,  2-C ) :   1.6502
B(  1-C , 32-H ) :   0.9759 B(  2-C ,  3-C ) :   1.2065 B(  2-C ,  6-C ) :   1.0153
B(  3-C ,  4-C ) :   1.5727 B(  3-C ,  5-H ) :   1.0069 B(  4-C , 20-C ) :   1.0468
B(  6-C ,  7-H ) :   0.9214 B(  6-C ,  8-H ) :   0.9357 B(  6-C ,  9-C ) :   1.0571
B(  9-C , 10-H ) :   0.9545 B(  9-C , 11-H ) :   0.9608 B(  9-C , 12-C ) :   1.0789
B( 12-C , 13-H ) :   0.9741 B( 12-C , 14-H ) :   0.9749 B( 12-C , 15-H ) :   0.9713
B( 16-S , 17-C ) :   1.1333 B( 16-S , 20-C ) :   1.1220 B( 17-C , 18-C ) :   1.6441
B( 17-C , 33-H ) :   0.9573 B( 18-C , 19-C ) :   1.2564 B( 18-C , 21-H ) :   0.9775
B( 19-C , 20-C ) :   1.6043 B( 19-C , 22-C ) :   1.0287 B( 22-C , 23-H ) :   0.9292
B( 22-C , 24-H ) :   0.9280 B( 22-C , 25-C ) :   1.0630 B( 25-C , 26-H ) :   0.9588
B( 25-C , 27-H ) :   0.9564 B( 25-C , 28-C ) :   1.0638 B( 28-C , 29-H ) :   0.9776
B( 28-C , 30-H ) :   0.9692 B( 28-C , 31-H ) :   0.9792

Dispersion correction           -0.015141567
FINAL SINGLE POINT ENERGY     -1339.859457214847

DIPOLE MOMENT
-------------
                                X             Y             Z
Electronic contribution:    -17.24801     -16.78672      -2.44071
Nuclear contribution   :     17.94799      16.90379       2.45752
                        -----------------------------------------
Total Dipole Moment    :      0.69998       0.11708       0.01682
                        -----------------------------------------
Magnitude (a.u.)       :      0.70991
Magnitude (Debye)      :      1.80444

Rotational constants in cm-1:     0.023844     0.007791     0.006990
Rotational constants in MHz :   714.834402   233.560432   209.560364

                             ****ORCA TERMINATED NORMALLY****
TOTAL RUN TIME: 0 days 0 hours 0 minutes 31 seconds 81 msec
