                         Program Version 4.2.1 -  RELEASE  -
|  1> ! wB97X-D3 SP def2-SVP
|  2> %pal
|  3> nprocs 16
|  4> end
|  5>
|  6> * xyz 0 1
|  7> S 	 -2.32844 	 -2.0016 	 77.0232
|  8> C 	 -2.60335 	 -2.56967 	 78.6128
|  9> C 	 -1.59774 	 -3.41241 	 79.0091
| 10> C 	 -0.567062 	 -3.53606 	 78.0365
| 11> C 	 -0.848428 	 -2.80127 	 76.906
| 12> H 	 0.381103 	 -4.02059 	 78.1805
| 13> C 	 -1.39445 	 -4.00809 	 80.4125
| 14> H 	 -2.15751 	 -3.53952 	 81.059
| 15> H 	 -0.392284 	 -3.636 	 80.7217
| 16> C 	 -1.48719 	 -5.52929 	 80.5053
| 17> H 	 -1.80591 	 -5.78172 	 81.4507
| 18> H 	 -2.35583 	 -5.90396 	 79.8975
| 19> C 	 -0.231573 	 -6.26717 	 80.0708
| 20> H 	 -0.0966312 	 -6.4517 	 78.9472
| 21> H 	 0.671135 	 -5.76547 	 80.3659
| 22> H 	 -0.255049 	 -7.19478 	 80.6653
| 23> S 	 1.13163 	 -3.89862 	 75.3564
| 24> C 	 1.5265 	 -3.14183 	 73.8251
| 25> C 	 1.0009 	 -1.88497 	 73.7448
| 26> C 	 0.209928 	 -1.53781 	 74.8684
| 27> C 	 0.0611708 	 -2.60587 	 75.7565
| 28> H 	 1.19667 	 -1.30905 	 72.9022
| 29> C 	 -0.438882 	 -0.212439 	 74.9385
| 30> H 	 -1.49973 	 -0.291959 	 74.8392
| 31> H 	 -0.145957 	 0.380847 	 74.0703
| 32> C 	 0.0337279 	 0.649593 	 76.1565
| 33> H 	 1.13108 	 0.743519 	 76.2007
| 34> H 	 -0.161994 	 0.100902 	 77.0981
| 35> C 	 -0.609363 	 2.02376 	 76.0865
| 36> H 	 -1.72453 	 2.1114 	 76.2568
| 37> H 	 -0.455525 	 2.6093 	 75.1074
| 38> H 	 -0.200382 	 2.69133 	 76.776
| 39> H 	 -3.35505 	 -2.31207 	 79.3584
| 40> H 	 2.09747 	 -3.70406 	 73.1051
| 41> *
| 42>
| 43>                          ****END OF INPUT****

CARTESIAN COORDINATES (ANGSTROEM)
---------------------------------
  S     -2.328440   -2.001600   77.023200
  C     -2.603350   -2.569670   78.612800
  C     -1.597740   -3.412410   79.009100
  C     -0.567062   -3.536060   78.036500
  C     -0.848428   -2.801270   76.906000
  H      0.381103   -4.020590   78.180500
  C     -1.394450   -4.008090   80.412500
  H     -2.157510   -3.539520   81.059000
  H     -0.392284   -3.636000   80.721700
  C     -1.487190   -5.529290   80.505300
  H     -1.805910   -5.781720   81.450700
  H     -2.355830   -5.903960   79.897500
  C     -0.231573   -6.267170   80.070800
  H     -0.096631   -6.451700   78.947200
  H      0.671135   -5.765470   80.365900
  H     -0.255049   -7.194780   80.665300
  S      1.131630   -3.898620   75.356400
  C      1.526500   -3.141830   73.825100
  C      1.000900   -1.884970   73.744800
  C      0.209928   -1.537810   74.868400
  C      0.061171   -2.605870   75.756500
  H      1.196670   -1.309050   72.902200
  C     -0.438882   -0.212439   74.938500
  H     -1.499730   -0.291959   74.839200
  H     -0.145957    0.380847   74.070300
  C      0.033728    0.649593   76.156500
  H      1.131080    0.743519   76.200700
  H     -0.161994    0.100902   77.098100
  C     -0.609363    2.023760   76.086500
  H     -1.724530    2.111400   76.256800
  H     -0.455525    2.609300   75.107400
  H     -0.200382    2.691330   76.776000
  H     -3.355050   -2.312070   79.358400
  H      2.097470   -3.704060   73.105100

 Total Charge           Charge          ....    0
 Multiplicity           Mult            ....    1
 Number of Electrons    NEL             ....  134
 Basis Dimension        Dim             ....  322

ORBITAL ENERGIES
----------------

  NO   OCC          E(Eh)            E(eV)
   0   2.0000     -88.968163     -2420.9468
   1   2.0000     -88.962732     -2420.7990
   2   2.0000     -10.325216      -280.9634
   3   2.0000     -10.325063      -280.9592
   4   2.0000     -10.314231      -280.6645
   5   2.0000     -10.306289      -280.4484
   6   2.0000     -10.298206      -280.2284
   7   2.0000     -10.294307      -280.1223
   8   2.0000     -10.294087      -280.1163
   9   2.0000     -10.287817      -279.9457
  10   2.0000     -10.287309      -279.9319
  11   2.0000     -10.286203      -279.9018
  12   2.0000     -10.285160      -279.8734
  13   2.0000     -10.281630      -279.7774
  14   2.0000     -10.280831      -279.7556
  15   2.0000     -10.278614      -279.6953
  16   2.0000      -8.083969      -219.9760
  17   2.0000      -8.078105      -219.8164
  18   2.0000      -6.042422      -164.4227
  19   2.0000      -6.038255      -164.3093
  20   2.0000      -6.036503      -164.2616
  21   2.0000      -6.034797      -164.2152
  22   2.0000      -6.032587      -164.1550
  23   2.0000      -6.028921      -164.0553
  24   2.0000      -1.015904       -27.6442
  25   2.0000      -0.992088       -26.9961
  26   2.0000      -0.912193       -24.8220
  27   2.0000      -0.907114       -24.6838
  28   2.0000      -0.871417       -23.7125
  29   2.0000      -0.853917       -23.2363
  30   2.0000      -0.845368       -23.0036
  31   2.0000      -0.815392       -22.1879
  32   2.0000      -0.782575       -21.2949
  33   2.0000      -0.769527       -20.9399
  34   2.0000      -0.707226       -19.2446
  35   2.0000      -0.702768       -19.1233
  36   2.0000      -0.691541       -18.8178
  37   2.0000      -0.670738       -18.2517
  38   2.0000      -0.636945       -17.3322
  39   2.0000      -0.615841       -16.7579
  40   2.0000      -0.600502       -16.3405
  41   2.0000      -0.571997       -15.5648
  42   2.0000      -0.558153       -15.1881
  43   2.0000      -0.546253       -14.8643
  44   2.0000      -0.538419       -14.6511
  45   2.0000      -0.524843       -14.2817
  46   2.0000      -0.519385       -14.1332
  47   2.0000      -0.514761       -14.0073
  48   2.0000      -0.506766       -13.7898
  49   2.0000      -0.496429       -13.5085
  50   2.0000      -0.485891       -13.2218
  51   2.0000      -0.482048       -13.1172
  52   2.0000      -0.476482       -12.9657
  53   2.0000      -0.466778       -12.7017
  54   2.0000      -0.459336       -12.4992
  55   2.0000      -0.451289       -12.2802
  56   2.0000      -0.442993       -12.0545
  57   2.0000      -0.438533       -11.9331
  58   2.0000      -0.432421       -11.7668
  59   2.0000      -0.422319       -11.4919
  60   2.0000      -0.422008       -11.4834
  61   2.0000      -0.408216       -11.1081
  62   2.0000      -0.406053       -11.0493
  63   2.0000      -0.357620        -9.7313
  64   2.0000      -0.331488        -9.0203
  65   2.0000      -0.329467        -8.9652
  66   2.0000      -0.283617        -7.7176
  67   0.0000       0.025452         0.6926
  68   0.0000       0.088803         2.4165
  69   0.0000       0.108826         2.9613
  70   0.0000       0.131124         3.5681
  71   0.0000       0.136455         3.7131

MULLIKEN ATOMIC CHARGES
-----------------------
   0 S :    0.122267
   1 C :   -0.116044
   2 C :   -0.091491
   3 C :   -0.005125
   4 C :   -0.114277
   5 H :    0.007480
   6 C :    0.034258
   7 H :    0.012951
   8 H :    0.040571
   9 C :   -0.026236
  10 H :    0.006333
  11 H :    0.031994
  12 C :   -0.067853
  13 H :    0.060112
  14 H :    0.018121
  15 H :    0.037024
  16 S :    0.090322
  17 C :   -0.091448
  18 C :    0.002922
  19 C :   -0.051702
  20 C :   -0.124766
  21 H :   -0.005283
  22 C :    0.060528
  23 H :    0.036230
  24 H :    0.005446
  25 C :   -0.066665
  26 H :    0.031223
  27 H :    0.041315
  28 C :   -0.056474
  29 H :    0.038657
  30 H :    0.028525
  31 H :    0.015468
  32 H :    0.040746
  33 H :    0.054872
Sum of atomic charges:    0.0000000

LOEWDIN ATOMIC CHARGES
----------------------
   0 S :    0.462140
   1 C :   -0.225653
   2 C :   -0.060821
   3 C :   -0.077310
   4 C :   -0.205500
   5 H :    0.024678
   6 C :   -0.029223
   7 H :    0.027511
   8 H :    0.033497
   9 C :   -0.042308
  10 H :    0.013361
  11 H :    0.035904
  12 C :   -0.073518
  13 H :    0.037582
  14 H :    0.016953
  15 H :    0.033187
  16 S :    0.411689
  17 C :   -0.174524
  18 C :   -0.060475
  19 C :   -0.062278
  20 C :   -0.199501
  21 H :    0.023517
  22 C :   -0.037722
  23 H :    0.023629
  24 H :    0.030270
  25 C :   -0.039283
  26 H :    0.029211
  27 H :    0.024723
  28 C :   -0.077222
  29 H :    0.031675
  30 H :    0.031435
  31 H :    0.015504
  32 H :    0.033662
  33 H :    0.025211

  Mayer bond orders larger than 0.100000
B(  0-S ,  1-C ) :   1.1304 B(  0-S ,  4-C ) :   1.1822 B(  1-C ,  2-C ) :   1.6246
B(  1-C , 32-H ) :   0.9601 B(  2-C ,  3-C ) :   1.2644 B(  2-C ,  6-C ) :   1.0159
B(  3-C ,  4-C ) :   1.5333 B(  3-C ,  5-H ) :   0.9918 B(  4-C , 20-C ) :   1.0408
B(  6-C ,  7-H ) :   0.9390 B(  6-C ,  8-H ) :   0.9507 B(  6-C ,  9-C ) :   1.0704
B(  9-C , 10-H ) :   0.9585 B(  9-C , 11-H ) :   0.9473 B(  9-C , 12-C ) :   1.0741
B( 12-C , 13-H ) :   0.9713 B( 12-C , 14-H ) :   0.9756 B( 12-C , 15-H ) :   0.9717
B( 16-S , 17-C ) :   1.1556 B( 16-S , 20-C ) :   1.1539 B( 17-C , 18-C ) :   1.5855
B( 17-C , 33-H ) :   0.9727 B( 18-C , 19-C ) :   1.2528 B( 18-C , 21-H ) :   1.0072
B( 19-C , 20-C ) :   1.5448 B( 19-C , 22-C ) :   1.0563 B( 22-C , 23-H ) :   0.9341
B( 22-C , 24-H ) :   0.9271 B( 22-C , 25-C ) :   1.0483 B( 25-C , 26-H ) :   0.9534
B( 25-C , 27-H ) :   0.9556 B( 25-C , 28-C ) :   1.0826 B( 28-C , 29-H ) :   0.9731
B( 28-C , 30-H ) :   0.9707 B( 28-C , 31-H ) :   0.9726

Dispersion correction           -0.014690583
FINAL SINGLE POINT ENERGY     -1339.880903587041

DIPOLE MOMENT
-------------
                                X             Y             Z
Electronic contribution:     -0.16990      -4.91524     -12.13494
Nuclear contribution   :      0.27378       5.07489      12.36459
                        -----------------------------------------
Total Dipole Moment    :      0.10388       0.15964       0.22964
                        -----------------------------------------
Magnitude (a.u.)       :      0.29835
Magnitude (Debye)      :      0.75835

Rotational constants in cm-1:     0.019774     0.009287     0.006909
Rotational constants in MHz :   592.798767   278.431720   207.112664

                             ****ORCA TERMINATED NORMALLY****
TOTAL RUN TIME: 0 days 0 hours 0 minutes 34 seconds 700 msec
