                         Program Version 4.2.1 -  RELEASE  -
|  1> ! wB97X-D3 SP def2-SVP
|  2> %pal
|  3> nprocs 16
|  4> end
|  5>
|  6> * xyz 0 1
|  7> S 	 -33.5989 	 46.4726 	 97.6223
|  8> C 	 -33.9656 	 45.0859 	 96.596
|  9> C 	 -33.5368 	 45.2531 	 95.3002
| 10> C 	 -32.9021 	 46.5449 	 95.1076
| 11> C 	 -32.9068 	 47.3348 	 96.2473
| 12> H 	 -32.5655 	 47.0249 	 94.1839
| 13> C 	 -33.5824 	 44.2409 	 94.1652
| 14> H 	 -33.4404 	 43.3032 	 94.6387
| 15> H 	 -32.7647 	 44.4616 	 93.5308
| 16> C 	 -34.9173 	 44.4384 	 93.3953
| 17> H 	 -34.9441 	 45.4847 	 93.0992
| 18> H 	 -34.9025 	 43.997 	 92.3696
| 19> C 	 -36.1964 	 44.0378 	 94.1723
| 20> H 	 -37.115 	 44.0553 	 93.5629
| 21> H 	 -36.187 	 43.033 	 94.562
| 22> H 	 -36.4291 	 44.6966 	 95.0299
| 23> S 	 -33.836 	 49.8939 	 96.0414
| 24> C 	 -32.6956 	 51.2124 	 96.2049
| 25> C 	 -31.4158 	 50.7655 	 96.2343
| 26> C 	 -31.3457 	 49.3306 	 96.27
| 27> C 	 -32.58 	 48.7077 	 96.266
| 28> H 	 -30.5953 	 51.4004 	 96.2774
| 29> C 	 -29.9941 	 48.6766 	 96.2661
| 30> H 	 -29.2315 	 49.2411 	 95.7552
| 31> H 	 -30.2555 	 47.7807 	 95.7946
| 32> C 	 -29.3409 	 48.4242 	 97.6732
| 33> H 	 -28.3656 	 47.9624 	 97.6633
| 34> H 	 -30.055 	 47.6952 	 98.1225
| 35> C 	 -29.3013 	 49.6595 	 98.517
| 36> H 	 -28.6995 	 49.5846 	 99.441
| 37> H 	 -30.3185 	 49.7435 	 98.8574
| 38> H 	 -29.1195 	 50.5675 	 97.9936
| 39> H 	 -34.3182 	 44.1144 	 96.991
| 40> H 	 -32.9168 	 52.2812 	 96.3046
| 41> *
| 42>
| 43>                          ****END OF INPUT****

CARTESIAN COORDINATES (ANGSTROEM)
---------------------------------
  S    -33.598900   46.472600   97.622300
  C    -33.965600   45.085900   96.596000
  C    -33.536800   45.253100   95.300200
  C    -32.902100   46.544900   95.107600
  C    -32.906800   47.334800   96.247300
  H    -32.565500   47.024900   94.183900
  C    -33.582400   44.240900   94.165200
  H    -33.440400   43.303200   94.638700
  H    -32.764700   44.461600   93.530800
  C    -34.917300   44.438400   93.395300
  H    -34.944100   45.484700   93.099200
  H    -34.902500   43.997000   92.369600
  C    -36.196400   44.037800   94.172300
  H    -37.115000   44.055300   93.562900
  H    -36.187000   43.033000   94.562000
  H    -36.429100   44.696600   95.029900
  S    -33.836000   49.893900   96.041400
  C    -32.695600   51.212400   96.204900
  C    -31.415800   50.765500   96.234300
  C    -31.345700   49.330600   96.270000
  C    -32.580000   48.707700   96.266000
  H    -30.595300   51.400400   96.277400
  C    -29.994100   48.676600   96.266100
  H    -29.231500   49.241100   95.755200
  H    -30.255500   47.780700   95.794600
  C    -29.340900   48.424200   97.673200
  H    -28.365600   47.962400   97.663300
  H    -30.055000   47.695200   98.122500
  C    -29.301300   49.659500   98.517000
  H    -28.699500   49.584600   99.441000
  H    -30.318500   49.743500   98.857400
  H    -29.119500   50.567500   97.993600
  H    -34.318200   44.114400   96.991000
  H    -32.916800   52.281200   96.304600

 Total Charge           Charge          ....    0
 Multiplicity           Mult            ....    1
 Number of Electrons    NEL             ....  134
 Basis Dimension        Dim             ....  322

ORBITAL ENERGIES
----------------

  NO   OCC          E(Eh)            E(eV)
   0   2.0000     -88.967488     -2420.9284
   1   2.0000     -88.963169     -2420.8109
   2   2.0000     -10.326130      -280.9883
   3   2.0000     -10.319677      -280.8127
   4   2.0000     -10.318643      -280.7846
   5   2.0000     -10.315312      -280.6939
   6   2.0000     -10.303761      -280.3796
   7   2.0000     -10.299531      -280.2645
   8   2.0000     -10.298672      -280.2411
   9   2.0000     -10.293595      -280.1030
  10   2.0000     -10.290870      -280.0288
  11   2.0000     -10.284297      -279.8500
  12   2.0000     -10.281538      -279.7749
  13   2.0000     -10.281082      -279.7625
  14   2.0000     -10.279128      -279.7093
  15   2.0000     -10.266219      -279.3580
  16   2.0000      -8.081744      -219.9154
  17   2.0000      -8.078249      -219.8203
  18   2.0000      -6.040344      -164.3661
  19   2.0000      -6.036897      -164.2723
  20   2.0000      -6.036315      -164.2565
  21   2.0000      -6.032700      -164.1581
  22   2.0000      -6.032434      -164.1509
  23   2.0000      -6.028840      -164.0531
  24   2.0000      -1.008933       -27.4545
  25   2.0000      -0.983316       -26.7574
  26   2.0000      -0.911896       -24.8140
  27   2.0000      -0.909452       -24.7474
  28   2.0000      -0.873954       -23.7815
  29   2.0000      -0.847733       -23.0680
  30   2.0000      -0.843160       -22.9435
  31   2.0000      -0.815110       -22.1803
  32   2.0000      -0.786637       -21.4055
  33   2.0000      -0.772938       -21.0327
  34   2.0000      -0.712786       -19.3959
  35   2.0000      -0.701647       -19.0928
  36   2.0000      -0.687579       -18.7100
  37   2.0000      -0.666305       -18.1311
  38   2.0000      -0.643955       -17.5229
  39   2.0000      -0.614526       -16.7221
  40   2.0000      -0.588216       -16.0062
  41   2.0000      -0.570713       -15.5299
  42   2.0000      -0.559269       -15.2185
  43   2.0000      -0.552043       -15.0218
  44   2.0000      -0.546861       -14.8808
  45   2.0000      -0.537539       -14.6272
  46   2.0000      -0.521444       -14.1892
  47   2.0000      -0.512834       -13.9549
  48   2.0000      -0.503194       -13.6926
  49   2.0000      -0.492482       -13.4011
  50   2.0000      -0.485202       -13.2030
  51   2.0000      -0.482241       -13.1224
  52   2.0000      -0.474854       -12.9214
  53   2.0000      -0.462541       -12.5864
  54   2.0000      -0.458826       -12.4853
  55   2.0000      -0.449128       -12.2214
  56   2.0000      -0.440350       -11.9825
  57   2.0000      -0.436810       -11.8862
  58   2.0000      -0.436255       -11.8711
  59   2.0000      -0.433492       -11.7959
  60   2.0000      -0.416221       -11.3259
  61   2.0000      -0.411017       -11.1843
  62   2.0000      -0.403968       -10.9925
  63   2.0000      -0.338812        -9.2195
  64   2.0000      -0.326864        -8.8944
  65   2.0000      -0.322786        -8.7834
  66   2.0000      -0.308963        -8.4073
  67   0.0000       0.040554         1.1035
  68   0.0000       0.055571         1.5122
  69   0.0000       0.108693         2.9577
  70   0.0000       0.116712         3.1759
  71   0.0000       0.130038         3.5385

MULLIKEN ATOMIC CHARGES
-----------------------
   0 S :    0.117175
   1 C :   -0.131178
   2 C :   -0.127593
   3 C :    0.051049
   4 C :   -0.211560
   5 H :    0.025658
   6 C :    0.135898
   7 H :    0.020572
   8 H :    0.015025
   9 C :   -0.068007
  10 H :    0.022433
  11 H :    0.032623
  12 C :   -0.062336
  13 H :    0.032977
  14 H :    0.023644
  15 H :    0.046650
  16 S :    0.117490
  17 C :   -0.087574
  18 C :   -0.001627
  19 C :   -0.060401
  20 C :   -0.170198
  21 H :   -0.009468
  22 C :    0.115327
  23 H :    0.023452
  24 H :    0.008607
  25 C :   -0.078305
  26 H :    0.031079
  27 H :    0.026532
  28 C :   -0.038401
  29 H :    0.038553
  30 H :    0.029647
  31 H :    0.014585
  32 H :    0.058298
  33 H :    0.059373
Sum of atomic charges:    0.0000000

LOEWDIN ATOMIC CHARGES
----------------------
   0 S :    0.395324
   1 C :   -0.197480
   2 C :   -0.059991
   3 C :   -0.054218
   4 C :   -0.200995
   5 H :    0.035650
   6 C :   -0.017517
   7 H :    0.024834
   8 H :    0.028445
   9 C :   -0.041411
  10 H :    0.025986
  11 H :    0.026870
  12 C :   -0.073626
  13 H :    0.030199
  14 H :    0.020868
  15 H :    0.030336
  16 S :    0.408455
  17 C :   -0.180981
  18 C :   -0.064446
  19 C :   -0.047212
  20 C :   -0.216080
  21 H :    0.018826
  22 C :   -0.024170
  23 H :    0.027751
  24 H :    0.023262
  25 C :   -0.037033
  26 H :    0.018819
  27 H :    0.026116
  28 C :   -0.070146
  29 H :    0.030545
  30 H :    0.029213
  31 H :    0.014588
  32 H :    0.033740
  33 H :    0.035478

  Mayer bond orders larger than 0.100000
B(  0-S ,  1-C ) :   1.1287 B(  0-S ,  4-C ) :   1.1351 B(  1-C ,  2-C ) :   1.6427
B(  1-C , 32-H ) :   0.9604 B(  2-C ,  3-C ) :   1.2162 B(  2-C ,  6-C ) :   1.0078
B(  3-C ,  4-C ) :   1.6094 B(  3-C ,  5-H ) :   0.9829 B(  4-C , 20-C ) :   1.0468
B(  6-C ,  7-H ) :   0.9477 B(  6-C ,  8-H ) :   0.9364 B(  6-C ,  9-C ) :   1.0642
B(  9-C , 10-H ) :   0.9530 B(  9-C , 11-H ) :   0.9583 B(  9-C , 12-C ) :   1.0700
B( 12-C , 13-H ) :   0.9734 B( 12-C , 14-H ) :   0.9772 B( 12-C , 15-H ) :   0.9727
B( 16-S , 17-C ) :   1.1494 B( 16-S , 20-C ) :   1.1312 B( 17-C , 18-C ) :   1.6231
B( 17-C , 33-H ) :   0.9623 B( 18-C , 19-C ) :   1.2271 B( 18-C , 21-H ) :   0.9997
B( 19-C , 20-C ) :   1.6077 B( 19-C , 22-C ) :   1.0362 B( 22-C , 23-H ) :   0.9419
B( 22-C , 24-H ) :   0.9222 B( 22-C , 25-C ) :   1.0687 B( 25-C , 26-H ) :   0.9637
B( 25-C , 27-H ) :   0.9588 B( 25-C , 28-C ) :   1.0764 B( 28-C , 29-H ) :   0.9713
B( 28-C , 30-H ) :   0.9665 B( 28-C , 31-H ) :   0.9751

Dispersion correction           -0.015282458
FINAL SINGLE POINT ENERGY     -1339.874883565185

DIPOLE MOMENT
-------------
                                X             Y             Z
Electronic contribution:     -7.20955       9.24570       5.33063
Nuclear contribution   :      7.47561      -9.40634      -5.68081
                        -----------------------------------------
Total Dipole Moment    :      0.26606      -0.16064      -0.35018
                        -----------------------------------------
Magnitude (a.u.)       :      0.46821
Magnitude (Debye)      :      1.19010

Rotational constants in cm-1:     0.024369     0.007765     0.006974
Rotational constants in MHz :   730.552530   232.791547   209.064817

                             ****ORCA TERMINATED NORMALLY****
TOTAL RUN TIME: 0 days 0 hours 0 minutes 31 seconds 267 msec
