                         Program Version 4.2.1 -  RELEASE  -
|  1> ! wB97X-D3 SP def2-SVP
|  2> %pal
|  3> nprocs 16
|  4> end
|  5>
|  6> * xyz 0 1
|  7> S 	 19.2286 	 4.829 	 73.17
|  8> C 	 20.0326 	 3.76211 	 71.9468
|  9> C 	 21.2799 	 4.31081 	 71.6539
| 10> C 	 21.5903 	 5.42214 	 72.432
| 11> C 	 20.6124 	 5.81701 	 73.2596
| 12> H 	 22.5223 	 5.95648 	 72.3673
| 13> C 	 22.318 	 3.72209 	 70.6703
| 14> H 	 22.5445 	 4.36273 	 69.806
| 15> H 	 21.6876 	 2.93865 	 70.2093
| 16> C 	 23.5279 	 2.93406 	 71.247
| 17> H 	 24.2192 	 2.67601 	 70.4375
| 18> H 	 24.1151 	 3.60269 	 71.9251
| 19> C 	 23.1709 	 1.68883 	 72.0125
| 20> H 	 23.9558 	 0.955154 	 72.0808
| 21> H 	 22.8876 	 2.00408 	 72.9567
| 22> H 	 22.2607 	 1.19307 	 71.4743
| 23> S 	 20.4559 	 6.33977 	 75.8939
| 24> C 	 20.7039 	 7.98737 	 76.5366
| 25> C 	 20.7725 	 8.89386 	 75.4969
| 26> C 	 20.7464 	 8.26881 	 74.1929
| 27> C 	 20.5908 	 6.87555 	 74.2484
| 28> H 	 20.9139 	 9.8976 	 75.6641
| 29> C 	 20.8265 	 9.18482 	 72.9543
| 30> H 	 20.9897 	 8.54462 	 72.145
| 31> H 	 21.7362 	 9.79319 	 73.0514
| 32> C 	 19.5747 	 10.0384 	 72.6418
| 33> H 	 18.636 	 9.4649 	 72.597
| 34> H 	 19.7202 	 10.5046 	 71.6613
| 35> C 	 19.3095 	 11.1847 	 73.6072
| 36> H 	 18.6924 	 11.008 	 74.5183
| 37> H 	 18.9413 	 12.0123 	 73.1502
| 38> H 	 20.3598 	 11.4256 	 73.9277
| 39> H 	 19.5649 	 2.97117 	 71.4574
| 40> H 	 20.8958 	 8.28532 	 77.5778
| 41> *
| 42>
| 43>                          ****END OF INPUT****

CARTESIAN COORDINATES (ANGSTROEM)
---------------------------------
  S     19.228600    4.829000   73.170000
  C     20.032600    3.762110   71.946800
  C     21.279900    4.310810   71.653900
  C     21.590300    5.422140   72.432000
  C     20.612400    5.817010   73.259600
  H     22.522300    5.956480   72.367300
  C     22.318000    3.722090   70.670300
  H     22.544500    4.362730   69.806000
  H     21.687600    2.938650   70.209300
  C     23.527900    2.934060   71.247000
  H     24.219200    2.676010   70.437500
  H     24.115100    3.602690   71.925100
  C     23.170900    1.688830   72.012500
  H     23.955800    0.955154   72.080800
  H     22.887600    2.004080   72.956700
  H     22.260700    1.193070   71.474300
  S     20.455900    6.339770   75.893900
  C     20.703900    7.987370   76.536600
  C     20.772500    8.893860   75.496900
  C     20.746400    8.268810   74.192900
  C     20.590800    6.875550   74.248400
  H     20.913900    9.897600   75.664100
  C     20.826500    9.184820   72.954300
  H     20.989700    8.544620   72.145000
  H     21.736200    9.793190   73.051400
  C     19.574700   10.038400   72.641800
  H     18.636000    9.464900   72.597000
  H     19.720200   10.504600   71.661300
  C     19.309500   11.184700   73.607200
  H     18.692400   11.008000   74.518300
  H     18.941300   12.012300   73.150200
  H     20.359800   11.425600   73.927700
  H     19.564900    2.971170   71.457400
  H     20.895800    8.285320   77.577800

 Total Charge           Charge          ....    0
 Multiplicity           Mult            ....    1
 Number of Electrons    NEL             ....  134
 Basis Dimension        Dim             ....  322

ORBITAL ENERGIES
----------------

  NO   OCC          E(Eh)            E(eV)
   0   2.0000     -88.965252     -2420.8676
   1   2.0000     -88.964762     -2420.8543
   2   2.0000     -10.326904      -281.0094
   3   2.0000     -10.322994      -280.9029
   4   2.0000     -10.320859      -280.8448
   5   2.0000     -10.316593      -280.7288
   6   2.0000     -10.306295      -280.4485
   7   2.0000     -10.302530      -280.3461
   8   2.0000     -10.297066      -280.1974
   9   2.0000     -10.290301      -280.0133
  10   2.0000     -10.289711      -279.9973
  11   2.0000     -10.288538      -279.9654
  12   2.0000     -10.287302      -279.9317
  13   2.0000     -10.283948      -279.8405
  14   2.0000     -10.274194      -279.5750
  15   2.0000     -10.271718      -279.5077
  16   2.0000      -8.080211      -219.8737
  17   2.0000      -8.079188      -219.8459
  18   2.0000      -6.038692      -164.3212
  19   2.0000      -6.037862      -164.2986
  20   2.0000      -6.034621      -164.2104
  21   2.0000      -6.033637      -164.1836
  22   2.0000      -6.031027      -164.1126
  23   2.0000      -6.029870      -164.0811
  24   2.0000      -1.011832       -27.5334
  25   2.0000      -0.981688       -26.7131
  26   2.0000      -0.911285       -24.7973
  27   2.0000      -0.906280       -24.6611
  28   2.0000      -0.871640       -23.7185
  29   2.0000      -0.848893       -23.0996
  30   2.0000      -0.844435       -22.9783
  31   2.0000      -0.818965       -22.2852
  32   2.0000      -0.785197       -21.3663
  33   2.0000      -0.773179       -21.0393
  34   2.0000      -0.708869       -19.2893
  35   2.0000      -0.694856       -18.9080
  36   2.0000      -0.690551       -18.7908
  37   2.0000      -0.665116       -18.0987
  38   2.0000      -0.645409       -17.5625
  39   2.0000      -0.625477       -17.0201
  40   2.0000      -0.590460       -16.0672
  41   2.0000      -0.569391       -15.4939
  42   2.0000      -0.557437       -15.1686
  43   2.0000      -0.552910       -15.0455
  44   2.0000      -0.546063       -14.8591
  45   2.0000      -0.543550       -14.7908
  46   2.0000      -0.523129       -14.2351
  47   2.0000      -0.517082       -14.0705
  48   2.0000      -0.500582       -13.6215
  49   2.0000      -0.493879       -13.4391
  50   2.0000      -0.487955       -13.2779
  51   2.0000      -0.477460       -12.9923
  52   2.0000      -0.473505       -12.8847
  53   2.0000      -0.462816       -12.5939
  54   2.0000      -0.456245       -12.4151
  55   2.0000      -0.445303       -12.1173
  56   2.0000      -0.440948       -11.9988
  57   2.0000      -0.438529       -11.9330
  58   2.0000      -0.432328       -11.7642
  59   2.0000      -0.418423       -11.3859
  60   2.0000      -0.417984       -11.3739
  61   2.0000      -0.413835       -11.2610
  62   2.0000      -0.409978       -11.1561
  63   2.0000      -0.343837        -9.3563
  64   2.0000      -0.336979        -9.1697
  65   2.0000      -0.326151        -8.8750
  66   2.0000      -0.298638        -8.1264
  67   0.0000       0.038171         1.0387
  68   0.0000       0.061138         1.6636
  69   0.0000       0.109679         2.9845
  70   0.0000       0.120620         3.2822
  71   0.0000       0.131369         3.5747

MULLIKEN ATOMIC CHARGES
-----------------------
   0 S :    0.104399
   1 C :   -0.107752
   2 C :   -0.094639
   3 C :    0.055151
   4 C :   -0.155135
   5 H :    0.004086
   6 C :    0.049269
   7 H :    0.045897
   8 H :    0.004732
   9 C :   -0.073798
  10 H :    0.030721
  11 H :    0.029690
  12 C :   -0.036534
  13 H :    0.036358
  14 H :    0.030782
  15 H :    0.027400
  16 S :    0.107399
  17 C :   -0.093768
  18 C :   -0.006747
  19 C :   -0.041081
  20 C :   -0.161440
  21 H :   -0.013679
  22 C :    0.092898
  23 H :    0.002735
  24 H :    0.033793
  25 C :   -0.065606
  26 H :    0.038172
  27 H :    0.031948
  28 C :   -0.038838
  29 H :    0.048779
  30 H :    0.009890
  31 H :    0.011725
  32 H :    0.027600
  33 H :    0.065595
Sum of atomic charges:    0.0000000

LOEWDIN ATOMIC CHARGES
----------------------
   0 S :    0.406874
   1 C :   -0.172079
   2 C :   -0.059761
   3 C :   -0.069144
   4 C :   -0.204211
   5 H :    0.032863
   6 C :   -0.036260
   7 H :    0.035192
   8 H :    0.028492
   9 C :   -0.044123
  10 H :    0.025056
  11 H :    0.023983
  12 C :   -0.059807
  13 H :    0.025251
  14 H :    0.017971
  15 H :    0.031992
  16 S :    0.402050
  17 C :   -0.178522
  18 C :   -0.060266
  19 C :   -0.052007
  20 C :   -0.209701
  21 H :    0.016343
  22 C :   -0.028074
  23 H :    0.021784
  24 H :    0.032993
  25 C :   -0.036939
  26 H :    0.029805
  27 H :    0.029039
  28 C :   -0.066291
  29 H :    0.030751
  30 H :    0.010475
  31 H :    0.024753
  32 H :    0.014553
  33 H :    0.036963

  Mayer bond orders larger than 0.100000
B(  0-S ,  1-C ) :   1.1256 B(  0-S ,  4-C ) :   1.1700 B(  1-C ,  2-C ) :   1.6011
B(  1-C ,  4-C ) :   0.1028 B(  1-C , 32-H ) :   0.9796 B(  2-C ,  3-C ) :   1.2398
B(  2-C ,  6-C ) :   1.0134 B(  3-C ,  4-C ) :   1.5949 B(  3-C ,  5-H ) :   1.0042
B(  4-C , 20-C ) :   0.9848 B(  6-C ,  7-H ) :   0.9451 B(  6-C ,  8-H ) :   0.9374
B(  6-C ,  9-C ) :   1.0647 B(  9-C , 10-H ) :   0.9561 B(  9-C , 11-H ) :   0.9581
B(  9-C , 12-C ) :   1.0698 B( 12-C , 13-H ) :   0.9749 B( 12-C , 14-H ) :   0.9766
B( 12-C , 15-H ) :   0.9739 B( 16-S , 17-C ) :   1.1406 B( 16-S , 20-C ) :   1.1486
B( 17-C , 18-C ) :   1.6179 B( 17-C , 33-H ) :   0.9640 B( 18-C , 19-C ) :   1.2318
B( 18-C , 21-H ) :   0.9971 B( 19-C , 20-C ) :   1.6086 B( 19-C , 22-C ) :   1.0357
B( 22-C , 23-H ) :   0.9245 B( 22-C , 24-H ) :   0.9358 B( 22-C , 25-C ) :   1.0867
B( 25-C , 26-H ) :   0.9533 B( 25-C , 27-H ) :   0.9542 B( 25-C , 28-C ) :   1.0762
B( 28-C , 29-H ) :   0.9728 B( 28-C , 30-H ) :   0.9698 B( 28-C , 31-H ) :   0.9722

Dispersion correction           -0.014268288
FINAL SINGLE POINT ENERGY     -1339.863158220572

DIPOLE MOMENT
-------------
                                X             Y             Z
Electronic contribution:     -9.58224      -4.92543      13.11932
Nuclear contribution   :      9.98562       5.25157     -13.50354
                        -----------------------------------------
Total Dipole Moment    :      0.40339       0.32614      -0.38422
                        -----------------------------------------
Magnitude (a.u.)       :      0.64553
Magnitude (Debye)      :      1.64081

Rotational constants in cm-1:     0.023604     0.007325     0.006684
Rotational constants in MHz :   707.617001   219.584797   200.388050

                             ****ORCA TERMINATED NORMALLY****
TOTAL RUN TIME: 0 days 0 hours 0 minutes 34 seconds 587 msec
