                         Program Version 4.2.1 -  RELEASE  -
|  1> ! wB97X-D3 SP def2-SVP
|  2> %pal
|  3> nprocs 16
|  4> end
|  5>
|  6> * xyz 0 1
|  7> S 	 -44.2112 	 25.1951 	 89.5472
|  8> C 	 -45.9096 	 25.5244 	 89.5903
|  9> C 	 -46.5539 	 24.3774 	 89.3256
| 10> C 	 -45.7417 	 23.4107 	 88.6249
| 11> C 	 -44.4187 	 23.8589 	 88.5253
| 12> H 	 -46.0637 	 22.4682 	 88.2318
| 13> C 	 -47.9913 	 24.077 	 89.5606
| 14> H 	 -48.4215 	 23.5614 	 88.6882
| 15> H 	 -48.403 	 25.0756 	 89.5462
| 16> C 	 -48.3001 	 23.322 	 90.8649
| 17> H 	 -49.3253 	 22.9451 	 90.8023
| 18> H 	 -47.616 	 22.4977 	 90.881
| 19> C 	 -48.1821 	 24.0427 	 92.2451
| 20> H 	 -48.9188 	 23.6669 	 92.9138
| 21> H 	 -47.1504 	 23.8409 	 92.5586
| 22> H 	 -48.3132 	 25.0941 	 92.2371
| 23> S 	 -41.9952 	 24.1809 	 87.2139
| 24> C 	 -41.1368 	 22.7811 	 86.753
| 25> C 	 -41.7309 	 21.5862 	 87.1839
| 26> C 	 -42.893 	 21.8036 	 87.9004
| 27> C 	 -43.2444 	 23.164 	 88.0313
| 28> H 	 -41.1799 	 20.6757 	 86.9817
| 29> C 	 -43.6914 	 20.6127 	 88.475
| 30> H 	 -44.4942 	 20.8768 	 89.109
| 31> H 	 -42.907 	 20.1036 	 88.9769
| 32> C 	 -44.1225 	 19.5429 	 87.5234
| 33> H 	 -43.2983 	 19.1589 	 86.9227
| 34> H 	 -44.8062 	 19.9812 	 86.7739
| 35> C 	 -44.7126 	 18.3388 	 88.2795
| 36> H 	 -45.1833 	 17.5621 	 87.6902
| 37> H 	 -45.5186 	 18.797 	 88.8919
| 38> H 	 -43.9866 	 17.9538 	 88.9789
| 39> H 	 -46.3928 	 26.3383 	 90.0645
| 40> H 	 -40.1772 	 22.7783 	 86.2824
| 41> *
| 42>
| 43>                          ****END OF INPUT****

CARTESIAN COORDINATES (ANGSTROEM)
---------------------------------
  S    -44.211200   25.195100   89.547200
  C    -45.909600   25.524400   89.590300
  C    -46.553900   24.377400   89.325600
  C    -45.741700   23.410700   88.624900
  C    -44.418700   23.858900   88.525300
  H    -46.063700   22.468200   88.231800
  C    -47.991300   24.077000   89.560600
  H    -48.421500   23.561400   88.688200
  H    -48.403000   25.075600   89.546200
  C    -48.300100   23.322000   90.864900
  H    -49.325300   22.945100   90.802300
  H    -47.616000   22.497700   90.881000
  C    -48.182100   24.042700   92.245100
  H    -48.918800   23.666900   92.913800
  H    -47.150400   23.840900   92.558600
  H    -48.313200   25.094100   92.237100
  S    -41.995200   24.180900   87.213900
  C    -41.136800   22.781100   86.753000
  C    -41.730900   21.586200   87.183900
  C    -42.893000   21.803600   87.900400
  C    -43.244400   23.164000   88.031300
  H    -41.179900   20.675700   86.981700
  C    -43.691400   20.612700   88.475000
  H    -44.494200   20.876800   89.109000
  H    -42.907000   20.103600   88.976900
  C    -44.122500   19.542900   87.523400
  H    -43.298300   19.158900   86.922700
  H    -44.806200   19.981200   86.773900
  C    -44.712600   18.338800   88.279500
  H    -45.183300   17.562100   87.690200
  H    -45.518600   18.797000   88.891900
  H    -43.986600   17.953800   88.978900
  H    -46.392800   26.338300   90.064500
  H    -40.177200   22.778300   86.282400

 Total Charge           Charge          ....    0
 Multiplicity           Mult            ....    1
 Number of Electrons    NEL             ....  134
 Basis Dimension        Dim             ....  322

ORBITAL ENERGIES
----------------

  NO   OCC          E(Eh)            E(eV)
   0   2.0000     -88.968322     -2420.9511
   1   2.0000     -88.959513     -2420.7114
   2   2.0000     -10.329458      -281.0788
   3   2.0000     -10.325828      -280.9801
   4   2.0000     -10.316599      -280.7289
   5   2.0000     -10.308681      -280.5135
   6   2.0000     -10.302139      -280.3355
   7   2.0000     -10.292774      -280.0806
   8   2.0000     -10.292540      -280.0742
   9   2.0000     -10.290415      -280.0164
  10   2.0000     -10.286711      -279.9156
  11   2.0000     -10.286529      -279.9107
  12   2.0000     -10.286524      -279.9105
  13   2.0000     -10.286241      -279.9028
  14   2.0000     -10.281589      -279.7762
  15   2.0000     -10.273683      -279.5611
  16   2.0000      -8.082825      -219.9449
  17   2.0000      -8.075981      -219.7586
  18   2.0000      -6.041097      -164.3866
  19   2.0000      -6.037248      -164.2819
  20   2.0000      -6.034426      -164.2051
  21   2.0000      -6.033959      -164.1924
  22   2.0000      -6.030560      -164.0999
  23   2.0000      -6.026354      -163.9854
  24   2.0000      -1.013446       -27.5773
  25   2.0000      -0.989945       -26.9378
  26   2.0000      -0.920028       -25.0352
  27   2.0000      -0.912945       -24.8425
  28   2.0000      -0.869615       -23.6634
  29   2.0000      -0.856643       -23.3104
  30   2.0000      -0.843988       -22.9661
  31   2.0000      -0.812434       -22.1075
  32   2.0000      -0.787625       -21.4324
  33   2.0000      -0.777577       -21.1589
  34   2.0000      -0.711530       -19.3617
  35   2.0000      -0.699244       -19.0274
  36   2.0000      -0.697105       -18.9692
  37   2.0000      -0.660611       -17.9761
  38   2.0000      -0.639363       -17.3979
  39   2.0000      -0.621988       -16.9251
  40   2.0000      -0.601900       -16.3785
  41   2.0000      -0.576381       -15.6841
  42   2.0000      -0.574108       -15.6223
  43   2.0000      -0.550594       -14.9824
  44   2.0000      -0.538575       -14.6554
  45   2.0000      -0.525249       -14.2927
  46   2.0000      -0.520088       -14.1523
  47   2.0000      -0.516972       -14.0675
  48   2.0000      -0.509958       -13.8767
  49   2.0000      -0.501833       -13.6556
  50   2.0000      -0.492961       -13.4142
  51   2.0000      -0.481406       -13.0997
  52   2.0000      -0.476828       -12.9751
  53   2.0000      -0.468363       -12.7448
  54   2.0000      -0.463349       -12.6084
  55   2.0000      -0.453431       -12.3385
  56   2.0000      -0.447394       -12.1742
  57   2.0000      -0.436025       -11.8648
  58   2.0000      -0.430258       -11.7079
  59   2.0000      -0.423493       -11.5238
  60   2.0000      -0.420989       -11.4557
  61   2.0000      -0.416307       -11.3283
  62   2.0000      -0.413528       -11.2527
  63   2.0000      -0.347202        -9.4479
  64   2.0000      -0.336273        -9.1505
  65   2.0000      -0.321016        -8.7353
  66   2.0000      -0.287687        -7.8284
  67   0.0000       0.020994         0.5713
  68   0.0000       0.074750         2.0340
  69   0.0000       0.104846         2.8530
  70   0.0000       0.121123         3.2959
  71   0.0000       0.125029         3.4022

MULLIKEN ATOMIC CHARGES
-----------------------
   0 S :    0.101879
   1 C :   -0.086871
   2 C :   -0.118151
   3 C :    0.008265
   4 C :   -0.103623
   5 H :   -0.000167
   6 C :    0.069310
   7 H :    0.029347
   8 H :    0.010020
   9 C :   -0.064982
  10 H :    0.031706
  11 H :    0.019383
  12 C :   -0.031099
  13 H :    0.032069
  14 H :    0.040607
  15 H :    0.018140
  16 S :    0.120435
  17 C :   -0.082357
  18 C :   -0.067490
  19 C :    0.013236
  20 C :   -0.179411
  21 H :    0.021173
  22 C :    0.098189
  23 H :    0.011548
  24 H :    0.013319
  25 C :   -0.094387
  26 H :    0.023363
  27 H :    0.028986
  28 C :   -0.035086
  29 H :    0.043240
  30 H :    0.020159
  31 H :    0.028832
  32 H :    0.029355
  33 H :    0.051063
Sum of atomic charges:   -0.0000000

LOEWDIN ATOMIC CHARGES
----------------------
   0 S :    0.427893
   1 C :   -0.201766
   2 C :   -0.063653
   3 C :   -0.069580
   4 C :   -0.202096
   5 H :    0.023647
   6 C :   -0.034612
   7 H :    0.033942
   8 H :    0.026936
   9 C :   -0.034883
  10 H :    0.024675
  11 H :    0.020199
  12 C :   -0.060398
  13 H :    0.025419
  14 H :    0.031755
  15 H :    0.017207
  16 S :    0.415588
  17 C :   -0.187629
  18 C :   -0.079131
  19 C :   -0.041637
  20 C :   -0.198121
  21 H :    0.034036
  22 C :   -0.023727
  23 H :    0.021165
  24 H :    0.032855
  25 C :   -0.043078
  26 H :    0.019532
  27 H :    0.021911
  28 C :   -0.061799
  29 H :    0.027356
  30 H :    0.026698
  31 H :    0.023880
  32 H :    0.022120
  33 H :    0.025295

  Mayer bond orders larger than 0.100000
B(  0-S ,  1-C ) :   1.1176 B(  0-S ,  4-C ) :   1.1854 B(  1-C ,  2-C ) :   1.6201
B(  1-C , 32-H ) :   0.9733 B(  2-C ,  3-C ) :   1.2193 B(  2-C ,  6-C ) :   1.0299
B(  3-C ,  4-C ) :   1.5310 B(  3-C ,  5-H ) :   1.0091 B(  4-C , 20-C ) :   1.0529
B(  6-C ,  7-H ) :   0.9431 B(  6-C ,  8-H ) :   0.9384 B(  6-C ,  9-C ) :   1.0646
B(  9-C , 10-H ) :   0.9625 B(  9-C , 11-H ) :   0.9616 B(  9-C , 12-C ) :   1.0629
B( 12-C , 13-H ) :   0.9776 B( 12-C , 14-H ) :   0.9802 B( 12-C , 15-H ) :   0.9795
B( 16-S , 17-C ) :   1.1943 B( 16-S , 20-C ) :   1.1327 B( 17-C , 18-C ) :   1.5680
B( 17-C , 20-C ) :   0.1121 B( 17-C , 33-H ) :   0.9653 B( 18-C , 19-C ) :   1.2724
B( 18-C , 21-H ) :   0.9937 B( 19-C , 20-C ) :   1.5524 B( 19-C , 22-C ) :   1.0254
B( 22-C , 23-H ) :   0.9456 B( 22-C , 24-H ) :   0.9235 B( 22-C , 25-C ) :   1.0640
B( 25-C , 26-H ) :   0.9495 B( 25-C , 27-H ) :   0.9543 B( 25-C , 28-C ) :   1.0762
B( 28-C , 29-H ) :   0.9741 B( 28-C , 30-H ) :   0.9736 B( 28-C , 31-H ) :   0.9745

Dispersion correction           -0.014001910
FINAL SINGLE POINT ENERGY     -1339.860790675862

DIPOLE MOMENT
-------------
                                X             Y             Z
Electronic contribution:     19.69715      20.18244      -9.03783
Nuclear contribution   :    -19.97111     -20.83771       9.16507
                        -----------------------------------------
Total Dipole Moment    :     -0.27396      -0.65528       0.12724
                        -----------------------------------------
Magnitude (a.u.)       :      0.72155
Magnitude (Debye)      :      1.83404

Rotational constants in cm-1:     0.017705     0.009167     0.006418
Rotational constants in MHz :   530.778576   274.825300   192.404250

                             ****ORCA TERMINATED NORMALLY****
TOTAL RUN TIME: 0 days 0 hours 0 minutes 29 seconds 957 msec
