                         Program Version 4.2.1 -  RELEASE  -
|  1> ! wB97X-D3 SP def2-SVP
|  2> %pal
|  3> nprocs 16
|  4> end
|  5>
|  6> * xyz 0 1
|  7> S 	 -1.54362 	 -8.96243 	 84.5384
|  8> C 	 -0.462628 	 -10.0974 	 85.2799
|  9> C 	 -1.22104 	 -11.1602 	 85.8239
| 10> C 	 -2.63068 	 -10.9758 	 85.6785
| 11> C 	 -2.98002 	 -9.7531 	 85.1562
| 12> H 	 -3.36709 	 -11.7543 	 85.9097
| 13> C 	 -0.738206 	 -12.5596 	 86.1356
| 14> H 	 -1.29924 	 -12.921 	 87.0188
| 15> H 	 0.26182 	 -12.5017 	 86.4923
| 16> C 	 -0.977978 	 -13.6589 	 85.006
| 17> H 	 -2.04462 	 -13.9038 	 84.9384
| 18> H 	 -0.721383 	 -13.1201 	 84.1147
| 19> C 	 -0.105306 	 -14.9609 	 85.0246
| 20> H 	 0.947718 	 -14.8101 	 85.1071
| 21> H 	 -0.519038 	 -15.4908 	 85.8604
| 22> H 	 -0.191659 	 -15.5635 	 84.1033
| 23> S 	 -4.46144 	 -8.39917 	 83.4336
| 24> C 	 -6.12121 	 -7.98672 	 83.8008
| 25> C 	 -6.53862 	 -8.49551 	 85.0415
| 26> C 	 -5.54647 	 -9.2839 	 85.6926
| 27> C 	 -4.30759 	 -9.27049 	 84.992
| 28> H 	 -7.48844 	 -8.26318 	 85.3639
| 29> C 	 -5.87486 	 -9.93874 	 87.0509
| 30> H 	 -5.59266 	 -9.3206 	 87.838
| 31> H 	 -5.16287 	 -10.7383 	 87.2377
| 32> C 	 -7.34112 	 -10.4565 	 87.2304
| 33> H 	 -7.66481 	 -11.1633 	 86.4699
| 34> H 	 -8.01731 	 -9.63452 	 87.2538
| 35> C 	 -7.42706 	 -11.1619 	 88.6055
| 36> H 	 -6.78089 	 -12.0311 	 88.6597
| 37> H 	 -8.44171 	 -11.4579 	 88.8019
| 38> H 	 -7.15578 	 -10.4836 	 89.4087
| 39> H 	 0.640553 	 -10.114 	 85.1436
| 40> H 	 -6.78333 	 -7.60329 	 83.0826
| 41> *
| 42>
| 43>                          ****END OF INPUT****

CARTESIAN COORDINATES (ANGSTROEM)
---------------------------------
  S     -1.543620   -8.962430   84.538400
  C     -0.462628  -10.097400   85.279900
  C     -1.221040  -11.160200   85.823900
  C     -2.630680  -10.975800   85.678500
  C     -2.980020   -9.753100   85.156200
  H     -3.367090  -11.754300   85.909700
  C     -0.738206  -12.559600   86.135600
  H     -1.299240  -12.921000   87.018800
  H      0.261820  -12.501700   86.492300
  C     -0.977978  -13.658900   85.006000
  H     -2.044620  -13.903800   84.938400
  H     -0.721383  -13.120100   84.114700
  C     -0.105306  -14.960900   85.024600
  H      0.947718  -14.810100   85.107100
  H     -0.519038  -15.490800   85.860400
  H     -0.191659  -15.563500   84.103300
  S     -4.461440   -8.399170   83.433600
  C     -6.121210   -7.986720   83.800800
  C     -6.538620   -8.495510   85.041500
  C     -5.546470   -9.283900   85.692600
  C     -4.307590   -9.270490   84.992000
  H     -7.488440   -8.263180   85.363900
  C     -5.874860   -9.938740   87.050900
  H     -5.592660   -9.320600   87.838000
  H     -5.162870  -10.738300   87.237700
  C     -7.341120  -10.456500   87.230400
  H     -7.664810  -11.163300   86.469900
  H     -8.017310   -9.634520   87.253800
  C     -7.427060  -11.161900   88.605500
  H     -6.780890  -12.031100   88.659700
  H     -8.441710  -11.457900   88.801900
  H     -7.155780  -10.483600   89.408700
  H      0.640553  -10.114000   85.143600
  H     -6.783330   -7.603290   83.082600

 Total Charge           Charge          ....    0
 Multiplicity           Mult            ....    1
 Number of Electrons    NEL             ....  134
 Basis Dimension        Dim             ....  322

ORBITAL ENERGIES
----------------

  NO   OCC          E(Eh)            E(eV)
   0   2.0000     -88.967978     -2420.9417
   1   2.0000     -88.965162     -2420.8651
   2   2.0000     -10.332352      -281.1576
   3   2.0000     -10.327506      -281.0257
   4   2.0000     -10.319326      -280.8031
   5   2.0000     -10.315529      -280.6998
   6   2.0000     -10.313998      -280.6582
   7   2.0000     -10.301629      -280.3216
   8   2.0000     -10.291782      -280.0536
   9   2.0000     -10.291679      -280.0508
  10   2.0000     -10.291226      -280.0385
  11   2.0000     -10.291001      -280.0324
  12   2.0000     -10.289704      -279.9971
  13   2.0000     -10.289508      -279.9918
  14   2.0000     -10.279107      -279.7087
  15   2.0000     -10.277815      -279.6736
  16   2.0000      -8.082633      -219.9396
  17   2.0000      -8.079516      -219.8548
  18   2.0000      -6.041310      -164.3924
  19   2.0000      -6.037965      -164.3014
  20   2.0000      -6.037120      -164.2784
  21   2.0000      -6.034034      -164.1944
  22   2.0000      -6.033237      -164.1727
  23   2.0000      -6.030409      -164.0958
  24   2.0000      -1.006252       -27.3815
  25   2.0000      -0.978527       -26.6271
  26   2.0000      -0.908949       -24.7338
  27   2.0000      -0.901350       -24.5270
  28   2.0000      -0.870235       -23.6803
  29   2.0000      -0.853608       -23.2278
  30   2.0000      -0.844866       -22.9900
  31   2.0000      -0.812058       -22.0972
  32   2.0000      -0.781536       -21.2667
  33   2.0000      -0.769371       -20.9357
  34   2.0000      -0.713264       -19.4089
  35   2.0000      -0.704330       -19.1658
  36   2.0000      -0.698900       -19.0180
  37   2.0000      -0.663445       -18.0533
  38   2.0000      -0.636972       -17.3329
  39   2.0000      -0.622111       -16.9285
  40   2.0000      -0.598730       -16.2923
  41   2.0000      -0.570294       -15.5185
  42   2.0000      -0.566936       -15.4271
  43   2.0000      -0.555572       -15.1179
  44   2.0000      -0.530202       -14.4275
  45   2.0000      -0.517699       -14.0873
  46   2.0000      -0.516396       -14.0519
  47   2.0000      -0.510728       -13.8976
  48   2.0000      -0.508446       -13.8355
  49   2.0000      -0.501236       -13.6393
  50   2.0000      -0.494531       -13.4569
  51   2.0000      -0.480468       -13.0742
  52   2.0000      -0.473454       -12.8833
  53   2.0000      -0.461886       -12.5686
  54   2.0000      -0.455840       -12.4040
  55   2.0000      -0.452104       -12.3024
  56   2.0000      -0.444074       -12.0839
  57   2.0000      -0.441857       -12.0235
  58   2.0000      -0.431865       -11.7517
  59   2.0000      -0.429345       -11.6831
  60   2.0000      -0.427615       -11.6360
  61   2.0000      -0.414813       -11.2876
  62   2.0000      -0.409653       -11.1472
  63   2.0000      -0.355490        -9.6734
  64   2.0000      -0.334124        -9.0920
  65   2.0000      -0.324744        -8.8367
  66   2.0000      -0.278355        -7.5744
  67   0.0000       0.017722         0.4822
  68   0.0000       0.067493         1.8366
  69   0.0000       0.101064         2.7501
  70   0.0000       0.121232         3.2989
  71   0.0000       0.135241         3.6801

MULLIKEN ATOMIC CHARGES
-----------------------
   0 S :    0.115249
   1 C :   -0.130412
   2 C :   -0.089430
   3 C :   -0.023418
   4 C :   -0.113632
   5 H :    0.029250
   6 C :    0.059907
   7 H :    0.021410
   8 H :    0.007648
   9 C :   -0.078434
  10 H :    0.034173
  11 H :    0.026283
  12 C :   -0.043330
  13 H :    0.029865
  14 H :    0.032507
  15 H :    0.041011
  16 S :    0.080384
  17 C :   -0.070399
  18 C :   -0.025327
  19 C :   -0.005091
  20 C :   -0.149999
  21 H :   -0.010298
  22 C :    0.093784
  23 H :    0.019839
  24 H :   -0.002037
  25 C :   -0.083947
  26 H :    0.041850
  27 H :    0.030435
  28 C :   -0.038825
  29 H :    0.031530
  30 H :    0.027431
  31 H :    0.026436
  32 H :    0.069447
  33 H :    0.046141
Sum of atomic charges:    0.0000000

LOEWDIN ATOMIC CHARGES
----------------------
   0 S :    0.413534
   1 C :   -0.214438
   2 C :   -0.066311
   3 C :   -0.068969
   4 C :   -0.200427
   5 H :    0.033902
   6 C :   -0.034887
   7 H :    0.028711
   8 H :    0.021541
   9 C :   -0.035841
  10 H :    0.024904
  11 H :    0.018719
  12 C :   -0.063507
  13 H :    0.021466
  14 H :    0.023507
  15 H :    0.033024
  16 S :    0.391352
  17 C :   -0.174858
  18 C :   -0.059258
  19 C :   -0.045595
  20 C :   -0.176975
  21 H :    0.017866
  22 C :   -0.028085
  23 H :    0.027810
  24 H :    0.027669
  25 C :   -0.030267
  26 H :    0.027670
  27 H :    0.018405
  28 C :   -0.059364
  29 H :    0.023313
  30 H :    0.023150
  31 H :    0.024248
  32 H :    0.039473
  33 H :    0.018516

  Mayer bond orders larger than 0.100000
B(  0-S ,  1-C ) :   1.1421 B(  0-S ,  4-C ) :   1.1443 B(  1-C ,  2-C ) :   1.5690
B(  1-C , 32-H ) :   0.9663 B(  2-C ,  3-C ) :   1.2585 B(  2-C ,  6-C ) :   1.0581
B(  3-C ,  4-C ) :   1.5379 B(  3-C ,  5-H ) :   0.9931 B(  4-C , 20-C ) :   1.0999
B(  6-C ,  7-H ) :   0.9364 B(  6-C ,  8-H ) :   0.9412 B(  6-C ,  9-C ) :   1.0347
B(  9-C , 10-H ) :   0.9566 B(  9-C , 11-H ) :   0.9641 B(  9-C , 12-C ) :   1.0767
B( 12-C , 13-H ) :   0.9771 B( 12-C , 14-H ) :   0.9805 B( 12-C , 15-H ) :   0.9748
B( 16-S , 17-C ) :   1.1629 B( 16-S , 20-C ) :   1.1341 B( 17-C , 18-C ) :   1.5908
B( 17-C , 20-C ) :   0.1094 B( 17-C , 33-H ) :   0.9714 B( 18-C , 19-C ) :   1.2486
B( 18-C , 21-H ) :   1.0020 B( 19-C , 20-C ) :   1.5586 B( 19-C , 22-C ) :   1.0247
B( 22-C , 23-H ) :   0.9265 B( 22-C , 24-H ) :   0.9356 B( 22-C , 25-C ) :   1.0610
B( 25-C , 26-H ) :   0.9617 B( 25-C , 27-H ) :   0.9485 B( 25-C , 28-C ) :   1.0913
B( 28-C , 29-H ) :   0.9764 B( 28-C , 30-H ) :   0.9730 B( 28-C , 31-H ) :   0.9739

Dispersion correction           -0.013266556
FINAL SINGLE POINT ENERGY     -1339.862380549040

DIPOLE MOMENT
-------------
                                X             Y             Z
Electronic contribution:      4.74260      24.21144     -15.50468
Nuclear contribution   :     -5.08472     -24.75780      15.78761
                        -----------------------------------------
Total Dipole Moment    :     -0.34211      -0.54636       0.28293
                        -----------------------------------------
Magnitude (a.u.)       :      0.70399
Magnitude (Debye)      :      1.78940

Rotational constants in cm-1:     0.016586     0.008222     0.006130
Rotational constants in MHz :   497.234895   246.477924   183.782455

                             ****ORCA TERMINATED NORMALLY****
TOTAL RUN TIME: 0 days 0 hours 0 minutes 31 seconds 64 msec
