                         Program Version 4.2.1 -  RELEASE  -
|  1> ! wB97X-D3 SP def2-SVP
|  2> %pal
|  3> nprocs 16
|  4> end
|  5>
|  6> * xyz 0 1
|  7> S 	 -33.9345 	 68.4577 	 105.699
|  8> C 	 -32.7106 	 68.216 	 104.449
|  9> C 	 -32.2871 	 69.4308 	 103.908
| 10> C 	 -32.9878 	 70.5299 	 104.464
| 11> C 	 -33.9093 	 70.1467 	 105.44
| 12> H 	 -32.8546 	 71.5964 	 104.229
| 13> C 	 -31.2773 	 69.606 	 102.867
| 14> H 	 -31.3377 	 68.6562 	 102.282
| 15> H 	 -30.3014 	 69.5649 	 103.378
| 16> C 	 -31.366 	 70.7944 	 101.944
| 17> H 	 -32.3804 	 70.8236 	 101.557
| 18> H 	 -31.04 	 71.674 	 102.44
| 19> C 	 -30.3803 	 70.5986 	 100.875
| 20> H 	 -30.2768 	 71.5831 	 100.391
| 21> H 	 -29.4407 	 70.3754 	 101.289
| 22> H 	 -30.777 	 69.9228 	 100.124
| 23> S 	 -34.6749 	 70.6058 	 108.029
| 24> C 	 -35.6895 	 72.0436 	 108.426
| 25> C 	 -35.8963 	 72.7958 	 107.286
| 26> C 	 -35.3103 	 72.2337 	 106.103
| 27> C 	 -34.5718 	 71.062 	 106.373
| 28> H 	 -36.4651 	 73.6424 	 107.348
| 29> C 	 -35.5852 	 72.7901 	 104.728
| 30> H 	 -34.6999 	 72.8452 	 104.187
| 31> H 	 -35.9262 	 73.8361 	 104.89
| 32> C 	 -36.7003 	 72.0986 	 103.903
| 33> H 	 -37.6319 	 72.4876 	 104.262
| 34> H 	 -36.8071 	 71.043 	 104.149
| 35> C 	 -36.6268 	 72.2371 	 102.41
| 36> H 	 -36.3637 	 71.2572 	 101.927
| 37> H 	 -36.0254 	 73.1163 	 102.084
| 38> H 	 -37.6702 	 72.4161 	 102.17
| 39> H 	 -32.074 	 67.3826 	 104.371
| 40> H 	 -36.0894 	 72.1239 	 109.395
| 41> *
| 42>
| 43>                          ****END OF INPUT****

CARTESIAN COORDINATES (ANGSTROEM)
---------------------------------
  S    -33.934500   68.457700  105.699000
  C    -32.710600   68.216000  104.449000
  C    -32.287100   69.430800  103.908000
  C    -32.987800   70.529900  104.464000
  C    -33.909300   70.146700  105.440000
  H    -32.854600   71.596400  104.229000
  C    -31.277300   69.606000  102.867000
  H    -31.337700   68.656200  102.282000
  H    -30.301400   69.564900  103.378000
  C    -31.366000   70.794400  101.944000
  H    -32.380400   70.823600  101.557000
  H    -31.040000   71.674000  102.440000
  C    -30.380300   70.598600  100.875000
  H    -30.276800   71.583100  100.391000
  H    -29.440700   70.375400  101.289000
  H    -30.777000   69.922800  100.124000
  S    -34.674900   70.605800  108.029000
  C    -35.689500   72.043600  108.426000
  C    -35.896300   72.795800  107.286000
  C    -35.310300   72.233700  106.103000
  C    -34.571800   71.062000  106.373000
  H    -36.465100   73.642400  107.348000
  C    -35.585200   72.790100  104.728000
  H    -34.699900   72.845200  104.187000
  H    -35.926200   73.836100  104.890000
  C    -36.700300   72.098600  103.903000
  H    -37.631900   72.487600  104.262000
  H    -36.807100   71.043000  104.149000
  C    -36.626800   72.237100  102.410000
  H    -36.363700   71.257200  101.927000
  H    -36.025400   73.116300  102.084000
  H    -37.670200   72.416100  102.170000
  H    -32.074000   67.382600  104.371000
  H    -36.089400   72.123900  109.395000

 Total Charge           Charge          ....    0
 Multiplicity           Mult            ....    1
 Number of Electrons    NEL             ....  134
 Basis Dimension        Dim             ....  322

ORBITAL ENERGIES
----------------

  NO   OCC          E(Eh)            E(eV)
   0   2.0000     -88.968442     -2420.9544
   1   2.0000     -88.963564     -2420.8217
   2   2.0000     -10.326483      -280.9979
   3   2.0000     -10.325193      -280.9628
   4   2.0000     -10.317226      -280.7460
   5   2.0000     -10.305420      -280.4247
   6   2.0000     -10.301923      -280.3296
   7   2.0000     -10.296276      -280.1759
   8   2.0000     -10.291559      -280.0476
   9   2.0000     -10.290952      -280.0310
  10   2.0000     -10.287192      -279.9287
  11   2.0000     -10.285994      -279.8961
  12   2.0000     -10.278773      -279.6996
  13   2.0000     -10.277892      -279.6757
  14   2.0000     -10.275889      -279.6212
  15   2.0000     -10.270994      -279.4880
  16   2.0000      -8.083261      -219.9567
  17   2.0000      -8.078098      -219.8162
  18   2.0000      -6.041643      -164.4015
  19   2.0000      -6.037729      -164.2950
  20   2.0000      -6.036533      -164.2624
  21   2.0000      -6.034186      -164.1986
  22   2.0000      -6.032589      -164.1551
  23   2.0000      -6.029001      -164.0574
  24   2.0000      -1.006871       -27.3984
  25   2.0000      -0.980970       -26.6936
  26   2.0000      -0.930165       -25.3111
  27   2.0000      -0.907098       -24.6834
  28   2.0000      -0.876586       -23.8531
  29   2.0000      -0.852819       -23.2064
  30   2.0000      -0.850670       -23.1479
  31   2.0000      -0.816221       -22.2105
  32   2.0000      -0.781070       -21.2540
  33   2.0000      -0.769092       -20.9281
  34   2.0000      -0.710678       -19.3385
  35   2.0000      -0.693946       -18.8832
  36   2.0000      -0.690825       -18.7983
  37   2.0000      -0.666815       -18.1450
  38   2.0000      -0.636854       -17.3297
  39   2.0000      -0.620229       -16.8773
  40   2.0000      -0.598400       -16.2833
  41   2.0000      -0.594848       -16.1866
  42   2.0000      -0.570165       -15.5150
  43   2.0000      -0.560605       -15.2548
  44   2.0000      -0.531990       -14.4762
  45   2.0000      -0.525920       -14.3110
  46   2.0000      -0.520955       -14.1759
  47   2.0000      -0.508063       -13.8251
  48   2.0000      -0.505779       -13.7630
  49   2.0000      -0.501292       -13.6408
  50   2.0000      -0.493476       -13.4282
  51   2.0000      -0.483526       -13.1574
  52   2.0000      -0.470545       -12.8042
  53   2.0000      -0.467723       -12.7274
  54   2.0000      -0.458594       -12.4790
  55   2.0000      -0.448424       -12.2022
  56   2.0000      -0.440093       -11.9755
  57   2.0000      -0.438849       -11.9417
  58   2.0000      -0.431651       -11.7458
  59   2.0000      -0.427293       -11.6272
  60   2.0000      -0.424703       -11.5568
  61   2.0000      -0.417871       -11.3709
  62   2.0000      -0.402075       -10.9410
  63   2.0000      -0.347352        -9.4519
  64   2.0000      -0.331079        -9.0091
  65   2.0000      -0.327385        -8.9086
  66   2.0000      -0.283030        -7.7016
  67   0.0000       0.021979         0.5981
  68   0.0000       0.076047         2.0693
  69   0.0000       0.108757         2.9594
  70   0.0000       0.122359         3.3295
  71   0.0000       0.133356         3.6288

MULLIKEN ATOMIC CHARGES
-----------------------
   0 S :    0.112141
   1 C :   -0.104781
   2 C :   -0.094715
   3 C :   -0.010665
   4 C :   -0.122404
   5 H :    0.027024
   6 C :    0.018828
   7 H :    0.026269
   8 H :    0.039423
   9 C :   -0.056988
  10 H :    0.034742
  11 H :    0.023735
  12 C :    0.000954
  13 H :    0.021300
  14 H :    0.017091
  15 H :    0.034605
  16 S :    0.086991
  17 C :   -0.097831
  18 C :    0.025144
  19 C :   -0.076478
  20 C :   -0.139057
  21 H :   -0.014273
  22 C :    0.107152
  23 H :   -0.003683
  24 H :    0.018861
  25 C :   -0.062850
  26 H :    0.010086
  27 H :    0.030039
  28 C :   -0.052377
  29 H :    0.051763
  30 H :    0.041159
  31 H :    0.025643
  32 H :    0.035145
  33 H :    0.048005
Sum of atomic charges:    0.0000000

LOEWDIN ATOMIC CHARGES
----------------------
   0 S :    0.423342
   1 C :   -0.208837
   2 C :   -0.056888
   3 C :   -0.070418
   4 C :   -0.201801
   5 H :    0.033710
   6 C :   -0.043436
   7 H :    0.036749
   8 H :    0.037772
   9 C :   -0.039393
  10 H :    0.029028
  11 H :    0.021913
  12 C :   -0.051783
  13 H :    0.028116
  14 H :    0.018722
  15 H :    0.026642
  16 S :    0.393804
  17 C :   -0.161625
  18 C :   -0.053393
  19 C :   -0.058542
  20 C :   -0.203808
  21 H :    0.017635
  22 C :   -0.029044
  23 H :    0.014371
  24 H :    0.034620
  25 C :   -0.042936
  26 H :    0.017647
  27 H :    0.027385
  28 C :   -0.071383
  29 H :    0.035781
  30 H :    0.028736
  31 H :    0.029672
  32 H :    0.019020
  33 H :    0.018620

  Mayer bond orders larger than 0.100000
B(  0-S ,  1-C ) :   1.1248 B(  0-S ,  4-C ) :   1.1761 B(  1-C ,  2-C ) :   1.5992
B(  1-C , 32-H ) :   0.9679 B(  2-C ,  3-C ) :   1.2755 B(  2-C ,  6-C ) :   1.0176
B(  3-C ,  4-C ) :   1.5249 B(  3-C ,  5-H ) :   0.9846 B(  4-C , 20-C ) :   1.0510
B(  6-C ,  7-H ) :   0.9466 B(  6-C ,  8-H ) :   0.9109 B(  6-C ,  9-C ) :   1.0974
B(  9-C , 10-H ) :   0.9547 B(  9-C , 11-H ) :   0.9348 B(  9-C , 12-C ) :   1.1056
B( 12-C , 13-H ) :   0.9709 B( 12-C , 14-H ) :   0.9675 B( 12-C , 15-H ) :   0.9725
B( 16-S , 17-C ) :   1.1449 B( 16-S , 20-C ) :   1.1535 B( 17-C , 18-C ) :   1.5806
B( 17-C , 33-H ) :   0.9795 B( 18-C , 19-C ) :   1.2586 B( 18-C , 21-H ) :   1.0062
B( 19-C , 20-C ) :   1.5586 B( 19-C , 22-C ) :   1.0564 B( 22-C , 23-H ) :   0.9318
B( 22-C , 24-H ) :   0.9261 B( 22-C , 25-C ) :   1.0490 B( 25-C , 26-H ) :   0.9632
B( 25-C , 27-H ) :   0.9604 B( 25-C , 28-C ) :   1.0677 B( 28-C , 29-H ) :   0.9774
B( 28-C , 30-H ) :   0.9764 B( 28-C , 31-H ) :   0.9762

Dispersion correction           -0.014099844
FINAL SINGLE POINT ENERGY     -1339.864318748954

DIPOLE MOMENT
-------------
                                X             Y             Z
Electronic contribution:     -4.00650     -11.03445      27.89281
Nuclear contribution   :      4.10564      11.46558     -28.33321
                        -----------------------------------------
Total Dipole Moment    :      0.09914       0.43113      -0.44040
                        -----------------------------------------
Magnitude (a.u.)       :      0.62422
Magnitude (Debye)      :      1.58665

Rotational constants in cm-1:     0.018346     0.009084     0.007067
Rotational constants in MHz :   550.000248   272.339922   211.859014

                             ****ORCA TERMINATED NORMALLY****
TOTAL RUN TIME: 0 days 0 hours 0 minutes 28 seconds 980 msec
