                         Program Version 4.2.1 -  RELEASE  -
|  1> ! wB97X-D3 SP def2-SVP
|  2> %pal
|  3> nprocs 16
|  4> end
|  5>
|  6> * xyz 0 1
|  7> S 	 -14.4321 	 -9.17218 	 91.58
|  8> C 	 -16.1599 	 -8.86401 	 91.4743
|  9> C 	 -16.7667 	 -9.50407 	 90.4423
| 10> C 	 -15.8471 	 -10.2028 	 89.6482
| 11> C 	 -14.5412 	 -10.0293 	 90.0322
| 12> H 	 -16.1027 	 -10.7731 	 88.6595
| 13> C 	 -18.2111 	 -9.1615 	 89.9992
| 14> H 	 -18.7963 	 -8.92581 	 90.9308
| 15> H 	 -18.6526 	 -10.014 	 89.5299
| 16> C 	 -18.1809 	 -7.83885 	 89.1409
| 17> H 	 -17.7664 	 -7.10559 	 89.8095
| 18> H 	 -17.4484 	 -7.94862 	 88.3065
| 19> C 	 -19.5818 	 -7.37858 	 88.7309
| 20> H 	 -20.1399 	 -7.97258 	 88.0414
| 21> H 	 -20.2023 	 -7.20372 	 89.5879
| 22> H 	 -19.6061 	 -6.35324 	 88.3477
| 23> S 	 -11.9961 	 -10.8154 	 90.2952
| 24> C 	 -11.019 	 -11.1151 	 88.8742
| 25> C 	 -11.7276 	 -11.0552 	 87.6893
| 26> C 	 -13.1519 	 -10.8629 	 88.0277
| 27> C 	 -13.42 	 -10.5199 	 89.2982
| 28> H 	 -11.2818 	 -11.305 	 86.826
| 29> C 	 -14.1343 	 -10.677 	 86.7966
| 30> H 	 -13.6583 	 -10.3169 	 85.8366
| 31> H 	 -14.5748 	 -9.72097 	 87.0709
| 32> C 	 -15.1744 	 -11.8156 	 86.4847
| 33> H 	 -15.8844 	 -11.4186 	 85.8374
| 34> H 	 -15.6129 	 -12.2138 	 87.349
| 35> C 	 -14.5516 	 -12.9636 	 85.6122
| 36> H 	 -15.3041 	 -13.6489 	 85.4107
| 37> H 	 -13.7686 	 -13.5882 	 86.0918
| 38> H 	 -14.11 	 -12.6684 	 84.682
| 39> H 	 -16.7035 	 -8.14598 	 92.1039
| 40> H 	 -9.94007 	 -11.2876 	 89.0671
| 41> *
| 42>
| 43>                          ****END OF INPUT****

CARTESIAN COORDINATES (ANGSTROEM)
---------------------------------
  S    -14.432100   -9.172180   91.580000
  C    -16.159900   -8.864010   91.474300
  C    -16.766700   -9.504070   90.442300
  C    -15.847100  -10.202800   89.648200
  C    -14.541200  -10.029300   90.032200
  H    -16.102700  -10.773100   88.659500
  C    -18.211100   -9.161500   89.999200
  H    -18.796300   -8.925810   90.930800
  H    -18.652600  -10.014000   89.529900
  C    -18.180900   -7.838850   89.140900
  H    -17.766400   -7.105590   89.809500
  H    -17.448400   -7.948620   88.306500
  C    -19.581800   -7.378580   88.730900
  H    -20.139900   -7.972580   88.041400
  H    -20.202300   -7.203720   89.587900
  H    -19.606100   -6.353240   88.347700
  S    -11.996100  -10.815400   90.295200
  C    -11.019000  -11.115100   88.874200
  C    -11.727600  -11.055200   87.689300
  C    -13.151900  -10.862900   88.027700
  C    -13.420000  -10.519900   89.298200
  H    -11.281800  -11.305000   86.826000
  C    -14.134300  -10.677000   86.796600
  H    -13.658300  -10.316900   85.836600
  H    -14.574800   -9.720970   87.070900
  C    -15.174400  -11.815600   86.484700
  H    -15.884400  -11.418600   85.837400
  H    -15.612900  -12.213800   87.349000
  C    -14.551600  -12.963600   85.612200
  H    -15.304100  -13.648900   85.410700
  H    -13.768600  -13.588200   86.091800
  H    -14.110000  -12.668400   84.682000
  H    -16.703500   -8.145980   92.103900
  H     -9.940070  -11.287600   89.067100

 Total Charge           Charge          ....    0
 Multiplicity           Mult            ....    1
 Number of Electrons    NEL             ....  134
 Basis Dimension        Dim             ....  322

ORBITAL ENERGIES
----------------

  NO   OCC          E(Eh)            E(eV)
   0   2.0000     -88.970142     -2421.0007
   1   2.0000     -88.957958     -2420.6691
   2   2.0000     -10.328956      -281.0652
   3   2.0000     -10.322872      -280.8996
   4   2.0000     -10.319980      -280.8209
   5   2.0000     -10.312093      -280.6063
   6   2.0000     -10.308245      -280.5016
   7   2.0000     -10.299277      -280.2576
   8   2.0000     -10.298457      -280.2353
   9   2.0000     -10.297035      -280.1966
  10   2.0000     -10.296396      -280.1792
  11   2.0000     -10.293192      -280.0920
  12   2.0000     -10.292198      -280.0649
  13   2.0000     -10.288067      -279.9525
  14   2.0000     -10.275846      -279.6200
  15   2.0000     -10.273192      -279.5478
  16   2.0000      -8.084242      -219.9834
  17   2.0000      -8.073535      -219.6920
  18   2.0000      -6.042857      -164.4345
  19   2.0000      -6.039062      -164.3312
  20   2.0000      -6.034687      -164.2122
  21   2.0000      -6.032132      -164.1427
  22   2.0000      -6.028064      -164.0320
  23   2.0000      -6.024030      -163.9222
  24   2.0000      -1.010593       -27.4996
  25   2.0000      -0.984438       -26.7879
  26   2.0000      -0.907812       -24.7028
  27   2.0000      -0.898994       -24.4629
  28   2.0000      -0.872948       -23.7541
  29   2.0000      -0.853390       -23.2219
  30   2.0000      -0.842954       -22.9379
  31   2.0000      -0.815362       -22.1871
  32   2.0000      -0.782949       -21.3051
  33   2.0000      -0.774006       -21.0618
  34   2.0000      -0.713002       -19.4018
  35   2.0000      -0.705159       -19.1884
  36   2.0000      -0.697701       -18.9854
  37   2.0000      -0.672916       -18.3110
  38   2.0000      -0.631578       -17.1861
  39   2.0000      -0.615815       -16.7572
  40   2.0000      -0.593622       -16.1533
  41   2.0000      -0.570116       -15.5136
  42   2.0000      -0.560895       -15.2627
  43   2.0000      -0.550925       -14.9914
  44   2.0000      -0.544678       -14.8215
  45   2.0000      -0.525429       -14.2977
  46   2.0000      -0.516924       -14.0662
  47   2.0000      -0.511235       -13.9114
  48   2.0000      -0.499873       -13.6022
  49   2.0000      -0.497976       -13.5506
  50   2.0000      -0.489510       -13.3203
  51   2.0000      -0.478832       -13.0297
  52   2.0000      -0.470310       -12.7978
  53   2.0000      -0.463353       -12.6085
  54   2.0000      -0.462221       -12.5777
  55   2.0000      -0.449936       -12.2434
  56   2.0000      -0.445258       -12.1161
  57   2.0000      -0.439056       -11.9473
  58   2.0000      -0.432857       -11.7786
  59   2.0000      -0.429081       -11.6759
  60   2.0000      -0.422380       -11.4935
  61   2.0000      -0.418499       -11.3879
  62   2.0000      -0.403254       -10.9731
  63   2.0000      -0.360701        -9.8152
  64   2.0000      -0.336494        -9.1565
  65   2.0000      -0.328203        -8.9309
  66   2.0000      -0.284181        -7.7329
  67   0.0000       0.022007         0.5988
  68   0.0000       0.077226         2.1014
  69   0.0000       0.097296         2.6476
  70   0.0000       0.121280         3.3002
  71   0.0000       0.132004         3.5920

MULLIKEN ATOMIC CHARGES
-----------------------
   0 S :    0.119577
   1 C :   -0.132077
   2 C :   -0.060949
   3 C :   -0.049049
   4 C :   -0.101161
   5 H :    0.039775
   6 C :    0.040443
   7 H :    0.029162
   8 H :    0.026095
   9 C :   -0.058193
  10 H :    0.017981
  11 H :    0.039928
  12 C :   -0.017745
  13 H :    0.031623
  14 H :    0.013314
  15 H :    0.025550
  16 S :    0.066004
  17 C :   -0.104569
  18 C :    0.038814
  19 C :   -0.064084
  20 C :   -0.098304
  21 H :   -0.020486
  22 C :   -0.033223
  23 H :    0.028445
  24 H :    0.032250
  25 C :   -0.025613
  26 H :    0.021702
  27 H :    0.040764
  28 C :   -0.038339
  29 H :    0.015127
  30 H :    0.032665
  31 H :    0.020932
  32 H :    0.050546
  33 H :    0.073095
Sum of atomic charges:    0.0000000

LOEWDIN ATOMIC CHARGES
----------------------
   0 S :    0.389462
   1 C :   -0.192879
   2 C :   -0.069737
   3 C :   -0.074079
   4 C :   -0.185104
   5 H :    0.051969
   6 C :   -0.023568
   7 H :    0.033036
   8 H :    0.022139
   9 C :   -0.034347
  10 H :    0.023746
  11 H :    0.027954
  12 C :   -0.071167
  13 H :    0.021114
  14 H :    0.024166
  15 H :    0.030579
  16 S :    0.378302
  17 C :   -0.172091
  18 C :   -0.053689
  19 C :   -0.054765
  20 C :   -0.183268
  21 H :    0.012996
  22 C :   -0.041354
  23 H :    0.035249
  24 H :    0.028350
  25 C :   -0.026637
  26 H :    0.021046
  27 H :    0.016766
  28 C :   -0.061455
  29 H :    0.016609
  30 H :    0.028313
  31 H :    0.020271
  32 H :    0.030662
  33 H :    0.031410

  Mayer bond orders larger than 0.100000
B(  0-S ,  1-C ) :   1.1199 B(  0-S ,  4-C ) :   1.1240 B(  1-C ,  2-C ) :   1.6340
B(  1-C , 32-H ) :   0.9594 B(  2-C ,  3-C ) :   1.2406 B(  2-C ,  6-C ) :   1.0331
B(  3-C ,  4-C ) :   1.5821 B(  3-C ,  5-H ) :   0.9698 B(  4-C , 20-C ) :   1.0959
B(  6-C ,  7-H ) :   0.9422 B(  6-C ,  8-H ) :   0.9447 B(  6-C ,  9-C ) :   1.0489
B(  9-C , 10-H ) :   0.9529 B(  9-C , 11-H ) :   0.9602 B(  9-C , 12-C ) :   1.0813
B( 12-C , 13-H ) :   0.9783 B( 12-C , 14-H ) :   0.9681 B( 12-C , 15-H ) :   0.9698
B( 16-S , 17-C ) :   1.1512 B( 16-S , 20-C ) :   1.0978 B( 17-C , 18-C ) :   1.6257
B( 17-C , 33-H ) :   0.9631 B( 18-C , 19-C ) :   1.1802 B( 18-C , 21-H ) :   1.0140
B( 19-C , 20-C ) :   1.6613 B( 19-C , 22-C ) :   1.0062 B( 22-C , 23-H ) :   0.9516
B( 22-C , 24-H ) :   0.9487 B( 22-C , 25-C ) :   1.0598 B( 25-C , 26-H ) :   0.9547
B( 25-C , 27-H ) :   0.9497 B( 25-C , 28-C ) :   1.0770 B( 28-C , 29-H ) :   0.9732
B( 28-C , 30-H ) :   0.9771 B( 28-C , 31-H ) :   0.9762

Dispersion correction           -0.014294123
FINAL SINGLE POINT ENERGY     -1339.850400429150

DIPOLE MOMENT
-------------
                                X             Y             Z
Electronic contribution:     22.36654      -0.90866      20.92151
Nuclear contribution   :    -22.82713       1.04607     -21.54832
                        -----------------------------------------
Total Dipole Moment    :     -0.46059       0.13741      -0.62681
                        -----------------------------------------
Magnitude (a.u.)       :      0.78988
Magnitude (Debye)      :      2.00772

Rotational constants in cm-1:     0.017855     0.009257     0.006523
Rotational constants in MHz :   535.290822   277.523338   195.563717

                             ****ORCA TERMINATED NORMALLY****
TOTAL RUN TIME: 0 days 0 hours 0 minutes 32 seconds 159 msec
