                         Program Version 4.2.1 -  RELEASE  -
|  1> ! wB97X-D3 SP def2-SVP
|  2> %pal
|  3> nprocs 16
|  4> end
|  5>
|  6> * xyz 0 1
|  7> S 	 -98.0805 	 40.4387 	 122.622
|  8> C 	 -97.9015 	 38.7839 	 123.135
|  9> C 	 -98.9074 	 38.3565 	 124.034
| 10> C 	 -99.8186 	 39.4913 	 124.33
| 11> C 	 -99.5606 	 40.6237 	 123.525
| 12> H 	 -100.595 	 39.4925 	 125.154
| 13> C 	 -98.9387 	 37.1683 	 124.95
| 14> H 	 -98.8764 	 36.2641 	 124.351
| 15> H 	 -99.8868 	 37.1063 	 125.447
| 16> C 	 -97.8307 	 37.2688 	 126.077
| 17> H 	 -96.7966 	 37.4714 	 125.675
| 18> H 	 -98.0203 	 38.1084 	 126.635
| 19> C 	 -97.7756 	 36.0962 	 127.058
| 20> H 	 -98.7039 	 35.9674 	 127.7
| 21> H 	 -97.512 	 35.1711 	 126.505
| 22> H 	 -96.8941 	 36.2964 	 127.715
| 23> S 	 -99.3677 	 43.3527 	 123.604
| 24> C 	 -100.808 	 44.3266 	 123.473
| 25> C 	 -101.911 	 43.5309 	 123.409
| 26> C 	 -101.721 	 42.1075 	 123.355
| 27> C 	 -100.324 	 41.8558 	 123.481
| 28> H 	 -102.901 	 43.9378 	 123.227
| 29> C 	 -102.89 	 41.1719 	 123.322
| 30> H 	 -103.758 	 41.866 	 123.223
| 31> H 	 -103.013 	 40.7339 	 124.371
| 32> C 	 -102.858 	 40.1875 	 122.127
| 33> H 	 -102.071 	 39.3582 	 122.403
| 34> H 	 -102.638 	 40.7521 	 121.205
| 35> C 	 -104.129 	 39.2748 	 122.136
| 36> H 	 -104.295 	 38.8415 	 123.083
| 37> H 	 -103.971 	 38.4386 	 121.442
| 38> H 	 -105.009 	 39.7058 	 121.803
| 39> H 	 -97.0974 	 38.1711 	 122.863
| 40> H 	 -100.82 	 45.3486 	 123.817
| 41> *
| 42>
| 43>                          ****END OF INPUT****

CARTESIAN COORDINATES (ANGSTROEM)
---------------------------------
  S    -98.080500   40.438700  122.622000
  C    -97.901500   38.783900  123.135000
  C    -98.907400   38.356500  124.034000
  C    -99.818600   39.491300  124.330000
  C    -99.560600   40.623700  123.525000
  H    -100.595000   39.492500  125.154000
  C    -98.938700   37.168300  124.950000
  H    -98.876400   36.264100  124.351000
  H    -99.886800   37.106300  125.447000
  C    -97.830700   37.268800  126.077000
  H    -96.796600   37.471400  125.675000
  H    -98.020300   38.108400  126.635000
  C    -97.775600   36.096200  127.058000
  H    -98.703900   35.967400  127.700000
  H    -97.512000   35.171100  126.505000
  H    -96.894100   36.296400  127.715000
  S    -99.367700   43.352700  123.604000
  C    -100.808000   44.326600  123.473000
  C    -101.911000   43.530900  123.409000
  C    -101.721000   42.107500  123.355000
  C    -100.324000   41.855800  123.481000
  H    -102.901000   43.937800  123.227000
  C    -102.890000   41.171900  123.322000
  H    -103.758000   41.866000  123.223000
  H    -103.013000   40.733900  124.371000
  C    -102.858000   40.187500  122.127000
  H    -102.071000   39.358200  122.403000
  H    -102.638000   40.752100  121.205000
  C    -104.129000   39.274800  122.136000
  H    -104.295000   38.841500  123.083000
  H    -103.971000   38.438600  121.442000
  H    -105.009000   39.705800  121.803000
  H    -97.097400   38.171100  122.863000
  H    -100.820000   45.348600  123.817000

 Total Charge           Charge          ....    0
 Multiplicity           Mult            ....    1
 Number of Electrons    NEL             ....  134
 Basis Dimension        Dim             ....  322

ORBITAL ENERGIES
----------------

  NO   OCC          E(Eh)            E(eV)
   0   2.0000     -88.969128     -2420.9730
   1   2.0000     -88.964339     -2420.8427
   2   2.0000     -10.331446      -281.1329
   3   2.0000     -10.329972      -281.0928
   4   2.0000     -10.313627      -280.6481
   5   2.0000     -10.312848      -280.6269
   6   2.0000     -10.307826      -280.4902
   7   2.0000     -10.305887      -280.4374
   8   2.0000     -10.303676      -280.3773
   9   2.0000     -10.300939      -280.3028
  10   2.0000     -10.297736      -280.2156
  11   2.0000     -10.293764      -280.1076
  12   2.0000     -10.291570      -280.0479
  13   2.0000     -10.287760      -279.9442
  14   2.0000     -10.286411      -279.9075
  15   2.0000     -10.269477      -279.4467
  16   2.0000      -8.083768      -219.9705
  17   2.0000      -8.078958      -219.8396
  18   2.0000      -6.042304      -164.4195
  19   2.0000      -6.038282      -164.3100
  20   2.0000      -6.037463      -164.2877
  21   2.0000      -6.034520      -164.2076
  22   2.0000      -6.033464      -164.1789
  23   2.0000      -6.029752      -164.0779
  24   2.0000      -1.000819       -27.2337
  25   2.0000      -0.977402       -26.5965
  26   2.0000      -0.908426       -24.7195
  27   2.0000      -0.904957       -24.6251
  28   2.0000      -0.865786       -23.5592
  29   2.0000      -0.850424       -23.1412
  30   2.0000      -0.845202       -22.9991
  31   2.0000      -0.807716       -21.9791
  32   2.0000      -0.780420       -21.2363
  33   2.0000      -0.769623       -20.9425
  34   2.0000      -0.707304       -19.2467
  35   2.0000      -0.700985       -19.0748
  36   2.0000      -0.686538       -18.6816
  37   2.0000      -0.661197       -17.9921
  38   2.0000      -0.638430       -17.3726
  39   2.0000      -0.611300       -16.6343
  40   2.0000      -0.591776       -16.1030
  41   2.0000      -0.565523       -15.3887
  42   2.0000      -0.562348       -15.3023
  43   2.0000      -0.551012       -14.9938
  44   2.0000      -0.523563       -14.2469
  45   2.0000      -0.520151       -14.1540
  46   2.0000      -0.518532       -14.1100
  47   2.0000      -0.511804       -13.9269
  48   2.0000      -0.502422       -13.6716
  49   2.0000      -0.498510       -13.5651
  50   2.0000      -0.493676       -13.4336
  51   2.0000      -0.482625       -13.1329
  52   2.0000      -0.470506       -12.8031
  53   2.0000      -0.456538       -12.4230
  54   2.0000      -0.455522       -12.3954
  55   2.0000      -0.447463       -12.1761
  56   2.0000      -0.439912       -11.9706
  57   2.0000      -0.438677       -11.9370
  58   2.0000      -0.433442       -11.7946
  59   2.0000      -0.428571       -11.6620
  60   2.0000      -0.423170       -11.5150
  61   2.0000      -0.417361       -11.3570
  62   2.0000      -0.405957       -11.0467
  63   2.0000      -0.346694        -9.4340
  64   2.0000      -0.330249        -8.9865
  65   2.0000      -0.325973        -8.8702
  66   2.0000      -0.284496        -7.7415
  67   0.0000       0.023519         0.6400
  68   0.0000       0.067266         1.8304
  69   0.0000       0.104582         2.8458
  70   0.0000       0.118030         3.2117
  71   0.0000       0.127016         3.4563

MULLIKEN ATOMIC CHARGES
-----------------------
   0 S :    0.123442
   1 C :   -0.102928
   2 C :   -0.096414
   3 C :   -0.011343
   4 C :   -0.148239
   5 H :    0.040686
   6 C :    0.084128
   7 H :    0.027066
   8 H :    0.011612
   9 C :   -0.065143
  10 H :    0.031771
  11 H :    0.008054
  12 C :   -0.072500
  13 H :    0.048981
  14 H :    0.036034
  15 H :    0.040186
  16 S :    0.090137
  17 C :   -0.078694
  18 C :   -0.045931
  19 C :   -0.038320
  20 C :   -0.168656
  21 H :    0.019552
  22 C :    0.045485
  23 H :    0.014011
  24 H :    0.052640
  25 C :   -0.119621
  26 H :    0.064137
  27 H :    0.052607
  28 C :    0.000917
  29 H :    0.016712
  30 H :    0.028046
  31 H :    0.012438
  32 H :    0.030875
  33 H :    0.068272
Sum of atomic charges:    0.0000000

LOEWDIN ATOMIC CHARGES
----------------------
   0 S :    0.418605
   1 C :   -0.196437
   2 C :   -0.057230
   3 C :   -0.071829
   4 C :   -0.204798
   5 H :    0.039154
   6 C :   -0.031022
   7 H :    0.029627
   8 H :    0.026845
   9 C :   -0.036288
  10 H :    0.029973
  11 H :    0.013078
  12 C :   -0.074962
  13 H :    0.031269
  14 H :    0.025588
  15 H :    0.033061
  16 S :    0.393835
  17 C :   -0.195086
  18 C :   -0.071485
  19 C :   -0.056595
  20 C :   -0.186078
  21 H :    0.028572
  22 C :   -0.043071
  23 H :    0.030396
  24 H :    0.041818
  25 C :   -0.041775
  26 H :    0.044845
  27 H :    0.032291
  28 C :   -0.060233
  29 H :    0.020222
  30 H :    0.029249
  31 H :    0.010263
  32 H :    0.015678
  33 H :    0.032519

  Mayer bond orders larger than 0.100000
B(  0-S ,  1-C ) :   1.1428 B(  0-S ,  4-C ) :   1.1564 B(  1-C ,  2-C ) :   1.5947
B(  1-C , 32-H ) :   0.9757 B(  2-C ,  3-C ) :   1.2352 B(  2-C ,  6-C ) :   1.0500
B(  3-C ,  4-C ) :   1.5588 B(  3-C ,  5-H ) :   0.9792 B(  4-C , 20-C ) :   1.0631
B(  6-C ,  7-H ) :   0.9353 B(  6-C ,  8-H ) :   0.9396 B(  6-C ,  9-C ) :   1.0474
B(  9-C , 10-H ) :   0.9583 B(  9-C , 11-H ) :   0.9534 B(  9-C , 12-C ) :   1.0850
B( 12-C , 13-H ) :   0.9736 B( 12-C , 14-H ) :   0.9757 B( 12-C , 15-H ) :   0.9720
B( 16-S , 17-C ) :   1.1398 B( 16-S , 20-C ) :   1.1582 B( 17-C , 18-C ) :   1.6163
B( 17-C , 20-C ) :   0.1003 B( 17-C , 33-H ) :   0.9611 B( 18-C , 19-C ) :   1.2676
B( 18-C , 21-H ) :   0.9749 B( 19-C , 20-C ) :   1.5503 B( 19-C , 22-C ) :   1.0375
B( 22-C , 23-H ) :   0.9318 B( 22-C , 24-H ) :   0.9304 B( 22-C , 25-C ) :   1.0513
B( 25-C , 26-H ) :   0.9516 B( 25-C , 27-H ) :   0.9597 B( 25-C , 28-C ) :   1.0701
B( 28-C , 29-H ) :   0.9720 B( 28-C , 30-H ) :   0.9764 B( 28-C , 31-H ) :   0.9755

Dispersion correction           -0.014085685
FINAL SINGLE POINT ENERGY     -1339.865005914098

DIPOLE MOMENT
-------------
                                X             Y             Z
Electronic contribution:     12.03271      22.88287      -8.77643
Nuclear contribution   :    -12.42646     -23.24558       9.17595
                        -----------------------------------------
Total Dipole Moment    :     -0.39375      -0.36271       0.39952
                        -----------------------------------------
Magnitude (a.u.)       :      0.66799
Magnitude (Debye)      :      1.69791

Rotational constants in cm-1:     0.017979     0.008234     0.006635
Rotational constants in MHz :   538.996512   246.857759   198.926554

                             ****ORCA TERMINATED NORMALLY****
TOTAL RUN TIME: 0 days 0 hours 0 minutes 33 seconds 404 msec
