                         Program Version 4.2.1 -  RELEASE  -
|  1> ! wB97X-D3 SP def2-SVP
|  2> %pal
|  3> nprocs 16
|  4> end
|  5>
|  6> * xyz 0 1
|  7> S 	 44.6083 	 10.3889 	 82.5477
|  8> C 	 43.2772 	 10.1176 	 81.4299
|  9> C 	 42.4102 	 11.1865 	 81.445
| 10> C 	 42.796 	 12.1283 	 82.4066
| 11> C 	 43.923 	 11.8604 	 83.1721
| 12> H 	 42.506 	 13.1752 	 82.4129
| 13> C 	 41.1111 	 11.2354 	 80.5915
| 14> H 	 41.3479 	 11.0649 	 79.5399
| 15> H 	 40.63 	 12.2007 	 80.6395
| 16> C 	 40.0452 	 10.2772 	 81.1356
| 17> H 	 40.3524 	 9.24285 	 81.0941
| 18> H 	 40.0326 	 10.245 	 82.1703
| 19> C 	 38.5857 	 10.4798 	 80.5633
| 20> H 	 38.5684 	 10.3131 	 79.4937
| 21> H 	 38.0599 	 9.61786 	 81.0147
| 22> H 	 38.0819 	 11.4752 	 80.6999
| 23> S 	 44.9726 	 12.1299 	 85.7308
| 24> C 	 46.1784 	 13.3464 	 85.9448
| 25> C 	 46.2458 	 14.2466 	 84.8808
| 26> C 	 45.4557 	 13.8936 	 83.7464
| 27> C 	 44.7778 	 12.6837 	 84.0304
| 28> H 	 46.858 	 15.1841 	 85.0072
| 29> C 	 45.434 	 14.7404 	 82.4271
| 30> H 	 44.6066 	 15.462 	 82.5653
| 31> H 	 44.9575 	 14.0592 	 81.6641
| 32> C 	 46.6622 	 15.3962 	 82.0816
| 33> H 	 47.1262 	 15.9145 	 82.9125
| 34> H 	 46.4116 	 16.1967 	 81.3748
| 35> C 	 47.6666 	 14.4576 	 81.4375
| 36> H 	 47.8399 	 13.5914 	 82.0668
| 37> H 	 48.6247 	 14.9709 	 81.2897
| 38> H 	 47.3556 	 14.2185 	 80.3833
| 39> H 	 43.1339 	 9.21964 	 80.7958
| 40> H 	 46.4653 	 13.6144 	 86.9371
| 41> *
| 42>
| 43>                          ****END OF INPUT****

CARTESIAN COORDINATES (ANGSTROEM)
---------------------------------
  S     44.608300   10.388900   82.547700
  C     43.277200   10.117600   81.429900
  C     42.410200   11.186500   81.445000
  C     42.796000   12.128300   82.406600
  C     43.923000   11.860400   83.172100
  H     42.506000   13.175200   82.412900
  C     41.111100   11.235400   80.591500
  H     41.347900   11.064900   79.539900
  H     40.630000   12.200700   80.639500
  C     40.045200   10.277200   81.135600
  H     40.352400    9.242850   81.094100
  H     40.032600   10.245000   82.170300
  C     38.585700   10.479800   80.563300
  H     38.568400   10.313100   79.493700
  H     38.059900    9.617860   81.014700
  H     38.081900   11.475200   80.699900
  S     44.972600   12.129900   85.730800
  C     46.178400   13.346400   85.944800
  C     46.245800   14.246600   84.880800
  C     45.455700   13.893600   83.746400
  C     44.777800   12.683700   84.030400
  H     46.858000   15.184100   85.007200
  C     45.434000   14.740400   82.427100
  H     44.606600   15.462000   82.565300
  H     44.957500   14.059200   81.664100
  C     46.662200   15.396200   82.081600
  H     47.126200   15.914500   82.912500
  H     46.411600   16.196700   81.374800
  C     47.666600   14.457600   81.437500
  H     47.839900   13.591400   82.066800
  H     48.624700   14.970900   81.289700
  H     47.355600   14.218500   80.383300
  H     43.133900    9.219640   80.795800
  H     46.465300   13.614400   86.937100

 Total Charge           Charge          ....    0
 Multiplicity           Mult            ....    1
 Number of Electrons    NEL             ....  134
 Basis Dimension        Dim             ....  322

ORBITAL ENERGIES
----------------

  NO   OCC          E(Eh)            E(eV)
   0   2.0000     -88.967867     -2420.9387
   1   2.0000     -88.961320     -2420.7606
   2   2.0000     -10.332566      -281.1634
   3   2.0000     -10.325655      -280.9753
   4   2.0000     -10.315529      -280.6998
   5   2.0000     -10.314916      -280.6831
   6   2.0000     -10.312892      -280.6281
   7   2.0000     -10.300004      -280.2774
   8   2.0000     -10.299997      -280.2772
   9   2.0000     -10.298009      -280.2231
  10   2.0000     -10.294326      -280.1228
  11   2.0000     -10.290861      -280.0286
  12   2.0000     -10.286293      -279.9043
  13   2.0000     -10.281772      -279.7812
  14   2.0000     -10.281434      -279.7721
  15   2.0000     -10.276710      -279.6435
  16   2.0000      -8.082339      -219.9316
  17   2.0000      -8.076197      -219.7645
  18   2.0000      -6.040619      -164.3736
  19   2.0000      -6.037055      -164.2766
  20   2.0000      -6.034602      -164.2099
  21   2.0000      -6.033183      -164.1713
  22   2.0000      -6.030559      -164.0998
  23   2.0000      -6.027140      -164.0068
  24   2.0000      -1.004120       -27.3235
  25   2.0000      -0.982337       -26.7307
  26   2.0000      -0.922638       -25.1063
  27   2.0000      -0.906928       -24.6788
  28   2.0000      -0.864683       -23.5292
  29   2.0000      -0.849451       -23.1147
  30   2.0000      -0.839760       -22.8510
  31   2.0000      -0.808712       -22.0062
  32   2.0000      -0.787330       -21.4243
  33   2.0000      -0.772853       -21.0304
  34   2.0000      -0.710773       -19.3411
  35   2.0000      -0.703347       -19.1391
  36   2.0000      -0.694027       -18.8854
  37   2.0000      -0.648700       -17.6520
  38   2.0000      -0.643333       -17.5060
  39   2.0000      -0.614598       -16.7241
  40   2.0000      -0.601521       -16.3682
  41   2.0000      -0.568063       -15.4578
  42   2.0000      -0.562466       -15.3055
  43   2.0000      -0.549245       -14.9457
  44   2.0000      -0.539540       -14.6816
  45   2.0000      -0.523099       -14.2342
  46   2.0000      -0.520337       -14.1591
  47   2.0000      -0.513244       -13.9661
  48   2.0000      -0.504147       -13.7185
  49   2.0000      -0.489625       -13.3234
  50   2.0000      -0.484843       -13.1932
  51   2.0000      -0.476207       -12.9583
  52   2.0000      -0.470161       -12.7937
  53   2.0000      -0.464231       -12.6324
  54   2.0000      -0.458631       -12.4800
  55   2.0000      -0.448775       -12.2118
  56   2.0000      -0.445933       -12.1344
  57   2.0000      -0.438266       -11.9258
  58   2.0000      -0.434555       -11.8249
  59   2.0000      -0.425062       -11.5665
  60   2.0000      -0.416389       -11.3305
  61   2.0000      -0.413639       -11.2557
  62   2.0000      -0.409434       -11.1413
  63   2.0000      -0.336981        -9.1697
  64   2.0000      -0.330204        -8.9853
  65   2.0000      -0.326420        -8.8823
  66   2.0000      -0.300601        -8.1798
  67   0.0000       0.032708         0.8900
  68   0.0000       0.056310         1.5323
  69   0.0000       0.108417         2.9502
  70   0.0000       0.121048         3.2939
  71   0.0000       0.132579         3.6077

MULLIKEN ATOMIC CHARGES
-----------------------
   0 S :    0.109515
   1 C :   -0.140085
   2 C :   -0.101652
   3 C :    0.034562
   4 C :   -0.165133
   5 H :    0.011864
   6 C :    0.103693
   7 H :    0.033912
   8 H :    0.011638
   9 C :   -0.060792
  10 H :    0.004952
  11 H :    0.009334
  12 C :   -0.065499
  13 H :    0.027830
  14 H :    0.041577
  15 H :    0.052150
  16 S :    0.117717
  17 C :   -0.069105
  18 C :   -0.095184
  19 C :   -0.014843
  20 C :   -0.215448
  21 H :    0.043495
  22 C :    0.079085
  23 H :    0.039172
  24 H :    0.035675
  25 C :   -0.052094
  26 H :    0.024114
  27 H :    0.024875
  28 C :   -0.049329
  29 H :    0.046817
  30 H :    0.027193
  31 H :    0.035191
  32 H :    0.061814
  33 H :    0.052987
Sum of atomic charges:   -0.0000000

LOEWDIN ATOMIC CHARGES
----------------------
   0 S :    0.414904
   1 C :   -0.196889
   2 C :   -0.069901
   3 C :   -0.073256
   4 C :   -0.207604
   5 H :    0.030074
   6 C :   -0.024408
   7 H :    0.030318
   8 H :    0.027280
   9 C :   -0.044407
  10 H :    0.022890
  11 H :    0.018926
  12 C :   -0.070678
  13 H :    0.021267
  14 H :    0.034474
  15 H :    0.031674
  16 S :    0.406340
  17 C :   -0.192740
  18 C :   -0.081537
  19 C :   -0.044031
  20 C :   -0.198773
  21 H :    0.039053
  22 C :   -0.034413
  23 H :    0.038305
  24 H :    0.040353
  25 C :   -0.052622
  26 H :    0.024047
  27 H :    0.031156
  28 C :   -0.061507
  29 H :    0.027594
  30 H :    0.025081
  31 H :    0.031218
  32 H :    0.035817
  33 H :    0.021993

  Mayer bond orders larger than 0.100000
B(  0-S ,  1-C ) :   1.1594 B(  0-S ,  4-C ) :   1.1706 B(  1-C ,  2-C ) :   1.5798
B(  1-C ,  4-C ) :   0.1064 B(  1-C , 32-H ) :   0.9671 B(  2-C ,  3-C ) :   1.2820
B(  2-C ,  6-C ) :   1.0169 B(  3-C ,  4-C ) :   1.5642 B(  3-C ,  5-H ) :   0.9938
B(  4-C , 20-C ) :   1.0080 B(  6-C ,  7-H ) :   0.9422 B(  6-C ,  8-H ) :   0.9457
B(  6-C ,  9-C ) :   1.0547 B(  9-C , 10-H ) :   0.9482 B(  9-C , 11-H ) :   0.9501
B(  9-C , 12-C ) :   1.0721 B( 12-C , 13-H ) :   0.9770 B( 12-C , 14-H ) :   0.9740
B( 12-C , 15-H ) :   0.9764 B( 16-S , 17-C ) :   1.1636 B( 16-S , 20-C ) :   1.1596
B( 17-C , 18-C ) :   1.6107 B( 17-C , 20-C ) :   0.1074 B( 17-C , 33-H ) :   0.9623
B( 18-C , 19-C ) :   1.2502 B( 18-C , 21-H ) :   0.9728 B( 19-C , 20-C ) :   1.5745
B( 19-C , 22-C ) :   1.0158 B( 22-C , 23-H ) :   0.9269 B( 22-C , 24-H ) :   0.9297
B( 22-C , 25-C ) :   1.0862 B( 25-C , 26-H ) :   0.9448 B( 25-C , 27-H ) :   0.9411
B( 25-C , 28-C ) :   1.0879 B( 28-C , 29-H ) :   0.9760 B( 28-C , 30-H ) :   0.9727
B( 28-C , 31-H ) :   0.9718

Dispersion correction           -0.014075034
FINAL SINGLE POINT ENERGY     -1339.861776434727

DIPOLE MOMENT
-------------
                                X             Y             Z
Electronic contribution:      9.96192      -8.17281      18.25901
Nuclear contribution   :    -10.16689       8.71909     -18.65692
                        -----------------------------------------
Total Dipole Moment    :     -0.20497       0.54627      -0.39791
                        -----------------------------------------
Magnitude (a.u.)       :      0.70623
Magnitude (Debye)      :      1.79510

Rotational constants in cm-1:     0.021695     0.007163     0.006324
Rotational constants in MHz :   650.390554   214.750699   189.577202

                             ****ORCA TERMINATED NORMALLY****
TOTAL RUN TIME: 0 days 0 hours 0 minutes 29 seconds 202 msec
