                         Program Version 4.2.1 -  RELEASE  -
|  1> ! wB97X-D3 SP def2-SVP
|  2> %pal
|  3> nprocs 16
|  4> end
|  5>
|  6> * xyz 0 1
|  7> S 	 -73.4276 	 52.5489 	 122.914
|  8> C 	 -72.8641 	 54.1034 	 122.356
|  9> C 	 -73.0144 	 54.246 	 120.948
| 10> C 	 -73.6048 	 53.0625 	 120.366
| 11> C 	 -74.1223 	 52.2003 	 121.323
| 12> H 	 -73.8694 	 53.0071 	 119.276
| 13> C 	 -72.4283 	 55.38 	 120.086
| 14> H 	 -73.1586 	 56.1781 	 120.088
| 15> H 	 -72.497 	 54.9862 	 119.041
| 16> C 	 -71.0883 	 55.9836 	 120.435
| 17> H 	 -71.07 	 56.4819 	 121.413
| 18> H 	 -70.3424 	 55.1799 	 120.435
| 19> C 	 -70.499 	 56.9882 	 119.437
| 20> H 	 -69.566 	 57.4887 	 119.604
| 21> H 	 -70.4196 	 56.4415 	 118.475
| 22> H 	 -71.1933 	 57.7735 	 119.138
| 23> S 	 -74.3687 	 49.5598 	 120.792
| 24> C 	 -75.9247 	 48.8193 	 120.538
| 25> C 	 -76.9334 	 49.7137 	 120.83
| 26> C 	 -76.438 	 51.0897 	 121.071
| 27> C 	 -75.0665 	 51.1066 	 121.145
| 28> H 	 -77.9781 	 49.3266 	 120.878
| 29> C 	 -77.394 	 52.2444 	 121.297
| 30> H 	 -78.388 	 52.1178 	 120.786
| 31> H 	 -76.9368 	 53.1351 	 120.881
| 32> C 	 -77.607 	 52.6652 	 122.705
| 33> H 	 -76.7141 	 53.2078 	 123.046
| 34> H 	 -77.7184 	 51.7119 	 123.263
| 35> C 	 -78.8861 	 53.468 	 122.896
| 36> H 	 -79.8225 	 52.8545 	 122.644
| 37> H 	 -78.8898 	 54.3642 	 122.238
| 38> H 	 -78.9927 	 53.8592 	 123.898
| 39> H 	 -72.3042 	 54.8037 	 122.996
| 40> H 	 -76.102 	 47.7842 	 120.345
| 41> *
| 42>
| 43>                          ****END OF INPUT****

CARTESIAN COORDINATES (ANGSTROEM)
---------------------------------
  S    -73.427600   52.548900  122.914000
  C    -72.864100   54.103400  122.356000
  C    -73.014400   54.246000  120.948000
  C    -73.604800   53.062500  120.366000
  C    -74.122300   52.200300  121.323000
  H    -73.869400   53.007100  119.276000
  C    -72.428300   55.380000  120.086000
  H    -73.158600   56.178100  120.088000
  H    -72.497000   54.986200  119.041000
  C    -71.088300   55.983600  120.435000
  H    -71.070000   56.481900  121.413000
  H    -70.342400   55.179900  120.435000
  C    -70.499000   56.988200  119.437000
  H    -69.566000   57.488700  119.604000
  H    -70.419600   56.441500  118.475000
  H    -71.193300   57.773500  119.138000
  S    -74.368700   49.559800  120.792000
  C    -75.924700   48.819300  120.538000
  C    -76.933400   49.713700  120.830000
  C    -76.438000   51.089700  121.071000
  C    -75.066500   51.106600  121.145000
  H    -77.978100   49.326600  120.878000
  C    -77.394000   52.244400  121.297000
  H    -78.388000   52.117800  120.786000
  H    -76.936800   53.135100  120.881000
  C    -77.607000   52.665200  122.705000
  H    -76.714100   53.207800  123.046000
  H    -77.718400   51.711900  123.263000
  C    -78.886100   53.468000  122.896000
  H    -79.822500   52.854500  122.644000
  H    -78.889800   54.364200  122.238000
  H    -78.992700   53.859200  123.898000
  H    -72.304200   54.803700  122.996000
  H    -76.102000   47.784200  120.345000

 Total Charge           Charge          ....    0
 Multiplicity           Mult            ....    1
 Number of Electrons    NEL             ....  134
 Basis Dimension        Dim             ....  322

ORBITAL ENERGIES
----------------

  NO   OCC          E(Eh)            E(eV)
   0   2.0000     -88.969405     -2420.9806
   1   2.0000     -88.961921     -2420.7769
   2   2.0000     -10.332039      -281.1491
   3   2.0000     -10.323447      -280.9153
   4   2.0000     -10.321097      -280.8513
   5   2.0000     -10.314429      -280.6699
   6   2.0000     -10.310416      -280.5607
   7   2.0000     -10.308397      -280.5057
   8   2.0000     -10.304335      -280.3952
   9   2.0000     -10.299736      -280.2701
  10   2.0000     -10.299370      -280.2601
  11   2.0000     -10.291710      -280.0517
  12   2.0000     -10.286339      -279.9055
  13   2.0000     -10.282051      -279.7888
  14   2.0000     -10.279335      -279.7149
  15   2.0000     -10.279119      -279.7090
  16   2.0000      -8.083575      -219.9652
  17   2.0000      -8.077290      -219.7942
  18   2.0000      -6.041981      -164.4107
  19   2.0000      -6.038164      -164.3068
  20   2.0000      -6.035866      -164.2443
  21   2.0000      -6.034462      -164.2061
  22   2.0000      -6.031642      -164.1293
  23   2.0000      -6.028007      -164.0304
  24   2.0000      -1.005116       -27.3506
  25   2.0000      -0.980691       -26.6860
  26   2.0000      -0.914069       -24.8731
  27   2.0000      -0.911793       -24.8111
  28   2.0000      -0.867802       -23.6141
  29   2.0000      -0.850970       -23.1561
  30   2.0000      -0.844179       -22.9713
  31   2.0000      -0.812737       -22.1157
  32   2.0000      -0.781457       -21.2645
  33   2.0000      -0.769669       -20.9438
  34   2.0000      -0.708171       -19.2703
  35   2.0000      -0.698866       -19.0171
  36   2.0000      -0.683048       -18.5867
  37   2.0000      -0.659186       -17.9374
  38   2.0000      -0.639308       -17.3965
  39   2.0000      -0.614950       -16.7336
  40   2.0000      -0.596763       -16.2387
  41   2.0000      -0.569966       -15.5096
  42   2.0000      -0.568959       -15.4822
  43   2.0000      -0.560860       -15.2618
  44   2.0000      -0.523914       -14.2564
  45   2.0000      -0.521067       -14.1790
  46   2.0000      -0.517593       -14.0844
  47   2.0000      -0.511282       -13.9127
  48   2.0000      -0.509455       -13.8630
  49   2.0000      -0.494886       -13.4665
  50   2.0000      -0.491237       -13.3672
  51   2.0000      -0.478339       -13.0163
  52   2.0000      -0.471320       -12.8253
  53   2.0000      -0.459291       -12.4979
  54   2.0000      -0.454229       -12.3602
  55   2.0000      -0.452593       -12.3157
  56   2.0000      -0.445880       -12.1330
  57   2.0000      -0.439003       -11.9459
  58   2.0000      -0.430682       -11.7195
  59   2.0000      -0.421919       -11.4810
  60   2.0000      -0.420160       -11.4331
  61   2.0000      -0.416102       -11.3227
  62   2.0000      -0.405506       -11.0344
  63   2.0000      -0.337225        -9.1764
  64   2.0000      -0.327579        -8.9139
  65   2.0000      -0.319897        -8.7048
  66   2.0000      -0.309387        -8.4189
  67   0.0000       0.040060         1.0901
  68   0.0000       0.053217         1.4481
  69   0.0000       0.109383         2.9765
  70   0.0000       0.121323         3.3014
  71   0.0000       0.127374         3.4660

MULLIKEN ATOMIC CHARGES
-----------------------
   0 S :    0.123214
   1 C :   -0.127041
   2 C :   -0.121219
   3 C :    0.058777
   4 C :   -0.198282
   5 H :    0.042192
   6 C :    0.069993
   7 H :    0.031849
   8 H :    0.022284
   9 C :   -0.068187
  10 H :    0.036286
  11 H :    0.036377
  12 C :   -0.056490
  13 H :    0.040933
  14 H :    0.018763
  15 H :    0.017384
  16 S :    0.111851
  17 C :   -0.086926
  18 C :   -0.056231
  19 C :   -0.014778
  20 C :   -0.174351
  21 H :    0.037397
  22 C :    0.068956
  23 H :    0.027879
  24 H :    0.017936
  25 C :   -0.074528
  26 H :    0.038286
  27 H :    0.027349
  28 C :   -0.065671
  29 H :    0.040742
  30 H :    0.026774
  31 H :    0.035700
  32 H :    0.061012
  33 H :    0.051771
Sum of atomic charges:    0.0000000

LOEWDIN ATOMIC CHARGES
----------------------
   0 S :    0.409026
   1 C :   -0.204642
   2 C :   -0.062565
   3 C :   -0.059174
   4 C :   -0.197423
   5 H :    0.042998
   6 C :   -0.035876
   7 H :    0.032556
   8 H :    0.035359
   9 C :   -0.044663
  10 H :    0.024986
  11 H :    0.028543
  12 C :   -0.070873
  13 H :    0.026360
  14 H :    0.027014
  15 H :    0.021278
  16 S :    0.414319
  17 C :   -0.187532
  18 C :   -0.074918
  19 C :   -0.046166
  20 C :   -0.214494
  21 H :    0.038439
  22 C :   -0.040593
  23 H :    0.034034
  24 H :    0.032172
  25 C :   -0.046507
  26 H :    0.025716
  27 H :    0.024313
  28 C :   -0.070272
  29 H :    0.032354
  30 H :    0.024296
  31 H :    0.024562
  32 H :    0.030614
  33 H :    0.026759

  Mayer bond orders larger than 0.100000
B(  0-S ,  1-C ) :   1.1491 B(  0-S ,  4-C ) :   1.1560 B(  1-C ,  2-C ) :   1.5936
B(  1-C ,  4-C ) :   0.1053 B(  1-C , 32-H ) :   0.9656 B(  2-C ,  3-C ) :   1.2608
B(  2-C ,  6-C ) :   1.0163 B(  3-C ,  4-C ) :   1.5853 B(  3-C ,  5-H ) :   0.9754
B(  4-C , 20-C ) :   0.9956 B(  6-C ,  7-H ) :   0.9239 B(  6-C ,  8-H ) :   0.9440
B(  6-C ,  9-C ) :   1.0694 B(  9-C , 10-H ) :   0.9491 B(  9-C , 11-H ) :   0.9605
B(  9-C , 12-C ) :   1.0789 B( 12-C , 13-H ) :   0.9767 B( 12-C , 14-H ) :   0.9730
B( 12-C , 15-H ) :   0.9739 B( 16-S , 17-C ) :   1.1482 B( 16-S , 20-C ) :   1.1488
B( 17-C , 18-C ) :   1.6426 B( 17-C , 33-H ) :   0.9695 B( 18-C , 19-C ) :   1.1979
B( 18-C , 21-H ) :   0.9827 B( 19-C , 20-C ) :   1.6338 B( 19-C , 22-C ) :   1.0605
B( 22-C , 23-H ) :   0.9406 B( 22-C , 24-H ) :   0.9149 B( 22-C , 25-C ) :   1.0635
B( 25-C , 26-H ) :   0.9493 B( 25-C , 27-H ) :   0.9561 B( 25-C , 28-C ) :   1.0903
B( 28-C , 29-H ) :   0.9726 B( 28-C , 30-H ) :   0.9713 B( 28-C , 31-H ) :   0.9731

Dispersion correction           -0.014029892
FINAL SINGLE POINT ENERGY     -1339.877451287847

DIPOLE MOMENT
-------------
                                X             Y             Z
Electronic contribution:      4.45813     -23.34383       4.26733
Nuclear contribution   :     -4.63082      23.78465      -4.49448
                        -----------------------------------------
Total Dipole Moment    :     -0.17269       0.44082      -0.22715
                        -----------------------------------------
Magnitude (a.u.)       :      0.52511
Magnitude (Debye)      :      1.33473

Rotational constants in cm-1:     0.020035     0.007397     0.006275
Rotational constants in MHz :   600.630837   221.743627   188.112218

                             ****ORCA TERMINATED NORMALLY****
TOTAL RUN TIME: 0 days 0 hours 0 minutes 34 seconds 213 msec
