                         Program Version 4.2.1 -  RELEASE  -
|  1> ! wB97X-D3 SP def2-SVP
|  2> %pal
|  3> nprocs 16
|  4> end
|  5>
|  6> * xyz 0 1
|  7> S 	 -58.4676 	 55.0649 	 134.455
|  8> C 	 -56.9815 	 55.9683 	 134.496
|  9> C 	 -57.0976 	 57.2633 	 134.876
| 10> C 	 -58.4535 	 57.4483 	 135.333
| 11> C 	 -59.3567 	 56.3516 	 135.285
| 12> H 	 -58.858 	 58.3856 	 135.718
| 13> C 	 -56.0946 	 58.3838 	 134.985
| 14> H 	 -56.2997 	 59.0499 	 134.245
| 15> H 	 -55.0979 	 58.055 	 134.633
| 16> C 	 -55.9777 	 59.0411 	 136.384
| 17> H 	 -57.0384 	 59.0738 	 136.79
| 18> H 	 -55.3853 	 58.5355 	 137.165
| 19> C 	 -55.5107 	 60.5 	 136.247
| 20> H 	 -56.233 	 61.1607 	 135.895
| 21> H 	 -55.1165 	 60.8527 	 137.229
| 22> H 	 -54.7116 	 60.5215 	 135.475
| 23> S 	 -61.9684 	 55.9769 	 134.372
| 24> C 	 -63.2544 	 55.8715 	 135.47
| 25> C 	 -62.7126 	 55.6826 	 136.739
| 26> C 	 -61.3218 	 55.9398 	 136.88
| 27> C 	 -60.7507 	 56.2107 	 135.675
| 28> H 	 -63.3512 	 55.3853 	 137.561
| 29> C 	 -60.5731 	 55.7805 	 138.165
| 30> H 	 -61.3436 	 55.7021 	 138.9
| 31> H 	 -60.0539 	 56.6627 	 138.36
| 32> C 	 -59.5358 	 54.5205 	 138.231
| 33> H 	 -58.9122 	 54.7439 	 139.087
| 34> H 	 -58.8528 	 54.478 	 137.397
| 35> C 	 -60.3484 	 53.1863 	 138.392
| 36> H 	 -59.7433 	 52.3076 	 138.701
| 37> H 	 -60.9424 	 52.9284 	 137.564
| 38> H 	 -61.0544 	 53.3868 	 139.256
| 39> H 	 -56.0456 	 55.5666 	 134.169
| 40> H 	 -64.2646 	 55.7691 	 135.188
| 41> *
| 42>
| 43>                          ****END OF INPUT****

CARTESIAN COORDINATES (ANGSTROEM)
---------------------------------
  S    -58.467600   55.064900  134.455000
  C    -56.981500   55.968300  134.496000
  C    -57.097600   57.263300  134.876000
  C    -58.453500   57.448300  135.333000
  C    -59.356700   56.351600  135.285000
  H    -58.858000   58.385600  135.718000
  C    -56.094600   58.383800  134.985000
  H    -56.299700   59.049900  134.245000
  H    -55.097900   58.055000  134.633000
  C    -55.977700   59.041100  136.384000
  H    -57.038400   59.073800  136.790000
  H    -55.385300   58.535500  137.165000
  C    -55.510700   60.500000  136.247000
  H    -56.233000   61.160700  135.895000
  H    -55.116500   60.852700  137.229000
  H    -54.711600   60.521500  135.475000
  S    -61.968400   55.976900  134.372000
  C    -63.254400   55.871500  135.470000
  C    -62.712600   55.682600  136.739000
  C    -61.321800   55.939800  136.880000
  C    -60.750700   56.210700  135.675000
  H    -63.351200   55.385300  137.561000
  C    -60.573100   55.780500  138.165000
  H    -61.343600   55.702100  138.900000
  H    -60.053900   56.662700  138.360000
  C    -59.535800   54.520500  138.231000
  H    -58.912200   54.743900  139.087000
  H    -58.852800   54.478000  137.397000
  C    -60.348400   53.186300  138.392000
  H    -59.743300   52.307600  138.701000
  H    -60.942400   52.928400  137.564000
  H    -61.054400   53.386800  139.256000
  H    -56.045600   55.566600  134.169000
  H    -64.264600   55.769100  135.188000

 Total Charge           Charge          ....    0
 Multiplicity           Mult            ....    1
 Number of Electrons    NEL             ....  134
 Basis Dimension        Dim             ....  322

ORBITAL ENERGIES
----------------

  NO   OCC          E(Eh)            E(eV)
   0   2.0000     -88.964122     -2420.8368
   1   2.0000     -88.960748     -2420.7450
   2   2.0000     -10.332428      -281.1597
   3   2.0000     -10.324020      -280.9309
   4   2.0000     -10.314730      -280.6781
   5   2.0000     -10.311567      -280.5920
   6   2.0000     -10.300907      -280.3019
   7   2.0000     -10.298890      -280.2470
   8   2.0000     -10.298119      -280.2261
   9   2.0000     -10.295503      -280.1549
  10   2.0000     -10.293255      -280.0937
  11   2.0000     -10.291559      -280.0475
  12   2.0000     -10.289661      -279.9959
  13   2.0000     -10.286923      -279.9214
  14   2.0000     -10.279646      -279.7234
  15   2.0000     -10.278100      -279.6813
  16   2.0000      -8.078514      -219.8275
  17   2.0000      -8.076175      -219.7639
  18   2.0000      -6.037095      -164.2777
  19   2.0000      -6.034606      -164.2100
  20   2.0000      -6.033038      -164.1673
  21   2.0000      -6.030564      -164.1000
  22   2.0000      -6.029228      -164.0636
  23   2.0000      -6.026980      -164.0025
  24   2.0000      -1.006253       -27.3815
  25   2.0000      -0.986476       -26.8434
  26   2.0000      -0.913957       -24.8700
  27   2.0000      -0.901523       -24.5317
  28   2.0000      -0.869565       -23.6621
  29   2.0000      -0.847203       -23.0536
  30   2.0000      -0.841197       -22.8901
  31   2.0000      -0.808527       -22.0012
  32   2.0000      -0.784468       -21.3465
  33   2.0000      -0.776210       -21.1217
  34   2.0000      -0.712970       -19.4009
  35   2.0000      -0.704224       -19.1629
  36   2.0000      -0.694623       -18.9016
  37   2.0000      -0.663884       -18.0652
  38   2.0000      -0.643688       -17.5156
  39   2.0000      -0.618590       -16.8327
  40   2.0000      -0.594326       -16.1724
  41   2.0000      -0.569868       -15.5069
  42   2.0000      -0.555976       -15.1289
  43   2.0000      -0.549285       -14.9468
  44   2.0000      -0.540183       -14.6991
  45   2.0000      -0.530053       -14.4235
  46   2.0000      -0.516805       -14.0630
  47   2.0000      -0.510926       -13.9030
  48   2.0000      -0.505452       -13.7540
  49   2.0000      -0.497743       -13.5443
  50   2.0000      -0.485992       -13.2245
  51   2.0000      -0.483011       -13.1434
  52   2.0000      -0.472460       -12.8563
  53   2.0000      -0.462380       -12.5820
  54   2.0000      -0.458075       -12.4649
  55   2.0000      -0.449151       -12.2220
  56   2.0000      -0.441794       -12.0218
  57   2.0000      -0.437161       -11.8958
  58   2.0000      -0.433292       -11.7905
  59   2.0000      -0.427658       -11.6372
  60   2.0000      -0.421771       -11.4770
  61   2.0000      -0.415153       -11.2969
  62   2.0000      -0.411617       -11.2007
  63   2.0000      -0.335423        -9.1273
  64   2.0000      -0.329638        -8.9699
  65   2.0000      -0.324524        -8.8308
  66   2.0000      -0.299795        -8.1578
  67   0.0000       0.039004         1.0614
  68   0.0000       0.050205         1.3662
  69   0.0000       0.119473         3.2510
  70   0.0000       0.122267         3.3271
  71   0.0000       0.134186         3.6514

MULLIKEN ATOMIC CHARGES
-----------------------
   0 S :    0.107249
   1 C :   -0.121035
   2 C :   -0.072463
   3 C :    0.016022
   4 C :   -0.184328
   5 H :    0.011982
   6 C :    0.140507
   7 H :    0.010438
   8 H :    0.012098
   9 C :   -0.106937
  10 H :    0.037534
  11 H :    0.045991
  12 C :   -0.051901
  13 H :    0.027457
  14 H :    0.040107
  15 H :    0.028414
  16 S :    0.101742
  17 C :   -0.063969
  18 C :   -0.057863
  19 C :   -0.021162
  20 C :   -0.182493
  21 H :    0.013046
  22 C :    0.118934
  23 H :    0.002742
  24 H :    0.014114
  25 C :   -0.052100
  26 H :    0.027091
  27 H :    0.038665
  28 C :   -0.064085
  29 H :    0.042810
  30 H :    0.038987
  31 H :    0.022703
  32 H :    0.031215
  33 H :    0.048487
Sum of atomic charges:   -0.0000000

LOEWDIN ATOMIC CHARGES
----------------------
   0 S :    0.399526
   1 C :   -0.186963
   2 C :   -0.068239
   3 C :   -0.056177
   4 C :   -0.196102
   5 H :    0.025716
   6 C :   -0.025498
   7 H :    0.023460
   8 H :    0.033788
   9 C :   -0.041088
  10 H :    0.028952
  11 H :    0.029410
  12 C :   -0.063169
  13 H :    0.015504
  14 H :    0.031199
  15 H :    0.025319
  16 S :    0.409422
  17 C :   -0.188040
  18 C :   -0.078153
  19 C :   -0.052983
  20 C :   -0.194725
  21 H :    0.026369
  22 C :   -0.017715
  23 H :    0.023972
  24 H :    0.025521
  25 C :   -0.023951
  26 H :    0.022973
  27 H :    0.017207
  28 C :   -0.067895
  29 H :    0.029240
  30 H :    0.018859
  31 H :    0.027786
  32 H :    0.022269
  33 H :    0.024207

  Mayer bond orders larger than 0.100000
B(  0-S ,  1-C ) :   1.1486 B(  0-S ,  4-C ) :   1.1265 B(  1-C ,  2-C ) :   1.6337
B(  1-C , 32-H ) :   0.9618 B(  2-C ,  3-C ) :   1.2215 B(  2-C ,  6-C ) :   1.0217
B(  3-C ,  4-C ) :   1.6081 B(  3-C ,  5-H ) :   0.9839 B(  4-C , 20-C ) :   1.0433
B(  6-C ,  7-H ) :   0.9321 B(  6-C ,  8-H ) :   0.9260 B(  6-C ,  9-C ) :   1.0394
B(  9-C , 10-H ) :   0.9630 B(  9-C , 11-H ) :   0.9623 B(  9-C , 12-C ) :   1.0676
B( 12-C , 13-H ) :   0.9783 B( 12-C , 14-H ) :   0.9753 B( 12-C , 15-H ) :   0.9756
B( 16-S , 17-C ) :   1.1804 B( 16-S , 20-C ) :   1.1402 B( 17-C , 18-C ) :   1.5640
B( 17-C , 20-C ) :   0.1036 B( 17-C , 33-H ) :   0.9771 B( 18-C , 19-C ) :   1.2635
B( 18-C , 21-H ) :   0.9873 B( 19-C , 20-C ) :   1.5804 B( 19-C , 22-C ) :   1.0430
B( 22-C , 23-H ) :   0.9328 B( 22-C , 24-H ) :   0.9220 B( 22-C , 25-C ) :   1.0590
B( 25-C , 26-H ) :   0.9580 B( 25-C , 27-H ) :   0.9609 B( 25-C , 28-C ) :   1.0555
B( 28-C , 29-H ) :   0.9765 B( 28-C , 30-H ) :   0.9814 B( 28-C , 31-H ) :   0.9774

Dispersion correction           -0.014730782
FINAL SINGLE POINT ENERGY     -1339.863014149151

DIPOLE MOMENT
-------------
                                X             Y             Z
Electronic contribution:    -14.22225      -7.93056     -17.31151
Nuclear contribution   :     14.47748       8.19303      17.72559
                        -----------------------------------------
Total Dipole Moment    :      0.25524       0.26247       0.41408
                        -----------------------------------------
Magnitude (a.u.)       :      0.55272
Magnitude (Debye)      :      1.40490

Rotational constants in cm-1:     0.020106     0.007891     0.007397
Rotational constants in MHz :   602.765195   236.556290   221.746483

                             ****ORCA TERMINATED NORMALLY****
TOTAL RUN TIME: 0 days 0 hours 0 minutes 34 seconds 530 msec
