                         Program Version 4.2.1 -  RELEASE  -
|  1> ! wB97X-D3 SP def2-SVP
|  2> %pal
|  3> nprocs 16
|  4> end
|  5>
|  6> * xyz 0 1
|  7> S 	 -42.4114 	 53.8085 	 102.236
|  8> C 	 -42.8048 	 53.5061 	 103.895
|  9> C 	 -43.7088 	 54.4077 	 104.403
| 10> C 	 -44.3032 	 55.1908 	 103.37
| 11> C 	 -43.7762 	 54.9973 	 102.119
| 12> H 	 -45.177 	 55.849 	 103.334
| 13> C 	 -44.1138 	 54.4835 	 105.888
| 14> H 	 -43.4233 	 55.2037 	 106.354
| 15> H 	 -43.9015 	 53.5485 	 106.423
| 16> C 	 -45.5611 	 54.9252 	 106.254
| 17> H 	 -45.7353 	 54.8402 	 107.372
| 18> H 	 -45.7066 	 55.9361 	 105.913
| 19> C 	 -46.6595 	 53.9946 	 105.684
| 20> H 	 -46.8427 	 54.4366 	 104.74
| 21> H 	 -46.2758 	 52.9649 	 105.608
| 22> H 	 -47.5648 	 54.086 	 106.359
| 23> S 	 -45.3763 	 55.3437 	 99.914
| 24> C 	 -45.3518 	 56.8357 	 99.0803
| 25> C 	 -44.3295 	 57.5962 	 99.4854
| 26> C 	 -43.5367 	 56.9787 	 100.496
| 27> C 	 -44.0693 	 55.7984 	 100.936
| 28> H 	 -44.0713 	 58.5001 	 98.9614
| 29> C 	 -42.285 	 57.5411 	 101.188
| 30> H 	 -41.4993 	 57.9193 	 100.55
| 31> H 	 -41.771 	 56.6958 	 101.519
| 32> C 	 -42.4754 	 58.4111 	 102.436
| 33> H 	 -43.2582 	 57.9342 	 103.012
| 34> H 	 -42.868 	 59.4033 	 102.198
| 35> C 	 -41.3638 	 58.5219 	 103.418
| 36> H 	 -41.1148 	 57.5264 	 103.797
| 37> H 	 -41.6588 	 58.9567 	 104.387
| 38> H 	 -40.5381 	 59.153 	 103.113
| 39> H 	 -42.2397 	 52.9255 	 104.488
| 40> H 	 -46.053 	 57.1292 	 98.2821
| 41> *
| 42>
| 43>                          ****END OF INPUT****

CARTESIAN COORDINATES (ANGSTROEM)
---------------------------------
  S    -42.411400   53.808500  102.236000
  C    -42.804800   53.506100  103.895000
  C    -43.708800   54.407700  104.403000
  C    -44.303200   55.190800  103.370000
  C    -43.776200   54.997300  102.119000
  H    -45.177000   55.849000  103.334000
  C    -44.113800   54.483500  105.888000
  H    -43.423300   55.203700  106.354000
  H    -43.901500   53.548500  106.423000
  C    -45.561100   54.925200  106.254000
  H    -45.735300   54.840200  107.372000
  H    -45.706600   55.936100  105.913000
  C    -46.659500   53.994600  105.684000
  H    -46.842700   54.436600  104.740000
  H    -46.275800   52.964900  105.608000
  H    -47.564800   54.086000  106.359000
  S    -45.376300   55.343700   99.914000
  C    -45.351800   56.835700   99.080300
  C    -44.329500   57.596200   99.485400
  C    -43.536700   56.978700  100.496000
  C    -44.069300   55.798400  100.936000
  H    -44.071300   58.500100   98.961400
  C    -42.285000   57.541100  101.188000
  H    -41.499300   57.919300  100.550000
  H    -41.771000   56.695800  101.519000
  C    -42.475400   58.411100  102.436000
  H    -43.258200   57.934200  103.012000
  H    -42.868000   59.403300  102.198000
  C    -41.363800   58.521900  103.418000
  H    -41.114800   57.526400  103.797000
  H    -41.658800   58.956700  104.387000
  H    -40.538100   59.153000  103.113000
  H    -42.239700   52.925500  104.488000
  H    -46.053000   57.129200   98.282100

 Total Charge           Charge          ....    0
 Multiplicity           Mult            ....    1
 Number of Electrons    NEL             ....  134
 Basis Dimension        Dim             ....  322

ORBITAL ENERGIES
----------------

  NO   OCC          E(Eh)            E(eV)
   0   2.0000     -88.966588     -2420.9039
   1   2.0000     -88.962200     -2420.7845
   2   2.0000     -10.332491      -281.1614
   3   2.0000     -10.320497      -280.8350
   4   2.0000     -10.313094      -280.6336
   5   2.0000     -10.308730      -280.5148
   6   2.0000     -10.307529      -280.4821
   7   2.0000     -10.302127      -280.3351
   8   2.0000     -10.299485      -280.2632
   9   2.0000     -10.299068      -280.2519
  10   2.0000     -10.291535      -280.0469
  11   2.0000     -10.287747      -279.9438
  12   2.0000     -10.280770      -279.7540
  13   2.0000     -10.277738      -279.6715
  14   2.0000     -10.276716      -279.6437
  15   2.0000     -10.272627      -279.5324
  16   2.0000      -8.080561      -219.8833
  17   2.0000      -8.078602      -219.8299
  18   2.0000      -6.038966      -164.3286
  19   2.0000      -6.036910      -164.2727
  20   2.0000      -6.035240      -164.2272
  21   2.0000      -6.032871      -164.1628
  22   2.0000      -6.031400      -164.1227
  23   2.0000      -6.029457      -164.0699
  24   2.0000      -1.015153       -27.6237
  25   2.0000      -0.990472       -26.9521
  26   2.0000      -0.910225       -24.7685
  27   2.0000      -0.905405       -24.6373
  28   2.0000      -0.877515       -23.8784
  29   2.0000      -0.852719       -23.2037
  30   2.0000      -0.845562       -23.0089
  31   2.0000      -0.824469       -22.4349
  32   2.0000      -0.784300       -21.3419
  33   2.0000      -0.774058       -21.0632
  34   2.0000      -0.709359       -19.3027
  35   2.0000      -0.695165       -18.9164
  36   2.0000      -0.688593       -18.7376
  37   2.0000      -0.661142       -17.9906
  38   2.0000      -0.649741       -17.6804
  39   2.0000      -0.621627       -16.9153
  40   2.0000      -0.601300       -16.3622
  41   2.0000      -0.572081       -15.5671
  42   2.0000      -0.565429       -15.3861
  43   2.0000      -0.550046       -14.9675
  44   2.0000      -0.541161       -14.7257
  45   2.0000      -0.526087       -14.3155
  46   2.0000      -0.517628       -14.0854
  47   2.0000      -0.515268       -14.0212
  48   2.0000      -0.512462       -13.9448
  49   2.0000      -0.500246       -13.6124
  50   2.0000      -0.487683       -13.2705
  51   2.0000      -0.482341       -13.1252
  52   2.0000      -0.475470       -12.9382
  53   2.0000      -0.468581       -12.7507
  54   2.0000      -0.464389       -12.6367
  55   2.0000      -0.447488       -12.1768
  56   2.0000      -0.437722       -11.9110
  57   2.0000      -0.435859       -11.8603
  58   2.0000      -0.427365       -11.6292
  59   2.0000      -0.425843       -11.5878
  60   2.0000      -0.413782       -11.2596
  61   2.0000      -0.410015       -11.1571
  62   2.0000      -0.408214       -11.1081
  63   2.0000      -0.340096        -9.2545
  64   2.0000      -0.334028        -9.0894
  65   2.0000      -0.322801        -8.7839
  66   2.0000      -0.314304        -8.5526
  67   0.0000       0.042780         1.1641
  68   0.0000       0.053668         1.4604
  69   0.0000       0.111724         3.0402
  70   0.0000       0.123751         3.3674
  71   0.0000       0.131674         3.5830

MULLIKEN ATOMIC CHARGES
-----------------------
   0 S :    0.101011
   1 C :   -0.054865
   2 C :   -0.077655
   3 C :    0.047142
   4 C :   -0.177221
   5 H :    0.028890
   6 C :    0.054524
   7 H :    0.043594
   8 H :    0.024775
   9 C :   -0.119370
  10 H :    0.041457
  11 H :    0.033985
  12 C :   -0.048216
  13 H :    0.026384
  14 H :    0.044953
  15 H :    0.045615
  16 S :    0.117587
  17 C :   -0.095535
  18 C :   -0.025816
  19 C :   -0.029215
  20 C :   -0.206193
  21 H :    0.014081
  22 C :    0.143069
  23 H :    0.014510
  24 H :   -0.027091
  25 C :   -0.051834
  26 H :    0.008774
  27 H :    0.019203
  28 C :   -0.043912
  29 H :    0.025722
  30 H :    0.020082
  31 H :    0.033973
  32 H :    0.001215
  33 H :    0.066378
Sum of atomic charges:    0.0000000

LOEWDIN ATOMIC CHARGES
----------------------
   0 S :    0.386432
   1 C :   -0.174348
   2 C :   -0.062686
   3 C :   -0.057856
   4 C :   -0.176569
   5 H :    0.038151
   6 C :   -0.036474
   7 H :    0.036988
   8 H :    0.029772
   9 C :   -0.046720
  10 H :    0.032355
  11 H :    0.018092
  12 C :   -0.065589
  13 H :    0.018275
  14 H :    0.029489
  15 H :    0.033658
  16 S :    0.433266
  17 C :   -0.195526
  18 C :   -0.076855
  19 C :   -0.047327
  20 C :   -0.216216
  21 H :    0.032317
  22 C :   -0.032197
  23 H :    0.028553
  24 H :    0.017489
  25 C :   -0.043660
  26 H :    0.024090
  27 H :    0.019438
  28 C :   -0.068343
  29 H :    0.028102
  30 H :    0.030365
  31 H :    0.021541
  32 H :    0.003549
  33 H :    0.038444

  Mayer bond orders larger than 0.100000
B(  0-S ,  1-C ) :   1.1472 B(  0-S ,  4-C ) :   1.1254 B(  1-C ,  2-C ) :   1.6328
B(  1-C , 32-H ) :   0.9769 B(  2-C ,  3-C ) :   1.2074 B(  2-C ,  6-C ) :   1.0050
B(  3-C ,  4-C ) :   1.6366 B(  3-C ,  5-H ) :   0.9769 B(  4-C , 20-C ) :   1.0036
B(  6-C ,  7-H ) :   0.9333 B(  6-C ,  8-H ) :   0.9460 B(  6-C ,  9-C ) :   1.0841
B(  9-C , 10-H ) :   0.9614 B(  9-C , 11-H ) :   0.9547 B(  9-C , 12-C ) :   1.0612
B( 12-C , 13-H ) :   0.9781 B( 12-C , 14-H ) :   0.9769 B( 12-C , 15-H ) :   0.9794
B( 16-S , 17-C ) :   1.1662 B( 16-S , 20-C ) :   1.1556 B( 17-C , 18-C ) :   1.6051
B( 17-C , 33-H ) :   0.9630 B( 18-C , 19-C ) :   1.2502 B( 18-C , 21-H ) :   0.9972
B( 19-C , 20-C ) :   1.6038 B( 19-C , 22-C ) :   1.0483 B( 22-C , 23-H ) :   0.9297
B( 22-C , 24-H ) :   0.9055 B( 22-C , 25-C ) :   1.0606 B( 25-C , 26-H ) :   0.9464
B( 25-C , 27-H ) :   0.9528 B( 25-C , 28-C ) :   1.1032 B( 28-C , 29-H ) :   0.9668
B( 28-C , 30-H ) :   0.9679 B( 28-C , 31-H ) :   0.9749

Dispersion correction           -0.015575574
FINAL SINGLE POINT ENERGY     -1339.865929693711

DIPOLE MOMENT
-------------
                                X             Y             Z
Electronic contribution:     -0.20644     -10.83957     -21.46342
Nuclear contribution   :      0.19830      11.23304      21.91105
                        -----------------------------------------
Total Dipole Moment    :     -0.00814       0.39346       0.44763
                        -----------------------------------------
Magnitude (a.u.)       :      0.59603
Magnitude (Debye)      :      1.51499

Rotational constants in cm-1:     0.017074     0.009541     0.008246
Rotational constants in MHz :   511.852321   286.020707   247.220348

                             ****ORCA TERMINATED NORMALLY****
TOTAL RUN TIME: 0 days 0 hours 0 minutes 31 seconds 603 msec
