                         Program Version 4.2.1 -  RELEASE  -
|  1> ! wB97X-D3 SP def2-SVP
|  2> %pal
|  3> nprocs 16
|  4> end
|  5>
|  6> * xyz 0 1
|  7> S 	 17.4212 	 0.678565 	 69.9649
|  8> C 	 16.9408 	 -0.291462 	 68.6097
|  9> C 	 17.9293 	 -0.251713 	 67.6115
| 10> C 	 19.0908 	 0.507579 	 68.0334
| 11> C 	 19.0391 	 0.974605 	 69.3038
| 12> H 	 20.0304 	 0.708013 	 67.5963
| 13> C 	 17.8137 	 -0.930934 	 66.2382
| 14> H 	 17.9364 	 -0.119621 	 65.4909
| 15> H 	 16.8003 	 -1.34311 	 66.1407
| 16> C 	 18.9367 	 -1.9472 	 65.9492
| 17> H 	 19.0384 	 -2.04661 	 64.8432
| 18> H 	 19.9092 	 -1.4534 	 66.1806
| 19> C 	 18.7233 	 -3.31814 	 66.6301
| 20> H 	 19.5868 	 -3.91107 	 66.2486
| 21> H 	 18.5611 	 -3.19954 	 67.7151
| 22> H 	 17.8801 	 -3.70253 	 66.1062
| 23> S 	 20.2907 	 1.1996 	 71.8347
| 24> C 	 21.5877 	 2.23073 	 72.0553
| 25> C 	 21.8771 	 2.98372 	 70.9011
| 26> C 	 20.974 	 2.65991 	 69.8251
| 27> C 	 20.0997 	 1.61308 	 70.1253
| 28> H 	 22.5796 	 3.79059 	 70.8958
| 29> C 	 21.0536 	 3.45096 	 68.567
| 30> H 	 20.7009 	 2.8165 	 67.7858
| 31> H 	 22.1232 	 3.6778 	 68.4526
| 32> C 	 20.2764 	 4.76451 	 68.4969
| 33> H 	 19.2778 	 4.6462 	 68.0723
| 34> H 	 20.744 	 5.30791 	 67.6665
| 35> C 	 20.4681 	 5.6965 	 69.6911
| 36> H 	 21.4424 	 6.22023 	 69.5775
| 37> H 	 20.4734 	 5.1137 	 70.6681
| 38> H 	 19.7286 	 6.47085 	 69.7171
| 39> H 	 15.9737 	 -0.718191 	 68.4701
| 40> H 	 22.1436 	 2.33011 	 72.9496
| 41> *
| 42>
| 43>                          ****END OF INPUT****

CARTESIAN COORDINATES (ANGSTROEM)
---------------------------------
  S     17.421200    0.678565   69.964900
  C     16.940800   -0.291462   68.609700
  C     17.929300   -0.251713   67.611500
  C     19.090800    0.507579   68.033400
  C     19.039100    0.974605   69.303800
  H     20.030400    0.708013   67.596300
  C     17.813700   -0.930934   66.238200
  H     17.936400   -0.119621   65.490900
  H     16.800300   -1.343110   66.140700
  C     18.936700   -1.947200   65.949200
  H     19.038400   -2.046610   64.843200
  H     19.909200   -1.453400   66.180600
  C     18.723300   -3.318140   66.630100
  H     19.586800   -3.911070   66.248600
  H     18.561100   -3.199540   67.715100
  H     17.880100   -3.702530   66.106200
  S     20.290700    1.199600   71.834700
  C     21.587700    2.230730   72.055300
  C     21.877100    2.983720   70.901100
  C     20.974000    2.659910   69.825100
  C     20.099700    1.613080   70.125300
  H     22.579600    3.790590   70.895800
  C     21.053600    3.450960   68.567000
  H     20.700900    2.816500   67.785800
  H     22.123200    3.677800   68.452600
  C     20.276400    4.764510   68.496900
  H     19.277800    4.646200   68.072300
  H     20.744000    5.307910   67.666500
  C     20.468100    5.696500   69.691100
  H     21.442400    6.220230   69.577500
  H     20.473400    5.113700   70.668100
  H     19.728600    6.470850   69.717100
  H     15.973700   -0.718191   68.470100
  H     22.143600    2.330110   72.949600

 Total Charge           Charge          ....    0
 Multiplicity           Mult            ....    1
 Number of Electrons    NEL             ....  134
 Basis Dimension        Dim             ....  322

ORBITAL ENERGIES
----------------

  NO   OCC          E(Eh)            E(eV)
   0   2.0000     -88.968753     -2420.9628
   1   2.0000     -88.962041     -2420.7802
   2   2.0000     -10.331434      -281.1326
   3   2.0000     -10.330776      -281.1147
   4   2.0000     -10.315757      -280.7060
   5   2.0000     -10.314309      -280.6666
   6   2.0000     -10.308242      -280.5015
   7   2.0000     -10.303189      -280.3640
   8   2.0000     -10.295746      -280.1615
   9   2.0000     -10.294613      -280.1307
  10   2.0000     -10.290994      -280.0322
  11   2.0000     -10.289762      -279.9987
  12   2.0000     -10.287243      -279.9301
  13   2.0000     -10.283813      -279.8368
  14   2.0000     -10.279266      -279.7130
  15   2.0000     -10.278635      -279.6959
  16   2.0000      -8.084424      -219.9884
  17   2.0000      -8.076836      -219.7819
  18   2.0000      -6.042772      -164.4322
  19   2.0000      -6.038635      -164.3196
  20   2.0000      -6.035446      -164.2328
  21   2.0000      -6.035391      -164.2313
  22   2.0000      -6.031324      -164.1207
  23   2.0000      -6.027553      -164.0181
  24   2.0000      -1.007347       -27.4113
  25   2.0000      -0.986103       -26.8332
  26   2.0000      -0.915458       -24.9109
  27   2.0000      -0.906348       -24.6630
  28   2.0000      -0.869013       -23.6470
  29   2.0000      -0.850205       -23.1352
  30   2.0000      -0.842153       -22.9162
  31   2.0000      -0.816817       -22.2267
  32   2.0000      -0.786234       -21.3945
  33   2.0000      -0.771720       -20.9996
  34   2.0000      -0.708739       -19.2858
  35   2.0000      -0.693244       -18.8641
  36   2.0000      -0.688861       -18.7449
  37   2.0000      -0.663361       -18.0510
  38   2.0000      -0.648123       -17.6363
  39   2.0000      -0.617000       -16.7894
  40   2.0000      -0.587374       -15.9833
  41   2.0000      -0.568080       -15.4582
  42   2.0000      -0.560843       -15.2613
  43   2.0000      -0.551644       -15.0110
  44   2.0000      -0.547150       -14.8887
  45   2.0000      -0.533740       -14.5238
  46   2.0000      -0.521367       -14.1871
  47   2.0000      -0.513222       -13.9655
  48   2.0000      -0.509008       -13.8508
  49   2.0000      -0.491434       -13.3726
  50   2.0000      -0.483467       -13.1558
  51   2.0000      -0.483394       -13.1538
  52   2.0000      -0.475988       -12.9523
  53   2.0000      -0.467596       -12.7239
  54   2.0000      -0.462807       -12.5936
  55   2.0000      -0.445551       -12.1241
  56   2.0000      -0.442094       -12.0300
  57   2.0000      -0.435312       -11.8454
  58   2.0000      -0.429611       -11.6903
  59   2.0000      -0.426761       -11.6128
  60   2.0000      -0.423450       -11.5226
  61   2.0000      -0.408430       -11.1140
  62   2.0000      -0.403436       -10.9781
  63   2.0000      -0.354359        -9.6426
  64   2.0000      -0.329924        -8.9777
  65   2.0000      -0.325078        -8.8458
  66   2.0000      -0.290945        -7.9170
  67   0.0000       0.030212         0.8221
  68   0.0000       0.072044         1.9604
  69   0.0000       0.109620         2.9829
  70   0.0000       0.119870         3.2618
  71   0.0000       0.136550         3.7157

MULLIKEN ATOMIC CHARGES
-----------------------
   0 S :    0.096558
   1 C :   -0.109667
   2 C :   -0.096409
   3 C :    0.033771
   4 C :   -0.155430
   5 H :    0.002168
   6 C :    0.073416
   7 H :    0.035726
   8 H :    0.016032
   9 C :   -0.121894
  10 H :    0.025139
  11 H :    0.028216
  12 C :   -0.021600
  13 H :    0.043653
  14 H :    0.061837
  15 H :    0.019769
  16 S :    0.130932
  17 C :   -0.074518
  18 C :   -0.039093
  19 C :   -0.077779
  20 C :   -0.151845
  21 H :    0.013197
  22 C :    0.107159
  23 H :   -0.000274
  24 H :    0.024904
  25 C :   -0.062746
  26 H :    0.033531
  27 H :    0.020356
  28 C :   -0.071617
  29 H :    0.029045
  30 H :    0.063036
  31 H :    0.031954
  32 H :    0.043315
  33 H :    0.049157
Sum of atomic charges:   -0.0000000

LOEWDIN ATOMIC CHARGES
----------------------
   0 S :    0.390938
   1 C :   -0.202953
   2 C :   -0.058748
   3 C :   -0.069337
   4 C :   -0.175622
   5 H :    0.024811
   6 C :   -0.034069
   7 H :    0.036691
   8 H :    0.026541
   9 C :   -0.049834
  10 H :    0.024062
  11 H :    0.022107
  12 C :   -0.063794
  13 H :    0.035531
  14 H :    0.034611
  15 H :    0.020768
  16 S :    0.443397
  17 C :   -0.200600
  18 C :   -0.074519
  19 C :   -0.053447
  20 C :   -0.206496
  21 H :    0.025690
  22 C :   -0.031378
  23 H :    0.026258
  24 H :    0.034379
  25 C :   -0.044533
  26 H :    0.025771
  27 H :    0.028095
  28 C :   -0.071167
  29 H :    0.027378
  30 H :    0.035413
  31 H :    0.023760
  32 H :    0.025299
  33 H :    0.024998

  Mayer bond orders larger than 0.100000
B(  0-S ,  1-C ) :   1.1353 B(  0-S ,  4-C ) :   1.1352 B(  1-C ,  2-C ) :   1.6110
B(  1-C , 32-H ) :   0.9730 B(  2-C ,  3-C ) :   1.1954 B(  2-C ,  6-C ) :   1.0308
B(  3-C ,  4-C ) :   1.6318 B(  3-C ,  5-H ) :   0.9891 B(  4-C , 20-C ) :   1.0343
B(  6-C ,  7-H ) :   0.9344 B(  6-C ,  8-H ) :   0.9456 B(  6-C ,  9-C ) :   1.0692
B(  9-C , 10-H ) :   0.9560 B(  9-C , 11-H ) :   0.9556 B(  9-C , 12-C ) :   1.0581
B( 12-C , 13-H ) :   0.9725 B( 12-C , 14-H ) :   0.9773 B( 12-C , 15-H ) :   0.9745
B( 16-S , 17-C ) :   1.2022 B( 16-S , 20-C ) :   1.1401 B( 17-C , 18-C ) :   1.5468
B( 17-C , 33-H ) :   0.9718 B( 18-C , 19-C ) :   1.2683 B( 18-C , 21-H ) :   0.9938
B( 19-C , 20-C ) :   1.5609 B( 19-C , 22-C ) :   1.0509 B( 22-C , 23-H ) :   0.9211
B( 22-C , 24-H ) :   0.9320 B( 22-C , 25-C ) :   1.0813 B( 25-C , 26-H ) :   0.9586
B( 25-C , 27-H ) :   0.9525 B( 25-C , 28-C ) :   1.0698 B( 28-C , 29-H ) :   0.9753
B( 28-C , 30-H ) :   0.9708 B( 28-C , 31-H ) :   0.9725

Dispersion correction           -0.014376720
FINAL SINGLE POINT ENERGY     -1339.879021529957

DIPOLE MOMENT
-------------
                                X             Y             Z
Electronic contribution:     -4.50560      -2.40790      19.72618
Nuclear contribution   :      4.77206       2.65678     -20.26377
                        -----------------------------------------
Total Dipole Moment    :      0.26646       0.24888      -0.53759
                        -----------------------------------------
Magnitude (a.u.)       :      0.64958
Magnitude (Debye)      :      1.65110

Rotational constants in cm-1:     0.021536     0.007765     0.007044
Rotational constants in MHz :   645.645666   232.785016   211.161945

                             ****ORCA TERMINATED NORMALLY****
TOTAL RUN TIME: 0 days 0 hours 0 minutes 34 seconds 764 msec
