                         Program Version 4.2.1 -  RELEASE  -
|  1> ! wB97X-D3 SP def2-SVP
|  2> %pal
|  3> nprocs 16
|  4> end
|  5>
|  6> * xyz 0 1
|  7> S 	 -29.3344 	 57.8662 	 109.312
|  8> C 	 -28.8051 	 58.6456 	 107.82
|  9> C 	 -29.8361 	 59.0828 	 107.013
| 10> C 	 -31.0654 	 59.0768 	 107.739
| 11> C 	 -31.016 	 58.375 	 108.95
| 12> H 	 -31.9801 	 59.571 	 107.53
| 13> C 	 -29.793 	 59.6831 	 105.616
| 14> H 	 -28.7612 	 60.1396 	 105.377
| 15> H 	 -30.4899 	 60.5275 	 105.574
| 16> C 	 -29.9853 	 58.6645 	 104.498
| 17> H 	 -30.8879 	 58.1291 	 104.647
| 18> H 	 -30.1184 	 59.2649 	 103.535
| 19> C 	 -28.8926 	 57.6749 	 104.298
| 20> H 	 -29.1417 	 57.114 	 103.389
| 21> H 	 -27.9687 	 58.1858 	 104.086
| 22> H 	 -28.6806 	 57.1837 	 105.188
| 23> S 	 -31.7356 	 59.0564 	 111.546
| 24> C 	 -33.3867 	 58.6497 	 112.118
| 25> C 	 -34.1469 	 58.2605 	 111.027
| 26> C 	 -33.3638 	 58.0143 	 109.873
| 27> C 	 -32.0653 	 58.4092 	 109.95
| 28> H 	 -35.2175 	 58.0551 	 111.263
| 29> C 	 -34.0244 	 57.4887 	 108.617
| 30> H 	 -34.6613 	 56.619 	 108.862
| 31> H 	 -33.223 	 57.1656 	 108.008
| 32> C 	 -35.0531 	 58.3997 	 107.773
| 33> H 	 -34.4741 	 59.2456 	 107.397
| 34> H 	 -35.7958 	 58.7206 	 108.558
| 35> C 	 -35.8071 	 57.5384 	 106.652
| 36> H 	 -35.1777 	 57.154 	 105.849
| 37> H 	 -36.7461 	 58.0108 	 106.176
| 38> H 	 -36.2427 	 56.6232 	 107.07
| 39> H 	 -27.8514 	 58.5464 	 107.401
| 40> H 	 -33.7999 	 58.8723 	 113.088
| 41> *
| 42>
| 43>                          ****END OF INPUT****

CARTESIAN COORDINATES (ANGSTROEM)
---------------------------------
  S    -29.334400   57.866200  109.312000
  C    -28.805100   58.645600  107.820000
  C    -29.836100   59.082800  107.013000
  C    -31.065400   59.076800  107.739000
  C    -31.016000   58.375000  108.950000
  H    -31.980100   59.571000  107.530000
  C    -29.793000   59.683100  105.616000
  H    -28.761200   60.139600  105.377000
  H    -30.489900   60.527500  105.574000
  C    -29.985300   58.664500  104.498000
  H    -30.887900   58.129100  104.647000
  H    -30.118400   59.264900  103.535000
  C    -28.892600   57.674900  104.298000
  H    -29.141700   57.114000  103.389000
  H    -27.968700   58.185800  104.086000
  H    -28.680600   57.183700  105.188000
  S    -31.735600   59.056400  111.546000
  C    -33.386700   58.649700  112.118000
  C    -34.146900   58.260500  111.027000
  C    -33.363800   58.014300  109.873000
  C    -32.065300   58.409200  109.950000
  H    -35.217500   58.055100  111.263000
  C    -34.024400   57.488700  108.617000
  H    -34.661300   56.619000  108.862000
  H    -33.223000   57.165600  108.008000
  C    -35.053100   58.399700  107.773000
  H    -34.474100   59.245600  107.397000
  H    -35.795800   58.720600  108.558000
  C    -35.807100   57.538400  106.652000
  H    -35.177700   57.154000  105.849000
  H    -36.746100   58.010800  106.176000
  H    -36.242700   56.623200  107.070000
  H    -27.851400   58.546400  107.401000
  H    -33.799900   58.872300  113.088000

 Total Charge           Charge          ....    0
 Multiplicity           Mult            ....    1
 Number of Electrons    NEL             ....  134
 Basis Dimension        Dim             ....  322

ORBITAL ENERGIES
----------------

  NO   OCC          E(Eh)            E(eV)
   0   2.0000     -88.972482     -2421.0643
   1   2.0000     -88.963439     -2420.8182
   2   2.0000     -10.334235      -281.2088
   3   2.0000     -10.325137      -280.9613
   4   2.0000     -10.320754      -280.8420
   5   2.0000     -10.316515      -280.7267
   6   2.0000     -10.306131      -280.4441
   7   2.0000     -10.304258      -280.3931
   8   2.0000     -10.301781      -280.3257
   9   2.0000     -10.299653      -280.2678
  10   2.0000     -10.298032      -280.2237
  11   2.0000     -10.297033      -280.1965
  12   2.0000     -10.292371      -280.0696
  13   2.0000     -10.287837      -279.9463
  14   2.0000     -10.285313      -279.8776
  15   2.0000     -10.269815      -279.4559
  16   2.0000      -8.086051      -220.0326
  17   2.0000      -8.077591      -219.8024
  18   2.0000      -6.044649      -164.4832
  19   2.0000      -6.040820      -164.3791
  20   2.0000      -6.036681      -164.2664
  21   2.0000      -6.036257      -164.2549
  22   2.0000      -6.032169      -164.1437
  23   2.0000      -6.028208      -164.0359
  24   2.0000      -1.006015       -27.3751
  25   2.0000      -0.982836       -26.7443
  26   2.0000      -0.917721       -24.9725
  27   2.0000      -0.894331       -24.3360
  28   2.0000      -0.873243       -23.7621
  29   2.0000      -0.854122       -23.2418
  30   2.0000      -0.841044       -22.8860
  31   2.0000      -0.815322       -22.1860
  32   2.0000      -0.785971       -21.3874
  33   2.0000      -0.770128       -20.9562
  34   2.0000      -0.710004       -19.3202
  35   2.0000      -0.699756       -19.0413
  36   2.0000      -0.696457       -18.9515
  37   2.0000      -0.661676       -18.0051
  38   2.0000      -0.646859       -17.6019
  39   2.0000      -0.618381       -16.8270
  40   2.0000      -0.588907       -16.0250
  41   2.0000      -0.576753       -15.6943
  42   2.0000      -0.563022       -15.3206
  43   2.0000      -0.555300       -15.1105
  44   2.0000      -0.544044       -14.8042
  45   2.0000      -0.520993       -14.1770
  46   2.0000      -0.519223       -14.1288
  47   2.0000      -0.508166       -13.8279
  48   2.0000      -0.501362       -13.6428
  49   2.0000      -0.495591       -13.4857
  50   2.0000      -0.489779       -13.3276
  51   2.0000      -0.476975       -12.9792
  52   2.0000      -0.474103       -12.9010
  53   2.0000      -0.463909       -12.6236
  54   2.0000      -0.458744       -12.4831
  55   2.0000      -0.448011       -12.1910
  56   2.0000      -0.445781       -12.1303
  57   2.0000      -0.437523       -11.9056
  58   2.0000      -0.430368       -11.7109
  59   2.0000      -0.422736       -11.5032
  60   2.0000      -0.420376       -11.4390
  61   2.0000      -0.418987       -11.4012
  62   2.0000      -0.417343       -11.3565
  63   2.0000      -0.348875        -9.4934
  64   2.0000      -0.333727        -9.0812
  65   2.0000      -0.328091        -8.9278
  66   2.0000      -0.296481        -8.0677
  67   0.0000       0.023028         0.6266
  68   0.0000       0.067072         1.8251
  69   0.0000       0.105956         2.8832
  70   0.0000       0.114347         3.1115
  71   0.0000       0.124674         3.3926

MULLIKEN ATOMIC CHARGES
-----------------------
   0 S :    0.114426
   1 C :   -0.084124
   2 C :   -0.076400
   3 C :    0.032551
   4 C :   -0.172770
   5 H :    0.005945
   6 C :    0.032000
   7 H :    0.029535
   8 H :    0.035802
   9 C :   -0.076868
  10 H :    0.017977
  11 H :    0.033270
  12 C :    0.000323
  13 H :    0.045069
  14 H :    0.004193
  15 H :    0.022372
  16 S :    0.095304
  17 C :   -0.101510
  18 C :   -0.049268
  19 C :   -0.026197
  20 C :   -0.130549
  21 H :    0.040416
  22 C :    0.039623
  23 H :    0.020667
  24 H :    0.019423
  25 C :   -0.066601
  26 H :    0.039326
  27 H :    0.040612
  28 C :   -0.085692
  29 H :    0.040316
  30 H :    0.050167
  31 H :    0.025086
  32 H :    0.028725
  33 H :    0.056854
Sum of atomic charges:    0.0000000

LOEWDIN ATOMIC CHARGES
----------------------
   0 S :    0.387682
   1 C :   -0.178137
   2 C :   -0.062928
   3 C :   -0.042343
   4 C :   -0.182856
   5 H :    0.026545
   6 C :   -0.035240
   7 H :    0.035792
   8 H :    0.033010
   9 C :   -0.042887
  10 H :    0.015863
  11 H :    0.030833
  12 C :   -0.058304
  13 H :    0.036485
  14 H :    0.020121
  15 H :    0.016690
  16 S :    0.382753
  17 C :   -0.168063
  18 C :   -0.074241
  19 C :   -0.066195
  20 C :   -0.197325
  21 H :    0.041454
  22 C :   -0.033976
  23 H :    0.029936
  24 H :    0.019194
  25 C :   -0.033416
  26 H :    0.019246
  27 H :    0.029897
  28 C :   -0.081533
  29 H :    0.025659
  30 H :    0.037394
  31 H :    0.024707
  32 H :    0.015470
  33 H :    0.028714

  Mayer bond orders larger than 0.100000
B(  0-S ,  1-C ) :   1.1348 B(  0-S ,  4-C ) :   1.1282 B(  1-C ,  2-C ) :   1.6324
B(  1-C , 32-H ) :   0.9623 B(  2-C ,  3-C ) :   1.2144 B(  2-C ,  6-C ) :   1.0180
B(  3-C ,  4-C ) :   1.5856 B(  3-C ,  5-H ) :   0.9909 B(  4-C , 20-C ) :   1.0511
B(  6-C ,  7-H ) :   0.9451 B(  6-C ,  8-H ) :   0.9439 B(  6-C ,  9-C ) :   1.0691
B(  9-C , 10-H ) :   0.9521 B(  9-C , 11-H ) :   0.9530 B(  9-C , 12-C ) :   1.0871
B( 12-C , 13-H ) :   0.9693 B( 12-C , 14-H ) :   0.9677 B( 12-C , 15-H ) :   0.9714
B( 16-S , 17-C ) :   1.1405 B( 16-S , 20-C ) :   1.1223 B( 17-C , 18-C ) :   1.6313
B( 17-C , 33-H ) :   0.9673 B( 18-C , 19-C ) :   1.2140 B( 18-C , 21-H ) :   0.9833
B( 19-C , 20-C ) :   1.6184 B( 19-C , 22-C ) :   1.0639 B( 22-C , 23-H ) :   0.9347
B( 22-C , 24-H ) :   0.9286 B( 22-C , 25-C ) :   1.0464 B( 25-C , 26-H ) :   0.9602
B( 25-C , 27-H ) :   0.9571 B( 25-C , 28-C ) :   1.0567 B( 28-C , 29-H ) :   0.9795
B( 28-C , 30-H ) :   0.9770 B( 28-C , 31-H ) :   0.9739

Dispersion correction           -0.014310726
FINAL SINGLE POINT ENERGY     -1339.864096651241

DIPOLE MOMENT
-------------
                                X             Y             Z
Electronic contribution:     11.15364       2.44082      28.27256
Nuclear contribution   :    -11.55250      -2.36424     -28.84326
                        -----------------------------------------
Total Dipole Moment    :     -0.39886       0.07658      -0.57070
                        -----------------------------------------
Magnitude (a.u.)       :      0.70046
Magnitude (Debye)      :      1.78043

Rotational constants in cm-1:     0.017311     0.009353     0.006523
Rotational constants in MHz :   518.975520   280.407970   195.568425

                             ****ORCA TERMINATED NORMALLY****
TOTAL RUN TIME: 0 days 0 hours 0 minutes 29 seconds 954 msec
