                         Program Version 4.2.1 -  RELEASE  -
|  1> ! wB97X-D3 SP def2-SVP
|  2> %pal
|  3> nprocs 16
|  4> end
|  5>
|  6> * xyz 0 1
|  7> S 	 46.8801 	 7.58583 	 89.5722
|  8> C 	 47.3284 	 7.78362 	 91.2785
|  9> C 	 46.8808 	 8.98133 	 91.8469
| 10> C 	 46.2367 	 9.73108 	 90.8667
| 11> C 	 46.1371 	 9.16096 	 89.6113
| 12> H 	 45.8623 	 10.7034 	 91.0765
| 13> C 	 46.9904 	 9.44601 	 93.2603
| 14> H 	 47.339 	 8.60402 	 93.796
| 15> H 	 45.9982 	 9.67325 	 93.6062
| 16> C 	 48.0368 	 10.577 	 93.4737
| 17> H 	 47.9092 	 10.97 	 94.5755
| 18> H 	 49.0785 	 10.2646 	 93.3208
| 19> C 	 47.8878 	 11.8612 	 92.6776
| 20> H 	 46.921 	 12.2637 	 92.878
| 21> H 	 48.6251 	 12.5724 	 93.0307
| 22> H 	 47.7657 	 11.7752 	 91.6039
| 23> S 	 46.3199 	 9.5193 	 86.911
| 24> C 	 45.0662 	 10.424 	 86.1241
| 25> C 	 44.1501 	 10.9282 	 87.0034
| 26> C 	 44.3375 	 10.4808 	 88.3502
| 27> C 	 45.4937 	 9.74016 	 88.4253
| 28> H 	 43.336 	 11.5439 	 86.672
| 29> C 	 43.3219 	 10.833 	 89.4854
| 30> H 	 42.6252 	 11.5577 	 89.0701
| 31> H 	 43.8654 	 11.2698 	 90.3477
| 32> C 	 42.6014 	 9.5405 	 90.0309
| 33> H 	 43.2869 	 8.69514 	 90.1549
| 34> H 	 41.7323 	 9.32593 	 89.3769
| 35> C 	 42.0031 	 9.84845 	 91.3824
| 36> H 	 41.3019 	 10.6937 	 91.3347
| 37> H 	 42.7971 	 10.0962 	 92.0351
| 38> H 	 41.487 	 9.00983 	 91.8401
| 39> H 	 47.9871 	 7.13835 	 91.7668
| 40> H 	 45.1088 	 10.5591 	 85.0644
| 41> *
| 42>
| 43>                          ****END OF INPUT****

CARTESIAN COORDINATES (ANGSTROEM)
---------------------------------
  S     46.880100    7.585830   89.572200
  C     47.328400    7.783620   91.278500
  C     46.880800    8.981330   91.846900
  C     46.236700    9.731080   90.866700
  C     46.137100    9.160960   89.611300
  H     45.862300   10.703400   91.076500
  C     46.990400    9.446010   93.260300
  H     47.339000    8.604020   93.796000
  H     45.998200    9.673250   93.606200
  C     48.036800   10.577000   93.473700
  H     47.909200   10.970000   94.575500
  H     49.078500   10.264600   93.320800
  C     47.887800   11.861200   92.677600
  H     46.921000   12.263700   92.878000
  H     48.625100   12.572400   93.030700
  H     47.765700   11.775200   91.603900
  S     46.319900    9.519300   86.911000
  C     45.066200   10.424000   86.124100
  C     44.150100   10.928200   87.003400
  C     44.337500   10.480800   88.350200
  C     45.493700    9.740160   88.425300
  H     43.336000   11.543900   86.672000
  C     43.321900   10.833000   89.485400
  H     42.625200   11.557700   89.070100
  H     43.865400   11.269800   90.347700
  C     42.601400    9.540500   90.030900
  H     43.286900    8.695140   90.154900
  H     41.732300    9.325930   89.376900
  C     42.003100    9.848450   91.382400
  H     41.301900   10.693700   91.334700
  H     42.797100   10.096200   92.035100
  H     41.487000    9.009830   91.840100
  H     47.987100    7.138350   91.766800
  H     45.108800   10.559100   85.064400

 Total Charge           Charge          ....    0
 Multiplicity           Mult            ....    1
 Number of Electrons    NEL             ....  134
 Basis Dimension        Dim             ....  322

ORBITAL ENERGIES
----------------

  NO   OCC          E(Eh)            E(eV)
   0   2.0000     -88.969093     -2420.9721
   1   2.0000     -88.965083     -2420.8630
   2   2.0000     -10.326766      -281.0056
   3   2.0000     -10.322359      -280.8857
   4   2.0000     -10.312377      -280.6141
   5   2.0000     -10.311437      -280.5885
   6   2.0000     -10.302800      -280.3534
   7   2.0000     -10.301571      -280.3200
   8   2.0000     -10.298405      -280.2338
   9   2.0000     -10.297248      -280.2024
  10   2.0000     -10.292395      -280.0703
  11   2.0000     -10.291426      -280.0439
  12   2.0000     -10.286467      -279.9090
  13   2.0000     -10.285023      -279.8697
  14   2.0000     -10.271220      -279.4941
  15   2.0000     -10.270318      -279.4696
  16   2.0000      -8.083403      -219.9606
  17   2.0000      -8.080600      -219.8843
  18   2.0000      -6.041815      -164.4061
  19   2.0000      -6.038949      -164.3282
  20   2.0000      -6.038059      -164.3039
  21   2.0000      -6.035119      -164.2239
  22   2.0000      -6.034219      -164.1995
  23   2.0000      -6.031379      -164.1222
  24   2.0000      -1.008969       -27.4554
  25   2.0000      -0.986121       -26.8337
  26   2.0000      -0.915072       -24.9004
  27   2.0000      -0.906052       -24.6549
  28   2.0000      -0.867104       -23.5951
  29   2.0000      -0.855275       -23.2732
  30   2.0000      -0.847871       -23.0717
  31   2.0000      -0.816340       -22.2137
  32   2.0000      -0.787418       -21.4267
  33   2.0000      -0.772629       -21.0243
  34   2.0000      -0.703040       -19.1307
  35   2.0000      -0.698911       -19.0183
  36   2.0000      -0.688563       -18.7368
  37   2.0000      -0.666713       -18.1422
  38   2.0000      -0.640432       -17.4270
  39   2.0000      -0.623953       -16.9786
  40   2.0000      -0.596910       -16.2428
  41   2.0000      -0.573452       -15.6044
  42   2.0000      -0.571427       -15.5493
  43   2.0000      -0.549251       -14.9459
  44   2.0000      -0.544266       -14.8102
  45   2.0000      -0.521513       -14.1911
  46   2.0000      -0.516413       -14.0523
  47   2.0000      -0.511256       -13.9120
  48   2.0000      -0.509644       -13.8681
  49   2.0000      -0.493874       -13.4390
  50   2.0000      -0.489188       -13.3115
  51   2.0000      -0.485780       -13.2187
  52   2.0000      -0.473653       -12.8888
  53   2.0000      -0.464155       -12.6303
  54   2.0000      -0.459263       -12.4972
  55   2.0000      -0.450822       -12.2675
  56   2.0000      -0.441332       -12.0093
  57   2.0000      -0.438438       -11.9305
  58   2.0000      -0.430273       -11.7083
  59   2.0000      -0.429080       -11.6759
  60   2.0000      -0.423520       -11.5246
  61   2.0000      -0.422380       -11.4935
  62   2.0000      -0.411877       -11.2077
  63   2.0000      -0.346048        -9.4164
  64   2.0000      -0.336057        -9.1446
  65   2.0000      -0.333376        -9.0716
  66   2.0000      -0.286438        -7.7944
  67   0.0000       0.027125         0.7381
  68   0.0000       0.078056         2.1240
  69   0.0000       0.101716         2.7678
  70   0.0000       0.111725         3.0402
  71   0.0000       0.143189         3.8964

MULLIKEN ATOMIC CHARGES
-----------------------
   0 S :    0.111552
   1 C :   -0.110699
   2 C :   -0.100159
   3 C :    0.006317
   4 C :   -0.133319
   5 H :   -0.017195
   6 C :    0.141093
   7 H :    0.006819
   8 H :    0.033290
   9 C :   -0.116311
  10 H :    0.043194
  11 H :    0.039335
  12 C :   -0.045397
  13 H :    0.002734
  14 H :    0.042674
  15 H :    0.045545
  16 S :    0.108870
  17 C :   -0.086150
  18 C :   -0.024597
  19 C :   -0.035244
  20 C :   -0.157639
  21 H :    0.009263
  22 C :    0.069514
  23 H :    0.022992
  24 H :    0.027461
  25 C :   -0.079069
  26 H :    0.056017
  27 H :    0.036823
  28 C :   -0.038127
  29 H :    0.025882
  30 H :    0.012294
  31 H :    0.032642
  32 H :    0.020575
  33 H :    0.049021
Sum of atomic charges:   -0.0000000

LOEWDIN ATOMIC CHARGES
----------------------
   0 S :    0.400696
   1 C :   -0.183492
   2 C :   -0.058449
   3 C :   -0.067530
   4 C :   -0.193354
   5 H :    0.020194
   6 C :   -0.025097
   7 H :    0.029921
   8 H :    0.033371
   9 C :   -0.040384
  10 H :    0.036622
  11 H :    0.026149
  12 C :   -0.074669
  13 H :    0.016381
  14 H :    0.031216
  15 H :    0.025222
  16 S :    0.411703
  17 C :   -0.183230
  18 C :   -0.068266
  19 C :   -0.055132
  20 C :   -0.201744
  21 H :    0.028538
  22 C :   -0.021872
  23 H :    0.029568
  24 H :    0.028217
  25 C :   -0.035748
  26 H :    0.030544
  27 H :    0.027958
  28 C :   -0.064923
  29 H :    0.023879
  30 H :    0.014414
  31 H :    0.025564
  32 H :    0.011211
  33 H :    0.022522

  Mayer bond orders larger than 0.100000
B(  0-S ,  1-C ) :   1.1393 B(  0-S ,  4-C ) :   1.1539 B(  1-C ,  2-C ) :   1.5937
B(  1-C ,  4-C ) :   0.1045 B(  1-C , 32-H ) :   0.9704 B(  2-C ,  3-C ) :   1.2701
B(  2-C ,  6-C ) :   1.0187 B(  3-C ,  4-C ) :   1.5515 B(  3-C ,  5-H ) :   0.9951
B(  4-C , 20-C ) :   1.0357 B(  6-C ,  7-H ) :   0.9241 B(  6-C ,  8-H ) :   0.9404
B(  6-C ,  9-C ) :   1.0685 B(  9-C , 10-H ) :   0.9558 B(  9-C , 11-H ) :   0.9574
B(  9-C , 12-C ) :   1.0875 B( 12-C , 13-H ) :   0.9678 B( 12-C , 14-H ) :   0.9699
B( 12-C , 15-H ) :   0.9637 B( 16-S , 17-C ) :   1.1499 B( 16-S , 20-C ) :   1.1521
B( 17-C , 18-C ) :   1.6063 B( 17-C , 33-H ) :   0.9732 B( 18-C , 19-C ) :   1.2439
B( 18-C , 21-H ) :   0.9918 B( 19-C , 20-C ) :   1.6066 B( 19-C , 22-C ) :   1.0291
B( 22-C , 23-H ) :   0.9303 B( 22-C , 24-H ) :   0.9453 B( 22-C , 25-C ) :   1.0540
B( 25-C , 26-H ) :   0.9617 B( 25-C , 27-H ) :   0.9544 B( 25-C , 28-C ) :   1.0873
B( 28-C , 29-H ) :   0.9715 B( 28-C , 30-H ) :   0.9746 B( 28-C , 31-H ) :   0.9716

Dispersion correction           -0.015180861
FINAL SINGLE POINT ENERGY     -1339.884656266143

DIPOLE MOMENT
-------------
                                X             Y             Z
Electronic contribution:      9.29055     -12.33359     -22.93428
Nuclear contribution   :     -9.57686      12.70280      23.35634
                        -----------------------------------------
Total Dipole Moment    :     -0.28631       0.36921       0.42206
                        -----------------------------------------
Magnitude (a.u.)       :      0.62962
Magnitude (Debye)      :      1.60036

Rotational constants in cm-1:     0.017233     0.009872     0.008138
Rotational constants in MHz :   516.624989   295.954107   243.969306

                             ****ORCA TERMINATED NORMALLY****
TOTAL RUN TIME: 0 days 0 hours 0 minutes 31 seconds 856 msec
