                         Program Version 4.2.1 -  RELEASE  -
|  1> ! wB97X-D3 SP def2-SVP
|  2> %pal
|  3> nprocs 16
|  4> end
|  5>
|  6> * xyz 0 1
|  7> S 	 -9.41448 	 -5.37851 	 85.5737
|  8> C 	 -9.05973 	 -5.39018 	 87.2441
|  9> C 	 -10.25 	 -5.45055 	 87.9017
| 10> C 	 -11.397 	 -5.50931 	 87.0545
| 11> C 	 -11.1364 	 -5.41975 	 85.7238
| 12> H 	 -12.4246 	 -5.67612 	 87.3582
| 13> C 	 -10.2888 	 -5.54657 	 89.3526
| 14> H 	 -9.30534 	 -5.54861 	 89.7567
| 15> H 	 -10.7436 	 -6.44129 	 89.6465
| 16> C 	 -10.8258 	 -4.42329 	 90.2202
| 17> H 	 -10.0604 	 -3.67491 	 90.2501
| 18> H 	 -11.7553 	 -3.95164 	 89.8081
| 19> C 	 -11.0883 	 -5.07872 	 91.614
| 20> H 	 -10.1981 	 -5.58894 	 91.9977
| 21> H 	 -11.3833 	 -4.34166 	 92.3326
| 22> H 	 -11.9199 	 -5.79251 	 91.6513
| 23> S 	 -13.071 	 -4.10519 	 84.2319
| 24> C 	 -14.044 	 -5.13817 	 83.1052
| 25> C 	 -13.8053 	 -6.46286 	 83.3315
| 26> C 	 -12.6901 	 -6.69061 	 84.1733
| 27> C 	 -12.1543 	 -5.53454 	 84.6947
| 28> H 	 -14.4669 	 -7.19948 	 82.9205
| 29> C 	 -12.3143 	 -8.08438 	 84.4722
| 30> H 	 -11.6426 	 -8.15341 	 85.3139
| 31> H 	 -11.7616 	 -8.65949 	 83.6408
| 32> C 	 -13.486 	 -9.05414 	 84.8602
| 33> H 	 -14.414 	 -8.93354 	 84.3141
| 34> H 	 -13.7769 	 -8.68309 	 85.848
| 35> C 	 -13.0584 	 -10.5601 	 84.7943
| 36> H 	 -13.7917 	 -11.103 	 85.3577
| 37> H 	 -12.1234 	 -10.648 	 85.3229
| 38> H 	 -12.8691 	 -10.8787 	 83.7813
| 39> H 	 -8.01276 	 -5.39037 	 87.5877
| 40> H 	 -14.8013 	 -4.84042 	 82.3733
| 41> *
| 42>
| 43>                          ****END OF INPUT****

CARTESIAN COORDINATES (ANGSTROEM)
---------------------------------
  S     -9.414480   -5.378510   85.573700
  C     -9.059730   -5.390180   87.244100
  C    -10.250000   -5.450550   87.901700
  C    -11.397000   -5.509310   87.054500
  C    -11.136400   -5.419750   85.723800
  H    -12.424600   -5.676120   87.358200
  C    -10.288800   -5.546570   89.352600
  H     -9.305340   -5.548610   89.756700
  H    -10.743600   -6.441290   89.646500
  C    -10.825800   -4.423290   90.220200
  H    -10.060400   -3.674910   90.250100
  H    -11.755300   -3.951640   89.808100
  C    -11.088300   -5.078720   91.614000
  H    -10.198100   -5.588940   91.997700
  H    -11.383300   -4.341660   92.332600
  H    -11.919900   -5.792510   91.651300
  S    -13.071000   -4.105190   84.231900
  C    -14.044000   -5.138170   83.105200
  C    -13.805300   -6.462860   83.331500
  C    -12.690100   -6.690610   84.173300
  C    -12.154300   -5.534540   84.694700
  H    -14.466900   -7.199480   82.920500
  C    -12.314300   -8.084380   84.472200
  H    -11.642600   -8.153410   85.313900
  H    -11.761600   -8.659490   83.640800
  C    -13.486000   -9.054140   84.860200
  H    -14.414000   -8.933540   84.314100
  H    -13.776900   -8.683090   85.848000
  C    -13.058400  -10.560100   84.794300
  H    -13.791700  -11.103000   85.357700
  H    -12.123400  -10.648000   85.322900
  H    -12.869100  -10.878700   83.781300
  H     -8.012760   -5.390370   87.587700
  H    -14.801300   -4.840420   82.373300

 Total Charge           Charge          ....    0
 Multiplicity           Mult            ....    1
 Number of Electrons    NEL             ....  134
 Basis Dimension        Dim             ....  322

ORBITAL ENERGIES
----------------

  NO   OCC          E(Eh)            E(eV)
   0   2.0000     -88.968148     -2420.9464
   1   2.0000     -88.958084     -2420.6725
   2   2.0000     -10.326679      -281.0032
   3   2.0000     -10.322425      -280.8875
   4   2.0000     -10.321444      -280.8608
   5   2.0000     -10.312576      -280.6195
   6   2.0000     -10.300078      -280.2794
   7   2.0000     -10.292747      -280.0799
   8   2.0000     -10.292244      -280.0662
   9   2.0000     -10.289525      -279.9922
  10   2.0000     -10.288929      -279.9760
  11   2.0000     -10.288486      -279.9639
  12   2.0000     -10.286550      -279.9113
  13   2.0000     -10.279009      -279.7061
  14   2.0000     -10.279007      -279.7060
  15   2.0000     -10.272324      -279.5242
  16   2.0000      -8.081706      -219.9144
  17   2.0000      -8.074202      -219.7102
  18   2.0000      -6.040388      -164.3673
  19   2.0000      -6.036535      -164.2625
  20   2.0000      -6.032590      -164.1551
  21   2.0000      -6.032180      -164.1440
  22   2.0000      -6.028288      -164.0381
  23   2.0000      -6.025190      -163.9538
  24   2.0000      -1.013618       -27.5820
  25   2.0000      -0.989128       -26.9155
  26   2.0000      -0.919715       -25.0267
  27   2.0000      -0.905186       -24.6314
  28   2.0000      -0.877012       -23.8647
  29   2.0000      -0.849083       -23.1047
  30   2.0000      -0.846024       -23.0215
  31   2.0000      -0.821090       -22.3430
  32   2.0000      -0.779559       -21.2129
  33   2.0000      -0.768164       -20.9028
  34   2.0000      -0.709980       -19.3195
  35   2.0000      -0.702218       -19.1083
  36   2.0000      -0.697017       -18.9668
  37   2.0000      -0.660232       -17.9658
  38   2.0000      -0.650415       -17.6987
  39   2.0000      -0.622201       -16.9310
  40   2.0000      -0.602200       -16.3867
  41   2.0000      -0.576916       -15.6987
  42   2.0000      -0.565149       -15.3785
  43   2.0000      -0.559525       -15.2254
  44   2.0000      -0.527156       -14.3446
  45   2.0000      -0.525691       -14.3048
  46   2.0000      -0.518449       -14.1077
  47   2.0000      -0.515377       -14.0241
  48   2.0000      -0.508901       -13.8479
  49   2.0000      -0.504052       -13.7160
  50   2.0000      -0.490501       -13.3472
  51   2.0000      -0.477143       -12.9837
  52   2.0000      -0.469607       -12.7786
  53   2.0000      -0.465785       -12.6747
  54   2.0000      -0.460074       -12.5192
  55   2.0000      -0.453910       -12.3515
  56   2.0000      -0.445786       -12.1305
  57   2.0000      -0.436531       -11.8786
  58   2.0000      -0.432079       -11.7575
  59   2.0000      -0.425597       -11.5811
  60   2.0000      -0.420106       -11.4317
  61   2.0000      -0.414799       -11.2873
  62   2.0000      -0.404213       -10.9992
  63   2.0000      -0.334977        -9.1152
  64   2.0000      -0.333611        -9.0780
  65   2.0000      -0.318244        -8.6599
  66   2.0000      -0.311556        -8.4779
  67   0.0000       0.045309         1.2329
  68   0.0000       0.057598         1.5673
  69   0.0000       0.103262         2.8099
  70   0.0000       0.122317         3.3284
  71   0.0000       0.132205         3.5975

MULLIKEN ATOMIC CHARGES
-----------------------
   0 S :    0.102601
   1 C :   -0.138517
   2 C :   -0.053091
   3 C :    0.041349
   4 C :   -0.172059
   5 H :    0.009756
   6 C :    0.076794
   7 H :   -0.005138
   8 H :    0.013294
   9 C :   -0.061308
  10 H :    0.023595
  11 H :    0.034626
  12 C :   -0.061492
  13 H :    0.030616
  14 H :    0.024617
  15 H :    0.034975
  16 S :    0.109141
  17 C :   -0.091995
  18 C :   -0.035937
  19 C :    0.035782
  20 C :   -0.181042
  21 H :    0.019310
  22 C :    0.043807
  23 H :    0.025048
  24 H :    0.042880
  25 C :   -0.127571
  26 H :    0.026910
  27 H :    0.023809
  28 C :   -0.018733
  29 H :    0.037234
  30 H :    0.023003
  31 H :    0.040909
  32 H :    0.068200
  33 H :    0.058627
Sum of atomic charges:    0.0000000

LOEWDIN ATOMIC CHARGES
----------------------
   0 S :    0.426401
   1 C :   -0.204072
   2 C :   -0.074267
   3 C :   -0.060079
   4 C :   -0.211204
   5 H :    0.031537
   6 C :   -0.036610
   7 H :    0.027981
   8 H :    0.022714
   9 C :   -0.029692
  10 H :    0.019410
  11 H :    0.023662
  12 C :   -0.064912
  13 H :    0.025339
  14 H :    0.021097
  15 H :    0.026911
  16 S :    0.381807
  17 C :   -0.164458
  18 C :   -0.064682
  19 C :   -0.055580
  20 C :   -0.193994
  21 H :    0.031374
  22 C :   -0.038767
  23 H :    0.027483
  24 H :    0.038678
  25 C :   -0.039260
  26 H :    0.015343
  27 H :    0.022085
  28 C :   -0.056658
  29 H :    0.027703
  30 H :    0.023817
  31 H :    0.026294
  32 H :    0.039779
  33 H :    0.034817

  Mayer bond orders larger than 0.100000
B(  0-S ,  1-C ) :   1.1589 B(  0-S ,  4-C ) :   1.1550 B(  1-C ,  2-C ) :   1.5680
B(  1-C , 32-H ) :   0.9738 B(  2-C ,  3-C ) :   1.2384 B(  2-C ,  6-C ) :   1.0459
B(  3-C ,  4-C ) :   1.5702 B(  3-C ,  5-H ) :   1.0038 B(  4-C , 20-C ) :   1.0159
B(  6-C ,  7-H ) :   0.9361 B(  6-C ,  8-H ) :   0.9410 B(  6-C ,  9-C ) :   1.0457
B(  9-C , 10-H ) :   0.9604 B(  9-C , 11-H ) :   0.9606 B(  9-C , 12-C ) :   1.0734
B( 12-C , 13-H ) :   0.9732 B( 12-C , 14-H ) :   0.9728 B( 12-C , 15-H ) :   0.9769
B( 16-S , 17-C ) :   1.1297 B( 16-S , 20-C ) :   1.1293 B( 17-C , 18-C ) :   1.6524
B( 17-C , 33-H ) :   0.9627 B( 18-C , 19-C ) :   1.2173 B( 18-C , 21-H ) :   0.9878
B( 19-C , 20-C ) :   1.6165 B( 19-C , 22-C ) :   1.0585 B( 22-C , 23-H ) :   0.9278
B( 22-C , 24-H ) :   0.9369 B( 22-C , 25-C ) :   1.0363 B( 25-C , 26-H ) :   0.9609
B( 25-C , 27-H ) :   0.9582 B( 25-C , 28-C ) :   1.0752 B( 28-C , 29-H ) :   0.9733
B( 28-C , 30-H ) :   0.9748 B( 28-C , 31-H ) :   0.9750

Dispersion correction           -0.013729529
FINAL SINGLE POINT ENERGY     -1339.864482079702

DIPOLE MOMENT
-------------
                                X             Y             Z
Electronic contribution:      4.49816      16.67656     -19.21292
Nuclear contribution   :     -4.76750     -17.22574      19.63166
                        -----------------------------------------
Total Dipole Moment    :     -0.26934      -0.54918       0.41874
                        -----------------------------------------
Magnitude (a.u.)       :      0.74127
Magnitude (Debye)      :      1.88417

Rotational constants in cm-1:     0.017269     0.007801     0.006832
Rotational constants in MHz :   517.704559   233.867984   204.822944

                             ****ORCA TERMINATED NORMALLY****
TOTAL RUN TIME: 0 days 0 hours 0 minutes 33 seconds 277 msec
