                         Program Version 4.2.1 -  RELEASE  -
|  1> ! wB97X-D3 SP def2-SVP
|  2> %pal
|  3> nprocs 16
|  4> end
|  5>
|  6> * xyz 0 1
|  7> S 	 -57.3535 	 53.2104 	 135.613
|  8> C 	 -57.5512 	 54.9424 	 135.563
|  9> C 	 -57.9217 	 55.4875 	 136.798
| 10> C 	 -58.2594 	 54.4065 	 137.673
| 11> C 	 -58.0525 	 53.1221 	 137.176
| 12> H 	 -58.4474 	 54.4283 	 138.704
| 13> C 	 -58.1223 	 56.9521 	 137.058
| 14> H 	 -57.1471 	 57.4658 	 137.068
| 15> H 	 -58.5426 	 57.1719 	 138.057
| 16> C 	 -59.1403 	 57.598 	 136.048
| 17> H 	 -58.6778 	 57.4521 	 135.06
| 18> H 	 -60.0925 	 57.0433 	 136.078
| 19> C 	 -59.603 	 59.0461 	 136.332
| 20> H 	 -58.7386 	 59.6238 	 136.391
| 21> H 	 -60.2905 	 59.518 	 135.576
| 22> H 	 -59.995 	 59.0774 	 137.357
| 23> S 	 -56.3883 	 51.3044 	 138.15
| 24> C 	 -56.8677 	 50.1043 	 139.37
| 25> C 	 -58.1733 	 50.2147 	 139.616
| 26> C 	 -58.775 	 51.2285 	 138.84
| 27> C 	 -57.9422 	 51.9029 	 137.973
| 28> H 	 -58.6842 	 49.6569 	 140.36
| 29> C 	 -60.2522 	 51.6349 	 139.036
| 30> H 	 -60.401 	 52.6824 	 138.638
| 31> H 	 -60.3473 	 51.6892 	 140.118
| 32> C 	 -61.2459 	 50.6944 	 138.502
| 33> H 	 -61.1768 	 49.7295 	 138.965
| 34> H 	 -61.0116 	 50.429 	 137.432
| 35> C 	 -62.6278 	 51.2486 	 138.689
| 36> H 	 -62.8308 	 52.0707 	 137.999
| 37> H 	 -62.7915 	 51.6215 	 139.729
| 38> H 	 -63.4086 	 50.4749 	 138.539
| 39> H 	 -57.3226 	 55.615 	 134.715
| 40> H 	 -56.1735 	 49.4529 	 139.893
| 41> *
| 42>
| 43>                          ****END OF INPUT****

CARTESIAN COORDINATES (ANGSTROEM)
---------------------------------
  S    -57.353500   53.210400  135.613000
  C    -57.551200   54.942400  135.563000
  C    -57.921700   55.487500  136.798000
  C    -58.259400   54.406500  137.673000
  C    -58.052500   53.122100  137.176000
  H    -58.447400   54.428300  138.704000
  C    -58.122300   56.952100  137.058000
  H    -57.147100   57.465800  137.068000
  H    -58.542600   57.171900  138.057000
  C    -59.140300   57.598000  136.048000
  H    -58.677800   57.452100  135.060000
  H    -60.092500   57.043300  136.078000
  C    -59.603000   59.046100  136.332000
  H    -58.738600   59.623800  136.391000
  H    -60.290500   59.518000  135.576000
  H    -59.995000   59.077400  137.357000
  S    -56.388300   51.304400  138.150000
  C    -56.867700   50.104300  139.370000
  C    -58.173300   50.214700  139.616000
  C    -58.775000   51.228500  138.840000
  C    -57.942200   51.902900  137.973000
  H    -58.684200   49.656900  140.360000
  C    -60.252200   51.634900  139.036000
  H    -60.401000   52.682400  138.638000
  H    -60.347300   51.689200  140.118000
  C    -61.245900   50.694400  138.502000
  H    -61.176800   49.729500  138.965000
  H    -61.011600   50.429000  137.432000
  C    -62.627800   51.248600  138.689000
  H    -62.830800   52.070700  137.999000
  H    -62.791500   51.621500  139.729000
  H    -63.408600   50.474900  138.539000
  H    -57.322600   55.615000  134.715000
  H    -56.173500   49.452900  139.893000

 Total Charge           Charge          ....    0
 Multiplicity           Mult            ....    1
 Number of Electrons    NEL             ....  134
 Basis Dimension        Dim             ....  322

ORBITAL ENERGIES
----------------

  NO   OCC          E(Eh)            E(eV)
   0   2.0000     -88.970379     -2421.0071
   1   2.0000     -88.959007     -2420.6977
   2   2.0000     -10.327077      -281.0141
   3   2.0000     -10.318962      -280.7932
   4   2.0000     -10.317778      -280.7610
   5   2.0000     -10.313916      -280.6559
   6   2.0000     -10.306188      -280.4456
   7   2.0000     -10.300594      -280.2934
   8   2.0000     -10.295036      -280.1422
   9   2.0000     -10.292872      -280.0833
  10   2.0000     -10.291612      -280.0490
  11   2.0000     -10.286953      -279.9222
  12   2.0000     -10.285752      -279.8895
  13   2.0000     -10.280666      -279.7511
  14   2.0000     -10.277198      -279.6568
  15   2.0000     -10.277097      -279.6540
  16   2.0000      -8.085517      -220.0181
  17   2.0000      -8.075244      -219.7385
  18   2.0000      -6.043904      -164.4630
  19   2.0000      -6.039924      -164.3547
  20   2.0000      -6.036412      -164.2591
  21   2.0000      -6.033659      -164.1842
  22   2.0000      -6.029472      -164.0703
  23   2.0000      -6.026021      -163.9764
  24   2.0000      -1.017789       -27.6954
  25   2.0000      -0.991323       -26.9753
  26   2.0000      -0.915528       -24.9128
  27   2.0000      -0.911580       -24.8054
  28   2.0000      -0.876051       -23.8386
  29   2.0000      -0.851747       -23.1772
  30   2.0000      -0.845903       -23.0182
  31   2.0000      -0.818918       -22.2839
  32   2.0000      -0.782267       -21.2866
  33   2.0000      -0.766082       -20.8461
  34   2.0000      -0.704823       -19.1792
  35   2.0000      -0.699035       -19.0217
  36   2.0000      -0.692015       -18.8307
  37   2.0000      -0.667619       -18.1668
  38   2.0000      -0.644987       -17.5510
  39   2.0000      -0.615575       -16.7506
  40   2.0000      -0.597803       -16.2670
  41   2.0000      -0.578561       -15.7435
  42   2.0000      -0.565272       -15.3818
  43   2.0000      -0.561049       -15.2669
  44   2.0000      -0.526543       -14.3280
  45   2.0000      -0.523418       -14.2429
  46   2.0000      -0.522566       -14.2197
  47   2.0000      -0.513019       -13.9600
  48   2.0000      -0.504339       -13.7238
  49   2.0000      -0.501308       -13.6413
  50   2.0000      -0.496943       -13.5225
  51   2.0000      -0.478961       -13.0332
  52   2.0000      -0.471033       -12.8175
  53   2.0000      -0.466159       -12.6848
  54   2.0000      -0.459279       -12.4976
  55   2.0000      -0.452230       -12.3058
  56   2.0000      -0.445629       -12.1262
  57   2.0000      -0.438857       -11.9419
  58   2.0000      -0.436527       -11.8785
  59   2.0000      -0.422851       -11.5064
  60   2.0000      -0.416614       -11.3366
  61   2.0000      -0.411575       -11.1995
  62   2.0000      -0.404934       -11.0188
  63   2.0000      -0.354195        -9.6381
  64   2.0000      -0.331997        -9.0341
  65   2.0000      -0.324634        -8.8337
  66   2.0000      -0.295750        -8.0478
  67   0.0000       0.037137         1.0105
  68   0.0000       0.067508         1.8370
  69   0.0000       0.112311         3.0561
  70   0.0000       0.126386         3.4391
  71   0.0000       0.134378         3.6566

MULLIKEN ATOMIC CHARGES
-----------------------
   0 S :    0.127442
   1 C :   -0.135615
   2 C :   -0.071901
   3 C :    0.059919
   4 C :   -0.166923
   5 H :   -0.003465
   6 C :    0.058785
   7 H :    0.044392
   8 H :    0.017493
   9 C :   -0.120337
  10 H :    0.029646
  11 H :    0.042897
  12 C :   -0.027902
  13 H :    0.008797
  14 H :    0.056758
  15 H :    0.028891
  16 S :    0.093086
  17 C :   -0.089460
  18 C :    0.006140
  19 C :   -0.081701
  20 C :   -0.132273
  21 H :    0.004601
  22 C :    0.044657
  23 H :    0.029995
  24 H :    0.016792
  25 C :   -0.051833
  26 H :    0.012098
  27 H :    0.033773
  28 C :   -0.048676
  29 H :    0.037823
  30 H :    0.026551
  31 H :    0.032683
  32 H :    0.060744
  33 H :    0.056120
Sum of atomic charges:   -0.0000000

LOEWDIN ATOMIC CHARGES
----------------------
   0 S :    0.434943
   1 C :   -0.203144
   2 C :   -0.060242
   3 C :   -0.054793
   4 C :   -0.212087
   5 H :    0.022032
   6 C :   -0.035311
   7 H :    0.035713
   8 H :    0.029705
   9 C :   -0.040528
  10 H :    0.019072
  11 H :    0.028849
  12 C :   -0.068340
  13 H :    0.013077
  14 H :    0.038239
  15 H :    0.027888
  16 S :    0.422547
  17 C :   -0.172290
  18 C :   -0.068428
  19 C :   -0.064757
  20 C :   -0.225031
  21 H :    0.029517
  22 C :   -0.034478
  23 H :    0.033720
  24 H :    0.026671
  25 C :   -0.051525
  26 H :    0.019148
  27 H :    0.031620
  28 C :   -0.066753
  29 H :    0.026197
  30 H :    0.027317
  31 H :    0.027344
  32 H :    0.032860
  33 H :    0.031248

  Mayer bond orders larger than 0.100000
B(  0-S ,  1-C ) :   1.1603 B(  0-S ,  4-C ) :   1.1633 B(  1-C ,  2-C ) :   1.5753
B(  1-C , 32-H ) :   0.9639 B(  2-C ,  3-C ) :   1.2688 B(  2-C ,  6-C ) :   1.0325
B(  3-C ,  4-C ) :   1.5560 B(  3-C ,  5-H ) :   0.9942 B(  4-C , 20-C ) :   1.0031
B(  6-C ,  7-H ) :   0.9315 B(  6-C ,  8-H ) :   0.9469 B(  6-C ,  9-C ) :   1.0507
B(  9-C , 10-H ) :   0.9570 B(  9-C , 11-H ) :   0.9626 B(  9-C , 12-C ) :   1.0773
B( 12-C , 13-H ) :   0.9733 B( 12-C , 14-H ) :   0.9742 B( 12-C , 15-H ) :   0.9717
B( 16-S , 17-C ) :   1.1513 B( 16-S , 20-C ) :   1.1583 B( 17-C , 18-C ) :   1.5950
B( 17-C , 33-H ) :   0.9697 B( 18-C , 19-C ) :   1.2616 B( 18-C , 21-H ) :   1.0009
B( 19-C , 20-C ) :   1.6088 B( 19-C , 22-C ) :   1.0272 B( 22-C , 23-H ) :   0.9401
B( 22-C , 24-H ) :   0.9273 B( 22-C , 25-C ) :   1.0795 B( 25-C , 26-H ) :   0.9467
B( 25-C , 27-H ) :   0.9482 B( 25-C , 28-C ) :   1.0887 B( 28-C , 29-H ) :   0.9746
B( 28-C , 30-H ) :   0.9695 B( 28-C , 31-H ) :   0.9726

Dispersion correction           -0.013398121
FINAL SINGLE POINT ENERGY     -1339.877130180113

DIPOLE MOMENT
-------------
                                X             Y             Z
Electronic contribution:     22.47903     -16.00309      -4.26795
Nuclear contribution   :    -22.73606      16.38468       4.67859
                        -----------------------------------------
Total Dipole Moment    :     -0.25702       0.38159       0.41064
                        -----------------------------------------
Magnitude (a.u.)       :      0.61668
Magnitude (Debye)      :      1.56747

Rotational constants in cm-1:     0.018870     0.007812     0.006209
Rotational constants in MHz :   565.712219   234.191901   186.143130

                             ****ORCA TERMINATED NORMALLY****
TOTAL RUN TIME: 0 days 0 hours 0 minutes 33 seconds 705 msec
