                         Program Version 4.2.1 -  RELEASE  -
|  1> ! wB97X-D3 SP def2-SVP
|  2> %pal
|  3> nprocs 16
|  4> end
|  5>
|  6> * xyz 0 1
|  7> S 	 -33.4034 	 52.9874 	 104.216
|  8> C 	 -32.822 	 52.1329 	 102.816
|  9> C 	 -32.503 	 52.9992 	 101.756
| 10> C 	 -32.7712 	 54.3413 	 102.127
| 11> C 	 -33.2548 	 54.5105 	 103.418
| 12> H 	 -32.5726 	 55.281 	 101.559
| 13> C 	 -32.0254 	 52.642 	 100.346
| 14> H 	 -31.6606 	 51.6115 	 100.447
| 15> H 	 -31.2346 	 53.3038 	 99.8863
| 16> C 	 -33.1171 	 52.6865 	 99.3372
| 17> H 	 -34.0406 	 52.2533 	 99.7229
| 18> H 	 -33.296 	 53.721 	 99.1212
| 19> C 	 -32.9099 	 52.0417 	 97.9351
| 20> H 	 -33.7832 	 51.9195 	 97.3584
| 21> H 	 -32.2927 	 52.5981 	 97.2176
| 22> H 	 -32.3834 	 51.0945 	 98.0561
| 23> S 	 -32.7533 	 55.866 	 105.703
| 24> C 	 -33.3259 	 57.5273 	 105.922
| 25> C 	 -33.9305 	 57.9846 	 104.819
| 26> C 	 -34.0921 	 56.9779 	 103.807
| 27> C 	 -33.5006 	 55.7677 	 104.126
| 28> H 	 -34.2179 	 59.0229 	 104.752
| 29> C 	 -34.7018 	 57.3025 	 102.445
| 30> H 	 -34.7899 	 56.4658 	 101.766
| 31> H 	 -34.0832 	 58.1358 	 101.964
| 32> C 	 -36.0904 	 58.0411 	 102.61
| 33> H 	 -35.8668 	 59.0341 	 102.987
| 34> H 	 -36.5877 	 57.4446 	 103.386
| 35> C 	 -36.9826 	 58.3495 	 101.353
| 36> H 	 -37.2243 	 57.398 	 100.874
| 37> H 	 -36.4801 	 58.8972 	 100.593
| 38> H 	 -37.8798 	 58.8657 	 101.673
| 39> H 	 -32.7642 	 51.0522 	 102.788
| 40> H 	 -33.3067 	 58.1414 	 106.854
| 41> *
| 42>
| 43>                          ****END OF INPUT****

CARTESIAN COORDINATES (ANGSTROEM)
---------------------------------
  S    -33.403400   52.987400  104.216000
  C    -32.822000   52.132900  102.816000
  C    -32.503000   52.999200  101.756000
  C    -32.771200   54.341300  102.127000
  C    -33.254800   54.510500  103.418000
  H    -32.572600   55.281000  101.559000
  C    -32.025400   52.642000  100.346000
  H    -31.660600   51.611500  100.447000
  H    -31.234600   53.303800   99.886300
  C    -33.117100   52.686500   99.337200
  H    -34.040600   52.253300   99.722900
  H    -33.296000   53.721000   99.121200
  C    -32.909900   52.041700   97.935100
  H    -33.783200   51.919500   97.358400
  H    -32.292700   52.598100   97.217600
  H    -32.383400   51.094500   98.056100
  S    -32.753300   55.866000  105.703000
  C    -33.325900   57.527300  105.922000
  C    -33.930500   57.984600  104.819000
  C    -34.092100   56.977900  103.807000
  C    -33.500600   55.767700  104.126000
  H    -34.217900   59.022900  104.752000
  C    -34.701800   57.302500  102.445000
  H    -34.789900   56.465800  101.766000
  H    -34.083200   58.135800  101.964000
  C    -36.090400   58.041100  102.610000
  H    -35.866800   59.034100  102.987000
  H    -36.587700   57.444600  103.386000
  C    -36.982600   58.349500  101.353000
  H    -37.224300   57.398000  100.874000
  H    -36.480100   58.897200  100.593000
  H    -37.879800   58.865700  101.673000
  H    -32.764200   51.052200  102.788000
  H    -33.306700   58.141400  106.854000

 Total Charge           Charge          ....    0
 Multiplicity           Mult            ....    1
 Number of Electrons    NEL             ....  134
 Basis Dimension        Dim             ....  322

ORBITAL ENERGIES
----------------

  NO   OCC          E(Eh)            E(eV)
   0   2.0000     -88.970546     -2421.0116
   1   2.0000     -88.962218     -2420.7850
   2   2.0000     -10.329095      -281.0690
   3   2.0000     -10.328019      -281.0397
   4   2.0000     -10.320012      -280.8218
   5   2.0000     -10.317121      -280.7431
   6   2.0000     -10.308572      -280.5105
   7   2.0000     -10.305543      -280.4281
   8   2.0000     -10.298487      -280.2361
   9   2.0000     -10.298042      -280.2240
  10   2.0000     -10.296634      -280.1857
  11   2.0000     -10.290961      -280.0313
  12   2.0000     -10.287894      -279.9478
  13   2.0000     -10.282307      -279.7958
  14   2.0000     -10.278574      -279.6942
  15   2.0000     -10.276610      -279.6408
  16   2.0000      -8.085690      -220.0228
  17   2.0000      -8.077040      -219.7874
  18   2.0000      -6.044117      -164.4688
  19   2.0000      -6.040036      -164.3577
  20   2.0000      -6.036610      -164.2645
  21   2.0000      -6.035702      -164.2398
  22   2.0000      -6.031580      -164.1276
  23   2.0000      -6.027560      -164.0182
  24   2.0000      -1.010461       -27.4960
  25   2.0000      -0.987187       -26.8627
  26   2.0000      -0.916833       -24.9483
  27   2.0000      -0.899022       -24.4636
  28   2.0000      -0.872949       -23.7542
  29   2.0000      -0.851160       -23.1612
  30   2.0000      -0.842714       -22.9314
  31   2.0000      -0.817203       -22.2372
  32   2.0000      -0.786360       -21.3979
  33   2.0000      -0.772823       -21.0296
  34   2.0000      -0.705941       -19.2096
  35   2.0000      -0.695043       -18.9131
  36   2.0000      -0.693219       -18.8634
  37   2.0000      -0.656871       -17.8744
  38   2.0000      -0.644430       -17.5358
  39   2.0000      -0.620034       -16.8720
  40   2.0000      -0.593352       -16.1459
  41   2.0000      -0.579252       -15.7622
  42   2.0000      -0.564017       -15.3477
  43   2.0000      -0.561442       -15.2776
  44   2.0000      -0.528581       -14.3834
  45   2.0000      -0.521084       -14.1794
  46   2.0000      -0.520101       -14.1527
  47   2.0000      -0.507420       -13.8076
  48   2.0000      -0.504971       -13.7410
  49   2.0000      -0.498266       -13.5585
  50   2.0000      -0.492318       -13.3967
  51   2.0000      -0.484663       -13.1883
  52   2.0000      -0.474930       -12.9235
  53   2.0000      -0.465665       -12.6714
  54   2.0000      -0.459834       -12.5127
  55   2.0000      -0.454882       -12.3780
  56   2.0000      -0.448145       -12.1946
  57   2.0000      -0.439109       -11.9488
  58   2.0000      -0.421830       -11.4786
  59   2.0000      -0.419954       -11.4275
  60   2.0000      -0.418245       -11.3810
  61   2.0000      -0.416303       -11.3282
  62   2.0000      -0.413535       -11.2529
  63   2.0000      -0.351935        -9.5766
  64   2.0000      -0.335207        -9.1214
  65   2.0000      -0.327633        -8.9154
  66   2.0000      -0.293143        -7.9768
  67   0.0000       0.029537         0.8037
  68   0.0000       0.075317         2.0495
  69   0.0000       0.107051         2.9130
  70   0.0000       0.120178         3.2702
  71   0.0000       0.128957         3.5091

MULLIKEN ATOMIC CHARGES
-----------------------
   0 S :    0.127340
   1 C :   -0.128066
   2 C :   -0.077445
   3 C :    0.011717
   4 C :   -0.162588
   5 H :    0.031533
   6 C :    0.080518
   7 H :    0.014947
   8 H :    0.043755
   9 C :   -0.074379
  10 H :    0.030249
  11 H :    0.019703
  12 C :   -0.040742
  13 H :    0.028360
  14 H :    0.019348
  15 H :    0.024413
  16 S :    0.087854
  17 C :   -0.095449
  18 C :   -0.033912
  19 C :   -0.031806
  20 C :   -0.142626
  21 H :    0.022578
  22 C :    0.050565
  23 H :    0.027648
  24 H :    0.040731
  25 C :   -0.141603
  26 H :    0.026747
  27 H :    0.043234
  28 C :   -0.013919
  29 H :    0.026070
  30 H :    0.022434
  31 H :    0.043148
  32 H :    0.049776
  33 H :    0.069869
Sum of atomic charges:   -0.0000000

LOEWDIN ATOMIC CHARGES
----------------------
   0 S :    0.430077
   1 C :   -0.199162
   2 C :   -0.059070
   3 C :   -0.066239
   4 C :   -0.208292
   5 H :    0.039532
   6 C :   -0.033014
   7 H :    0.027785
   8 H :    0.041349
   9 C :   -0.043347
  10 H :    0.025056
  11 H :    0.020528
  12 C :   -0.066789
  13 H :    0.023132
  14 H :    0.023606
  15 H :    0.023259
  16 S :    0.389036
  17 C :   -0.181194
  18 C :   -0.071636
  19 C :   -0.061505
  20 C :   -0.194143
  21 H :    0.033721
  22 C :   -0.034946
  23 H :    0.023207
  24 H :    0.038470
  25 C :   -0.043604
  26 H :    0.016890
  27 H :    0.024594
  28 C :   -0.060973
  29 H :    0.024305
  30 H :    0.019826
  31 H :    0.030302
  32 H :    0.026780
  33 H :    0.042459

  Mayer bond orders larger than 0.100000
B(  0-S ,  1-C ) :   1.1566 B(  0-S ,  4-C ) :   1.1667 B(  1-C ,  2-C ) :   1.5800
B(  1-C ,  4-C ) :   0.1043 B(  1-C , 32-H ) :   0.9694 B(  2-C ,  3-C ) :   1.2548
B(  2-C ,  6-C ) :   1.0309 B(  3-C ,  4-C ) :   1.5624 B(  3-C ,  5-H ) :   0.9860
B(  4-C , 20-C ) :   1.0280 B(  6-C ,  7-H ) :   0.9318 B(  6-C ,  8-H ) :   0.9437
B(  6-C ,  9-C ) :   1.0690 B(  9-C , 10-H ) :   0.9562 B(  9-C , 11-H ) :   0.9544
B(  9-C , 12-C ) :   1.0795 B( 12-C , 13-H ) :   0.9756 B( 12-C , 14-H ) :   0.9740
B( 12-C , 15-H ) :   0.9760 B( 16-S , 17-C ) :   1.1295 B( 16-S , 20-C ) :   1.1312
B( 17-C , 18-C ) :   1.6592 B( 17-C , 33-H ) :   0.9579 B( 18-C , 19-C ) :   1.2044
B( 18-C , 21-H ) :   0.9891 B( 19-C , 20-C ) :   1.6234 B( 19-C , 22-C ) :   1.0556
B( 22-C , 23-H ) :   0.9429 B( 22-C , 24-H ) :   0.9378 B( 22-C , 25-C ) :   1.0374
B( 25-C , 26-H ) :   0.9561 B( 25-C , 27-H ) :   0.9666 B( 25-C , 28-C ) :   1.0794
B( 28-C , 29-H ) :   0.9756 B( 28-C , 30-H ) :   0.9736 B( 28-C , 31-H ) :   0.9749

Dispersion correction           -0.013316738
FINAL SINGLE POINT ENERGY     -1339.879346858575

DIPOLE MOMENT
-------------
                                X             Y             Z
Electronic contribution:      9.24579      -4.97237      29.25717
Nuclear contribution   :     -9.37667       5.26795     -29.86456
                        -----------------------------------------
Total Dipole Moment    :     -0.13088       0.29558      -0.60740
                        -----------------------------------------
Magnitude (a.u.)       :      0.68806
Magnitude (Debye)      :      1.74891

Rotational constants in cm-1:     0.016724     0.008439     0.006069
Rotational constants in MHz :   501.366980   252.991337   181.937509

                             ****ORCA TERMINATED NORMALLY****
TOTAL RUN TIME: 0 days 0 hours 0 minutes 28 seconds 894 msec
