                         Program Version 4.2.1 -  RELEASE  -
|  1> ! wB97X-D3 SP def2-SVP
|  2> %pal
|  3> nprocs 16
|  4> end
|  5>
|  6> * xyz 0 1
|  7> S 	 -45.1169 	 58.69 	 96.1197
|  8> C 	 -45.9505 	 59.3473 	 97.4847
|  9> C 	 -46.1915 	 58.2828 	 98.4367
| 10> C 	 -46.0261 	 57.0214 	 97.8484
| 11> C 	 -45.5887 	 57.0567 	 96.5192
| 12> H 	 -46.2733 	 56.0615 	 98.275
| 13> C 	 -46.7913 	 58.3756 	 99.8558
| 14> H 	 -46.1864 	 57.5663 	 100.384
| 15> H 	 -47.8371 	 58.0672 	 99.9436
| 16> C 	 -46.7363 	 59.7317 	 100.667
| 17> H 	 -45.7185 	 60.127 	 100.936
| 18> H 	 -47.1151 	 60.4689 	 100.046
| 19> C 	 -47.4663 	 59.5712 	 102.059
| 20> H 	 -47.2796 	 60.4171 	 102.653
| 21> H 	 -48.5698 	 59.3973 	 101.909
| 22> H 	 -47.1912 	 58.6159 	 102.475
| 23> S 	 -45.8276 	 56.0294 	 94.0324
| 24> C 	 -45.5704 	 54.3013 	 93.7843
| 25> C 	 -45.0262 	 53.6794 	 94.9024
| 26> C 	 -44.7931 	 54.6129 	 95.9515
| 27> C 	 -45.3314 	 55.8839 	 95.6826
| 28> H 	 -44.825 	 52.6643 	 94.8399
| 29> C 	 -44.1548 	 54.1594 	 97.314
| 30> H 	 -44.5133 	 53.1749 	 97.6099
| 31> H 	 -44.4044 	 54.7871 	 98.1861
| 32> C 	 -42.6426 	 54.1122 	 97.3288
| 33> H 	 -42.3774 	 53.2084 	 96.7123
| 34> H 	 -42.362 	 53.9944 	 98.3481
| 35> C 	 -42.0379 	 55.437 	 96.8891
| 36> H 	 -42.4965 	 56.2274 	 97.4828
| 37> H 	 -42.1774 	 55.7566 	 95.9074
| 38> H 	 -40.976 	 55.2802 	 97.1122
| 39> H 	 -46.158 	 60.4388 	 97.5907
| 40> H 	 -46.0923 	 53.702 	 93.1019
| 41> *
| 42>
| 43>                          ****END OF INPUT****

CARTESIAN COORDINATES (ANGSTROEM)
---------------------------------
  S    -45.116900   58.690000   96.119700
  C    -45.950500   59.347300   97.484700
  C    -46.191500   58.282800   98.436700
  C    -46.026100   57.021400   97.848400
  C    -45.588700   57.056700   96.519200
  H    -46.273300   56.061500   98.275000
  C    -46.791300   58.375600   99.855800
  H    -46.186400   57.566300  100.384000
  H    -47.837100   58.067200   99.943600
  C    -46.736300   59.731700  100.667000
  H    -45.718500   60.127000  100.936000
  H    -47.115100   60.468900  100.046000
  C    -47.466300   59.571200  102.059000
  H    -47.279600   60.417100  102.653000
  H    -48.569800   59.397300  101.909000
  H    -47.191200   58.615900  102.475000
  S    -45.827600   56.029400   94.032400
  C    -45.570400   54.301300   93.784300
  C    -45.026200   53.679400   94.902400
  C    -44.793100   54.612900   95.951500
  C    -45.331400   55.883900   95.682600
  H    -44.825000   52.664300   94.839900
  C    -44.154800   54.159400   97.314000
  H    -44.513300   53.174900   97.609900
  H    -44.404400   54.787100   98.186100
  C    -42.642600   54.112200   97.328800
  H    -42.377400   53.208400   96.712300
  H    -42.362000   53.994400   98.348100
  C    -42.037900   55.437000   96.889100
  H    -42.496500   56.227400   97.482800
  H    -42.177400   55.756600   95.907400
  H    -40.976000   55.280200   97.112200
  H    -46.158000   60.438800   97.590700
  H    -46.092300   53.702000   93.101900

 Total Charge           Charge          ....    0
 Multiplicity           Mult            ....    1
 Number of Electrons    NEL             ....  134
 Basis Dimension        Dim             ....  322

ORBITAL ENERGIES
----------------

  NO   OCC          E(Eh)            E(eV)
   0   2.0000     -88.968672     -2420.9607
   1   2.0000     -88.968136     -2420.9461
   2   2.0000     -10.330575      -281.1092
   3   2.0000     -10.330201      -281.0990
   4   2.0000     -10.322515      -280.8899
   5   2.0000     -10.314013      -280.6585
   6   2.0000     -10.311537      -280.5912
   7   2.0000     -10.310701      -280.5684
   8   2.0000     -10.303704      -280.3780
   9   2.0000     -10.294252      -280.1208
  10   2.0000     -10.292282      -280.0672
  11   2.0000     -10.291002      -280.0324
  12   2.0000     -10.290450      -280.0174
  13   2.0000     -10.282234      -279.7938
  14   2.0000     -10.280922      -279.7581
  15   2.0000     -10.264539      -279.3123
  16   2.0000      -8.083463      -219.9622
  17   2.0000      -8.083050      -219.9510
  18   2.0000      -6.041875      -164.4078
  19   2.0000      -6.041461      -164.3965
  20   2.0000      -6.037973      -164.3016
  21   2.0000      -6.037504      -164.2888
  22   2.0000      -6.034327      -164.2024
  23   2.0000      -6.033914      -164.1912
  24   2.0000      -1.007343       -27.4112
  25   2.0000      -0.984095       -26.7786
  26   2.0000      -0.910664       -24.7804
  27   2.0000      -0.901047       -24.5187
  28   2.0000      -0.868827       -23.6420
  29   2.0000      -0.853958       -23.2374
  30   2.0000      -0.844938       -22.9919
  31   2.0000      -0.809448       -22.0262
  32   2.0000      -0.782204       -21.2849
  33   2.0000      -0.769091       -20.9280
  34   2.0000      -0.711215       -19.3531
  35   2.0000      -0.698601       -19.0099
  36   2.0000      -0.685390       -18.6504
  37   2.0000      -0.664531       -18.0828
  38   2.0000      -0.642198       -17.4751
  39   2.0000      -0.617680       -16.8079
  40   2.0000      -0.594188       -16.1687
  41   2.0000      -0.568912       -15.4809
  42   2.0000      -0.557067       -15.1586
  43   2.0000      -0.555773       -15.1234
  44   2.0000      -0.549376       -14.9493
  45   2.0000      -0.527599       -14.3567
  46   2.0000      -0.521601       -14.1935
  47   2.0000      -0.507259       -13.8032
  48   2.0000      -0.502138       -13.6639
  49   2.0000      -0.497043       -13.5252
  50   2.0000      -0.492503       -13.4017
  51   2.0000      -0.482867       -13.1395
  52   2.0000      -0.468248       -12.7417
  53   2.0000      -0.461520       -12.5586
  54   2.0000      -0.456385       -12.4189
  55   2.0000      -0.451813       -12.2945
  56   2.0000      -0.446573       -12.1519
  57   2.0000      -0.435291       -11.8449
  58   2.0000      -0.422065       -11.4850
  59   2.0000      -0.420857       -11.4521
  60   2.0000      -0.420626       -11.4458
  61   2.0000      -0.416139       -11.3237
  62   2.0000      -0.412664       -11.2291
  63   2.0000      -0.348303        -9.4778
  64   2.0000      -0.334022        -9.0892
  65   2.0000      -0.329204        -8.9581
  66   2.0000      -0.284550        -7.7430
  67   0.0000       0.018513         0.5038
  68   0.0000       0.063896         1.7387
  69   0.0000       0.102857         2.7989
  70   0.0000       0.116741         3.1767
  71   0.0000       0.132212         3.5977

MULLIKEN ATOMIC CHARGES
-----------------------
   0 S :    0.121085
   1 C :   -0.157177
   2 C :   -0.039284
   3 C :    0.005414
   4 C :   -0.120471
   5 H :    0.016561
   6 C :   -0.017890
   7 H :    0.041442
   8 H :    0.046050
   9 C :   -0.067137
  10 H :    0.034015
  11 H :    0.017271
  12 C :   -0.044384
  13 H :    0.039927
  14 H :    0.031603
  15 H :    0.026085
  16 S :    0.112374
  17 C :   -0.066905
  18 C :   -0.038444
  19 C :   -0.007061
  20 C :   -0.185537
  21 H :    0.003443
  22 C :    0.042290
  23 H :    0.017610
  24 H :    0.014480
  25 C :   -0.070554
  26 H :    0.031985
  27 H :    0.021832
  28 C :   -0.027974
  29 H :    0.025867
  30 H :    0.032671
  31 H :    0.036432
  32 H :    0.075869
  33 H :    0.048512
Sum of atomic charges:    0.0000000

LOEWDIN ATOMIC CHARGES
----------------------
   0 S :    0.419000
   1 C :   -0.220631
   2 C :   -0.061031
   3 C :   -0.065566
   4 C :   -0.199313
   5 H :    0.030809
   6 C :   -0.038886
   7 H :    0.039159
   8 H :    0.033336
   9 C :   -0.037824
  10 H :    0.028194
  11 H :    0.009546
  12 C :   -0.060346
  13 H :    0.021091
  14 H :    0.029096
  15 H :    0.024058
  16 S :    0.416881
  17 C :   -0.178977
  18 C :   -0.053139
  19 C :   -0.050625
  20 C :   -0.204179
  21 H :    0.023682
  22 C :   -0.036272
  23 H :    0.025310
  24 H :    0.025780
  25 C :   -0.038985
  26 H :    0.024128
  27 H :    0.022093
  28 C :   -0.059518
  29 H :    0.028490
  30 H :    0.016499
  31 H :    0.030211
  32 H :    0.037010
  33 H :    0.020918

  Mayer bond orders larger than 0.100000
B(  0-S ,  1-C ) :   1.1614 B(  0-S ,  4-C ) :   1.1671 B(  1-C ,  2-C ) :   1.5213
B(  1-C ,  4-C ) :   0.1156 B(  1-C , 32-H ) :   0.9698 B(  2-C ,  3-C ) :   1.2918
B(  2-C ,  6-C ) :   1.0078 B(  3-C ,  4-C ) :   1.5302 B(  3-C ,  5-H ) :   0.9982
B(  4-C , 20-C ) :   1.0473 B(  6-C ,  7-H ) :   0.9437 B(  6-C ,  8-H ) :   0.9522
B(  6-C ,  9-C ) :   1.0523 B(  9-C , 10-H ) :   0.9617 B(  9-C , 11-H ) :   0.9564
B(  9-C , 12-C ) :   1.0735 B( 12-C , 13-H ) :   0.9763 B( 12-C , 14-H ) :   0.9749
B( 12-C , 15-H ) :   0.9767 B( 16-S , 17-C ) :   1.1532 B( 16-S , 20-C ) :   1.1580
B( 17-C , 18-C ) :   1.6177 B( 17-C , 20-C ) :   0.1027 B( 17-C , 33-H ) :   0.9648
B( 18-C , 19-C ) :   1.2372 B( 18-C , 21-H ) :   1.0003 B( 19-C , 20-C ) :   1.5632
B( 19-C , 22-C ) :   1.0227 B( 22-C , 23-H ) :   0.9415 B( 22-C , 24-H ) :   0.9421
B( 22-C , 25-C ) :   1.0872 B( 25-C , 26-H ) :   0.9542 B( 25-C , 27-H ) :   0.9546
B( 25-C , 28-C ) :   1.0749 B( 28-C , 29-H ) :   0.9710 B( 28-C , 30-H ) :   0.9735
B( 28-C , 31-H ) :   0.9756

Dispersion correction           -0.014559502
FINAL SINGLE POINT ENERGY     -1339.847828103364

DIPOLE MOMENT
-------------
                                X             Y             Z
Electronic contribution:     -3.45963       1.30121     -26.32778
Nuclear contribution   :      3.31654      -1.64434      26.92300
                        -----------------------------------------
Total Dipole Moment    :     -0.14309      -0.34312       0.59522
                        -----------------------------------------
Magnitude (a.u.)       :      0.70178
Magnitude (Debye)      :      1.78378

Rotational constants in cm-1:     0.021958     0.007490     0.006558
Rotational constants in MHz :   658.272950   224.551869   196.615491

                             ****ORCA TERMINATED NORMALLY****
TOTAL RUN TIME: 0 days 0 hours 0 minutes 29 seconds 958 msec
