                         Program Version 4.2.1 -  RELEASE  -
|  1> ! wB97X-D3 SP def2-SVP
|  2> %pal
|  3> nprocs 16
|  4> end
|  5>
|  6> * xyz 0 1
|  7> S 	 -66.2867 	 39.0288 	 117.387
|  8> C 	 -66.9791 	 38.4505 	 118.919
|  9> C 	 -67.591 	 37.2956 	 118.786
| 10> C 	 -67.4558 	 36.773 	 117.444
| 11> C 	 -66.6891 	 37.5565 	 116.551
| 12> H 	 -68.005 	 35.8609 	 117.154
| 13> C 	 -68.448 	 36.6052 	 119.841
| 14> H 	 -69.4353 	 36.8677 	 119.725
| 15> H 	 -68.2224 	 37.0694 	 120.842
| 16> C 	 -68.4353 	 35.0361 	 119.958
| 17> H 	 -68.9637 	 34.6561 	 120.832
| 18> H 	 -69.0643 	 34.7164 	 119.059
| 19> C 	 -66.9948 	 34.502 	 119.856
| 20> H 	 -66.4401 	 34.6649 	 118.923
| 21> H 	 -66.3396 	 34.9736 	 120.498
| 22> H 	 -67.094 	 33.4668 	 120.158
| 23> S 	 -66.771 	 38.3043 	 113.93
| 24> C 	 -66.1912 	 37.1726 	 112.691
| 25> C 	 -65.8844 	 35.9273 	 113.242
| 26> C 	 -65.8463 	 36.0263 	 114.697
| 27> C 	 -66.3559 	 37.2201 	 115.194
| 28> H 	 -65.7635 	 35.0104 	 112.686
| 29> C 	 -65.5694 	 34.8387 	 115.617
| 30> H 	 -66.47 	 34.3976 	 116.017
| 31> H 	 -65.0166 	 35.1671 	 116.504
| 32> C 	 -64.9051 	 33.5507 	 114.993
| 33> H 	 -65.4256 	 33.3056 	 114.084
| 34> H 	 -65.0235 	 32.7286 	 115.647
| 35> C 	 -63.3789 	 33.6424 	 114.664
| 36> H 	 -62.7502 	 33.5402 	 115.542
| 37> H 	 -63.1773 	 34.542 	 114.088
| 38> H 	 -63.0868 	 32.8082 	 113.943
| 39> H 	 -66.9305 	 39.0277 	 119.86
| 40> H 	 -66.2326 	 37.3929 	 111.678
| 41> *
| 42>
| 43>                          ****END OF INPUT****

CARTESIAN COORDINATES (ANGSTROEM)
---------------------------------
  S    -66.286700   39.028800  117.387000
  C    -66.979100   38.450500  118.919000
  C    -67.591000   37.295600  118.786000
  C    -67.455800   36.773000  117.444000
  C    -66.689100   37.556500  116.551000
  H    -68.005000   35.860900  117.154000
  C    -68.448000   36.605200  119.841000
  H    -69.435300   36.867700  119.725000
  H    -68.222400   37.069400  120.842000
  C    -68.435300   35.036100  119.958000
  H    -68.963700   34.656100  120.832000
  H    -69.064300   34.716400  119.059000
  C    -66.994800   34.502000  119.856000
  H    -66.440100   34.664900  118.923000
  H    -66.339600   34.973600  120.498000
  H    -67.094000   33.466800  120.158000
  S    -66.771000   38.304300  113.930000
  C    -66.191200   37.172600  112.691000
  C    -65.884400   35.927300  113.242000
  C    -65.846300   36.026300  114.697000
  C    -66.355900   37.220100  115.194000
  H    -65.763500   35.010400  112.686000
  C    -65.569400   34.838700  115.617000
  H    -66.470000   34.397600  116.017000
  H    -65.016600   35.167100  116.504000
  C    -64.905100   33.550700  114.993000
  H    -65.425600   33.305600  114.084000
  H    -65.023500   32.728600  115.647000
  C    -63.378900   33.642400  114.664000
  H    -62.750200   33.540200  115.542000
  H    -63.177300   34.542000  114.088000
  H    -63.086800   32.808200  113.943000
  H    -66.930500   39.027700  119.860000
  H    -66.232600   37.392900  111.678000

 Total Charge           Charge          ....    0
 Multiplicity           Mult            ....    1
 Number of Electrons    NEL             ....  134
 Basis Dimension        Dim             ....  322

ORBITAL ENERGIES
----------------

  NO   OCC          E(Eh)            E(eV)
   0   2.0000     -88.966856     -2420.9112
   1   2.0000     -88.964723     -2420.8532
   2   2.0000     -10.332724      -281.1677
   3   2.0000     -10.324030      -280.9311
   4   2.0000     -10.319531      -280.8087
   5   2.0000     -10.313395      -280.6417
   6   2.0000     -10.306969      -280.4669
   7   2.0000     -10.302699      -280.3507
   8   2.0000     -10.299070      -280.2519
   9   2.0000     -10.298925      -280.2480
  10   2.0000     -10.298150      -280.2269
  11   2.0000     -10.292318      -280.0682
  12   2.0000     -10.291312      -280.0408
  13   2.0000     -10.285411      -279.8803
  14   2.0000     -10.278892      -279.7029
  15   2.0000     -10.270814      -279.4830
  16   2.0000      -8.081915      -219.9201
  17   2.0000      -8.079409      -219.8519
  18   2.0000      -6.040475      -164.3697
  19   2.0000      -6.038114      -164.3054
  20   2.0000      -6.036352      -164.2575
  21   2.0000      -6.033918      -164.1913
  22   2.0000      -6.032617      -164.1559
  23   2.0000      -6.029958      -164.0835
  24   2.0000      -1.008263       -27.4362
  25   2.0000      -0.985105       -26.8061
  26   2.0000      -0.909792       -24.7567
  27   2.0000      -0.900032       -24.4911
  28   2.0000      -0.874924       -23.8079
  29   2.0000      -0.845271       -23.0010
  30   2.0000      -0.840571       -22.8731
  31   2.0000      -0.812998       -22.1228
  32   2.0000      -0.789162       -21.4742
  33   2.0000      -0.774588       -21.0776
  34   2.0000      -0.712423       -19.3860
  35   2.0000      -0.700551       -19.0629
  36   2.0000      -0.698211       -18.9993
  37   2.0000      -0.659696       -17.9512
  38   2.0000      -0.634740       -17.2722
  39   2.0000      -0.622086       -16.9278
  40   2.0000      -0.601674       -16.3724
  41   2.0000      -0.567073       -15.4308
  42   2.0000      -0.551277       -15.0010
  43   2.0000      -0.545632       -14.8474
  44   2.0000      -0.541551       -14.7363
  45   2.0000      -0.539489       -14.6803
  46   2.0000      -0.522334       -14.2134
  47   2.0000      -0.509411       -13.8618
  48   2.0000      -0.505070       -13.7437
  49   2.0000      -0.498223       -13.5573
  50   2.0000      -0.492739       -13.4081
  51   2.0000      -0.486806       -13.2467
  52   2.0000      -0.471961       -12.8427
  53   2.0000      -0.466220       -12.6865
  54   2.0000      -0.455810       -12.4032
  55   2.0000      -0.452462       -12.3121
  56   2.0000      -0.450716       -12.2646
  57   2.0000      -0.428698       -11.6655
  58   2.0000      -0.427561       -11.6345
  59   2.0000      -0.424289       -11.5455
  60   2.0000      -0.421512       -11.4699
  61   2.0000      -0.415310       -11.3012
  62   2.0000      -0.408822       -11.1246
  63   2.0000      -0.348311        -9.4780
  64   2.0000      -0.331644        -9.0245
  65   2.0000      -0.326335        -8.8800
  66   2.0000      -0.294546        -8.0150
  67   0.0000       0.026946         0.7332
  68   0.0000       0.070106         1.9077
  69   0.0000       0.106159         2.8887
  70   0.0000       0.121003         3.2927
  71   0.0000       0.133949         3.6449

MULLIKEN ATOMIC CHARGES
-----------------------
   0 S :    0.105248
   1 C :   -0.153901
   2 C :   -0.058735
   3 C :    0.007253
   4 C :   -0.155971
   5 H :    0.023647
   6 C :    0.085510
   7 H :    0.021298
   8 H :    0.017653
   9 C :   -0.115660
  10 H :    0.040973
  11 H :    0.036691
  12 C :   -0.013469
  13 H :    0.034841
  14 H :    0.009143
  15 H :    0.033943
  16 S :    0.110391
  17 C :   -0.068062
  18 C :   -0.033336
  19 C :   -0.043524
  20 C :   -0.131313
  21 H :    0.030854
  22 C :    0.033405
  23 H :    0.036902
  24 H :    0.044686
  25 C :   -0.062683
  26 H :    0.016996
  27 H :    0.019052
  28 C :   -0.071294
  29 H :    0.039739
  30 H :    0.035645
  31 H :    0.032745
  32 H :    0.054508
  33 H :    0.036824
Sum of atomic charges:    0.0000000

LOEWDIN ATOMIC CHARGES
----------------------
   0 S :    0.393067
   1 C :   -0.182109
   2 C :   -0.072566
   3 C :   -0.057937
   4 C :   -0.201223
   5 H :    0.031131
   6 C :   -0.029756
   7 H :    0.021533
   8 H :    0.031540
   9 C :   -0.039760
  10 H :    0.028473
  11 H :    0.027686
  12 C :   -0.067452
  13 H :    0.031575
  14 H :    0.016252
  15 H :    0.027794
  16 S :    0.414915
  17 C :   -0.163934
  18 C :   -0.063539
  19 C :   -0.052649
  20 C :   -0.214004
  21 H :    0.033102
  22 C :   -0.034758
  23 H :    0.030515
  24 H :    0.034154
  25 C :   -0.036057
  26 H :    0.017605
  27 H :    0.019971
  28 C :   -0.071917
  29 H :    0.023279
  30 H :    0.023434
  31 H :    0.031452
  32 H :    0.036352
  33 H :    0.013831

  Mayer bond orders larger than 0.100000
B(  0-S ,  1-C ) :   1.1208 B(  0-S ,  4-C ) :   1.1440 B(  1-C ,  2-C ) :   1.6626
B(  1-C , 32-H ) :   0.9589 B(  2-C ,  3-C ) :   1.2290 B(  2-C ,  6-C ) :   1.0097
B(  3-C ,  4-C ) :   1.5585 B(  3-C ,  5-H ) :   0.9860 B(  4-C , 20-C ) :   1.0617
B(  6-C ,  7-H ) :   0.9389 B(  6-C ,  8-H ) :   0.9400 B(  6-C ,  9-C ) :   1.0650
B(  9-C , 10-H ) :   0.9594 B(  9-C , 11-H ) :   0.9516 B(  9-C , 12-C ) :   1.0776
B( 12-C , 13-H ) :   0.9644 B( 12-C , 14-H ) :   0.9717 B( 12-C , 15-H ) :   0.9751
B( 16-S , 17-C ) :   1.1593 B( 16-S , 20-C ) :   1.1457 B( 17-C , 18-C ) :   1.5926
B( 17-C , 33-H ) :   0.9778 B( 18-C , 19-C ) :   1.2426 B( 18-C , 21-H ) :   0.9857
B( 19-C , 20-C ) :   1.5918 B( 19-C , 22-C ) :   1.0402 B( 22-C , 23-H ) :   0.9334
B( 22-C , 24-H ) :   0.9317 B( 22-C , 25-C ) :   1.0744 B( 25-C , 26-H ) :   0.9520
B( 25-C , 27-H ) :   0.9564 B( 25-C , 28-C ) :   1.0783 B( 28-C , 29-H ) :   0.9777
B( 28-C , 30-H ) :   0.9777 B( 28-C , 31-H ) :   0.9753

Dispersion correction           -0.015097800
FINAL SINGLE POINT ENERGY     -1339.866238448710

DIPOLE MOMENT
-------------
                                X             Y             Z
Electronic contribution:     -3.31734      26.93614     -11.13568
Nuclear contribution   :      3.00132     -27.62402      11.41528
                        -----------------------------------------
Total Dipole Moment    :     -0.31602      -0.68788       0.27960
                        -----------------------------------------
Magnitude (a.u.)       :      0.80698
Magnitude (Debye)      :      2.05118

Rotational constants in cm-1:     0.017057     0.009879     0.007040
Rotational constants in MHz :   511.360578   296.176262   211.065277

                             ****ORCA TERMINATED NORMALLY****
TOTAL RUN TIME: 0 days 0 hours 0 minutes 31 seconds 315 msec
