                         Program Version 4.2.1 -  RELEASE  -
|  1> ! wB97X-D3 SP def2-SVP
|  2> %pal
|  3> nprocs 16
|  4> end
|  5>
|  6> * xyz 0 1
|  7> S 	 9.75576 	 31.7503 	 58.6571
|  8> C 	 11.3606 	 31.485 	 58.3811
|  9> C 	 12.2489 	 32.4579 	 58.5575
| 10> C 	 11.6194 	 33.5608 	 59.2493
| 11> C 	 10.2208 	 33.3379 	 59.3212
| 12> H 	 12.0652 	 34.4672 	 59.6767
| 13> C 	 13.7494 	 32.4104 	 58.3114
| 14> H 	 14.0674 	 33.3037 	 57.8022
| 15> H 	 14.005 	 31.6398 	 57.5434
| 16> C 	 14.4667 	 32.1827 	 59.6174
| 17> H 	 14.3899 	 33.0202 	 60.3661
| 18> H 	 14.1788 	 31.2124 	 60.0741
| 19> C 	 15.9325 	 32.102 	 59.2674
| 20> H 	 16.4545 	 33.0319 	 59.0513
| 21> H 	 16.4188 	 31.6895 	 60.1407
| 22> H 	 16.1655 	 31.4888 	 58.4785
| 23> S 	 7.931 	 33.5849 	 60.8957
| 24> C 	 7.12576 	 35.1175 	 61.1908
| 25> C 	 7.90286 	 36.0586 	 60.5956
| 26> C 	 9.01735 	 35.6586 	 59.7842
| 27> C 	 9.21778 	 34.2595 	 59.8656
| 28> H 	 7.59943 	 37.0873 	 60.737
| 29> C 	 9.94525 	 36.6743 	 58.978
| 30> H 	 10.6946 	 36.1479 	 58.4525
| 31> H 	 10.5456 	 37.0961 	 59.742
| 32> C 	 9.31633 	 37.8162 	 58.1608
| 33> H 	 10.1166 	 38.5291 	 57.8805
| 34> H 	 8.56026 	 38.4026 	 58.7628
| 35> C 	 8.76287 	 37.2934 	 56.8628
| 36> H 	 9.54633 	 36.8864 	 56.2055
| 37> H 	 8.32411 	 38.0718 	 56.2731
| 38> H 	 8.09527 	 36.4175 	 56.9636
| 39> H 	 11.6862 	 30.5518 	 58.0241
| 40> H 	 6.1782 	 35.4064 	 61.6511
| 41> *
| 42>
| 43>                          ****END OF INPUT****

CARTESIAN COORDINATES (ANGSTROEM)
---------------------------------
  S      9.755760   31.750300   58.657100
  C     11.360600   31.485000   58.381100
  C     12.248900   32.457900   58.557500
  C     11.619400   33.560800   59.249300
  C     10.220800   33.337900   59.321200
  H     12.065200   34.467200   59.676700
  C     13.749400   32.410400   58.311400
  H     14.067400   33.303700   57.802200
  H     14.005000   31.639800   57.543400
  C     14.466700   32.182700   59.617400
  H     14.389900   33.020200   60.366100
  H     14.178800   31.212400   60.074100
  C     15.932500   32.102000   59.267400
  H     16.454500   33.031900   59.051300
  H     16.418800   31.689500   60.140700
  H     16.165500   31.488800   58.478500
  S      7.931000   33.584900   60.895700
  C      7.125760   35.117500   61.190800
  C      7.902860   36.058600   60.595600
  C      9.017350   35.658600   59.784200
  C      9.217780   34.259500   59.865600
  H      7.599430   37.087300   60.737000
  C      9.945250   36.674300   58.978000
  H     10.694600   36.147900   58.452500
  H     10.545600   37.096100   59.742000
  C      9.316330   37.816200   58.160800
  H     10.116600   38.529100   57.880500
  H      8.560260   38.402600   58.762800
  C      8.762870   37.293400   56.862800
  H      9.546330   36.886400   56.205500
  H      8.324110   38.071800   56.273100
  H      8.095270   36.417500   56.963600
  H     11.686200   30.551800   58.024100
  H      6.178200   35.406400   61.651100

 Total Charge           Charge          ....    0
 Multiplicity           Mult            ....    1
 Number of Electrons    NEL             ....  134
 Basis Dimension        Dim             ....  322

ORBITAL ENERGIES
----------------

  NO   OCC          E(Eh)            E(eV)
   0   2.0000     -88.967505     -2420.9289
   1   2.0000     -88.959564     -2420.7128
   2   2.0000     -10.333193      -281.1805
   3   2.0000     -10.330963      -281.1198
   4   2.0000     -10.315065      -280.6872
   5   2.0000     -10.310522      -280.5636
   6   2.0000     -10.302526      -280.3460
   7   2.0000     -10.297274      -280.2031
   8   2.0000     -10.294147      -280.1180
   9   2.0000     -10.294016      -280.1144
  10   2.0000     -10.292817      -280.0818
  11   2.0000     -10.291491      -280.0457
  12   2.0000     -10.290212      -280.0109
  13   2.0000     -10.288012      -279.9510
  14   2.0000     -10.270479      -279.4739
  15   2.0000     -10.266251      -279.3589
  16   2.0000      -8.083953      -219.9755
  17   2.0000      -8.073676      -219.6959
  18   2.0000      -6.042153      -164.4153
  19   2.0000      -6.038510      -164.3162
  20   2.0000      -6.034626      -164.2105
  21   2.0000      -6.032372      -164.1492
  22   2.0000      -6.028124      -164.0336
  23   2.0000      -6.024392      -163.9320
  24   2.0000      -1.008894       -27.4534
  25   2.0000      -0.983729       -26.7686
  26   2.0000      -0.920873       -25.0582
  27   2.0000      -0.904427       -24.6107
  28   2.0000      -0.871031       -23.7020
  29   2.0000      -0.858173       -23.3521
  30   2.0000      -0.838554       -22.8182
  31   2.0000      -0.813965       -22.1491
  32   2.0000      -0.782763       -21.3001
  33   2.0000      -0.774338       -21.0708
  34   2.0000      -0.707907       -19.2631
  35   2.0000      -0.699326       -19.0296
  36   2.0000      -0.694525       -18.8990
  37   2.0000      -0.655910       -17.8482
  38   2.0000      -0.638413       -17.3721
  39   2.0000      -0.620060       -16.8727
  40   2.0000      -0.592461       -16.1217
  41   2.0000      -0.574435       -15.6312
  42   2.0000      -0.562941       -15.3184
  43   2.0000      -0.552207       -15.0263
  44   2.0000      -0.536857       -14.6086
  45   2.0000      -0.532563       -14.4918
  46   2.0000      -0.516818       -14.0633
  47   2.0000      -0.514090       -13.9891
  48   2.0000      -0.505097       -13.7444
  49   2.0000      -0.494971       -13.4688
  50   2.0000      -0.489494       -13.3198
  51   2.0000      -0.476104       -12.9554
  52   2.0000      -0.469175       -12.7669
  53   2.0000      -0.464816       -12.6483
  54   2.0000      -0.459359       -12.4998
  55   2.0000      -0.449613       -12.2346
  56   2.0000      -0.448714       -12.2101
  57   2.0000      -0.436547       -11.8790
  58   2.0000      -0.432997       -11.7824
  59   2.0000      -0.427574       -11.6349
  60   2.0000      -0.421177       -11.4608
  61   2.0000      -0.418351       -11.3839
  62   2.0000      -0.403380       -10.9765
  63   2.0000      -0.349747        -9.5171
  64   2.0000      -0.330924        -9.0049
  65   2.0000      -0.324414        -8.8278
  66   2.0000      -0.288753        -7.8574
  67   0.0000       0.026865         0.7310
  68   0.0000       0.084244         2.2924
  69   0.0000       0.111221         3.0265
  70   0.0000       0.125095         3.4040
  71   0.0000       0.136876         3.7246

MULLIKEN ATOMIC CHARGES
-----------------------
   0 S :    0.139796
   1 C :   -0.082136
   2 C :   -0.065800
   3 C :    0.005436
   4 C :   -0.161487
   5 H :    0.028753
   6 C :    0.057431
   7 H :    0.021984
   8 H :    0.024188
   9 C :   -0.088036
  10 H :    0.046957
  11 H :    0.040237
  12 C :   -0.004799
  13 H :    0.025379
  14 H :    0.020858
  15 H :    0.002705
  16 S :    0.080775
  17 C :   -0.082913
  18 C :   -0.059216
  19 C :   -0.033093
  20 C :   -0.166612
  21 H :    0.011038
  22 C :    0.101045
  23 H :   -0.003131
  24 H :    0.020660
  25 C :   -0.072260
  26 H :    0.032017
  27 H :    0.039942
  28 C :   -0.044533
  29 H :    0.019482
  30 H :    0.027885
  31 H :    0.041874
  32 H :    0.012185
  33 H :    0.063392
Sum of atomic charges:    0.0000000

LOEWDIN ATOMIC CHARGES
----------------------
   0 S :    0.435388
   1 C :   -0.214160
   2 C :   -0.068052
   3 C :   -0.049074
   4 C :   -0.187502
   5 H :    0.035188
   6 C :   -0.032752
   7 H :    0.029212
   8 H :    0.033957
   9 C :   -0.037329
  10 H :    0.034236
  11 H :    0.031758
  12 C :   -0.062632
  13 H :    0.024893
  14 H :    0.025641
  15 H :    0.009726
  16 S :    0.382219
  17 C :   -0.192953
  18 C :   -0.080192
  19 C :   -0.055570
  20 C :   -0.192192
  21 H :    0.025287
  22 C :   -0.026208
  23 H :    0.021872
  24 H :    0.028725
  25 C :   -0.043651
  26 H :    0.031234
  27 H :    0.028369
  28 C :   -0.071068
  29 H :    0.026785
  30 H :    0.020948
  31 H :    0.030110
  32 H :    0.014590
  33 H :    0.043198

  Mayer bond orders larger than 0.100000
B(  0-S ,  1-C ) :   1.1500 B(  0-S ,  4-C ) :   1.1480 B(  1-C ,  2-C ) :   1.6565
B(  1-C , 32-H ) :   0.9559 B(  2-C ,  3-C ) :   1.2090 B(  2-C ,  6-C ) :   1.0243
B(  3-C ,  4-C ) :   1.5761 B(  3-C ,  5-H ) :   0.9884 B(  4-C , 20-C ) :   1.0653
B(  6-C ,  7-H ) :   0.9348 B(  6-C ,  8-H ) :   0.9427 B(  6-C ,  9-C ) :   1.0703
B(  9-C , 10-H ) :   0.9530 B(  9-C , 11-H ) :   0.9556 B(  9-C , 12-C ) :   1.0863
B( 12-C , 13-H ) :   0.9724 B( 12-C , 14-H ) :   0.9705 B( 12-C , 15-H ) :   0.9700
B( 16-S , 17-C ) :   1.1305 B( 16-S , 20-C ) :   1.1398 B( 17-C , 18-C ) :   1.6282
B( 17-C , 20-C ) :   0.1004 B( 17-C , 33-H ) :   0.9658 B( 18-C , 19-C ) :   1.2446
B( 18-C , 21-H ) :   0.9824 B( 19-C , 20-C ) :   1.5677 B( 19-C , 22-C ) :   1.0176
B( 22-C , 23-H ) :   0.9322 B( 22-C , 24-H ) :   0.9301 B( 22-C , 25-C ) :   1.0776
B( 25-C , 26-H ) :   0.9485 B( 25-C , 27-H ) :   0.9544 B( 25-C , 28-C ) :   1.0823
B( 28-C , 29-H ) :   0.9691 B( 28-C , 30-H ) :   0.9732 B( 28-C , 31-H ) :   0.9767

Dispersion correction           -0.013687696
FINAL SINGLE POINT ENERGY     -1339.862229123802

DIPOLE MOMENT
-------------
                                X             Y             Z
Electronic contribution:    -20.94923     -12.69241       8.55334
Nuclear contribution   :     21.58590      13.09232      -8.75438
                        -----------------------------------------
Total Dipole Moment    :      0.63667       0.39991      -0.20104
                        -----------------------------------------
Magnitude (a.u.)       :      0.77826
Magnitude (Debye)      :      1.97819

Rotational constants in cm-1:     0.019160     0.007736     0.006493
Rotational constants in MHz :   574.413279   231.918935   194.666896

                             ****ORCA TERMINATED NORMALLY****
TOTAL RUN TIME: 0 days 0 hours 0 minutes 33 seconds 250 msec
