                         Program Version 4.2.1 -  RELEASE  -
|  1> ! wB97X-D3 SP def2-SVP
|  2> %pal
|  3> nprocs 16
|  4> end
|  5>
|  6> * xyz 0 1
|  7> S 	 -101.295 	 55.6477 	 121.223
|  8> C 	 -101.739 	 54.1969 	 120.233
|  9> C 	 -102.952 	 54.4896 	 119.641
| 10> C 	 -103.637 	 55.5567 	 120.223
| 11> C 	 -102.903 	 56.2292 	 121.16
| 12> H 	 -104.57 	 55.8618 	 119.947
| 13> C 	 -103.697 	 53.5961 	 118.713
| 14> H 	 -103.661 	 54.13 	 117.772
| 15> H 	 -104.747 	 53.5599 	 118.983
| 16> C 	 -103.237 	 52.1054 	 118.58
| 17> H 	 -102.152 	 51.9079 	 118.533
| 18> H 	 -103.417 	 51.6269 	 119.613
| 19> C 	 -103.935 	 51.3298 	 117.458
| 20> H 	 -103.564 	 50.2525 	 117.434
| 21> H 	 -104.996 	 51.3085 	 117.668
| 22> H 	 -103.749 	 51.7977 	 116.515
| 23> S 	 -102.193 	 58.8349 	 121.484
| 24> C 	 -103.041 	 59.7692 	 122.634
| 25> C 	 -104.007 	 59.0268 	 123.245
| 26> C 	 -104.035 	 57.669 	 122.911
| 27> C 	 -103.24 	 57.4381 	 121.824
| 28> H 	 -104.613 	 59.4695 	 124.014
| 29> C 	 -104.794 	 56.5256 	 123.654
| 30> H 	 -105.431 	 56.0379 	 122.927
| 31> H 	 -105.458 	 56.9905 	 124.344
| 32> C 	 -103.965 	 55.4309 	 124.357
| 33> H 	 -103.354 	 55.0164 	 123.601
| 34> H 	 -104.692 	 54.6976 	 124.788
| 35> C 	 -103.139 	 55.8708 	 125.579
| 36> H 	 -103.74 	 56.4195 	 126.333
| 37> H 	 -102.334 	 56.5318 	 125.337
| 38> H 	 -102.576 	 55.0987 	 126.119
| 39> H 	 -100.949 	 53.4655 	 119.772
| 40> H 	 -102.771 	 60.7808 	 123.05
| 41> *
| 42>
| 43>                          ****END OF INPUT****

CARTESIAN COORDINATES (ANGSTROEM)
---------------------------------
  S    -101.295000   55.647700  121.223000
  C    -101.739000   54.196900  120.233000
  C    -102.952000   54.489600  119.641000
  C    -103.637000   55.556700  120.223000
  C    -102.903000   56.229200  121.160000
  H    -104.570000   55.861800  119.947000
  C    -103.697000   53.596100  118.713000
  H    -103.661000   54.130000  117.772000
  H    -104.747000   53.559900  118.983000
  C    -103.237000   52.105400  118.580000
  H    -102.152000   51.907900  118.533000
  H    -103.417000   51.626900  119.613000
  C    -103.935000   51.329800  117.458000
  H    -103.564000   50.252500  117.434000
  H    -104.996000   51.308500  117.668000
  H    -103.749000   51.797700  116.515000
  S    -102.193000   58.834900  121.484000
  C    -103.041000   59.769200  122.634000
  C    -104.007000   59.026800  123.245000
  C    -104.035000   57.669000  122.911000
  C    -103.240000   57.438100  121.824000
  H    -104.613000   59.469500  124.014000
  C    -104.794000   56.525600  123.654000
  H    -105.431000   56.037900  122.927000
  H    -105.458000   56.990500  124.344000
  C    -103.965000   55.430900  124.357000
  H    -103.354000   55.016400  123.601000
  H    -104.692000   54.697600  124.788000
  C    -103.139000   55.870800  125.579000
  H    -103.740000   56.419500  126.333000
  H    -102.334000   56.531800  125.337000
  H    -102.576000   55.098700  126.119000
  H    -100.949000   53.465500  119.772000
  H    -102.771000   60.780800  123.050000

 Total Charge           Charge          ....    0
 Multiplicity           Mult            ....    1
 Number of Electrons    NEL             ....  134
 Basis Dimension        Dim             ....  322

ORBITAL ENERGIES
----------------

  NO   OCC          E(Eh)            E(eV)
   0   2.0000     -88.964493     -2420.8469
   1   2.0000     -88.963324     -2420.8151
   2   2.0000     -10.322146      -280.8799
   3   2.0000     -10.321843      -280.8716
   4   2.0000     -10.317973      -280.7663
   5   2.0000     -10.315180      -280.6903
   6   2.0000     -10.299966      -280.2763
   7   2.0000     -10.298164      -280.2273
   8   2.0000     -10.296635      -280.1857
   9   2.0000     -10.292533      -280.0741
  10   2.0000     -10.291602      -280.0487
  11   2.0000     -10.285964      -279.8953
  12   2.0000     -10.284867      -279.8655
  13   2.0000     -10.283429      -279.8263
  14   2.0000     -10.281763      -279.7810
  15   2.0000     -10.271566      -279.5035
  16   2.0000      -8.079730      -219.8606
  17   2.0000      -8.077896      -219.8107
  18   2.0000      -6.038178      -164.3072
  19   2.0000      -6.036407      -164.2590
  20   2.0000      -6.034166      -164.1980
  21   2.0000      -6.032513      -164.1530
  22   2.0000      -6.030501      -164.0983
  23   2.0000      -6.028535      -164.0448
  24   2.0000      -1.015843       -27.6425
  25   2.0000      -0.990143       -26.9431
  26   2.0000      -0.913413       -24.8552
  27   2.0000      -0.903406       -24.5829
  28   2.0000      -0.870660       -23.6919
  29   2.0000      -0.852661       -23.2021
  30   2.0000      -0.846833       -23.0435
  31   2.0000      -0.813450       -22.1351
  32   2.0000      -0.786550       -21.4031
  33   2.0000      -0.772764       -21.0280
  34   2.0000      -0.713397       -19.4125
  35   2.0000      -0.702500       -19.1160
  36   2.0000      -0.687633       -18.7114
  37   2.0000      -0.659611       -17.9489
  38   2.0000      -0.638021       -17.3614
  39   2.0000      -0.619292       -16.8518
  40   2.0000      -0.592975       -16.1357
  41   2.0000      -0.572014       -15.5653
  42   2.0000      -0.558808       -15.2059
  43   2.0000      -0.553803       -15.0697
  44   2.0000      -0.540082       -14.6964
  45   2.0000      -0.523140       -14.2354
  46   2.0000      -0.515355       -14.0235
  47   2.0000      -0.511067       -13.9068
  48   2.0000      -0.502367       -13.6701
  49   2.0000      -0.500409       -13.6168
  50   2.0000      -0.486623       -13.2417
  51   2.0000      -0.481204       -13.0942
  52   2.0000      -0.477213       -12.9856
  53   2.0000      -0.468697       -12.7539
  54   2.0000      -0.455599       -12.3975
  55   2.0000      -0.451879       -12.2963
  56   2.0000      -0.442329       -12.0364
  57   2.0000      -0.436758       -11.8848
  58   2.0000      -0.428381       -11.6568
  59   2.0000      -0.425236       -11.5713
  60   2.0000      -0.420425       -11.4404
  61   2.0000      -0.413487       -11.2516
  62   2.0000      -0.410795       -11.1783
  63   2.0000      -0.336993        -9.1700
  64   2.0000      -0.334581        -9.1044
  65   2.0000      -0.327293        -8.9061
  66   2.0000      -0.299162        -8.1406
  67   0.0000       0.030902         0.8409
  68   0.0000       0.059822         1.6278
  69   0.0000       0.108354         2.9485
  70   0.0000       0.127263         3.4630
  71   0.0000       0.132465         3.6045

MULLIKEN ATOMIC CHARGES
-----------------------
   0 S :    0.101218
   1 C :   -0.164812
   2 C :   -0.063812
   3 C :    0.062738
   4 C :   -0.149157
   5 H :   -0.032529
   6 C :    0.059582
   7 H :    0.033986
   8 H :    0.031736
   9 C :   -0.128000
  10 H :    0.026225
  11 H :    0.037436
  12 C :   -0.038256
  13 H :    0.045884
  14 H :    0.031981
  15 H :    0.033651
  16 S :    0.111602
  17 C :   -0.097247
  18 C :   -0.040403
  19 C :   -0.035477
  20 C :   -0.185314
  21 H :    0.003662
  22 C :    0.116744
  23 H :    0.026539
  24 H :   -0.000696
  25 C :   -0.049521
  26 H :    0.037085
  27 H :    0.039133
  28 C :   -0.060641
  29 H :    0.023808
  30 H :    0.023361
  31 H :    0.032536
  32 H :    0.092042
  33 H :    0.074915
Sum of atomic charges:   -0.0000000

LOEWDIN ATOMIC CHARGES
----------------------
   0 S :    0.397409
   1 C :   -0.210034
   2 C :   -0.061738
   3 C :   -0.051916
   4 C :   -0.198936
   5 H :    0.016348
   6 C :   -0.033233
   7 H :    0.034329
   8 H :    0.032955
   9 C :   -0.053269
  10 H :    0.019419
  11 H :    0.032273
  12 C :   -0.063763
  13 H :    0.037334
  14 H :    0.023382
  15 H :    0.021654
  16 S :    0.410536
  17 C :   -0.207429
  18 C :   -0.077735
  19 C :   -0.052158
  20 C :   -0.195310
  21 H :    0.026665
  22 C :   -0.020425
  23 H :    0.033682
  24 H :    0.020574
  25 C :   -0.032019
  26 H :    0.019487
  27 H :    0.033696
  28 C :   -0.074547
  29 H :    0.024720
  30 H :    0.020982
  31 H :    0.029018
  32 H :    0.051919
  33 H :    0.046128

  Mayer bond orders larger than 0.100000
B(  0-S ,  1-C ) :   1.1050 B(  0-S ,  4-C ) :   1.1592 B(  1-C ,  2-C ) :   1.6153
B(  1-C ,  4-C ) :   0.1023 B(  1-C , 32-H ) :   0.9473 B(  2-C ,  3-C ) :   1.2413
B(  2-C ,  6-C ) :   1.0190 B(  3-C ,  4-C ) :   1.5586 B(  3-C ,  5-H ) :   1.0185
B(  4-C , 20-C ) :   1.0456 B(  6-C ,  7-H ) :   0.9237 B(  6-C ,  8-H ) :   0.9526
B(  6-C ,  9-C ) :   1.0595 B(  9-C , 10-H ) :   0.9555 B(  9-C , 11-H ) :   0.9539
B(  9-C , 12-C ) :   1.0782 B( 12-C , 13-H ) :   0.9725 B( 12-C , 14-H ) :   0.9763
B( 12-C , 15-H ) :   0.9771 B( 16-S , 17-C ) :   1.1566 B( 16-S , 20-C ) :   1.1368
B( 17-C , 18-C ) :   1.6128 B( 17-C , 33-H ) :   0.9554 B( 18-C , 19-C ) :   1.2646
B( 18-C , 21-H ) :   0.9879 B( 19-C , 20-C ) :   1.5951 B( 19-C , 22-C ) :   1.0233
B( 22-C , 23-H ) :   0.9311 B( 22-C , 24-H ) :   0.9314 B( 22-C , 25-C ) :   1.0757
B( 25-C , 26-H ) :   0.9557 B( 25-C , 27-H ) :   0.9536 B( 25-C , 28-C ) :   1.0734
B( 28-C , 29-H ) :   0.9750 B( 28-C , 30-H ) :   0.9744 B( 28-C , 31-H ) :   0.9742

Dispersion correction           -0.014661240
FINAL SINGLE POINT ENERGY     -1339.862844227307

DIPOLE MOMENT
-------------
                                X             Y             Z
Electronic contribution:     11.09541      21.36412      -1.09605
Nuclear contribution   :    -11.50167     -21.63437       1.05824
                        -----------------------------------------
Total Dipole Moment    :     -0.40627      -0.27025      -0.03781
                        -----------------------------------------
Magnitude (a.u.)       :      0.48941
Magnitude (Debye)      :      1.24397

Rotational constants in cm-1:     0.023498     0.007577     0.006766
Rotational constants in MHz :   704.452114   227.149713   202.841312

                             ****ORCA TERMINATED NORMALLY****
TOTAL RUN TIME: 0 days 0 hours 0 minutes 35 seconds 15 msec
