                         Program Version 4.2.1 -  RELEASE  -
|  1> ! wB97X-D3 SP def2-SVP
|  2> %pal
|  3> nprocs 16
|  4> end
|  5>
|  6> * xyz 0 1
|  7> S 	 -44.7504 	 54.9827 	 102.949
|  8> C 	 -46.2605 	 54.6435 	 103.799
|  9> C 	 -47.2169 	 54.0414 	 102.954
| 10> C 	 -46.6483 	 53.6545 	 101.702
| 11> C 	 -45.2566 	 53.9735 	 101.532
| 12> H 	 -47.1866 	 53.0851 	 100.894
| 13> C 	 -48.5818 	 53.5892 	 103.41
| 14> H 	 -48.6511 	 53.6184 	 104.467
| 15> H 	 -48.594 	 52.5155 	 103.093
| 16> C 	 -49.7651 	 54.4003 	 102.92
| 17> H 	 -50.1991 	 55.0362 	 103.681
| 18> H 	 -49.3742 	 55.0037 	 102.139
| 19> C 	 -50.9656 	 53.5574 	 102.384
| 20> H 	 -50.7695 	 52.7603 	 101.752
| 21> H 	 -51.3969 	 53.0817 	 103.286
| 22> H 	 -51.6481 	 54.1536 	 101.861
| 23> S 	 -43.4959 	 55.0491 	 99.895
| 24> C 	 -42.7105 	 54.0212 	 98.6739
| 25> C 	 -43.2427 	 52.7379 	 98.5926
| 26> C 	 -44.1763 	 52.5785 	 99.6257
| 27> C 	 -44.3032 	 53.6797 	 100.466
| 28> H 	 -42.7725 	 52.02 	 97.9753
| 29> C 	 -44.9049 	 51.2711 	 99.7997
| 30> H 	 -45.0989 	 50.8062 	 98.7834
| 31> H 	 -45.876 	 51.4491 	 100.42
| 32> C 	 -44.1535 	 50.1707 	 100.552
| 33> H 	 -43.1351 	 50.1195 	 100.151
| 34> H 	 -44.6368 	 49.1949 	 100.444
| 35> C 	 -43.8453 	 50.5258 	 101.958
| 36> H 	 -43.2199 	 51.3731 	 102.039
| 37> H 	 -43.2587 	 49.7281 	 102.432
| 38> H 	 -44.7471 	 50.5945 	 102.568
| 39> H 	 -46.4485 	 54.732 	 104.782
| 40> H 	 -42.0253 	 54.3795 	 97.8831
| 41> *
| 42>
| 43>                          ****END OF INPUT****

CARTESIAN COORDINATES (ANGSTROEM)
---------------------------------
  S    -44.750400   54.982700  102.949000
  C    -46.260500   54.643500  103.799000
  C    -47.216900   54.041400  102.954000
  C    -46.648300   53.654500  101.702000
  C    -45.256600   53.973500  101.532000
  H    -47.186600   53.085100  100.894000
  C    -48.581800   53.589200  103.410000
  H    -48.651100   53.618400  104.467000
  H    -48.594000   52.515500  103.093000
  C    -49.765100   54.400300  102.920000
  H    -50.199100   55.036200  103.681000
  H    -49.374200   55.003700  102.139000
  C    -50.965600   53.557400  102.384000
  H    -50.769500   52.760300  101.752000
  H    -51.396900   53.081700  103.286000
  H    -51.648100   54.153600  101.861000
  S    -43.495900   55.049100   99.895000
  C    -42.710500   54.021200   98.673900
  C    -43.242700   52.737900   98.592600
  C    -44.176300   52.578500   99.625700
  C    -44.303200   53.679700  100.466000
  H    -42.772500   52.020000   97.975300
  C    -44.904900   51.271100   99.799700
  H    -45.098900   50.806200   98.783400
  H    -45.876000   51.449100  100.420000
  C    -44.153500   50.170700  100.552000
  H    -43.135100   50.119500  100.151000
  H    -44.636800   49.194900  100.444000
  C    -43.845300   50.525800  101.958000
  H    -43.219900   51.373100  102.039000
  H    -43.258700   49.728100  102.432000
  H    -44.747100   50.594500  102.568000
  H    -46.448500   54.732000  104.782000
  H    -42.025300   54.379500   97.883100

 Total Charge           Charge          ....    0
 Multiplicity           Mult            ....    1
 Number of Electrons    NEL             ....  134
 Basis Dimension        Dim             ....  322

ORBITAL ENERGIES
----------------

  NO   OCC          E(Eh)            E(eV)
   0   2.0000     -88.971280     -2421.0316
   1   2.0000     -88.968490     -2420.9557
   2   2.0000     -10.341354      -281.4025
   3   2.0000     -10.325075      -280.9596
   4   2.0000     -10.321565      -280.8641
   5   2.0000     -10.310524      -280.5636
   6   2.0000     -10.305513      -280.4273
   7   2.0000     -10.304532      -280.4006
   8   2.0000     -10.302667      -280.3498
   9   2.0000     -10.297706      -280.2148
  10   2.0000     -10.294466      -280.1267
  11   2.0000     -10.290209      -280.0108
  12   2.0000     -10.282128      -279.7909
  13   2.0000     -10.278624      -279.6956
  14   2.0000     -10.270659      -279.4788
  15   2.0000     -10.261614      -279.2327
  16   2.0000      -8.086660      -220.0492
  17   2.0000      -8.081731      -219.9151
  18   2.0000      -6.045013      -164.4932
  19   2.0000      -6.041159      -164.3883
  20   2.0000      -6.040347      -164.3662
  21   2.0000      -6.037438      -164.2870
  22   2.0000      -6.036438      -164.2598
  23   2.0000      -6.032491      -164.1524
  24   2.0000      -1.011258       -27.5177
  25   2.0000      -0.977330       -26.5945
  26   2.0000      -0.914750       -24.8916
  27   2.0000      -0.910951       -24.7882
  28   2.0000      -0.874388       -23.7933
  29   2.0000      -0.851531       -23.1713
  30   2.0000      -0.845055       -22.9951
  31   2.0000      -0.812973       -22.1221
  32   2.0000      -0.783477       -21.3195
  33   2.0000      -0.770647       -20.9704
  34   2.0000      -0.708722       -19.2853
  35   2.0000      -0.703135       -19.1333
  36   2.0000      -0.686133       -18.6706
  37   2.0000      -0.667627       -18.1670
  38   2.0000      -0.640286       -17.4231
  39   2.0000      -0.619710       -16.8632
  40   2.0000      -0.594043       -16.1647
  41   2.0000      -0.573267       -15.5994
  42   2.0000      -0.556268       -15.1368
  43   2.0000      -0.551752       -15.0139
  44   2.0000      -0.548810       -14.9339
  45   2.0000      -0.534467       -14.5436
  46   2.0000      -0.522879       -14.2283
  47   2.0000      -0.508928       -13.8486
  48   2.0000      -0.504891       -13.7388
  49   2.0000      -0.498612       -13.5679
  50   2.0000      -0.489886       -13.3305
  51   2.0000      -0.481175       -13.0934
  52   2.0000      -0.469812       -12.7842
  53   2.0000      -0.460572       -12.5328
  54   2.0000      -0.458678       -12.4813
  55   2.0000      -0.454273       -12.3614
  56   2.0000      -0.443161       -12.0590
  57   2.0000      -0.436124       -11.8675
  58   2.0000      -0.426100       -11.5948
  59   2.0000      -0.424531       -11.5521
  60   2.0000      -0.420403       -11.4398
  61   2.0000      -0.411590       -11.1999
  62   2.0000      -0.405956       -11.0466
  63   2.0000      -0.353888        -9.6298
  64   2.0000      -0.333959        -9.0875
  65   2.0000      -0.329123        -8.9559
  66   2.0000      -0.281286        -7.6542
  67   0.0000       0.019927         0.5423
  68   0.0000       0.061561         1.6752
  69   0.0000       0.095482         2.5982
  70   0.0000       0.110532         3.0077
  71   0.0000       0.134610         3.6629

MULLIKEN ATOMIC CHARGES
-----------------------
   0 S :    0.096576
   1 C :   -0.055438
   2 C :   -0.120102
   3 C :    0.018594
   4 C :   -0.171816
   5 H :    0.043811
   6 C :    0.067579
   7 H :    0.009381
   8 H :    0.040835
   9 C :   -0.051989
  10 H :    0.035060
  11 H :    0.027843
  12 C :   -0.038924
  13 H :    0.012388
  14 H :    0.029559
  15 H :    0.025828
  16 S :    0.119322
  17 C :   -0.103921
  18 C :   -0.026109
  19 C :   -0.049164
  20 C :   -0.114118
  21 H :    0.020426
  22 C :    0.023082
  23 H :    0.036776
  24 H :    0.029005
  25 C :   -0.057866
  26 H :    0.012206
  27 H :    0.034657
  28 C :   -0.037777
  29 H :    0.035170
  30 H :    0.020891
  31 H :    0.023927
  32 H :    0.002118
  33 H :    0.062189
Sum of atomic charges:   -0.0000000

LOEWDIN ATOMIC CHARGES
----------------------
   0 S :    0.374759
   1 C :   -0.176064
   2 C :   -0.059448
   3 C :   -0.072254
   4 C :   -0.174208
   5 H :    0.038484
   6 C :   -0.031792
   7 H :    0.025625
   8 H :    0.038805
   9 C :   -0.033861
  10 H :    0.027323
  11 H :    0.019283
  12 C :   -0.056084
  13 H :    0.012120
  14 H :    0.029279
  15 H :    0.020035
  16 S :    0.432565
  17 C :   -0.178318
  18 C :   -0.060174
  19 C :   -0.061419
  20 C :   -0.223102
  21 H :    0.032430
  22 C :   -0.042136
  23 H :    0.038055
  24 H :    0.036120
  25 C :   -0.046680
  26 H :    0.023387
  27 H :    0.024884
  28 C :   -0.063515
  29 H :    0.022242
  30 H :    0.026822
  31 H :    0.021221
  32 H :    0.003902
  33 H :    0.031715

  Mayer bond orders larger than 0.100000
B(  0-S ,  1-C ) :   1.1336 B(  0-S ,  4-C ) :   1.1422 B(  1-C ,  2-C ) :   1.6002
B(  1-C ,  4-C ) :   0.1152 B(  1-C , 32-H ) :   0.9772 B(  2-C ,  3-C ) :   1.2451
B(  2-C ,  6-C ) :   1.0402 B(  3-C ,  4-C ) :   1.5580 B(  3-C ,  5-H ) :   0.9728
B(  4-C , 20-C ) :   1.0345 B(  6-C ,  7-H ) :   0.9380 B(  6-C ,  8-H ) :   0.9514
B(  6-C ,  9-C ) :   1.0336 B(  9-C , 10-H ) :   0.9591 B(  9-C , 11-H ) :   0.9681
B(  9-C , 12-C ) :   1.0751 B( 12-C , 13-H ) :   0.9800 B( 12-C , 14-H ) :   0.9782
B( 12-C , 15-H ) :   0.9756 B( 16-S , 17-C ) :   1.1590 B( 16-S , 20-C ) :   1.1600
B( 17-C , 18-C ) :   1.6070 B( 17-C , 20-C ) :   0.1006 B( 17-C , 33-H ) :   0.9612
B( 18-C , 19-C ) :   1.2530 B( 18-C , 21-H ) :   0.9955 B( 19-C , 20-C ) :   1.5781
B( 19-C , 22-C ) :   1.0482 B( 22-C , 23-H ) :   0.9324 B( 22-C , 24-H ) :   0.9302
B( 22-C , 25-C ) :   1.0775 B( 25-C , 26-H ) :   0.9503 B( 25-C , 27-H ) :   0.9551
B( 25-C , 28-C ) :   1.0898 B( 28-C , 29-H ) :   0.9718 B( 28-C , 30-H ) :   0.9688
B( 28-C , 31-H ) :   0.9721

Dispersion correction           -0.014694511
FINAL SINGLE POINT ENERGY     -1339.846276123617

DIPOLE MOMENT
-------------
                                X             Y             Z
Electronic contribution:     19.05572      17.98543      -4.04356
Nuclear contribution   :    -19.39365     -18.49318       3.90136
                        -----------------------------------------
Total Dipole Moment    :     -0.33793      -0.50775      -0.14220
                        -----------------------------------------
Magnitude (a.u.)       :      0.62628
Magnitude (Debye)      :      1.59189

Rotational constants in cm-1:     0.019675     0.008266     0.007248
Rotational constants in MHz :   589.856124   247.810594   217.278147

                             ****ORCA TERMINATED NORMALLY****
TOTAL RUN TIME: 0 days 0 hours 0 minutes 30 seconds 976 msec
