                         Program Version 4.2.1 -  RELEASE  -
|  1> ! wB97X-D3 SP def2-SVP
|  2> %pal
|  3> nprocs 16
|  4> end
|  5>
|  6> * xyz 0 1
|  7> S 	 -11.8393 	 37.6199 	 30.5792
|  8> C 	 -13.4564 	 37.0852 	 30.0695
|  9> C 	 -14.3938 	 38.0947 	 30.1429
| 10> C 	 -13.8417 	 39.2184 	 30.8953
| 11> C 	 -12.5657 	 39.0359 	 31.4007
| 12> H 	 -14.2273 	 40.2104 	 30.9336
| 13> C 	 -15.7842 	 38.1208 	 29.6738
| 14> H 	 -16.4475 	 38.3699 	 30.5723
| 15> H 	 -16.15 	 37.1811 	 29.253
| 16> C 	 -16.2147 	 39.1589 	 28.6877
| 17> H 	 -17.2692 	 39.2336 	 28.3661
| 18> H 	 -16.0793 	 40.1121 	 29.1628
| 19> C 	 -15.501 	 38.9401 	 27.3168
| 20> H 	 -15.6025 	 39.7145 	 26.597
| 21> H 	 -14.427 	 38.7603 	 27.4393
| 22> H 	 -16.0048 	 38.0679 	 26.7708
| 23> S 	 -9.9672 	 40.0934 	 31.5841
| 24> C 	 -9.771 	 41.4684 	 32.5877
| 25> C 	 -10.9894 	 41.8704 	 33.1162
| 26> C 	 -12.1367 	 41.1115 	 32.7884
| 27> C 	 -11.7076 	 40.06 	 32.0012
| 28> H 	 -10.9906 	 42.8291 	 33.69
| 29> C 	 -13.4567 	 41.2989 	 33.5636
| 30> H 	 -13.1767 	 41.3285 	 34.6091
| 31> H 	 -13.985 	 40.3277 	 33.4541
| 32> C 	 -14.3251 	 42.3847 	 33.0194
| 33> H 	 -15.2716 	 42.2264 	 33.5392
| 34> H 	 -14.5623 	 42.3052 	 31.9578
| 35> C 	 -13.6152 	 43.7743 	 33.173
| 36> H 	 -14.4054 	 44.4692 	 32.9584
| 37> H 	 -12.944 	 43.9553 	 32.3609
| 38> H 	 -13.1641 	 43.9462 	 34.1287
| 39> H 	 -13.7986 	 36.1963 	 29.6076
| 40> H 	 -8.85429 	 41.9484 	 32.9737
| 41> *
| 42>
| 43>                          ****END OF INPUT****

CARTESIAN COORDINATES (ANGSTROEM)
---------------------------------
  S    -11.839300   37.619900   30.579200
  C    -13.456400   37.085200   30.069500
  C    -14.393800   38.094700   30.142900
  C    -13.841700   39.218400   30.895300
  C    -12.565700   39.035900   31.400700
  H    -14.227300   40.210400   30.933600
  C    -15.784200   38.120800   29.673800
  H    -16.447500   38.369900   30.572300
  H    -16.150000   37.181100   29.253000
  C    -16.214700   39.158900   28.687700
  H    -17.269200   39.233600   28.366100
  H    -16.079300   40.112100   29.162800
  C    -15.501000   38.940100   27.316800
  H    -15.602500   39.714500   26.597000
  H    -14.427000   38.760300   27.439300
  H    -16.004800   38.067900   26.770800
  S     -9.967200   40.093400   31.584100
  C     -9.771000   41.468400   32.587700
  C    -10.989400   41.870400   33.116200
  C    -12.136700   41.111500   32.788400
  C    -11.707600   40.060000   32.001200
  H    -10.990600   42.829100   33.690000
  C    -13.456700   41.298900   33.563600
  H    -13.176700   41.328500   34.609100
  H    -13.985000   40.327700   33.454100
  C    -14.325100   42.384700   33.019400
  H    -15.271600   42.226400   33.539200
  H    -14.562300   42.305200   31.957800
  C    -13.615200   43.774300   33.173000
  H    -14.405400   44.469200   32.958400
  H    -12.944000   43.955300   32.360900
  H    -13.164100   43.946200   34.128700
  H    -13.798600   36.196300   29.607600
  H     -8.854290   41.948400   32.973700

 Total Charge           Charge          ....    0
 Multiplicity           Mult            ....    1
 Number of Electrons    NEL             ....  134
 Basis Dimension        Dim             ....  322

ORBITAL ENERGIES
----------------

  NO   OCC          E(Eh)            E(eV)
   0   2.0000     -88.970458     -2421.0093
   1   2.0000     -88.966216     -2420.8938
   2   2.0000     -10.332399      -281.1589
   3   2.0000     -10.330306      -281.1019
   4   2.0000     -10.315411      -280.6966
   5   2.0000     -10.315013      -280.6858
   6   2.0000     -10.304490      -280.3994
   7   2.0000     -10.300392      -280.2879
   8   2.0000     -10.295463      -280.1538
   9   2.0000     -10.294619      -280.1308
  10   2.0000     -10.294562      -280.1293
  11   2.0000     -10.291277      -280.0399
  12   2.0000     -10.291118      -280.0356
  13   2.0000     -10.288411      -279.9619
  14   2.0000     -10.278583      -279.6945
  15   2.0000     -10.276072      -279.6261
  16   2.0000      -8.084972      -220.0033
  17   2.0000      -8.079902      -219.8653
  18   2.0000      -6.043534      -164.4529
  19   2.0000      -6.039643      -164.3470
  20   2.0000      -6.038725      -164.3221
  21   2.0000      -6.035566      -164.2361
  22   2.0000      -6.034971      -164.2199
  23   2.0000      -6.029967      -164.0837
  24   2.0000      -1.005432       -27.3592
  25   2.0000      -0.982035       -26.7225
  26   2.0000      -0.918678       -24.9985
  27   2.0000      -0.916490       -24.9390
  28   2.0000      -0.868474       -23.6324
  29   2.0000      -0.852686       -23.2028
  30   2.0000      -0.838701       -22.8222
  31   2.0000      -0.810323       -22.0500
  32   2.0000      -0.790913       -21.5218
  33   2.0000      -0.777848       -21.1663
  34   2.0000      -0.713598       -19.4180
  35   2.0000      -0.702529       -19.1168
  36   2.0000      -0.694608       -18.9012
  37   2.0000      -0.655703       -17.8426
  38   2.0000      -0.637127       -17.3371
  39   2.0000      -0.619543       -16.8586
  40   2.0000      -0.596491       -16.2313
  41   2.0000      -0.563482       -15.3331
  42   2.0000      -0.558430       -15.1957
  43   2.0000      -0.554162       -15.0795
  44   2.0000      -0.546078       -14.8595
  45   2.0000      -0.542898       -14.7730
  46   2.0000      -0.526532       -14.3277
  47   2.0000      -0.504560       -13.7298
  48   2.0000      -0.501920       -13.6579
  49   2.0000      -0.494129       -13.4459
  50   2.0000      -0.491220       -13.3668
  51   2.0000      -0.484808       -13.1923
  52   2.0000      -0.467789       -12.7292
  53   2.0000      -0.466361       -12.6903
  54   2.0000      -0.457826       -12.4581
  55   2.0000      -0.455115       -12.3843
  56   2.0000      -0.447797       -12.1852
  57   2.0000      -0.439436       -11.9577
  58   2.0000      -0.427643       -11.6368
  59   2.0000      -0.425248       -11.5716
  60   2.0000      -0.422210       -11.4889
  61   2.0000      -0.408883       -11.1263
  62   2.0000      -0.408209       -11.1079
  63   2.0000      -0.357389        -9.7250
  64   2.0000      -0.335992        -9.1428
  65   2.0000      -0.322430        -8.7738
  66   2.0000      -0.282891        -7.6979
  67   0.0000       0.016871         0.4591
  68   0.0000       0.071653         1.9498
  69   0.0000       0.094666         2.5760
  70   0.0000       0.114420         3.1135
  71   0.0000       0.127771         3.4768

MULLIKEN ATOMIC CHARGES
-----------------------
   0 S :    0.080593
   1 C :   -0.066733
   2 C :   -0.076888
   3 C :    0.000569
   4 C :   -0.106513
   5 H :   -0.002018
   6 C :    0.055929
   7 H :    0.046874
   8 H :    0.013661
   9 C :   -0.070621
  10 H :    0.035485
  11 H :    0.016207
  12 C :   -0.081942
  13 H :    0.025021
  14 H :    0.047556
  15 H :    0.031703
  16 S :    0.114533
  17 C :   -0.087670
  18 C :   -0.075305
  19 C :   -0.044206
  20 C :   -0.148154
  21 H :    0.024906
  22 C :    0.036817
  23 H :    0.045263
  24 H :    0.027165
  25 C :   -0.064061
  26 H :    0.034515
  27 H :    0.036530
  28 C :   -0.038459
  29 H :    0.024994
  30 H :    0.041153
  31 H :    0.037941
  32 H :    0.021187
  33 H :    0.063969
Sum of atomic charges:   -0.0000000

LOEWDIN ATOMIC CHARGES
----------------------
   0 S :    0.365056
   1 C :   -0.176493
   2 C :   -0.059782
   3 C :   -0.057785
   4 C :   -0.168666
   5 H :    0.022598
   6 C :   -0.040268
   7 H :    0.045348
   8 H :    0.027951
   9 C :   -0.045526
  10 H :    0.032522
  11 H :    0.015277
  12 C :   -0.072087
  13 H :    0.018021
  14 H :    0.025990
  15 H :    0.032334
  16 S :    0.400935
  17 C :   -0.211603
  18 C :   -0.077999
  19 C :   -0.061473
  20 C :   -0.179920
  21 H :    0.032935
  22 C :   -0.029082
  23 H :    0.035354
  24 H :    0.032789
  25 C :   -0.037535
  26 H :    0.026480
  27 H :    0.025863
  28 C :   -0.059723
  29 H :    0.026782
  30 H :    0.027522
  31 H :    0.020153
  32 H :    0.023496
  33 H :    0.040537

  Mayer bond orders larger than 0.100000
B(  0-S ,  1-C ) :   1.1128 B(  0-S ,  4-C ) :   1.1137 B(  1-C ,  2-C ) :   1.6477
B(  1-C , 32-H ) :   0.9635 B(  2-C ,  3-C ) :   1.1903 B(  2-C ,  6-C ) :   1.0460
B(  3-C ,  4-C ) :   1.5957 B(  3-C ,  5-H ) :   0.9882 B(  4-C , 20-C ) :   1.0800
B(  6-C ,  7-H ) :   0.9343 B(  6-C ,  8-H ) :   0.9400 B(  6-C ,  9-C ) :   1.0695
B(  9-C , 10-H ) :   0.9569 B(  9-C , 11-H ) :   0.9567 B(  9-C , 12-C ) :   1.0593
B( 12-C , 13-H ) :   0.9761 B( 12-C , 14-H ) :   0.9799 B( 12-C , 15-H ) :   0.9740
B( 16-S , 17-C ) :   1.1381 B( 16-S , 20-C ) :   1.1323 B( 17-C , 18-C ) :   1.6370
B( 17-C , 33-H ) :   0.9587 B( 18-C , 19-C ) :   1.2430 B( 18-C , 21-H ) :   0.9731
B( 19-C , 20-C ) :   1.6094 B( 19-C , 22-C ) :   1.0077 B( 22-C , 23-H ) :   0.9507
B( 22-C , 24-H ) :   0.9326 B( 22-C , 25-C ) :   1.0769 B( 25-C , 26-H ) :   0.9571
B( 25-C , 27-H ) :   0.9463 B( 25-C , 28-C ) :   1.0723 B( 28-C , 29-H ) :   0.9694
B( 28-C , 30-H ) :   0.9696 B( 28-C , 31-H ) :   0.9769

Dispersion correction           -0.014762269
FINAL SINGLE POINT ENERGY     -1339.848649999665

DIPOLE MOMENT
-------------
                                X             Y             Z
Electronic contribution:     24.17793     -12.89408       3.65492
Nuclear contribution   :    -24.84135      13.41693      -3.61156
                        -----------------------------------------
Total Dipole Moment    :     -0.66341       0.52286       0.04336
                        -----------------------------------------
Magnitude (a.u.)       :      0.84580
Magnitude (Debye)      :      2.14985

Rotational constants in cm-1:     0.018392     0.009442     0.006990
Rotational constants in MHz :   551.384986   283.067164   209.554041

                             ****ORCA TERMINATED NORMALLY****
TOTAL RUN TIME: 0 days 0 hours 0 minutes 34 seconds 604 msec
