                         Program Version 4.2.1 -  RELEASE  -
|  1> ! wB97X-D3 SP def2-SVP
|  2> %pal
|  3> nprocs 16
|  4> end
|  5>
|  6> * xyz 0 1
|  7> S 	 -96.6318 	 42.0244 	 125.482
|  8> C 	 -96.534 	 41.0847 	 126.933
|  9> C 	 -95.5378 	 41.6268 	 127.774
| 10> C 	 -94.7939 	 42.6805 	 127.138
| 11> C 	 -95.2369 	 43.0148 	 125.884
| 12> H 	 -93.8855 	 43.136 	 127.521
| 13> C 	 -95.2294 	 41.0864 	 129.18
| 14> H 	 -94.3302 	 41.5176 	 129.502
| 15> H 	 -95.0574 	 40.0033 	 129.074
| 16> C 	 -96.3786 	 41.1828 	 130.182
| 17> H 	 -96.4713 	 42.2219 	 130.482
| 18> H 	 -97.27 	 40.8107 	 129.791
| 19> C 	 -95.9931 	 40.3941 	 131.461
| 20> H 	 -95.1291 	 40.9475 	 131.94
| 21> H 	 -96.8287 	 40.4465 	 132.191
| 22> H 	 -95.8465 	 39.3488 	 131.277
| 23> S 	 -94.669 	 43.3349 	 123.187
| 24> C 	 -93.8253 	 44.7427 	 122.624
| 25> C 	 -93.6507 	 45.6266 	 123.633
| 26> C 	 -94.1357 	 45.208 	 124.956
| 27> C 	 -94.6169 	 43.8822 	 124.903
| 28> H 	 -93.1275 	 46.6202 	 123.452
| 29> C 	 -93.9727 	 46.1848 	 126.152
| 30> H 	 -93.1715 	 46.9306 	 125.959
| 31> H 	 -93.5434 	 45.6844 	 126.982
| 32> C 	 -95.3413 	 46.7409 	 126.561
| 33> H 	 -96.108 	 45.9842 	 126.38
| 34> H 	 -95.6581 	 47.5306 	 125.972
| 35> C 	 -95.535 	 47.0092 	 128.077
| 36> H 	 -96.4568 	 47.4485 	 128.213
| 37> H 	 -94.7527 	 47.7349 	 128.408
| 38> H 	 -95.4365 	 46.0852 	 128.619
| 39> H 	 -97.3434 	 40.4698 	 127.22
| 40> H 	 -93.6572 	 44.9637 	 121.566
| 41> *
| 42>
| 43>                          ****END OF INPUT****

CARTESIAN COORDINATES (ANGSTROEM)
---------------------------------
  S    -96.631800   42.024400  125.482000
  C    -96.534000   41.084700  126.933000
  C    -95.537800   41.626800  127.774000
  C    -94.793900   42.680500  127.138000
  C    -95.236900   43.014800  125.884000
  H    -93.885500   43.136000  127.521000
  C    -95.229400   41.086400  129.180000
  H    -94.330200   41.517600  129.502000
  H    -95.057400   40.003300  129.074000
  C    -96.378600   41.182800  130.182000
  H    -96.471300   42.221900  130.482000
  H    -97.270000   40.810700  129.791000
  C    -95.993100   40.394100  131.461000
  H    -95.129100   40.947500  131.940000
  H    -96.828700   40.446500  132.191000
  H    -95.846500   39.348800  131.277000
  S    -94.669000   43.334900  123.187000
  C    -93.825300   44.742700  122.624000
  C    -93.650700   45.626600  123.633000
  C    -94.135700   45.208000  124.956000
  C    -94.616900   43.882200  124.903000
  H    -93.127500   46.620200  123.452000
  C    -93.972700   46.184800  126.152000
  H    -93.171500   46.930600  125.959000
  H    -93.543400   45.684400  126.982000
  C    -95.341300   46.740900  126.561000
  H    -96.108000   45.984200  126.380000
  H    -95.658100   47.530600  125.972000
  C    -95.535000   47.009200  128.077000
  H    -96.456800   47.448500  128.213000
  H    -94.752700   47.734900  128.408000
  H    -95.436500   46.085200  128.619000
  H    -97.343400   40.469800  127.220000
  H    -93.657200   44.963700  121.566000

 Total Charge           Charge          ....    0
 Multiplicity           Mult            ....    1
 Number of Electrons    NEL             ....  134
 Basis Dimension        Dim             ....  322

ORBITAL ENERGIES
----------------

  NO   OCC          E(Eh)            E(eV)
   0   2.0000     -88.965175     -2420.8655
   1   2.0000     -88.962953     -2420.8050
   2   2.0000     -10.334922      -281.2275
   3   2.0000     -10.330409      -281.1047
   4   2.0000     -10.315043      -280.6866
   5   2.0000     -10.313787      -280.6524
   6   2.0000     -10.312841      -280.6267
   7   2.0000     -10.307013      -280.4681
   8   2.0000     -10.297449      -280.2078
   9   2.0000     -10.295927      -280.1664
  10   2.0000     -10.295543      -280.1560
  11   2.0000     -10.288645      -279.9683
  12   2.0000     -10.283845      -279.8377
  13   2.0000     -10.282951      -279.8133
  14   2.0000     -10.276955      -279.6502
  15   2.0000     -10.272041      -279.5164
  16   2.0000      -8.080090      -219.8704
  17   2.0000      -8.077334      -219.7954
  18   2.0000      -6.038535      -164.3169
  19   2.0000      -6.036029      -164.2487
  20   2.0000      -6.034440      -164.2055
  21   2.0000      -6.031893      -164.1362
  22   2.0000      -6.031027      -164.1126
  23   2.0000      -6.027899      -164.0275
  24   2.0000      -1.003905       -27.3177
  25   2.0000      -0.980043       -26.6683
  26   2.0000      -0.913292       -24.8519
  27   2.0000      -0.906770       -24.6745
  28   2.0000      -0.870227       -23.6801
  29   2.0000      -0.850296       -23.1377
  30   2.0000      -0.842549       -22.9269
  31   2.0000      -0.813881       -22.1468
  32   2.0000      -0.782062       -21.2810
  33   2.0000      -0.769196       -20.9309
  34   2.0000      -0.707883       -19.2625
  35   2.0000      -0.704429       -19.1685
  36   2.0000      -0.694216       -18.8906
  37   2.0000      -0.658532       -17.9196
  38   2.0000      -0.642543       -17.4845
  39   2.0000      -0.618081       -16.8188
  40   2.0000      -0.596255       -16.2249
  41   2.0000      -0.580581       -15.7984
  42   2.0000      -0.562122       -15.2961
  43   2.0000      -0.557913       -15.1816
  44   2.0000      -0.527497       -14.3539
  45   2.0000      -0.518936       -14.1210
  46   2.0000      -0.517791       -14.0898
  47   2.0000      -0.514320       -13.9954
  48   2.0000      -0.506379       -13.7793
  49   2.0000      -0.501135       -13.6366
  50   2.0000      -0.490059       -13.3352
  51   2.0000      -0.486631       -13.2419
  52   2.0000      -0.476110       -12.9556
  53   2.0000      -0.464416       -12.6374
  54   2.0000      -0.457960       -12.4617
  55   2.0000      -0.446849       -12.1594
  56   2.0000      -0.444445       -12.0940
  57   2.0000      -0.437447       -11.9035
  58   2.0000      -0.429997       -11.7008
  59   2.0000      -0.427597       -11.6355
  60   2.0000      -0.422747       -11.5035
  61   2.0000      -0.414689       -11.2843
  62   2.0000      -0.408404       -11.1132
  63   2.0000      -0.356310        -9.6957
  64   2.0000      -0.328447        -8.9375
  65   2.0000      -0.327596        -8.9143
  66   2.0000      -0.288777        -7.8580
  67   0.0000       0.022160         0.6030
  68   0.0000       0.071524         1.9463
  69   0.0000       0.108925         2.9640
  70   0.0000       0.122468         3.3325
  71   0.0000       0.132153         3.5961

MULLIKEN ATOMIC CHARGES
-----------------------
   0 S :    0.102293
   1 C :   -0.111247
   2 C :   -0.103875
   3 C :    0.021369
   4 C :   -0.140370
   5 H :    0.013548
   6 C :    0.085912
   7 H :   -0.000382
   8 H :    0.030455
   9 C :   -0.046390
  10 H :    0.029597
  11 H :    0.016242
  12 C :   -0.075422
  13 H :    0.041755
  14 H :    0.034122
  15 H :    0.034577
  16 S :    0.088643
  17 C :   -0.083987
  18 C :   -0.058996
  19 C :   -0.054799
  20 C :   -0.150738
  21 H :    0.040833
  22 C :    0.101597
  23 H :    0.028550
  24 H :    0.004135
  25 C :   -0.071572
  26 H :    0.037561
  27 H :    0.013113
  28 C :   -0.028044
  29 H :    0.020559
  30 H :    0.028117
  31 H :    0.035587
  32 H :    0.049973
  33 H :    0.067285
Sum of atomic charges:    0.0000000

LOEWDIN ATOMIC CHARGES
----------------------
   0 S :    0.412643
   1 C :   -0.202197
   2 C :   -0.055779
   3 C :   -0.069007
   4 C :   -0.192963
   5 H :    0.031751
   6 C :   -0.027472
   7 H :    0.019041
   8 H :    0.035636
   9 C :   -0.029624
  10 H :    0.025431
  11 H :    0.012798
  12 C :   -0.066860
  13 H :    0.032990
  14 H :    0.027183
  15 H :    0.019313
  16 S :    0.386056
  17 C :   -0.193352
  18 C :   -0.084440
  19 C :   -0.045880
  20 C :   -0.183267
  21 H :    0.040164
  22 C :   -0.028210
  23 H :    0.035215
  24 H :    0.022817
  25 C :   -0.035394
  26 H :    0.031255
  27 H :    0.013569
  28 C :   -0.053198
  29 H :    0.016043
  30 H :    0.025020
  31 H :    0.023619
  32 H :    0.020009
  33 H :    0.037091

  Mayer bond orders larger than 0.100000
B(  0-S ,  1-C ) :   1.1512 B(  0-S ,  4-C ) :   1.1556 B(  1-C ,  2-C ) :   1.5732
B(  1-C , 32-H ) :   0.9738 B(  2-C ,  3-C ) :   1.2668 B(  2-C ,  6-C ) :   1.0171
B(  3-C ,  4-C ) :   1.5606 B(  3-C ,  5-H ) :   0.9923 B(  4-C , 20-C ) :   1.0687
B(  6-C ,  7-H ) :   0.9430 B(  6-C ,  8-H ) :   0.9430 B(  6-C ,  9-C ) :   1.0653
B(  9-C , 10-H ) :   0.9550 B(  9-C , 11-H ) :   0.9583 B(  9-C , 12-C ) :   1.0849
B( 12-C , 13-H ) :   0.9753 B( 12-C , 14-H ) :   0.9750 B( 12-C , 15-H ) :   0.9763
B( 16-S , 17-C ) :   1.1400 B( 16-S , 20-C ) :   1.1248 B( 17-C , 18-C ) :   1.6365
B( 17-C , 33-H ) :   0.9636 B( 18-C , 19-C ) :   1.2324 B( 18-C , 21-H ) :   0.9750
B( 19-C , 20-C ) :   1.5912 B( 19-C , 22-C ) :   1.0343 B( 22-C , 23-H ) :   0.9358
B( 22-C , 24-H ) :   0.9417 B( 22-C , 25-C ) :   1.0362 B( 25-C , 26-H ) :   0.9640
B( 25-C , 27-H ) :   0.9565 B( 25-C , 28-C ) :   1.0814 B( 28-C , 29-H ) :   0.9734
B( 28-C , 30-H ) :   0.9762 B( 28-C , 31-H ) :   0.9771

Dispersion correction           -0.013806355
FINAL SINGLE POINT ENERGY     -1339.875359081602

DIPOLE MOMENT
-------------
                                X             Y             Z
Electronic contribution:      0.15837      -6.32496     -29.27620
Nuclear contribution   :     -0.07497       6.65193      29.83799
                        -----------------------------------------
Total Dipole Moment    :      0.08340       0.32697       0.56179
                        -----------------------------------------
Magnitude (a.u.)       :      0.65534
Magnitude (Debye)      :      1.66575

Rotational constants in cm-1:     0.020235     0.008013     0.006288
Rotational constants in MHz :   606.644931   240.212748   188.498184

                             ****ORCA TERMINATED NORMALLY****
TOTAL RUN TIME: 0 days 0 hours 0 minutes 31 seconds 747 msec
