                         Program Version 4.2.1 -  RELEASE  -
|  1> ! wB97X-D3 SP def2-SVP
|  2> %pal
|  3> nprocs 16
|  4> end
|  5>
|  6> * xyz 0 1
|  7> S 	 -55.7192 	 36.5754 	 114.687
|  8> C 	 -54.1447 	 35.8416 	 114.426
|  9> C 	 -53.2484 	 36.7462 	 113.92
| 10> C 	 -53.8244 	 38.0776 	 113.929
| 11> C 	 -55.149 	 38.223 	 114.434
| 12> H 	 -53.3458 	 39.027 	 113.597
| 13> C 	 -51.768 	 36.491 	 113.534
| 14> H 	 -51.7707 	 36.3126 	 112.475
| 15> H 	 -51.363 	 35.5596 	 113.976
| 16> C 	 -50.7229 	 37.4268 	 113.785
| 17> H 	 -49.7749 	 36.9785 	 113.482
| 18> H 	 -50.7883 	 38.2946 	 113.202
| 19> C 	 -50.6637 	 37.8834 	 115.224
| 20> H 	 -51.6752 	 38.2894 	 115.574
| 21> H 	 -50.4974 	 37.1001 	 115.967
| 22> H 	 -49.9964 	 38.7985 	 115.295
| 23> S 	 -57.7222 	 39.1709 	 114.168
| 24> C 	 -57.9803 	 40.9113 	 114.044
| 25> C 	 -56.8967 	 41.5298 	 114.496
| 26> C 	 -55.7319 	 40.7016 	 114.654
| 27> C 	 -56.0103 	 39.3914 	 114.528
| 28> H 	 -56.8397 	 42.6164 	 114.479
| 29> C 	 -54.3739 	 41.265 	 115.018
| 30> H 	 -54.2929 	 42.2447 	 114.688
| 31> H 	 -53.6162 	 40.7912 	 114.462
| 32> C 	 -53.9488 	 41.2093 	 116.495
| 33> H 	 -54.0733 	 40.2195 	 116.845
| 34> H 	 -54.7344 	 41.7352 	 117.039
| 35> C 	 -52.5542 	 41.6447 	 116.752
| 36> H 	 -52.4839 	 41.5126 	 117.826
| 37> H 	 -52.5069 	 42.7741 	 116.663
| 38> H 	 -51.7738 	 41.1418 	 116.26
| 39> H 	 -54.1343 	 34.7446 	 114.727
| 40> H 	 -58.9197 	 41.3525 	 113.569
| 41> *
| 42>
| 43>                          ****END OF INPUT****

CARTESIAN COORDINATES (ANGSTROEM)
---------------------------------
  S    -55.719200   36.575400  114.687000
  C    -54.144700   35.841600  114.426000
  C    -53.248400   36.746200  113.920000
  C    -53.824400   38.077600  113.929000
  C    -55.149000   38.223000  114.434000
  H    -53.345800   39.027000  113.597000
  C    -51.768000   36.491000  113.534000
  H    -51.770700   36.312600  112.475000
  H    -51.363000   35.559600  113.976000
  C    -50.722900   37.426800  113.785000
  H    -49.774900   36.978500  113.482000
  H    -50.788300   38.294600  113.202000
  C    -50.663700   37.883400  115.224000
  H    -51.675200   38.289400  115.574000
  H    -50.497400   37.100100  115.967000
  H    -49.996400   38.798500  115.295000
  S    -57.722200   39.170900  114.168000
  C    -57.980300   40.911300  114.044000
  C    -56.896700   41.529800  114.496000
  C    -55.731900   40.701600  114.654000
  C    -56.010300   39.391400  114.528000
  H    -56.839700   42.616400  114.479000
  C    -54.373900   41.265000  115.018000
  H    -54.292900   42.244700  114.688000
  H    -53.616200   40.791200  114.462000
  C    -53.948800   41.209300  116.495000
  H    -54.073300   40.219500  116.845000
  H    -54.734400   41.735200  117.039000
  C    -52.554200   41.644700  116.752000
  H    -52.483900   41.512600  117.826000
  H    -52.506900   42.774100  116.663000
  H    -51.773800   41.141800  116.260000
  H    -54.134300   34.744600  114.727000
  H    -58.919700   41.352500  113.569000

 Total Charge           Charge          ....    0
 Multiplicity           Mult            ....    1
 Number of Electrons    NEL             ....  134
 Basis Dimension        Dim             ....  322

ORBITAL ENERGIES
----------------

  NO   OCC          E(Eh)            E(eV)
   0   2.0000     -88.960863     -2420.7481
   1   2.0000     -88.959460     -2420.7100
   2   2.0000     -10.336797      -281.2785
   3   2.0000     -10.327081      -281.0142
   4   2.0000     -10.322927      -280.9011
   5   2.0000     -10.322392      -280.8866
   6   2.0000     -10.312275      -280.6113
   7   2.0000     -10.303537      -280.3735
   8   2.0000     -10.300574      -280.2929
   9   2.0000     -10.292082      -280.0618
  10   2.0000     -10.289494      -279.9914
  11   2.0000     -10.282338      -279.7966
  12   2.0000     -10.279342      -279.7151
  13   2.0000     -10.277054      -279.6529
  14   2.0000     -10.276634      -279.6414
  15   2.0000     -10.276459      -279.6367
  16   2.0000      -8.075744      -219.7522
  17   2.0000      -8.074711      -219.7241
  18   2.0000      -6.034370      -164.2036
  19   2.0000      -6.033447      -164.1784
  20   2.0000      -6.030167      -164.0892
  21   2.0000      -6.029274      -164.0649
  22   2.0000      -6.026451      -163.9881
  23   2.0000      -6.025043      -163.9498
  24   2.0000      -1.009889       -27.4805
  25   2.0000      -0.985054       -26.8047
  26   2.0000      -0.928542       -25.2669
  27   2.0000      -0.915911       -24.9232
  28   2.0000      -0.876741       -23.8573
  29   2.0000      -0.855787       -23.2871
  30   2.0000      -0.837003       -22.7760
  31   2.0000      -0.814932       -22.1754
  32   2.0000      -0.787635       -21.4326
  33   2.0000      -0.780551       -21.2399
  34   2.0000      -0.708753       -19.2861
  35   2.0000      -0.700002       -19.0480
  36   2.0000      -0.691500       -18.8167
  37   2.0000      -0.664353       -18.0780
  38   2.0000      -0.638315       -17.3694
  39   2.0000      -0.622949       -16.9513
  40   2.0000      -0.603035       -16.4094
  41   2.0000      -0.573607       -15.6086
  42   2.0000      -0.569006       -15.4834
  43   2.0000      -0.559381       -15.2215
  44   2.0000      -0.539815       -14.6891
  45   2.0000      -0.529804       -14.4167
  46   2.0000      -0.523980       -14.2582
  47   2.0000      -0.520303       -14.1582
  48   2.0000      -0.501765       -13.6537
  49   2.0000      -0.500352       -13.6153
  50   2.0000      -0.493726       -13.4350
  51   2.0000      -0.490129       -13.3371
  52   2.0000      -0.476319       -12.9613
  53   2.0000      -0.470686       -12.8080
  54   2.0000      -0.455213       -12.3870
  55   2.0000      -0.448761       -12.2114
  56   2.0000      -0.435812       -11.8591
  57   2.0000      -0.431107       -11.7310
  58   2.0000      -0.428972       -11.6729
  59   2.0000      -0.422189       -11.4883
  60   2.0000      -0.416673       -11.3382
  61   2.0000      -0.412203       -11.2166
  62   2.0000      -0.405681       -11.0391
  63   2.0000      -0.364785        -9.9263
  64   2.0000      -0.332118        -9.0374
  65   2.0000      -0.324695        -8.8354
  66   2.0000      -0.287374        -7.8198
  67   0.0000       0.022790         0.6202
  68   0.0000       0.074655         2.0315
  69   0.0000       0.104548         2.8449
  70   0.0000       0.116970         3.1829
  71   0.0000       0.128360         3.4929

MULLIKEN ATOMIC CHARGES
-----------------------
   0 S :    0.077286
   1 C :   -0.177587
   2 C :   -0.041075
   3 C :   -0.019569
   4 C :   -0.137850
   5 H :    0.027892
   6 C :    0.085262
   7 H :    0.033004
   8 H :    0.021129
   9 C :   -0.025060
  10 H :    0.026626
  11 H :    0.004449
  12 C :   -0.099989
  13 H :    0.038543
  14 H :    0.033154
  15 H :    0.042679
  16 S :    0.072980
  17 C :   -0.121813
  18 C :    0.005268
  19 C :   -0.111075
  20 C :   -0.083618
  21 H :    0.018352
  22 C :    0.140015
  23 H :   -0.015454
  24 H :   -0.025076
  25 C :   -0.061717
  26 H :    0.016525
  27 H :    0.018159
  28 C :   -0.014897
  29 H :    0.029274
  30 H :    0.031428
  31 H :    0.034405
  32 H :    0.086085
  33 H :    0.092265
Sum of atomic charges:   -0.0000000

LOEWDIN ATOMIC CHARGES
----------------------
   0 S :    0.387599
   1 C :   -0.196282
   2 C :   -0.064589
   3 C :   -0.074889
   4 C :   -0.185036
   5 H :    0.030518
   6 C :   -0.032809
   7 H :    0.035998
   8 H :    0.035986
   9 C :   -0.049705
  10 H :    0.032820
  11 H :    0.015050
  12 C :   -0.075374
  13 H :    0.031560
  14 H :    0.024100
  15 H :    0.030934
  16 S :    0.375722
  17 C :   -0.178142
  18 C :   -0.075047
  19 C :   -0.056543
  20 C :   -0.184862
  21 H :    0.032379
  22 C :   -0.024650
  23 H :    0.017963
  24 H :    0.018034
  25 C :   -0.036072
  26 H :    0.019029
  27 H :    0.025857
  28 C :   -0.059964
  29 H :    0.033567
  30 H :    0.032331
  31 H :    0.019481
  32 H :    0.043701
  33 H :    0.051336

  Mayer bond orders larger than 0.100000
B(  0-S ,  1-C ) :   1.1461 B(  0-S ,  4-C ) :   1.1472 B(  1-C ,  2-C ) :   1.5949
B(  1-C ,  4-C ) :   0.1026 B(  1-C , 32-H ) :   0.9645 B(  2-C ,  3-C ) :   1.2389
B(  2-C ,  6-C ) :   1.0000 B(  3-C ,  4-C ) :   1.5653 B(  3-C ,  5-H ) :   0.9761
B(  4-C , 20-C ) :   1.0703 B(  6-C ,  7-H ) :   0.9237 B(  6-C ,  8-H ) :   0.9486
B(  6-C ,  9-C ) :   1.1112 B(  9-C , 10-H ) :   0.9413 B(  9-C , 11-H ) :   0.9341
B(  9-C , 12-C ) :   1.0867 B( 12-C , 13-H ) :   0.9662 B( 12-C , 14-H ) :   0.9707
B( 12-C , 15-H ) :   0.9738 B( 16-S , 17-C ) :   1.1349 B( 16-S , 20-C ) :   1.1074
B( 17-C , 18-C ) :   1.6381 B( 17-C , 33-H ) :   0.9590 B( 18-C , 19-C ) :   1.2172
B( 18-C , 21-H ) :   0.9854 B( 19-C , 20-C ) :   1.6467 B( 19-C , 22-C ) :   1.0547
B( 22-C , 23-H ) :   0.9135 B( 22-C , 24-H ) :   0.9214 B( 22-C , 25-C ) :   1.0632
B( 25-C , 26-H ) :   0.9531 B( 25-C , 27-H ) :   0.9480 B( 25-C , 28-C ) :   1.0913
B( 28-C , 29-H ) :   0.9680 B( 28-C , 30-H ) :   0.9709 B( 28-C , 31-H ) :   0.9716

Dispersion correction           -0.015163282
FINAL SINGLE POINT ENERGY     -1339.853776651287

DIPOLE MOMENT
-------------
                                X             Y             Z
Electronic contribution:    -28.97901      -9.95822      -6.56182
Nuclear contribution   :     29.60047      10.35928       6.45288
                        -----------------------------------------
Total Dipole Moment    :      0.62145       0.40106      -0.10894
                        -----------------------------------------
Magnitude (a.u.)       :      0.74761
Magnitude (Debye)      :      1.90028

Rotational constants in cm-1:     0.017642     0.010447     0.007184
Rotational constants in MHz :   528.879200   313.184950   215.360512

                             ****ORCA TERMINATED NORMALLY****
TOTAL RUN TIME: 0 days 0 hours 0 minutes 32 seconds 374 msec
