                         Program Version 4.2.1 -  RELEASE  -
|  1> ! wB97X-D3 SP def2-SVP
|  2> %pal
|  3> nprocs 16
|  4> end
|  5>
|  6> * xyz 0 1
|  7> S 	 64.6104 	 19.6877 	 75.1685
|  8> C 	 65.9199 	 18.6238 	 75.4665
|  9> C 	 66.5406 	 18.968 	 76.6239
| 10> C 	 65.9219 	 20.0782 	 77.3182
| 11> C 	 64.8598 	 20.5617 	 76.6099
| 12> H 	 66.2738 	 20.6281 	 78.1923
| 13> C 	 67.7589 	 18.1881 	 77.1173
| 14> H 	 67.4031 	 17.0737 	 77.0916
| 15> H 	 68.0205 	 18.5768 	 78.1338
| 16> C 	 69.0436 	 18.2774 	 76.2308
| 17> H 	 68.7671 	 17.7572 	 75.2527
| 18> H 	 69.1497 	 19.3511 	 75.9721
| 19> C 	 70.1551 	 17.6526 	 77.112
| 20> H 	 69.9809 	 16.6355 	 77.3481
| 21> H 	 71.0266 	 17.6941 	 76.4966
| 22> H 	 70.4359 	 18.2275 	 78.0104
| 23> S 	 63.5974 	 22.7452 	 75.357
| 24> C 	 63.0123 	 24.0413 	 76.3299
| 25> C 	 63.0477 	 23.7712 	 77.6936
| 26> C 	 63.6228 	 22.5056 	 77.9546
| 27> C 	 64.0817 	 21.8242 	 76.8038
| 28> H 	 62.6392 	 24.4089 	 78.5126
| 29> C 	 63.8062 	 22.1605 	 79.3928
| 30> H 	 63.596 	 23.0679 	 80.0461
| 31> H 	 64.8193 	 22.0212 	 79.6474
| 32> C 	 63.1146 	 20.8162 	 79.7607
| 33> H 	 63.5287 	 20.4399 	 80.6581
| 34> H 	 63.4719 	 20.1921 	 78.9524
| 35> C 	 61.6124 	 20.8351 	 79.6553
| 36> H 	 61.3578 	 19.8497 	 79.9523
| 37> H 	 61.1882 	 20.7331 	 78.647
| 38> H 	 61.1289 	 21.5379 	 80.3674
| 39> H 	 66.2661 	 17.873 	 74.7536
| 40> H 	 62.7106 	 24.9828 	 75.8925
| 41> *
| 42>
| 43>                          ****END OF INPUT****

CARTESIAN COORDINATES (ANGSTROEM)
---------------------------------
  S     64.610400   19.687700   75.168500
  C     65.919900   18.623800   75.466500
  C     66.540600   18.968000   76.623900
  C     65.921900   20.078200   77.318200
  C     64.859800   20.561700   76.609900
  H     66.273800   20.628100   78.192300
  C     67.758900   18.188100   77.117300
  H     67.403100   17.073700   77.091600
  H     68.020500   18.576800   78.133800
  C     69.043600   18.277400   76.230800
  H     68.767100   17.757200   75.252700
  H     69.149700   19.351100   75.972100
  C     70.155100   17.652600   77.112000
  H     69.980900   16.635500   77.348100
  H     71.026600   17.694100   76.496600
  H     70.435900   18.227500   78.010400
  S     63.597400   22.745200   75.357000
  C     63.012300   24.041300   76.329900
  C     63.047700   23.771200   77.693600
  C     63.622800   22.505600   77.954600
  C     64.081700   21.824200   76.803800
  H     62.639200   24.408900   78.512600
  C     63.806200   22.160500   79.392800
  H     63.596000   23.067900   80.046100
  H     64.819300   22.021200   79.647400
  C     63.114600   20.816200   79.760700
  H     63.528700   20.439900   80.658100
  H     63.471900   20.192100   78.952400
  C     61.612400   20.835100   79.655300
  H     61.357800   19.849700   79.952300
  H     61.188200   20.733100   78.647000
  H     61.128900   21.537900   80.367400
  H     66.266100   17.873000   74.753600
  H     62.710600   24.982800   75.892500

 Total Charge           Charge          ....    0
 Multiplicity           Mult            ....    1
 Number of Electrons    NEL             ....  134
 Basis Dimension        Dim             ....  322

ORBITAL ENERGIES
----------------

  NO   OCC          E(Eh)            E(eV)
   0   2.0000     -88.968332     -2420.9514
   1   2.0000     -88.962061     -2420.7808
   2   2.0000     -10.332677      -281.1664
   3   2.0000     -10.328611      -281.0558
   4   2.0000     -10.316771      -280.7336
   5   2.0000     -10.306830      -280.4631
   6   2.0000     -10.300819      -280.2995
   7   2.0000     -10.298944      -280.2485
   8   2.0000     -10.298447      -280.2350
   9   2.0000     -10.297608      -280.2121
  10   2.0000     -10.294539      -280.1286
  11   2.0000     -10.294425      -280.1255
  12   2.0000     -10.285848      -279.8922
  13   2.0000     -10.278889      -279.7028
  14   2.0000     -10.277314      -279.6599
  15   2.0000     -10.269467      -279.4464
  16   2.0000      -8.082830      -219.9450
  17   2.0000      -8.078622      -219.8305
  18   2.0000      -6.041324      -164.3928
  19   2.0000      -6.037311      -164.2836
  20   2.0000      -6.036982      -164.2746
  21   2.0000      -6.033691      -164.1851
  22   2.0000      -6.032855      -164.1623
  23   2.0000      -6.029451      -164.0697
  24   2.0000      -1.012181       -27.5429
  25   2.0000      -0.987293       -26.8656
  26   2.0000      -0.911041       -24.7907
  27   2.0000      -0.907238       -24.6872
  28   2.0000      -0.866523       -23.5793
  29   2.0000      -0.853090       -23.2138
  30   2.0000      -0.845929       -23.0189
  31   2.0000      -0.813667       -22.1410
  32   2.0000      -0.783235       -21.3129
  33   2.0000      -0.767786       -20.8925
  34   2.0000      -0.706486       -19.2245
  35   2.0000      -0.699822       -19.0431
  36   2.0000      -0.682228       -18.5644
  37   2.0000      -0.662831       -18.0365
  38   2.0000      -0.641567       -17.4579
  39   2.0000      -0.613204       -16.6861
  40   2.0000      -0.597285       -16.2529
  41   2.0000      -0.567781       -15.4501
  42   2.0000      -0.558897       -15.2084
  43   2.0000      -0.552054       -15.0221
  44   2.0000      -0.543794       -14.7974
  45   2.0000      -0.521246       -14.1838
  46   2.0000      -0.513927       -13.9847
  47   2.0000      -0.506368       -13.7790
  48   2.0000      -0.505276       -13.7493
  49   2.0000      -0.497275       -13.5315
  50   2.0000      -0.492929       -13.4133
  51   2.0000      -0.479033       -13.0352
  52   2.0000      -0.470334       -12.7984
  53   2.0000      -0.468183       -12.7399
  54   2.0000      -0.465773       -12.6743
  55   2.0000      -0.454995       -12.3810
  56   2.0000      -0.438411       -11.9298
  57   2.0000      -0.434798       -11.8315
  58   2.0000      -0.428391       -11.6571
  59   2.0000      -0.422248       -11.4899
  60   2.0000      -0.415818       -11.3150
  61   2.0000      -0.409029       -11.1302
  62   2.0000      -0.408138       -11.1060
  63   2.0000      -0.353675        -9.6240
  64   2.0000      -0.333192        -9.0666
  65   2.0000      -0.326292        -8.8789
  66   2.0000      -0.285378        -7.7655
  67   0.0000       0.026675         0.7259
  68   0.0000       0.075425         2.0524
  69   0.0000       0.107580         2.9274
  70   0.0000       0.121743         3.3128
  71   0.0000       0.139554         3.7975

MULLIKEN ATOMIC CHARGES
-----------------------
   0 S :    0.096998
   1 C :   -0.131675
   2 C :   -0.073960
   3 C :    0.019147
   4 C :   -0.130315
   5 H :    0.015515
   6 C :   -0.013200
   7 H :    0.056260
   8 H :    0.026334
   9 C :   -0.107544
  10 H :    0.039418
  11 H :    0.042851
  12 C :   -0.010147
  13 H :    0.029409
  14 H :    0.023020
  15 H :    0.042046
  16 S :    0.111078
  17 C :   -0.090671
  18 C :   -0.045125
  19 C :   -0.036081
  20 C :   -0.147523
  21 H :    0.038065
  22 C :    0.047478
  23 H :    0.019008
  24 H :    0.010334
  25 C :   -0.063813
  26 H :    0.016007
  27 H :    0.030834
  28 C :   -0.013858
  29 H :    0.006177
  30 H :    0.041046
  31 H :    0.039219
  32 H :    0.055559
  33 H :    0.058109
Sum of atomic charges:   -0.0000000

LOEWDIN ATOMIC CHARGES
----------------------
   0 S :    0.430090
   1 C :   -0.215683
   2 C :   -0.068174
   3 C :   -0.076358
   4 C :   -0.199970
   5 H :    0.034664
   6 C :   -0.043941
   7 H :    0.042933
   8 H :    0.027895
   9 C :   -0.044392
  10 H :    0.028688
  11 H :    0.027917
  12 C :   -0.060799
  13 H :    0.023067
  14 H :    0.023367
  15 H :    0.032719
  16 S :    0.410015
  17 C :   -0.189364
  18 C :   -0.075907
  19 C :   -0.054986
  20 C :   -0.196961
  21 H :    0.041347
  22 C :   -0.038214
  23 H :    0.030980
  24 H :    0.021185
  25 C :   -0.033251
  26 H :    0.016602
  27 H :    0.030343
  28 C :   -0.072675
  29 H :    0.024864
  30 H :    0.036655
  31 H :    0.028017
  32 H :    0.032107
  33 H :    0.027220

  Mayer bond orders larger than 0.100000
B(  0-S ,  1-C ) :   1.1313 B(  0-S ,  4-C ) :   1.1761 B(  1-C ,  2-C ) :   1.6107
B(  1-C , 32-H ) :   0.9740 B(  2-C ,  3-C ) :   1.2397 B(  2-C ,  6-C ) :   1.0086
B(  3-C ,  4-C ) :   1.5620 B(  3-C ,  5-H ) :   0.9948 B(  4-C , 20-C ) :   1.0292
B(  6-C ,  7-H ) :   0.9452 B(  6-C ,  8-H ) :   0.9506 B(  6-C ,  9-C ) :   1.0501
B(  9-C , 10-H ) :   0.9537 B(  9-C , 11-H ) :   0.9598 B(  9-C , 12-C ) :   1.0716
B( 12-C , 13-H ) :   0.9730 B( 12-C , 14-H ) :   0.9728 B( 12-C , 15-H ) :   0.9739
B( 16-S , 17-C ) :   1.1786 B( 16-S , 20-C ) :   1.1405 B( 17-C , 18-C ) :   1.5605
B( 17-C , 20-C ) :   0.1061 B( 17-C , 33-H ) :   0.9680 B( 18-C , 19-C ) :   1.2839
B( 18-C , 21-H ) :   0.9838 B( 19-C , 20-C ) :   1.5564 B( 19-C , 22-C ) :   1.0408
B( 22-C , 23-H ) :   0.9414 B( 22-C , 24-H ) :   0.9319 B( 22-C , 25-C ) :   1.0587
B( 25-C , 26-H ) :   0.9580 B( 25-C , 27-H ) :   0.9509 B( 25-C , 28-C ) :   1.0880
B( 28-C , 29-H ) :   0.9618 B( 28-C , 30-H ) :   0.9654 B( 28-C , 31-H ) :   0.9759

Dispersion correction           -0.014276344
FINAL SINGLE POINT ENERGY     -1339.865503254621

DIPOLE MOMENT
-------------
                                X             Y             Z
Electronic contribution:    -11.71708      11.02777     -17.86041
Nuclear contribution   :     12.13740     -11.10080      18.29184
                        -----------------------------------------
Total Dipole Moment    :      0.42032      -0.07303       0.43143
                        -----------------------------------------
Magnitude (a.u.)       :      0.60675
Magnitude (Debye)      :      1.54223

Rotational constants in cm-1:     0.022058     0.007572     0.006572
Rotational constants in MHz :   661.268636   226.998332   197.026867

                             ****ORCA TERMINATED NORMALLY****
TOTAL RUN TIME: 0 days 0 hours 0 minutes 30 seconds 126 msec
