                         Program Version 4.2.1 -  RELEASE  -
|  1> ! wB97X-D3 SP def2-SVP
|  2> %pal
|  3> nprocs 16
|  4> end
|  5>
|  6> * xyz 0 1
|  7> S 	 9.67358 	 -19.4062 	 82.612
|  8> C 	 10.0513 	 -20.6364 	 83.7994
|  9> C 	 10.079 	 -20.1244 	 85.0637
| 10> C 	 9.98096 	 -18.7578 	 85.1037
| 11> C 	 9.59508 	 -18.1824 	 83.9399
| 12> H 	 9.89922 	 -18.2173 	 85.9884
| 13> C 	 10.2024 	 -20.9229 	 86.3656
| 14> H 	 9.0964 	 -21.1867 	 86.5262
| 15> H 	 10.4203 	 -20.3262 	 87.1646
| 16> C 	 10.9358 	 -22.3105 	 86.3511
| 17> H 	 10.5792 	 -22.9382 	 87.1131
| 18> H 	 10.5894 	 -22.8359 	 85.4138
| 19> C 	 12.4632 	 -22.1837 	 86.4353
| 20> H 	 12.8733 	 -23.1574 	 86.393
| 21> H 	 12.7537 	 -21.4717 	 85.6455
| 22> H 	 12.7625 	 -21.7652 	 87.3584
| 23> S 	 7.56209 	 -16.5513 	 84.7313
| 24> C 	 7.40188 	 -15.0152 	 83.9679
| 25> C 	 8.29937 	 -14.7103 	 82.9728
| 26> C 	 9.21847 	 -15.7827 	 82.8407
| 27> C 	 8.9815 	 -16.8468 	 83.7468
| 28> H 	 8.19785 	 -13.7856 	 82.4329
| 29> C 	 10.4563 	 -15.5818 	 81.9509
| 30> H 	 10.2767 	 -14.708 	 81.3369
| 31> H 	 10.4458 	 -16.4055 	 81.1887
| 32> C 	 11.7828 	 -15.4846 	 82.7308
| 33> H 	 12.6138 	 -15.5193 	 82.0118
| 34> H 	 11.7868 	 -16.4462 	 83.3058
| 35> C 	 11.9494 	 -14.3325 	 83.6873
| 36> H 	 11.6735 	 -13.2815 	 83.283
| 37> H 	 12.9999 	 -14.3627 	 84.0124
| 38> H 	 11.3053 	 -14.5606 	 84.5351
| 39> H 	 10.091 	 -21.706 	 83.5325
| 40> H 	 6.6183 	 -14.2962 	 84.1874
| 41> *
| 42>
| 43>                          ****END OF INPUT****

CARTESIAN COORDINATES (ANGSTROEM)
---------------------------------
  S      9.673580  -19.406200   82.612000
  C     10.051300  -20.636400   83.799400
  C     10.079000  -20.124400   85.063700
  C      9.980960  -18.757800   85.103700
  C      9.595080  -18.182400   83.939900
  H      9.899220  -18.217300   85.988400
  C     10.202400  -20.922900   86.365600
  H      9.096400  -21.186700   86.526200
  H     10.420300  -20.326200   87.164600
  C     10.935800  -22.310500   86.351100
  H     10.579200  -22.938200   87.113100
  H     10.589400  -22.835900   85.413800
  C     12.463200  -22.183700   86.435300
  H     12.873300  -23.157400   86.393000
  H     12.753700  -21.471700   85.645500
  H     12.762500  -21.765200   87.358400
  S      7.562090  -16.551300   84.731300
  C      7.401880  -15.015200   83.967900
  C      8.299370  -14.710300   82.972800
  C      9.218470  -15.782700   82.840700
  C      8.981500  -16.846800   83.746800
  H      8.197850  -13.785600   82.432900
  C     10.456300  -15.581800   81.950900
  H     10.276700  -14.708000   81.336900
  H     10.445800  -16.405500   81.188700
  C     11.782800  -15.484600   82.730800
  H     12.613800  -15.519300   82.011800
  H     11.786800  -16.446200   83.305800
  C     11.949400  -14.332500   83.687300
  H     11.673500  -13.281500   83.283000
  H     12.999900  -14.362700   84.012400
  H     11.305300  -14.560600   84.535100
  H     10.091000  -21.706000   83.532500
  H      6.618300  -14.296200   84.187400

 Total Charge           Charge          ....    0
 Multiplicity           Mult            ....    1
 Number of Electrons    NEL             ....  134
 Basis Dimension        Dim             ....  322

ORBITAL ENERGIES
----------------

  NO   OCC          E(Eh)            E(eV)
   0   2.0000     -88.971524     -2421.0382
   1   2.0000     -88.963139     -2420.8101
   2   2.0000     -10.331445      -281.1329
   3   2.0000     -10.328619      -281.0560
   4   2.0000     -10.313365      -280.6409
   5   2.0000     -10.311209      -280.5823
   6   2.0000     -10.306127      -280.4440
   7   2.0000     -10.295139      -280.1450
   8   2.0000     -10.292737      -280.0796
   9   2.0000     -10.291392      -280.0430
  10   2.0000     -10.290741      -280.0253
  11   2.0000     -10.289355      -279.9876
  12   2.0000     -10.283488      -279.8279
  13   2.0000     -10.281310      -279.7687
  14   2.0000     -10.278977      -279.7052
  15   2.0000     -10.271033      -279.4890
  16   2.0000      -8.086372      -220.0414
  17   2.0000      -8.077181      -219.7913
  18   2.0000      -6.044689      -164.4843
  19   2.0000      -6.040912      -164.3816
  20   2.0000      -6.037291      -164.2830
  21   2.0000      -6.035719      -164.2403
  22   2.0000      -6.031870      -164.1355
  23   2.0000      -6.027866      -164.0266
  24   2.0000      -1.007294       -27.4099
  25   2.0000      -0.987980       -26.8843
  26   2.0000      -0.905852       -24.6495
  27   2.0000      -0.904572       -24.6147
  28   2.0000      -0.868305       -23.6278
  29   2.0000      -0.854906       -23.2632
  30   2.0000      -0.846831       -23.0435
  31   2.0000      -0.814254       -22.1570
  32   2.0000      -0.784031       -21.3346
  33   2.0000      -0.768742       -20.9185
  34   2.0000      -0.710693       -19.3389
  35   2.0000      -0.701202       -19.0807
  36   2.0000      -0.678947       -18.4751
  37   2.0000      -0.661339       -17.9959
  38   2.0000      -0.641813       -17.4646
  39   2.0000      -0.614587       -16.7238
  40   2.0000      -0.588784       -16.0216
  41   2.0000      -0.576817       -15.6960
  42   2.0000      -0.555206       -15.1079
  43   2.0000      -0.549623       -14.9560
  44   2.0000      -0.539870       -14.6906
  45   2.0000      -0.531453       -14.4616
  46   2.0000      -0.519139       -14.1265
  47   2.0000      -0.512862       -13.9557
  48   2.0000      -0.502352       -13.6697
  49   2.0000      -0.488642       -13.2966
  50   2.0000      -0.483594       -13.1593
  51   2.0000      -0.481108       -13.0916
  52   2.0000      -0.470615       -12.8061
  53   2.0000      -0.468893       -12.7592
  54   2.0000      -0.463646       -12.6164
  55   2.0000      -0.446881       -12.1603
  56   2.0000      -0.443174       -12.0594
  57   2.0000      -0.436371       -11.8743
  58   2.0000      -0.432799       -11.7771
  59   2.0000      -0.427705       -11.6384
  60   2.0000      -0.414929       -11.2908
  61   2.0000      -0.410508       -11.1705
  62   2.0000      -0.409718       -11.1490
  63   2.0000      -0.342167        -9.3108
  64   2.0000      -0.338643        -9.2150
  65   2.0000      -0.327610        -8.9147
  66   2.0000      -0.290396        -7.9021
  67   0.0000       0.030282         0.8240
  68   0.0000       0.063350         1.7238
  69   0.0000       0.108871         2.9625
  70   0.0000       0.112919         3.0727
  71   0.0000       0.128512         3.4970

MULLIKEN ATOMIC CHARGES
-----------------------
   0 S :    0.101939
   1 C :   -0.152429
   2 C :   -0.074857
   3 C :    0.048459
   4 C :   -0.135117
   5 H :   -0.014348
   6 C :    0.063434
   7 H :    0.048276
   8 H :   -0.004827
   9 C :   -0.069915
  10 H :    0.014966
  11 H :    0.023276
  12 C :   -0.003872
  13 H :    0.030634
  14 H :    0.041976
  15 H :    0.015214
  16 S :    0.133304
  17 C :   -0.087266
  18 C :   -0.042051
  19 C :   -0.040071
  20 C :   -0.195726
  21 H :    0.020771
  22 C :    0.072672
  23 H :    0.006445
  24 H :    0.033740
  25 C :   -0.077833
  26 H :    0.029653
  27 H :    0.042544
  28 C :   -0.061726
  29 H :    0.041941
  30 H :    0.041628
  31 H :    0.042560
  32 H :    0.058742
  33 H :    0.047866
Sum of atomic charges:   -0.0000000

LOEWDIN ATOMIC CHARGES
----------------------
   0 S :    0.378398
   1 C :   -0.203089
   2 C :   -0.067021
   3 C :   -0.066734
   4 C :   -0.169869
   5 H :    0.021880
   6 C :   -0.025410
   7 H :    0.050075
   8 H :    0.011338
   9 C :   -0.036625
  10 H :    0.015522
  11 H :    0.026202
  12 C :   -0.056841
  13 H :    0.022333
  14 H :    0.032537
  15 H :    0.018475
  16 S :    0.430970
  17 C :   -0.189478
  18 C :   -0.072907
  19 C :   -0.051238
  20 C :   -0.210762
  21 H :    0.035398
  22 C :   -0.035118
  23 H :    0.021874
  24 H :    0.035070
  25 C :   -0.045752
  26 H :    0.022092
  27 H :    0.033616
  28 C :   -0.072654
  29 H :    0.031575
  30 H :    0.031306
  31 H :    0.027817
  32 H :    0.030896
  33 H :    0.026125

  Mayer bond orders larger than 0.100000
B(  0-S ,  1-C ) :   1.1301 B(  0-S ,  4-C ) :   1.1355 B(  1-C ,  2-C ) :   1.6167
B(  1-C , 32-H ) :   0.9614 B(  2-C ,  3-C ) :   1.2513 B(  2-C ,  6-C ) :   1.0088
B(  3-C ,  4-C ) :   1.5760 B(  3-C ,  5-H ) :   1.0017 B(  4-C , 20-C ) :   1.0464
B(  6-C ,  7-H ) :   0.9277 B(  6-C ,  8-H ) :   0.9490 B(  6-C ,  9-C ) :   1.0737
B(  9-C , 10-H ) :   0.9530 B(  9-C , 11-H ) :   0.9520 B(  9-C , 12-C ) :   1.0764
B( 12-C , 13-H ) :   0.9740 B( 12-C , 14-H ) :   0.9773 B( 12-C , 15-H ) :   0.9739
B( 16-S , 17-C ) :   1.1721 B( 16-S , 20-C ) :   1.1479 B( 17-C , 18-C ) :   1.6130
B( 17-C , 33-H ) :   0.9593 B( 18-C , 19-C ) :   1.2516 B( 18-C , 21-H ) :   0.9932
B( 19-C , 20-C ) :   1.5573 B( 19-C , 22-C ) :   1.0361 B( 22-C , 23-H ) :   0.9377
B( 22-C , 24-H ) :   0.9298 B( 22-C , 25-C ) :   1.0652 B( 25-C , 26-H ) :   0.9573
B( 25-C , 27-H ) :   0.9529 B( 25-C , 28-C ) :   1.0714 B( 28-C , 29-H ) :   0.9742
B( 28-C , 30-H ) :   0.9715 B( 28-C , 31-H ) :   0.9731

Dispersion correction           -0.014895962
FINAL SINGLE POINT ENERGY     -1339.868912093315

DIPOLE MOMENT
-------------
                                X             Y             Z
Electronic contribution:    -17.93267       3.60351      -6.94956
Nuclear contribution   :     17.94967      -3.58868       7.25569
                        -----------------------------------------
Total Dipole Moment    :      0.01700       0.01483       0.30613
                        -----------------------------------------
Magnitude (a.u.)       :      0.30696
Magnitude (Debye)      :      0.78023

Rotational constants in cm-1:     0.022787     0.007591     0.006895
Rotational constants in MHz :   683.123508   227.567324   206.719347

                             ****ORCA TERMINATED NORMALLY****
TOTAL RUN TIME: 0 days 0 hours 0 minutes 34 seconds 248 msec
