                         Program Version 4.2.1 -  RELEASE  -
|  1> ! wB97X-D3 SP def2-SVP
|  2> %pal
|  3> nprocs 16
|  4> end
|  5>
|  6> * xyz 0 1
|  7> S 	 -7.28033 	 78.04 	 49.2917
|  8> C 	 -5.70757 	 78.543 	 48.692
|  9> C 	 -4.73387 	 77.6804 	 49.1035
| 10> C 	 -5.27807 	 76.5219 	 49.7954
| 11> C 	 -6.64678 	 76.5021 	 49.8599
| 12> H 	 -4.78957 	 75.6645 	 50.1916
| 13> C 	 -3.30699 	 77.7489 	 48.7245
| 14> H 	 -3.13157 	 78.6281 	 48.0692
| 15> H 	 -3.21381 	 76.8168 	 48.1491
| 16> C 	 -2.30651 	 77.7272 	 49.8866
| 17> H 	 -2.41883 	 78.6297 	 50.4898
| 18> H 	 -2.4091 	 76.8351 	 50.5399
| 19> C 	 -0.899972 	 77.5741 	 49.3375
| 20> H 	 -0.239809 	 77.1856 	 50.1161
| 21> H 	 -0.936924 	 76.9022 	 48.5007
| 22> H 	 -0.463209 	 78.4676 	 49.0004
| 23> S 	 -8.75639 	 76.0564 	 51.524
| 24> C 	 -9.45019 	 74.504 	 51.6646
| 25> C 	 -8.66878 	 73.6562 	 50.8733
| 26> C 	 -7.49812 	 74.1624 	 50.228
| 27> C 	 -7.52172 	 75.479 	 50.3504
| 28> H 	 -8.89941 	 72.6028 	 50.7986
| 29> C 	 -6.3645 	 73.3018 	 49.6963
| 30> H 	 -6.57511 	 72.3204 	 50.0329
| 31> H 	 -5.43929 	 73.5126 	 50.2558
| 32> C 	 -6.19116 	 73.3698 	 48.193
| 33> H 	 -5.26096 	 72.7765 	 47.9685
| 34> H 	 -5.95394 	 74.3425 	 47.8714
| 35> C 	 -7.31273 	 72.7085 	 47.4859
| 36> H 	 -7.44276 	 71.6922 	 47.7497
| 37> H 	 -7.08313 	 72.7648 	 46.408
| 38> H 	 -8.24718 	 73.1882 	 47.7829
| 39> H 	 -5.50541 	 79.2813 	 47.994
| 40> H 	 -10.2884 	 74.1223 	 52.1621
| 41> *
| 42>
| 43>                          ****END OF INPUT****

CARTESIAN COORDINATES (ANGSTROEM)
---------------------------------
  S     -7.280330   78.040000   49.291700
  C     -5.707570   78.543000   48.692000
  C     -4.733870   77.680400   49.103500
  C     -5.278070   76.521900   49.795400
  C     -6.646780   76.502100   49.859900
  H     -4.789570   75.664500   50.191600
  C     -3.306990   77.748900   48.724500
  H     -3.131570   78.628100   48.069200
  H     -3.213810   76.816800   48.149100
  C     -2.306510   77.727200   49.886600
  H     -2.418830   78.629700   50.489800
  H     -2.409100   76.835100   50.539900
  C     -0.899972   77.574100   49.337500
  H     -0.239809   77.185600   50.116100
  H     -0.936924   76.902200   48.500700
  H     -0.463209   78.467600   49.000400
  S     -8.756390   76.056400   51.524000
  C     -9.450190   74.504000   51.664600
  C     -8.668780   73.656200   50.873300
  C     -7.498120   74.162400   50.228000
  C     -7.521720   75.479000   50.350400
  H     -8.899410   72.602800   50.798600
  C     -6.364500   73.301800   49.696300
  H     -6.575110   72.320400   50.032900
  H     -5.439290   73.512600   50.255800
  C     -6.191160   73.369800   48.193000
  H     -5.260960   72.776500   47.968500
  H     -5.953940   74.342500   47.871400
  C     -7.312730   72.708500   47.485900
  H     -7.442760   71.692200   47.749700
  H     -7.083130   72.764800   46.408000
  H     -8.247180   73.188200   47.782900
  H     -5.505410   79.281300   47.994000
  H    -10.288400   74.122300   52.162100

 Total Charge           Charge          ....    0
 Multiplicity           Mult            ....    1
 Number of Electrons    NEL             ....  134
 Basis Dimension        Dim             ....  322

ORBITAL ENERGIES
----------------

  NO   OCC          E(Eh)            E(eV)
   0   2.0000     -88.963849     -2420.8294
   1   2.0000     -88.960112     -2420.7277
   2   2.0000     -10.325660      -280.9755
   3   2.0000     -10.321724      -280.8684
   4   2.0000     -10.313417      -280.6423
   5   2.0000     -10.305888      -280.4375
   6   2.0000     -10.298801      -280.2446
   7   2.0000     -10.296811      -280.1905
   8   2.0000     -10.293657      -280.1046
   9   2.0000     -10.293427      -280.0984
  10   2.0000     -10.291135      -280.0360
  11   2.0000     -10.291026      -280.0331
  12   2.0000     -10.288546      -279.9656
  13   2.0000     -10.280783      -279.7543
  14   2.0000     -10.271012      -279.4885
  15   2.0000     -10.270525      -279.4752
  16   2.0000      -8.078721      -219.8332
  17   2.0000      -8.074894      -219.7290
  18   2.0000      -6.037336      -164.2843
  19   2.0000      -6.033530      -164.1807
  20   2.0000      -6.033243      -164.1729
  21   2.0000      -6.029459      -164.0699
  22   2.0000      -6.029286      -164.0652
  23   2.0000      -6.025438      -163.9605
  24   2.0000      -1.012380       -27.5482
  25   2.0000      -0.986743       -26.8506
  26   2.0000      -0.921762       -25.0824
  27   2.0000      -0.918142       -24.9839
  28   2.0000      -0.876840       -23.8600
  29   2.0000      -0.858412       -23.3586
  30   2.0000      -0.844503       -22.9801
  31   2.0000      -0.814878       -22.1740
  32   2.0000      -0.790556       -21.5121
  33   2.0000      -0.774132       -21.0652
  34   2.0000      -0.715258       -19.4632
  35   2.0000      -0.702160       -19.1067
  36   2.0000      -0.695908       -18.9366
  37   2.0000      -0.667665       -18.1681
  38   2.0000      -0.646734       -17.5985
  39   2.0000      -0.618361       -16.8265
  40   2.0000      -0.599497       -16.3131
  41   2.0000      -0.575008       -15.6468
  42   2.0000      -0.563795       -15.3416
  43   2.0000      -0.559001       -15.2112
  44   2.0000      -0.552142       -15.0246
  45   2.0000      -0.527359       -14.3502
  46   2.0000      -0.519801       -14.1445
  47   2.0000      -0.516933       -14.0665
  48   2.0000      -0.514367       -13.9966
  49   2.0000      -0.507948       -13.8220
  50   2.0000      -0.489001       -13.3064
  51   2.0000      -0.486756       -13.2453
  52   2.0000      -0.475019       -12.9259
  53   2.0000      -0.467530       -12.7221
  54   2.0000      -0.459589       -12.5061
  55   2.0000      -0.449493       -12.2313
  56   2.0000      -0.440804       -11.9949
  57   2.0000      -0.436502       -11.8778
  58   2.0000      -0.434416       -11.8211
  59   2.0000      -0.425359       -11.5746
  60   2.0000      -0.425272       -11.5722
  61   2.0000      -0.413875       -11.2621
  62   2.0000      -0.410417       -11.1680
  63   2.0000      -0.352170        -9.5830
  64   2.0000      -0.330579        -8.9955
  65   2.0000      -0.323713        -8.8087
  66   2.0000      -0.290788        -7.9128
  67   0.0000       0.029702         0.8082
  68   0.0000       0.070275         1.9123
  69   0.0000       0.107302         2.9198
  70   0.0000       0.117743         3.2039
  71   0.0000       0.131006         3.5648

MULLIKEN ATOMIC CHARGES
-----------------------
   0 S :    0.096923
   1 C :   -0.087413
   2 C :   -0.061410
   3 C :    0.031431
   4 C :   -0.147390
   5 H :   -0.014353
   6 C :    0.041825
   7 H :    0.025474
   8 H :    0.036297
   9 C :   -0.093315
  10 H :    0.037466
  11 H :    0.035344
  12 C :   -0.009479
  13 H :    0.031907
  14 H :    0.016272
  15 H :    0.018430
  16 S :    0.106734
  17 C :   -0.040710
  18 C :   -0.061376
  19 C :   -0.054988
  20 C :   -0.148177
  21 H :    0.003003
  22 C :    0.077115
  23 H :   -0.005544
  24 H :    0.039483
  25 C :   -0.043711
  26 H :    0.020177
  27 H :    0.029552
  28 C :   -0.023328
  29 H :    0.012627
  30 H :    0.041168
  31 H :    0.037041
  32 H :    0.016572
  33 H :    0.036352
Sum of atomic charges:   -0.0000000

LOEWDIN ATOMIC CHARGES
----------------------
   0 S :    0.386694
   1 C :   -0.187276
   2 C :   -0.058947
   3 C :   -0.063580
   4 C :   -0.182316
   5 H :    0.022584
   6 C :   -0.036201
   7 H :    0.032754
   8 H :    0.036520
   9 C :   -0.038777
  10 H :    0.026672
  11 H :    0.028173
  12 C :   -0.058902
  13 H :    0.028020
  14 H :    0.021661
  15 H :    0.016298
  16 S :    0.402263
  17 C :   -0.196320
  18 C :   -0.070377
  19 C :   -0.062927
  20 C :   -0.173668
  21 H :    0.020340
  22 C :   -0.021952
  23 H :    0.024539
  24 H :    0.033977
  25 C :   -0.037426
  26 H :    0.027942
  27 H :    0.017989
  28 C :   -0.059714
  29 H :    0.018319
  30 H :    0.032807
  31 H :    0.027875
  32 H :    0.016437
  33 H :    0.026516

  Mayer bond orders larger than 0.100000
B(  0-S ,  1-C ) :   1.1090 B(  0-S ,  4-C ) :   1.1338 B(  1-C ,  2-C ) :   1.6495
B(  1-C , 32-H ) :   0.9752 B(  2-C ,  3-C ) :   1.1731 B(  2-C ,  6-C ) :   1.0332
B(  3-C ,  4-C ) :   1.6083 B(  3-C ,  5-H ) :   0.9993 B(  4-C , 20-C ) :   1.0373
B(  6-C ,  7-H ) :   0.9427 B(  6-C ,  8-H ) :   0.9316 B(  6-C ,  9-C ) :   1.0702
B(  9-C , 10-H ) :   0.9556 B(  9-C , 11-H ) :   0.9575 B(  9-C , 12-C ) :   1.0804
B( 12-C , 13-H ) :   0.9753 B( 12-C , 14-H ) :   0.9718 B( 12-C , 15-H ) :   0.9737
B( 16-S , 17-C ) :   1.1352 B( 16-S , 20-C ) :   1.1329 B( 17-C , 18-C ) :   1.6166
B( 17-C , 33-H ) :   0.9770 B( 18-C , 19-C ) :   1.2188 B( 18-C , 21-H ) :   0.9782
B( 19-C , 20-C ) :   1.6517 B( 19-C , 22-C ) :   1.0237 B( 22-C , 23-H ) :   0.9232
B( 22-C , 24-H ) :   0.9383 B( 22-C , 25-C ) :   1.0737 B( 25-C , 26-H ) :   0.9481
B( 25-C , 27-H ) :   0.9564 B( 25-C , 28-C ) :   1.0808 B( 28-C , 29-H ) :   0.9704
B( 28-C , 30-H ) :   0.9707 B( 28-C , 31-H ) :   0.9735

Dispersion correction           -0.014566315
FINAL SINGLE POINT ENERGY     -1339.867026550682

DIPOLE MOMENT
-------------
                                X             Y             Z
Electronic contribution:    -23.60113      11.06403      10.51734
Nuclear contribution   :     24.25761     -11.60591     -10.70657
                        -----------------------------------------
Total Dipole Moment    :      0.65648      -0.54188      -0.18923
                        -----------------------------------------
Magnitude (a.u.)       :      0.87202
Magnitude (Debye)      :      2.21649

Rotational constants in cm-1:     0.019553     0.008621     0.007111
Rotational constants in MHz :   586.179924   258.443249   213.170114

                             ****ORCA TERMINATED NORMALLY****
TOTAL RUN TIME: 0 days 0 hours 0 minutes 34 seconds 970 msec
