                         Program Version 4.2.1 -  RELEASE  -
|  1> ! wB97X-D3 SP def2-SVP
|  2> %pal
|  3> nprocs 16
|  4> end
|  5>
|  6> * xyz 0 1
|  7> S 	 6.38638 	 -9.04894 	 92.8831
|  8> C 	 8.08657 	 -8.83875 	 93.4149
|  9> C 	 8.82639 	 -9.90322 	 92.9252
| 10> C 	 8.05372 	 -10.8294 	 92.0917
| 11> C 	 6.7363 	 -10.3953 	 91.8494
| 12> H 	 8.26069 	 -11.7667 	 91.559
| 13> C 	 10.3303 	 -10.1045 	 93.188
| 14> H 	 10.4913 	 -11.1495 	 93.614
| 15> H 	 10.6844 	 -9.33775 	 93.9372
| 16> C 	 11.203 	 -10.0438 	 91.9071
| 17> H 	 12.1623 	 -10.4901 	 92.0759
| 18> H 	 10.7177 	 -10.6594 	 91.1067
| 19> C 	 11.2845 	 -8.56217 	 91.3669
| 20> H 	 11.8684 	 -8.60226 	 90.4152
| 21> H 	 10.2674 	 -8.10039 	 91.2367
| 22> H 	 11.8541 	 -8.00939 	 92.0589
| 23> S 	 5.16105 	 -12.6615 	 91.8983
| 24> C 	 4.23848 	 -13.0466 	 90.502
| 25> C 	 4.43978 	 -12.1662 	 89.453
| 26> C 	 5.47141 	 -11.1952 	 89.7228
| 27> C 	 5.79447 	 -11.203 	 91.1032
| 28> H 	 3.90005 	 -12.3136 	 88.5348
| 29> C 	 5.9568 	 -10.2646 	 88.6131
| 30> H 	 6.1582 	 -10.9484 	 87.7915
| 31> H 	 6.87952 	 -9.75224 	 88.9509
| 32> C 	 4.86292 	 -9.20082 	 88.1071
| 33> H 	 4.11492 	 -9.81962 	 87.6098
| 34> H 	 5.35885 	 -8.63159 	 87.2222
| 35> C 	 4.27317 	 -8.31182 	 89.1859
| 36> H 	 3.89985 	 -9.00187 	 89.9619
| 37> H 	 3.41643 	 -7.68943 	 88.9007
| 38> H 	 5.01626 	 -7.66628 	 89.656
| 39> H 	 8.51826 	 -8.04606 	 94.1297
| 40> H 	 3.57562 	 -13.889 	 90.3849
| 41> *
| 42>
| 43>                          ****END OF INPUT****

CARTESIAN COORDINATES (ANGSTROEM)
---------------------------------
  S      6.386380   -9.048940   92.883100
  C      8.086570   -8.838750   93.414900
  C      8.826390   -9.903220   92.925200
  C      8.053720  -10.829400   92.091700
  C      6.736300  -10.395300   91.849400
  H      8.260690  -11.766700   91.559000
  C     10.330300  -10.104500   93.188000
  H     10.491300  -11.149500   93.614000
  H     10.684400   -9.337750   93.937200
  C     11.203000  -10.043800   91.907100
  H     12.162300  -10.490100   92.075900
  H     10.717700  -10.659400   91.106700
  C     11.284500   -8.562170   91.366900
  H     11.868400   -8.602260   90.415200
  H     10.267400   -8.100390   91.236700
  H     11.854100   -8.009390   92.058900
  S      5.161050  -12.661500   91.898300
  C      4.238480  -13.046600   90.502000
  C      4.439780  -12.166200   89.453000
  C      5.471410  -11.195200   89.722800
  C      5.794470  -11.203000   91.103200
  H      3.900050  -12.313600   88.534800
  C      5.956800  -10.264600   88.613100
  H      6.158200  -10.948400   87.791500
  H      6.879520   -9.752240   88.950900
  C      4.862920   -9.200820   88.107100
  H      4.114920   -9.819620   87.609800
  H      5.358850   -8.631590   87.222200
  C      4.273170   -8.311820   89.185900
  H      3.899850   -9.001870   89.961900
  H      3.416430   -7.689430   88.900700
  H      5.016260   -7.666280   89.656000
  H      8.518260   -8.046060   94.129700
  H      3.575620  -13.889000   90.384900

 Total Charge           Charge          ....    0
 Multiplicity           Mult            ....    1
 Number of Electrons    NEL             ....  134
 Basis Dimension        Dim             ....  322

ORBITAL ENERGIES
----------------

  NO   OCC          E(Eh)            E(eV)
   0   2.0000     -88.968547     -2420.9572
   1   2.0000     -88.966621     -2420.9048
   2   2.0000     -10.329530      -281.0808
   3   2.0000     -10.328017      -281.0396
   4   2.0000     -10.326526      -280.9991
   5   2.0000     -10.315887      -280.7096
   6   2.0000     -10.311556      -280.5917
   7   2.0000     -10.310662      -280.5674
   8   2.0000     -10.302816      -280.3539
   9   2.0000     -10.299956      -280.2761
  10   2.0000     -10.299021      -280.2506
  11   2.0000     -10.297385      -280.2061
  12   2.0000     -10.293570      -280.1023
  13   2.0000     -10.289536      -279.9925
  14   2.0000     -10.278912      -279.7034
  15   2.0000     -10.274544      -279.5846
  16   2.0000      -8.083248      -219.9564
  17   2.0000      -8.080536      -219.8826
  18   2.0000      -6.041677      -164.4024
  19   2.0000      -6.039124      -164.3329
  20   2.0000      -6.037800      -164.2969
  21   2.0000      -6.035093      -164.2232
  22   2.0000      -6.034044      -164.1947
  23   2.0000      -6.031279      -164.1195
  24   2.0000      -1.002507       -27.2796
  25   2.0000      -0.979154       -26.6441
  26   2.0000      -0.903654       -24.5897
  27   2.0000      -0.900929       -24.5155
  28   2.0000      -0.867347       -23.6017
  29   2.0000      -0.845775       -23.0147
  30   2.0000      -0.836035       -22.7497
  31   2.0000      -0.807698       -21.9786
  32   2.0000      -0.780455       -21.2372
  33   2.0000      -0.769849       -20.9487
  34   2.0000      -0.706967       -19.2375
  35   2.0000      -0.692749       -18.8507
  36   2.0000      -0.687078       -18.6964
  37   2.0000      -0.655775       -17.8445
  38   2.0000      -0.636222       -17.3125
  39   2.0000      -0.607949       -16.5431
  40   2.0000      -0.590222       -16.0607
  41   2.0000      -0.566101       -15.4044
  42   2.0000      -0.549675       -14.9574
  43   2.0000      -0.544101       -14.8057
  44   2.0000      -0.533956       -14.5297
  45   2.0000      -0.530169       -14.4266
  46   2.0000      -0.513708       -13.9787
  47   2.0000      -0.513221       -13.9655
  48   2.0000      -0.502128       -13.6636
  49   2.0000      -0.494057       -13.4440
  50   2.0000      -0.483505       -13.1568
  51   2.0000      -0.477163       -12.9843
  52   2.0000      -0.464888       -12.6503
  53   2.0000      -0.462250       -12.5785
  54   2.0000      -0.458780       -12.4840
  55   2.0000      -0.450380       -12.2555
  56   2.0000      -0.444900       -12.1063
  57   2.0000      -0.437022       -11.8920
  58   2.0000      -0.427277       -11.6268
  59   2.0000      -0.421145       -11.4599
  60   2.0000      -0.418894       -11.3987
  61   2.0000      -0.412970       -11.2375
  62   2.0000      -0.412317       -11.2197
  63   2.0000      -0.333566        -9.0768
  64   2.0000      -0.324233        -8.8228
  65   2.0000      -0.319804        -8.7023
  66   2.0000      -0.313002        -8.5172
  67   0.0000       0.042238         1.1493
  68   0.0000       0.047999         1.3061
  69   0.0000       0.104550         2.8450
  70   0.0000       0.121016         3.2930
  71   0.0000       0.125373         3.4116

MULLIKEN ATOMIC CHARGES
-----------------------
   0 S :    0.106790
   1 C :   -0.151524
   2 C :   -0.071734
   3 C :    0.019108
   4 C :   -0.167385
   5 H :    0.029239
   6 C :    0.027142
   7 H :    0.048515
   8 H :    0.027761
   9 C :   -0.085283
  10 H :    0.029066
  11 H :    0.037239
  12 C :   -0.067167
  13 H :    0.041025
  14 H :    0.058900
  15 H :    0.019214
  16 S :    0.127490
  17 C :   -0.083263
  18 C :   -0.040066
  19 C :   -0.037433
  20 C :   -0.201256
  21 H :    0.016279
  22 C :    0.061509
  23 H :    0.035788
  24 H :    0.041602
  25 C :   -0.102800
  26 H :    0.024207
  27 H :    0.042937
  28 C :   -0.042088
  29 H :    0.040479
  30 H :    0.040468
  31 H :    0.037192
  32 H :    0.084985
  33 H :    0.053064
Sum of atomic charges:    0.0000000

LOEWDIN ATOMIC CHARGES
----------------------
   0 S :    0.398363
   1 C :   -0.206459
   2 C :   -0.065478
   3 C :   -0.064443
   4 C :   -0.213502
   5 H :    0.036092
   6 C :   -0.038615
   7 H :    0.039828
   8 H :    0.029925
   9 C :   -0.042522
  10 H :    0.019184
  11 H :    0.026565
  12 C :   -0.067430
  13 H :    0.030460
  14 H :    0.035206
  15 H :    0.013384
  16 S :    0.415923
  17 C :   -0.191458
  18 C :   -0.075767
  19 C :   -0.043426
  20 C :   -0.206285
  21 H :    0.028606
  22 C :   -0.029563
  23 H :    0.035226
  24 H :    0.032723
  25 C :   -0.043376
  26 H :    0.018456
  27 H :    0.030992
  28 C :   -0.073096
  29 H :    0.031527
  30 H :    0.029464
  31 H :    0.026948
  32 H :    0.053596
  33 H :    0.028953

  Mayer bond orders larger than 0.100000
B(  0-S ,  1-C ) :   1.1255 B(  0-S ,  4-C ) :   1.1489 B(  1-C ,  2-C ) :   1.6205
B(  1-C , 32-H ) :   0.9577 B(  2-C ,  3-C ) :   1.1976 B(  2-C ,  6-C ) :   1.0286
B(  3-C ,  4-C ) :   1.5879 B(  3-C ,  5-H ) :   0.9895 B(  4-C , 20-C ) :   1.0416
B(  6-C ,  7-H ) :   0.9399 B(  6-C ,  8-H ) :   0.9477 B(  6-C ,  9-C ) :   1.0634
B(  9-C , 10-H ) :   0.9586 B(  9-C , 11-H ) :   0.9586 B(  9-C , 12-C ) :   1.0609
B( 12-C , 13-H ) :   0.9752 B( 12-C , 14-H ) :   0.9770 B( 12-C , 15-H ) :   0.9780
B( 16-S , 17-C ) :   1.1626 B( 16-S , 20-C ) :   1.1382 B( 17-C , 18-C ) :   1.6245
B( 17-C , 33-H ) :   0.9647 B( 18-C , 19-C ) :   1.2204 B( 18-C , 21-H ) :   0.9899
B( 19-C , 20-C ) :   1.5799 B( 19-C , 22-C ) :   1.0427 B( 22-C , 23-H ) :   0.9344
B( 22-C , 24-H ) :   0.9392 B( 22-C , 25-C ) :   1.0584 B( 25-C , 26-H ) :   0.9564
B( 25-C , 27-H ) :   0.9570 B( 25-C , 28-C ) :   1.0685 B( 28-C , 29-H ) :   0.9686
B( 28-C , 30-H ) :   0.9735 B( 28-C , 31-H ) :   0.9750

Dispersion correction           -0.015211434
FINAL SINGLE POINT ENERGY     -1339.877065725947

DIPOLE MOMENT
-------------
                                X             Y             Z
Electronic contribution:    -13.47636     -10.75678      12.95139
Nuclear contribution   :     13.79814      10.60814     -13.32024
                        -----------------------------------------
Total Dipole Moment    :      0.32178      -0.14864      -0.36886
                        -----------------------------------------
Magnitude (a.u.)       :      0.51156
Magnitude (Debye)      :      1.30027

Rotational constants in cm-1:     0.019365     0.008475     0.007576
Rotational constants in MHz :   580.552133   254.072243   227.113714

                             ****ORCA TERMINATED NORMALLY****
TOTAL RUN TIME: 0 days 0 hours 0 minutes 32 seconds 74 msec
