                         Program Version 4.2.1 -  RELEASE  -
|  1> ! wB97X-D3 SP def2-SVP
|  2> %pal
|  3> nprocs 16
|  4> end
|  5>
|  6> * xyz 0 1
|  7> S 	 -34.5686 	 61.7416 	 105.985
|  8> C 	 -34.3769 	 62.1702 	 107.609
|  9> C 	 -35.5953 	 62.3534 	 108.23
| 10> C 	 -36.7106 	 62.2078 	 107.365
| 11> C 	 -36.3418 	 61.9768 	 106.054
| 12> H 	 -37.748 	 62.3121 	 107.624
| 13> C 	 -35.6941 	 62.7539 	 109.607
| 14> H 	 -36.6849 	 63.2806 	 109.757
| 15> H 	 -34.9543 	 63.4931 	 109.755
| 16> C 	 -35.5824 	 61.5764 	 110.583
| 17> H 	 -34.7232 	 60.9338 	 110.412
| 18> H 	 -35.3032 	 62.1758 	 111.502
| 19> C 	 -36.843 	 60.7865 	 110.764
| 20> H 	 -36.6527 	 60.0723 	 111.581
| 21> H 	 -37.6358 	 61.4865 	 111.118
| 22> H 	 -37.4012 	 60.1905 	 109.946
| 23> S 	 -36.9974 	 59.8358 	 104.319
| 24> C 	 -38.405 	 59.9549 	 103.38
| 25> C 	 -39.1155 	 61.1374 	 103.618
| 26> C 	 -38.4597 	 61.9697 	 104.602
| 27> C 	 -37.272 	 61.4661 	 105.028
| 28> H 	 -40.0847 	 61.3533 	 103.108
| 29> C 	 -39.1786 	 63.2131 	 105.101
| 30> H 	 -39.4582 	 63.8922 	 104.305
| 31> H 	 -38.4863 	 63.8351 	 105.669
| 32> C 	 -40.267 	 62.8637 	 106.134
| 33> H 	 -39.9377 	 61.9485 	 106.562
| 34> H 	 -41.1336 	 62.5675 	 105.456
| 35> C 	 -40.7579 	 64.0046 	 107.132
| 36> H 	 -41.6192 	 63.7672 	 107.808
| 37> H 	 -41.145 	 64.8642 	 106.571
| 38> H 	 -39.9078 	 64.3789 	 107.738
| 39> H 	 -33.5146 	 62.3202 	 108.226
| 40> H 	 -38.7392 	 59.145 	 102.81
| 41> *
| 42>
| 43>                          ****END OF INPUT****

CARTESIAN COORDINATES (ANGSTROEM)
---------------------------------
  S    -34.568600   61.741600  105.985000
  C    -34.376900   62.170200  107.609000
  C    -35.595300   62.353400  108.230000
  C    -36.710600   62.207800  107.365000
  C    -36.341800   61.976800  106.054000
  H    -37.748000   62.312100  107.624000
  C    -35.694100   62.753900  109.607000
  H    -36.684900   63.280600  109.757000
  H    -34.954300   63.493100  109.755000
  C    -35.582400   61.576400  110.583000
  H    -34.723200   60.933800  110.412000
  H    -35.303200   62.175800  111.502000
  C    -36.843000   60.786500  110.764000
  H    -36.652700   60.072300  111.581000
  H    -37.635800   61.486500  111.118000
  H    -37.401200   60.190500  109.946000
  S    -36.997400   59.835800  104.319000
  C    -38.405000   59.954900  103.380000
  C    -39.115500   61.137400  103.618000
  C    -38.459700   61.969700  104.602000
  C    -37.272000   61.466100  105.028000
  H    -40.084700   61.353300  103.108000
  C    -39.178600   63.213100  105.101000
  H    -39.458200   63.892200  104.305000
  H    -38.486300   63.835100  105.669000
  C    -40.267000   62.863700  106.134000
  H    -39.937700   61.948500  106.562000
  H    -41.133600   62.567500  105.456000
  C    -40.757900   64.004600  107.132000
  H    -41.619200   63.767200  107.808000
  H    -41.145000   64.864200  106.571000
  H    -39.907800   64.378900  107.738000
  H    -33.514600   62.320200  108.226000
  H    -38.739200   59.145000  102.810000

 Total Charge           Charge          ....    0
 Multiplicity           Mult            ....    1
 Number of Electrons    NEL             ....  134
 Basis Dimension        Dim             ....  322

ORBITAL ENERGIES
----------------

  NO   OCC          E(Eh)            E(eV)
   0   2.0000     -88.968018     -2420.9428
   1   2.0000     -88.963563     -2420.8216
   2   2.0000     -10.329974      -281.0929
   3   2.0000     -10.327836      -281.0347
   4   2.0000     -10.312163      -280.6082
   5   2.0000     -10.306499      -280.4541
   6   2.0000     -10.301612      -280.3211
   7   2.0000     -10.297627      -280.2127
   8   2.0000     -10.294690      -280.1328
   9   2.0000     -10.293020      -280.0873
  10   2.0000     -10.292179      -280.0644
  11   2.0000     -10.291322      -280.0411
  12   2.0000     -10.289516      -279.9920
  13   2.0000     -10.287924      -279.9486
  14   2.0000     -10.287020      -279.9240
  15   2.0000     -10.284056      -279.8434
  16   2.0000      -8.082719      -219.9420
  17   2.0000      -8.078788      -219.8350
  18   2.0000      -6.041204      -164.3895
  19   2.0000      -6.037215      -164.2810
  20   2.0000      -6.037205      -164.2807
  21   2.0000      -6.033526      -164.1806
  22   2.0000      -6.033276      -164.1738
  23   2.0000      -6.029551      -164.0724
  24   2.0000      -1.007681       -27.4204
  25   2.0000      -0.988126       -26.8883
  26   2.0000      -0.920167       -25.0390
  27   2.0000      -0.907035       -24.6817
  28   2.0000      -0.869421       -23.6582
  29   2.0000      -0.852555       -23.1992
  30   2.0000      -0.843235       -22.9456
  31   2.0000      -0.814453       -22.1624
  32   2.0000      -0.784038       -21.3348
  33   2.0000      -0.770310       -20.9612
  34   2.0000      -0.705405       -19.1950
  35   2.0000      -0.702256       -19.1093
  36   2.0000      -0.697041       -18.9675
  37   2.0000      -0.663510       -18.0550
  38   2.0000      -0.640052       -17.4167
  39   2.0000      -0.617343       -16.7988
  40   2.0000      -0.599690       -16.3184
  41   2.0000      -0.575715       -15.6660
  42   2.0000      -0.560097       -15.2410
  43   2.0000      -0.552612       -15.0373
  44   2.0000      -0.534621       -14.5478
  45   2.0000      -0.519695       -14.1416
  46   2.0000      -0.515640       -14.0313
  47   2.0000      -0.512814       -13.9544
  48   2.0000      -0.506043       -13.7701
  49   2.0000      -0.499964       -13.6047
  50   2.0000      -0.490788       -13.3550
  51   2.0000      -0.480606       -13.0779
  52   2.0000      -0.474440       -12.9102
  53   2.0000      -0.465928       -12.6785
  54   2.0000      -0.459321       -12.4988
  55   2.0000      -0.451716       -12.2918
  56   2.0000      -0.443569       -12.0701
  57   2.0000      -0.437491       -11.9047
  58   2.0000      -0.434833       -11.8324
  59   2.0000      -0.430248       -11.7076
  60   2.0000      -0.421723       -11.4757
  61   2.0000      -0.404977       -11.0200
  62   2.0000      -0.404315       -11.0020
  63   2.0000      -0.353804        -9.6275
  64   2.0000      -0.332058        -9.0357
  65   2.0000      -0.322778        -8.7832
  66   2.0000      -0.289822        -7.8865
  67   0.0000       0.032475         0.8837
  68   0.0000       0.067145         1.8271
  69   0.0000       0.112873         3.0714
  70   0.0000       0.117854         3.2070
  71   0.0000       0.130488         3.5508

MULLIKEN ATOMIC CHARGES
-----------------------
   0 S :    0.116727
   1 C :   -0.076309
   2 C :   -0.102992
   3 C :    0.041261
   4 C :   -0.145586
   5 H :   -0.000603
   6 C :    0.038612
   7 H :    0.024849
   8 H :    0.017171
   9 C :   -0.054785
  10 H :    0.029326
  11 H :    0.033782
  12 C :   -0.080090
  13 H :    0.039314
  14 H :    0.025223
  15 H :    0.059893
  16 S :    0.107484
  17 C :   -0.081060
  18 C :   -0.037112
  19 C :   -0.078815
  20 C :   -0.134715
  21 H :    0.036474
  22 C :    0.073894
  23 H :    0.031974
  24 H :    0.004504
  25 C :   -0.089623
  26 H :    0.037321
  27 H :    0.032066
  28 C :   -0.063475
  29 H :    0.049980
  30 H :    0.033697
  31 H :    0.038649
  32 H :    0.029611
  33 H :    0.043353
Sum of atomic charges:   -0.0000000

LOEWDIN ATOMIC CHARGES
----------------------
   0 S :    0.419267
   1 C :   -0.212551
   2 C :   -0.071769
   3 C :   -0.051269
   4 C :   -0.185295
   5 H :    0.029068
   6 C :   -0.039865
   7 H :    0.035980
   8 H :    0.025938
   9 C :   -0.041105
  10 H :    0.022445
  11 H :    0.034714
  12 C :   -0.081905
  13 H :    0.030504
  14 H :    0.026666
  15 H :    0.039062
  16 S :    0.405836
  17 C :   -0.190709
  18 C :   -0.076500
  19 C :   -0.059353
  20 C :   -0.182500
  21 H :    0.038423
  22 C :   -0.034154
  23 H :    0.029156
  24 H :    0.023667
  25 C :   -0.042247
  26 H :    0.017793
  27 H :    0.029756
  28 C :   -0.075206
  29 H :    0.035102
  30 H :    0.028299
  31 H :    0.025571
  32 H :    0.029222
  33 H :    0.017962

  Mayer bond orders larger than 0.100000
B(  0-S ,  1-C ) :   1.1471 B(  0-S ,  4-C ) :   1.1497 B(  1-C ,  2-C ) :   1.5889
B(  1-C , 32-H ) :   0.9627 B(  2-C ,  3-C ) :   1.2732 B(  2-C ,  6-C ) :   1.0286
B(  3-C ,  4-C ) :   1.5375 B(  3-C ,  5-H ) :   0.9933 B(  4-C , 20-C ) :   1.0288
B(  6-C ,  7-H ) :   0.9420 B(  6-C ,  8-H ) :   0.9379 B(  6-C ,  9-C ) :   1.0649
B(  9-C , 10-H ) :   0.9573 B(  9-C , 11-H ) :   0.9519 B(  9-C , 12-C ) :   1.0754
B( 12-C , 13-H ) :   0.9712 B( 12-C , 14-H ) :   0.9707 B( 12-C , 15-H ) :   0.9731
B( 16-S , 17-C ) :   1.1750 B( 16-S , 20-C ) :   1.1227 B( 17-C , 18-C ) :   1.5927
B( 17-C , 33-H ) :   0.9744 B( 18-C , 19-C ) :   1.2268 B( 18-C , 21-H ) :   0.9872
B( 19-C , 20-C ) :   1.6422 B( 19-C , 22-C ) :   1.0600 B( 22-C , 23-H ) :   0.9377
B( 22-C , 24-H ) :   0.9295 B( 22-C , 25-C ) :   1.0336 B( 25-C , 26-H ) :   0.9601
B( 25-C , 27-H ) :   0.9545 B( 25-C , 28-C ) :   1.0659 B( 28-C , 29-H ) :   0.9770
B( 28-C , 30-H ) :   0.9744 B( 28-C , 31-H ) :   0.9760

Dispersion correction           -0.014834578
FINAL SINGLE POINT ENERGY     -1339.867015804320

DIPOLE MOMENT
-------------
                                X             Y             Z
Electronic contribution:     16.19321      -9.95663     -21.88670
Nuclear contribution   :    -16.63844      10.17633      22.46565
                        -----------------------------------------
Total Dipole Moment    :     -0.44523       0.21969       0.57895
                        -----------------------------------------
Magnitude (a.u.)       :      0.76268
Magnitude (Debye)      :      1.93859

Rotational constants in cm-1:     0.016773     0.009818     0.007367
Rotational constants in MHz :   502.833716   294.348465   220.857338

                             ****ORCA TERMINATED NORMALLY****
TOTAL RUN TIME: 0 days 0 hours 0 minutes 31 seconds 80 msec
