                         Program Version 4.2.1 -  RELEASE  -
|  1> ! wB97X-D3 SP def2-SVP
|  2> %pal
|  3> nprocs 16
|  4> end
|  5>
|  6> * xyz 0 1
|  7> S 	 -34.897 	 45.7529 	 95.4249
|  8> C 	 -33.1956 	 45.2826 	 95.1436
|  9> C 	 -32.3868 	 46.1842 	 94.5102
| 10> C 	 -33.1187 	 47.4031 	 94.3582
| 11> C 	 -34.4348 	 47.3301 	 94.8909
| 12> H 	 -32.8307 	 48.2996 	 93.8886
| 13> C 	 -31.0721 	 45.8291 	 93.6873
| 14> H 	 -30.9465 	 46.6635 	 92.9635
| 15> H 	 -31.4137 	 44.9227 	 93.0843
| 16> C 	 -29.8018 	 45.6331 	 94.5485
| 17> H 	 -29.4216 	 46.5708 	 94.8897
| 18> H 	 -30.0415 	 44.9304 	 95.4341
| 19> C 	 -28.7537 	 44.7895 	 93.7482
| 20> H 	 -27.8268 	 44.6318 	 94.3351
| 21> H 	 -28.9052 	 43.7761 	 93.3299
| 22> H 	 -28.4495 	 45.4514 	 92.8761
| 23> S 	 -36.9799 	 48.0868 	 93.907
| 24> C 	 -37.4329 	 49.7043 	 93.8047
| 25> C 	 -36.5406 	 50.4504 	 94.5879
| 26> C 	 -35.4594 	 49.7383 	 95.1406
| 27> C 	 -35.4223 	 48.408 	 94.76
| 28> H 	 -36.6656 	 51.4981 	 94.7013
| 29> C 	 -34.3935 	 50.5018 	 95.9462
| 30> H 	 -33.6134 	 50.7937 	 95.2745
| 31> H 	 -34.0978 	 49.6671 	 96.5368
| 32> C 	 -34.8339 	 51.7115 	 96.7321
| 33> H 	 -35.8065 	 51.4249 	 97.2353
| 34> H 	 -35.0673 	 52.4797 	 95.9504
| 35> C 	 -33.9128 	 52.2303 	 97.8271
| 36> H 	 -34.2986 	 53.092 	 98.3368
| 37> H 	 -32.9462 	 52.631 	 97.4421
| 38> H 	 -33.6067 	 51.576 	 98.5533
| 39> H 	 -32.936 	 44.2444 	 95.1326
| 40> H 	 -38.2404 	 50.0795 	 93.3506
| 41> *
| 42>
| 43>                          ****END OF INPUT****

CARTESIAN COORDINATES (ANGSTROEM)
---------------------------------
  S    -34.897000   45.752900   95.424900
  C    -33.195600   45.282600   95.143600
  C    -32.386800   46.184200   94.510200
  C    -33.118700   47.403100   94.358200
  C    -34.434800   47.330100   94.890900
  H    -32.830700   48.299600   93.888600
  C    -31.072100   45.829100   93.687300
  H    -30.946500   46.663500   92.963500
  H    -31.413700   44.922700   93.084300
  C    -29.801800   45.633100   94.548500
  H    -29.421600   46.570800   94.889700
  H    -30.041500   44.930400   95.434100
  C    -28.753700   44.789500   93.748200
  H    -27.826800   44.631800   94.335100
  H    -28.905200   43.776100   93.329900
  H    -28.449500   45.451400   92.876100
  S    -36.979900   48.086800   93.907000
  C    -37.432900   49.704300   93.804700
  C    -36.540600   50.450400   94.587900
  C    -35.459400   49.738300   95.140600
  C    -35.422300   48.408000   94.760000
  H    -36.665600   51.498100   94.701300
  C    -34.393500   50.501800   95.946200
  H    -33.613400   50.793700   95.274500
  H    -34.097800   49.667100   96.536800
  C    -34.833900   51.711500   96.732100
  H    -35.806500   51.424900   97.235300
  H    -35.067300   52.479700   95.950400
  C    -33.912800   52.230300   97.827100
  H    -34.298600   53.092000   98.336800
  H    -32.946200   52.631000   97.442100
  H    -33.606700   51.576000   98.553300
  H    -32.936000   44.244400   95.132600
  H    -38.240400   50.079500   93.350600

 Total Charge           Charge          ....    0
 Multiplicity           Mult            ....    1
 Number of Electrons    NEL             ....  134
 Basis Dimension        Dim             ....  322

ORBITAL ENERGIES
----------------

  NO   OCC          E(Eh)            E(eV)
   0   2.0000     -88.972201     -2421.0567
   1   2.0000     -88.960387     -2420.7352
   2   2.0000     -10.331789      -281.1423
   3   2.0000     -10.326708      -281.0040
   4   2.0000     -10.311574      -280.5922
   5   2.0000     -10.311006      -280.5767
   6   2.0000     -10.307012      -280.4681
   7   2.0000     -10.305174      -280.4180
   8   2.0000     -10.302379      -280.3420
   9   2.0000     -10.299280      -280.2576
  10   2.0000     -10.295945      -280.1669
  11   2.0000     -10.293280      -280.0944
  12   2.0000     -10.289275      -279.9854
  13   2.0000     -10.284217      -279.8478
  14   2.0000     -10.282668      -279.8056
  15   2.0000     -10.272806      -279.5373
  16   2.0000      -8.086607      -220.0478
  17   2.0000      -8.075722      -219.7516
  18   2.0000      -6.044978      -164.4922
  19   2.0000      -6.041460      -164.3965
  20   2.0000      -6.037242      -164.2817
  21   2.0000      -6.034108      -164.1964
  22   2.0000      -6.030023      -164.0853
  23   2.0000      -6.026693      -163.9946
  24   2.0000      -1.004530       -27.3347
  25   2.0000      -0.983935       -26.7742
  26   2.0000      -0.911357       -24.7993
  27   2.0000      -0.904664       -24.6172
  28   2.0000      -0.867322       -23.6010
  29   2.0000      -0.854414       -23.2498
  30   2.0000      -0.843171       -22.9439
  31   2.0000      -0.805999       -21.9323
  32   2.0000      -0.786690       -21.4069
  33   2.0000      -0.775355       -21.0985
  34   2.0000      -0.707581       -19.2542
  35   2.0000      -0.702369       -19.1124
  36   2.0000      -0.700611       -19.0646
  37   2.0000      -0.654109       -17.7992
  38   2.0000      -0.641781       -17.4638
  39   2.0000      -0.612002       -16.6534
  40   2.0000      -0.596868       -16.2416
  41   2.0000      -0.573628       -15.6092
  42   2.0000      -0.570149       -15.5145
  43   2.0000      -0.555205       -15.1079
  44   2.0000      -0.532171       -14.4811
  45   2.0000      -0.519592       -14.1388
  46   2.0000      -0.514620       -14.0035
  47   2.0000      -0.506792       -13.7905
  48   2.0000      -0.504405       -13.7256
  49   2.0000      -0.500618       -13.6225
  50   2.0000      -0.490045       -13.3348
  51   2.0000      -0.484136       -13.1740
  52   2.0000      -0.477193       -12.9851
  53   2.0000      -0.465967       -12.6796
  54   2.0000      -0.460719       -12.5368
  55   2.0000      -0.449690       -12.2367
  56   2.0000      -0.447188       -12.1686
  57   2.0000      -0.444411       -12.0930
  58   2.0000      -0.426407       -11.6031
  59   2.0000      -0.422934       -11.5086
  60   2.0000      -0.416877       -11.3438
  61   2.0000      -0.409271       -11.1368
  62   2.0000      -0.405393       -11.0313
  63   2.0000      -0.341497        -9.2926
  64   2.0000      -0.336563        -9.1583
  65   2.0000      -0.327903        -8.9227
  66   2.0000      -0.287771        -7.8307
  67   0.0000       0.027444         0.7468
  68   0.0000       0.062707         1.7063
  69   0.0000       0.097405         2.6505
  70   0.0000       0.124336         3.3833
  71   0.0000       0.137557         3.7431

MULLIKEN ATOMIC CHARGES
-----------------------
   0 S :    0.120820
   1 C :   -0.105952
   2 C :   -0.055610
   3 C :    0.031230
   4 C :   -0.174967
   5 H :   -0.005040
   6 C :    0.011943
   7 H :    0.036805
   8 H :    0.058420
   9 C :   -0.055104
  10 H :    0.040729
  11 H :    0.051292
  12 C :   -0.101247
  13 H :    0.034945
  14 H :    0.047241
  15 H :    0.031013
  16 S :    0.096411
  17 C :   -0.020840
  18 C :   -0.054253
  19 C :   -0.052493
  20 C :   -0.173137
  21 H :    0.001088
  22 C :    0.118806
  23 H :    0.035270
  24 H :    0.022973
  25 C :   -0.133392
  26 H :    0.040603
  27 H :    0.042137
  28 C :    0.011290
  29 H :    0.024988
  30 H :    0.015449
  31 H :    0.016355
  32 H :    0.035308
  33 H :    0.006918
Sum of atomic charges:   -0.0000000

LOEWDIN ATOMIC CHARGES
----------------------
   0 S :    0.406916
   1 C :   -0.183557
   2 C :   -0.062432
   3 C :   -0.050597
   4 C :   -0.202729
   5 H :    0.022003
   6 C :   -0.027325
   7 H :    0.032680
   8 H :    0.043979
   9 C :   -0.038423
  10 H :    0.026344
  11 H :    0.035749
  12 C :   -0.085136
  13 H :    0.026447
  14 H :    0.029915
  15 H :    0.027246
  16 S :    0.410382
  17 C :   -0.180346
  18 C :   -0.077034
  19 C :   -0.056127
  20 C :   -0.193892
  21 H :    0.020726
  22 C :   -0.029576
  23 H :    0.029073
  24 H :    0.029521
  25 C :   -0.047697
  26 H :    0.032159
  27 H :    0.028931
  28 C :   -0.060614
  29 H :    0.027961
  30 H :    0.027968
  31 H :    0.015503
  32 H :    0.016090
  33 H :    0.005891

  Mayer bond orders larger than 0.100000
B(  0-S ,  1-C ) :   1.1336 B(  0-S ,  4-C ) :   1.1578 B(  1-C ,  2-C ) :   1.6448
B(  1-C , 32-H ) :   0.9596 B(  2-C ,  3-C ) :   1.2376 B(  2-C ,  6-C ) :   0.9879
B(  3-C ,  4-C ) :   1.5636 B(  3-C ,  5-H ) :   0.9980 B(  4-C , 20-C ) :   1.0497
B(  6-C ,  7-H ) :   0.9490 B(  6-C ,  8-H ) :   0.9560 B(  6-C ,  9-C ) :   1.0440
B(  9-C , 10-H ) :   0.9553 B(  9-C , 11-H ) :   0.9654 B(  9-C , 12-C ) :   1.0637
B( 12-C , 13-H ) :   0.9761 B( 12-C , 14-H ) :   0.9798 B( 12-C , 15-H ) :   0.9738
B( 16-S , 17-C ) :   1.1897 B( 16-S , 20-C ) :   1.1299 B( 17-C , 18-C ) :   1.5443
B( 17-C , 20-C ) :   0.1082 B( 17-C , 33-H ) :   0.9854 B( 18-C , 19-C ) :   1.2794
B( 18-C , 21-H ) :   0.9945 B( 19-C , 20-C ) :   1.5818 B( 19-C , 22-C ) :   1.0087
B( 22-C , 23-H ) :   0.9301 B( 22-C , 24-H ) :   0.9295 B( 22-C , 25-C ) :   1.0786
B( 25-C , 26-H ) :   0.9595 B( 25-C , 27-H ) :   0.9427 B( 25-C , 28-C ) :   1.0888
B( 28-C , 29-H ) :   0.9709 B( 28-C , 30-H ) :   0.9681 B( 28-C , 31-H ) :   0.9736

Dispersion correction           -0.013111322
FINAL SINGLE POINT ENERGY     -1339.842241622030

DIPOLE MOMENT
-------------
                                X             Y             Z
Electronic contribution:    -25.32869      -9.45298      -4.76146
Nuclear contribution   :     25.89637       9.73829       4.59817
                        -----------------------------------------
Total Dipole Moment    :      0.56768       0.28530      -0.16329
                        -----------------------------------------
Magnitude (a.u.)       :      0.65599
Magnitude (Debye)      :      1.66738

Rotational constants in cm-1:     0.018387     0.007122     0.005716
Rotational constants in MHz :   551.218323   213.523091   171.366200

                             ****ORCA TERMINATED NORMALLY****
TOTAL RUN TIME: 0 days 0 hours 0 minutes 29 seconds 784 msec
