                         Program Version 4.2.1 -  RELEASE  -
|  1> ! wB97X-D3 SP def2-SVP
|  2> %pal
|  3> nprocs 16
|  4> end
|  5>
|  6> * xyz 0 1
|  7> S 	 -41.3077 	 19.1446 	 74.2934
|  8> C 	 -39.6677 	 18.7671 	 73.8857
|  9> C 	 -39.3614 	 19.154 	 72.5713
| 10> C 	 -40.4464 	 19.8269 	 72.0045
| 11> C 	 -41.558 	 20.0233 	 72.8117
| 12> H 	 -40.5318 	 20.2819 	 70.9985
| 13> C 	 -38.1164 	 18.5978 	 71.7937
| 14> H 	 -38.5541 	 18.1874 	 70.895
| 15> H 	 -37.6032 	 17.7385 	 72.2623
| 16> C 	 -37.013 	 19.6116 	 71.3684
| 17> H 	 -36.5324 	 20.0478 	 72.2128
| 18> H 	 -36.2917 	 19.0801 	 70.8009
| 19> C 	 -37.528 	 20.7459 	 70.4645
| 20> H 	 -37.8112 	 21.5984 	 71.0396
| 21> H 	 -36.719 	 21.1373 	 69.8208
| 22> H 	 -38.2828 	 20.4169 	 69.7247
| 23> S 	 -43.1151 	 20.8519 	 70.8051
| 24> C 	 -44.5477 	 21.7193 	 71.1148
| 25> C 	 -44.7548 	 21.9749 	 72.4429
| 26> C 	 -43.7309 	 21.4041 	 73.2361
| 27> C 	 -42.789 	 20.6819 	 72.5024
| 28> H 	 -45.5429 	 22.6208 	 72.873
| 29> C 	 -43.7149 	 21.6002 	 74.7628
| 30> H 	 -43.5621 	 20.6533 	 75.2177
| 31> H 	 -44.731 	 21.7957 	 75.0877
| 32> C 	 -42.6871 	 22.6272 	 75.2396
| 33> H 	 -41.676 	 22.4475 	 74.8391
| 34> H 	 -42.5376 	 22.4609 	 76.2902
| 35> C 	 -43.0392 	 24.1685 	 75.0997
| 36> H 	 -42.7889 	 24.4777 	 74.0901
| 37> H 	 -42.424 	 24.8845 	 75.6791
| 38> H 	 -44.0774 	 24.4221 	 75.1962
| 39> H 	 -39.0323 	 18.0849 	 74.3677
| 40> H 	 -45.0834 	 22.2605 	 70.3378
| 41> *
| 42>
| 43>                          ****END OF INPUT****

CARTESIAN COORDINATES (ANGSTROEM)
---------------------------------
  S    -41.307700   19.144600   74.293400
  C    -39.667700   18.767100   73.885700
  C    -39.361400   19.154000   72.571300
  C    -40.446400   19.826900   72.004500
  C    -41.558000   20.023300   72.811700
  H    -40.531800   20.281900   70.998500
  C    -38.116400   18.597800   71.793700
  H    -38.554100   18.187400   70.895000
  H    -37.603200   17.738500   72.262300
  C    -37.013000   19.611600   71.368400
  H    -36.532400   20.047800   72.212800
  H    -36.291700   19.080100   70.800900
  C    -37.528000   20.745900   70.464500
  H    -37.811200   21.598400   71.039600
  H    -36.719000   21.137300   69.820800
  H    -38.282800   20.416900   69.724700
  S    -43.115100   20.851900   70.805100
  C    -44.547700   21.719300   71.114800
  C    -44.754800   21.974900   72.442900
  C    -43.730900   21.404100   73.236100
  C    -42.789000   20.681900   72.502400
  H    -45.542900   22.620800   72.873000
  C    -43.714900   21.600200   74.762800
  H    -43.562100   20.653300   75.217700
  H    -44.731000   21.795700   75.087700
  C    -42.687100   22.627200   75.239600
  H    -41.676000   22.447500   74.839100
  H    -42.537600   22.460900   76.290200
  C    -43.039200   24.168500   75.099700
  H    -42.788900   24.477700   74.090100
  H    -42.424000   24.884500   75.679100
  H    -44.077400   24.422100   75.196200
  H    -39.032300   18.084900   74.367700
  H    -45.083400   22.260500   70.337800

 Total Charge           Charge          ....    0
 Multiplicity           Mult            ....    1
 Number of Electrons    NEL             ....  134
 Basis Dimension        Dim             ....  322

ORBITAL ENERGIES
----------------

  NO   OCC          E(Eh)            E(eV)
   0   2.0000     -88.967901     -2420.9397
   1   2.0000     -88.966351     -2420.8975
   2   2.0000     -10.328062      -281.0409
   3   2.0000     -10.324494      -280.9438
   4   2.0000     -10.313132      -280.6346
   5   2.0000     -10.309283      -280.5298
   6   2.0000     -10.304311      -280.3946
   7   2.0000     -10.302010      -280.3319
   8   2.0000     -10.298874      -280.2466
   9   2.0000     -10.293544      -280.1016
  10   2.0000     -10.292675      -280.0779
  11   2.0000     -10.289708      -279.9972
  12   2.0000     -10.286355      -279.9060
  13   2.0000     -10.281849      -279.7833
  14   2.0000     -10.275987      -279.6238
  15   2.0000     -10.275232      -279.6033
  16   2.0000      -8.082466      -219.9351
  17   2.0000      -8.082178      -219.9272
  18   2.0000      -6.040868      -164.3804
  19   2.0000      -6.040547      -164.3716
  20   2.0000      -6.036941      -164.2735
  21   2.0000      -6.036576      -164.2636
  22   2.0000      -6.033422      -164.1778
  23   2.0000      -6.032997      -164.1662
  24   2.0000      -1.014793       -27.6139
  25   2.0000      -0.990171       -26.9439
  26   2.0000      -0.906412       -24.6647
  27   2.0000      -0.903215       -24.5777
  28   2.0000      -0.875248       -23.8167
  29   2.0000      -0.850318       -23.1383
  30   2.0000      -0.841285       -22.8925
  31   2.0000      -0.812385       -22.1061
  32   2.0000      -0.787317       -21.4240
  33   2.0000      -0.774878       -21.0855
  34   2.0000      -0.711163       -19.3517
  35   2.0000      -0.701007       -19.0754
  36   2.0000      -0.693488       -18.8708
  37   2.0000      -0.671937       -18.2843
  38   2.0000      -0.632637       -17.2149
  39   2.0000      -0.614264       -16.7150
  40   2.0000      -0.598188       -16.2775
  41   2.0000      -0.573656       -15.6100
  42   2.0000      -0.552080       -15.0229
  43   2.0000      -0.545532       -14.8447
  44   2.0000      -0.536156       -14.5895
  45   2.0000      -0.532922       -14.5016
  46   2.0000      -0.517896       -14.0927
  47   2.0000      -0.511687       -13.9237
  48   2.0000      -0.501139       -13.6367
  49   2.0000      -0.498101       -13.5540
  50   2.0000      -0.489069       -13.3082
  51   2.0000      -0.474650       -12.9159
  52   2.0000      -0.471495       -12.8300
  53   2.0000      -0.468176       -12.7397
  54   2.0000      -0.464528       -12.6405
  55   2.0000      -0.450184       -12.2501
  56   2.0000      -0.446678       -12.1547
  57   2.0000      -0.437641       -11.9088
  58   2.0000      -0.432036       -11.7563
  59   2.0000      -0.429838       -11.6965
  60   2.0000      -0.419364       -11.4115
  61   2.0000      -0.411546       -11.1987
  62   2.0000      -0.404180       -10.9983
  63   2.0000      -0.359393        -9.7796
  64   2.0000      -0.335912        -9.1406
  65   2.0000      -0.332692        -9.0530
  66   2.0000      -0.280344        -7.6286
  67   0.0000       0.019952         0.5429
  68   0.0000       0.081210         2.2098
  69   0.0000       0.111902         3.0450
  70   0.0000       0.122082         3.3220
  71   0.0000       0.132324         3.6007

MULLIKEN ATOMIC CHARGES
-----------------------
   0 S :    0.109066
   1 C :   -0.087274
   2 C :   -0.067109
   3 C :   -0.021057
   4 C :   -0.144047
   5 H :    0.023771
   6 C :    0.033540
   7 H :    0.030025
   8 H :    0.028525
   9 C :   -0.030753
  10 H :    0.025791
  11 H :    0.020712
  12 C :   -0.075741
  13 H :    0.039084
  14 H :    0.025970
  15 H :    0.034526
  16 S :    0.094752
  17 C :   -0.074348
  18 C :   -0.040507
  19 C :   -0.079653
  20 C :   -0.121482
  21 H :    0.028823
  22 C :    0.093182
  23 H :    0.019524
  24 H :    0.010440
  25 C :   -0.052776
  26 H :    0.038190
  27 H :    0.023124
  28 C :   -0.053218
  29 H :    0.021923
  30 H :    0.035932
  31 H :    0.022728
  32 H :    0.028118
  33 H :    0.060220
Sum of atomic charges:   -0.0000000

LOEWDIN ATOMIC CHARGES
----------------------
   0 S :    0.428143
   1 C :   -0.199757
   2 C :   -0.060373
   3 C :   -0.081399
   4 C :   -0.197544
   5 H :    0.026185
   6 C :   -0.025087
   7 H :    0.030516
   8 H :    0.031930
   9 C :   -0.033513
  10 H :    0.021788
  11 H :    0.019748
  12 C :   -0.071377
  13 H :    0.023615
  14 H :    0.028729
  15 H :    0.025383
  16 S :    0.441256
  17 C :   -0.199131
  18 C :   -0.076764
  19 C :   -0.054969
  20 C :   -0.203152
  21 H :    0.038867
  22 C :   -0.030154
  23 H :    0.022238
  24 H :    0.029526
  25 C :   -0.036621
  26 H :    0.030216
  27 H :    0.021839
  28 C :   -0.071824
  29 H :    0.023621
  30 H :    0.030748
  31 H :    0.018588
  32 H :    0.017771
  33 H :    0.030959

  Mayer bond orders larger than 0.100000
B(  0-S ,  1-C ) :   1.1565 B(  0-S ,  4-C ) :   1.1534 B(  1-C ,  2-C ) :   1.5844
B(  1-C ,  4-C ) :   0.1062 B(  1-C , 32-H ) :   0.9698 B(  2-C ,  3-C ) :   1.2899
B(  2-C ,  6-C ) :   0.9969 B(  3-C ,  4-C ) :   1.5491 B(  3-C ,  5-H ) :   0.9716
B(  4-C , 20-C ) :   1.0883 B(  6-C ,  7-H ) :   0.9471 B(  6-C ,  8-H ) :   0.9507
B(  6-C ,  9-C ) :   1.0804 B(  9-C , 10-H ) :   0.9560 B(  9-C , 11-H ) :   0.9576
B(  9-C , 12-C ) :   1.0814 B( 12-C , 13-H ) :   0.9760 B( 12-C , 14-H ) :   0.9726
B( 12-C , 15-H ) :   0.9734 B( 16-S , 17-C ) :   1.1793 B( 16-S , 20-C ) :   1.1449
B( 17-C , 18-C ) :   1.5741 B( 17-C , 33-H ) :   0.9623 B( 18-C , 19-C ) :   1.2927
B( 18-C , 21-H ) :   0.9849 B( 19-C , 20-C ) :   1.5443 B( 19-C , 22-C ) :   1.0290
B( 22-C , 23-H ) :   0.9346 B( 22-C , 24-H ) :   0.9332 B( 22-C , 25-C ) :   1.0649
B( 25-C , 26-H ) :   0.9584 B( 25-C , 27-H ) :   0.9578 B( 25-C , 28-C ) :   1.0599
B( 28-C , 29-H ) :   0.9768 B( 28-C , 30-H ) :   0.9775 B( 28-C , 31-H ) :   0.9790

Dispersion correction           -0.014708743
FINAL SINGLE POINT ENERGY     -1339.880220449325

DIPOLE MOMENT
-------------
                                X             Y             Z
Electronic contribution:    -12.74364     -10.70218      -2.24312
Nuclear contribution   :     12.96118      10.87553       2.17632
                        -----------------------------------------
Total Dipole Moment    :      0.21754       0.17334      -0.06680
                        -----------------------------------------
Magnitude (a.u.)       :      0.28607
Magnitude (Debye)      :      0.72713

Rotational constants in cm-1:     0.020041     0.008456     0.007419
Rotational constants in MHz :   600.815645   253.518050   222.423924

                             ****ORCA TERMINATED NORMALLY****
TOTAL RUN TIME: 0 days 0 hours 0 minutes 31 seconds 637 msec
