                         Program Version 4.2.1 -  RELEASE  -
|  1> ! wB97X-D3 SP def2-SVP
|  2> %pal
|  3> nprocs 16
|  4> end
|  5>
|  6> * xyz 0 1
|  7> S 	 8.84723 	 -6.39373 	 88.7944
|  8> C 	 9.33398 	 -5.21665 	 87.6311
|  9> C 	 8.34763 	 -4.60314 	 86.8709
| 10> C 	 7.07603 	 -5.23185 	 87.1578
| 11> C 	 7.18233 	 -6.28242 	 88.1573
| 12> H 	 6.1392 	 -5.08425 	 86.624
| 13> C 	 8.63991 	 -3.56378 	 85.7584
| 14> H 	 8.5232 	 -4.03622 	 84.7724
| 15> H 	 9.70142 	 -3.31784 	 85.8284
| 16> C 	 7.6482 	 -2.37006 	 85.6488
| 17> H 	 7.6908 	 -1.88861 	 84.6864
| 18> H 	 6.63053 	 -2.67448 	 85.7091
| 19> C 	 7.91813 	 -1.31297 	 86.7696
| 20> H 	 7.17032 	 -0.484957 	 86.7442
| 21> H 	 7.89731 	 -1.78734 	 87.7831
| 22> H 	 8.91719 	 -0.718736 	 86.6402
| 23> S 	 6.25352 	 -8.85568 	 88.5741
| 24> C 	 4.77773 	 -9.0461 	 89.4887
| 25> C 	 4.23385 	 -7.8489 	 89.7927
| 26> C 	 4.98616 	 -6.76644 	 89.3217
| 27> C 	 6.05012 	 -7.13156 	 88.5631
| 28> H 	 3.38342 	 -7.79255 	 90.4327
| 29> C 	 4.74893 	 -5.32429 	 89.6349
| 30> H 	 3.67144 	 -5.14743 	 89.5825
| 31> H 	 5.09015 	 -4.77168 	 88.746
| 32> C 	 5.29065 	 -4.7831 	 91.0073
| 33> H 	 6.36912 	 -4.95052 	 91.0804
| 34> H 	 4.89127 	 -5.36066 	 91.8838
| 35> C 	 4.99348 	 -3.32203 	 91.1873
| 36> H 	 4.98941 	 -2.76121 	 90.2129
| 37> H 	 5.65784 	 -2.77373 	 91.8514
| 38> H 	 3.98048 	 -3.26968 	 91.5613
| 39> H 	 10.3643 	 -4.86323 	 87.6793
| 40> H 	 4.23679 	 -9.9396 	 89.8304
| 41> *
| 42>
| 43>                          ****END OF INPUT****

CARTESIAN COORDINATES (ANGSTROEM)
---------------------------------
  S      8.847230   -6.393730   88.794400
  C      9.333980   -5.216650   87.631100
  C      8.347630   -4.603140   86.870900
  C      7.076030   -5.231850   87.157800
  C      7.182330   -6.282420   88.157300
  H      6.139200   -5.084250   86.624000
  C      8.639910   -3.563780   85.758400
  H      8.523200   -4.036220   84.772400
  H      9.701420   -3.317840   85.828400
  C      7.648200   -2.370060   85.648800
  H      7.690800   -1.888610   84.686400
  H      6.630530   -2.674480   85.709100
  C      7.918130   -1.312970   86.769600
  H      7.170320   -0.484957   86.744200
  H      7.897310   -1.787340   87.783100
  H      8.917190   -0.718736   86.640200
  S      6.253520   -8.855680   88.574100
  C      4.777730   -9.046100   89.488700
  C      4.233850   -7.848900   89.792700
  C      4.986160   -6.766440   89.321700
  C      6.050120   -7.131560   88.563100
  H      3.383420   -7.792550   90.432700
  C      4.748930   -5.324290   89.634900
  H      3.671440   -5.147430   89.582500
  H      5.090150   -4.771680   88.746000
  C      5.290650   -4.783100   91.007300
  H      6.369120   -4.950520   91.080400
  H      4.891270   -5.360660   91.883800
  C      4.993480   -3.322030   91.187300
  H      4.989410   -2.761210   90.212900
  H      5.657840   -2.773730   91.851400
  H      3.980480   -3.269680   91.561300
  H     10.364300   -4.863230   87.679300
  H      4.236790   -9.939600   89.830400

 Total Charge           Charge          ....    0
 Multiplicity           Mult            ....    1
 Number of Electrons    NEL             ....  134
 Basis Dimension        Dim             ....  322

ORBITAL ENERGIES
----------------

  NO   OCC          E(Eh)            E(eV)
   0   2.0000     -88.973565     -2421.0938
   1   2.0000     -88.964676     -2420.8519
   2   2.0000     -10.337361      -281.2939
   3   2.0000     -10.317819      -280.7621
   4   2.0000     -10.314510      -280.6721
   5   2.0000     -10.313306      -280.6393
   6   2.0000     -10.308626      -280.5120
   7   2.0000     -10.304614      -280.4028
   8   2.0000     -10.300885      -280.3013
   9   2.0000     -10.292439      -280.0715
  10   2.0000     -10.290775      -280.0262
  11   2.0000     -10.289711      -279.9973
  12   2.0000     -10.287216      -279.9294
  13   2.0000     -10.286999      -279.9235
  14   2.0000     -10.283968      -279.8410
  15   2.0000     -10.274343      -279.5791
  16   2.0000      -8.087618      -220.0753
  17   2.0000      -8.079724      -219.8605
  18   2.0000      -6.046038      -164.5211
  19   2.0000      -6.042259      -164.4182
  20   2.0000      -6.038487      -164.3156
  21   2.0000      -6.038245      -164.3090
  22   2.0000      -6.034210      -164.1992
  23   2.0000      -6.030411      -164.0958
  24   2.0000      -1.009533       -27.4708
  25   2.0000      -0.981745       -26.7146
  26   2.0000      -0.905294       -24.6343
  27   2.0000      -0.904024       -24.5997
  28   2.0000      -0.868643       -23.6370
  29   2.0000      -0.854107       -23.2414
  30   2.0000      -0.844520       -22.9805
  31   2.0000      -0.811284       -22.0761
  32   2.0000      -0.777735       -21.1632
  33   2.0000      -0.765895       -20.8410
  34   2.0000      -0.708852       -19.2888
  35   2.0000      -0.695533       -18.9264
  36   2.0000      -0.691653       -18.8208
  37   2.0000      -0.660603       -17.9759
  38   2.0000      -0.640235       -17.4217
  39   2.0000      -0.616876       -16.7861
  40   2.0000      -0.592507       -16.1229
  41   2.0000      -0.566825       -15.4241
  42   2.0000      -0.556469       -15.1423
  43   2.0000      -0.545459       -14.8427
  44   2.0000      -0.535499       -14.5717
  45   2.0000      -0.523618       -14.2484
  46   2.0000      -0.518191       -14.1007
  47   2.0000      -0.511427       -13.9166
  48   2.0000      -0.501133       -13.6365
  49   2.0000      -0.489009       -13.3066
  50   2.0000      -0.484016       -13.1707
  51   2.0000      -0.475746       -12.9457
  52   2.0000      -0.468791       -12.7564
  53   2.0000      -0.461616       -12.5612
  54   2.0000      -0.458292       -12.4708
  55   2.0000      -0.450153       -12.2493
  56   2.0000      -0.441698       -12.0192
  57   2.0000      -0.437350       -11.9009
  58   2.0000      -0.434022       -11.8103
  59   2.0000      -0.427206       -11.6249
  60   2.0000      -0.422933       -11.5086
  61   2.0000      -0.421523       -11.4702
  62   2.0000      -0.408097       -11.1049
  63   2.0000      -0.342760        -9.3270
  64   2.0000      -0.333273        -9.0688
  65   2.0000      -0.331021        -9.0075
  66   2.0000      -0.292120        -7.9490
  67   0.0000       0.031494         0.8570
  68   0.0000       0.064718         1.7611
  69   0.0000       0.112030         3.0485
  70   0.0000       0.121154         3.2968
  71   0.0000       0.130762         3.5582

MULLIKEN ATOMIC CHARGES
-----------------------
   0 S :    0.136030
   1 C :   -0.142821
   2 C :   -0.059437
   3 C :    0.009666
   4 C :   -0.167222
   5 H :    0.031278
   6 C :    0.066325
   7 H :    0.044246
   8 H :    0.021173
   9 C :   -0.045965
  10 H :    0.025893
  11 H :    0.023405
  12 C :   -0.115103
  13 H :    0.035277
  14 H :    0.053882
  15 H :    0.041904
  16 S :    0.106555
  17 C :   -0.083486
  18 C :   -0.024379
  19 C :   -0.045440
  20 C :   -0.176003
  21 H :    0.003535
  22 C :    0.083113
  23 H :    0.011196
  24 H :    0.005937
  25 C :   -0.060234
  26 H :    0.026058
  27 H :    0.031438
  28 C :   -0.040549
  29 H :    0.032446
  30 H :    0.037045
  31 H :    0.025339
  32 H :    0.052137
  33 H :    0.056761
Sum of atomic charges:   -0.0000000

LOEWDIN ATOMIC CHARGES
----------------------
   0 S :    0.411727
   1 C :   -0.207562
   2 C :   -0.064125
   3 C :   -0.058286
   4 C :   -0.184813
   5 H :    0.030927
   6 C :   -0.027187
   7 H :    0.038051
   8 H :    0.030589
   9 C :   -0.039209
  10 H :    0.024558
  11 H :    0.021166
  12 C :   -0.081711
  13 H :    0.023896
  14 H :    0.030218
  15 H :    0.032529
  16 S :    0.410398
  17 C :   -0.184323
  18 C :   -0.072328
  19 C :   -0.057722
  20 C :   -0.212830
  21 H :    0.028445
  22 C :   -0.034342
  23 H :    0.026784
  24 H :    0.031499
  25 C :   -0.040965
  26 H :    0.022058
  27 H :    0.028398
  28 C :   -0.069106
  29 H :    0.030190
  30 H :    0.026282
  31 H :    0.023736
  32 H :    0.024252
  33 H :    0.038809

  Mayer bond orders larger than 0.100000
B(  0-S ,  1-C ) :   1.1535 B(  0-S ,  4-C ) :   1.1506 B(  1-C ,  2-C ) :   1.6060
B(  1-C , 32-H ) :   0.9566 B(  2-C ,  3-C ) :   1.2456 B(  2-C ,  6-C ) :   1.0198
B(  3-C ,  4-C ) :   1.5658 B(  3-C ,  5-H ) :   0.9769 B(  4-C , 20-C ) :   1.0445
B(  6-C ,  7-H ) :   0.9405 B(  6-C ,  8-H ) :   0.9466 B(  6-C ,  9-C ) :   1.0613
B(  9-C , 10-H ) :   0.9569 B(  9-C , 11-H ) :   0.9556 B(  9-C , 12-C ) :   1.0666
B( 12-C , 13-H ) :   0.9761 B( 12-C , 14-H ) :   0.9774 B( 12-C , 15-H ) :   0.9763
B( 16-S , 17-C ) :   1.1532 B( 16-S , 20-C ) :   1.1288 B( 17-C , 18-C ) :   1.6194
B( 17-C , 33-H ) :   0.9585 B( 18-C , 19-C ) :   1.2557 B( 18-C , 21-H ) :   0.9966
B( 19-C , 20-C ) :   1.6068 B( 19-C , 22-C ) :   1.0416 B( 22-C , 23-H ) :   0.9286
B( 22-C , 24-H ) :   0.9192 B( 22-C , 25-C ) :   1.0511 B( 25-C , 26-H ) :   0.9565
B( 25-C , 27-H ) :   0.9573 B( 25-C , 28-C ) :   1.0780 B( 28-C , 29-H ) :   0.9731
B( 28-C , 30-H ) :   0.9749 B( 28-C , 31-H ) :   0.9753

Dispersion correction           -0.014714772
FINAL SINGLE POINT ENERGY     -1339.879905321151

DIPOLE MOMENT
-------------
                                X             Y             Z
Electronic contribution:      5.99075     -29.23538       0.34954
Nuclear contribution   :     -6.24649      29.72127      -0.35824
                        -----------------------------------------
Total Dipole Moment    :     -0.25574       0.48589      -0.00870
                        -----------------------------------------
Magnitude (a.u.)       :      0.54915
Magnitude (Debye)      :      1.39583

Rotational constants in cm-1:     0.018689     0.009141     0.007264
Rotational constants in MHz :   560.287816   274.048889   217.769847

                             ****ORCA TERMINATED NORMALLY****
TOTAL RUN TIME: 0 days 0 hours 0 minutes 34 seconds 753 msec
