                         Program Version 4.2.1 -  RELEASE  -
|  1> ! wB97X-D3 SP def2-SVP
|  2> %pal
|  3> nprocs 16
|  4> end
|  5>
|  6> * xyz 0 1
|  7> S 	 13.2838 	 22.4076 	 40.1025
|  8> C 	 14.338 	 22.7787 	 38.71
|  9> C 	 14.8268 	 21.6159 	 38.082
| 10> C 	 14.2813 	 20.4252 	 38.7602
| 11> C 	 13.4882 	 20.6835 	 39.8717
| 12> H 	 14.5071 	 19.381 	 38.5283
| 13> C 	 15.9637 	 21.4738 	 37.0467
| 14> H 	 16.1882 	 20.3974 	 37.0396
| 15> H 	 16.8364 	 22.0476 	 37.4206
| 16> C 	 15.688 	 21.9403 	 35.6665
| 17> H 	 16.6268 	 21.8916 	 35.1422
| 18> H 	 15.0572 	 21.2769 	 35.0634
| 19> C 	 15.0442 	 23.3441 	 35.5478
| 20> H 	 15.2487 	 23.7339 	 34.5192
| 21> H 	 13.9642 	 23.3917 	 35.5818
| 22> H 	 15.3342 	 24.0064 	 36.3116
| 23> S 	 13.1356 	 19.7854 	 42.4901
| 24> C 	 12.1788 	 18.2985 	 42.7499
| 25> C 	 11.6041 	 17.9447 	 41.572
| 26> C 	 12.1819 	 18.5802 	 40.3995
| 27> C 	 12.885 	 19.6793 	 40.7862
| 28> H 	 10.7846 	 17.2631 	 41.5894
| 29> C 	 11.6111 	 18.3553 	 39.0151
| 30> H 	 11.1143 	 17.3275 	 38.9282
| 31> H 	 12.4377 	 18.2531 	 38.3309
| 32> C 	 10.6138 	 19.3892 	 38.477
| 33> H 	 10.2449 	 18.7511 	 37.6655
| 34> H 	 11.0087 	 20.2501 	 37.9033
| 35> C 	 9.43863 	 19.7591 	 39.4917
| 36> H 	 9.85594 	 19.9135 	 40.527
| 37> H 	 8.71471 	 18.9949 	 39.7425
| 38> H 	 8.79992 	 20.6549 	 39.264
| 39> H 	 14.8036 	 23.7189 	 38.5575
| 40> H 	 11.8459 	 18.0518 	 43.761
| 41> *
| 42>
| 43>                          ****END OF INPUT****

CARTESIAN COORDINATES (ANGSTROEM)
---------------------------------
  S     13.283800   22.407600   40.102500
  C     14.338000   22.778700   38.710000
  C     14.826800   21.615900   38.082000
  C     14.281300   20.425200   38.760200
  C     13.488200   20.683500   39.871700
  H     14.507100   19.381000   38.528300
  C     15.963700   21.473800   37.046700
  H     16.188200   20.397400   37.039600
  H     16.836400   22.047600   37.420600
  C     15.688000   21.940300   35.666500
  H     16.626800   21.891600   35.142200
  H     15.057200   21.276900   35.063400
  C     15.044200   23.344100   35.547800
  H     15.248700   23.733900   34.519200
  H     13.964200   23.391700   35.581800
  H     15.334200   24.006400   36.311600
  S     13.135600   19.785400   42.490100
  C     12.178800   18.298500   42.749900
  C     11.604100   17.944700   41.572000
  C     12.181900   18.580200   40.399500
  C     12.885000   19.679300   40.786200
  H     10.784600   17.263100   41.589400
  C     11.611100   18.355300   39.015100
  H     11.114300   17.327500   38.928200
  H     12.437700   18.253100   38.330900
  C     10.613800   19.389200   38.477000
  H     10.244900   18.751100   37.665500
  H     11.008700   20.250100   37.903300
  C      9.438630   19.759100   39.491700
  H      9.855940   19.913500   40.527000
  H      8.714710   18.994900   39.742500
  H      8.799920   20.654900   39.264000
  H     14.803600   23.718900   38.557500
  H     11.845900   18.051800   43.761000

 Total Charge           Charge          ....    0
 Multiplicity           Mult            ....    1
 Number of Electrons    NEL             ....  134
 Basis Dimension        Dim             ....  322

ORBITAL ENERGIES
----------------

  NO   OCC          E(Eh)            E(eV)
   0   2.0000     -88.968168     -2420.9469
   1   2.0000     -88.963305     -2420.8146
   2   2.0000     -10.331872      -281.1445
   3   2.0000     -10.326432      -280.9965
   4   2.0000     -10.317729      -280.7597
   5   2.0000     -10.317064      -280.7416
   6   2.0000     -10.311291      -280.5845
   7   2.0000     -10.299696      -280.2690
   8   2.0000     -10.298644      -280.2404
   9   2.0000     -10.298356      -280.2325
  10   2.0000     -10.297572      -280.2112
  11   2.0000     -10.295300      -280.1494
  12   2.0000     -10.292673      -280.0779
  13   2.0000     -10.284774      -279.8629
  14   2.0000     -10.282668      -279.8056
  15   2.0000     -10.275981      -279.6237
  16   2.0000      -8.082047      -219.9237
  17   2.0000      -8.078309      -219.8220
  18   2.0000      -6.040719      -164.3763
  19   2.0000      -6.036908      -164.2726
  20   2.0000      -6.036628      -164.2650
  21   2.0000      -6.032874      -164.1628
  22   2.0000      -6.032740      -164.1592
  23   2.0000      -6.028849      -164.0533
  24   2.0000      -1.005455       -27.3598
  25   2.0000      -0.977831       -26.6081
  26   2.0000      -0.915126       -24.9018
  27   2.0000      -0.903271       -24.5793
  28   2.0000      -0.865683       -23.5564
  29   2.0000      -0.843410       -22.9504
  30   2.0000      -0.837146       -22.7799
  31   2.0000      -0.810623       -22.0582
  32   2.0000      -0.788154       -21.4468
  33   2.0000      -0.778344       -21.1798
  34   2.0000      -0.708136       -19.2693
  35   2.0000      -0.702061       -19.1041
  36   2.0000      -0.688445       -18.7335
  37   2.0000      -0.662893       -18.0382
  38   2.0000      -0.639100       -17.3908
  39   2.0000      -0.613228       -16.6868
  40   2.0000      -0.591798       -16.1036
  41   2.0000      -0.564790       -15.3687
  42   2.0000      -0.556100       -15.1322
  43   2.0000      -0.550426       -14.9779
  44   2.0000      -0.540619       -14.7110
  45   2.0000      -0.535975       -14.5846
  46   2.0000      -0.517949       -14.0941
  47   2.0000      -0.507018       -13.7967
  48   2.0000      -0.501213       -13.6387
  49   2.0000      -0.491763       -13.3816
  50   2.0000      -0.480680       -13.0800
  51   2.0000      -0.474117       -12.9014
  52   2.0000      -0.468457       -12.7474
  53   2.0000      -0.463158       -12.6032
  54   2.0000      -0.457053       -12.4370
  55   2.0000      -0.448402       -12.2016
  56   2.0000      -0.445551       -12.1241
  57   2.0000      -0.442152       -12.0316
  58   2.0000      -0.433587       -11.7985
  59   2.0000      -0.424100       -11.5403
  60   2.0000      -0.419178       -11.4064
  61   2.0000      -0.408335       -11.1114
  62   2.0000      -0.402314       -10.9475
  63   2.0000      -0.347021        -9.4429
  64   2.0000      -0.329576        -8.9682
  65   2.0000      -0.328040        -8.9264
  66   2.0000      -0.296840        -8.0774
  67   0.0000       0.026961         0.7336
  68   0.0000       0.068933         1.8758
  69   0.0000       0.111971         3.0469
  70   0.0000       0.116894         3.1808
  71   0.0000       0.125382         3.4118

MULLIKEN ATOMIC CHARGES
-----------------------
   0 S :    0.107266
   1 C :   -0.119388
   2 C :   -0.098777
   3 C :    0.012006
   4 C :   -0.149556
   5 H :    0.021132
   6 C :    0.055038
   7 H :    0.027738
   8 H :    0.048019
   9 C :   -0.049045
  10 H :    0.025770
  11 H :    0.023624
  12 C :   -0.050583
  13 H :    0.035065
  14 H :    0.034905
  15 H :    0.011244
  16 S :    0.095955
  17 C :   -0.097912
  18 C :   -0.023308
  19 C :   -0.052398
  20 C :   -0.132657
  21 H :    0.016018
  22 C :    0.032733
  23 H :    0.033404
  24 H :    0.017449
  25 C :   -0.040388
  26 H :    0.026435
  27 H :    0.051007
  28 C :   -0.089255
  29 H :    0.044405
  30 H :    0.020943
  31 H :    0.047249
  32 H :    0.047831
  33 H :    0.068032
Sum of atomic charges:   -0.0000000

LOEWDIN ATOMIC CHARGES
----------------------
   0 S :    0.392765
   1 C :   -0.192336
   2 C :   -0.052115
   3 C :   -0.068520
   4 C :   -0.188429
   5 H :    0.030167
   6 C :   -0.031985
   7 H :    0.036021
   8 H :    0.039735
   9 C :   -0.044063
  10 H :    0.024590
  11 H :    0.025424
  12 C :   -0.066350
  13 H :    0.033537
  14 H :    0.027380
  15 H :    0.012172
  16 S :    0.392954
  17 C :   -0.178453
  18 C :   -0.057535
  19 C :   -0.068389
  20 C :   -0.198185
  21 H :    0.027180
  22 C :   -0.036936
  23 H :    0.038081
  24 H :    0.029116
  25 C :   -0.041746
  26 H :    0.029451
  27 H :    0.032778
  28 C :   -0.084512
  29 H :    0.032605
  30 H :    0.021110
  31 H :    0.033875
  32 H :    0.019167
  33 H :    0.031448

  Mayer bond orders larger than 0.100000
B(  0-S ,  1-C ) :   1.1278 B(  0-S ,  4-C ) :   1.1443 B(  1-C ,  2-C ) :   1.6261
B(  1-C , 32-H ) :   0.9657 B(  2-C ,  3-C ) :   1.2291 B(  2-C ,  6-C ) :   1.0091
B(  3-C ,  4-C ) :   1.6103 B(  3-C ,  5-H ) :   0.9811 B(  4-C , 20-C ) :   1.0155
B(  6-C ,  7-H ) :   0.9400 B(  6-C ,  8-H ) :   0.9415 B(  6-C ,  9-C ) :   1.0933
B(  9-C , 10-H ) :   0.9548 B(  9-C , 11-H ) :   0.9497 B(  9-C , 12-C ) :   1.0753
B( 12-C , 13-H ) :   0.9717 B( 12-C , 14-H ) :   0.9713 B( 12-C , 15-H ) :   0.9774
B( 16-S , 17-C ) :   1.1218 B( 16-S , 20-C ) :   1.1507 B( 17-C , 18-C ) :   1.6503
B( 17-C , 33-H ) :   0.9644 B( 18-C , 19-C ) :   1.1973 B( 18-C , 21-H ) :   0.9907
B( 19-C , 20-C ) :   1.6110 B( 19-C , 22-C ) :   1.0611 B( 22-C , 23-H ) :   0.9470
B( 22-C , 24-H ) :   0.9219 B( 22-C , 25-C ) :   1.0574 B( 25-C , 26-H ) :   0.9564
B( 25-C , 27-H ) :   0.9584 B( 25-C , 28-C ) :   1.0522 B( 28-C , 29-H ) :   0.9752
B( 28-C , 30-H ) :   0.9767 B( 28-C , 31-H ) :   0.9788

Dispersion correction           -0.015591240
FINAL SINGLE POINT ENERGY     -1339.861766860108

DIPOLE MOMENT
-------------
                                X             Y             Z
Electronic contribution:      3.16678      -0.13818      23.69103
Nuclear contribution   :     -3.19172      -0.13370     -24.20528
                        -----------------------------------------
Total Dipole Moment    :     -0.02495      -0.27188      -0.51425
                        -----------------------------------------
Magnitude (a.u.)       :      0.58223
Magnitude (Debye)      :      1.47991

Rotational constants in cm-1:     0.023697     0.008099     0.007231
Rotational constants in MHz :   710.431518   242.799252   216.777727

                             ****ORCA TERMINATED NORMALLY****
TOTAL RUN TIME: 0 days 0 hours 0 minutes 35 seconds 892 msec
