                         Program Version 4.2.1 -  RELEASE  -
|  1> ! wB97X-D3 SP def2-SVP
|  2> %pal
|  3> nprocs 16
|  4> end
|  5>
|  6> * xyz 0 1
|  7> S 	 -9.11381 	 41.0523 	 35.0164
|  8> C 	 -8.77195 	 39.7435 	 33.9017
|  9> C 	 -7.38981 	 39.615 	 33.7245
| 10> C 	 -6.64043 	 40.7006 	 34.2629
| 11> C 	 -7.45138 	 41.5358 	 35.0441
| 12> H 	 -5.61575 	 40.9194 	 34.3382
| 13> C 	 -6.74879 	 38.4142 	 33.056
| 14> H 	 -5.76003 	 38.716 	 32.7388
| 15> H 	 -7.206 	 38.163 	 32.0991
| 16> C 	 -6.70915 	 37.1747 	 34.0166
| 17> H 	 -6.2665 	 37.5836 	 34.9414
| 18> H 	 -7.70696 	 36.8322 	 34.2333
| 19> C 	 -5.98972 	 36.0025 	 33.4109
| 20> H 	 -6.62382 	 35.6072 	 32.6199
| 21> H 	 -5.07505 	 36.4552 	 33.0452
| 22> H 	 -5.81025 	 35.285 	 34.187
| 23> S 	 -8.09245 	 44.1072 	 35.5244
| 24> C 	 -7.25994 	 45.1229 	 36.6668
| 25> C 	 -6.054 	 44.528 	 36.8499
| 26> C 	 -5.92682 	 43.1514 	 36.4302
| 27> C 	 -7.03355 	 42.7435 	 35.7073
| 28> H 	 -5.29719 	 45.1159 	 37.4028
| 29> C 	 -4.72086 	 42.3579 	 36.8385
| 30> H 	 -3.90478 	 42.6079 	 36.1599
| 31> H 	 -4.98799 	 41.3176 	 36.734
| 32> C 	 -4.18118 	 42.4434 	 38.2607
| 33> H 	 -5.01075 	 42.4464 	 38.9031
| 34> H 	 -3.81207 	 43.4615 	 38.4401
| 35> C 	 -3.00974 	 41.4189 	 38.4747
| 36> H 	 -2.82732 	 41.3113 	 39.554
| 37> H 	 -2.07635 	 41.7402 	 37.9047
| 38> H 	 -3.28427 	 40.4564 	 38.0243
| 39> H 	 -9.51733 	 39.0298 	 33.4566
| 40> H 	 -7.54064 	 46.1248 	 36.928
| 41> *
| 42>
| 43>                          ****END OF INPUT****

CARTESIAN COORDINATES (ANGSTROEM)
---------------------------------
  S     -9.113810   41.052300   35.016400
  C     -8.771950   39.743500   33.901700
  C     -7.389810   39.615000   33.724500
  C     -6.640430   40.700600   34.262900
  C     -7.451380   41.535800   35.044100
  H     -5.615750   40.919400   34.338200
  C     -6.748790   38.414200   33.056000
  H     -5.760030   38.716000   32.738800
  H     -7.206000   38.163000   32.099100
  C     -6.709150   37.174700   34.016600
  H     -6.266500   37.583600   34.941400
  H     -7.706960   36.832200   34.233300
  C     -5.989720   36.002500   33.410900
  H     -6.623820   35.607200   32.619900
  H     -5.075050   36.455200   33.045200
  H     -5.810250   35.285000   34.187000
  S     -8.092450   44.107200   35.524400
  C     -7.259940   45.122900   36.666800
  C     -6.054000   44.528000   36.849900
  C     -5.926820   43.151400   36.430200
  C     -7.033550   42.743500   35.707300
  H     -5.297190   45.115900   37.402800
  C     -4.720860   42.357900   36.838500
  H     -3.904780   42.607900   36.159900
  H     -4.987990   41.317600   36.734000
  C     -4.181180   42.443400   38.260700
  H     -5.010750   42.446400   38.903100
  H     -3.812070   43.461500   38.440100
  C     -3.009740   41.418900   38.474700
  H     -2.827320   41.311300   39.554000
  H     -2.076350   41.740200   37.904700
  H     -3.284270   40.456400   38.024300
  H     -9.517330   39.029800   33.456600
  H     -7.540640   46.124800   36.928000

 Total Charge           Charge          ....    0
 Multiplicity           Mult            ....    1
 Number of Electrons    NEL             ....  134
 Basis Dimension        Dim             ....  322

ORBITAL ENERGIES
----------------

  NO   OCC          E(Eh)            E(eV)
   0   2.0000     -88.970132     -2421.0004
   1   2.0000     -88.956535     -2420.6304
   2   2.0000     -10.328284      -281.0469
   3   2.0000     -10.325916      -280.9825
   4   2.0000     -10.318400      -280.7780
   5   2.0000     -10.313154      -280.6352
   6   2.0000     -10.304332      -280.3951
   7   2.0000     -10.303564      -280.3742
   8   2.0000     -10.293355      -280.0964
   9   2.0000     -10.292903      -280.0841
  10   2.0000     -10.291295      -280.0404
  11   2.0000     -10.289993      -280.0050
  12   2.0000     -10.287731      -279.9434
  13   2.0000     -10.283909      -279.8394
  14   2.0000     -10.283604      -279.8311
  15   2.0000     -10.274236      -279.5762
  16   2.0000      -8.084600      -219.9932
  17   2.0000      -8.072250      -219.6571
  18   2.0000      -6.043007      -164.4386
  19   2.0000      -6.039037      -164.3305
  20   2.0000      -6.035565      -164.2361
  21   2.0000      -6.030853      -164.1079
  22   2.0000      -6.026511      -163.9897
  23   2.0000      -6.022908      -163.8916
  24   2.0000      -1.011905       -27.5353
  25   2.0000      -0.986575       -26.8461
  26   2.0000      -0.913596       -24.8602
  27   2.0000      -0.911146       -24.7935
  28   2.0000      -0.874489       -23.7960
  29   2.0000      -0.855154       -23.2699
  30   2.0000      -0.841974       -22.9113
  31   2.0000      -0.816914       -22.2294
  32   2.0000      -0.777824       -21.1657
  33   2.0000      -0.770572       -20.9683
  34   2.0000      -0.709772       -19.3139
  35   2.0000      -0.701153       -19.0793
  36   2.0000      -0.696188       -18.9442
  37   2.0000      -0.659561       -17.9476
  38   2.0000      -0.642169       -17.4743
  39   2.0000      -0.615929       -16.7603
  40   2.0000      -0.599992       -16.3266
  41   2.0000      -0.573235       -15.5985
  42   2.0000      -0.568530       -15.4705
  43   2.0000      -0.564157       -15.3515
  44   2.0000      -0.529546       -14.4097
  45   2.0000      -0.529010       -14.3951
  46   2.0000      -0.520806       -14.1719
  47   2.0000      -0.511939       -13.9306
  48   2.0000      -0.505534       -13.7563
  49   2.0000      -0.503429       -13.6990
  50   2.0000      -0.488587       -13.2951
  51   2.0000      -0.486551       -13.2397
  52   2.0000      -0.474305       -12.9065
  53   2.0000      -0.468730       -12.7548
  54   2.0000      -0.457379       -12.4459
  55   2.0000      -0.446952       -12.1622
  56   2.0000      -0.442006       -12.0276
  57   2.0000      -0.434455       -11.8221
  58   2.0000      -0.431847       -11.7512
  59   2.0000      -0.430275       -11.7084
  60   2.0000      -0.417531       -11.3616
  61   2.0000      -0.415569       -11.3082
  62   2.0000      -0.409469       -11.1422
  63   2.0000      -0.351243        -9.5578
  64   2.0000      -0.332283        -9.0419
  65   2.0000      -0.321576        -8.7505
  66   2.0000      -0.290172        -7.8960
  67   0.0000       0.022709         0.6179
  68   0.0000       0.080964         2.2031
  69   0.0000       0.114460         3.1146
  70   0.0000       0.115255         3.1362
  71   0.0000       0.134311         3.6548

MULLIKEN ATOMIC CHARGES
-----------------------
   0 S :    0.134587
   1 C :   -0.139529
   2 C :   -0.088584
   3 C :    0.059807
   4 C :   -0.175874
   5 H :   -0.005022
   6 C :    0.061303
   7 H :    0.007809
   8 H :    0.019218
   9 C :   -0.090943
  10 H :    0.031615
  11 H :    0.020219
  12 C :    0.000799
  13 H :    0.034318
  14 H :    0.023423
  15 H :    0.037481
  16 S :    0.081791
  17 C :   -0.085868
  18 C :   -0.054648
  19 C :   -0.034465
  20 C :   -0.134961
  21 H :    0.028013
  22 C :    0.039613
  23 H :    0.037757
  24 H :    0.017324
  25 C :   -0.059431
  26 H :    0.018306
  27 H :    0.019103
  28 C :   -0.056906
  29 H :    0.050166
  30 H :    0.045330
  31 H :    0.029861
  32 H :    0.070743
  33 H :    0.057645
Sum of atomic charges:    0.0000000

LOEWDIN ATOMIC CHARGES
----------------------
   0 S :    0.426558
   1 C :   -0.209869
   2 C :   -0.059746
   3 C :   -0.057034
   4 C :   -0.201087
   5 H :    0.025824
   6 C :   -0.034183
   7 H :    0.023646
   8 H :    0.026570
   9 C :   -0.036015
  10 H :    0.025000
  11 H :    0.017955
  12 C :   -0.058164
  13 H :    0.027979
  14 H :    0.024045
  15 H :    0.026437
  16 S :    0.404666
  17 C :   -0.184408
  18 C :   -0.076205
  19 C :   -0.064793
  20 C :   -0.197437
  21 H :    0.032150
  22 C :   -0.037996
  23 H :    0.033196
  24 H :    0.026570
  25 C :   -0.040522
  26 H :    0.017605
  27 H :    0.020481
  28 C :   -0.064369
  29 H :    0.031457
  30 H :    0.035802
  31 H :    0.023415
  32 H :    0.041957
  33 H :    0.030517

  Mayer bond orders larger than 0.100000
B(  0-S ,  1-C ) :   1.1422 B(  0-S ,  4-C ) :   1.1716 B(  1-C ,  2-C ) :   1.5761
B(  1-C ,  4-C ) :   0.1009 B(  1-C , 32-H ) :   0.9646 B(  2-C ,  3-C ) :   1.2514
B(  2-C ,  6-C ) :   1.0348 B(  3-C ,  4-C ) :   1.5333 B(  3-C ,  5-H ) :   0.9996
B(  4-C , 20-C ) :   1.0595 B(  6-C ,  7-H ) :   0.9389 B(  6-C ,  8-H ) :   0.9380
B(  6-C ,  9-C ) :   1.0516 B(  9-C , 10-H ) :   0.9568 B(  9-C , 11-H ) :   0.9567
B(  9-C , 12-C ) :   1.0813 B( 12-C , 13-H ) :   0.9732 B( 12-C , 14-H ) :   0.9753
B( 12-C , 15-H ) :   0.9726 B( 16-S , 17-C ) :   1.1409 B( 16-S , 20-C ) :   1.1491
B( 17-C , 18-C ) :   1.6127 B( 17-C , 33-H ) :   0.9735 B( 18-C , 19-C ) :   1.2264
B( 18-C , 21-H ) :   0.9823 B( 19-C , 20-C ) :   1.5827 B( 19-C , 22-C ) :   1.0536
B( 22-C , 23-H ) :   0.9265 B( 22-C , 24-H ) :   0.9334 B( 22-C , 25-C ) :   1.0722
B( 25-C , 26-H ) :   0.9595 B( 25-C , 27-H ) :   0.9448 B( 25-C , 28-C ) :   1.0667
B( 28-C , 29-H ) :   0.9751 B( 28-C , 30-H ) :   0.9740 B( 28-C , 31-H ) :   0.9777

Dispersion correction           -0.013399071
FINAL SINGLE POINT ENERGY     -1339.872816973098

DIPOLE MOMENT
-------------
                                X             Y             Z
Electronic contribution:    -22.36071      20.26614      -3.54338
Nuclear contribution   :     22.92902     -20.57314       3.64862
                        -----------------------------------------
Total Dipole Moment    :      0.56831      -0.30701       0.10524
                        -----------------------------------------
Magnitude (a.u.)       :      0.65445
Magnitude (Debye)      :      1.66348

Rotational constants in cm-1:     0.017484     0.008465     0.006023
Rotational constants in MHz :   524.167790   253.768029   180.571321

                             ****ORCA TERMINATED NORMALLY****
TOTAL RUN TIME: 0 days 0 hours 0 minutes 31 seconds 465 msec
