                         Program Version 4.2.1 -  RELEASE  -
|  1> ! wB97X-D3 SP def2-SVP
|  2> %pal
|  3> nprocs 16
|  4> end
|  5>
|  6> * xyz 0 1
|  7> S 	 -24.6363 	 52.4922 	 66.2164
|  8> C 	 -23.5598 	 51.8717 	 64.9953
|  9> C 	 -22.8444 	 50.7796 	 65.4823
| 10> C 	 -23.1029 	 50.565 	 66.8957
| 11> C 	 -24.0278 	 51.3887 	 67.4293
| 12> H 	 -22.6224 	 49.769 	 67.5047
| 13> C 	 -21.7147 	 50.2287 	 64.721
| 14> H 	 -20.868 	 50.117 	 65.3983
| 15> H 	 -21.401 	 50.8009 	 63.8296
| 16> C 	 -22.0602 	 48.8766 	 64.0061
| 17> H 	 -21.1654 	 48.384 	 63.6045
| 18> H 	 -22.5253 	 48.2429 	 64.73
| 19> C 	 -22.9778 	 49.0677 	 62.8673
| 20> H 	 -22.4689 	 49.6361 	 62.0919
| 21> H 	 -23.2725 	 48.152 	 62.3149
| 22> H 	 -23.8473 	 49.6525 	 63.1493
| 23> S 	 -23.8294 	 52.7605 	 69.729
| 24> C 	 -24.178 	 51.7962 	 71.1969
| 25> C 	 -24.7992 	 50.5825 	 70.9374
| 26> C 	 -24.9142 	 50.33 	 69.544
| 27> C 	 -24.4427 	 51.4145 	 68.8123
| 28> H 	 -25.1194 	 49.9694 	 71.7462
| 29> C 	 -25.5931 	 49.0304 	 69.1242
| 30> H 	 -24.9728 	 48.0786 	 69.203
| 31> H 	 -25.7323 	 49.0923 	 68.0482
| 32> C 	 -26.9504 	 48.7808 	 69.7971
| 33> H 	 -27.4788 	 49.6821 	 69.9961
| 34> H 	 -26.7388 	 48.1751 	 70.7202
| 35> C 	 -27.8252 	 47.9107 	 69.0038
| 36> H 	 -27.3399 	 46.9443 	 68.9309
| 37> H 	 -28.0734 	 48.3388 	 68.0881
| 38> H 	 -28.7493 	 47.622 	 69.5475
| 39> H 	 -23.3866 	 52.1354 	 63.9937
| 40> H 	 -23.9716 	 52.1338 	 72.1693
| 41> *
| 42>
| 43>                          ****END OF INPUT****

CARTESIAN COORDINATES (ANGSTROEM)
---------------------------------
  S    -24.636300   52.492200   66.216400
  C    -23.559800   51.871700   64.995300
  C    -22.844400   50.779600   65.482300
  C    -23.102900   50.565000   66.895700
  C    -24.027800   51.388700   67.429300
  H    -22.622400   49.769000   67.504700
  C    -21.714700   50.228700   64.721000
  H    -20.868000   50.117000   65.398300
  H    -21.401000   50.800900   63.829600
  C    -22.060200   48.876600   64.006100
  H    -21.165400   48.384000   63.604500
  H    -22.525300   48.242900   64.730000
  C    -22.977800   49.067700   62.867300
  H    -22.468900   49.636100   62.091900
  H    -23.272500   48.152000   62.314900
  H    -23.847300   49.652500   63.149300
  S    -23.829400   52.760500   69.729000
  C    -24.178000   51.796200   71.196900
  C    -24.799200   50.582500   70.937400
  C    -24.914200   50.330000   69.544000
  C    -24.442700   51.414500   68.812300
  H    -25.119400   49.969400   71.746200
  C    -25.593100   49.030400   69.124200
  H    -24.972800   48.078600   69.203000
  H    -25.732300   49.092300   68.048200
  C    -26.950400   48.780800   69.797100
  H    -27.478800   49.682100   69.996100
  H    -26.738800   48.175100   70.720200
  C    -27.825200   47.910700   69.003800
  H    -27.339900   46.944300   68.930900
  H    -28.073400   48.338800   68.088100
  H    -28.749300   47.622000   69.547500
  H    -23.386600   52.135400   63.993700
  H    -23.971600   52.133800   72.169300

 Total Charge           Charge          ....    0
 Multiplicity           Mult            ....    1
 Number of Electrons    NEL             ....  134
 Basis Dimension        Dim             ....  322

ORBITAL ENERGIES
----------------

  NO   OCC          E(Eh)            E(eV)
   0   2.0000     -88.970033     -2420.9977
   1   2.0000     -88.963918     -2420.8313
   2   2.0000     -10.324444      -280.9424
   3   2.0000     -10.322028      -280.8767
   4   2.0000     -10.318022      -280.7677
   5   2.0000     -10.308761      -280.5157
   6   2.0000     -10.306417      -280.4519
   7   2.0000     -10.297039      -280.1967
   8   2.0000     -10.296856      -280.1917
   9   2.0000     -10.293526      -280.1011
  10   2.0000     -10.292291      -280.0675
  11   2.0000     -10.290040      -280.0062
  12   2.0000     -10.282899      -279.8119
  13   2.0000     -10.278821      -279.7009
  14   2.0000     -10.270723      -279.4806
  15   2.0000     -10.269481      -279.4468
  16   2.0000      -8.084441      -219.9888
  17   2.0000      -8.078732      -219.8335
  18   2.0000      -6.042907      -164.4359
  19   2.0000      -6.039192      -164.3348
  20   2.0000      -6.037349      -164.2846
  21   2.0000      -6.035053      -164.2221
  22   2.0000      -6.033167      -164.1708
  23   2.0000      -6.029447      -164.0696
  24   2.0000      -1.008402       -27.4400
  25   2.0000      -0.983081       -26.7510
  26   2.0000      -0.919274       -25.0147
  27   2.0000      -0.916325       -24.9345
  28   2.0000      -0.871745       -23.7214
  29   2.0000      -0.859042       -23.3757
  30   2.0000      -0.847272       -23.0555
  31   2.0000      -0.816010       -22.2048
  32   2.0000      -0.781720       -21.2717
  33   2.0000      -0.770375       -20.9630
  34   2.0000      -0.706381       -19.2216
  35   2.0000      -0.696984       -18.9659
  36   2.0000      -0.690769       -18.7968
  37   2.0000      -0.661469       -17.9995
  38   2.0000      -0.641000       -17.4425
  39   2.0000      -0.618846       -16.8397
  40   2.0000      -0.603440       -16.4204
  41   2.0000      -0.582105       -15.8399
  42   2.0000      -0.574975       -15.6459
  43   2.0000      -0.552970       -15.0471
  44   2.0000      -0.545007       -14.8304
  45   2.0000      -0.524933       -14.2841
  46   2.0000      -0.522115       -14.2075
  47   2.0000      -0.513583       -13.9753
  48   2.0000      -0.499671       -13.5967
  49   2.0000      -0.495893       -13.4939
  50   2.0000      -0.486165       -13.2292
  51   2.0000      -0.482706       -13.1351
  52   2.0000      -0.470624       -12.8063
  53   2.0000      -0.461408       -12.5555
  54   2.0000      -0.458733       -12.4827
  55   2.0000      -0.453840       -12.3496
  56   2.0000      -0.442218       -12.0334
  57   2.0000      -0.437803       -11.9132
  58   2.0000      -0.434292       -11.8177
  59   2.0000      -0.425974       -11.5913
  60   2.0000      -0.418340       -11.3836
  61   2.0000      -0.415118       -11.2959
  62   2.0000      -0.409270       -11.1368
  63   2.0000      -0.346347        -9.4246
  64   2.0000      -0.329080        -8.9547
  65   2.0000      -0.324165        -8.8210
  66   2.0000      -0.299072        -8.1382
  67   0.0000       0.036328         0.9885
  68   0.0000       0.064573         1.7571
  69   0.0000       0.107970         2.9380
  70   0.0000       0.118724         3.2306
  71   0.0000       0.122518         3.3339

MULLIKEN ATOMIC CHARGES
-----------------------
   0 S :    0.108596
   1 C :   -0.073686
   2 C :   -0.105460
   3 C :    0.031570
   4 C :   -0.158652
   5 H :    0.025531
   6 C :    0.028745
   7 H :    0.035575
   8 H :    0.022997
   9 C :   -0.046653
  10 H :    0.028302
  11 H :    0.017385
  12 C :   -0.063223
  13 H :    0.009262
  14 H :    0.039067
  15 H :    0.032822
  16 S :    0.119376
  17 C :   -0.075002
  18 C :   -0.021719
  19 C :   -0.018400
  20 C :   -0.157554
  21 H :    0.014299
  22 C :    0.050853
  23 H :    0.042629
  24 H :    0.018703
  25 C :   -0.081450
  26 H :    0.035163
  27 H :    0.031746
  28 C :   -0.020245
  29 H :    0.014931
  30 H :    0.027087
  31 H :    0.029404
  32 H :    0.024168
  33 H :    0.033834
Sum of atomic charges:   -0.0000000

LOEWDIN ATOMIC CHARGES
----------------------
   0 S :    0.400829
   1 C :   -0.191084
   2 C :   -0.067049
   3 C :   -0.062359
   4 C :   -0.202649
   5 H :    0.038337
   6 C :   -0.031319
   7 H :    0.033287
   8 H :    0.031728
   9 C :   -0.039913
  10 H :    0.024392
  11 H :    0.015550
  12 C :   -0.071550
  13 H :    0.019132
  14 H :    0.031192
  15 H :    0.022841
  16 S :    0.403315
  17 C :   -0.157832
  18 C :   -0.059374
  19 C :   -0.048463
  20 C :   -0.207124
  21 H :    0.029988
  22 C :   -0.036476
  23 H :    0.040089
  24 H :    0.026806
  25 C :   -0.042196
  26 H :    0.022282
  27 H :    0.029865
  28 C :   -0.057658
  29 H :    0.023853
  30 H :    0.015591
  31 H :    0.031233
  32 H :    0.020118
  33 H :    0.014619

  Mayer bond orders larger than 0.100000
B(  0-S ,  1-C ) :   1.1304 B(  0-S ,  4-C ) :   1.1310 B(  1-C ,  2-C ) :   1.6152
B(  1-C , 32-H ) :   0.9693 B(  2-C ,  3-C ) :   1.2188 B(  2-C ,  6-C ) :   1.0380
B(  3-C ,  4-C ) :   1.6191 B(  3-C ,  5-H ) :   0.9897 B(  4-C , 20-C ) :   0.9948
B(  6-C ,  7-H ) :   0.9437 B(  6-C ,  8-H ) :   0.9524 B(  6-C ,  9-C ) :   1.0498
B(  9-C , 10-H ) :   0.9554 B(  9-C , 11-H ) :   0.9560 B(  9-C , 12-C ) :   1.0869
B( 12-C , 13-H ) :   0.9690 B( 12-C , 14-H ) :   0.9699 B( 12-C , 15-H ) :   0.9719
B( 16-S , 17-C ) :   1.1447 B( 16-S , 20-C ) :   1.1465 B( 17-C , 18-C ) :   1.6264
B( 17-C , 33-H ) :   0.9732 B( 18-C , 19-C ) :   1.2130 B( 18-C , 21-H ) :   0.9959
B( 19-C , 20-C ) :   1.6183 B( 19-C , 22-C ) :   1.0403 B( 22-C , 23-H ) :   0.9292
B( 22-C , 24-H ) :   0.9399 B( 22-C , 25-C ) :   1.0552 B( 25-C , 26-H ) :   0.9603
B( 25-C , 27-H ) :   0.9446 B( 25-C , 28-C ) :   1.1131 B( 28-C , 29-H ) :   0.9676
B( 28-C , 30-H ) :   0.9732 B( 28-C , 31-H ) :   0.9686

Dispersion correction           -0.013970559
FINAL SINGLE POINT ENERGY     -1339.868037656506

DIPOLE MOMENT
-------------
                                X             Y             Z
Electronic contribution:      3.41491      24.31570      10.70244
Nuclear contribution   :     -3.30096     -24.96668     -10.55967
                        -----------------------------------------
Total Dipole Moment    :      0.11394      -0.65098       0.14277
                        -----------------------------------------
Magnitude (a.u.)       :      0.67612
Magnitude (Debye)      :      1.71857

Rotational constants in cm-1:     0.018190     0.008414     0.006710
Rotational constants in MHz :   545.315633   252.231463   201.166827

                             ****ORCA TERMINATED NORMALLY****
TOTAL RUN TIME: 0 days 0 hours 0 minutes 29 seconds 953 msec
