                         Program Version 4.2.1 -  RELEASE  -
|  1> ! wB97X-D3 SP def2-SVP
|  2> %pal
|  3> nprocs 16
|  4> end
|  5>
|  6> * xyz 0 1
|  7> S 	 -117.535 	 47.3745 	 130.001
|  8> C 	 -116.267 	 47.761 	 128.869
|  9> C 	 -115.909 	 49.0941 	 128.825
| 10> C 	 -116.615 	 49.8028 	 129.862
| 11> C 	 -117.49 	 49.0211 	 130.63
| 12> H 	 -116.443 	 50.8239 	 130.245
| 13> C 	 -114.828 	 49.7569 	 127.912
| 14> H 	 -114.155 	 48.9947 	 127.716
| 15> H 	 -114.319 	 50.4877 	 128.416
| 16> C 	 -115.258 	 50.3825 	 126.601
| 17> H 	 -114.4 	 50.7391 	 126.059
| 18> H 	 -115.51 	 49.5459 	 125.859
| 19> C 	 -116.186 	 51.5788 	 126.657
| 20> H 	 -115.937 	 52.1617 	 127.546
| 21> H 	 -116.106 	 52.1872 	 125.747
| 22> H 	 -117.227 	 51.4051 	 126.781
| 23> S 	 -119.857 	 48.7057 	 132.053
| 24> C 	 -120.136 	 49.3658 	 133.656
| 25> C 	 -118.93 	 49.9806 	 134.008
| 26> C 	 -117.926 	 50.0783 	 132.982
| 27> C 	 -118.255 	 49.4318 	 131.806
| 28> H 	 -118.798 	 50.2436 	 134.988
| 29> C 	 -116.586 	 50.7905 	 133.154
| 30> H 	 -115.77 	 50.2757 	 132.643
| 31> H 	 -116.312 	 50.5965 	 134.186
| 32> C 	 -116.638 	 52.3148 	 132.872
| 33> H 	 -117.448 	 52.7569 	 133.431
| 34> H 	 -117.05 	 52.4559 	 131.867
| 35> C 	 -115.248 	 52.9273 	 132.966
| 36> H 	 -114.653 	 52.5111 	 132.203
| 37> H 	 -114.789 	 52.7373 	 133.891
| 38> H 	 -115.507 	 53.9397 	 132.672
| 39> H 	 -115.753 	 46.9636 	 128.351
| 40> H 	 -120.873 	 49.0038 	 134.259
| 41> *
| 42>
| 43>                          ****END OF INPUT****

CARTESIAN COORDINATES (ANGSTROEM)
---------------------------------
  S    -117.535000   47.374500  130.001000
  C    -116.267000   47.761000  128.869000
  C    -115.909000   49.094100  128.825000
  C    -116.615000   49.802800  129.862000
  C    -117.490000   49.021100  130.630000
  H    -116.443000   50.823900  130.245000
  C    -114.828000   49.756900  127.912000
  H    -114.155000   48.994700  127.716000
  H    -114.319000   50.487700  128.416000
  C    -115.258000   50.382500  126.601000
  H    -114.400000   50.739100  126.059000
  H    -115.510000   49.545900  125.859000
  C    -116.186000   51.578800  126.657000
  H    -115.937000   52.161700  127.546000
  H    -116.106000   52.187200  125.747000
  H    -117.227000   51.405100  126.781000
  S    -119.857000   48.705700  132.053000
  C    -120.136000   49.365800  133.656000
  C    -118.930000   49.980600  134.008000
  C    -117.926000   50.078300  132.982000
  C    -118.255000   49.431800  131.806000
  H    -118.798000   50.243600  134.988000
  C    -116.586000   50.790500  133.154000
  H    -115.770000   50.275700  132.643000
  H    -116.312000   50.596500  134.186000
  C    -116.638000   52.314800  132.872000
  H    -117.448000   52.756900  133.431000
  H    -117.050000   52.455900  131.867000
  C    -115.248000   52.927300  132.966000
  H    -114.653000   52.511100  132.203000
  H    -114.789000   52.737300  133.891000
  H    -115.507000   53.939700  132.672000
  H    -115.753000   46.963600  128.351000
  H    -120.873000   49.003800  134.259000

 Total Charge           Charge          ....    0
 Multiplicity           Mult            ....    1
 Number of Electrons    NEL             ....  134
 Basis Dimension        Dim             ....  322

ORBITAL ENERGIES
----------------

  NO   OCC          E(Eh)            E(eV)
   0   2.0000     -88.969511     -2420.9835
   1   2.0000     -88.957605     -2420.6595
   2   2.0000     -10.334078      -281.2046
   3   2.0000     -10.329929      -281.0917
   4   2.0000     -10.317033      -280.7407
   5   2.0000     -10.315562      -280.7007
   6   2.0000     -10.309432      -280.5339
   7   2.0000     -10.304009      -280.3863
   8   2.0000     -10.300502      -280.2909
   9   2.0000     -10.293311      -280.0952
  10   2.0000     -10.288773      -279.9717
  11   2.0000     -10.288546      -279.9656
  12   2.0000     -10.287074      -279.9255
  13   2.0000     -10.285709      -279.8884
  14   2.0000     -10.274968      -279.5961
  15   2.0000     -10.273208      -279.5482
  16   2.0000      -8.084121      -219.9801
  17   2.0000      -8.072304      -219.6585
  18   2.0000      -6.042571      -164.4267
  19   2.0000      -6.038743      -164.3226
  20   2.0000      -6.034831      -164.2161
  21   2.0000      -6.030841      -164.1075
  22   2.0000      -6.026689      -163.9945
  23   2.0000      -6.023144      -163.8981
  24   2.0000      -1.003626       -27.3100
  25   2.0000      -0.981721       -26.7140
  26   2.0000      -0.914496       -24.8847
  27   2.0000      -0.910066       -24.7642
  28   2.0000      -0.871549       -23.7161
  29   2.0000      -0.853350       -23.2208
  30   2.0000      -0.844438       -22.9783
  31   2.0000      -0.816552       -22.2195
  32   2.0000      -0.789749       -21.4902
  33   2.0000      -0.776194       -21.1213
  34   2.0000      -0.707661       -19.2564
  35   2.0000      -0.703993       -19.1566
  36   2.0000      -0.701682       -19.0937
  37   2.0000      -0.670280       -18.2392
  38   2.0000      -0.644795       -17.5458
  39   2.0000      -0.613960       -16.7067
  40   2.0000      -0.596478       -16.2310
  41   2.0000      -0.575506       -15.6603
  42   2.0000      -0.564359       -15.3570
  43   2.0000      -0.555371       -15.1124
  44   2.0000      -0.547833       -14.9073
  45   2.0000      -0.537268       -14.6198
  46   2.0000      -0.521865       -14.2007
  47   2.0000      -0.514304       -13.9949
  48   2.0000      -0.506786       -13.7904
  49   2.0000      -0.497578       -13.5398
  50   2.0000      -0.495340       -13.4789
  51   2.0000      -0.478215       -13.0129
  52   2.0000      -0.475282       -12.9331
  53   2.0000      -0.471734       -12.8365
  54   2.0000      -0.460087       -12.5196
  55   2.0000      -0.452348       -12.3090
  56   2.0000      -0.447525       -12.1778
  57   2.0000      -0.438158       -11.9229
  58   2.0000      -0.433413       -11.7938
  59   2.0000      -0.427698       -11.6382
  60   2.0000      -0.420707       -11.4480
  61   2.0000      -0.405767       -11.0415
  62   2.0000      -0.399450       -10.8696
  63   2.0000      -0.353662        -9.6236
  64   2.0000      -0.335200        -9.1213
  65   2.0000      -0.324497        -8.8300
  66   2.0000      -0.289185        -7.8691
  67   0.0000       0.023463         0.6385
  68   0.0000       0.066866         1.8195
  69   0.0000       0.110998         3.0204
  70   0.0000       0.123007         3.3472
  71   0.0000       0.124551         3.3892

MULLIKEN ATOMIC CHARGES
-----------------------
   0 S :    0.122928
   1 C :   -0.133139
   2 C :   -0.071109
   3 C :    0.003739
   4 C :   -0.144727
   5 H :    0.013659
   6 C :    0.154840
   7 H :   -0.000276
   8 H :   -0.001079
   9 C :   -0.084071
  10 H :    0.018393
  11 H :    0.026200
  12 C :   -0.032786
  13 H :    0.018558
  14 H :    0.036328
  15 H :    0.034920
  16 S :    0.057681
  17 C :   -0.052685
  18 C :   -0.003838
  19 C :   -0.057267
  20 C :   -0.130380
  21 H :   -0.012690
  22 C :    0.042229
  23 H :    0.026275
  24 H :    0.008148
  25 C :   -0.085110
  26 H :    0.020230
  27 H :    0.016873
  28 C :    0.035962
  29 H :    0.014439
  30 H :    0.030432
  31 H :    0.037294
  32 H :    0.049975
  33 H :    0.040055
Sum of atomic charges:   -0.0000000

LOEWDIN ATOMIC CHARGES
----------------------
   0 S :    0.408124
   1 C :   -0.190910
   2 C :   -0.057980
   3 C :   -0.064926
   4 C :   -0.190396
   5 H :    0.032832
   6 C :   -0.014575
   7 H :    0.025682
   8 H :    0.018118
   9 C :   -0.047160
  10 H :    0.024694
  11 H :    0.029357
  12 C :   -0.066117
  13 H :    0.025967
  14 H :    0.031405
  15 H :    0.022795
  16 S :    0.382569
  17 C :   -0.167787
  18 C :   -0.057977
  19 C :   -0.060108
  20 C :   -0.184774
  21 H :    0.014439
  22 C :   -0.036955
  23 H :    0.028402
  24 H :    0.026206
  25 C :   -0.038950
  26 H :    0.022662
  27 H :    0.020540
  28 C :   -0.049950
  29 H :    0.020523
  30 H :    0.020480
  31 H :    0.034382
  32 H :    0.026032
  33 H :    0.013357

  Mayer bond orders larger than 0.100000
B(  0-S ,  1-C ) :   1.1503 B(  0-S ,  4-C ) :   1.1415 B(  1-C ,  2-C ) :   1.6177
B(  1-C , 32-H ) :   0.9650 B(  2-C ,  3-C ) :   1.2254 B(  2-C ,  6-C ) :   1.0094
B(  3-C ,  4-C ) :   1.5788 B(  3-C ,  5-H ) :   0.9894 B(  4-C , 20-C ) :   1.0655
B(  6-C ,  7-H ) :   0.9281 B(  6-C ,  8-H ) :   0.9360 B(  6-C ,  9-C ) :   1.1013
B(  9-C , 10-H ) :   0.9503 B(  9-C , 11-H ) :   0.9494 B(  9-C , 12-C ) :   1.0685
B( 12-C , 13-H ) :   0.9707 B( 12-C , 14-H ) :   0.9747 B( 12-C , 15-H ) :   0.9750
B( 16-S , 17-C ) :   1.1570 B( 16-S , 20-C ) :   1.1320 B( 17-C , 18-C ) :   1.5727
B( 17-C , 20-C ) :   0.1021 B( 17-C , 33-H ) :   0.9811 B( 18-C , 19-C ) :   1.2655
B( 18-C , 21-H ) :   1.0029 B( 19-C , 20-C ) :   1.5691 B( 19-C , 22-C ) :   1.0416
B( 22-C , 23-H ) :   0.9386 B( 22-C , 24-H ) :   0.9279 B( 22-C , 25-C ) :   1.0540
B( 25-C , 26-H ) :   0.9521 B( 25-C , 27-H ) :   0.9526 B( 25-C , 28-C ) :   1.0651
B( 28-C , 29-H ) :   0.9709 B( 28-C , 30-H ) :   0.9766 B( 28-C , 31-H ) :   0.9719

Dispersion correction           -0.014300428
FINAL SINGLE POINT ENERGY     -1339.855666984216

DIPOLE MOMENT
-------------
                                X             Y             Z
Electronic contribution:    -18.31690     -21.89826       7.31079
Nuclear contribution   :     19.02470      22.23284      -7.23152
                        -----------------------------------------
Total Dipole Moment    :      0.70780       0.33458       0.07927
                        -----------------------------------------
Magnitude (a.u.)       :      0.78690
Magnitude (Debye)      :      2.00013

Rotational constants in cm-1:     0.017321     0.009257     0.006825
Rotational constants in MHz :   519.283031   277.508164   204.615042

                             ****ORCA TERMINATED NORMALLY****
TOTAL RUN TIME: 0 days 0 hours 0 minutes 33 seconds 704 msec
