                         Program Version 4.2.1 -  RELEASE  -
|  1> ! wB97X-D3 SP def2-SVP
|  2> %pal
|  3> nprocs 16
|  4> end
|  5>
|  6> * xyz 0 1
|  7> S 	 -3.38695 	 49.8019 	 40.4087
|  8> C 	 -5.06041 	 50.3162 	 40.5597
|  9> C 	 -5.87067 	 49.4048 	 41.2281
| 10> C 	 -5.20249 	 48.1953 	 41.2135
| 11> C 	 -3.85699 	 48.1986 	 40.901
| 12> H 	 -5.64497 	 47.2298 	 41.4907
| 13> C 	 -7.30591 	 49.5464 	 41.7748
| 14> H 	 -7.66927 	 50.3487 	 41.1304
| 15> H 	 -7.298 	 49.9224 	 42.8469
| 16> C 	 -8.28696 	 48.3864 	 41.6641
| 17> H 	 -9.2944 	 48.653 	 41.9312
| 18> H 	 -8.34383 	 48.0846 	 40.5478
| 19> C 	 -8.03289 	 47.2065 	 42.6398
| 20> H 	 -8.78811 	 47.1214 	 43.4139
| 21> H 	 -8.27689 	 46.2622 	 42.2235
| 22> H 	 -7.00287 	 47.0919 	 42.9827
| 23> S 	 -2.03939 	 46.9787 	 39.2163
| 24> C 	 -1.2236 	 45.504 	 39.7933
| 25> C 	 -1.73694 	 45.0692 	 40.9672
| 26> C 	 -2.77354 	 45.8895 	 41.4819
| 27> C 	 -2.96272 	 47.0742 	 40.7417
| 28> H 	 -1.36927 	 44.0862 	 41.3758
| 29> C 	 -3.47126 	 45.5883 	 42.7489
| 30> H 	 -2.98342 	 44.684 	 43.0938
| 31> H 	 -4.53205 	 45.4201 	 42.6426
| 32> C 	 -3.49363 	 46.6921 	 43.8086
| 33> H 	 -4.18807 	 47.3625 	 43.4419
| 34> H 	 -2.46267 	 47.1041 	 43.8897
| 35> C 	 -3.8017 	 46.1636 	 45.1447
| 36> H 	 -3.71187 	 46.9118 	 45.9105
| 37> H 	 -3.11067 	 45.3783 	 45.5248
| 38> H 	 -4.80948 	 45.7587 	 45.1832
| 39> H 	 -5.38468 	 51.2792 	 40.2332
| 40> H 	 -0.427318 	 44.9441 	 39.2877
| 41> *
| 42>
| 43>                          ****END OF INPUT****

CARTESIAN COORDINATES (ANGSTROEM)
---------------------------------
  S     -3.386950   49.801900   40.408700
  C     -5.060410   50.316200   40.559700
  C     -5.870670   49.404800   41.228100
  C     -5.202490   48.195300   41.213500
  C     -3.856990   48.198600   40.901000
  H     -5.644970   47.229800   41.490700
  C     -7.305910   49.546400   41.774800
  H     -7.669270   50.348700   41.130400
  H     -7.298000   49.922400   42.846900
  C     -8.286960   48.386400   41.664100
  H     -9.294400   48.653000   41.931200
  H     -8.343830   48.084600   40.547800
  C     -8.032890   47.206500   42.639800
  H     -8.788110   47.121400   43.413900
  H     -8.276890   46.262200   42.223500
  H     -7.002870   47.091900   42.982700
  S     -2.039390   46.978700   39.216300
  C     -1.223600   45.504000   39.793300
  C     -1.736940   45.069200   40.967200
  C     -2.773540   45.889500   41.481900
  C     -2.962720   47.074200   40.741700
  H     -1.369270   44.086200   41.375800
  C     -3.471260   45.588300   42.748900
  H     -2.983420   44.684000   43.093800
  H     -4.532050   45.420100   42.642600
  C     -3.493630   46.692100   43.808600
  H     -4.188070   47.362500   43.441900
  H     -2.462670   47.104100   43.889700
  C     -3.801700   46.163600   45.144700
  H     -3.711870   46.911800   45.910500
  H     -3.110670   45.378300   45.524800
  H     -4.809480   45.758700   45.183200
  H     -5.384680   51.279200   40.233200
  H     -0.427318   44.944100   39.287700

 Total Charge           Charge          ....    0
 Multiplicity           Mult            ....    1
 Number of Electrons    NEL             ....  134
 Basis Dimension        Dim             ....  322

ORBITAL ENERGIES
----------------

  NO   OCC          E(Eh)            E(eV)
   0   2.0000     -88.968950     -2420.9682
   1   2.0000     -88.963715     -2420.8257
   2   2.0000     -10.326960      -281.0109
   3   2.0000     -10.324705      -280.9495
   4   2.0000     -10.316289      -280.7205
   5   2.0000     -10.316218      -280.7186
   6   2.0000     -10.304405      -280.3971
   7   2.0000     -10.303528      -280.3732
   8   2.0000     -10.300779      -280.2985
   9   2.0000     -10.299180      -280.2549
  10   2.0000     -10.293961      -280.1129
  11   2.0000     -10.288668      -279.9689
  12   2.0000     -10.281736      -279.7803
  13   2.0000     -10.279536      -279.7204
  14   2.0000     -10.271636      -279.5054
  15   2.0000     -10.271057      -279.4897
  16   2.0000      -8.083610      -219.9662
  17   2.0000      -8.077401      -219.7973
  18   2.0000      -6.042000      -164.4112
  19   2.0000      -6.038210      -164.3080
  20   2.0000      -6.036037      -164.2489
  21   2.0000      -6.034414      -164.2048
  22   2.0000      -6.032091      -164.1415
  23   2.0000      -6.028029      -164.0310
  24   2.0000      -1.008548       -27.4440
  25   2.0000      -0.983573       -26.7644
  26   2.0000      -0.917769       -24.9738
  27   2.0000      -0.912643       -24.8343
  28   2.0000      -0.871953       -23.7271
  29   2.0000      -0.853389       -23.2219
  30   2.0000      -0.847722       -23.0677
  31   2.0000      -0.816947       -22.2303
  32   2.0000      -0.791274       -21.5316
  33   2.0000      -0.770200       -20.9582
  34   2.0000      -0.712780       -19.3957
  35   2.0000      -0.703305       -19.1379
  36   2.0000      -0.687556       -18.7093
  37   2.0000      -0.656788       -17.8721
  38   2.0000      -0.640974       -17.4418
  39   2.0000      -0.624306       -16.9882
  40   2.0000      -0.599152       -16.3038
  41   2.0000      -0.573328       -15.6010
  42   2.0000      -0.569472       -15.4961
  43   2.0000      -0.552392       -15.0314
  44   2.0000      -0.546035       -14.8584
  45   2.0000      -0.521399       -14.1880
  46   2.0000      -0.517758       -14.0889
  47   2.0000      -0.508425       -13.8349
  48   2.0000      -0.501119       -13.6361
  49   2.0000      -0.497976       -13.5506
  50   2.0000      -0.492729       -13.4078
  51   2.0000      -0.484946       -13.1960
  52   2.0000      -0.475214       -12.9312
  53   2.0000      -0.465991       -12.6803
  54   2.0000      -0.462430       -12.5834
  55   2.0000      -0.448722       -12.2104
  56   2.0000      -0.445430       -12.1208
  57   2.0000      -0.439529       -11.9602
  58   2.0000      -0.432984       -11.7821
  59   2.0000      -0.422185       -11.4882
  60   2.0000      -0.421212       -11.4618
  61   2.0000      -0.413059       -11.2399
  62   2.0000      -0.408422       -11.1137
  63   2.0000      -0.346369        -9.4252
  64   2.0000      -0.334662        -9.1066
  65   2.0000      -0.327231        -8.9044
  66   2.0000      -0.283446        -7.7130
  67   0.0000       0.019286         0.5248
  68   0.0000       0.072744         1.9795
  69   0.0000       0.103957         2.8288
  70   0.0000       0.113698         3.0939
  71   0.0000       0.133301         3.6273

MULLIKEN ATOMIC CHARGES
-----------------------
   0 S :    0.124820
   1 C :   -0.135144
   2 C :   -0.058062
   3 C :    0.004884
   4 C :   -0.166092
   5 H :    0.007295
   6 C :    0.064181
   7 H :    0.023121
   8 H :    0.061257
   9 C :   -0.084549
  10 H :    0.030007
  11 H :    0.049718
  12 C :   -0.049456
  13 H :    0.025232
  14 H :    0.013222
  15 H :    0.038782
  16 S :    0.095825
  17 C :   -0.090237
  18 C :   -0.053404
  19 C :   -0.014952
  20 C :   -0.143231
  21 H :    0.036837
  22 C :    0.059509
  23 H :    0.000144
  24 H :    0.021439
  25 C :   -0.050905
  26 H :    0.024583
  27 H :    0.031615
  28 C :   -0.025421
  29 H :    0.024479
  30 H :    0.026196
  31 H :    0.016288
  32 H :    0.034217
  33 H :    0.057803
Sum of atomic charges:    0.0000000

LOEWDIN ATOMIC CHARGES
----------------------
   0 S :    0.414578
   1 C :   -0.182821
   2 C :   -0.063050
   3 C :   -0.066695
   4 C :   -0.204652
   5 H :    0.030452
   6 C :   -0.034171
   7 H :    0.034588
   8 H :    0.043972
   9 C :   -0.047520
  10 H :    0.028273
  11 H :    0.036244
  12 C :   -0.078808
  13 H :    0.029726
  14 H :    0.026775
  15 H :    0.022096
  16 S :    0.377343
  17 C :   -0.177589
  18 C :   -0.080493
  19 C :   -0.055163
  20 C :   -0.187057
  21 H :    0.043190
  22 C :   -0.031870
  23 H :    0.025476
  24 H :    0.027882
  25 C :   -0.035127
  26 H :    0.013118
  27 H :    0.030168
  28 C :   -0.063562
  29 H :    0.023916
  30 H :    0.028119
  31 H :    0.020120
  32 H :    0.017453
  33 H :    0.035088

  Mayer bond orders larger than 0.100000
B(  0-S ,  1-C ) :   1.1625 B(  0-S ,  4-C ) :   1.1449 B(  1-C ,  2-C ) :   1.5788
B(  1-C ,  4-C ) :   0.1035 B(  1-C , 32-H ) :   0.9696 B(  2-C ,  3-C ) :   1.2713
B(  2-C ,  6-C ) :   1.0005 B(  3-C ,  4-C ) :   1.5630 B(  3-C ,  5-H ) :   0.9732
B(  4-C , 20-C ) :   1.0759 B(  6-C ,  7-H ) :   0.9345 B(  6-C ,  8-H ) :   0.9339
B(  6-C ,  9-C ) :   1.0912 B(  9-C , 10-H ) :   0.9567 B(  9-C , 11-H ) :   0.9594
B(  9-C , 12-C ) :   1.0510 B( 12-C , 13-H ) :   0.9712 B( 12-C , 14-H ) :   0.9657
B( 12-C , 15-H ) :   0.9784 B( 16-S , 17-C ) :   1.1359 B( 16-S , 20-C ) :   1.1267
B( 17-C , 18-C ) :   1.6390 B( 17-C , 33-H ) :   0.9599 B( 18-C , 19-C ) :   1.2436
B( 18-C , 21-H ) :   0.9763 B( 19-C , 20-C ) :   1.5650 B( 19-C , 22-C ) :   1.0646
B( 22-C , 23-H ) :   0.9315 B( 22-C , 24-H ) :   0.9166 B( 22-C , 25-C ) :   1.0646
B( 25-C , 26-H ) :   0.9422 B( 25-C , 27-H ) :   0.9532 B( 25-C , 28-C ) :   1.1118
B( 28-C , 29-H ) :   0.9697 B( 28-C , 30-H ) :   0.9703 B( 28-C , 31-H ) :   0.9666

Dispersion correction           -0.015308661
FINAL SINGLE POINT ENERGY     -1339.855162363140

DIPOLE MOMENT
-------------
                                X             Y             Z
Electronic contribution:     19.59857       8.57840     -21.53742
Nuclear contribution   :    -20.18419      -8.86716      21.94870
                        -----------------------------------------
Total Dipole Moment    :     -0.58562      -0.28876       0.41128
                        -----------------------------------------
Magnitude (a.u.)       :      0.77168
Magnitude (Debye)      :      1.96144

Rotational constants in cm-1:     0.017076     0.010530     0.007774
Rotational constants in MHz :   511.927497   315.681192   233.062425

                             ****ORCA TERMINATED NORMALLY****
TOTAL RUN TIME: 0 days 0 hours 0 minutes 37 seconds 233 msec
