                         Program Version 4.2.1 -  RELEASE  -
|  1> ! wB97X-D3 SP def2-SVP
|  2> %pal
|  3> nprocs 16
|  4> end
|  5>
|  6> * xyz 0 1
|  7> S 	 -35.9207 	 49.2848 	 100.343
|  8> C 	 -34.2831 	 48.7639 	 100.655
|  9> C 	 -33.327 	 49.4941 	 99.9352
| 10> C 	 -33.9627 	 50.4948 	 99.1249
| 11> C 	 -35.3634 	 50.4578 	 99.1285
| 12> H 	 -33.4976 	 51.1896 	 98.444
| 13> C 	 -31.8475 	 49.3092 	 99.8288
| 14> H 	 -31.3309 	 49.0236 	 100.789
| 15> H 	 -31.3947 	 50.2571 	 99.6574
| 16> C 	 -31.3212 	 48.3137 	 98.7876
| 17> H 	 -30.1686 	 48.3162 	 98.9585
| 18> H 	 -31.6532 	 47.2704 	 99.1514
| 19> C 	 -31.6856 	 48.5235 	 97.2313
| 20> H 	 -30.9385 	 49.053 	 96.6884
| 21> H 	 -31.9773 	 47.5984 	 96.7706
| 22> H 	 -32.5475 	 49.1959 	 97.2189
| 23> S 	 -36.0558 	 53.1645 	 98.5706
| 24> C 	 -37.3483 	 53.5357 	 97.4862
| 25> C 	 -37.9818 	 52.3639 	 97.0602
| 26> C 	 -37.3496 	 51.218 	 97.5462
| 27> C 	 -36.2434 	 51.4309 	 98.3905
| 28> H 	 -38.8366 	 52.5212 	 96.4317
| 29> C 	 -37.8761 	 49.8711 	 97.2121
| 30> H 	 -38.7223 	 50.1235 	 96.6134
| 31> H 	 -38.307 	 49.5599 	 98.1808
| 32> C 	 -36.9567 	 48.873 	 96.4738
| 33> H 	 -36.0941 	 48.6153 	 97.078
| 34> H 	 -36.4713 	 49.3035 	 95.579
| 35> C 	 -37.7844 	 47.7198 	 95.9659
| 36> H 	 -38.0987 	 47.1284 	 96.8111
| 37> H 	 -37.1528 	 47.0333 	 95.3182
| 38> H 	 -38.6421 	 48.049 	 95.4694
| 39> H 	 -33.9975 	 47.9527 	 101.281
| 40> H 	 -37.4922 	 54.4529 	 97.0044
| 41> *
| 42>
| 43>                          ****END OF INPUT****

CARTESIAN COORDINATES (ANGSTROEM)
---------------------------------
  S    -35.920700   49.284800  100.343000
  C    -34.283100   48.763900  100.655000
  C    -33.327000   49.494100   99.935200
  C    -33.962700   50.494800   99.124900
  C    -35.363400   50.457800   99.128500
  H    -33.497600   51.189600   98.444000
  C    -31.847500   49.309200   99.828800
  H    -31.330900   49.023600  100.789000
  H    -31.394700   50.257100   99.657400
  C    -31.321200   48.313700   98.787600
  H    -30.168600   48.316200   98.958500
  H    -31.653200   47.270400   99.151400
  C    -31.685600   48.523500   97.231300
  H    -30.938500   49.053000   96.688400
  H    -31.977300   47.598400   96.770600
  H    -32.547500   49.195900   97.218900
  S    -36.055800   53.164500   98.570600
  C    -37.348300   53.535700   97.486200
  C    -37.981800   52.363900   97.060200
  C    -37.349600   51.218000   97.546200
  C    -36.243400   51.430900   98.390500
  H    -38.836600   52.521200   96.431700
  C    -37.876100   49.871100   97.212100
  H    -38.722300   50.123500   96.613400
  H    -38.307000   49.559900   98.180800
  C    -36.956700   48.873000   96.473800
  H    -36.094100   48.615300   97.078000
  H    -36.471300   49.303500   95.579000
  C    -37.784400   47.719800   95.965900
  H    -38.098700   47.128400   96.811100
  H    -37.152800   47.033300   95.318200
  H    -38.642100   48.049000   95.469400
  H    -33.997500   47.952700  101.281000
  H    -37.492200   54.452900   97.004400

 Total Charge           Charge          ....    0
 Multiplicity           Mult            ....    1
 Number of Electrons    NEL             ....  134
 Basis Dimension        Dim             ....  322

ORBITAL ENERGIES
----------------

  NO   OCC          E(Eh)            E(eV)
   0   2.0000     -88.973061     -2421.0801
   1   2.0000     -88.966319     -2420.8966
   2   2.0000     -10.338007      -281.3115
   3   2.0000     -10.328313      -281.0477
   4   2.0000     -10.318979      -280.7937
   5   2.0000     -10.312800      -280.6256
   6   2.0000     -10.305608      -280.4298
   7   2.0000     -10.305192      -280.4185
   8   2.0000     -10.298428      -280.2345
   9   2.0000     -10.297785      -280.2170
  10   2.0000     -10.294332      -280.1230
  11   2.0000     -10.290980      -280.0318
  12   2.0000     -10.283473      -279.8275
  13   2.0000     -10.281372      -279.7704
  14   2.0000     -10.278566      -279.6940
  15   2.0000     -10.270869      -279.4845
  16   2.0000      -8.086718      -220.0508
  17   2.0000      -8.080948      -219.8938
  18   2.0000      -6.045235      -164.4992
  19   2.0000      -6.041343      -164.3933
  20   2.0000      -6.039337      -164.3387
  21   2.0000      -6.037572      -164.2907
  22   2.0000      -6.035207      -164.2263
  23   2.0000      -6.032103      -164.1419
  24   2.0000      -1.003064       -27.2948
  25   2.0000      -0.984611       -26.7926
  26   2.0000      -0.910548       -24.7773
  27   2.0000      -0.905687       -24.6450
  28   2.0000      -0.864172       -23.5153
  29   2.0000      -0.855159       -23.2700
  30   2.0000      -0.841922       -22.9099
  31   2.0000      -0.814175       -22.1548
  32   2.0000      -0.786250       -21.3949
  33   2.0000      -0.768873       -20.9221
  34   2.0000      -0.709318       -19.3015
  35   2.0000      -0.699640       -19.0382
  36   2.0000      -0.690868       -18.7995
  37   2.0000      -0.663500       -18.0547
  38   2.0000      -0.642067       -17.4715
  39   2.0000      -0.613282       -16.6883
  40   2.0000      -0.588800       -16.0221
  41   2.0000      -0.576608       -15.6903
  42   2.0000      -0.564406       -15.3583
  43   2.0000      -0.542492       -14.7620
  44   2.0000      -0.535480       -14.5712
  45   2.0000      -0.524374       -14.2689
  46   2.0000      -0.520161       -14.1543
  47   2.0000      -0.515144       -14.0178
  48   2.0000      -0.504284       -13.7223
  49   2.0000      -0.495767       -13.4905
  50   2.0000      -0.485846       -13.2206
  51   2.0000      -0.480029       -13.0622
  52   2.0000      -0.476719       -12.9722
  53   2.0000      -0.471899       -12.8410
  54   2.0000      -0.459097       -12.4927
  55   2.0000      -0.450885       -12.2692
  56   2.0000      -0.441802       -12.0220
  57   2.0000      -0.439970       -11.9722
  58   2.0000      -0.429778       -11.6948
  59   2.0000      -0.416917       -11.3449
  60   2.0000      -0.415309       -11.3011
  61   2.0000      -0.412250       -11.2179
  62   2.0000      -0.407895       -11.0994
  63   2.0000      -0.339597        -9.2409
  64   2.0000      -0.334949        -9.1144
  65   2.0000      -0.328712        -8.9447
  66   2.0000      -0.295255        -8.0343
  67   0.0000       0.025029         0.6811
  68   0.0000       0.065423         1.7803
  69   0.0000       0.107450         2.9239
  70   0.0000       0.117937         3.2092
  71   0.0000       0.126627         3.4457

MULLIKEN ATOMIC CHARGES
-----------------------
   0 S :    0.121284
   1 C :   -0.105224
   2 C :   -0.061296
   3 C :    0.011031
   4 C :   -0.159646
   5 H :    0.018436
   6 C :    0.054393
   7 H :    0.030550
   8 H :    0.017478
   9 C :   -0.129715
  10 H :    0.044531
  11 H :    0.035426
  12 C :   -0.024052
  13 H :    0.033542
  14 H :    0.041101
  15 H :    0.023398
  16 S :    0.116292
  17 C :   -0.088494
  18 C :   -0.048743
  19 C :   -0.056801
  20 C :   -0.149917
  21 H :    0.018205
  22 C :    0.079087
  23 H :   -0.006766
  24 H :    0.037884
  25 C :   -0.056723
  26 H :    0.040862
  27 H :    0.025171
  28 C :   -0.023096
  29 H :    0.022222
  30 H :    0.038492
  31 H :    0.018552
  32 H :    0.037788
  33 H :    0.044749
Sum of atomic charges:    0.0000000

LOEWDIN ATOMIC CHARGES
----------------------
   0 S :    0.405203
   1 C :   -0.188702
   2 C :   -0.064389
   3 C :   -0.057868
   4 C :   -0.190056
   5 H :    0.029056
   6 C :   -0.045342
   7 H :    0.039573
   8 H :    0.026253
   9 C :   -0.046247
  10 H :    0.032082
  11 H :    0.026957
  12 C :   -0.066374
  13 H :    0.023125
  14 H :    0.028165
  15 H :    0.027613
  16 S :    0.426146
  17 C :   -0.186332
  18 C :   -0.074859
  19 C :   -0.058620
  20 C :   -0.212451
  21 H :    0.032735
  22 C :   -0.035799
  23 H :    0.023969
  24 H :    0.036900
  25 C :   -0.038774
  26 H :    0.024279
  27 H :    0.027711
  28 C :   -0.059550
  29 H :    0.023069
  30 H :    0.032383
  31 H :    0.015408
  32 H :    0.024068
  33 H :    0.020669

  Mayer bond orders larger than 0.100000
B(  0-S ,  1-C ) :   1.1502 B(  0-S ,  4-C ) :   1.1391 B(  1-C ,  2-C ) :   1.5961
B(  1-C , 32-H ) :   0.9700 B(  2-C ,  3-C ) :   1.2380 B(  2-C ,  6-C ) :   1.0324
B(  3-C ,  4-C ) :   1.5705 B(  3-C ,  5-H ) :   0.9904 B(  4-C , 20-C ) :   1.0371
B(  6-C ,  7-H ) :   0.9371 B(  6-C ,  8-H ) :   0.9376 B(  6-C ,  9-C ) :   1.0736
B(  9-C , 10-H ) :   0.9582 B(  9-C , 11-H ) :   0.9625 B(  9-C , 12-C ) :   1.0417
B( 12-C , 13-H ) :   0.9763 B( 12-C , 14-H ) :   0.9782 B( 12-C , 15-H ) :   0.9788
B( 16-S , 17-C ) :   1.1986 B( 16-S , 20-C ) :   1.1444 B( 17-C , 18-C ) :   1.5493
B( 17-C , 20-C ) :   0.1070 B( 17-C , 33-H ) :   0.9676 B( 18-C , 19-C ) :   1.3021
B( 18-C , 21-H ) :   0.9968 B( 19-C , 20-C ) :   1.5235 B( 19-C , 22-C ) :   1.0321
B( 22-C , 23-H ) :   0.9310 B( 22-C , 24-H ) :   0.9220 B( 22-C , 25-C ) :   1.0557
B( 25-C , 26-H ) :   0.9517 B( 25-C , 27-H ) :   0.9562 B( 25-C , 28-C ) :   1.0887
B( 28-C , 29-H ) :   0.9728 B( 28-C , 30-H ) :   0.9739 B( 28-C , 31-H ) :   0.9739

Dispersion correction           -0.015035802
FINAL SINGLE POINT ENERGY     -1339.869307639175

DIPOLE MOMENT
-------------
                                X             Y             Z
Electronic contribution:     -9.15106      17.10936      13.99940
Nuclear contribution   :      9.33460     -17.27191     -14.34876
                        -----------------------------------------
Total Dipole Moment    :      0.18354      -0.16255      -0.34936
                        -----------------------------------------
Magnitude (a.u.)       :      0.42681
Magnitude (Debye)      :      1.08486

Rotational constants in cm-1:     0.017513     0.009138     0.007792
Rotational constants in MHz :   525.018461   273.957541   233.588058

                             ****ORCA TERMINATED NORMALLY****
TOTAL RUN TIME: 0 days 0 hours 0 minutes 30 seconds 659 msec
