                         Program Version 4.2.1 -  RELEASE  -
|  1> ! wB97X-D3 SP def2-SVP
|  2> %pal
|  3> nprocs 16
|  4> end
|  5>
|  6> * xyz 0 1
|  7> S 	 52.9438 	 0.0123566 	 85.1896
|  8> C 	 52.4913 	 0.523327 	 83.5279
|  9> C 	 53.1941 	 -0.104346 	 82.539
| 10> C 	 54.0968 	 -1.08587 	 83.0947
| 11> C 	 54.0836 	 -1.1408 	 84.5087
| 12> H 	 54.7638 	 -1.63612 	 82.439
| 13> C 	 53.1684 	 0.181005 	 81.0885
| 14> H 	 54.1654 	 0.63376 	 80.8079
| 15> H 	 52.471 	 0.981073 	 80.9103
| 16> C 	 52.8833 	 -1.06598 	 80.167
| 17> H 	 53.341 	 -1.99844 	 80.6237
| 18> H 	 51.8147 	 -1.27385 	 79.9812
| 19> C 	 53.5346 	 -0.728498 	 78.837
| 20> H 	 52.9272 	 -0.0758514 	 78.2297
| 21> H 	 54.5689 	 -0.373031 	 78.8293
| 22> H 	 53.5895 	 -1.60206 	 78.1773
| 23> S 	 54.0574 	 -3.33103 	 86.2723
| 24> C 	 55.5051 	 -4.19211 	 86.632
| 25> C 	 56.5751 	 -3.51712 	 86.0966
| 26> C 	 56.2094 	 -2.42524 	 85.2606
| 27> C 	 54.8574 	 -2.12024 	 85.2915
| 28> H 	 57.5745 	 -3.87151 	 86.2316
| 29> C 	 57.2468 	 -1.49553 	 84.6711
| 30> H 	 56.832 	 -0.619656 	 84.1683
| 31> H 	 57.7275 	 -2.01552 	 83.8097
| 32> C 	 58.3466 	 -0.958339 	 85.5802
| 33> H 	 58.9633 	 -1.79436 	 85.8484
| 34> H 	 57.9227 	 -0.519419 	 86.427
| 35> C 	 59.1435 	 0.262742 	 84.9546
| 36> H 	 58.4545 	 1.06768 	 84.8809
| 37> H 	 59.6037 	 0.134663 	 83.9439
| 38> H 	 59.7757 	 0.661839 	 85.7717
| 39> H 	 51.8326 	 1.3324 	 83.3112
| 40> H 	 55.6833 	 -5.11469 	 87.2222
| 41> *
| 42>
| 43>                          ****END OF INPUT****

CARTESIAN COORDINATES (ANGSTROEM)
---------------------------------
  S     52.943800    0.012357   85.189600
  C     52.491300    0.523327   83.527900
  C     53.194100   -0.104346   82.539000
  C     54.096800   -1.085870   83.094700
  C     54.083600   -1.140800   84.508700
  H     54.763800   -1.636120   82.439000
  C     53.168400    0.181005   81.088500
  H     54.165400    0.633760   80.807900
  H     52.471000    0.981073   80.910300
  C     52.883300   -1.065980   80.167000
  H     53.341000   -1.998440   80.623700
  H     51.814700   -1.273850   79.981200
  C     53.534600   -0.728498   78.837000
  H     52.927200   -0.075851   78.229700
  H     54.568900   -0.373031   78.829300
  H     53.589500   -1.602060   78.177300
  S     54.057400   -3.331030   86.272300
  C     55.505100   -4.192110   86.632000
  C     56.575100   -3.517120   86.096600
  C     56.209400   -2.425240   85.260600
  C     54.857400   -2.120240   85.291500
  H     57.574500   -3.871510   86.231600
  C     57.246800   -1.495530   84.671100
  H     56.832000   -0.619656   84.168300
  H     57.727500   -2.015520   83.809700
  C     58.346600   -0.958339   85.580200
  H     58.963300   -1.794360   85.848400
  H     57.922700   -0.519419   86.427000
  C     59.143500    0.262742   84.954600
  H     58.454500    1.067680   84.880900
  H     59.603700    0.134663   83.943900
  H     59.775700    0.661839   85.771700
  H     51.832600    1.332400   83.311200
  H     55.683300   -5.114690   87.222200

 Total Charge           Charge          ....    0
 Multiplicity           Mult            ....    1
 Number of Electrons    NEL             ....  134
 Basis Dimension        Dim             ....  322

ORBITAL ENERGIES
----------------

  NO   OCC          E(Eh)            E(eV)
   0   2.0000     -88.970133     -2421.0004
   1   2.0000     -88.963658     -2420.8242
   2   2.0000     -10.336752      -281.2773
   3   2.0000     -10.326104      -280.9876
   4   2.0000     -10.317324      -280.7487
   5   2.0000     -10.313352      -280.6406
   6   2.0000     -10.299748      -280.2704
   7   2.0000     -10.298994      -280.2499
   8   2.0000     -10.297796      -280.2173
   9   2.0000     -10.297523      -280.2098
  10   2.0000     -10.297049      -280.1969
  11   2.0000     -10.288326      -279.9596
  12   2.0000     -10.285401      -279.8800
  13   2.0000     -10.281986      -279.7871
  14   2.0000     -10.280431      -279.7447
  15   2.0000     -10.277569      -279.6669
  16   2.0000      -8.083771      -219.9706
  17   2.0000      -8.078744      -219.8338
  18   2.0000      -6.042400      -164.4221
  19   2.0000      -6.038545      -164.3172
  20   2.0000      -6.037306      -164.2835
  21   2.0000      -6.034373      -164.2036
  22   2.0000      -6.032996      -164.1662
  23   2.0000      -6.029614      -164.0741
  24   2.0000      -1.004392       -27.3309
  25   2.0000      -0.981894       -26.7187
  26   2.0000      -0.912846       -24.8398
  27   2.0000      -0.905432       -24.6381
  28   2.0000      -0.869589       -23.6627
  29   2.0000      -0.849457       -23.1149
  30   2.0000      -0.843981       -22.9659
  31   2.0000      -0.811506       -22.0822
  32   2.0000      -0.779643       -21.2152
  33   2.0000      -0.770589       -20.9688
  34   2.0000      -0.710531       -19.3345
  35   2.0000      -0.700663       -19.0660
  36   2.0000      -0.697504       -18.9800
  37   2.0000      -0.654544       -17.8110
  38   2.0000      -0.635646       -17.2968
  39   2.0000      -0.624040       -16.9810
  40   2.0000      -0.596637       -16.2353
  41   2.0000      -0.570993       -15.5375
  42   2.0000      -0.564794       -15.3688
  43   2.0000      -0.561375       -15.2758
  44   2.0000      -0.523331       -14.2405
  45   2.0000      -0.521089       -14.1795
  46   2.0000      -0.516595       -14.0573
  47   2.0000      -0.507806       -13.8181
  48   2.0000      -0.502427       -13.6717
  49   2.0000      -0.499440       -13.5905
  50   2.0000      -0.494174       -13.4472
  51   2.0000      -0.472491       -12.8571
  52   2.0000      -0.466223       -12.6866
  53   2.0000      -0.462562       -12.5870
  54   2.0000      -0.457855       -12.4589
  55   2.0000      -0.454452       -12.3663
  56   2.0000      -0.444081       -12.0840
  57   2.0000      -0.442493       -12.0409
  58   2.0000      -0.433957       -11.8086
  59   2.0000      -0.427696       -11.6382
  60   2.0000      -0.422069       -11.4851
  61   2.0000      -0.413885       -11.2624
  62   2.0000      -0.407614       -11.0917
  63   2.0000      -0.342846        -9.3293
  64   2.0000      -0.331053        -9.0084
  65   2.0000      -0.326719        -8.8905
  66   2.0000      -0.295227        -8.0335
  67   0.0000       0.034313         0.9337
  68   0.0000       0.067987         1.8500
  69   0.0000       0.109259         2.9731
  70   0.0000       0.124968         3.4006
  71   0.0000       0.130779         3.5587

MULLIKEN ATOMIC CHARGES
-----------------------
   0 S :    0.109759
   1 C :   -0.114771
   2 C :   -0.077493
   3 C :    0.033369
   4 C :   -0.155307
   5 H :    0.017651
   6 C :    0.055576
   7 H :    0.049011
   8 H :    0.012379
   9 C :   -0.080921
  10 H :    0.049069
  11 H :    0.047104
  12 C :   -0.064780
  13 H :    0.027078
  14 H :    0.035083
  15 H :    0.020616
  16 S :    0.112018
  17 C :   -0.097105
  18 C :   -0.038169
  19 C :   -0.017507
  20 C :   -0.143415
  21 H :    0.010098
  22 C :    0.033623
  23 H :    0.014311
  24 H :    0.023583
  25 C :   -0.048676
  26 H :    0.028457
  27 H :    0.020436
  28 C :   -0.066941
  29 H :    0.018812
  30 H :    0.049248
  31 H :    0.037352
  32 H :    0.029996
  33 H :    0.070453
Sum of atomic charges:    0.0000000

LOEWDIN ATOMIC CHARGES
----------------------
   0 S :    0.385095
   1 C :   -0.179834
   2 C :   -0.066598
   3 C :   -0.052249
   4 C :   -0.190076
   5 H :    0.029058
   6 C :   -0.032679
   7 H :    0.042131
   8 H :    0.027135
   9 C :   -0.036923
  10 H :    0.030990
  11 H :    0.033233
  12 C :   -0.074490
  13 H :    0.024068
  14 H :    0.024629
  15 H :    0.025015
  16 S :    0.419210
  17 C :   -0.199948
  18 C :   -0.074808
  19 C :   -0.059141
  20 C :   -0.203906
  21 H :    0.026529
  22 C :   -0.041022
  23 H :    0.026141
  24 H :    0.031329
  25 C :   -0.029527
  26 H :    0.016878
  27 H :    0.019853
  28 C :   -0.068990
  29 H :    0.020164
  30 H :    0.029595
  31 H :    0.033770
  32 H :    0.020804
  33 H :    0.044564

  Mayer bond orders larger than 0.100000
B(  0-S ,  1-C ) :   1.1134 B(  0-S ,  4-C ) :   1.1469 B(  1-C ,  2-C ) :   1.6478
B(  1-C , 32-H ) :   0.9633 B(  2-C ,  3-C ) :   1.2264 B(  2-C ,  6-C ) :   1.0342
B(  3-C ,  4-C ) :   1.5716 B(  3-C ,  5-H ) :   0.9874 B(  4-C , 20-C ) :   1.0281
B(  6-C ,  7-H ) :   0.9487 B(  6-C ,  8-H ) :   0.9319 B(  6-C ,  9-C ) :   1.0304
B(  9-C , 10-H ) :   0.9667 B(  9-C , 11-H ) :   0.9538 B(  9-C , 12-C ) :   1.0748
B( 12-C , 13-H ) :   0.9735 B( 12-C , 14-H ) :   0.9784 B( 12-C , 15-H ) :   0.9703
B( 16-S , 17-C ) :   1.1688 B( 16-S , 20-C ) :   1.1368 B( 17-C , 18-C ) :   1.5918
B( 17-C , 33-H ) :   0.9621 B( 18-C , 19-C ) :   1.2585 B( 18-C , 21-H ) :   0.9926
B( 19-C , 20-C ) :   1.5846 B( 19-C , 22-C ) :   1.0479 B( 22-C , 23-H ) :   0.9430
B( 22-C , 24-H ) :   0.9234 B( 22-C , 25-C ) :   1.0712 B( 25-C , 26-H ) :   0.9524
B( 25-C , 27-H ) :   0.9558 B( 25-C , 28-C ) :   1.0824 B( 28-C , 29-H ) :   0.9716
B( 28-C , 30-H ) :   0.9774 B( 28-C , 31-H ) :   0.9737

Dispersion correction           -0.013570352
FINAL SINGLE POINT ENERGY     -1339.876351007981

DIPOLE MOMENT
-------------
                                X             Y             Z
Electronic contribution:    -15.53470      -7.53932      21.68057
Nuclear contribution   :     15.92461       7.66934     -22.27698
                        -----------------------------------------
Total Dipole Moment    :      0.38991       0.13002      -0.59641
                        -----------------------------------------
Magnitude (a.u.)       :      0.72432
Magnitude (Debye)      :      1.84107

Rotational constants in cm-1:     0.016335     0.008102     0.006948
Rotational constants in MHz :   489.719346   242.888851   208.281713

                             ****ORCA TERMINATED NORMALLY****
TOTAL RUN TIME: 0 days 0 hours 0 minutes 29 seconds 226 msec
